Protein in INSANE! Membrane UpperLeaflet>POPC=1.0 LowerLeaflet>POPC=1.0
239078
    1AU     AUC    1  34.067   8.922   7.500
    1AU     AUC    2  34.331   8.925   7.342
    1AU     AUC    3  34.321   8.914   7.652
    1AU     AUC    4  33.819   8.922   7.335
    1AU     AUC    5  33.806   8.940   7.648
    1AU     AUC    6  33.916   9.179   7.494
    1AU     AUC    7  34.227   9.177   7.484
    1AU     AUC    8  33.916   8.664   7.510
    1AU     AUC    9  34.209   8.667   7.525
    1AU     AUC   10  34.059   8.774   7.762
    1AU     AUC   11  34.081   9.087   7.754
    1AU     AUC   12  34.071   8.757   7.245
    1AU     AUC   13  34.060   9.060   7.237
    1AU     AUC   14  34.580   8.917   7.183
    1AU     AUC   15  34.586   8.926   7.492
    1AU     AUC   16  34.578   8.917   7.800
    1AU     AUC   17  33.561   8.908   7.181
    1AU     AUC   18  33.550   8.935   7.486
    1AU     AUC   19  33.556   8.955   7.806
    1AU     AUC   20  33.773   9.445   7.495
    1AU     AUC   21  34.081   9.444   7.491
    1AU     AUC   22  34.373   9.439   7.485
    1AU     AUC   23  33.738   8.410   7.515
    1AU     AUC   24  34.052   8.400   7.508
    1AU     AUC   25  34.367   8.405   7.536
    1AU     AUC   26  34.040   8.626   8.015
    1AU     AUC   27  34.064   8.936   8.026
    1AU     AUC   28  34.085   9.243   8.013
    1AU     AUC   29  34.077   8.582   7.009
    1AU     AUC   30  34.081   8.898   6.978
    1AU     AUC   31  34.058   9.205   6.972
    1AU     AUC   32  34.330   8.778   7.928
    1AU     AUC   33  34.335   9.071   7.917
    1AU     AUC   34  34.344   8.750   7.087
    1AU     AUC   35  34.341   9.056   7.070
    1AU     AUC   36  33.794   8.793   7.924
    1AU     AUC   37  33.815   9.103   7.923
    1AU     AUC   38  33.825   8.753   7.069
    1AU     AUC   39  33.809   9.061   7.074
    1AU     AUC   40  34.482   9.187   7.318
    1AU     AUC   41  34.495   9.170   7.637
    1AU     AUC   42  33.648   9.177   7.344
    1AU     AUC   43  33.658   9.201   7.663
    1AU     AUC   44  34.484   8.657   7.358
    1AU     AUC   45  34.481   8.662   7.674
    1AU     AUC   46  33.648   8.665   7.337
    1AU     AUC   47  33.648   8.681   7.678
    1AU     AUC   48  33.919   9.344   7.765
    1AU     AUC   49  34.238   9.350   7.736
    1AU     AUC   50  33.888   8.502   7.757
    1AU     AUC   51  34.206   8.513   7.790
    1AU     AUC   52  33.906   9.331   7.232
    1AU     AUC   53  34.223   9.322   7.218
    1AU     AUC   54  33.901   8.508   7.243
    1AU     AUC   55  34.229   8.493   7.270
    1AU    AUSL   56  34.413   8.875   8.095
    1AU    AUSL   57  34.360   8.456   8.142
    1AU     AUL   58  34.597   8.535   8.406
    1AU       S   59  34.628   8.166   8.093
    1AU     LIG   60  34.515   7.870   8.392
    1AU     LIG   61  34.584   7.465   8.614
    1AU     LIG   62  34.853   7.265   8.933
    1AU     LIG   63  35.127   6.920   9.079
    1AU     LIG   64  35.312   6.817   9.478
    1AU     LIG   65  35.501   6.717   9.893
    1AU       S   66  34.459   8.904   8.658
    1AU     LIG   67  34.749   8.675   8.895
    1AU     LIG   68  34.943   8.549   9.307
    1AU     LIG   69  35.136   8.437   9.720
    1AU     LIG   70  35.350   8.515  10.120
    1AU     LIG   71  35.722   8.709  10.335
    1AU     LIG   72  36.051   8.928  10.585
    1AU    AUSL   73  34.132   8.729   8.357
    1AU    AUSL   74  33.995   9.115   8.277
    1AU     AUL   75  34.049   9.095   8.702
    1AU       S   76  34.204   8.731   8.502
    1AU     LIG   77  34.281   8.410   8.786
    1AU     LIG   78  34.512   8.286   9.191
    1AU     LIG   79  34.671   8.228   9.651
    1AU     LIG   80  34.841   8.188  10.114
    1AU     LIG   81  34.803   8.058  10.592
    1AU     LIG   82  34.689   8.148  11.054
    1AU       S   83  33.710   8.813   8.619
    1AU     LIG   84  33.571   8.760   9.087
    1AU     LIG   85  33.406   8.687   9.523
    1AU     LIG   86  33.236   8.666   9.973
    1AU     LIG   87  33.279   8.894  10.404
    1AU     LIG   88  33.257   9.195  10.792
    1AU     LIG   89  33.004   9.528  11.039
    1AU    AUSL   90  34.378   9.232   8.285
    1AU    AUSL   91  34.716   9.127   7.972
    1AU     AUL   92  34.706   8.961   8.286
    1AU       S   93  34.408   9.266   8.469
    1AU     LIG   94  34.708   9.314   8.834
    1AU     LIG   95  34.860   9.569   9.241
    1AU     LIG   96  34.839   9.755   9.709
    1AU     LIG   97  34.905   9.756  10.210
    1AU     LIG   98  34.945   9.864  10.688
    1AU     LIG   99  34.853   9.752  11.166
    1AU       S  100  34.995   9.186   8.007
    1AU     LIG  101  35.182   9.132   8.421
    1AU     LIG  102  35.441   9.363   8.729
    1AU     LIG  103  35.736   9.642   8.969
    1AU     LIG  104  35.975   9.821   9.341
    1AU     LIG  105  36.287   9.909   9.697
    1AU     LIG  106  36.736  10.041   9.790
    1AU    AUSL  107  34.609   8.945   6.870
    1AU    AUSL  108  34.370   9.334   6.817
    1AU     AUL  109  34.721   9.274   6.445
    1AU       S  110  34.674   8.959   6.731
    1AU     LIG  111  34.932   8.840   6.348
    1AU     LIG  112  34.961   8.671   5.925
    1AU     LIG  113  35.075   8.558   5.473
    1AU     LIG  114  35.436   8.608   5.143
    1AU     LIG  115  35.868   8.724   4.926
    1AU     LIG  116  36.248   8.800   4.636
    1AU       S  117  34.361   9.391   6.653
    1AU     LIG  118  34.622   9.755   6.550
    1AU     LIG  119  34.991   9.777   6.267
    1AU     LIG  120  35.293   9.951   5.926
    1AU     LIG  121  35.442  10.164   5.519
    1AU     LIG  122  35.654  10.353   5.117
    1AU     LIG  123  35.685  10.591   4.706
    1AU    AUSL  124  34.347   8.626   6.722
    1AU    AUSL  125  34.690   8.574   7.015
    1AU     AUL  126  34.696   8.531   6.655
    1AU       S  127  34.833   8.148   6.892
    1AU     LIG  128  34.949   7.739   6.698
    1AU     LIG  129  35.099   7.479   6.338
    1AU     LIG  130  35.381   7.232   6.033
    1AU     LIG  131  35.807   7.248   5.785
    1AU     LIG  132  36.176   7.308   5.467
    1AU     LIG  133  36.508   7.259   5.110
    1AU       S  134  34.428   8.861   6.445
    1AU     LIG  135  34.498   8.526   6.160
    1AU     LIG  136  34.617   8.351   5.714
    1AU     LIG  137  34.672   8.254   5.240
    1AU     LIG  138  34.606   8.002   4.815
    1AU     LIG  139  34.710   7.862   4.360
    1AU     LIG  140  34.987   7.749   3.976
    1AU    AUSL  141  34.199   8.978   6.887
    1AU    AUSL  142  33.952   8.730   6.668
    1AU     AUL  143  34.147   8.508   6.568
    1AU       S  144  33.907   8.830   6.330
    1AU     LIG  145  33.859   8.461   6.108
    1AU     LIG  146  33.604   8.285   5.734
    1AU     LIG  147  33.388   8.215   5.306
    1AU     LIG  148  33.149   8.056   4.908
    1AU     LIG  149  33.179   7.808   4.485
    1AU     LIG  150  33.126   7.802   4.009
    1AU       S  151  34.347   8.947   6.502
    1AU     LIG  152  34.544   9.021   6.010
    1AU     LIG  153  34.633   8.847   5.569
    1AU     LIG  154  34.750   8.765   5.115
    1AU     LIG  155  34.778   8.946   4.672
    1AU     LIG  156  34.820   9.014   4.201
    1AU     LIG  157  34.875   9.209   3.764
    1AU    AUSL  158  33.614   8.996   8.202
    1AU    AUSL  159  33.751   9.402   8.125
    1AU     AUL  160  33.798   9.334   8.422
    1AU       S  161  33.557   8.994   8.640
    1AU     LIG  162  33.218   8.694   8.694
    1AU     LIG  163  33.096   8.519   9.110
    1AU     LIG  164  32.938   8.480   9.562
    1AU     LIG  165  32.753   8.404   9.995
    1AU     LIG  166  32.413   8.403  10.341
    1AU     LIG  167  32.121   8.668  10.622
    1AU       S  168  33.340   9.358   8.350
    1AU     LIG  169  33.365   9.455   8.780
    1AU     LIG  170  33.347   9.808   9.080
    1AU     LIG  171  33.096  10.126   9.325
    1AU     LIG  172  32.941  10.286   9.755
    1AU     LIG  173  32.783  10.539  10.138
    1AU     LIG  174  32.505  10.794  10.422
    1AU    AUSL  175  33.917   8.791   8.023
    1AU    AUSL  176  33.409   8.714   7.992
    1AU     AUL  177  33.422   8.836   8.232
    1AU       S  178  33.240   8.407   8.234
    1AU     LIG  179  32.826   8.272   8.063
    1AU     LIG  180  32.476   8.002   8.206
    1AU     LIG  181  32.269   7.721   8.517
    1AU     LIG  182  32.067   7.422   8.810
    1AU     LIG  183  31.844   7.180   9.137
    1AU     LIG  184  31.493   7.246   9.450
    1AU       S  185  33.725   8.704   8.579
    1AU     LIG  186  33.565   8.332   8.807
    1AU     LIG  187  33.494   8.238   9.271
    1AU     LIG  188  33.346   8.209   9.731
    1AU     LIG  189  33.171   8.158  10.175
    1AU     LIG  190  33.020   7.979  10.601
    1AU     LIG  191  33.094   7.911  11.069
    1AU    AUSL  192  33.671   8.879   6.918
    1AU    AUSL  193  33.823   8.456   6.934
    1AU     AUL  194  33.635   8.572   6.633
    1AU       S  195  33.681   8.912   6.307
    1AU     LIG  196  33.388   8.658   6.044
    1AU     LIG  197  33.137   8.520   5.649
    1AU     LIG  198  32.943   8.459   5.209
    1AU     LIG  199  32.604   8.337   4.890
    1AU     LIG  200  32.242   8.454   4.588
    1AU     LIG  201  31.931   8.776   4.381
    1AU       S  202  33.390   8.166   6.779
    1AU     LIG  203  33.130   7.787   6.783
    1AU     LIG  204  32.772   7.540   6.615
    1AU     LIG  205  32.533   7.290   6.272
    1AU     LIG  206  32.483   7.092   5.818
    1AU     LIG  207  32.533   6.824   5.392
    1AU     LIG  208  32.500   6.644   4.935
    1AU    AUSL  209  33.904   9.159   6.675
    1AU    AUSL  210  33.414   9.190   6.976
    1AU     AUL  211  33.490   9.033   6.696
    1AU       S  212  33.305   9.454   6.758
    1AU     LIG  213  33.076   9.501   6.346
    1AU     LIG  214  32.916   9.734   5.950
    1AU     LIG  215  32.693   9.884   5.556
    1AU     LIG  216  32.301   9.984   5.325
    1AU     LIG  217  31.905  10.061   5.067
    1AU     LIG  218  31.487  10.282   4.981
    1AU       S  219  33.898   9.087   6.440
    1AU     LIG  220  33.867   8.992   5.872
    1AU     LIG  221  33.581   8.766   5.538
    1AU     LIG  222  33.421   8.698   5.078
    1AU     LIG  223  33.486   8.855   4.601
    1AU     LIG  224  33.490   9.068   4.145
    1AU     LIG  225  33.312   9.304   3.747
    1AU    AUSL  226  34.678   9.530   7.421
    1AU    AUSL  227  34.705   9.285   7.076
    1AU     AUL  228  34.826   9.744   7.224
    1AU       S  229  34.842   9.404   6.871
    1AU     LIG  230  35.198   9.374   6.562
    1AU     LIG  231  35.449   9.522   6.177
    1AU     LIG  232  35.783   9.751   5.920
    1AU     LIG  233  36.187   9.854   5.691
    1AU     LIG  234  36.581   9.878   5.427
    1AU     LIG  235  36.816  10.022   5.043
    1AU       S  236  35.138   9.413   7.345
    1AU     LIG  237  35.619   9.455   7.518
    1AU     LIG  238  36.122   9.522   7.541
    1AU     LIG  239  36.622   9.589   7.552
    1AU     LIG  240  37.032   9.878   7.533
    1AU     LIG  241  37.231  10.331   7.555
    1AU     LIG  242  37.359  10.790   7.717
    1AU    AUSL  243  34.903   8.976   7.245
    1AU    AUSL  244  34.898   8.816   7.663
    1AU     AUL  245  35.187   8.753   7.438
    1AU       S  246  35.106   9.188   7.296
    1AU     LIG  247  35.532   9.054   7.220
    1AU     LIG  248  35.999   9.096   7.282
    1AU     LIG  249  36.462   9.207   7.244
    1AU     LIG  250  36.947   9.228   7.242
    1AU     LIG  251  37.422   9.332   7.160
    1AU     LIG  252  37.680   9.635   6.897
    1AU       S  253  35.206   8.347   7.686
    1AU     LIG  254  35.613   8.158   7.703
    1AU     LIG  255  36.054   7.980   7.708
    1AU     LIG  256  36.509   7.819   7.710
    1AU     LIG  257  36.866   7.749   8.018
    1AU     LIG  258  37.341   7.768   7.982
    1AU     LIG  259  37.785   7.732   7.890
    1AU    AUSL  260  34.690   9.148   7.566
    1AU    AUSL  261  34.589   9.493   7.821
    1AU     AUL  262  34.834   9.500   7.693
    1AU       S  263  34.851   9.379   8.121
    1AU     LIG  264  35.290   9.573   8.150
    1AU     LIG  265  35.510   9.825   8.503
    1AU     LIG  266  35.659  10.140   8.845
    1AU     LIG  267  35.922  10.550   8.933
    1AU     LIG  268  36.133  10.997   8.997
    1AU     LIG  269  36.378  11.423   9.045
    1AU       S  270  35.156   9.218   7.554
    1AU     LIG  271  35.446   9.032   7.788
    1AU     LIG  272  35.912   9.097   7.791
    1AU     LIG  273  36.389   9.131   7.753
    1AU     LIG  274  36.851   9.207   7.830
    1AU     LIG  275  37.280   9.257   8.029
    1AU     LIG  276  37.627   9.542   8.129
    1AU    AUSL  277  33.412   9.482   7.576
    1AU    AUSL  278  33.453   9.223   7.908
    1AU     AUL  279  33.419   9.680   7.828
    1AU       S  280  33.247   9.304   8.099
    1AU     LIG  281  32.907   9.549   8.433
    1AU     LIG  282  32.879   9.735   8.882
    1AU     LIG  283  32.663   9.834   9.322
    1AU     LIG  284  32.306   9.925   9.660
    1AU     LIG  285  31.872  10.140   9.789
    1AU     LIG  286  31.589  10.444  10.047
    1AU       S  287  33.042   9.481   7.665
    1AU     LIG  288  32.738   9.862   7.561
    1AU     LIG  289  32.335  10.158   7.585
    1AU     LIG  290  32.058  10.535   7.727
    1AU     LIG  291  31.785  10.922   7.765
    1AU     LIG  292  31.319  10.974   7.852
    1AU     LIG  293  30.833  10.952   7.874
    1AU    AUSL  294  33.479   9.141   7.367
    1AU    AUSL  295  33.570   9.545   7.201
    1AU     AUL  296  33.283   9.468   7.238
    1AU       S  297  32.926   9.393   7.546
    1AU     LIG  298  32.770   9.520   7.145
    1AU     LIG  299  32.366   9.743   6.987
    1AU     LIG  300  31.940   9.965   6.907
    1AU     LIG  301  31.512  10.132   6.808
    1AU     LIG  302  31.059  10.196   6.809
    1AU     LIG  303  30.622  10.154   7.006
    1AU       S  304  33.392   9.703   6.837
    1AU     LIG  305  33.312   9.942   6.437
    1AU     LIG  306  33.080  10.215   6.103
    1AU     LIG  307  32.841  10.620   5.945
    1AU     LIG  308  32.519  11.003   5.910
    1AU     LIG  309  32.109  11.289   5.887
    1AU     LIG  310  31.700  11.569   5.862
    1AU    AUSL  311  33.207   9.034   7.660
    1AU    AUSL  312  33.255   8.811   7.295
    1AU     AUL  313  33.078   9.068   7.269
    1AU       S  314  32.906   8.606   7.413
    1AU     LIG  315  32.477   8.629   7.677
    1AU     LIG  316  31.990   8.583   7.788
    1AU     LIG  317  31.582   8.336   7.810
    1AU     LIG  318  31.288   8.170   7.462
    1AU     LIG  319  30.833   8.177   7.291
    1AU     LIG  320  30.436   7.995   7.038
    1AU       S  321  33.016   9.065   7.748
    1AU     LIG  322  32.720   9.306   8.018
    1AU     LIG  323  32.339   9.584   8.154
    1AU     LIG  324  31.852   9.707   8.186
    1AU     LIG  325  31.417   9.952   8.145
    1AU     LIG  326  30.952  10.122   8.217
    1AU     LIG  327  30.565  10.269   8.461
    1AU    AUSL  328  34.757   8.424   7.584
    1AU    AUSL  329  34.701   8.629   7.961
    1AU     AUL  330  35.010   8.688   7.924
    1AU       S  331  34.913   8.164   7.565
    1AU     LIG  332  35.182   7.843   7.742
    1AU     LIG  333  35.622   7.643   7.662
    1AU     LIG  334  36.073   7.500   7.532
    1AU     LIG  335  36.526   7.314   7.523
    1AU     LIG  336  36.827   6.930   7.606
    1AU     LIG  337  37.250   6.799   7.403
    1AU       S  338  34.748   8.308   8.043
    1AU     LIG  339  35.036   7.943   8.255
    1AU     LIG  340  35.091   7.577   8.561
    1AU     LIG  341  35.364   7.293   8.823
    1AU     LIG  342  35.603   7.171   9.219
    1AU     LIG  343  35.973   7.248   9.520
    1AU     LIG  344  36.344   7.363   9.801
    1AU    AUSL  345  34.607   8.742   7.374
    1AU    AUSL  346  34.536   8.280   7.274
    1AU     AUL  347  34.883   8.497   7.204
    1AU       S  348  34.951   8.333   7.611
    1AU     LIG  349  35.301   8.100   7.272
    1AU     LIG  350  35.782   7.933   7.260
    1AU     LIG  351  36.280   7.877   7.244
    1AU     LIG  352  36.734   7.715   7.196
    1AU     LIG  353  37.239   7.765   7.115
    1AU     LIG  354  37.713   7.860   7.038
    1AU       S  355  34.765   8.044   7.105
    1AU     LIG  356  34.570   7.611   7.029
    1AU     LIG  357  34.807   7.223   6.804
    1AU     LIG  358  35.171   7.008   6.515
    1AU     LIG  359  35.297   6.543   6.386
    1AU     LIG  360  35.534   6.155   6.224
    1AU     LIG  361  35.905   5.868   6.109
    1AU    AUSL  362  33.361   8.430   7.460
    1AU    AUSL  363  33.449   8.563   7.049
    1AU     AUL  364  33.169   8.660   7.018
    1AU       S  365  33.360   8.240   7.014
    1AU     LIG  366  32.925   8.263   6.849
    1AU     LIG  367  32.582   8.050   6.683
    1AU     LIG  368  32.406   7.798   6.362
    1AU     LIG  369  32.073   7.522   6.222
    1AU     LIG  370  31.777   7.415   5.878
    1AU     LIG  371  31.392   7.385   5.589
    1AU       S  372  33.052   8.406   7.388
    1AU     LIG  373  32.682   8.184   7.578
    1AU     LIG  374  32.271   8.151   7.764
    1AU     LIG  375  31.870   7.977   7.583
    1AU     LIG  376  31.482   7.691   7.539
    1AU     LIG  377  31.054   7.448   7.611
    1AU     LIG  378  30.677   7.321   7.887
    1AU    AUSL  379  33.518   8.784   7.616
    1AU    AUSL  380  33.598   8.398   7.800
    1AU     AUL  381  33.233   8.552   7.789
    1AU       S  382  33.328   8.214   8.088
    1AU     LIG  383  33.155   8.032   7.734
    1AU     LIG  384  32.770   7.762   7.847
    1AU     LIG  385  32.472   7.482   8.109
    1AU     LIG  386  32.205   7.175   8.381
    1AU     LIG  387  31.987   6.896   8.715
    1AU     LIG  388  31.748   6.516   8.896
    1AU       S  389  32.953   8.671   7.456
    1AU     LIG  390  32.537   8.875   7.240
    1AU     LIG  391  32.084   8.653   7.288
    1AU     LIG  392  31.579   8.637   7.410
    1AU     LIG  393  31.137   8.589   7.687
    1AU     LIG  394  30.708   8.410   7.825
    1AU     LIG  395  30.392   8.049   7.875
    1AU    AUSL  396  34.098   9.591   8.022
    1AU    AUSL  397  33.779   9.384   7.721
    1AU     AUL  398  33.799   9.696   8.098
    1AU       S  399  33.402   9.519   8.254
    1AU     LIG  400  33.304   9.880   8.501
    1AU     LIG  401  33.136  10.191   8.800
    1AU     LIG  402  33.105  10.623   8.969
    1AU     LIG  403  32.849  11.011   9.075
    1AU     LIG  404  32.546  11.325   9.261
    1AU     LIG  405  32.320  11.596   9.573
    1AU       S  406  34.158   9.992   8.000
    1AU     LIG  407  34.296  10.250   8.336
    1AU     LIG  408  34.187  10.670   8.522
    1AU     LIG  409  34.232  11.065   8.760
    1AU     LIG  410  34.393  11.189   9.198
    1AU     LIG  411  34.541  11.443   9.584
    1AU     LIG  412  34.469  11.844   9.836
    1AU    AUSL  413  33.855   9.771   7.660
    1AU    AUSL  414  34.292   9.757   7.266
    1AU     AUL  415  33.935  10.005   7.421
    1AU       S  416  34.023  10.063   7.867
    1AU     LIG  417  34.063  10.542   7.983
    1AU     LIG  418  34.138  10.998   8.137
    1AU     LIG  419  34.189  11.412   8.352
    1AU     LIG  420  33.962  11.821   8.463
    1AU     LIG  421  33.594  12.156   8.419
    1AU     LIG  422  33.454  12.622   8.408
    1AU       S  423  34.352  10.056   7.205
    1AU     LIG  424  34.664  10.140   6.911
    1AU     LIG  425  34.732  10.570   6.710
    1AU     LIG  426  34.735  11.035   6.537
    1AU     LIG  427  34.815  11.530   6.569
    1AU     LIG  428  34.997  12.003   6.542
    1AU     LIG  429  35.163  12.476   6.519
    1AU    AUSL  430  34.250   9.616   7.642
    1AU    AUSL  431  34.275   9.249   7.902
    1AU     AUL  432  34.424   9.624   8.048
    1AU       S  433  34.804   9.417   8.229
    1AU     LIG  434  35.016   9.624   8.576
    1AU     LIG  435  35.236   9.796   8.947
    1AU     LIG  436  35.455   9.884   9.344
    1AU     LIG  437  35.704  10.118   9.675
    1AU     LIG  438  35.767  10.525   9.914
    1AU     LIG  439  35.769  11.003   9.987
    1AU       S  440  34.319   9.929   7.710
    1AU     LIG  441  34.528  10.303   7.860
    1AU     LIG  442  34.548  10.673   8.143
    1AU     LIG  443  34.589  11.074   8.379
    1AU     LIG  444  34.691  11.541   8.401
    1AU     LIG  445  34.799  12.010   8.412
    1AU     LIG  446  34.893  12.462   8.548
    1AU    AUSL  447  34.028   8.352   7.930
    1AU    AUSL  448  34.386   8.480   7.736
    1AU     AUL  449  34.196   8.249   8.202
    1AU       S  450  34.133   7.820   8.056
    1AU     LIG  451  34.309   7.412   8.176
    1AU     LIG  452  34.046   7.048   8.303
    1AU     LIG  453  33.870   6.623   8.419
    1AU     LIG  454  33.722   6.279   8.703
    1AU     LIG  455  33.733   6.131   9.168
    1AU     LIG  456  33.815   6.116   9.647
    1AU       S  457  34.665   8.136   7.959
    1AU     LIG  458  34.709   7.683   7.950
    1AU     LIG  459  34.846   7.314   8.197
    1AU     LIG  460  35.025   7.003   8.530
    1AU     LIG  461  35.317   6.636   8.685
    1AU     LIG  462  35.520   6.266   8.929
    1AU     LIG  463  35.788   5.889   9.059
    1AU    AUSL  464  33.852   8.123   7.644
    1AU    AUSL  465  33.740   8.476   8.188
    1AU     AUL  466  33.768   8.128   7.996
    1AU       S  467  33.984   7.729   7.931
    1AU     LIG  468  33.793   7.394   7.720
    1AU     LIG  469  33.697   6.944   7.863
    1AU     LIG  470  33.513   6.546   8.059
    1AU     LIG  471  33.455   6.109   8.260
    1AU     LIG  472  33.358   5.624   8.241
    1AU     LIG  473  33.332   5.134   8.202
    1AU       S  474  33.500   8.355   8.298
    1AU     LIG  475  33.184   8.018   8.527
    1AU     LIG  476  32.819   7.703   8.454
    1AU     LIG  477  32.587   7.348   8.675
    1AU     LIG  478  32.382   7.068   9.005
    1AU     LIG  479  32.322   6.832   9.411
    1AU     LIG  480  32.415   6.547   9.789
    1AU    AUSL  481  34.286   8.091   7.705
    1AU    AUSL  482  33.812   8.113   7.234
    1AU     AUL  483  33.974   7.867   7.494
    1AU       S  484  33.751   7.789   7.073
    1AU     LIG  485  33.546   7.527   7.292
    1AU     LIG  486  33.630   7.070   7.283
    1AU     LIG  487  33.560   6.665   7.030
    1AU     LIG  488  33.630   6.225   6.797
    1AU     LIG  489  33.565   5.730   6.726
    1AU     LIG  490  33.400   5.260   6.708
    1AU       S  491  34.249   7.924   7.852
    1AU     LIG  492  34.335   7.509   7.660
    1AU     LIG  493  34.183   7.093   7.792
    1AU     LIG  494  34.136   6.661   7.980
    1AU     LIG  495  34.191   6.247   8.199
    1AU     LIG  496  34.255   5.768   8.277
    1AU     LIG  497  34.366   5.319   8.431
    1AU    AUSL  498  34.061   9.565   6.949
    1AU    AUSL  499  34.355   9.358   7.249
    1AU     AUL  500  34.437   9.656   6.997
    1AU       S  501  34.123   9.926   6.796
    1AU     LIG  502  34.353  10.216   6.514
    1AU     LIG  503  34.372  10.668   6.360
    1AU     LIG  504  34.444  10.975   6.004
    1AU     LIG  505  34.368  11.214   5.588
    1AU     LIG  506  34.317  11.564   5.261
    1AU     LIG  507  34.409  11.964   5.004
    1AU       S  508  34.800   9.371   6.956
    1AU     LIG  509  35.079   9.813   6.790
    1AU     LIG  510  35.426   9.946   6.477
    1AU     LIG  511  35.697  10.200   6.173
    1AU     LIG  512  35.985  10.582   6.078
    1AU     LIG  513  36.184  11.031   6.046
    1AU     LIG  514  36.332  11.498   5.993
    1AU    AUSL  515  33.950   9.538   7.343
    1AU    AUSL  516  33.817   9.261   7.052
    1AU     AUL  517  33.791   9.730   7.074
    1AU       S  518  34.162  10.028   7.030
    1AU     LIG  519  34.248  10.479   6.936
    1AU     LIG  520  34.322  10.912   6.823
    1AU     LIG  521  34.324  11.334   6.654
    1AU     LIG  522  34.002  11.648   6.621
    1AU     LIG  523  33.681  11.967   6.540
    1AU     LIG  524  33.527  12.384   6.407
    1AU       S  525  33.615   9.519   6.702
    1AU     LIG  526  33.585   9.508   6.270
    1AU     LIG  527  33.417   9.823   5.937
    1AU     LIG  528  33.171  10.081   5.599
    1AU     LIG  529  33.060  10.295   5.166
    1AU     LIG  530  32.984  10.604   4.793
    1AU     LIG  531  32.810  10.961   4.537
    1AU    AUSL  532  34.152   8.221   6.976
    1AU    AUSL  533  33.739   8.492   7.338
    1AU     AUL  534  33.816   8.214   6.914
    1AU       S  535  33.365   8.098   7.136
    1AU     LIG  536  32.937   7.929   7.232
    1AU     LIG  537  32.543   7.716   7.058
    1AU     LIG  538  32.277   7.446   6.731
    1AU     LIG  539  32.085   7.060   6.483
    1AU     LIG  540  31.834   6.623   6.404
    1AU     LIG  541  31.505   6.295   6.240
    1AU       S  542  34.078   7.839   6.886
    1AU     LIG  543  34.159   7.388   6.763
    1AU     LIG  544  33.841   7.043   6.742
    1AU     LIG  545  33.695   6.668   6.526
    1AU     LIG  546  33.714   6.306   6.249
    1AU     LIG  547  33.768   6.204   5.786
    1AU     LIG  548  34.065   5.970   5.522
    1AU    AUSL  549  34.147   8.294   7.388
    1AU    AUSL  550  34.281   8.573   7.109
    1AU     AUL  551  34.319   8.060   7.217
    1AU       S  552  33.976   7.788   7.051
    1AU     LIG  553  34.056   7.394   7.259
    1AU     LIG  554  34.116   6.956   7.148
    1AU     LIG  555  34.037   6.567   6.899
    1AU     LIG  556  34.217   6.184   6.737
    1AU     LIG  557  34.227   5.716   6.632
    1AU     LIG  558  34.366   5.283   6.466
    1AU       S  559  34.573   8.124   6.826
    1AU     LIG  560  34.459   7.774   6.552
    1AU     LIG  561  34.591   7.355   6.365
    1AU     LIG  562  34.871   7.094   6.069
    1AU     LIG  563  35.058   6.997   5.631
    1AU     LIG  564  35.076   6.825   5.171
    1AU     LIG  565  35.285   6.576   4.813
    2AU     AUC  566  16.396   6.151   7.513
    2AU     AUC  567  16.656   6.156   7.350
    2AU     AUC  568  16.652   6.148   7.660
    2AU     AUC  569  16.144   6.148   7.352
    2AU     AUC  570  16.138   6.167   7.666
    2AU     AUC  571  16.243   6.407   7.509
    2AU     AUC  572  16.555   6.408   7.494
    2AU     AUC  573  16.246   5.894   7.528
    2AU     AUC  574  16.540   5.899   7.535
    2AU     AUC  575  16.394   6.006   7.776
    2AU     AUC  576  16.412   6.319   7.765
    2AU     AUC  577  16.396   5.986   7.258
    2AU     AUC  578  16.383   6.288   7.250
    2AU     AUC  579  16.903   6.149   7.184
    2AU     AUC  580  16.915   6.160   7.495
    2AU     AUC  581  16.914   6.153   7.801
    2AU     AUC  582  15.884   6.132   7.201
    2AU     AUC  583  15.878   6.159   7.508
    2AU     AUC  584  15.892   6.182   7.830
    2AU     AUC  585  16.095   6.670   7.513
    2AU     AUC  586  16.405   6.674   7.502
    2AU     AUC  587  16.699   6.672   7.492
    2AU     AUC  588  16.070   5.638   7.540
    2AU     AUC  589  16.385   5.629   7.526
    2AU     AUC  590  16.700   5.636   7.541
    2AU     AUC  591  16.385   5.856   8.034
    2AU     AUC  592  16.404   6.170   8.039
    2AU     AUC  593  16.420   6.476   8.024
    2AU     AUC  594  16.397   5.810   7.023
    2AU     AUC  595  16.402   6.126   6.990
    2AU     AUC  596  16.377   6.434   6.985
    2AU     AUC  597  16.670   6.012   7.935
    2AU     AUC  598  16.673   6.305   7.923
    2AU     AUC  599  16.666   5.979   7.095
    2AU     AUC  600  16.661   6.286   7.079
    2AU     AUC  601  16.134   6.023   7.944
    2AU     AUC  602  16.150   6.332   7.940
    2AU     AUC  603  16.147   5.980   7.087
    2AU     AUC  604  16.131   6.288   7.090
    2AU     AUC  605  16.806   6.420   7.323
    2AU     AUC  606  16.826   6.405   7.640
    2AU     AUC  607  15.972   6.402   7.362
    2AU     AUC  608  15.987   6.427   7.682
    2AU     AUC  609  16.811   5.888   7.362
    2AU     AUC  610  16.816   5.896   7.678
    2AU     AUC  611  15.975   5.890   7.359
    2AU     AUC  612  15.983   5.907   7.701
    2AU     AUC  613  16.248   6.574   7.778
    2AU     AUC  614  16.567   6.582   7.745
    2AU     AUC  615  16.226   5.731   7.776
    2AU     AUC  616  16.545   5.747   7.802
    2AU     AUC  617  16.227   6.558   7.247
    2AU     AUC  618  16.544   6.552   7.227
    2AU     AUC  619  16.226   5.732   7.261
    2AU     AUC  620  16.555   5.724   7.284
    2AU    AUSL  621  16.760   6.108   8.089
    2AU    AUSL  622  16.706   5.695   8.155
    2AU     AUL  623  16.945   5.774   8.413
    2AU       S  624  17.039   5.385   8.156
    2AU     LIG  625  16.864   5.044   8.370
    2AU     LIG  626  17.032   4.719   8.679
    2AU     LIG  627  17.161   4.398   8.988
    2AU     LIG  628  17.318   4.062   9.259
    2AU     LIG  629  17.502   3.894   9.668
    2AU     LIG  630  17.472   3.711  10.117
    2AU       S  631  16.818   6.146   8.667
    2AU     LIG  632  17.056   5.839   8.914
    2AU     LIG  633  17.281   5.649   9.294
    2AU     LIG  634  17.499   5.470   9.680
    2AU     LIG  635  17.830   5.514  10.019
    2AU     LIG  636  18.221   5.604  10.278
    2AU     LIG  637  18.511   5.690  10.641
    2AU    AUSL  638  16.488   5.977   8.369
    2AU    AUSL  639  16.336   6.357   8.284
    2AU     AUL  640  16.410   6.349   8.708
    2AU       S  641  16.562   5.984   8.510
    2AU     LIG  642  16.584   5.621   8.755
    2AU     LIG  643  16.805   5.451   9.167
    2AU     LIG  644  16.981   5.343   9.620
    2AU     LIG  645  17.036   5.229  10.098
    2AU     LIG  646  16.951   5.114  10.573
    2AU     LIG  647  17.050   5.086  11.049
    2AU       S  648  16.075   6.055   8.644
    2AU     LIG  649  16.000   5.962   9.108
    2AU     LIG  650  15.787   5.921   9.525
    2AU     LIG  651  15.661   5.914   9.978
    2AU     LIG  652  15.697   6.206  10.361
    2AU     LIG  653  15.786   6.472  10.748
    2AU     LIG  654  15.596   6.723  11.102
    2AU    AUSL  655  16.724   6.457   8.292
    2AU    AUSL  656  17.056   6.365   7.968
    2AU     AUL  657  17.052   6.194   8.285
    2AU       S  658  16.756   6.509   8.454
    2AU     LIG  659  16.942   6.606   8.851
    2AU     LIG  660  17.021   6.724   9.310
    2AU     LIG  661  17.042   6.810   9.786
    2AU     LIG  662  17.203   7.039  10.163
    2AU     LIG  663  17.243   7.021  10.631
    2AU     LIG  664  17.287   6.930  11.105
    2AU       S  665  17.327   6.422   7.997
    2AU     LIG  666  17.581   6.261   8.316
    2AU     LIG  667  17.899   6.470   8.609
    2AU     LIG  668  18.127   6.795   8.915
    2AU     LIG  669  18.366   7.116   9.197
    2AU     LIG  670  18.668   7.214   9.566
    2AU     LIG  671  18.962   7.289   9.948
    2AU    AUSL  672  16.930   6.179   6.871
    2AU    AUSL  673  16.684   6.567   6.828
    2AU     AUL  674  17.057   6.533   6.464
    2AU       S  675  16.957   6.204   6.715
    2AU     LIG  676  17.267   6.111   6.345
    2AU     LIG  677  17.342   6.015   5.909
    2AU     LIG  678  17.460   5.906   5.468
    2AU     LIG  679  17.785   5.837   5.121
    2AU     LIG  680  18.194   5.789   4.865
    2AU     LIG  681  18.576   5.773   4.575
    2AU       S  682  16.685   6.622   6.670
    2AU     LIG  683  16.995   7.000   6.602
    2AU     LIG  684  17.360   6.937   6.288
    2AU     LIG  685  17.656   7.052   5.914
    2AU     LIG  686  17.754   7.326   5.509
    2AU     LIG  687  17.869   7.655   5.147
    2AU     LIG  688  18.124   7.909   4.814
    2AU    AUSL  689  16.671   5.856   6.730
    2AU    AUSL  690  17.007   5.808   7.018
    2AU     AUL  691  17.090   5.796   6.677
    2AU       S  692  17.095   5.377   6.879
    2AU     LIG  693  17.200   5.000   6.644
    2AU     LIG  694  17.383   4.693   6.347
    2AU     LIG  695  17.635   4.413   6.041
    2AU     LIG  696  18.045   4.328   5.774
    2AU     LIG  697  18.428   4.351   5.455
    2AU     LIG  698  18.857   4.354   5.215
    2AU       S  699  16.760   6.075   6.451
    2AU     LIG  700  16.874   5.762   6.200
    2AU     LIG  701  17.001   5.655   5.761
    2AU     LIG  702  17.046   5.648   5.290
    2AU     LIG  703  17.150   5.662   4.821
    2AU     LIG  704  17.195   5.445   4.381
    2AU     LIG  705  17.411   5.268   3.977
    2AU    AUSL  706  16.520   6.206   6.898
    2AU    AUSL  707  16.272   5.954   6.686
    2AU     AUL  708  16.469   5.736   6.584
    2AU       S  709  16.206   6.051   6.365
    2AU     LIG  710  16.170   5.680   6.136
    2AU     LIG  711  15.922   5.493   5.764
    2AU     LIG  712  15.722   5.467   5.326
    2AU     LIG  713  15.500   5.367   4.910
    2AU     LIG  714  15.415   5.141   4.477
    2AU     LIG  715  15.332   5.073   3.998
    2AU       S  716  16.667   6.181   6.502
    2AU     LIG  717  16.871   6.256   6.016
    2AU     LIG  718  16.981   6.133   5.558
    2AU     LIG  719  17.130   6.125   5.107
    2AU     LIG  720  17.143   6.183   4.643
    2AU     LIG  721  17.245   6.430   4.256
    2AU     LIG  722  17.339   6.716   3.907
    2AU    AUSL  723  15.958   6.222   8.229
    2AU    AUSL  724  16.080   6.635   8.141
    2AU     AUL  725  16.122   6.558   8.440
    2AU       S  726  15.900   6.215   8.671
    2AU     LIG  727  15.603   5.871   8.781
    2AU     LIG  728  15.430   5.724   9.214
    2AU     LIG  729  15.260   5.751   9.677
    2AU     LIG  730  14.942   5.714  10.057
    2AU     LIG  731  14.534   5.771  10.341
    2AU     LIG  732  14.141   5.942  10.593
    2AU       S  733  15.663   6.569   8.374
    2AU     LIG  734  15.739   6.788   8.762
    2AU     LIG  735  15.685   7.215   8.942
    2AU     LIG  736  15.422   7.425   9.268
    2AU     LIG  737  15.264   7.500   9.721
    2AU     LIG  738  15.114   7.653  10.163
    2AU     LIG  739  14.922   7.965  10.483
    2AU    AUSL  740  16.260   6.024   8.040
    2AU    AUSL  741  15.753   5.939   8.018
    2AU     AUL  742  15.765   6.046   8.264
    2AU       S  743  15.597   5.595   8.215
    2AU     LIG  744  15.185   5.511   8.018
    2AU     LIG  745  14.853   5.213   8.198
    2AU     LIG  746  14.621   4.949   8.536
    2AU     LIG  747  14.403   4.697   8.874
    2AU     LIG  748  14.161   4.630   9.276
    2AU     LIG  749  13.922   4.828   9.651
    2AU       S  750  16.087   5.940   8.600
    2AU     LIG  751  16.011   5.551   8.781
    2AU     LIG  752  15.878   5.468   9.239
    2AU     LIG  753  15.676   5.447   9.683
    2AU     LIG  754  15.411   5.442  10.091
    2AU     LIG  755  15.254   5.216  10.503
    2AU     LIG  756  15.204   5.128  10.977
    2AU    AUSL  757  15.990   6.107   6.933
    2AU    AUSL  758  16.140   5.679   6.951
    2AU     AUL  759  15.947   5.795   6.657
    2AU       S  760  15.995   6.129   6.320
    2AU     LIG  761  15.691   5.853   6.084
    2AU     LIG  762  15.508   5.804   5.651
    2AU     LIG  763  15.249   5.720   5.263
    2AU     LIG  764  14.801   5.759   5.073
    2AU     LIG  765  14.561   5.878   4.680
    2AU     LIG  766  14.295   5.995   4.315
    2AU       S  767  15.709   5.396   6.822
    2AU     LIG  768  15.485   5.016   6.769
    2AU     LIG  769  15.202   4.730   6.542
    2AU     LIG  770  14.855   4.598   6.246
    2AU     LIG  771  14.637   4.385   5.876
    2AU     LIG  772  14.751   4.131   5.469
    2AU     LIG  773  14.977   3.879   5.110
    2AU    AUSL  774  16.221   6.387   6.691
    2AU    AUSL  775  15.734   6.419   6.991
    2AU     AUL  776  15.811   6.267   6.709
    2AU       S  777  15.628   6.692   6.771
    2AU     LIG  778  15.409   6.831   6.353
    2AU     LIG  779  15.221   7.094   5.982
    2AU     LIG  780  15.022   7.184   5.540
    2AU     LIG  781  14.727   7.317   5.170
    2AU     LIG  782  14.294   7.405   4.972
    2AU     LIG  783  13.871   7.613   4.998
    2AU       S  784  16.219   6.306   6.462
    2AU     LIG  785  16.346   6.169   5.935
    2AU     LIG  786  16.008   5.984   5.633
    2AU     LIG  787  15.754   5.977   5.209
    2AU     LIG  788  15.745   6.135   4.737
    2AU     LIG  789  15.793   6.365   4.302
    2AU     LIG  790  15.829   6.432   3.824
    2AU    AUSL  791  17.001   6.770   7.421
    2AU    AUSL  792  17.025   6.516   7.083
    2AU     AUL  793  17.159   6.981   7.217
    2AU       S  794  17.157   6.614   6.904
    2AU     LIG  795  17.507   6.416   6.703
    2AU     LIG  796  17.747   6.551   6.299
    2AU     LIG  797  18.093   6.785   6.040
    2AU     LIG  798  18.417   6.851   5.672
    2AU     LIG  799  18.750   7.063   5.381
    2AU     LIG  800  19.030   7.431   5.247
    2AU       S  801  17.468   6.641   7.328
    2AU     LIG  802  17.958   6.661   7.452
    2AU     LIG  803  18.447   6.663   7.518
    2AU     LIG  804  18.928   6.764   7.552
    2AU     LIG  805  19.262   7.100   7.654
    2AU     LIG  806  19.538   7.489   7.556
    2AU     LIG  807  19.953   7.718   7.590
    2AU    AUSL  808  17.230   6.205   7.241
    2AU    AUSL  809  17.226   6.051   7.660
    2AU     AUL  810  17.511   5.979   7.435
    2AU       S  811  17.444   6.408   7.273
    2AU     LIG  812  17.866   6.279   7.129
    2AU     LIG  813  18.318   6.480   7.059
    2AU     LIG  814  18.793   6.395   7.207
    2AU     LIG  815  19.282   6.478   7.231
    2AU     LIG  816  19.743   6.511   7.053
    2AU     LIG  817  20.073   6.794   7.214
    2AU       S  818  17.525   5.566   7.692
    2AU     LIG  819  17.902   5.378   7.761
    2AU     LIG  820  18.309   5.179   7.768
    2AU     LIG  821  18.754   5.088   7.669
    2AU     LIG  822  19.215   5.152   7.709
    2AU     LIG  823  19.691   5.102   7.712
    2AU     LIG  824  19.986   4.857   7.983
    2AU    AUSL  825  17.023   6.386   7.561
    2AU    AUSL  826  16.922   6.730   7.821
    2AU     AUL  827  17.173   6.729   7.681
    2AU       S  828  17.189   6.613   8.112
    2AU     LIG  829  17.646   6.768   8.170
    2AU     LIG  830  17.901   6.987   8.487
    2AU     LIG  831  18.080   7.309   8.792
    2AU     LIG  832  18.242   7.714   9.010
    2AU     LIG  833  18.416   8.183   9.038
    2AU     LIG  834  18.730   8.532   9.144
    2AU       S  835  17.500   6.443   7.546
    2AU     LIG  836  17.818   6.385   7.867
    2AU     LIG  837  18.264   6.467   7.968
    2AU     LIG  838  18.712   6.393   7.864
    2AU     LIG  839  19.198   6.408   7.830
    2AU     LIG  840  19.552   6.679   7.993
    2AU     LIG  841  20.028   6.716   8.116
    2AU    AUSL  842  15.732   6.692   7.597
    2AU    AUSL  843  15.790   6.437   7.931
    2AU     AUL  844  15.746   6.900   7.841
    2AU       S  845  15.586   6.521   8.116
    2AU     LIG  846  15.256   6.833   8.394
    2AU     LIG  847  15.222   6.997   8.859
    2AU     LIG  848  15.003   7.116   9.290
    2AU     LIG  849  14.678   7.224   9.644
    2AU     LIG  850  14.298   7.342   9.931
    2AU     LIG  851  13.863   7.503  10.058
    2AU       S  852  15.362   6.701   7.695
    2AU     LIG  853  15.400   7.116   7.500
    2AU     LIG  854  15.118   7.526   7.500
    2AU     LIG  855  14.740   7.835   7.594
    2AU     LIG  856  14.296   8.045   7.540
    2AU     LIG  857  13.916   8.338   7.483
    2AU     LIG  858  13.456   8.347   7.566
    2AU    AUSL  859  15.809   6.358   7.379
    2AU    AUSL  860  15.889   6.769   7.225
    2AU     AUL  861  15.604   6.686   7.255
    2AU       S  862  15.239   6.616   7.545
    2AU     LIG  863  14.868   6.457   7.287
    2AU     LIG  864  14.405   6.524   7.074
    2AU     LIG  865  13.988   6.734   6.879
    2AU     LIG  866  13.527   6.846   6.734
    2AU     LIG  867  13.065   6.953   6.665
    2AU     LIG  868  12.758   7.332   6.644
    2AU       S  869  15.712   6.937   6.861
    2AU     LIG  870  15.707   7.223   6.480
    2AU     LIG  871  15.516   7.525   6.140
    2AU     LIG  872  15.357   7.962   5.976
    2AU     LIG  873  15.000   8.281   5.892
    2AU     LIG  874  14.810   8.723   5.861
    2AU     LIG  875  14.396   8.964   5.902
    2AU    AUSL  876  15.538   6.268   7.678
    2AU    AUSL  877  15.574   6.030   7.328
    2AU     AUL  878  15.406   6.282   7.285
    2AU       S  879  15.233   5.817   7.458
    2AU     LIG  880  14.835   5.832   7.747
    2AU     LIG  881  14.354   5.943   7.707
    2AU     LIG  882  13.885   5.955   7.532
    2AU     LIG  883  13.520   5.888   7.200
    2AU     LIG  884  13.087   5.632   7.158
    2AU     LIG  885  12.757   5.309   7.014
    2AU       S  886  15.346   6.298   7.763
    2AU     LIG  887  15.029   6.503   8.029
    2AU     LIG  888  14.554   6.620   8.113
    2AU     LIG  889  14.083   6.697   8.252
    2AU     LIG  890  13.682   6.912   8.408
    2AU     LIG  891  13.270   7.179   8.410
    2AU     LIG  892  12.824   7.065   8.251
    2AU    AUSL  893  17.088   5.659   7.577
    2AU    AUSL  894  17.047   5.856   7.965
    2AU     AUL  895  17.351   5.929   7.910
    2AU       S  896  17.234   5.399   7.561
    2AU     LIG  897  17.489   5.058   7.667
    2AU     LIG  898  17.915   4.859   7.633
    2AU     LIG  899  18.372   4.773   7.467
    2AU     LIG  900  18.824   4.569   7.491
    2AU     LIG  901  19.156   4.175   7.509
    2AU     LIG  902  19.572   3.895   7.533
    2AU       S  903  17.085   5.556   8.038
    2AU     LIG  904  17.500   5.265   8.135
    2AU     LIG  905  17.491   4.903   8.474
    2AU     LIG  906  17.617   4.637   8.869
    2AU     LIG  907  17.948   4.424   9.148
    2AU     LIG  908  18.362   4.414   9.408
    2AU     LIG  909  18.739   4.333   9.694
    2AU    AUSL  910  16.930   5.979   7.375
    2AU    AUSL  911  16.859   5.511   7.274
    2AU     AUL  912  17.206   5.728   7.194
    2AU       S  913  17.275   5.569   7.603
    2AU     LIG  914  17.616   5.367   7.255
    2AU     LIG  915  18.080   5.210   7.299
    2AU     LIG  916  18.570   5.193   7.208
    2AU     LIG  917  19.055   5.124   7.223
    2AU     LIG  918  19.559   5.109   7.200
    2AU     LIG  919  19.979   5.152   6.929
    2AU       S  920  17.105   5.280   7.091
    2AU     LIG  921  16.959   4.853   7.092
    2AU     LIG  922  17.069   4.512   6.752
    2AU     LIG  923  17.358   4.206   6.496
    2AU     LIG  924  17.701   3.941   6.257
    2AU     LIG  925  18.094   3.637   6.166
    2AU     LIG  926  18.504   3.385   6.014
    2AU    AUSL  927  15.693   5.653   7.492
    2AU    AUSL  928  15.772   5.795   7.075
    2AU     AUL  929  15.481   5.857   7.055
    2AU       S  930  15.705   5.459   7.050
    2AU     LIG  931  15.215   5.414   6.992
    2AU     LIG  932  14.931   5.148   6.706
    2AU     LIG  933  14.559   4.975   6.441
    2AU     LIG  934  14.216   4.775   6.163
    2AU     LIG  935  14.045   4.560   5.787
    2AU     LIG  936  13.912   4.642   5.338
    2AU       S  937  15.394   5.609   7.443
    2AU     LIG  938  14.978   5.385   7.522
    2AU     LIG  939  14.467   5.436   7.593
    2AU     LIG  940  13.975   5.291   7.713
    2AU     LIG  941  13.517   5.031   7.760
    2AU     LIG  942  13.083   4.760   7.742
    2AU     LIG  943  12.781   4.381   7.904
    2AU    AUSL  944  15.848   6.012   7.640
    2AU    AUSL  945  15.942   5.626   7.824
    2AU     AUL  946  15.561   5.816   7.819
    2AU       S  947  15.710   5.409   7.958
    2AU     LIG  948  15.454   5.170   7.760
    2AU     LIG  949  15.132   4.877   7.933
    2AU     LIG  950  14.804   4.619   8.189
    2AU     LIG  951  14.519   4.366   8.489
    2AU     LIG  952  14.358   3.993   8.751
    2AU     LIG  953  14.247   3.524   8.833
    2AU       S  954  15.272   5.891   7.484
    2AU     LIG  955  14.800   5.929   7.253
    2AU     LIG  956  14.319   5.809   7.218
    2AU     LIG  957  13.917   5.536   7.260
    2AU     LIG  958  13.512   5.498   7.526
    2AU     LIG  959  13.101   5.337   7.732
    2AU     LIG  960  12.659   5.327   7.877
    2AU    AUSL  961  16.427   6.821   8.031
    2AU    AUSL  962  16.106   6.614   7.738
    2AU     AUL  963  16.128   6.920   8.113
    2AU       S  964  15.730   6.742   8.265
    2AU     LIG  965  15.781   7.167   8.400
    2AU     LIG  966  15.818   7.600   8.603
    2AU     LIG  967  15.555   7.904   8.858
    2AU     LIG  968  15.337   8.327   8.988
    2AU     LIG  969  15.004   8.619   9.160
    2AU     LIG  970  14.645   8.930   9.227
    2AU       S  971  16.481   7.216   7.982
    2AU     LIG  972  16.539   7.335   8.368
    2AU     LIG  973  16.546   7.759   8.531
    2AU     LIG  974  16.581   8.171   8.730
    2AU     LIG  975  16.759   8.464   9.042
    2AU     LIG  976  16.885   8.795   9.363
    2AU     LIG  977  16.726   9.171   9.605
    2AU    AUSL  978  16.178   7.000   7.671
    2AU    AUSL  979  16.612   6.988   7.273
    2AU     AUL  980  16.294   7.239   7.434
    2AU       S  981  16.306   7.296   7.889
    2AU     LIG  982  16.214   7.682   8.133
    2AU     LIG  983  16.414   8.099   8.148
    2AU     LIG  984  16.376   8.495   8.398
    2AU     LIG  985  16.404   8.948   8.461
    2AU     LIG  986  16.149   9.327   8.349
    2AU     LIG  987  16.017   9.765   8.540
    2AU       S  988  16.634   7.320   7.114
    2AU     LIG  989  16.936   7.593   6.951
    2AU     LIG  990  16.944   8.045   6.839
    2AU     LIG  991  17.213   8.439   6.759
    2AU     LIG  992  17.524   8.818   6.713
    2AU     LIG  993  17.592   9.280   6.626
    2AU     LIG  994  17.480   9.733   6.589
    2AU    AUSL  995  16.576   6.850   7.652
    2AU    AUSL  996  16.613   6.484   7.911
    2AU     AUL  997  16.756   6.856   8.058
    2AU       S  998  17.149   6.650   8.221
    2AU     LIG  999  17.398   6.658   8.604
    2AU     LIG 1000  17.627   6.919   8.924
    2AU     LIG 1001  17.856   7.196   9.241
    2AU     LIG 1002  17.988   7.570   9.519
    2AU     LIG 1003  17.936   7.914   9.875
    2AU     LIG 1004  18.043   8.184  10.258
    2AU       S 1005  16.653   7.182   7.734
    2AU     LIG 1006  16.708   7.655   7.974
    2AU     LIG 1007  16.897   8.029   8.258
    2AU     LIG 1008  16.925   8.505   8.390
    2AU     LIG 1009  17.197   8.941   8.372
    2AU     LIG 1010  17.463   9.380   8.342
    2AU     LIG 1011  17.503   9.873   8.351
    2AU    AUSL 1012  16.373   5.589   7.947
    2AU    AUSL 1013  16.725   5.718   7.746
    2AU     AUL 1014  16.591   5.465   8.188
    2AU       S 1015  16.397   5.044   8.034
    2AU     LIG 1016  16.135   4.781   8.247
    2AU     LIG 1017  16.189   4.321   8.244
    2AU     LIG 1018  16.192   3.893   8.443
    2AU     LIG 1019  16.089   3.533   8.735
    2AU     LIG 1020  16.090   3.368   9.193
    2AU     LIG 1021  16.005   3.060   9.551
    2AU       S 1022  17.009   5.370   7.969
    2AU     LIG 1023  16.978   4.950   7.873
    2AU     LIG 1024  17.152   4.643   8.176
    2AU     LIG 1025  17.381   4.375   8.503
    2AU     LIG 1026  17.627   4.069   8.792
    2AU     LIG 1027  17.952   3.669   8.778
    2AU     LIG 1028  18.336   3.337   8.723
    2AU    AUSL 1029  16.197   5.346   7.676
    2AU    AUSL 1030  16.085   5.711   8.211
    2AU     AUL 1031  16.141   5.411   8.099
    2AU       S 1032  16.114   5.095   7.777
    2AU     LIG 1033  15.840   4.812   7.610
    2AU     LIG 1034  15.849   4.363   7.777
    2AU     LIG 1035  15.897   3.942   8.018
    2AU     LIG 1036  15.931   3.488   8.208
    2AU     LIG 1037  15.832   3.003   8.222
    2AU     LIG 1038  15.754   2.511   8.152
    2AU       S 1039  15.758   5.548   8.293
    2AU     LIG 1040  15.454   5.132   8.290
    2AU     LIG 1041  15.137   4.868   8.485
    2AU     LIG 1042  14.904   4.565   8.757
    2AU     LIG 1043  14.660   4.285   9.062
    2AU     LIG 1044  14.604   3.993   9.444
    2AU     LIG 1045  14.596   3.704   9.836
    2AU    AUSL 1046  16.633   5.327   7.720
    2AU    AUSL 1047  16.144   5.337   7.270
    2AU     AUL 1048  16.468   5.070   7.484
    2AU       S 1049  16.060   5.028   7.152
    2AU     LIG 1050  15.764   4.710   7.091
    2AU     LIG 1051  15.713   4.255   7.074
    2AU     LIG 1052  15.859   3.829   6.889
    2AU     LIG 1053  15.735   3.368   6.774
    2AU     LIG 1054  15.541   2.906   6.775
    2AU     LIG 1055  15.407   2.429   6.821
    2AU       S 1056  16.481   5.097   7.927
    2AU     LIG 1057  16.291   4.627   7.798
    2AU     LIG 1058  16.332   4.150   7.785
    2AU     LIG 1059  16.361   3.699   7.988
    2AU     LIG 1060  16.389   3.208   8.109
    2AU     LIG 1061  16.636   2.751   8.110
    2AU     LIG 1062  17.011   2.467   8.254
    2AU    AUSL 1063  16.374   6.794   6.962
    2AU    AUSL 1064  16.676   6.588   7.260
    2AU     AUL 1065  16.753   6.893   7.014
    2AU       S 1066  16.407   7.084   6.773
    2AU     LIG 1067  16.647   7.416   6.568
    2AU     LIG 1068  16.629   7.871   6.464
    2AU     LIG 1069  16.601   8.228   6.156
    2AU     LIG 1070  16.578   8.564   5.817
    2AU     LIG 1071  16.447   8.854   5.467
    2AU     LIG 1072  16.408   9.234   5.199
    2AU       S 1073  17.111   6.602   6.968
    2AU     LIG 1074  17.500   6.926   6.795
    2AU     LIG 1075  17.834   7.039   6.453
    2AU     LIG 1076  18.068   7.317   6.150
    2AU     LIG 1077  18.322   7.728   6.105
    2AU     LIG 1078  18.569   8.130   6.003
    2AU     LIG 1079  18.851   8.470   5.819
    2AU    AUSL 1080  16.273   6.766   7.357
    2AU    AUSL 1081  16.137   6.488   7.069
    2AU     AUL 1082  16.100   6.963   7.113
    2AU       S 1083  16.447   7.257   7.003
    2AU     LIG 1084  16.433   7.748   6.944
    2AU     LIG 1085  16.408   8.200   6.813
    2AU     LIG 1086  16.232   8.636   6.784
    2AU     LIG 1087  16.321   9.075   6.779
    2AU     LIG 1088  16.164   9.433   6.539
    2AU     LIG 1089  15.943   9.825   6.454
    2AU       S 1090  15.941   6.754   6.729
    2AU     LIG 1091  15.918   6.760   6.303
    2AU     LIG 1092  15.736   7.071   5.974
    2AU     LIG 1093  15.514   7.351   5.631
    2AU     LIG 1094  15.295   7.472   5.203
    2AU     LIG 1095  15.155   7.797   4.877
    2AU     LIG 1096  14.941   8.119   4.597
    2AU    AUSL 1097  16.467   5.443   7.000
    2AU    AUSL 1098  16.067   5.718   7.356
    2AU     AUL 1099  16.154   5.431   6.918
    2AU       S 1100  15.687   5.344   7.146
    2AU     LIG 1101  15.431   5.050   7.280
    2AU     LIG 1102  15.106   4.818   7.069
    2AU     LIG 1103  14.761   4.650   6.792
    2AU     LIG 1104  14.439   4.463   6.513
    2AU     LIG 1105  14.225   4.244   6.170
    2AU     LIG 1106  14.047   3.835   6.035
    2AU       S 1107  16.305   5.016   7.037
    2AU     LIG 1108  16.191   4.659   6.798
    2AU     LIG 1109  15.989   4.284   6.635
    2AU     LIG 1110  16.160   3.892   6.455
    2AU     LIG 1111  16.090   3.561   6.110
    2AU     LIG 1112  16.099   3.206   5.777
    2AU     LIG 1113  16.186   2.852   5.453
    2AU    AUSL 1114  16.477   5.529   7.410
    2AU    AUSL 1115  16.597   5.803   7.115
    2AU     AUL 1116  16.652   5.312   7.158
    2AU       S 1117  16.083   5.132   7.273
    2AU     LIG 1118  16.216   4.596   7.311
    2AU     LIG 1119  16.213   4.167   7.091
    2AU     LIG 1120  16.441   3.776   6.913
    2AU     LIG 1121  16.609   3.281   6.900
    2AU     LIG 1122  16.742   2.775   6.873
    2AU     LIG 1123  17.024   2.393   6.742
    2AU       S 1124  16.868   5.406   6.770
    2AU     LIG 1125  16.686   4.985   6.679
    2AU     LIG 1126  16.833   4.662   6.341
    2AU     LIG 1127  17.093   4.383   6.053
    2AU     LIG 1128  17.302   4.103   5.741
    2AU     LIG 1129  17.407   3.953   5.292
    2AU     LIG 1130  17.701   3.841   4.932
    3AU     AUC 1131  41.246  35.729   7.506
    3AU     AUC 1132  41.510  35.726   7.348
    3AU     AUC 1133  41.499  35.721   7.659
    3AU     AUC 1134  40.996  35.731   7.338
    3AU     AUC 1135  40.985  35.753   7.653
    3AU     AUC 1136  41.099  35.987   7.498
    3AU     AUC 1137  41.411  35.981   7.489
    3AU     AUC 1138  41.089  35.475   7.520
    3AU     AUC 1139  41.383  35.474   7.533
    3AU     AUC 1140  41.236  35.585   7.770
    3AU     AUC 1141  41.261  35.898   7.757
    3AU     AUC 1142  41.247  35.562   7.254
    3AU     AUC 1143  41.243  35.864   7.242
    3AU     AUC 1144  41.761  35.712   7.187
    3AU     AUC 1145  41.765  35.727   7.499
    3AU     AUC 1146  41.757  35.723   7.806
    3AU     AUC 1147  40.738  35.719   7.181
    3AU     AUC 1148  40.728  35.749   7.490
    3AU     AUC 1149  40.736  35.773   7.812
    3AU     AUC 1150  40.957  36.254   7.496
    3AU     AUC 1151  41.267  36.250   7.492
    3AU     AUC 1152  41.560  36.243   7.488
    3AU     AUC 1153  40.907  35.223   7.530
    3AU     AUC 1154  41.222  35.208   7.523
    3AU     AUC 1155  41.538  35.207   7.545
    3AU     AUC 1156  41.219  35.437   8.027
    3AU     AUC 1157  41.245  35.749   8.033
    3AU     AUC 1158  41.268  36.056   8.016
    3AU     AUC 1159  41.249  35.384   7.017
    3AU     AUC 1160  41.260  35.701   6.983
    3AU     AUC 1161  41.245  36.007   6.976
    3AU     AUC 1162  41.508  35.587   7.935
    3AU     AUC 1163  41.516  35.880   7.922
    3AU     AUC 1164  41.521  35.547   7.096
    3AU     AUC 1165  41.526  35.855   7.078
    3AU     AUC 1166  40.971  35.609   7.932
    3AU     AUC 1167  40.996  35.918   7.927
    3AU     AUC 1168  41.000  35.564   7.074
    3AU     AUC 1169  40.991  35.869   7.075
    3AU     AUC 1170  41.665  35.987   7.323
    3AU     AUC 1171  41.679  35.973   7.641
    3AU     AUC 1172  40.832  35.987   7.345
    3AU     AUC 1173  40.841  36.015   7.666
    3AU     AUC 1174  41.658  35.457   7.365
    3AU     AUC 1175  41.657  35.467   7.683
    3AU     AUC 1176  40.823  35.478   7.342
    3AU     AUC 1177  40.822  35.496   7.686
    3AU     AUC 1178  41.102  36.155   7.766
    3AU     AUC 1179  41.421  36.158   7.738
    3AU     AUC 1180  41.061  35.316   7.768
    3AU     AUC 1181  41.381  35.324   7.801
    3AU     AUC 1182  41.092  36.137   7.235
    3AU     AUC 1183  41.409  36.124   7.220
    3AU     AUC 1184  41.072  35.314   7.255
    3AU     AUC 1185  41.400  35.296   7.283
    3AU    AUSL 1186  41.593  35.684   8.104
    3AU    AUSL 1187  41.540  35.266   8.152
    3AU     AUL 1188  41.776  35.344   8.415
    3AU       S 1189  41.839  34.970   8.090
    3AU     LIG 1190  41.741  34.788   8.467
    3AU     LIG 1191  41.786  34.395   8.677
    3AU     LIG 1192  42.027  34.078   8.897
    3AU     LIG 1193  42.261  33.738   9.114
    3AU     LIG 1194  42.562  33.535   9.407
    3AU     LIG 1195  42.587  33.375   9.849
    3AU       S 1196  41.637  35.712   8.665
    3AU     LIG 1197  41.907  35.431   8.897
    3AU     LIG 1198  42.248  35.238   9.158
    3AU     LIG 1199  42.649  35.284   9.421
    3AU     LIG 1200  42.838  35.353   9.849
    3AU     LIG 1201  43.058  35.517  10.226
    3AU     LIG 1202  43.168  35.596  10.674
    3AU    AUSL 1203  41.309  35.541   8.363
    3AU    AUSL 1204  41.180  35.930   8.280
    3AU     AUL 1205  41.232  35.914   8.699
    3AU       S 1206  41.382  35.540   8.513
    3AU     LIG 1207  41.451  35.167   8.752
    3AU     LIG 1208  41.709  35.014   9.143
    3AU     LIG 1209  41.769  34.888   9.620
    3AU     LIG 1210  41.801  34.775  10.099
    3AU     LIG 1211  41.832  34.679  10.580
    3AU     LIG 1212  42.142  34.559  10.927
    3AU       S 1213  40.888  35.633   8.635
    3AU     LIG 1214  40.779  35.552   9.094
    3AU     LIG 1215  40.571  35.510   9.518
    3AU     LIG 1216  40.401  35.555   9.961
    3AU     LIG 1217  40.368  35.877  10.336
    3AU     LIG 1218  40.377  36.143  10.750
    3AU     LIG 1219  40.193  36.330  11.165
    3AU    AUSL 1220  41.563  36.046   8.287
    3AU    AUSL 1221  41.897  35.930   7.972
    3AU     AUL 1222  41.887  35.768   8.294
    3AU       S 1223  41.592  36.081   8.468
    3AU     LIG 1224  41.822  36.144   8.859
    3AU     LIG 1225  41.980  36.340   9.271
    3AU     LIG 1226  41.965  36.443   9.749
    3AU     LIG 1227  42.042  36.600  10.190
    3AU     LIG 1228  41.997  36.746  10.645
    3AU     LIG 1229  42.058  36.596  11.087
    3AU       S 1230  42.170  35.993   8.013
    3AU     LIG 1231  42.382  35.919   8.393
    3AU     LIG 1232  42.645  36.135   8.722
    3AU     LIG 1233  42.912  36.387   9.029
    3AU     LIG 1234  43.242  36.427   9.377
    3AU     LIG 1235  43.576  36.499   9.711
    3AU     LIG 1236  43.864  36.803   9.939
    3AU    AUSL 1237  41.796  35.741   6.872
    3AU    AUSL 1238  41.562  36.134   6.826
    3AU     AUL 1239  41.964  36.110   6.495
    3AU       S 1240  41.810  35.766   6.697
    3AU     LIG 1241  42.113  35.665   6.324
    3AU     LIG 1242  42.118  35.502   5.886
    3AU     LIG 1243  42.241  35.415   5.435
    3AU     LIG 1244  42.577  35.466   5.087
    3AU     LIG 1245  43.000  35.508   4.839
    3AU     LIG 1246  43.336  35.569   4.488
    3AU       S 1247  41.572  36.190   6.668
    3AU     LIG 1248  41.816  36.588   6.575
    3AU     LIG 1249  42.166  36.718   6.271
    3AU     LIG 1250  42.359  36.889   5.846
    3AU     LIG 1251  42.507  37.128   5.434
    3AU     LIG 1252  42.802  37.399   5.150
    3AU     LIG 1253  43.106  37.527   4.776
    3AU    AUSL 1254  41.527  35.422   6.731
    3AU    AUSL 1255  41.858  35.370   7.027
    3AU     AUL 1256  41.956  35.360   6.693
    3AU       S 1257  41.941  34.936   6.886
    3AU     LIG 1258  42.147  34.659   6.545
    3AU     LIG 1259  42.384  34.294   6.307
    3AU     LIG 1260  42.616  33.988   6.005
    3AU     LIG 1261  42.939  33.882   5.656
    3AU     LIG 1262  43.286  33.900   5.305
    3AU     LIG 1263  43.592  34.046   4.956
    3AU       S 1264  41.638  35.647   6.448
    3AU     LIG 1265  41.726  35.292   6.222
    3AU     LIG 1266  41.735  35.183   5.756
    3AU     LIG 1267  41.800  35.168   5.276
    3AU     LIG 1268  41.866  35.153   4.795
    3AU     LIG 1269  41.896  34.970   4.352
    3AU     LIG 1270  42.114  34.855   3.947
    3AU    AUSL 1271  41.389  35.778   6.902
    3AU    AUSL 1272  41.131  35.537   6.687
    3AU     AUL 1273  41.316  35.336   6.564
    3AU       S 1274  40.864  35.686   6.380
    3AU     LIG 1275  40.953  35.291   6.149
    3AU     LIG 1276  40.763  35.076   5.758
    3AU     LIG 1277  40.500  34.974   5.354
    3AU     LIG 1278  40.377  34.674   4.970
    3AU     LIG 1279  40.343  34.518   4.500
    3AU     LIG 1280  40.274  34.634   4.042
    3AU       S 1281  41.527  35.759   6.494
    3AU     LIG 1282  41.659  35.744   5.976
    3AU     LIG 1283  41.769  35.641   5.511
    3AU     LIG 1284  41.939  35.614   5.055
    3AU     LIG 1285  41.957  35.633   4.576
    3AU     LIG 1286  41.959  35.891   4.162
    3AU     LIG 1287  42.061  36.161   3.770
    3AU    AUSL 1288  40.797  35.811   8.217
    3AU    AUSL 1289  40.935  36.218   8.131
    3AU     AUL 1290  40.979  36.155   8.423
    3AU       S 1291  40.733  35.818   8.646
    3AU     LIG 1292  40.406  35.483   8.742
    3AU     LIG 1293  40.233  35.324   9.180
    3AU     LIG 1294  40.052  35.292   9.651
    3AU     LIG 1295  39.707  35.221  10.017
    3AU     LIG 1296  39.338  35.328  10.360
    3AU     LIG 1297  38.944  35.355  10.677
    3AU       S 1298  40.520  36.185   8.356
    3AU     LIG 1299  40.643  36.389   8.751
    3AU     LIG 1300  40.569  36.821   8.960
    3AU     LIG 1301  40.344  37.172   9.222
    3AU     LIG 1302  40.204  37.325   9.671
    3AU     LIG 1303  40.038  37.386  10.136
    3AU     LIG 1304  39.805  37.548  10.535
    3AU    AUSL 1305  41.095  35.607   8.028
    3AU    AUSL 1306  40.588  35.538   7.999
    3AU     AUL 1307  40.595  35.641   8.244
    3AU       S 1308  40.420  35.188   8.195
    3AU     LIG 1309  40.013  35.063   8.007
    3AU     LIG 1310  39.677  34.779   8.219
    3AU     LIG 1311  39.455  34.513   8.564
    3AU     LIG 1312  39.226  34.238   8.884
    3AU     LIG 1313  38.852  34.105   9.158
    3AU     LIG 1314  38.438  34.159   9.417
    3AU       S 1315  40.903  35.524   8.590
    3AU     LIG 1316  40.795  35.138   8.769
    3AU     LIG 1317  40.672  35.054   9.225
    3AU     LIG 1318  40.493  35.027   9.668
    3AU     LIG 1319  40.253  34.925  10.065
    3AU     LIG 1320  40.210  34.639  10.454
    3AU     LIG 1321  40.172  34.548  10.916
    3AU    AUSL 1322  40.825  35.704   6.890
    3AU    AUSL 1323  40.995  35.260   6.945
    3AU     AUL 1324  40.847  35.314   6.648
    3AU       S 1325  40.599  35.687   6.604
    3AU     LIG 1326  40.465  35.447   6.192
    3AU     LIG 1327  40.343  35.374   5.720
    3AU     LIG 1328  40.038  35.231   5.373
    3AU     LIG 1329  39.675  35.192   5.053
    3AU     LIG 1330  39.291  35.190   4.757
    3AU     LIG 1331  39.154  35.407   4.350
    3AU       S 1332  40.561  34.971   6.822
    3AU     LIG 1333  40.304  34.603   6.768
    3AU     LIG 1334  39.999  34.347   6.517
    3AU     LIG 1335  39.722  34.093   6.230
    3AU     LIG 1336  39.584  33.829   5.864
    3AU     LIG 1337  39.688  33.589   5.449
    3AU     LIG 1338  39.630  33.308   5.060
    3AU    AUSL 1339  41.114  35.973   6.679
    3AU    AUSL 1340  40.591  36.022   6.976
    3AU     AUL 1341  40.798  36.091   6.650
    3AU       S 1342  40.365  36.204   6.820
    3AU     LIG 1343  40.030  36.371   6.553
    3AU     LIG 1344  39.927  36.384   6.082
    3AU     LIG 1345  39.855  36.588   5.658
    3AU     LIG 1346  39.573  36.831   5.352
    3AU     LIG 1347  39.319  37.007   4.976
    3AU     LIG 1348  38.909  37.189   4.827
    3AU       S 1349  41.053  35.747   6.467
    3AU     LIG 1350  41.137  35.730   5.977
    3AU     LIG 1351  40.832  35.578   5.627
    3AU     LIG 1352  40.596  35.613   5.196
    3AU     LIG 1353  40.482  35.873   4.779
    3AU     LIG 1354  40.266  36.123   4.409
    3AU     LIG 1355  40.125  36.253   3.965
    3AU    AUSL 1356  41.864  36.335   7.424
    3AU    AUSL 1357  41.894  36.074   7.090
    3AU     AUL 1358  42.037  36.540   7.224
    3AU       S 1359  42.039  36.146   6.942
    3AU     LIG 1360  42.397  35.967   6.744
    3AU     LIG 1361  42.788  36.105   6.469
    3AU     LIG 1362  43.067  36.299   6.102
    3AU     LIG 1363  43.355  36.468   5.724
    3AU     LIG 1364  43.697  36.674   5.427
    3AU     LIG 1365  43.926  36.966   5.105
    3AU       S 1366  42.339  36.195   7.349
    3AU     LIG 1367  42.829  36.165   7.526
    3AU     LIG 1368  43.302  36.276   7.585
    3AU     LIG 1369  43.748  36.476   7.533
    3AU     LIG 1370  44.071  36.863   7.531
    3AU     LIG 1371  44.276  37.280   7.691
    3AU     LIG 1372  44.661  37.552   7.840
    3AU    AUSL 1373  42.088  35.759   7.251
    3AU    AUSL 1374  42.075  35.614   7.668
    3AU     AUL 1375  42.365  35.526   7.446
    3AU       S 1376  42.303  35.962   7.307
    3AU     LIG 1377  42.724  35.863   7.141
    3AU     LIG 1378  43.171  36.074   7.104
    3AU     LIG 1379  43.631  35.859   7.077
    3AU     LIG 1380  44.144  35.908   7.002
    3AU     LIG 1381  44.639  36.017   7.052
    3AU     LIG 1382  44.943  36.395   7.153
    3AU       S 1383  42.365  35.132   7.732
    3AU     LIG 1384  42.806  35.046   7.772
    3AU     LIG 1385  43.146  34.733   7.802
    3AU     LIG 1386  43.571  34.512   7.815
    3AU     LIG 1387  44.021  34.396   7.820
    3AU     LIG 1388  44.426  34.594   7.951
    3AU     LIG 1389  44.740  34.551   8.287
    3AU    AUSL 1390  41.877  35.951   7.565
    3AU    AUSL 1391  41.775  36.297   7.822
    3AU     AUL 1392  42.029  36.292   7.684
    3AU       S 1393  42.020  36.185   8.117
    3AU     LIG 1394  42.465  36.377   8.156
    3AU     LIG 1395  42.668  36.607   8.518
    3AU     LIG 1396  42.863  36.902   8.826
    3AU     LIG 1397  43.100  37.328   8.851
    3AU     LIG 1398  43.332  37.754   8.852
    3AU     LIG 1399  43.646  38.061   9.019
    3AU       S 1400  42.352  35.994   7.565
    3AU     LIG 1401  42.637  35.844   7.885
    3AU     LIG 1402  43.112  35.918   7.953
    3AU     LIG 1403  43.607  35.797   7.918
    3AU     LIG 1404  44.133  35.815   7.969
    3AU     LIG 1405  44.588  36.024   8.020
    3AU     LIG 1406  44.961  36.291   8.176
    3AU    AUSL 1407  40.592  36.280   7.578
    3AU    AUSL 1408  40.639  36.030   7.916
    3AU     AUL 1409  40.598  36.487   7.814
    3AU       S 1410  40.441  36.112   8.094
    3AU     LIG 1411  40.036  36.277   8.325
    3AU     LIG 1412  39.740  36.325   8.702
    3AU     LIG 1413  39.599  36.460   9.143
    3AU     LIG 1414  39.371  36.759   9.445
    3AU     LIG 1415  39.047  36.983   9.718
    3AU     LIG 1416  38.642  37.127   9.921
    3AU       S 1417  40.195  36.304   7.692
    3AU     LIG 1418  40.016  36.716   7.471
    3AU     LIG 1419  39.705  37.128   7.458
    3AU     LIG 1420  39.350  37.504   7.492
    3AU     LIG 1421  38.897  37.662   7.626
    3AU     LIG 1422  38.469  37.795   7.858
    3AU     LIG 1423  37.981  37.838   7.885
    3AU    AUSL 1424  40.669  35.946   7.359
    3AU    AUSL 1425  40.761  36.363   7.211
    3AU     AUL 1426  40.477  36.279   7.268
    3AU       S 1427  40.103  36.219   7.531
    3AU     LIG 1428  39.933  36.299   7.109
    3AU     LIG 1429  39.563  36.478   6.819
    3AU     LIG 1430  39.099  36.641   6.748
    3AU     LIG 1431  38.635  36.817   6.740
    3AU     LIG 1432  38.156  36.888   6.833
    3AU     LIG 1433  37.700  36.700   6.862
    3AU       S 1434  40.496  36.601   6.938
    3AU     LIG 1435  40.342  36.834   6.531
    3AU     LIG 1436  40.397  37.137   6.170
    3AU     LIG 1437  40.179  37.416   5.878
    3AU     LIG 1438  39.952  37.812   5.936
    3AU     LIG 1439  39.678  38.188   5.990
    3AU     LIG 1440  39.212  38.243   5.935
    3AU    AUSL 1441  40.390  35.869   7.653
    3AU    AUSL 1442  40.424  35.626   7.303
    3AU     AUL 1443  40.257  35.886   7.259
    3AU       S 1444  40.083  35.437   7.432
    3AU     LIG 1445  39.680  35.439   7.713
    3AU     LIG 1446  39.191  35.500   7.700
    3AU     LIG 1447  38.731  35.508   7.521
    3AU     LIG 1448  38.303  35.401   7.320
    3AU     LIG 1449  37.894  35.133   7.263
    3AU     LIG 1450  37.642  34.756   7.131
    3AU       S 1451  40.202  35.894   7.736
    3AU     LIG 1452  39.834  36.019   7.939
    3AU     LIG 1453  39.527  36.331   8.125
    3AU     LIG 1454  39.177  36.546   8.370
    3AU     LIG 1455  38.708  36.637   8.292
    3AU     LIG 1456  38.246  36.771   8.275
    3AU     LIG 1457  37.781  36.834   8.113
    3AU    AUSL 1458  41.930  35.224   7.590
    3AU    AUSL 1459  41.878  35.434   7.969
    3AU     AUL 1460  42.186  35.499   7.930
    3AU       S 1461  42.096  34.956   7.569
    3AU     LIG 1462  42.441  34.648   7.662
    3AU     LIG 1463  42.815  34.361   7.649
    3AU     LIG 1464  43.255  34.243   7.518
    3AU     LIG 1465  43.690  34.033   7.590
    3AU     LIG 1466  44.032  33.717   7.740
    3AU     LIG 1467  44.269  33.355   7.974
    3AU       S 1468  41.918  35.123   8.049
    3AU     LIG 1469  42.273  34.851   8.275
    3AU     LIG 1470  42.289  34.426   8.532
    3AU     LIG 1471  42.519  34.068   8.760
    3AU     LIG 1472  42.788  33.856   9.078
    3AU     LIG 1473  43.124  33.823   9.421
    3AU     LIG 1474  43.493  33.913   9.724
    3AU    AUSL 1475  41.779  35.544   7.383
    3AU    AUSL 1476  41.701  35.078   7.285
    3AU     AUL 1477  42.051  35.284   7.206
    3AU       S 1478  42.114  35.137   7.621
    3AU     LIG 1479  42.501  35.025   7.281
    3AU     LIG 1480  42.900  34.759   7.341
    3AU     LIG 1481  43.398  34.709   7.347
    3AU     LIG 1482  43.826  34.497   7.357
    3AU     LIG 1483  44.305  34.539   7.271
    3AU     LIG 1484  44.682  34.512   6.944
    3AU       S 1485  41.940  34.838   7.099
    3AU     LIG 1486  42.017  34.408   6.969
    3AU     LIG 1487  42.128  34.054   6.683
    3AU     LIG 1488  42.372  33.744   6.408
    3AU     LIG 1489  42.631  33.332   6.336
    3AU     LIG 1490  43.042  33.076   6.239
    3AU     LIG 1491  43.374  32.763   6.103
    3AU    AUSL 1492  40.531  35.247   7.471
    3AU    AUSL 1493  40.629  35.389   7.055
    3AU     AUL 1494  40.336  35.463   7.027
    3AU       S 1495  40.550  35.061   7.028
    3AU     LIG 1496  40.057  35.051   6.966
    3AU     LIG 1497  39.768  34.758   6.745
    3AU     LIG 1498  39.493  34.507   6.441
    3AU     LIG 1499  39.208  34.253   6.146
    3AU     LIG 1500  38.819  34.226   5.854
    3AU     LIG 1501  38.716  34.154   5.402
    3AU       S 1502  40.245  35.219   7.417
    3AU     LIG 1503  39.854  34.994   7.485
    3AU     LIG 1504  39.375  35.036   7.512
    3AU     LIG 1505  38.973  34.777   7.626
    3AU     LIG 1506  38.547  34.516   7.656
    3AU     LIG 1507  38.215  34.187   7.821
    3AU     LIG 1508  37.922  33.782   7.756
    3AU    AUSL 1509  40.691  35.602   7.621
    3AU    AUSL 1510  40.771  35.217   7.809
    3AU     AUL 1511  40.396  35.416   7.802
    3AU       S 1512  40.533  35.004   7.938
    3AU     LIG 1513  40.309  34.735   7.745
    3AU     LIG 1514  39.970  34.470   7.936
    3AU     LIG 1515  39.636  34.209   8.192
    3AU     LIG 1516  39.344  33.934   8.481
    3AU     LIG 1517  39.134  33.549   8.712
    3AU     LIG 1518  38.946  33.081   8.744
    3AU       S 1519  40.124  35.493   7.454
    3AU     LIG 1520  39.666  35.421   7.195
    3AU     LIG 1521  39.192  35.418   7.193
    3AU     LIG 1522  38.837  35.106   7.248
    3AU     LIG 1523  38.528  35.030   7.596
    3AU     LIG 1524  38.095  35.027   7.723
    3AU     LIG 1525  37.679  34.818   7.642
    3AU    AUSL 1526  41.279  36.405   8.017
    3AU    AUSL 1527  40.961  36.201   7.727
    3AU     AUL 1528  40.978  36.515   8.085
    3AU       S 1529  40.582  36.343   8.246
    3AU     LIG 1530  40.650  36.771   8.398
    3AU     LIG 1531  40.573  37.204   8.604
    3AU     LIG 1532  40.314  37.533   8.820
    3AU     LIG 1533  39.994  37.688   9.131
    3AU     LIG 1534  39.628  37.772   9.417
    3AU     LIG 1535  39.224  38.016   9.488
    3AU       S 1536  41.335  36.802   7.975
    3AU     LIG 1537  41.412  36.984   8.347
    3AU     LIG 1538  41.288  37.408   8.468
    3AU     LIG 1539  41.355  37.806   8.651
    3AU     LIG 1540  41.442  38.164   8.936
    3AU     LIG 1541  41.466  38.426   9.326
    3AU     LIG 1542  41.611  38.782   9.607
    3AU    AUSL 1543  41.043  36.582   7.643
    3AU    AUSL 1544  41.470  36.560   7.262
    3AU     AUL 1545  41.062  36.780   7.370
    3AU       S 1546  41.210  36.856   7.805
    3AU     LIG 1547  41.356  37.308   7.951
    3AU     LIG 1548  41.383  37.773   8.083
    3AU     LIG 1549  41.295  38.192   8.313
    3AU     LIG 1550  41.073  38.621   8.380
    3AU     LIG 1551  40.920  39.058   8.199
    3AU     LIG 1552  40.783  39.493   8.343
    3AU       S 1553  41.500  36.863   7.198
    3AU     LIG 1554  41.785  37.023   6.897
    3AU     LIG 1555  41.747  37.458   6.691
    3AU     LIG 1556  41.796  37.939   6.633
    3AU     LIG 1557  42.008  38.388   6.599
    3AU     LIG 1558  42.092  38.869   6.527
    3AU     LIG 1559  42.034  39.350   6.462
    3AU    AUSL 1560  41.438  36.424   7.641
    3AU    AUSL 1561  41.457  36.059   7.906
    3AU     AUL 1562  41.607  36.440   8.045
    3AU       S 1563  41.989  36.225   8.230
    3AU     LIG 1564  42.198  36.375   8.601
    3AU     LIG 1565  42.418  36.546   8.981
    3AU     LIG 1566  42.686  36.771   9.309
    3AU     LIG 1567  42.767  37.011   9.723
    3AU     LIG 1568  42.772  37.322  10.103
    3AU     LIG 1569  42.896  37.714  10.354
    3AU       S 1570  41.501  36.742   7.698
    3AU     LIG 1571  41.781  37.024   7.973
    3AU     LIG 1572  41.765  37.451   8.239
    3AU     LIG 1573  41.777  37.938   8.374
    3AU     LIG 1574  41.912  38.418   8.404
    3AU     LIG 1575  42.131  38.878   8.410
    3AU     LIG 1576  42.322  39.348   8.409
    3AU    AUSL 1577  41.203  35.174   7.945
    3AU    AUSL 1578  41.562  35.290   7.745
    3AU     AUL 1579  41.406  35.051   8.198
    3AU       S 1580  41.207  34.629   8.029
    3AU     LIG 1581  40.980  34.372   8.266
    3AU     LIG 1582  41.005  33.929   8.283
    3AU     LIG 1583  41.059  33.542   8.522
    3AU     LIG 1584  40.934  33.121   8.692
    3AU     LIG 1585  40.823  32.840   9.070
    3AU     LIG 1586  40.772  32.516   9.426
    3AU       S 1587  41.838  34.914   7.965
    3AU     LIG 1588  41.970  34.467   8.120
    3AU     LIG 1589  41.965  34.032   8.361
    3AU     LIG 1590  42.221  33.679   8.598
    3AU     LIG 1591  42.561  33.415   8.843
    3AU     LIG 1592  42.971  33.177   8.921
    3AU     LIG 1593  43.328  32.870   8.753
    3AU    AUSL 1594  41.025  34.931   7.675
    3AU    AUSL 1595  40.909  35.301   8.199
    3AU     AUL 1596  40.960  35.001   8.088
    3AU       S 1597  40.942  34.646   7.804
    3AU     LIG 1598  40.685  34.343   7.694
    3AU     LIG 1599  40.724  33.896   7.800
    3AU     LIG 1600  40.756  33.499   8.089
    3AU     LIG 1601  40.671  33.040   8.243
    3AU     LIG 1602  40.457  32.591   8.315
    3AU     LIG 1603  40.261  32.132   8.352
    3AU       S 1604  40.579  35.147   8.277
    3AU     LIG 1605  40.310  34.713   8.284
    3AU     LIG 1606  39.984  34.446   8.484
    3AU     LIG 1607  39.745  34.122   8.737
    3AU     LIG 1608  39.498  33.807   8.998
    3AU     LIG 1609  39.441  33.525   9.386
    3AU     LIG 1610  39.401  33.391   9.846
    3AU    AUSL 1611  41.458  34.902   7.726
    3AU    AUSL 1612  40.978  34.918   7.268
    3AU     AUL 1613  41.280  34.654   7.494
    3AU       S 1614  40.879  34.600   7.162
    3AU     LIG 1615  40.562  34.302   7.177
    3AU     LIG 1616  40.605  33.845   7.226
    3AU     LIG 1617  40.628  33.386   7.051
    3AU     LIG 1618  40.586  32.935   6.845
    3AU     LIG 1619  40.399  32.460   6.813
    3AU     LIG 1620  40.216  31.983   6.865
    3AU       S 1621  41.314  34.682   7.937
    3AU     LIG 1622  41.189  34.177   7.844
    3AU     LIG 1623  41.193  33.704   7.863
    3AU     LIG 1624  41.245  33.306   8.104
    3AU     LIG 1625  41.495  32.919   8.227
    3AU     LIG 1626  41.826  32.566   8.250
    3AU     LIG 1627  41.947  32.095   8.292
    3AU    AUSL 1628  41.249  36.361   6.948
    3AU    AUSL 1629  41.542  36.160   7.255
    3AU     AUL 1630  41.634  36.461   7.012
    3AU       S 1631  41.322  36.718   6.789
    3AU     LIG 1632  41.479  37.015   6.489
    3AU     LIG 1633  41.351  37.440   6.349
    3AU     LIG 1634  41.361  37.805   6.058
    3AU     LIG 1635  41.546  38.031   5.690
    3AU     LIG 1636  41.679  38.365   5.387
    3AU     LIG 1637  41.608  38.749   5.127
    3AU       S 1638  41.981  36.163   6.977
    3AU     LIG 1639  42.305  36.491   6.741
    3AU     LIG 1640  42.658  36.640   6.448
    3AU     LIG 1641  42.914  37.001   6.250
    3AU     LIG 1642  43.157  37.424   6.190
    3AU     LIG 1643  43.347  37.864   6.103
    3AU     LIG 1644  43.529  38.279   5.948
    3AU    AUSL 1645  41.140  36.329   7.343
    3AU    AUSL 1646  40.994  36.065   7.052
    3AU     AUL 1647  40.964  36.485   6.992
    3AU       S 1648  41.334  36.819   7.016
    3AU     LIG 1649  41.297  37.273   6.895
    3AU     LIG 1650  41.229  37.729   6.752
    3AU     LIG 1651  41.108  38.120   6.536
    3AU     LIG 1652  40.926  38.501   6.342
    3AU     LIG 1653  40.778  38.948   6.358
    3AU     LIG 1654  40.615  39.417   6.381
    3AU       S 1655  40.548  36.447   6.783
    3AU     LIG 1656  40.499  36.390   6.328
    3AU     LIG 1657  40.341  36.663   5.967
    3AU     LIG 1658  40.236  36.960   5.605
    3AU     LIG 1659  40.210  37.172   5.171
    3AU     LIG 1660  39.980  37.430   4.830
    3AU     LIG 1661  39.805  37.865   4.724
    3AU    AUSL 1662  41.313  35.014   7.001
    3AU    AUSL 1663  40.910  35.302   7.347
    3AU     AUL 1664  41.006  34.993   6.940
    3AU       S 1665  40.523  34.939   7.123
    3AU     LIG 1666  40.205  34.668   7.259
    3AU     LIG 1667  39.918  34.362   7.042
    3AU     LIG 1668  39.606  34.116   6.759
    3AU     LIG 1669  39.326  33.857   6.463
    3AU     LIG 1670  39.055  33.536   6.229
    3AU     LIG 1671  38.789  33.209   5.991
    3AU       S 1672  41.136  34.572   7.048
    3AU     LIG 1673  40.960  34.178   6.866
    3AU     LIG 1674  40.811  33.756   6.743
    3AU     LIG 1675  40.779  33.332   6.540
    3AU     LIG 1676  40.869  33.050   6.167
    3AU     LIG 1677  40.983  32.916   5.713
    3AU     LIG 1678  41.105  32.583   5.400
    3AU    AUSL 1679  41.314  35.104   7.410
    3AU    AUSL 1680  41.447  35.373   7.116
    3AU     AUL 1681  41.487  34.878   7.166
    3AU       S 1682  40.884  34.701   7.295
    3AU     LIG 1683  41.044  34.192   7.368
    3AU     LIG 1684  41.105  33.753   7.175
    3AU     LIG 1685  41.131  33.329   6.927
    3AU     LIG 1686  41.344  32.893   6.809
    3AU     LIG 1687  41.709  32.542   6.775
    3AU     LIG 1688  41.934  32.113   6.680
    3AU       S 1689  41.718  34.977   6.782
    3AU     LIG 1690  41.643  34.561   6.644
    3AU     LIG 1691  41.857  34.278   6.309
    3AU     LIG 1692  42.092  33.964   6.013
    3AU     LIG 1693  42.210  33.690   5.618
    3AU     LIG 1694  42.350  33.524   5.182
    3AU     LIG 1695  42.706  33.368   4.912
    4AU     AUC 1696  26.132  31.163   7.503
    4AU     AUC 1697  26.397  31.157   7.346
    4AU     AUC 1698  26.385  31.153   7.657
    4AU     AUC 1699  25.885  31.168   7.335
    4AU     AUC 1700  25.871  31.190   7.649
    4AU     AUC 1701  25.988  31.423   7.492
    4AU     AUC 1702  26.299  31.414   7.486
    4AU     AUC 1703  25.973  30.910   7.516
    4AU     AUC 1704  26.267  30.906   7.530
    4AU     AUC 1705  26.119  31.019   7.767
    4AU     AUC 1706  26.148  31.330   7.755
    4AU     AUC 1707  26.133  30.994   7.250
    4AU     AUC 1708  26.130  31.297   7.238
    4AU     AUC 1709  26.647  31.141   7.191
    4AU     AUC 1710  26.651  31.156   7.498
    4AU     AUC 1711  26.641  31.152   7.806
    4AU     AUC 1712  25.628  31.158   7.179
    4AU     AUC 1713  25.616  31.190   7.487
    4AU     AUC 1714  25.621  31.215   7.807
    4AU     AUC 1715  25.851  31.692   7.489
    4AU     AUC 1716  26.158  31.684   7.487
    4AU     AUC 1717  26.450  31.672   7.485
    4AU     AUC 1718  25.788  30.661   7.525
    4AU     AUC 1719  26.104  30.642   7.519
    4AU     AUC 1720  26.420  30.638   7.542
    4AU     AUC 1721  26.098  30.871   8.022
    4AU     AUC 1722  26.128  31.181   8.029
    4AU     AUC 1723  26.155  31.489   8.014
    4AU     AUC 1724  26.135  30.816   7.017
    4AU     AUC 1725  26.152  31.131   6.981
    4AU     AUC 1726  26.136  31.439   6.971
    4AU     AUC 1727  26.391  31.018   7.933
    4AU     AUC 1728  26.401  31.310   7.921
    4AU     AUC 1729  26.409  30.978   7.095
    4AU     AUC 1730  26.414  31.285   7.075
    4AU     AUC 1731  25.854  31.046   7.927
    4AU     AUC 1732  25.882  31.355   7.923
    4AU     AUC 1733  25.889  30.995   7.072
    4AU     AUC 1734  25.883  31.303   7.072
    4AU     AUC 1735  26.555  31.417   7.322
    4AU     AUC 1736  26.565  31.402   7.641
    4AU     AUC 1737  25.722  31.425   7.340
    4AU     AUC 1738  25.730  31.455   7.660
    4AU     AUC 1739  26.543  30.886   7.365
    4AU     AUC 1740  26.541  30.897   7.681
    4AU     AUC 1741  25.706  30.916   7.340
    4AU     AUC 1742  25.707  30.933   7.681
    4AU     AUC 1743  25.993  31.591   7.762
    4AU     AUC 1744  26.312  31.589   7.735
    4AU     AUC 1745  25.943  30.751   7.763
    4AU     AUC 1746  26.262  30.755   7.798
    4AU     AUC 1747  25.983  31.571   7.227
    4AU     AUC 1748  26.301  31.556   7.216
    4AU     AUC 1749  25.954  30.747   7.250
    4AU     AUC 1750  26.283  30.728   7.280
    4AU    AUSL 1751  26.475  31.113   8.104
    4AU    AUSL 1752  26.420  30.694   8.148
    4AU     AUL 1753  26.658  30.773   8.414
    4AU       S 1754  26.688  30.401   8.079
    4AU     LIG 1755  26.579  30.191   8.450
    4AU     LIG 1756  26.650  29.765   8.597
    4AU     LIG 1757  26.896  29.458   8.853
    4AU     LIG 1758  27.161  29.155   9.113
    4AU     LIG 1759  27.192  28.902   9.523
    4AU     LIG 1760  27.186  28.908  10.006
    4AU       S 1761  26.519  31.139   8.661
    4AU     LIG 1762  26.761  30.842   8.920
    4AU     LIG 1763  26.969  30.678   9.326
    4AU     LIG 1764  27.153  30.534   9.748
    4AU     LIG 1765  27.371  30.494  10.167
    4AU     LIG 1766  27.797  30.557  10.377
    4AU     LIG 1767  28.179  30.592  10.666
    4AU    AUSL 1768  26.188  30.967   8.359
    4AU    AUSL 1769  26.062  31.358   8.282
    4AU     AUL 1770  26.111  31.334   8.702
    4AU       S 1771  26.259  30.962   8.510
    4AU     LIG 1772  26.324  30.589   8.746
    4AU     LIG 1773  26.512  30.459   9.185
    4AU     LIG 1774  26.645  30.433   9.666
    4AU     LIG 1775  26.827  30.346  10.118
    4AU     LIG 1776  26.868  30.155  10.563
    4AU     LIG 1777  26.769  30.138  11.040
    4AU       S 1778  25.761  31.065   8.620
    4AU     LIG 1779  25.631  31.002   9.080
    4AU     LIG 1780  25.470  30.913   9.513
    4AU     LIG 1781  25.317  30.921   9.960
    4AU     LIG 1782  25.295  31.207  10.356
    4AU     LIG 1783  25.257  31.495  10.746
    4AU     LIG 1784  25.118  31.716  11.141
    4AU    AUSL 1785  26.445  31.475   8.286
    4AU    AUSL 1786  26.783  31.357   7.976
    4AU     AUL 1787  26.770  31.199   8.291
    4AU       S 1788  26.474  31.504   8.475
    4AU     LIG 1789  26.720  31.557   8.864
    4AU     LIG 1790  26.828  31.763   9.292
    4AU     LIG 1791  26.752  31.900   9.750
    4AU     LIG 1792  26.875  31.991  10.197
    4AU     LIG 1793  26.730  32.038  10.642
    4AU     LIG 1794  26.668  31.904  11.092
    4AU       S 1795  27.079  31.422   8.029
    4AU     LIG 1796  27.232  31.400   8.471
    4AU     LIG 1797  27.501  31.691   8.711
    4AU     LIG 1798  27.739  32.006   8.975
    4AU     LIG 1799  27.999  32.116   9.353
    4AU     LIG 1800  28.257  32.286   9.716
    4AU     LIG 1801  28.633  32.484   9.928
    4AU    AUSL 1802  26.687  31.170   6.881
    4AU    AUSL 1803  26.453  31.559   6.820
    4AU     AUL 1804  26.808  31.481   6.441
    4AU       S 1805  26.738  31.190   6.742
    4AU     LIG 1806  27.003  31.053   6.319
    4AU     LIG 1807  27.041  30.856   5.911
    4AU     LIG 1808  27.172  30.727   5.468
    4AU     LIG 1809  27.520  30.629   5.136
    4AU     LIG 1810  27.871  30.704   4.804
    4AU     LIG 1811  28.118  30.882   4.434
    4AU       S 1812  26.460  31.611   6.663
    4AU     LIG 1813  26.696  31.949   6.478
    4AU     LIG 1814  27.042  32.088   6.160
    4AU     LIG 1815  27.293  32.251   5.754
    4AU     LIG 1816  27.563  32.409   5.377
    4AU     LIG 1817  27.768  32.691   5.069
    4AU     LIG 1818  27.850  33.060   4.787
    4AU    AUSL 1819  26.426  30.855   6.729
    4AU    AUSL 1820  26.746  30.795   7.029
    4AU     AUL 1821  26.846  30.777   6.689
    4AU       S 1822  26.809  30.362   6.888
    4AU     LIG 1823  26.999  30.119   6.538
    4AU     LIG 1824  27.205  29.715   6.356
    4AU     LIG 1825  27.425  29.429   6.045
    4AU     LIG 1826  27.758  29.493   5.706
    4AU     LIG 1827  28.138  29.599   5.431
    4AU     LIG 1828  28.419  29.597   5.035
    4AU       S 1829  26.523  31.053   6.462
    4AU     LIG 1830  26.612  30.675   6.238
    4AU     LIG 1831  26.678  30.518   5.784
    4AU     LIG 1832  26.736  30.485   5.301
    4AU     LIG 1833  26.709  30.269   4.855
    4AU     LIG 1834  26.790  30.044   4.423
    4AU     LIG 1835  26.907  30.097   3.963
    4AU    AUSL 1836  26.276  31.206   6.893
    4AU    AUSL 1837  26.029  30.956   6.677
    4AU     AUL 1838  26.217  30.726   6.585
    4AU       S 1839  25.994  31.050   6.332
    4AU     LIG 1840  25.937  30.675   6.120
    4AU     LIG 1841  25.721  30.514   5.715
    4AU     LIG 1842  25.449  30.439   5.303
    4AU     LIG 1843  25.219  30.210   4.932
    4AU     LIG 1844  25.192  29.997   4.498
    4AU     LIG 1845  24.945  29.999   4.088
    4AU       S 1846  26.430  31.165   6.508
    4AU     LIG 1847  26.570  31.135   5.991
    4AU     LIG 1848  26.703  30.978   5.543
    4AU     LIG 1849  26.858  30.954   5.087
    4AU     LIG 1850  26.837  31.123   4.625
    4AU     LIG 1851  26.943  31.301   4.185
    4AU     LIG 1852  27.078  31.564   3.808
    4AU    AUSL 1853  25.677  31.256   8.206
    4AU    AUSL 1854  25.832  31.654   8.124
    4AU     AUL 1855  25.878  31.593   8.423
    4AU       S 1856  25.617  31.260   8.630
    4AU     LIG 1857  25.266  30.969   8.697
    4AU     LIG 1858  25.139  30.788   9.117
    4AU     LIG 1859  24.985  30.728   9.575
    4AU     LIG 1860  24.632  30.689   9.908
    4AU     LIG 1861  24.291  30.705  10.251
    4AU     LIG 1862  23.988  30.740  10.622
    4AU       S 1863  25.422  31.639   8.345
    4AU     LIG 1864  25.461  31.734   8.772
    4AU     LIG 1865  25.357  32.083   9.067
    4AU     LIG 1866  25.218  32.455   9.318
    4AU     LIG 1867  24.966  32.689   9.642
    4AU     LIG 1868  24.763  32.866  10.046
    4AU     LIG 1869  24.423  33.053  10.337
    4AU    AUSL 1870  25.973  31.042   8.026
    4AU    AUSL 1871  25.473  30.972   7.995
    4AU     AUL 1872  25.474  31.083   8.232
    4AU       S 1873  25.304  30.633   8.196
    4AU     LIG 1874  24.902  30.544   8.017
    4AU     LIG 1875  24.580  30.242   8.160
    4AU     LIG 1876  24.345  29.993   8.497
    4AU     LIG 1877  24.104  29.676   8.750
    4AU     LIG 1878  23.881  29.513   9.133
    4AU     LIG 1879  23.672  29.493   9.552
    4AU       S 1880  25.777  30.958   8.580
    4AU     LIG 1881  25.606  30.586   8.784
    4AU     LIG 1882  25.522  30.471   9.247
    4AU     LIG 1883  25.397  30.431   9.719
    4AU     LIG 1884  25.329  30.193  10.144
    4AU     LIG 1885  25.138  30.024  10.566
    4AU     LIG 1886  24.955  30.106  11.004
    4AU    AUSL 1887  25.746  31.125   6.912
    4AU    AUSL 1888  25.870  30.692   6.939
    4AU     AUL 1889  25.703  30.812   6.637
    4AU       S 1890  25.770  31.140   6.307
    4AU     LIG 1891  25.471  30.880   6.049
    4AU     LIG 1892  25.218  30.603   5.731
    4AU     LIG 1893  24.926  30.495   5.346
    4AU     LIG 1894  24.527  30.634   5.109
    4AU     LIG 1895  24.225  30.762   4.771
    4AU     LIG 1896  24.059  30.726   4.322
    4AU       S 1897  25.432  30.433   6.794
    4AU     LIG 1898  25.228  30.024   6.791
    4AU     LIG 1899  24.937  29.751   6.538
    4AU     LIG 1900  24.660  29.510   6.231
    4AU     LIG 1901  24.463  29.417   5.804
    4AU     LIG 1902  24.409  29.369   5.334
    4AU     LIG 1903  24.415  29.176   4.896
    4AU    AUSL 1904  25.991  31.390   6.671
    4AU    AUSL 1905  25.488  31.436   6.967
    4AU     AUL 1906  25.572  31.277   6.686
    4AU       S 1907  25.389  31.697   6.756
    4AU     LIG 1908  25.034  31.726   6.471
    4AU     LIG 1909  24.858  31.806   6.039
    4AU     LIG 1910  24.602  31.839   5.630
    4AU     LIG 1911  24.359  32.091   5.300
    4AU     LIG 1912  23.977  32.244   5.059
    4AU     LIG 1913  23.586  32.498   4.988
    4AU       S 1914  25.983  31.304   6.433
    4AU     LIG 1915  25.918  31.172   5.859
    4AU     LIG 1916  25.571  30.980   5.550
    4AU     LIG 1917  25.341  30.944   5.131
    4AU     LIG 1918  25.315  31.179   4.693
    4AU     LIG 1919  25.252  31.482   4.306
    4AU     LIG 1920  25.103  31.729   3.909
    4AU    AUSL 1921  26.754  31.759   7.427
    4AU    AUSL 1922  26.785  31.510   7.086
    4AU     AUL 1923  26.912  31.961   7.244
    4AU       S 1924  26.923  31.644   6.861
    4AU     LIG 1925  27.233  31.741   6.537
    4AU     LIG 1926  27.526  31.899   6.207
    4AU     LIG 1927  27.774  32.124   5.881
    4AU     LIG 1928  28.030  32.179   5.498
    4AU     LIG 1929  28.421  32.285   5.248
    4AU     LIG 1930  28.751  32.542   5.016
    4AU       S 1931  27.219  31.620   7.350
    4AU     LIG 1932  27.710  31.623   7.503
    4AU     LIG 1933  28.210  31.640   7.495
    4AU     LIG 1934  28.695  31.709   7.486
    4AU     LIG 1935  29.120  31.979   7.473
    4AU     LIG 1936  29.387  32.416   7.558
    4AU     LIG 1937  29.470  32.908   7.543
    4AU    AUSL 1938  26.972  31.192   7.252
    4AU    AUSL 1939  26.961  31.039   7.668
    4AU     AUL 1940  27.248  30.952   7.444
    4AU       S 1941  27.185  31.389   7.297
    4AU     LIG 1942  27.610  31.224   7.213
    4AU     LIG 1943  28.090  31.237   7.202
    4AU     LIG 1944  28.592  31.215   7.198
    4AU     LIG 1945  29.033  31.423   7.234
    4AU     LIG 1946  29.476  31.586   7.218
    4AU     LIG 1947  29.916  31.768   7.157
    4AU       S 1948  27.245  30.556   7.732
    4AU     LIG 1949  27.657  30.407   7.751
    4AU     LIG 1950  28.041  30.187   7.836
    4AU     LIG 1951  28.473  30.008   7.869
    4AU     LIG 1952  28.901  29.872   7.881
    4AU     LIG 1953  29.313  30.055   7.892
    4AU     LIG 1954  29.585  30.284   8.194
    4AU    AUSL 1955  26.763  31.376   7.569
    4AU    AUSL 1956  26.662  31.724   7.825
    4AU     AUL 1957  26.917  31.713   7.696
    4AU       S 1958  26.921  31.623   8.134
    4AU     LIG 1959  27.334  31.859   8.222
    4AU     LIG 1960  27.465  32.195   8.559
    4AU     LIG 1961  27.624  32.655   8.685
    4AU     LIG 1962  27.941  33.016   8.745
    4AU     LIG 1963  28.296  33.294   8.886
    4AU     LIG 1964  28.594  33.603   9.095
    4AU       S 1965  27.238  31.420   7.567
    4AU     LIG 1966  27.557  31.192   7.763
    4AU     LIG 1967  28.027  31.217   7.738
    4AU     LIG 1968  28.502  31.280   7.739
    4AU     LIG 1969  28.962  31.360   7.776
    4AU     LIG 1970  29.392  31.538   7.720
    4AU     LIG 1971  29.845  31.598   7.836
    4AU    AUSL 1972  25.489  31.732   7.567
    4AU    AUSL 1973  25.526  31.484   7.909
    4AU     AUL 1974  25.500  31.937   7.819
    4AU       S 1975  25.321  31.564   8.094
    4AU     LIG 1976  24.945  31.640   8.431
    4AU     LIG 1977  24.943  31.869   8.840
    4AU     LIG 1978  24.804  32.187   9.172
    4AU     LIG 1979  24.536  32.355   9.538
    4AU     LIG 1980  24.138  32.394   9.822
    4AU     LIG 1981  23.855  32.560  10.185
    4AU       S 1982  25.119  31.750   7.653
    4AU     LIG 1983  24.939  32.168   7.574
    4AU     LIG 1984  24.530  32.403   7.483
    4AU     LIG 1985  24.120  32.657   7.455
    4AU     LIG 1986  23.789  32.958   7.601
    4AU     LIG 1987  23.422  33.200   7.618
    4AU     LIG 1988  23.008  33.259   7.530
    4AU    AUSL 1989  25.556  31.391   7.358
    4AU    AUSL 1990  25.651  31.793   7.194
    4AU     AUL 1991  25.369  31.721   7.229
    4AU       S 1992  24.994  31.673   7.503
    4AU     LIG 1993  24.926  31.675   7.003
    4AU     LIG 1994  24.595  31.842   6.726
    4AU     LIG 1995  24.138  31.821   6.626
    4AU     LIG 1996  23.667  31.872   6.655
    4AU     LIG 1997  23.224  31.980   6.680
    4AU     LIG 1998  22.790  32.113   6.782
    4AU       S 1999  25.477  31.944   6.821
    4AU     LIG 2000  25.269  32.198   6.479
    4AU     LIG 2001  25.203  32.588   6.190
    4AU     LIG 2002  25.103  33.067   6.091
    4AU     LIG 2003  24.794  33.405   5.942
    4AU     LIG 2004  24.370  33.599   5.847
    4AU     LIG 2005  24.101  33.910   5.618
    4AU    AUSL 2006  25.278  31.310   7.654
    4AU    AUSL 2007  25.311  31.071   7.302
    4AU     AUL 2008  25.156  31.325   7.267
    4AU       S 2009  24.960  30.883   7.426
    4AU     LIG 2010  24.601  30.887   7.775
    4AU     LIG 2011  24.106  30.885   7.774
    4AU     LIG 2012  23.674  30.888   7.549
    4AU     LIG 2013  23.299  30.867   7.211
    4AU     LIG 2014  22.866  30.691   7.232
    4AU     LIG 2015  22.645  30.341   7.028
    4AU       S 2016  25.076  31.349   7.740
    4AU     LIG 2017  24.751  31.610   7.959
    4AU     LIG 2018  24.422  31.854   8.211
    4AU     LIG 2019  23.923  31.977   8.321
    4AU     LIG 2020  23.440  32.013   8.236
    4AU     LIG 2021  23.030  32.264   8.117
    4AU     LIG 2022  22.589  32.454   8.230
    4AU    AUSL 2023  26.811  30.651   7.589
    4AU    AUSL 2024  26.759  30.863   7.968
    4AU     AUL 2025  27.067  30.924   7.931
    4AU       S 2026  26.976  30.387   7.565
    4AU     LIG 2027  27.283  30.063   7.626
    4AU     LIG 2028  27.725  29.947   7.501
    4AU     LIG 2029  28.210  29.895   7.442
    4AU     LIG 2030  28.614  29.617   7.519
    4AU     LIG 2031  28.991  29.277   7.539
    4AU     LIG 2032  29.328  28.910   7.491
    4AU       S 2033  26.790  30.551   8.045
    4AU     LIG 2034  27.081  30.344   8.364
    4AU     LIG 2035  27.143  29.934   8.602
    4AU     LIG 2036  27.391  29.563   8.784
    4AU     LIG 2037  27.669  29.320   9.080
    4AU     LIG 2038  28.073  29.356   9.344
    4AU     LIG 2039  28.452  29.425   9.628
    4AU    AUSL 2040  26.665  30.973   7.382
    4AU    AUSL 2041  26.581  30.506   7.285
    4AU     AUL 2042  26.934  30.710   7.206
    4AU       S 2043  27.004  30.562   7.621
    4AU     LIG 2044  27.427  30.467   7.294
    4AU     LIG 2045  27.946  30.364   7.301
    4AU     LIG 2046  28.377  30.224   7.077
    4AU     LIG 2047  28.866  30.190   6.937
    4AU     LIG 2048  29.322  30.076   6.968
    4AU     LIG 2049  29.796  29.937   6.929
    4AU       S 2050  26.819  30.264   7.095
    4AU     LIG 2051  26.721  29.851   6.876
    4AU     LIG 2052  26.901  29.449   6.673
    4AU     LIG 2053  27.182  29.152   6.421
    4AU     LIG 2054  27.483  28.881   6.177
    4AU     LIG 2055  27.740  28.464   6.132
    4AU     LIG 2056  28.073  28.108   6.050
    4AU    AUSL 2057  25.411  30.690   7.467
    4AU    AUSL 2058  25.506  30.830   7.050
    4AU     AUL 2059  25.216  30.908   7.027
    4AU       S 2060  25.423  30.501   7.023
    4AU     LIG 2061  24.937  30.491   6.959
    4AU     LIG 2062  24.688  30.156   6.760
    4AU     LIG 2063  24.432  29.925   6.437
    4AU     LIG 2064  24.164  29.674   6.138
    4AU     LIG 2065  23.984  29.616   5.694
    4AU     LIG 2066  23.665  29.745   5.362
    4AU       S 2067  25.119  30.665   7.413
    4AU     LIG 2068  24.745  30.437   7.529
    4AU     LIG 2069  24.319  30.427   7.718
    4AU     LIG 2070  23.824  30.391   7.725
    4AU     LIG 2071  23.420  30.086   7.602
    4AU     LIG 2072  23.058  29.734   7.553
    4AU     LIG 2073  22.805  29.314   7.684
    4AU    AUSL 2074  25.578  31.043   7.618
    4AU    AUSL 2075  25.654  30.653   7.801
    4AU     AUL 2076  25.281  30.856   7.797
    4AU       S 2077  25.393  30.437   7.939
    4AU     LIG 2078  25.119  30.134   7.787
    4AU     LIG 2079  24.813  29.826   7.968
    4AU     LIG 2080  24.507  29.568   8.251
    4AU     LIG 2081  24.304  29.228   8.544
    4AU     LIG 2082  24.118  28.785   8.670
    4AU     LIG 2083  23.744  28.508   8.800
    4AU       S 2084  24.998  30.940   7.460
    4AU     LIG 2085  24.491  30.867   7.286
    4AU     LIG 2086  24.062  30.648   7.305
    4AU     LIG 2087  23.606  30.469   7.277
    4AU     LIG 2088  23.249  30.567   7.601
    4AU     LIG 2089  22.827  30.658   7.755
    4AU     LIG 2090  22.513  30.340   7.914
    4AU    AUSL 2091  26.176  31.841   8.012
    4AU    AUSL 2092  25.855  31.639   7.719
    4AU     AUL 2093  25.884  31.951   8.086
    4AU       S 2094  25.485  31.789   8.250
    4AU     LIG 2095  25.234  32.103   8.485
    4AU     LIG 2096  25.074  32.423   8.800
    4AU     LIG 2097  25.026  32.847   9.030
    4AU     LIG 2098  24.936  33.327   9.045
    4AU     LIG 2099  24.746  33.762   9.128
    4AU     LIG 2100  24.361  34.008   9.192
    4AU       S 2101  26.250  32.238   7.960
    4AU     LIG 2102  26.464  32.336   8.323
    4AU     LIG 2103  26.548  32.767   8.513
    4AU     LIG 2104  26.457  33.158   8.783
    4AU     LIG 2105  26.417  33.423   9.193
    4AU     LIG 2106  26.541  33.789   9.479
    4AU     LIG 2107  26.613  34.138   9.792
    4AU    AUSL 2108  25.941  32.020   7.644
    4AU    AUSL 2109  26.378  31.989   7.257
    4AU     AUL 2110  26.054  32.246   7.404
    4AU       S 2111  26.104  32.317   7.856
    4AU     LIG 2112  26.275  32.745   8.058
    4AU     LIG 2113  26.351  33.189   8.257
    4AU     LIG 2114  26.200  33.655   8.332
    4AU     LIG 2115  25.926  34.086   8.313
    4AU     LIG 2116  25.853  34.563   8.404
    4AU     LIG 2117  25.828  34.978   8.676
    4AU       S 2118  26.434  32.322   7.122
    4AU     LIG 2119  26.781  32.622   7.002
    4AU     LIG 2120  26.865  33.087   6.855
    4AU     LIG 2121  27.044  33.525   6.724
    4AU     LIG 2122  27.213  33.976   6.702
    4AU     LIG 2123  27.311  34.466   6.649
    4AU     LIG 2124  27.270  34.876   6.371
    4AU    AUSL 2125  26.331  31.853   7.635
    4AU    AUSL 2126  26.341  31.489   7.904
    4AU     AUL 2127  26.497  31.864   8.048
    4AU       S 2128  26.870  31.656   8.238
    4AU     LIG 2129  27.018  31.882   8.614
    4AU     LIG 2130  27.221  31.990   9.027
    4AU     LIG 2131  27.477  32.026   9.436
    4AU     LIG 2132  27.738  32.222   9.788
    4AU     LIG 2133  27.959  32.522  10.078
    4AU     LIG 2134  27.982  32.963  10.235
    4AU       S 2135  26.421  32.167   7.700
    4AU     LIG 2136  26.697  32.496   7.886
    4AU     LIG 2137  26.784  32.941   8.064
    4AU     LIG 2138  26.846  33.397   8.223
    4AU     LIG 2139  27.021  33.865   8.203
    4AU     LIG 2140  27.260  34.238   8.391
    4AU     LIG 2141  27.184  34.699   8.538
    4AU    AUSL 2142  26.083  30.607   7.938
    4AU    AUSL 2143  26.443  30.723   7.741
    4AU     AUL 2144  26.266  30.492   8.208
    4AU       S 2145  26.110  30.068   8.040
    4AU     LIG 2146  26.202  29.761   8.308
    4AU     LIG 2147  25.911  29.413   8.275
    4AU     LIG 2148  25.798  28.967   8.291
    4AU     LIG 2149  25.782  28.579   8.554
    4AU     LIG 2150  25.806  28.310   8.951
    4AU     LIG 2151  25.844  27.991   9.304
    4AU       S 2152  26.722  30.347   7.963
    4AU     LIG 2153  26.878  29.918   8.128
    4AU     LIG 2154  27.031  29.500   8.348
    4AU     LIG 2155  27.205  29.121   8.593
    4AU     LIG 2156  27.505  28.851   8.856
    4AU     LIG 2157  27.637  28.381   8.861
    4AU     LIG 2158  28.025  28.086   8.862
    4AU    AUSL 2159  25.907  30.363   7.669
    4AU    AUSL 2160  25.790  30.731   8.193
    4AU     AUL 2161  25.830  30.422   8.061
    4AU       S 2162  25.847  30.039   7.817
    4AU     LIG 2163  25.595  29.680   7.753
    4AU     LIG 2164  25.544  29.244   7.913
    4AU     LIG 2165  25.353  28.824   8.049
    4AU     LIG 2166  25.048  28.452   8.112
    4AU     LIG 2167  24.779  28.052   8.112
    4AU     LIG 2168  24.741  27.727   8.438
    4AU       S 2169  25.470  30.588   8.278
    4AU     LIG 2170  25.164  30.175   8.308
    4AU     LIG 2171  24.850  29.894   8.483
    4AU     LIG 2172  24.616  29.600   8.759
    4AU     LIG 2173  24.363  29.341   9.060
    4AU     LIG 2174  24.152  29.219   9.476
    4AU     LIG 2175  24.147  28.951   9.870
    4AU    AUSL 2176  26.340  30.335   7.720
    4AU    AUSL 2177  25.855  30.357   7.262
    4AU     AUL 2178  26.157  30.083   7.483
    4AU       S 2179  25.752  30.055   7.149
    4AU     LIG 2180  25.426  29.753   7.222
    4AU     LIG 2181  25.414  29.287   7.220
    4AU     LIG 2182  25.340  28.847   7.006
    4AU     LIG 2183  25.048  28.443   6.908
    4AU     LIG 2184  24.932  28.004   6.709
    4AU     LIG 2185  25.012  27.539   6.682
    4AU       S 2186  26.237  30.129   7.921
    4AU     LIG 2187  26.141  29.630   7.810
    4AU     LIG 2188  26.060  29.157   7.856
    4AU     LIG 2189  26.209  28.734   8.048
    4AU     LIG 2190  26.460  28.321   8.110
    4AU     LIG 2191  26.494  27.830   8.101
    4AU     LIG 2192  26.480  27.333   8.068
    4AU    AUSL 2193  26.147  31.798   6.942
    4AU    AUSL 2194  26.432  31.588   7.251
    4AU     AUL 2195  26.525  31.890   7.000
    4AU       S 2196  26.203  32.116   6.758
    4AU     LIG 2197  26.550  32.399   6.610
    4AU     LIG 2198  26.678  32.808   6.461
    4AU     LIG 2199  26.744  33.040   6.039
    4AU     LIG 2200  26.760  33.326   5.663
    4AU     LIG 2201  26.645  33.719   5.431
    4AU     LIG 2202  26.713  34.176   5.326
    4AU       S 2203  26.883  31.598   6.962
    4AU     LIG 2204  27.028  32.121   6.802
    4AU     LIG 2205  27.356  32.290   6.513
    4AU     LIG 2206  27.585  32.677   6.354
    4AU     LIG 2207  28.009  32.903   6.360
    4AU     LIG 2208  28.277  33.251   6.170
    4AU     LIG 2209  28.643  33.529   6.013
    4AU    AUSL 2210  26.031  31.776   7.335
    4AU    AUSL 2211  25.891  31.504   7.042
    4AU     AUL 2212  25.872  31.973   7.069
    4AU       S 2213  26.236  32.263   6.988
    4AU     LIG 2214  26.298  32.748   6.877
    4AU     LIG 2215  26.341  33.188   6.697
    4AU     LIG 2216  26.038  33.581   6.626
    4AU     LIG 2217  25.722  33.958   6.558
    4AU     LIG 2218  25.617  34.428   6.575
    4AU     LIG 2219  25.601  34.860   6.333
    4AU       S 2220  25.706  31.756   6.691
    4AU     LIG 2221  25.513  31.797   6.266
    4AU     LIG 2222  25.289  32.105   5.952
    4AU     LIG 2223  25.226  32.347   5.517
    4AU     LIG 2224  25.217  32.591   5.074
    4AU     LIG 2225  25.002  32.909   4.765
    4AU     LIG 2226  24.720  33.264   4.584
    4AU    AUSL 2227  26.189  30.447   6.998
    4AU    AUSL 2228  25.790  30.742   7.340
    4AU     AUL 2229  25.875  30.446   6.912
    4AU       S 2230  25.396  30.385   7.118
    4AU     LIG 2231  25.083  30.126   7.274
    4AU     LIG 2232  24.851  29.768   7.062
    4AU     LIG 2233  24.528  29.540   6.766
    4AU     LIG 2234  24.263  29.262   6.465
    4AU     LIG 2235  24.003  28.877   6.308
    4AU     LIG 2236  23.665  28.545   6.202
    4AU       S 2237  26.004  30.026   7.033
    4AU     LIG 2238  25.768  29.652   6.849
    4AU     LIG 2239  25.594  29.236   6.739
    4AU     LIG 2240  25.633  28.814   6.558
    4AU     LIG 2241  25.765  28.569   6.180
    4AU     LIG 2242  25.841  28.482   5.719
    4AU     LIG 2243  26.017  28.180   5.412
    4AU    AUSL 2244  26.193  30.538   7.406
    4AU    AUSL 2245  26.333  30.803   7.111
    4AU     AUL 2246  26.366  30.311   7.162
    4AU       S 2247  25.771  30.159   7.276
    4AU     LIG 2248  25.910  29.645   7.354
    4AU     LIG 2249  25.924  29.220   7.142
    4AU     LIG 2250  25.982  28.782   6.946
    4AU     LIG 2251  26.214  28.356   6.843
    4AU     LIG 2252  26.389  27.913   6.725
    4AU     LIG 2253  26.394  27.419   6.770
    4AU       S 2254  26.597  30.405   6.782
    4AU     LIG 2255  26.474  30.124   6.502
    4AU     LIG 2256  26.685  29.751   6.315
    4AU     LIG 2257  26.896  29.394   6.076
    4AU     LIG 2258  27.099  29.108   5.752
    4AU     LIG 2259  27.152  28.871   5.340
    4AU     LIG 2260  27.324  28.678   4.938
    5AU     AUC 2261  26.750   2.118   7.500
    5AU     AUC 2262  27.013   2.118   7.340
    5AU     AUC 2263  27.005   2.108   7.650
    5AU     AUC 2264  26.501   2.123   7.336
    5AU     AUC 2265  26.490   2.138   7.650
    5AU     AUC 2266  26.602   2.377   7.497
    5AU     AUC 2267  26.913   2.371   7.486
    5AU     AUC 2268  26.595   1.863   7.510
    5AU     AUC 2269  26.889   1.862   7.520
    5AU     AUC 2270  26.742   1.969   7.761
    5AU     AUC 2271  26.766   2.280   7.755
    5AU     AUC 2272  26.751   1.955   7.243
    5AU     AUC 2273  26.743   2.258   7.238
    5AU     AUC 2274  27.262   2.110   7.178
    5AU     AUC 2275  27.269   2.117   7.488
    5AU     AUC 2276  27.264   2.107   7.796
    5AU     AUC 2277  26.241   2.113   7.182
    5AU     AUC 2278  26.233   2.137   7.490
    5AU     AUC 2279  26.242   2.156   7.810
    5AU     AUC 2280  26.461   2.643   7.501
    5AU     AUC 2281  26.770   2.640   7.494
    5AU     AUC 2282  27.062   2.632   7.489
    5AU     AUC 2283  26.414   1.610   7.515
    5AU     AUC 2284  26.730   1.596   7.506
    5AU     AUC 2285  27.045   1.597   7.525
    5AU     AUC 2286  26.725   1.817   8.013
    5AU     AUC 2287  26.751   2.127   8.026
    5AU     AUC 2288  26.774   2.434   8.016
    5AU     AUC 2289  26.751   1.782   7.006
    5AU     AUC 2290  26.763   2.098   6.977
    5AU     AUC 2291  26.742   2.406   6.975
    5AU     AUC 2292  27.015   1.968   7.924
    5AU     AUC 2293  27.022   2.261   7.917
    5AU     AUC 2294  27.023   1.946   7.084
    5AU     AUC 2295  27.024   2.253   7.071
    5AU     AUC 2296  26.478   1.988   7.924
    5AU     AUC 2297  26.502   2.299   7.926
    5AU     AUC 2298  26.504   1.956   7.068
    5AU     AUC 2299  26.492   2.263   7.076
    5AU     AUC 2300  27.167   2.380   7.319
    5AU     AUC 2301  27.182   2.360   7.637
    5AU     AUC 2302  26.333   2.378   7.347
    5AU     AUC 2303  26.346   2.401   7.667
    5AU     AUC 2304  27.162   1.849   7.351
    5AU     AUC 2305  27.164   1.854   7.668
    5AU     AUC 2306  26.326   1.869   7.337
    5AU     AUC 2307  26.330   1.878   7.678
    5AU     AUC 2308  26.608   2.540   7.768
    5AU     AUC 2309  26.927   2.542   7.739
    5AU     AUC 2310  26.571   1.698   7.754
    5AU     AUC 2311  26.889   1.707   7.786
    5AU     AUC 2312  26.592   2.530   7.235
    5AU     AUC 2313  26.909   2.518   7.220
    5AU     AUC 2314  26.575   1.705   7.241
    5AU     AUC 2315  26.904   1.690   7.266
    5AU    AUSL 2316  27.101   2.061   8.091
    5AU    AUSL 2317  27.049   1.643   8.136
    5AU     AUL 2318  27.285   1.718   8.400
    5AU       S 2319  27.316   1.349   8.081
    5AU     LIG 2320  27.171   1.035   8.366
    5AU     LIG 2321  27.274   0.593   8.511
    5AU     LIG 2322  27.522   0.380   8.865
    5AU     LIG 2323  27.775   0.364   9.288
    5AU     LIG 2324  28.065   0.264   9.671
    5AU     LIG 2325  28.071  44.964  10.049
    5AU       S 2326  27.148   2.086   8.653
    5AU     LIG 2327  27.399   1.913   8.961
    5AU     LIG 2328  27.593   1.717   9.336
    5AU     LIG 2329  27.844   1.564   9.691
    5AU     LIG 2330  28.247   1.620   9.937
    5AU     LIG 2331  28.614   1.657  10.230
    5AU     LIG 2332  28.844   1.591  10.632
    5AU    AUSL 2333  26.820   1.914   8.352
    5AU    AUSL 2334  26.683   2.302   8.280
    5AU     AUL 2335  26.738   2.276   8.702
    5AU       S 2336  26.891   1.912   8.500
    5AU     LIG 2337  26.987   1.606   8.813
    5AU     LIG 2338  27.174   1.436   9.237
    5AU     LIG 2339  27.339   1.289   9.691
    5AU     LIG 2340  27.383   1.113  10.167
    5AU     LIG 2341  27.549   1.141  10.642
    5AU     LIG 2342  27.649   1.082  11.121
    5AU       S 2343  26.398   1.997   8.617
    5AU     LIG 2344  26.272   1.924   9.079
    5AU     LIG 2345  26.111   1.839   9.513
    5AU     LIG 2346  25.934   1.867   9.952
    5AU     LIG 2347  25.956   2.133  10.354
    5AU     LIG 2348  25.816   2.483  10.653
    5AU     LIG 2349  25.655   2.696  11.047
    5AU    AUSL 2350  27.068   2.415   8.287
    5AU    AUSL 2351  27.405   2.311   7.969
    5AU     AUL 2352  27.397   2.143   8.282
    5AU       S 2353  27.097   2.446   8.467
    5AU     LIG 2354  27.333   2.520   8.855
    5AU     LIG 2355  27.359   2.712   9.309
    5AU     LIG 2356  27.371   2.879   9.772
    5AU     LIG 2357  27.318   2.930  10.245
    5AU     LIG 2358  27.509   2.979  10.683
    5AU     LIG 2359  27.685   2.866  11.109
    5AU       S 2360  27.690   2.371   8.011
    5AU     LIG 2361  27.917   2.366   8.404
    5AU     LIG 2362  28.188   2.596   8.721
    5AU     LIG 2363  28.484   2.852   9.007
    5AU     LIG 2364  28.766   3.018   9.379
    5AU     LIG 2365  29.138   3.113   9.704
    5AU     LIG 2366  29.418   3.438   9.952
    5AU    AUSL 2367  27.294   2.145   6.868
    5AU    AUSL 2368  27.054   2.536   6.823
    5AU     AUL 2369  27.419   2.498   6.455
    5AU       S 2370  27.327   2.171   6.713
    5AU     LIG 2371  27.626   2.076   6.336
    5AU     LIG 2372  27.665   1.911   5.923
    5AU     LIG 2373  27.803   1.771   5.498
    5AU     LIG 2374  28.127   1.719   5.146
    5AU     LIG 2375  28.482   1.655   4.822
    5AU     LIG 2376  28.787   1.625   4.451
    5AU       S 2377  27.056   2.591   6.668
    5AU     LIG 2378  27.345   2.965   6.597
    5AU     LIG 2379  27.686   2.956   6.285
    5AU     LIG 2380  27.982   3.117   5.941
    5AU     LIG 2381  28.215   3.244   5.521
    5AU     LIG 2382  28.304   3.502   5.112
    5AU     LIG 2383  28.470   3.922   4.949
    5AU    AUSL 2384  27.035   1.828   6.716
    5AU    AUSL 2385  27.363   1.770   7.009
    5AU     AUL 2386  27.459   1.763   6.674
    5AU       S 2387  27.434   1.339   6.861
    5AU     LIG 2388  27.589   1.037   6.551
    5AU     LIG 2389  27.821   0.632   6.425
    5AU     LIG 2390  28.067   0.369   6.104
    5AU     LIG 2391  28.306   0.253   5.699
    5AU     LIG 2392  28.725   0.238   5.443
    5AU     LIG 2393  29.171   0.244   5.239
    5AU       S 2394  27.130   2.040   6.447
    5AU     LIG 2395  27.237   1.700   6.209
    5AU     LIG 2396  27.320   1.567   5.760
    5AU     LIG 2397  27.369   1.575   5.288
    5AU     LIG 2398  27.428   1.473   4.827
    5AU     LIG 2399  27.458   1.269   4.389
    5AU     LIG 2400  27.597   1.255   3.937
    5AU    AUSL 2401  26.885   2.176   6.888
    5AU    AUSL 2402  26.637   1.930   6.669
    5AU     AUL 2403  26.831   1.704   6.571
    5AU       S 2404  26.591   2.030   6.341
    5AU     LIG 2405  26.530   1.652   6.135
    5AU     LIG 2406  26.283   1.487   5.757
    5AU     LIG 2407  26.099   1.478   5.317
    5AU     LIG 2408  25.847   1.295   4.957
    5AU     LIG 2409  25.742   1.129   4.522
    5AU     LIG 2410  25.758   1.205   4.055
    5AU       S 2411  27.036   2.151   6.495
    5AU     LIG 2412  27.194   2.175   5.990
    5AU     LIG 2413  27.338   2.040   5.545
    5AU     LIG 2414  27.551   2.037   5.121
    5AU     LIG 2415  27.494   2.283   4.721
    5AU     LIG 2416  27.557   2.613   4.390
    5AU     LIG 2417  27.571   2.634   3.916
    5AU    AUSL 2418  26.299   2.192   8.207
    5AU    AUSL 2419  26.447   2.596   8.133
    5AU     AUL 2420  26.492   2.527   8.428
    5AU       S 2421  26.244   2.184   8.636
    5AU     LIG 2422  25.910   1.863   8.695
    5AU     LIG 2423  25.789   1.684   9.119
    5AU     LIG 2424  25.634   1.645   9.581
    5AU     LIG 2425  25.349   1.717   9.974
    5AU     LIG 2426  24.950   1.683  10.272
    5AU     LIG 2427  24.661   1.844  10.636
    5AU       S 2428  26.035   2.561   8.357
    5AU     LIG 2429  26.088   2.667   8.780
    5AU     LIG 2430  26.053   3.051   9.041
    5AU     LIG 2431  25.819   3.358   9.306
    5AU     LIG 2432  25.669   3.516   9.718
    5AU     LIG 2433  25.600   3.830  10.060
    5AU     LIG 2434  25.341   4.041  10.392
    5AU    AUSL 2435  26.597   1.983   8.024
    5AU    AUSL 2436  26.102   1.906   7.995
    5AU     AUL 2437  26.102   2.018   8.233
    5AU       S 2438  25.941   1.571   8.202
    5AU     LIG 2439  25.528   1.516   8.072
    5AU     LIG 2440  25.226   1.205   8.234
    5AU     LIG 2441  24.995   0.939   8.555
    5AU     LIG 2442  24.737   0.615   8.776
    5AU     LIG 2443  24.492   0.363   9.088
    5AU     LIG 2444  24.107   0.342   9.365
    5AU       S 2445  26.411   1.889   8.574
    5AU     LIG 2446  26.276   1.508   8.784
    5AU     LIG 2447  26.197   1.398   9.248
    5AU     LIG 2448  26.064   1.354   9.717
    5AU     LIG 2449  26.085   1.166  10.166
    5AU     LIG 2450  26.037   1.096  10.646
    5AU     LIG 2451  25.922   0.891  11.071
    5AU    AUSL 2452  26.354   2.087   6.912
    5AU    AUSL 2453  26.490   1.656   6.928
    5AU     AUL 2454  26.310   1.779   6.632
    5AU       S 2455  26.371   2.117   6.304
    5AU     LIG 2456  26.066   1.861   6.054
    5AU     LIG 2457  25.826   1.763   5.644
    5AU     LIG 2458  25.596   1.673   5.228
    5AU     LIG 2459  25.200   1.646   4.935
    5AU     LIG 2460  24.830   1.740   4.616
    5AU     LIG 2461  24.648   2.006   4.250
    5AU       S 2462  26.051   1.389   6.784
    5AU     LIG 2463  25.780   1.006   6.773
    5AU     LIG 2464  25.453   0.732   6.579
    5AU     LIG 2465  25.239   0.484   6.230
    5AU     LIG 2466  25.125   0.407   5.761
    5AU     LIG 2467  25.200   0.163   5.364
    5AU     LIG 2468  25.253   0.060   4.907
    5AU    AUSL 2469  26.593   2.363   6.677
    5AU    AUSL 2470  26.096   2.396   6.979
    5AU     AUL 2471  26.179   2.247   6.691
    5AU       S 2472  25.992   2.663   6.773
    5AU     LIG 2473  25.780   2.705   6.375
    5AU     LIG 2474  25.596   2.855   5.965
    5AU     LIG 2475  25.297   2.973   5.621
    5AU     LIG 2476  24.998   3.125   5.303
    5AU     LIG 2477  24.614   3.349   5.141
    5AU     LIG 2478  24.299   3.634   4.923
    5AU       S 2479  26.589   2.286   6.441
    5AU     LIG 2480  26.617   2.158   5.882
    5AU     LIG 2481  26.299   1.966   5.562
    5AU     LIG 2482  26.024   1.976   5.157
    5AU     LIG 2483  25.923   2.176   4.713
    5AU     LIG 2484  25.929   2.328   4.241
    5AU     LIG 2485  25.792   2.548   3.829
    5AU    AUSL 2486  27.367   2.722   7.426
    5AU    AUSL 2487  27.392   2.480   7.079
    5AU     AUL 2488  27.523   2.938   7.228
    5AU       S 2489  27.538   2.576   6.894
    5AU     LIG 2490  27.896   2.492   6.601
    5AU     LIG 2491  28.097   2.650   6.180
    5AU     LIG 2492  28.416   2.859   5.869
    5AU     LIG 2493  28.780   3.061   5.635
    5AU     LIG 2494  29.172   3.147   5.356
    5AU     LIG 2495  29.576   3.342   5.170
    5AU       S 2496  27.830   2.598   7.334
    5AU     LIG 2497  28.310   2.649   7.446
    5AU     LIG 2498  28.808   2.708   7.496
    5AU     LIG 2499  29.299   2.780   7.493
    5AU     LIG 2500  29.707   3.027   7.450
    5AU     LIG 2501  29.967   3.447   7.500
    5AU     LIG 2502  30.303   3.757   7.648
    5AU    AUSL 2503  27.586   2.164   7.240
    5AU    AUSL 2504  27.581   2.000   7.653
    5AU     AUL 2505  27.867   1.928   7.419
    5AU       S 2506  27.786   2.372   7.305
    5AU     LIG 2507  28.171   2.249   7.140
    5AU     LIG 2508  28.632   2.288   7.227
    5AU     LIG 2509  29.107   2.360   7.253
    5AU     LIG 2510  29.527   2.546   7.088
    5AU     LIG 2511  29.943   2.783   7.052
    5AU     LIG 2512  30.411   2.786   6.968
    5AU       S 2513  27.878   1.519   7.671
    5AU     LIG 2514  28.269   1.290   7.694
    5AU     LIG 2515  28.684   1.062   7.710
    5AU     LIG 2516  29.117   0.857   7.729
    5AU     LIG 2517  29.545   0.809   7.930
    5AU     LIG 2518  29.973   0.830   8.136
    5AU     LIG 2519  30.413   1.041   8.132
    5AU    AUSL 2520  27.376   2.337   7.564
    5AU    AUSL 2521  27.280   2.681   7.825
    5AU     AUL 2522  27.534   2.674   7.688
    5AU       S 2523  27.524   2.566   8.120
    5AU     LIG 2524  27.924   2.818   8.117
    5AU     LIG 2525  28.158   3.042   8.463
    5AU     LIG 2526  28.351   3.318   8.800
    5AU     LIG 2527  28.583   3.721   8.903
    5AU     LIG 2528  28.763   4.134   9.059
    5AU     LIG 2529  28.716   4.602   9.015
    5AU       S 2530  27.861   2.388   7.557
    5AU     LIG 2531  28.255   2.188   7.664
    5AU     LIG 2532  28.735   2.254   7.729
    5AU     LIG 2533  29.212   2.354   7.769
    5AU     LIG 2534  29.625   2.408   8.030
    5AU     LIG 2535  30.079   2.550   8.029
    5AU     LIG 2536  30.528   2.681   7.953
    5AU    AUSL 2537  26.101   2.680   7.583
    5AU    AUSL 2538  26.144   2.424   7.915
    5AU     AUL 2539  26.114   2.882   7.833
    5AU       S 2540  25.941   2.504   8.104
    5AU     LIG 2541  25.588   2.729   8.419
    5AU     LIG 2542  25.589   2.923   8.859
    5AU     LIG 2543  25.429   3.008   9.309
    5AU     LIG 2544  25.076   3.079   9.638
    5AU     LIG 2545  24.635   3.227   9.789
    5AU     LIG 2546  24.208   3.363   9.964
    5AU       S 2547  25.731   2.686   7.682
    5AU     LIG 2548  25.722   3.120   7.486
    5AU     LIG 2549  25.484   3.593   7.480
    5AU     LIG 2550  25.115   3.964   7.475
    5AU     LIG 2551  24.644   4.157   7.425
    5AU     LIG 2552  24.180   4.319   7.494
    5AU     LIG 2553  23.731   4.435   7.582
    5AU    AUSL 2554  26.166   2.342   7.369
    5AU    AUSL 2555  26.258   2.748   7.209
    5AU     AUL 2556  25.972   2.675   7.248
    5AU       S 2557  25.611   2.609   7.546
    5AU     LIG 2558  25.472   2.685   7.106
    5AU     LIG 2559  25.037   2.749   6.868
    5AU     LIG 2560  24.560   2.829   6.739
    5AU     LIG 2561  24.091   2.942   6.631
    5AU     LIG 2562  23.607   2.995   6.674
    5AU     LIG 2563  23.357   3.248   6.975
    5AU       S 2564  26.084   2.907   6.845
    5AU     LIG 2565  25.974   3.178   6.483
    5AU     LIG 2566  25.940   3.580   6.222
    5AU     LIG 2567  25.798   4.043   6.164
    5AU     LIG 2568  25.442   4.295   5.973
    5AU     LIG 2569  25.029   4.492   5.977
    5AU     LIG 2570  24.764   4.850   5.885
    5AU    AUSL 2571  25.894   2.245   7.665
    5AU    AUSL 2572  25.929   2.018   7.304
    5AU     AUL 2573  25.763   2.277   7.275
    5AU       S 2574  25.588   1.819   7.424
    5AU     LIG 2575  25.231   1.768   7.734
    5AU     LIG 2576  24.791   1.619   7.764
    5AU     LIG 2577  24.328   1.639   7.686
    5AU     LIG 2578  23.991   1.418   7.437
    5AU     LIG 2579  23.523   1.282   7.402
    5AU     LIG 2580  23.140   1.324   7.113
    5AU       S 2581  25.706   2.272   7.751
    5AU     LIG 2582  25.396   2.476   8.015
    5AU     LIG 2583  24.991   2.689   8.200
    5AU     LIG 2584  24.505   2.809   8.277
    5AU     LIG 2585  24.018   2.909   8.362
    5AU     LIG 2586  23.547   3.027   8.352
    5AU     LIG 2587  23.091   3.102   8.255
    5AU    AUSL 2588  27.433   1.611   7.570
    5AU    AUSL 2589  27.388   1.815   7.954
    5AU     AUL 2590  27.697   1.870   7.907
    5AU       S 2591  27.578   1.344   7.545
    5AU     LIG 2592  27.835   1.004   7.705
    5AU     LIG 2593  28.262   0.764   7.627
    5AU     LIG 2594  28.718   0.554   7.577
    5AU     LIG 2595  29.172   0.336   7.608
    5AU     LIG 2596  29.522   0.021   7.779
    5AU     LIG 2597  29.939  44.761   7.891
    5AU       S 2598  27.430   1.496   8.031
    5AU     LIG 2599  27.711   1.114   8.248
    5AU     LIG 2600  27.772   0.742   8.555
    5AU     LIG 2601  28.030   0.450   8.835
    5AU     LIG 2602  28.294   0.323   9.204
    5AU     LIG 2603  28.672   0.307   9.496
    5AU     LIG 2604  29.139   0.240   9.602
    5AU    AUSL 2605  27.284   1.935   7.368
    5AU    AUSL 2606  27.205   1.473   7.261
    5AU     AUL 2607  27.554   1.679   7.186
    5AU       S 2608  27.620   1.517   7.595
    5AU     LIG 2609  27.961   1.294   7.245
    5AU     LIG 2610  28.417   1.084   7.242
    5AU     LIG 2611  28.883   0.923   7.253
    5AU     LIG 2612  29.320   0.713   7.269
    5AU     LIG 2613  29.724   0.585   7.058
    5AU     LIG 2614  30.084   0.736   6.794
    5AU       S 2615  27.447   1.232   7.062
    5AU     LIG 2616  27.479   0.759   6.966
    5AU     LIG 2617  27.583   0.320   6.771
    5AU     LIG 2618  27.802   0.066   6.434
    5AU     LIG 2619  27.984  44.832   6.055
    5AU     LIG 2620  28.212  44.396   5.982
    5AU     LIG 2621  28.654  44.205   5.849
    5AU    AUSL 2622  26.037   1.634   7.460
    5AU    AUSL 2623  26.124   1.783   7.049
    5AU     AUL 2624  25.837   1.861   7.023
    5AU       S 2625  26.042   1.452   7.013
    5AU     LIG 2626  25.544   1.432   6.962
    5AU     LIG 2627  25.236   1.198   6.661
    5AU     LIG 2628  24.981   0.904   6.382
    5AU     LIG 2629  24.779   0.637   6.059
    5AU     LIG 2630  24.593   0.511   5.656
    5AU     LIG 2631  24.260   0.711   5.386
    5AU       S 2632  25.744   1.607   7.405
    5AU     LIG 2633  25.365   1.354   7.460
    5AU     LIG 2634  24.912   1.304   7.373
    5AU     LIG 2635  24.489   1.179   7.569
    5AU     LIG 2636  24.058   0.961   7.672
    5AU     LIG 2637  23.634   0.732   7.570
    5AU     LIG 2638  23.332   0.363   7.449
    5AU    AUSL 2639  26.199   1.986   7.618
    5AU    AUSL 2640  26.283   1.593   7.792
    5AU     AUL 2641  25.909   1.785   7.795
    5AU       S 2642  26.011   1.375   7.967
    5AU     LIG 2643  25.691   1.121   7.796
    5AU     LIG 2644  25.368   0.806   7.947
    5AU     LIG 2645  25.072   0.537   8.235
    5AU     LIG 2646  24.850   0.184   8.507
    5AU     LIG 2647  24.624  44.791   8.730
    5AU     LIG 2648  24.305  44.405   8.820
    5AU       S 2649  25.629   1.877   7.455
    5AU     LIG 2650  25.152   1.753   7.221
    5AU     LIG 2651  24.666   1.760   7.275
    5AU     LIG 2652  24.190   1.892   7.272
    5AU     LIG 2653  23.796   1.896   7.544
    5AU     LIG 2654  23.412   1.681   7.736
    5AU     LIG 2655  23.124   1.307   7.828
    5AU    AUSL 2656  26.790   2.786   8.021
    5AU    AUSL 2657  26.469   2.587   7.728
    5AU     AUL 2658  26.498   2.892   8.102
    5AU       S 2659  26.099   2.724   8.260
    5AU     LIG 2660  25.957   3.087   8.511
    5AU     LIG 2661  25.779   3.432   8.792
    5AU     LIG 2662  25.713   3.903   8.923
    5AU     LIG 2663  25.435   4.261   9.081
    5AU     LIG 2664  25.057   4.327   9.356
    5AU     LIG 2665  24.619   4.455   9.508
    5AU       S 2666  26.859   3.184   7.969
    5AU     LIG 2667  27.007   3.256   8.353
    5AU     LIG 2668  27.119   3.680   8.524
    5AU     LIG 2669  27.119   4.099   8.744
    5AU     LIG 2670  27.079   4.411   9.105
    5AU     LIG 2671  27.011   4.754   9.433
    5AU     LIG 2672  26.847   5.135   9.668
    5AU    AUSL 2673  26.550   2.971   7.660
    5AU    AUSL 2674  26.984   2.951   7.266
    5AU     AUL 2675  26.680   3.205   7.420
    5AU       S 2676  26.702   3.263   7.876
    5AU     LIG 2677  26.818   3.684   8.097
    5AU     LIG 2678  26.845   4.121   8.297
    5AU     LIG 2679  26.640   4.569   8.384
    5AU     LIG 2680  26.431   5.024   8.324
    5AU     LIG 2681  26.566   5.489   8.400
    5AU     LIG 2682  26.430   5.810   8.728
    5AU       S 2683  27.014   3.293   7.089
    5AU     LIG 2684  27.345   3.512   6.855
    5AU     LIG 2685  27.450   3.979   6.756
    5AU     LIG 2686  27.700   4.405   6.706
    5AU     LIG 2687  27.844   4.866   6.609
    5AU     LIG 2688  27.908   5.343   6.628
    5AU     LIG 2689  27.616   5.724   6.522
    5AU    AUSL 2690  26.944   2.809   7.644
    5AU    AUSL 2691  26.963   2.440   7.905
    5AU     AUL 2692  27.110   2.812   8.058
    5AU       S 2693  27.493   2.601   8.235
    5AU     LIG 2694  27.704   2.797   8.600
    5AU     LIG 2695  27.963   3.000   8.955
    5AU     LIG 2696  28.236   3.181   9.312
    5AU     LIG 2697  28.349   3.234   9.775
    5AU     LIG 2698  28.334   3.548  10.139
    5AU     LIG 2699  28.344   4.010  10.253
    5AU       S 2700  27.038   3.125   7.719
    5AU     LIG 2701  27.271   3.482   7.967
    5AU     LIG 2702  27.359   3.945   8.138
    5AU     LIG 2703  27.684   4.348   8.150
    5AU     LIG 2704  27.843   4.815   8.236
    5AU     LIG 2705  27.809   5.309   8.249
    5AU     LIG 2706  27.755   5.797   8.212
    5AU    AUSL 2707  26.714   1.551   7.924
    5AU    AUSL 2708  27.069   1.679   7.730
    5AU     AUL 2709  26.890   1.440   8.198
    5AU       S 2710  26.775   1.012   8.029
    5AU     LIG 2711  26.814   0.637   8.245
    5AU     LIG 2712  26.535   0.287   8.356
    5AU     LIG 2713  26.373  44.860   8.409
    5AU     LIG 2714  26.509  44.424   8.503
    5AU     LIG 2715  26.558  44.092   8.844
    5AU     LIG 2716  26.613  43.696   9.106
    5AU       S 2717  27.349   1.314   7.951
    5AU     LIG 2718  27.378   0.848   7.944
    5AU     LIG 2719  27.609   0.471   8.140
    5AU     LIG 2720  27.794   0.168   8.464
    5AU     LIG 2721  28.023  44.783   8.618
    5AU     LIG 2722  28.279  44.433   8.798
    5AU     LIG 2723  28.670  44.174   8.726
    5AU    AUSL 2724  26.540   1.309   7.651
    5AU    AUSL 2725  26.423   1.665   8.184
    5AU     AUL 2726  26.460   1.346   8.025
    5AU       S 2727  26.551   0.939   7.840
    5AU     LIG 2728  26.429   0.519   7.897
    5AU     LIG 2729  26.316   0.066   7.931
    5AU     LIG 2730  26.091  44.653   8.010
    5AU     LIG 2731  25.760  44.297   7.966
    5AU     LIG 2732  25.632  43.896   8.173
    5AU     LIG 2733  25.385  43.517   8.309
    5AU       S 2734  26.127   1.522   8.280
    5AU     LIG 2735  25.782   1.125   8.334
    5AU     LIG 2736  25.482   0.792   8.458
    5AU     LIG 2737  25.236   0.489   8.724
    5AU     LIG 2738  24.986   0.207   9.007
    5AU     LIG 2739  24.942  44.953   9.396
    5AU     LIG 2740  24.992  44.745   9.820
    5AU    AUSL 2741  26.976   1.289   7.696
    5AU    AUSL 2742  26.481   1.314   7.245
    5AU     AUL 2743  26.785   1.044   7.461
    5AU       S 2744  26.385   1.000   7.111
    5AU     LIG 2745  26.082   0.662   7.117
    5AU     LIG 2746  26.074   0.171   7.153
    5AU     LIG 2747  26.082  44.698   6.964
    5AU     LIG 2748  25.914  44.207   6.869
    5AU     LIG 2749  25.896  43.718   6.723
    5AU     LIG 2750  25.876  43.229   6.786
    5AU       S 2751  26.902   1.090   7.892
    5AU     LIG 2752  26.937   0.623   7.748
    5AU     LIG 2753  26.835   0.193   7.937
    5AU     LIG 2754  26.752  44.744   8.078
    5AU     LIG 2755  26.933  44.304   8.178
    5AU     LIG 2756  26.930  43.873   8.356
    5AU     LIG 2757  27.196  43.521   8.461
    5AU    AUSL 2758  26.744   2.765   6.953
    5AU    AUSL 2759  27.042   2.550   7.256
    5AU     AUL 2760  27.123   2.858   7.015
    5AU       S 2761  26.785   3.048   6.760
    5AU     LIG 2762  27.011   3.348   6.502
    5AU     LIG 2763  27.122   3.796   6.389
    5AU     LIG 2764  27.153   4.146   6.044
    5AU     LIG 2765  27.215   4.406   5.622
    5AU     LIG 2766  27.160   4.761   5.292
    5AU     LIG 2767  27.034   5.166   5.075
    5AU       S 2768  27.482   2.568   6.962
    5AU     LIG 2769  27.821   2.953   6.806
    5AU     LIG 2770  28.147   3.077   6.471
    5AU     LIG 2771  28.372   3.368   6.166
    5AU     LIG 2772  28.483   3.833   6.101
    5AU     LIG 2773  28.675   4.268   6.135
    5AU     LIG 2774  28.889   4.640   5.926
    5AU    AUSL 2775  26.640   2.733   7.347
    5AU    AUSL 2776  26.500   2.463   7.053
    5AU     AUL 2777  26.472   2.937   7.100
    5AU       S 2778  26.823   3.225   6.984
    5AU     LIG 2779  26.859   3.698   6.843
    5AU     LIG 2780  26.842   4.140   6.702
    5AU     LIG 2781  26.553   4.527   6.725
    5AU     LIG 2782  26.597   4.984   6.723
    5AU     LIG 2783  26.741   5.426   6.560
    5AU     LIG 2784  26.570   5.842   6.414
    5AU       S 2785  26.309   2.728   6.714
    5AU     LIG 2786  26.273   2.811   6.276
    5AU     LIG 2787  26.047   3.110   5.954
    5AU     LIG 2788  25.921   3.280   5.499
    5AU     LIG 2789  25.863   3.530   5.073
    5AU     LIG 2790  25.668   3.841   4.748
    5AU     LIG 2791  25.306   4.090   4.529
    5AU    AUSL 2792  26.811   1.414   6.980
    5AU    AUSL 2793  26.414   1.696   7.332
    5AU     AUL 2794  26.495   1.409   6.899
    5AU       S 2795  26.022   1.334   7.103
    5AU     LIG 2796  25.740   1.065   7.275
    5AU     LIG 2797  25.299   0.959   7.108
    5AU     LIG 2798  25.014   0.677   6.835
    5AU     LIG 2799  24.675   0.462   6.552
    5AU     LIG 2800  24.381   0.035   6.500
    5AU     LIG 2801  24.172  44.574   6.431
    5AU       S 2802  26.637   0.990   7.012
    5AU     LIG 2803  26.534   0.565   6.870
    5AU     LIG 2804  26.374   0.146   6.744
    5AU     LIG 2805  26.383  44.749   6.527
    5AU     LIG 2806  26.386  44.576   6.091
    5AU     LIG 2807  26.382  44.244   5.768
    5AU     LIG 2808  26.488  43.950   5.421
    5AU    AUSL 2809  26.820   1.497   7.389
    5AU    AUSL 2810  26.951   1.769   7.098
    5AU     AUL 2811  26.996   1.276   7.141
    5AU       S 2812  26.396   1.110   7.256
    5AU     LIG 2813  26.524   0.618   7.392
    5AU     LIG 2814  26.601   0.167   7.210
    5AU     LIG 2815  26.769  44.789   6.919
    5AU     LIG 2816  27.097  44.405   6.807
    5AU     LIG 2817  27.260  43.996   6.556
    5AU     LIG 2818  27.241  43.624   6.258
    5AU       S 2819  27.215   1.382   6.754
    5AU     LIG 2820  27.084   0.966   6.708
    5AU     LIG 2821  27.295   0.607   6.452
    5AU     LIG 2822  27.530   0.355   6.100
    5AU     LIG 2823  27.774   0.180   5.728
    5AU     LIG 2824  28.002  44.980   5.370
    5AU     LIG 2825  28.020  44.825   4.929
    6AU     AUC 2826  19.689  19.641   7.499
    6AU     AUC 2827  19.953  19.643   7.342
    6AU     AUC 2828  19.941  19.634   7.653
    6AU     AUC 2829  19.441  19.643   7.329
    6AU     AUC 2830  19.426  19.660   7.644
    6AU     AUC 2831  19.540  19.899   7.494
    6AU     AUC 2832  19.852  19.896   7.488
    6AU     AUC 2833  19.534  19.386   7.507
    6AU     AUC 2834  19.828  19.387   7.522
    6AU     AUC 2835  19.677  19.494   7.760
    6AU     AUC 2836  19.700  19.806   7.753
    6AU     AUC 2837  19.693  19.478   7.243
    6AU     AUC 2838  19.686  19.781   7.237
    6AU     AUC 2839  20.204  19.635   7.184
    6AU     AUC 2840  20.208  19.642   7.495
    6AU     AUC 2841  20.199  19.633   7.802
    6AU     AUC 2842  19.186  19.633   7.169
    6AU     AUC 2843  19.172  19.658   7.477
    6AU     AUC 2844  19.175  19.676   7.800
    6AU     AUC 2845  19.396  20.163   7.497
    6AU     AUC 2846  19.708  20.164   7.495
    6AU     AUC 2847  20.002  20.157   7.493
    6AU     AUC 2848  19.354  19.132   7.512
    6AU     AUC 2849  19.670  19.120   7.507
    6AU     AUC 2850  19.985  19.122   7.531
    6AU     AUC 2851  19.658  19.343   8.015
    6AU     AUC 2852  19.682  19.654   8.025
    6AU     AUC 2853  19.703  19.960   8.014
    6AU     AUC 2854  19.698  19.304   7.004
    6AU     AUC 2855  19.706  19.621   6.976
    6AU     AUC 2856  19.688  19.930   6.974
    6AU     AUC 2857  19.949  19.494   7.927
    6AU     AUC 2858  19.955  19.787   7.918
    6AU     AUC 2859  19.967  19.469   7.086
    6AU     AUC 2860  19.967  19.777   7.074
    6AU     AUC 2861  19.412  19.512   7.920
    6AU     AUC 2862  19.433  19.821   7.920
    6AU     AUC 2863  19.448  19.480   7.063
    6AU     AUC 2864  19.437  19.786   7.070
    6AU     AUC 2865  20.108  19.905   7.322
    6AU     AUC 2866  20.119  19.887   7.641
    6AU     AUC 2867  19.274  19.901   7.338
    6AU     AUC 2868  19.280  19.922   7.658
    6AU     AUC 2869  20.103  19.375   7.356
    6AU     AUC 2870  20.101  19.379   7.673
    6AU     AUC 2871  19.269  19.389   7.329
    6AU     AUC 2872  19.266  19.402   7.671
    6AU     AUC 2873  19.540  20.062   7.764
    6AU     AUC 2874  19.860  20.067   7.741
    6AU     AUC 2875  19.506  19.223   7.753
    6AU     AUC 2876  19.824  19.233   7.788
    6AU     AUC 2877  19.535  20.053   7.232
    6AU     AUC 2878  19.852  20.043   7.222
    6AU     AUC 2879  19.520  19.228   7.241
    6AU     AUC 2880  19.848  19.213   7.270
    6AU    AUSL 2881  20.035  19.586   8.086
    6AU    AUSL 2882  19.977  19.172   8.143
    6AU     AUL 2883  20.208  19.246   8.414
    6AU       S 2884  20.281  18.867   8.125
    6AU     LIG 2885  20.082  18.573   8.377
    6AU     LIG 2886  20.225  18.233   8.618
    6AU     LIG 2887  20.519  17.978   8.869
    6AU     LIG 2888  20.706  17.636   9.147
    6AU     LIG 2889  20.737  17.287   9.497
    6AU     LIG 2890  20.859  17.082   9.929
    6AU       S 2891  20.077  19.619   8.663
    6AU     LIG 2892  20.281  19.379   8.996
    6AU     LIG 2893  20.485  19.168   9.374
    6AU     LIG 2894  20.819  19.048   9.688
    6AU     LIG 2895  21.209  19.072   9.962
    6AU     LIG 2896  21.504  19.113  10.322
    6AU     LIG 2897  21.601  19.138  10.786
    6AU    AUSL 2898  19.752  19.454   8.353
    6AU    AUSL 2899  19.609  19.838   8.271
    6AU     AUL 2900  19.668  19.821   8.697
    6AU       S 2901  19.821  19.456   8.497
    6AU     LIG 2902  19.831  19.174   8.840
    6AU     LIG 2903  19.997  19.000   9.283
    6AU     LIG 2904  20.212  18.812   9.702
    6AU     LIG 2905  20.382  18.625  10.135
    6AU     LIG 2906  20.379  18.623  10.619
    6AU     LIG 2907  20.621  18.750  11.007
    6AU       S 2908  19.337  19.529   8.615
    6AU     LIG 2909  19.392  19.470   9.085
    6AU     LIG 2910  19.185  19.401   9.520
    6AU     LIG 2911  18.979  19.379   9.957
    6AU     LIG 2912  18.911  19.646  10.363
    6AU     LIG 2913  18.770  19.991  10.685
    6AU     LIG 2914  18.580  20.253  11.051
    6AU    AUSL 2915  19.997  19.934   8.291
    6AU    AUSL 2916  20.339  19.840   7.976
    6AU     AUL 2917  20.325  19.667   8.289
    6AU       S 2918  20.024  19.980   8.455
    6AU     LIG 2919  20.245  20.074   8.828
    6AU     LIG 2920  20.248  20.261   9.274
    6AU     LIG 2921  20.191  20.374   9.747
    6AU     LIG 2922  20.303  20.533  10.185
    6AU     LIG 2923  20.313  20.620  10.640
    6AU     LIG 2924  20.565  20.400  10.966
    6AU       S 2925  20.619  19.896   8.018
    6AU     LIG 2926  20.815  19.857   8.421
    6AU     LIG 2927  21.090  20.112   8.701
    6AU     LIG 2928  21.381  20.422   8.917
    6AU     LIG 2929  21.632  20.612   9.276
    6AU     LIG 2930  21.986  20.706   9.580
    6AU     LIG 2931  22.247  20.986   9.857
    6AU    AUSL 2932  20.238  19.669   6.868
    6AU    AUSL 2933  19.998  20.061   6.826
    6AU     AUL 2934  20.361  20.013   6.451
    6AU       S 2935  20.272  19.695   6.719
    6AU     LIG 2936  20.576  19.591   6.330
    6AU     LIG 2937  20.614  19.374   5.925
    6AU     LIG 2938  20.743  19.230   5.488
    6AU     LIG 2939  21.006  19.219   5.080
    6AU     LIG 2940  21.369  19.077   4.776
    6AU     LIG 2941  21.721  18.997   4.454
    6AU       S 2942  20.005  20.120   6.672
    6AU     LIG 2943  20.270  20.479   6.579
    6AU     LIG 2944  20.626  20.496   6.287
    6AU     LIG 2945  20.924  20.694   5.954
    6AU     LIG 2946  21.152  20.812   5.531
    6AU     LIG 2947  21.194  20.993   5.081
    6AU     LIG 2948  21.356  21.313   4.769
    6AU    AUSL 2949  19.976  19.351   6.719
    6AU    AUSL 2950  20.307  19.296   7.015
    6AU     AUL 2951  20.399  19.286   6.673
    6AU       S 2952  20.395  18.868   6.874
    6AU     LIG 2953  20.560  18.597   6.539
    6AU     LIG 2954  20.789  18.269   6.282
    6AU     LIG 2955  21.027  18.013   5.961
    6AU     LIG 2956  21.398  18.036   5.648
    6AU     LIG 2957  21.813  18.003   5.400
    6AU     LIG 2958  22.123  17.864   5.067
    6AU       S 2959  20.085  19.576   6.441
    6AU     LIG 2960  20.176  19.205   6.211
    6AU     LIG 2961  20.254  19.048   5.756
    6AU     LIG 2962  20.312  19.026   5.270
    6AU     LIG 2963  20.273  18.835   4.815
    6AU     LIG 2964  20.341  18.680   4.357
    6AU     LIG 2965  20.680  18.567   4.026
    6AU    AUSL 2966  19.829  19.701   6.891
    6AU    AUSL 2967  19.576  19.458   6.673
    6AU     AUL 2968  19.770  19.256   6.553
    6AU       S 2969  19.326  19.579   6.340
    6AU     LIG 2970  19.430  19.171   6.146
    6AU     LIG 2971  19.251  18.929   5.759
    6AU     LIG 2972  19.042  18.823   5.329
    6AU     LIG 2973  18.871  18.554   4.945
    6AU     LIG 2974  18.622  18.488   4.521
    6AU     LIG 2975  18.538  18.569   4.052
    6AU       S 2976  19.971  19.688   6.491
    6AU     LIG 2977  20.177  19.673   5.981
    6AU     LIG 2978  20.301  19.513   5.529
    6AU     LIG 2979  20.509  19.487   5.088
    6AU     LIG 2980  20.591  19.689   4.647
    6AU     LIG 2981  20.571  19.981   4.248
    6AU     LIG 2982  20.677  20.094   3.786
    6AU    AUSL 2983  19.230  19.710   8.204
    6AU    AUSL 2984  19.361  20.122   8.124
    6AU     AUL 2985  19.394  20.039   8.422
    6AU       S 2986  19.166  19.691   8.646
    6AU     LIG 2987  18.926  19.354   8.882
    6AU     LIG 2988  18.784  19.164   9.296
    6AU     LIG 2989  18.554  19.142   9.717
    6AU     LIG 2990  18.174  19.167  10.010
    6AU     LIG 2991  17.753  19.185  10.244
    6AU     LIG 2992  17.515  19.422  10.583
    6AU       S 2993  18.939  20.066   8.341
    6AU     LIG 2994  19.003  20.180   8.766
    6AU     LIG 2995  18.908  20.533   9.064
    6AU     LIG 2996  18.735  20.883   9.338
    6AU     LIG 2997  18.660  21.098   9.761
    6AU     LIG 2998  18.486  21.430  10.063
    6AU     LIG 2999  18.172  21.728  10.277
    6AU    AUSL 3000  19.534  19.510   8.020
    6AU    AUSL 3001  19.028  19.433   7.982
    6AU     AUL 3002  19.035  19.538   8.230
    6AU       S 3003  18.870  19.086   8.169
    6AU     LIG 3004  18.462  19.009   8.020
    6AU     LIG 3005  18.157  18.699   8.207
    6AU     LIG 3006  17.910  18.430   8.525
    6AU     LIG 3007  17.638  18.085   8.716
    6AU     LIG 3008  17.336  17.811   8.964
    6AU     LIG 3009  16.944  17.892   9.220
    6AU       S 3010  19.342  19.415   8.574
    6AU     LIG 3011  19.331  19.037   8.806
    6AU     LIG 3012  19.269  18.955   9.272
    6AU     LIG 3013  19.033  18.924   9.699
    6AU     LIG 3014  18.761  18.842  10.099
    6AU     LIG 3015  18.651  18.638  10.533
    6AU     LIG 3016  18.595  18.473  10.986
    6AU    AUSL 3017  19.275  19.612   6.894
    6AU    AUSL 3018  19.450  19.177   6.933
    6AU     AUL 3019  19.303  19.236   6.645
    6AU       S 3020  19.016  19.539   6.484
    6AU     LIG 3021  18.939  19.290   6.114
    6AU     LIG 3022  18.844  19.234   5.657
    6AU     LIG 3023  18.614  19.131   5.256
    6AU     LIG 3024  18.219  19.080   4.970
    6AU     LIG 3025  17.962  19.158   4.558
    6AU     LIG 3026  17.746  19.377   4.176
    6AU       S 3027  19.025  18.873   6.799
    6AU     LIG 3028  18.750  18.498   6.765
    6AU     LIG 3029  18.441  18.227   6.504
    6AU     LIG 3030  18.140  17.977   6.212
    6AU     LIG 3031  17.981  17.852   5.766
    6AU     LIG 3032  18.020  17.606   5.339
    6AU     LIG 3033  17.992  17.308   4.950
    6AU    AUSL 3034  19.545  19.891   6.672
    6AU    AUSL 3035  19.048  19.943   6.961
    6AU     AUL 3036  19.188  19.905   6.667
    6AU       S 3037  18.889  20.243   6.765
    6AU     LIG 3038  18.689  20.254   6.337
    6AU     LIG 3039  18.498  20.514   5.981
    6AU     LIG 3040  18.301  20.522   5.548
    6AU     LIG 3041  17.923  20.542   5.262
    6AU     LIG 3042  17.515  20.714   5.087
    6AU     LIG 3043  17.183  21.045   4.999
    6AU       S 3044  19.501  19.655   6.444
    6AU     LIG 3045  19.666  19.592   5.994
    6AU     LIG 3046  19.342  19.432   5.658
    6AU     LIG 3047  19.095  19.403   5.227
    6AU     LIG 3048  19.060  19.603   4.765
    6AU     LIG 3049  19.025  19.836   4.323
    6AU     LIG 3050  18.792  20.006   3.922
    6AU    AUSL 3051  20.308  20.246   7.429
    6AU    AUSL 3052  20.334  20.002   7.084
    6AU     AUL 3053  20.469  20.458   7.236
    6AU       S 3054  20.477  20.114   6.887
    6AU     LIG 3055  20.838  20.067   6.592
    6AU     LIG 3056  21.074  20.243   6.207
    6AU     LIG 3057  21.356  20.435   5.867
    6AU     LIG 3058  21.652  20.576   5.531
    6AU     LIG 3059  22.099  20.658   5.405
    6AU     LIG 3060  22.432  20.929   5.233
    6AU       S 3061  20.774  20.117   7.347
    6AU     LIG 3062  21.267  20.125   7.490
    6AU     LIG 3063  21.767  20.173   7.488
    6AU     LIG 3064  22.196  20.395   7.530
    6AU     LIG 3065  22.372  20.853   7.543
    6AU     LIG 3066  22.805  21.059   7.567
    6AU     LIG 3067  23.052  21.443   7.488
    6AU    AUSL 3068  20.528  19.688   7.250
    6AU    AUSL 3069  20.515  19.526   7.666
    6AU     AUL 3070  20.805  19.453   7.440
    6AU       S 3071  20.730  19.892   7.306
    6AU     LIG 3072  21.139  19.737   7.190
    6AU     LIG 3073  21.612  19.740   7.255
    6AU     LIG 3074  22.105  19.788   7.256
    6AU     LIG 3075  22.581  19.816   7.235
    6AU     LIG 3076  22.936  20.003   6.952
    6AU     LIG 3077  23.319  20.229   6.774
    6AU       S 3078  20.814  19.051   7.701
    6AU     LIG 3079  21.242  18.961   7.672
    6AU     LIG 3080  21.569  18.727   7.899
    6AU     LIG 3081  22.008  18.616   7.834
    6AU     LIG 3082  22.435  18.680   7.921
    6AU     LIG 3083  22.881  18.712   7.950
    6AU     LIG 3084  23.276  18.751   8.165
    6AU    AUSL 3085  20.314  19.862   7.570
    6AU    AUSL 3086  20.217  20.209   7.827
    6AU     AUL 3087  20.471  20.202   7.694
    6AU       S 3088  20.457  20.090   8.125
    6AU     LIG 3089  20.891  20.305   8.146
    6AU     LIG 3090  21.128  20.573   8.466
    6AU     LIG 3091  21.285  20.922   8.766
    6AU     LIG 3092  21.432  21.387   8.873
    6AU     LIG 3093  21.628  21.849   8.877
    6AU     LIG 3094  22.044  22.057   8.996
    6AU       S 3095  20.795  19.914   7.567
    6AU     LIG 3096  21.134  19.693   7.751
    6AU     LIG 3097  21.605  19.778   7.778
    6AU     LIG 3098  22.096  19.862   7.762
    6AU     LIG 3099  22.591  19.919   7.784
    6AU     LIG 3100  23.039  19.850   8.009
    6AU     LIG 3101  23.482  20.029   8.154
    6AU    AUSL 3102  19.030  20.187   7.568
    6AU    AUSL 3103  19.074  19.930   7.903
    6AU     AUL 3104  19.035  20.390   7.813
    6AU       S 3105  18.866  20.008   8.079
    6AU     LIG 3106  18.497  20.259   8.326
    6AU     LIG 3107  18.485  20.407   8.786
    6AU     LIG 3108  18.361  20.531   9.237
    6AU     LIG 3109  18.049  20.570   9.624
    6AU     LIG 3110  17.696  20.712   9.936
    6AU     LIG 3111  17.376  20.921  10.236
    6AU       S 3112  18.642  20.205   7.668
    6AU     LIG 3113  18.453  20.610   7.506
    6AU     LIG 3114  18.037  20.825   7.473
    6AU     LIG 3115  17.703  21.087   7.709
    6AU     LIG 3116  17.333  21.317   7.895
    6AU     LIG 3117  16.985  21.598   7.751
    6AU     LIG 3118  16.520  21.718   7.804
    6AU    AUSL 3119  19.112  19.857   7.345
    6AU    AUSL 3120  19.206  20.273   7.205
    6AU     AUL 3121  18.915  20.198   7.239
    6AU       S 3122  18.533  20.118   7.499
    6AU     LIG 3123  18.186  20.283   7.200
    6AU     LIG 3124  17.768  20.523   7.047
    6AU     LIG 3125  17.335  20.748   6.963
    6AU     LIG 3126  16.899  20.590   6.853
    6AU     LIG 3127  16.462  20.747   6.745
    6AU     LIG 3128  16.031  20.726   6.540
    6AU       S 3129  19.039  20.459   6.857
    6AU     LIG 3130  18.894  20.699   6.472
    6AU     LIG 3131  18.680  20.985   6.153
    6AU     LIG 3132  18.619  21.451   6.085
    6AU     LIG 3133  18.414  21.859   6.120
    6AU     LIG 3134  18.030  22.065   5.952
    6AU     LIG 3135  17.734  22.422   5.860
    6AU    AUSL 3136  18.829  19.773   7.634
    6AU    AUSL 3137  18.874  19.535   7.282
    6AU     AUL 3138  18.712  19.795   7.235
    6AU       S 3139  18.531  19.350   7.394
    6AU     LIG 3140  18.234  19.432   7.776
    6AU     LIG 3141  17.761  19.476   7.754
    6AU     LIG 3142  17.352  19.240   7.705
    6AU     LIG 3143  16.935  19.054   7.561
    6AU     LIG 3144  16.501  18.882   7.536
    6AU     LIG 3145  16.078  18.915   7.343
    6AU       S 3146  18.634  19.799   7.711
    6AU     LIG 3147  18.286  19.951   7.954
    6AU     LIG 3148  17.979  20.208   8.219
    6AU     LIG 3149  17.508  20.290   8.169
    6AU     LIG 3150  17.061  20.411   8.141
    6AU     LIG 3151  16.612  20.312   8.205
    6AU     LIG 3152  16.205  20.420   7.998
    6AU    AUSL 3153  20.372  19.136   7.580
    6AU    AUSL 3154  20.323  19.335   7.965
    6AU     AUL 3155  20.629  19.402   7.924
    6AU       S 3156  20.520  18.877   7.564
    6AU     LIG 3157  20.805  18.562   7.712
    6AU     LIG 3158  21.236  18.453   7.589
    6AU     LIG 3159  21.686  18.418   7.484
    6AU     LIG 3160  22.135  18.251   7.471
    6AU     LIG 3161  22.444  17.882   7.532
    6AU     LIG 3162  22.784  17.661   7.782
    6AU       S 3163  20.346  19.035   8.037
    6AU     LIG 3164  20.752  18.794   8.199
    6AU     LIG 3165  20.748  18.429   8.535
    6AU     LIG 3166  21.000  18.155   8.857
    6AU     LIG 3167  21.318  18.072   9.216
    6AU     LIG 3168  21.709  17.939   9.461
    6AU     LIG 3169  22.005  17.982   9.832
    6AU    AUSL 3170  20.225  19.460   7.375
    6AU    AUSL 3171  20.150  18.998   7.267
    6AU     AUL 3172  20.499  19.209   7.198
    6AU       S 3173  20.557  19.048   7.610
    6AU     LIG 3174  20.906  18.884   7.252
    6AU     LIG 3175  21.382  18.773   7.195
    6AU     LIG 3176  21.830  18.651   7.053
    6AU     LIG 3177  22.289  18.597   7.111
    6AU     LIG 3178  22.700  18.374   7.035
    6AU     LIG 3179  23.132  18.551   7.082
    6AU       S 3180  20.393  18.765   7.084
    6AU     LIG 3181  20.282  18.361   6.903
    6AU     LIG 3182  20.512  18.029   6.644
    6AU     LIG 3183  20.775  17.740   6.355
    6AU     LIG 3184  20.948  17.306   6.213
    6AU     LIG 3185  21.265  16.957   6.107
    6AU     LIG 3186  21.678  16.760   5.958
    6AU    AUSL 3187  18.977  19.155   7.452
    6AU    AUSL 3188  19.076  19.290   7.040
    6AU     AUL 3189  18.795  19.373   7.000
    6AU       S 3190  19.006  18.967   7.008
    6AU     LIG 3191  18.524  18.964   6.904
    6AU     LIG 3192  18.232  18.672   6.678
    6AU     LIG 3193  17.980  18.454   6.334
    6AU     LIG 3194  17.699  18.203   6.042
    6AU     LIG 3195  17.445  18.155   5.638
    6AU     LIG 3196  17.144  18.282   5.264
    6AU       S 3197  18.682  19.130   7.386
    6AU     LIG 3198  18.281  18.938   7.538
    6AU     LIG 3199  17.793  18.977   7.570
    6AU     LIG 3200  17.349  18.740   7.562
    6AU     LIG 3201  16.894  18.514   7.612
    6AU     LIG 3202  16.482  18.276   7.764
    6AU     LIG 3203  16.089  18.000   7.812
    6AU    AUSL 3204  19.133  19.510   7.607
    6AU    AUSL 3205  19.218  19.120   7.788
    6AU     AUL 3206  18.837  19.317   7.777
    6AU       S 3207  18.963  18.902   7.921
    6AU     LIG 3208  18.690  18.627   7.753
    6AU     LIG 3209  18.387  18.323   7.944
    6AU     LIG 3210  18.060  18.060   8.195
    6AU     LIG 3211  17.827  17.699   8.432
    6AU     LIG 3212  17.517  17.416   8.667
    6AU     LIG 3213  17.186  17.067   8.737
    6AU       S 3214  18.572  19.401   7.424
    6AU     LIG 3215  18.055  19.354   7.299
    6AU     LIG 3216  17.583  19.407   7.264
    6AU     LIG 3217  17.113  19.503   7.340
    6AU     LIG 3218  16.815  19.528   7.706
    6AU     LIG 3219  16.364  19.355   7.762
    6AU     LIG 3220  16.101  18.960   7.875
    6AU    AUSL 3221  19.712  20.304   8.024
    6AU    AUSL 3222  19.398  20.107   7.722
    6AU     AUL 3223  19.412  20.412   8.097
    6AU       S 3224  19.009  20.236   8.240
    6AU     LIG 3225  18.873  20.599   8.500
    6AU     LIG 3226  18.670  20.916   8.810
    6AU     LIG 3227  18.603  21.374   8.976
    6AU     LIG 3228  18.473  21.858   8.983
    6AU     LIG 3229  18.161  22.225   9.082
    6AU     LIG 3230  17.698  22.297   9.198
    6AU       S 3231  19.781  20.700   7.980
    6AU     LIG 3232  19.942  20.768   8.360
    6AU     LIG 3233  20.049  21.189   8.532
    6AU     LIG 3234  20.038  21.602   8.760
    6AU     LIG 3235  20.004  21.854   9.168
    6AU     LIG 3236  19.957  22.190   9.500
    6AU     LIG 3237  19.921  22.646   9.625
    6AU    AUSL 3238  19.480  20.492   7.659
    6AU    AUSL 3239  19.926  20.476   7.275
    6AU     AUL 3240  19.615  20.735   7.437
    6AU       S 3241  19.630  20.785   7.892
    6AU     LIG 3242  19.740  21.194   8.112
    6AU     LIG 3243  19.769  21.617   8.306
    6AU     LIG 3244  19.513  22.025   8.352
    6AU     LIG 3245  19.428  22.467   8.482
    6AU     LIG 3246  19.569  22.899   8.627
    6AU     LIG 3247  19.326  23.302   8.663
    6AU       S 3248  19.962  20.810   7.131
    6AU     LIG 3249  20.310  20.891   6.894
    6AU     LIG 3250  20.396  21.335   6.744
    6AU     LIG 3251  20.479  21.808   6.700
    6AU     LIG 3252  20.761  22.209   6.663
    6AU     LIG 3253  20.881  22.663   6.571
    6AU     LIG 3254  21.007  23.082   6.390
    6AU    AUSL 3255  19.877  20.337   7.652
    6AU    AUSL 3256  19.901  19.968   7.907
    6AU     AUL 3257  20.040  20.333   8.065
    6AU       S 3258  20.425  20.125   8.237
    6AU     LIG 3259  20.629  20.327   8.587
    6AU     LIG 3260  20.875  20.547   8.917
    6AU     LIG 3261  21.136  20.760   9.238
    6AU     LIG 3262  21.383  21.006   9.550
    6AU     LIG 3263  21.360  21.246   9.960
    6AU     LIG 3264  21.311  21.476  10.370
    6AU       S 3265  19.970  20.650   7.731
    6AU     LIG 3266  20.197  21.012   7.979
    6AU     LIG 3267  20.299  21.470   8.168
    6AU     LIG 3268  20.626  21.865   8.240
    6AU     LIG 3269  20.835  22.316   8.362
    6AU     LIG 3270  21.002  22.774   8.410
    6AU     LIG 3271  20.975  23.236   8.308
    6AU    AUSL 3272  19.646  19.078   7.927
    6AU    AUSL 3273  20.005  19.204   7.735
    6AU     AUL 3274  19.839  18.957   8.181
    6AU       S 3275  19.669  18.532   8.013
    6AU     LIG 3276  19.678  18.237   8.330
    6AU     LIG 3277  19.449  17.839   8.312
    6AU     LIG 3278  19.395  17.375   8.344
    6AU     LIG 3279  19.113  17.044   8.558
    6AU     LIG 3280  19.022  16.779   8.953
    6AU     LIG 3281  19.170  16.579   9.358
    6AU       S 3282  20.280  18.834   7.965
    6AU     LIG 3283  20.453  18.388   8.080
    6AU     LIG 3284  20.572  17.987   8.330
    6AU     LIG 3285  20.623  17.572   8.570
    6AU     LIG 3286  20.812  17.237   8.837
    6AU     LIG 3287  21.080  16.881   8.950
    6AU     LIG 3288  21.536  16.804   9.043
    6AU    AUSL 3289  19.476  18.836   7.653
    6AU    AUSL 3290  19.351  19.196   8.181
    6AU     AUL 3291  19.398  18.890   8.049
    6AU       S 3292  19.410  18.519   7.785
    6AU     LIG 3293  19.121  18.193   7.743
    6AU     LIG 3294  19.157  17.739   7.876
    6AU     LIG 3295  18.966  17.333   8.067
    6AU     LIG 3296  18.769  16.909   8.178
    6AU     LIG 3297  18.668  16.495   8.381
    6AU     LIG 3298  18.669  16.046   8.494
    6AU       S 3299  19.032  19.045   8.265
    6AU     LIG 3300  18.719  18.629   8.281
    6AU     LIG 3301  18.419  18.320   8.472
    6AU     LIG 3302  18.154  17.999   8.708
    6AU     LIG 3303  17.879  17.699   8.964
    6AU     LIG 3304  17.841  17.507   9.397
    6AU     LIG 3305  17.835  17.262   9.807
    6AU    AUSL 3306  19.911  18.814   7.706
    6AU    AUSL 3307  19.430  18.832   7.246
    6AU     AUL 3308  19.737  18.566   7.468
    6AU       S 3309  19.330  18.514   7.136
    6AU     LIG 3310  18.985  18.241   7.203
    6AU     LIG 3311  18.986  17.773   7.172
    6AU     LIG 3312  18.997  17.298   7.044
    6AU     LIG 3313  18.904  16.851   6.842
    6AU     LIG 3314  18.796  16.375   6.821
    6AU     LIG 3315  18.783  15.896   6.781
    6AU       S 3316  19.791  18.581   7.912
    6AU     LIG 3317  19.647  18.066   7.849
    6AU     LIG 3318  19.661  17.580   7.921
    6AU     LIG 3319  19.871  17.161   8.079
    6AU     LIG 3320  20.018  16.699   8.130
    6AU     LIG 3321  20.068  16.235   8.177
    6AU     LIG 3322  20.051  15.799   8.333
    6AU    AUSL 3323  19.690  20.293   6.956
    6AU    AUSL 3324  19.984  20.076   7.258
    6AU     AUL 3325  20.071  20.384   7.019
    6AU       S 3326  19.734  20.591   6.780
    6AU     LIG 3327  19.959  20.876   6.512
    6AU     LIG 3328  20.055  21.303   6.357
    6AU     LIG 3329  20.035  21.647   6.032
    6AU     LIG 3330  19.976  21.928   5.644
    6AU     LIG 3331  20.042  22.372   5.498
    6AU     LIG 3332  19.970  22.843   5.442
    6AU       S 3333  20.428  20.089   6.967
    6AU     LIG 3334  20.729  20.518   6.805
    6AU     LIG 3335  21.059  20.691   6.482
    6AU     LIG 3336  21.313  21.008   6.209
    6AU     LIG 3337  21.545  21.462   6.183
    6AU     LIG 3338  21.756  21.921   6.133
    6AU     LIG 3339  22.033  22.272   5.917
    6AU    AUSL 3340  19.584  20.255   7.350
    6AU    AUSL 3341  19.451  19.984   7.052
    6AU     AUL 3342  19.425  20.467   7.119
    6AU       S 3343  19.777  20.755   7.005
    6AU     LIG 3344  19.890  21.231   6.868
    6AU     LIG 3345  19.944  21.685   6.700
    6AU     LIG 3346  19.713  22.121   6.621
    6AU     LIG 3347  19.552  22.589   6.555
    6AU     LIG 3348  19.388  22.996   6.353
    6AU     LIG 3349  19.074  23.346   6.343
    6AU       S 3350  19.268  20.345   6.710
    6AU     LIG 3351  19.196  20.316   6.287
    6AU     LIG 3352  19.000  20.597   5.953
    6AU     LIG 3353  18.786  20.740   5.537
    6AU     LIG 3354  18.765  20.937   5.078
    6AU     LIG 3355  18.619  21.293   4.782
    6AU     LIG 3356  18.334  21.662   4.646
    6AU    AUSL 3357  19.768  18.933   6.984
    6AU    AUSL 3358  19.358  19.214   7.333
    6AU     AUL 3359  19.466  18.908   6.923
    6AU       S 3360  18.968  18.842   7.109
    6AU     LIG 3361  18.613  18.607   7.248
    6AU     LIG 3362  18.324  18.296   7.018
    6AU     LIG 3363  17.986  18.097   6.711
    6AU     LIG 3364  17.654  17.845   6.441
    6AU     LIG 3365  17.261  17.525   6.383
    6AU     LIG 3366  17.048  17.123   6.197
    6AU       S 3367  19.587  18.483   7.025
    6AU     LIG 3368  19.356  18.079   6.874
    6AU     LIG 3369  19.246  17.641   6.732
    6AU     LIG 3370  19.169  17.205   6.563
    6AU     LIG 3371  19.046  16.828   6.310
    6AU     LIG 3372  19.147  16.675   5.869
    6AU     LIG 3373  19.389  16.521   5.489
    6AU    AUSL 3374  19.763  19.020   7.394
    6AU    AUSL 3375  19.894  19.293   7.102
    6AU     AUL 3376  19.938  18.798   7.145
    6AU       S 3377  19.339  18.614   7.272
    6AU     LIG 3378  19.466  18.115   7.376
    6AU     LIG 3379  19.489  17.664   7.195
    6AU     LIG 3380  19.516  17.233   6.956
    6AU     LIG 3381  19.696  16.786   6.826
    6AU     LIG 3382  19.965  16.359   6.776
    6AU     LIG 3383  20.143  15.894   6.733
    6AU       S 3384  20.174  18.902   6.769
    6AU     LIG 3385  20.033  18.597   6.517
    6AU     LIG 3386  20.254  18.264   6.267
    6AU     LIG 3387  20.493  17.967   5.981
    6AU     LIG 3388  20.709  17.774   5.605
    6AU     LIG 3389  20.892  17.541   5.230
    6AU     LIG 3390  21.089  17.420   4.811
    7AU     AUC 3391  41.862  17.472   7.501
    7AU     AUC 3392  42.127  17.476   7.347
    7AU     AUC 3393  42.115  17.458   7.658
    7AU     AUC 3394  41.613  17.477   7.331
    7AU     AUC 3395  41.598  17.494   7.644
    7AU     AUC 3396  41.713  17.730   7.500
    7AU     AUC 3397  42.025  17.724   7.489
    7AU     AUC 3398  41.707  17.217   7.504
    7AU     AUC 3399  42.001  17.217   7.522
    7AU     AUC 3400  41.850  17.319   7.760
    7AU     AUC 3401  41.875  17.634   7.755
    7AU     AUC 3402  41.865  17.311   7.245
    7AU     AUC 3403  41.859  17.615   7.241
    7AU     AUC 3404  42.380  17.470   7.191
    7AU     AUC 3405  42.381  17.474   7.499
    7AU     AUC 3406  42.365  17.459   7.815
    7AU     AUC 3407  41.355  17.470   7.174
    7AU     AUC 3408  41.344  17.493   7.485
    7AU     AUC 3409  41.350  17.507   7.805
    7AU     AUC 3410  41.571  17.997   7.506
    7AU     AUC 3411  41.878  17.993   7.500
    7AU     AUC 3412  42.174  17.986   7.498
    7AU     AUC 3413  41.527  16.965   7.505
    7AU     AUC 3414  41.840  16.951   7.500
    7AU     AUC 3415  42.156  16.952   7.532
    7AU     AUC 3416  41.834  17.163   8.008
    7AU     AUC 3417  41.860  17.470   8.029
    7AU     AUC 3418  41.881  17.780   8.023
    7AU     AUC 3419  41.870  17.139   7.003
    7AU     AUC 3420  41.878  17.458   6.979
    7AU     AUC 3421  41.861  17.764   6.980
    7AU     AUC 3422  42.119  17.321   7.930
    7AU     AUC 3423  42.121  17.610   7.930
    7AU     AUC 3424  42.141  17.304   7.089
    7AU     AUC 3425  42.142  17.610   7.079
    7AU     AUC 3426  41.582  17.336   7.919
    7AU     AUC 3427  41.609  17.646   7.928
    7AU     AUC 3428  41.618  17.319   7.064
    7AU     AUC 3429  41.606  17.623   7.074
    7AU     AUC 3430  42.281  17.736   7.329
    7AU     AUC 3431  42.290  17.712   7.655
    7AU     AUC 3432  41.447  17.734   7.347
    7AU     AUC 3433  41.457  17.752   7.670
    7AU     AUC 3434  42.278  17.208   7.359
    7AU     AUC 3435  42.271  17.210   7.681
    7AU     AUC 3436  41.440  17.225   7.327
    7AU     AUC 3437  41.436  17.234   7.668
    7AU     AUC 3438  41.717  17.887   7.774
    7AU     AUC 3439  42.033  17.895   7.744
    7AU     AUC 3440  41.676  17.050   7.749
    7AU     AUC 3441  41.994  17.055   7.782
    7AU     AUC 3442  41.706  17.887   7.240
    7AU     AUC 3443  42.024  17.874   7.227
    7AU     AUC 3444  41.693  17.068   7.237
    7AU     AUC 3445  42.022  17.047   7.266
    7AU    AUSL 3446  42.215  17.419   8.181
    7AU    AUSL 3447  42.164  16.988   8.126
    7AU     AUL 3448  42.366  16.992   8.463
    7AU       S 3449  42.436  16.735   8.038
    7AU     LIG 3450  42.317  16.466   8.413
    7AU     LIG 3451  42.309  16.027   8.573
    7AU     LIG 3452  42.475  15.633   8.768
    7AU     LIG 3453  42.754  15.409   9.068
    7AU     LIG 3454  42.970  15.085   9.338
    7AU     LIG 3455  43.089  14.970   9.778
    7AU       S 3456  42.255  17.399   8.363
    7AU     LIG 3457  42.378  17.339   8.829
    7AU     LIG 3458  42.635  17.164   9.210
    7AU     LIG 3459  42.998  17.070   9.544
    7AU     LIG 3460  43.372  17.058   9.872
    7AU     LIG 3461  43.667  17.012  10.255
    7AU     LIG 3462  43.991  17.055  10.600
    7AU    AUSL 3463  41.883  17.202   8.341
    7AU    AUSL 3464  41.808  17.611   8.291
    7AU     AUL 3465  41.946  17.556   8.683
    7AU       S 3466  41.939  17.167   8.481
    7AU     LIG 3467  41.919  17.081   8.915
    7AU     LIG 3468  42.175  16.898   9.301
    7AU     LIG 3469  42.294  16.663   9.735
    7AU     LIG 3470  42.395  16.496  10.198
    7AU     LIG 3471  42.521  16.588  10.662
    7AU     LIG 3472  42.685  16.657  11.110
    7AU       S 3473  41.522  17.395   8.645
    7AU     LIG 3474  41.392  17.307   9.103
    7AU     LIG 3475  41.159  17.274   9.520
    7AU     LIG 3476  41.088  17.221   9.989
    7AU     LIG 3477  41.252  17.426  10.410
    7AU     LIG 3478  41.320  17.773  10.749
    7AU     LIG 3479  41.163  18.105  11.067
    7AU    AUSL 3480  42.156  17.821   8.284
    7AU    AUSL 3481  42.493  17.666   7.998
    7AU     AUL 3482  42.588  17.632   8.459
    7AU       S 3483  42.182  17.847   8.417
    7AU     LIG 3484  42.342  17.878   8.834
    7AU     LIG 3485  42.382  18.061   9.277
    7AU     LIG 3486  42.364  18.261   9.716
    7AU     LIG 3487  42.434  18.244  10.190
    7AU     LIG 3488  42.491  18.178  10.663
    7AU     LIG 3489  42.575  18.036  11.126
    7AU       S 3490  42.741  17.708   8.024
    7AU     LIG 3491  43.074  17.768   8.351
    7AU     LIG 3492  43.315  17.984   8.715
    7AU     LIG 3493  43.585  18.225   9.042
    7AU     LIG 3494  43.922  18.266   9.404
    7AU     LIG 3495  44.332  18.391   9.637
    7AU     LIG 3496  44.705  18.571   9.869
    7AU    AUSL 3497  42.412  17.500   6.873
    7AU    AUSL 3498  42.174  17.894   6.828
    7AU     AUL 3499  42.553  17.852   6.474
    7AU       S 3500  42.459  17.521   6.729
    7AU     LIG 3501  42.734  17.411   6.340
    7AU     LIG 3502  42.741  17.252   5.901
    7AU     LIG 3503  42.883  17.176   5.445
    7AU     LIG 3504  43.219  17.185   5.087
    7AU     LIG 3505  43.618  17.165   4.793
    7AU     LIG 3506  43.868  17.156   4.374
    7AU       S 3507  42.184  17.955   6.676
    7AU     LIG 3508  42.453  18.328   6.596
    7AU     LIG 3509  42.796  18.339   6.275
    7AU     LIG 3510  43.091  18.496   5.926
    7AU     LIG 3511  43.348  18.754   5.610
    7AU     LIG 3512  43.380  19.036   5.226
    7AU     LIG 3513  43.238  19.346   4.893
    7AU    AUSL 3514  42.144  17.187   6.721
    7AU    AUSL 3515  42.489  17.130   7.020
    7AU     AUL 3516  42.511  17.097   6.658
    7AU       S 3517  42.624  16.709   6.898
    7AU     LIG 3518  42.742  16.315   6.671
    7AU     LIG 3519  42.904  15.947   6.393
    7AU     LIG 3520  43.176  15.795   6.019
    7AU     LIG 3521  43.573  15.755   5.734
    7AU     LIG 3522  43.961  15.721   5.442
    7AU     LIG 3523  44.289  15.703   5.101
    7AU       S 3524  42.247  17.437   6.445
    7AU     LIG 3525  42.308  17.077   6.192
    7AU     LIG 3526  42.377  16.910   5.765
    7AU     LIG 3527  42.458  16.899   5.303
    7AU     LIG 3528  42.494  16.882   4.831
    7AU     LIG 3529  42.629  16.648   4.440
    7AU     LIG 3530  42.660  16.677   3.964
    7AU    AUSL 3531  42.005  17.536   6.901
    7AU    AUSL 3532  41.749  17.304   6.674
    7AU     AUL 3533  41.939  17.104   6.550
    7AU       S 3534  41.488  17.454   6.369
    7AU     LIG 3535  41.616  17.056   6.153
    7AU     LIG 3536  41.424  16.839   5.788
    7AU     LIG 3537  41.227  16.826   5.352
    7AU     LIG 3538  41.009  16.689   4.941
    7AU     LIG 3539  40.948  16.426   4.526
    7AU     LIG 3540  40.885  16.372   4.054
    7AU       S 3541  42.147  17.527   6.497
    7AU     LIG 3542  42.290  17.543   5.979
    7AU     LIG 3543  42.399  17.378   5.533
    7AU     LIG 3544  42.545  17.361   5.073
    7AU     LIG 3545  42.549  17.567   4.638
    7AU     LIG 3546  42.557  17.873   4.268
    7AU     LIG 3547  42.753  18.133   3.931
    7AU    AUSL 3548  41.419  17.524   8.206
    7AU    AUSL 3549  41.575  17.918   8.152
    7AU     AUL 3550  41.645  17.833   8.458
    7AU       S 3551  41.339  17.526   8.648
    7AU     LIG 3552  41.014  17.208   8.746
    7AU     LIG 3553  40.841  17.073   9.176
    7AU     LIG 3554  40.661  17.083   9.637
    7AU     LIG 3555  40.284  17.101   9.951
    7AU     LIG 3556  40.014  17.185  10.342
    7AU     LIG 3557  39.918  17.073  10.790
    7AU       S 3558  41.190  17.910   8.379
    7AU     LIG 3559  41.183  18.085   8.795
    7AU     LIG 3560  41.125  18.429   9.110
    7AU     LIG 3561  40.910  18.700   9.422
    7AU     LIG 3562  40.808  18.830   9.868
    7AU     LIG 3563  40.623  19.094  10.220
    7AU     LIG 3564  40.299  19.356  10.464
    7AU    AUSL 3565  41.712  17.329   8.003
    7AU    AUSL 3566  41.191  17.270   7.980
    7AU     AUL 3567  41.213  17.384   8.230
    7AU       S 3568  41.010  16.962   8.216
    7AU     LIG 3569  40.606  16.820   8.059
    7AU     LIG 3570  40.332  16.547   8.301
    7AU     LIG 3571  40.098  16.236   8.559
    7AU     LIG 3572  39.875  15.928   8.832
    7AU     LIG 3573  39.584  15.747   9.142
    7AU     LIG 3574  39.215  15.784   9.442
    7AU       S 3575  41.486  17.247   8.582
    7AU     LIG 3576  41.423  16.888   8.801
    7AU     LIG 3577  41.290  16.819   9.250
    7AU     LIG 3578  41.083  16.786   9.675
    7AU     LIG 3579  40.916  16.682  10.106
    7AU     LIG 3580  40.896  16.457  10.537
    7AU     LIG 3581  41.019  16.444  11.000
    7AU    AUSL 3582  41.441  17.460   6.883
    7AU    AUSL 3583  41.616  17.021   6.929
    7AU     AUL 3584  41.469  17.079   6.633
    7AU       S 3585  41.213  17.445   6.587
    7AU     LIG 3586  41.115  17.163   6.192
    7AU     LIG 3587  40.985  17.112   5.716
    7AU     LIG 3588  40.750  17.042   5.285
    7AU     LIG 3589  40.325  17.031   5.014
    7AU     LIG 3590  39.925  17.104   4.715
    7AU     LIG 3591  39.675  17.153   4.300
    7AU       S 3592  41.162  16.743   6.783
    7AU     LIG 3593  40.906  16.367   6.758
    7AU     LIG 3594  40.627  16.077   6.506
    7AU     LIG 3595  40.342  15.815   6.239
    7AU     LIG 3596  40.119  15.650   5.863
    7AU     LIG 3597  40.189  15.476   5.420
    7AU     LIG 3598  40.312  15.376   4.964
    7AU    AUSL 3599  41.731  17.737   6.682
    7AU    AUSL 3600  41.204  17.773   6.979
    7AU     AUL 3601  41.410  17.846   6.654
    7AU       S 3602  40.979  17.963   6.826
    7AU     LIG 3603  40.889  18.045   6.378
    7AU     LIG 3604  40.714  18.322   6.024
    7AU     LIG 3605  40.458  18.447   5.628
    7AU     LIG 3606  40.079  18.475   5.307
    7AU     LIG 3607  39.698  18.606   5.021
    7AU     LIG 3608  39.430  18.961   4.848
    7AU       S 3609  41.672  17.515   6.458
    7AU     LIG 3610  41.751  17.495   5.955
    7AU     LIG 3611  41.459  17.316   5.589
    7AU     LIG 3612  41.259  17.300   5.137
    7AU     LIG 3613  41.301  17.478   4.673
    7AU     LIG 3614  41.253  17.800   4.309
    7AU     LIG 3615  41.075  18.123   3.999
    7AU    AUSL 3616  42.485  18.068   7.438
    7AU    AUSL 3617  42.506  17.838   7.084
    7AU     AUL 3618  42.637  18.298   7.239
    7AU       S 3619  42.646  17.938   6.917
    7AU     LIG 3620  42.988  17.749   6.713
    7AU     LIG 3621  43.171  17.963   6.326
    7AU     LIG 3622  43.489  18.183   6.022
    7AU     LIG 3623  43.740  18.422   5.679
    7AU     LIG 3624  44.032  18.578   5.319
    7AU     LIG 3625  44.358  18.819   5.043
    7AU       S 3626  42.936  17.962   7.375
    7AU     LIG 3627  43.412  18.010   7.520
    7AU     LIG 3628  43.919  18.100   7.532
    7AU     LIG 3629  44.412  18.193   7.541
    7AU     LIG 3630  44.862  18.387   7.487
    7AU     LIG 3631   0.113  18.811   7.437
    7AU     LIG 3632   0.148  19.297   7.443
    7AU    AUSL 3633  42.698  17.531   7.260
    7AU    AUSL 3634  42.703  17.356   7.664
    7AU     AUL 3635  43.000  17.317   7.435
    7AU       S 3636  42.893  17.754   7.334
    7AU     LIG 3637  43.298  17.651   7.171
    7AU     LIG 3638  43.777  17.704   7.235
    7AU     LIG 3639  44.261  17.821   7.214
    7AU     LIG 3640  44.742  17.964   7.197
    7AU     LIG 3641   0.189  18.159   7.130
    7AU     LIG 3642   0.588  18.234   6.859
    7AU       S 3643  43.006  16.905   7.666
    7AU     LIG 3644  43.403  16.688   7.712
    7AU     LIG 3645  43.830  16.464   7.725
    7AU     LIG 3646  44.222  16.185   7.745
    7AU     LIG 3647  44.667  16.215   7.911
    7AU     LIG 3648   0.061  16.299   8.166
    7AU     LIG 3649   0.548  16.309   8.248
    7AU    AUSL 3650  42.483  17.687   7.590
    7AU    AUSL 3651  42.373  18.027   7.832
    7AU     AUL 3652  42.620  18.073   7.703
    7AU       S 3653  42.576  17.848   8.070
    7AU     LIG 3654  43.035  18.106   7.979
    7AU     LIG 3655  43.217  18.338   8.356
    7AU     LIG 3656  43.473  18.601   8.678
    7AU     LIG 3657  43.659  19.013   8.873
    7AU     LIG 3658  43.888  19.452   8.933
    7AU     LIG 3659  44.152  19.797   9.145
    7AU       S 3660  42.936  17.769   7.590
    7AU     LIG 3661  43.256  17.609   7.810
    7AU     LIG 3662  43.747  17.661   7.758
    7AU     LIG 3663  44.249  17.725   7.721
    7AU     LIG 3664  44.752  17.806   7.687
    7AU     LIG 3665   0.189  18.039   7.709
    7AU     LIG 3666   0.594  18.194   7.901
    7AU    AUSL 3667  41.212  18.027   7.592
    7AU    AUSL 3668  41.254  17.771   7.929
    7AU     AUL 3669  41.216  18.221   7.868
    7AU       S 3670  41.054  17.844   8.124
    7AU     LIG 3671  40.738  18.073   8.454
    7AU     LIG 3672  40.685  18.233   8.909
    7AU     LIG 3673  40.493  18.408   9.321
    7AU     LIG 3674  40.191  18.513   9.697
    7AU     LIG 3675  39.887  18.661  10.052
    7AU     LIG 3676  39.589  18.989  10.219
    7AU       S 3677  40.837  18.037   7.695
    7AU     LIG 3678  40.864  18.442   7.460
    7AU     LIG 3679  40.514  18.764   7.356
    7AU     LIG 3680  40.114  19.056   7.401
    7AU     LIG 3681  39.741  19.378   7.422
    7AU     LIG 3682  39.341  19.561   7.610
    7AU     LIG 3683  38.874  19.690   7.520
    7AU    AUSL 3684  41.281  17.697   7.363
    7AU    AUSL 3685  41.374  18.112   7.221
    7AU     AUL 3686  41.093  18.030   7.275
    7AU       S 3687  40.715  17.961   7.546
    7AU     LIG 3688  40.573  18.149   7.130
    7AU     LIG 3689  40.137  18.320   6.898
    7AU     LIG 3690  39.674  18.504   6.718
    7AU     LIG 3691  39.205  18.698   6.581
    7AU     LIG 3692  38.717  18.632   6.619
    7AU     LIG 3693  38.246  18.517   6.732
    7AU       S 3694  41.110  18.356   6.945
    7AU     LIG 3695  40.950  18.549   6.497
    7AU     LIG 3696  40.864  18.816   6.107
    7AU     LIG 3697  40.673  19.192   5.882
    7AU     LIG 3698  40.376  19.583   5.843
    7AU     LIG 3699  40.009  19.905   5.771
    7AU     LIG 3700  39.648  20.219   5.825
    7AU    AUSL 3701  41.010  17.603   7.661
    7AU    AUSL 3702  41.042  17.378   7.291
    7AU     AUL 3703  40.876  17.638   7.271
    7AU       S 3704  40.698  17.191   7.400
    7AU     LIG 3705  40.376  17.196   7.787
    7AU     LIG 3706  39.901  17.073   7.821
    7AU     LIG 3707  39.470  16.874   7.661
    7AU     LIG 3708  39.091  16.751   7.358
    7AU     LIG 3709  38.614  16.687   7.259
    7AU     LIG 3710  38.174  16.687   7.033
    7AU       S 3711  40.814  17.630   7.755
    7AU     LIG 3712  40.484  17.871   8.026
    7AU     LIG 3713  40.021  18.078   8.133
    7AU     LIG 3714  39.522  18.236   8.187
    7AU     LIG 3715  39.054  18.412   8.257
    7AU     LIG 3716  38.579  18.366   8.264
    7AU     LIG 3717  38.211  18.689   8.262
    7AU    AUSL 3718  42.549  16.968   7.595
    7AU    AUSL 3719  42.471  17.205   7.954
    7AU     AUL 3720  42.803  17.224   7.931
    7AU       S 3721  42.705  16.726   7.575
    7AU     LIG 3722  42.935  16.408   7.783
    7AU     LIG 3723  43.340  16.184   7.652
    7AU     LIG 3724  43.760  16.008   7.499
    7AU     LIG 3725  44.175  15.801   7.399
    7AU     LIG 3726  44.515  15.468   7.403
    7AU     LIG 3727  44.953  15.363   7.493
    7AU       S 3728  42.503  16.889   8.048
    7AU     LIG 3729  42.821  16.572   8.283
    7AU     LIG 3730  42.798  16.170   8.521
    7AU     LIG 3731  42.972  15.841   8.825
    7AU     LIG 3732  43.355  15.750   9.115
    7AU     LIG 3733  43.764  15.839   9.374
    7AU     LIG 3734  44.170  15.884   9.632
    7AU    AUSL 3735  42.404  17.288   7.383
    7AU    AUSL 3736  42.331  16.835   7.276
    7AU     AUL 3737  42.685  17.053   7.218
    7AU       S 3738  42.733  16.873   7.623
    7AU     LIG 3739  43.086  16.595   7.296
    7AU     LIG 3740  43.576  16.454   7.269
    7AU     LIG 3741  44.076  16.357   7.272
    7AU     LIG 3742  44.515  16.157   7.251
    7AU     LIG 3743  44.954  16.216   7.060
    7AU     LIG 3744   0.349  16.280   6.803
    7AU       S 3745  42.566  16.604   7.112
    7AU     LIG 3746  42.351  16.201   7.015
    7AU     LIG 3747  42.500  15.863   6.718
    7AU     LIG 3748  42.683  15.431   6.569
    7AU     LIG 3749  42.929  15.004   6.448
    7AU     LIG 3750  43.212  14.626   6.252
    7AU     LIG 3751  43.601  14.398   6.061
    7AU    AUSL 3752  41.146  16.992   7.445
    7AU    AUSL 3753  41.246  17.139   7.042
    7AU     AUL 3754  40.961  17.231   7.007
    7AU       S 3755  41.137  16.807   7.002
    7AU     LIG 3756  40.677  16.822   6.915
    7AU     LIG 3757  40.447  16.560   6.607
    7AU     LIG 3758  40.223  16.315   6.276
    7AU     LIG 3759  39.885  16.059   6.102
    7AU     LIG 3760  39.641  15.849   5.750
    7AU     LIG 3761  39.368  15.770   5.358
    7AU       S 3762  40.842  16.974   7.377
    7AU     LIG 3763  40.478  16.762   7.543
    7AU     LIG 3764  40.161  16.637   7.836
    7AU     LIG 3765  39.740  16.446   7.808
    7AU     LIG 3766  39.274  16.375   7.659
    7AU     LIG 3767  38.839  16.182   7.506
    7AU     LIG 3768  38.648  15.729   7.446
    7AU    AUSL 3769  41.309  17.339   7.608
    7AU    AUSL 3770  41.380  16.951   7.786
    7AU     AUL 3771  41.017  17.119   7.777
    7AU       S 3772  41.104  16.766   8.052
    7AU     LIG 3773  40.936  16.594   7.720
    7AU     LIG 3774  40.571  16.330   7.859
    7AU     LIG 3775  40.194  16.105   8.060
    7AU     LIG 3776  39.990  15.762   8.354
    7AU     LIG 3777  39.813  15.417   8.658
    7AU     LIG 3778  39.609  14.963   8.686
    7AU       S 3779  40.738  17.239   7.447
    7AU     LIG 3780  40.217  17.150   7.308
    7AU     LIG 3781  39.726  17.253   7.376
    7AU     LIG 3782  39.235  17.258   7.421
    7AU     LIG 3783  38.817  17.097   7.603
    7AU     LIG 3784  38.540  16.775   7.763
    7AU     LIG 3785  38.259  16.644   8.108
    7AU    AUSL 3786  41.896  18.137   8.027
    7AU    AUSL 3787  41.577  17.940   7.746
    7AU     AUL 3788  41.612  18.230   8.108
    7AU       S 3789  41.248  18.037   8.294
    7AU     LIG 3790  41.116  18.431   8.394
    7AU     LIG 3791  40.888  18.671   8.722
    7AU     LIG 3792  40.733  18.997   9.023
    7AU     LIG 3793  40.516  19.419   9.088
    7AU     LIG 3794  40.210  19.780   9.157
    7AU     LIG 3795  39.917  20.147   9.235
    7AU       S 3796  41.933  18.553   8.008
    7AU     LIG 3797  42.090  18.785   8.355
    7AU     LIG 3798  42.113  19.209   8.559
    7AU     LIG 3799  42.233  19.604   8.747
    7AU     LIG 3800  42.195  19.944   9.038
    7AU     LIG 3801  41.975  20.160   9.391
    7AU     LIG 3802  41.754  20.491   9.635
    7AU    AUSL 3803  41.647  18.321   7.658
    7AU    AUSL 3804  42.085  18.309   7.274
    7AU     AUL 3805  41.672  18.524   7.384
    7AU       S 3806  41.807  18.586   7.824
    7AU     LIG 3807  42.009  19.027   7.898
    7AU     LIG 3808  42.041  19.443   8.109
    7AU     LIG 3809  42.066  19.864   8.319
    7AU     LIG 3810  41.749  20.210   8.319
    7AU     LIG 3811  41.458  20.568   8.488
    7AU     LIG 3812  41.317  20.977   8.682
    7AU       S 3813  42.112  18.612   7.221
    7AU     LIG 3814  42.445  18.730   6.960
    7AU     LIG 3815  42.482  19.179   6.765
    7AU     LIG 3816  42.386  19.646   6.589
    7AU     LIG 3817  42.522  20.126   6.567
    7AU     LIG 3818  42.732  20.587   6.519
    7AU     LIG 3819  42.939  21.034   6.442
    7AU    AUSL 3820  42.045  18.170   7.650
    7AU    AUSL 3821  42.055  17.784   7.906
    7AU     AUL 3822  42.219  18.195   8.032
    7AU       S 3823  42.612  18.006   8.207
    7AU     LIG 3824  42.783  18.113   8.603
    7AU     LIG 3825  43.048  18.390   8.882
    7AU     LIG 3826  43.313  18.653   9.180
    7AU     LIG 3827  43.362  18.925   9.573
    7AU     LIG 3828  43.383  19.193   9.977
    7AU     LIG 3829  43.261  19.454  10.363
    7AU       S 3830  42.089  18.500   7.707
    7AU     LIG 3831  42.416  18.687   7.952
    7AU     LIG 3832  42.456  19.113   8.172
    7AU     LIG 3833  42.501  19.568   8.314
    7AU     LIG 3834  42.514  20.000   8.542
    7AU     LIG 3835  42.600  20.472   8.620
    7AU     LIG 3836  42.623  20.913   8.834
    7AU    AUSL 3837  41.815  16.892   7.933
    7AU    AUSL 3838  42.170  17.023   7.722
    7AU     AUL 3839  42.001  16.765   8.168
    7AU       S 3840  41.859  16.353   8.009
    7AU     LIG 3841  41.908  16.041   8.254
    7AU     LIG 3842  41.636  15.712   8.370
    7AU     LIG 3843  41.664  15.269   8.375
    7AU     LIG 3844  41.669  14.900   8.640
    7AU     LIG 3845  41.611  14.646   9.042
    7AU     LIG 3846  41.660  14.389   9.444
    7AU       S 3847  42.445  16.629   7.951
    7AU     LIG 3848  42.447  16.140   8.049
    7AU     LIG 3849  42.640  15.739   8.288
    7AU     LIG 3850  42.880  15.407   8.552
    7AU     LIG 3851  43.018  15.040   8.818
    7AU     LIG 3852  43.300  14.778   9.053
    7AU     LIG 3853  43.615  14.434   8.985
    7AU    AUSL 3854  41.638  16.678   7.635
    7AU    AUSL 3855  41.512  17.027   8.173
    7AU     AUL 3856  41.549  16.697   8.004
    7AU       S 3857  41.652  16.270   7.880
    7AU     LIG 3858  41.457  15.874   7.892
    7AU     LIG 3859  41.321  15.441   8.030
    7AU     LIG 3860  41.213  14.989   8.187
    7AU     LIG 3861  40.937  14.558   8.165
    7AU     LIG 3862  40.758  14.086   8.155
    7AU     LIG 3863  40.745  13.614   8.275
    7AU       S 3864  41.244  16.897   8.287
    7AU     LIG 3865  40.877  16.510   8.396
    7AU     LIG 3866  40.595  16.121   8.409
    7AU     LIG 3867  40.372  15.814   8.698
    7AU     LIG 3868  40.196  15.612   9.090
    7AU     LIG 3869  40.282  15.498   9.547
    7AU     LIG 3870  40.236  15.326   9.986
    7AU    AUSL 3871  42.069  16.636   7.694
    7AU    AUSL 3872  41.602  16.668   7.225
    7AU     AUL 3873  41.782  16.423   7.471
    7AU       S 3874  41.537  16.319   7.069
    7AU     LIG 3875  41.441  16.065   7.409
    7AU     LIG 3876  41.460  15.611   7.383
    7AU     LIG 3877  41.413  15.286   7.008
    7AU     LIG 3878  41.416  14.840   6.793
    7AU     LIG 3879  41.462  14.358   6.692
    7AU     LIG 3880  41.434  13.858   6.703
    7AU       S 3881  42.014  16.412   7.859
    7AU     LIG 3882  41.980  15.932   7.747
    7AU     LIG 3883  41.824  15.533   7.923
    7AU     LIG 3884  42.042  15.155   8.045
    7AU     LIG 3885  42.250  14.739   8.133
    7AU     LIG 3886  42.233  14.260   8.186
    7AU     LIG 3887  42.147  13.788   8.215
    7AU    AUSL 3888  41.862  18.117   6.960
    7AU    AUSL 3889  42.158  17.910   7.263
    7AU     AUL 3890  42.242  18.217   7.024
    7AU       S 3891  41.932  18.482   6.808
    7AU     LIG 3892  42.139  18.793   6.562
    7AU     LIG 3893  42.115  19.230   6.418
    7AU     LIG 3894  42.266  19.510   6.081
    7AU     LIG 3895  42.361  19.733   5.689
    7AU     LIG 3896  42.261  20.116   5.455
    7AU     LIG 3897  42.021  20.480   5.286
    7AU       S 3898  42.597  17.924   6.979
    7AU     LIG 3899  42.952  18.272   6.766
    7AU     LIG 3900  43.272  18.461   6.435
    7AU     LIG 3901  43.537  18.696   6.106
    7AU     LIG 3902  43.785  19.061   5.927
    7AU     LIG 3903  43.978  19.513   5.933
    7AU     LIG 3904  44.186  19.952   5.906
    7AU    AUSL 3905  41.753  18.075   7.354
    7AU    AUSL 3906  41.607  17.818   7.056
    7AU     AUL 3907  41.578  18.239   7.004
    7AU       S 3908  41.949  18.578   7.036
    7AU     LIG 3909  42.008  19.052   6.989
    7AU     LIG 3910  42.138  19.493   7.011
    7AU     LIG 3911  41.953  19.884   6.831
    7AU     LIG 3912  41.701  20.276   6.710
    7AU     LIG 3913  41.488  20.685   6.583
    7AU     LIG 3914  41.213  21.022   6.383
    7AU       S 3915  41.166  18.204   6.792
    7AU     LIG 3916  41.355  18.263   6.363
    7AU     LIG 3917  41.205  18.455   5.942
    7AU     LIG 3918  40.954  18.710   5.595
    7AU     LIG 3919  40.903  19.006   5.197
    7AU     LIG 3920  40.808  19.268   4.788
    7AU     LIG 3921  40.492  19.506   4.536
    7AU    AUSL 3922  41.941  16.782   6.964
    7AU    AUSL 3923  41.529  17.046   7.332
    7AU     AUL 3924  41.594  16.756   6.936
    7AU       S 3925  41.153  16.661   7.127
    7AU     LIG 3926  40.755  16.447   7.245
    7AU     LIG 3927  40.466  16.169   6.986
    7AU     LIG 3928  40.130  16.012   6.681
    7AU     LIG 3929  39.902  15.645   6.446
    7AU     LIG 3930  39.750  15.182   6.364
    7AU     LIG 3931  39.497  14.890   6.079
    7AU       S 3932  41.869  16.400   6.867
    7AU     LIG 3933  41.978  15.961   6.722
    7AU     LIG 3934  41.700  15.593   6.663
    7AU     LIG 3935  41.559  15.214   6.461
    7AU     LIG 3936  41.642  14.841   6.211
    7AU     LIG 3937  41.629  14.550   5.843
    7AU     LIG 3938  41.883  14.306   5.517
    7AU    AUSL 3939  41.937  16.845   7.377
    7AU    AUSL 3940  42.079  17.127   7.107
    7AU     AUL 3941  42.115  16.619   7.199
    7AU       S 3942  41.784  16.334   7.031
    7AU     LIG 3943  41.918  15.947   7.230
    7AU     LIG 3944  41.886  15.492   7.129
    7AU     LIG 3945  41.863  15.109   6.855
    7AU     LIG 3946  41.892  14.691   6.654
    7AU     LIG 3947  41.966  14.214   6.629
    7AU     LIG 3948  42.340  13.917   6.571
    7AU       S 3949  42.369  16.694   6.820
    7AU     LIG 3950  42.252  16.374   6.534
    7AU     LIG 3951  42.418  16.051   6.246
    7AU     LIG 3952  42.656  15.726   5.979
    7AU     LIG 3953  42.821  15.530   5.560
    7AU     LIG 3954  42.975  15.383   5.103
    7AU     LIG 3955  43.241  15.258   4.708
    8AU     AUC 3956  40.634  25.870   7.503
    8AU     AUC 3957  40.887  25.865   7.347
    8AU     AUC 3958  40.881  25.838   7.660
    8AU     AUC 3959  40.387  25.870   7.341
    8AU     AUC 3960  40.379  25.905   7.644
    8AU     AUC 3961  40.487  26.143   7.506
    8AU     AUC 3962  40.807  26.112   7.488
    8AU     AUC 3963  40.467  25.616   7.512
    8AU     AUC 3964  40.773  25.599   7.511
    8AU     AUC 3965  40.617  25.716   7.765
    8AU     AUC 3966  40.647  26.034   7.758
    8AU     AUC 3967  40.629  25.705   7.251
    8AU     AUC 3968  40.637  26.014   7.236
    8AU     AUC 3969  41.145  25.875   7.191
    8AU     AUC 3970  41.150  25.847   7.502
    8AU     AUC 3971  41.127  25.814   7.823
    8AU     AUC 3972  40.135  25.884   7.181
    8AU     AUC 3973  40.120  25.916   7.499
    8AU     AUC 3974  40.124  25.938   7.803
    8AU     AUC 3975  40.365  26.407   7.489
    8AU     AUC 3976  40.669  26.392   7.496
    8AU     AUC 3977  40.993  26.362   7.493
    8AU     AUC 3978  40.296  25.375   7.524
    8AU     AUC 3979  40.612  25.349   7.491
    8AU     AUC 3980  40.926  25.332   7.515
    8AU     AUC 3981  40.592  25.565   8.012
    8AU     AUC 3982  40.626  25.871   8.028
    8AU     AUC 3983  40.667  26.182   8.011
    8AU     AUC 3984  40.638  25.547   7.006
    8AU     AUC 3985  40.622  25.852   6.981
    8AU     AUC 3986  40.634  26.172   6.976
    8AU     AUC 3987  40.877  25.703   7.932
    8AU     AUC 3988  40.891  25.995   7.938
    8AU     AUC 3989  40.900  25.716   7.085
    8AU     AUC 3990  40.887  26.013   7.067
    8AU     AUC 3991  40.351  25.755   7.923
    8AU     AUC 3992  40.395  26.080   7.916
    8AU     AUC 3993  40.371  25.696   7.090
    8AU     AUC 3994  40.373  26.020   7.074
    8AU     AUC 3995  41.056  26.118   7.341
    8AU     AUC 3996  41.070  26.085   7.664
    8AU     AUC 3997  40.229  26.150   7.343
    8AU     AUC 3998  40.248  26.183   7.654
    8AU     AUC 3999  41.051  25.598   7.359
    8AU     AUC 4000  41.025  25.579   7.678
    8AU     AUC 4001  40.211  25.622   7.352
    8AU     AUC 4002  40.198  25.647   7.667
    8AU     AUC 4003  40.519  26.305   7.762
    8AU     AUC 4004  40.853  26.273   7.749
    8AU     AUC 4005  40.430  25.467   7.763
    8AU     AUC 4006  40.736  25.438   7.776
    8AU     AUC 4007  40.482  26.292   7.237
    8AU     AUC 4008  40.795  26.283   7.236
    8AU     AUC 4009  40.464  25.446   7.262
    8AU     AUC 4010  40.806  25.444   7.256
    8AU    AUSL 4011  40.970  25.810   8.184
    8AU    AUSL 4012  40.904  25.365   8.123
    8AU     AUL 4013  41.159  25.386   8.421
    8AU       S 4014  41.146  25.068   8.016
    8AU     LIG 4015  41.120  24.881   8.436
    8AU     LIG 4016  41.348  24.580   8.732
    8AU     LIG 4017  41.532  24.208   8.978
    8AU     LIG 4018  41.776  23.908   9.267
    8AU     LIG 4019  41.840  23.650   9.682
    8AU     LIG 4020  41.827  23.473  10.136
    8AU       S 4021  41.031  25.791   8.361
    8AU     LIG 4022  41.127  25.699   8.816
    8AU     LIG 4023  41.388  25.528   9.191
    8AU     LIG 4024  41.677  25.429   9.572
    8AU     LIG 4025  42.051  25.528   9.877
    8AU     LIG 4026  42.428  25.562  10.180
    8AU     LIG 4027  42.736  25.383  10.503
    8AU    AUSL 4028  40.648  25.601   8.342
    8AU    AUSL 4029  40.549  26.009   8.313
    8AU     AUL 4030  40.712  25.961   8.678
    8AU       S 4031  40.717  25.563   8.495
    8AU     LIG 4032  40.847  25.243   8.792
    8AU     LIG 4033  41.093  25.101   9.189
    8AU     LIG 4034  41.289  25.041   9.640
    8AU     LIG 4035  41.319  24.937  10.118
    8AU     LIG 4036  41.433  24.749  10.543
    8AU     LIG 4037  41.570  24.878  10.970
    8AU       S 4038  40.278  25.844   8.613
    8AU     LIG 4039  40.332  25.754   9.072
    8AU     LIG 4040  40.034  25.688   9.424
    8AU     LIG 4041  39.931  25.712   9.891
    8AU     LIG 4042  39.932  26.035  10.264
    8AU     LIG 4043  39.977  26.312  10.660
    8AU     LIG 4044  39.736  26.379  11.062
    8AU    AUSL 4045  40.898  26.209   8.292
    8AU    AUSL 4046  41.289  26.010   8.031
    8AU     AUL 4047  41.260  26.110   8.516
    8AU       S 4048  40.873  26.307   8.424
    8AU     LIG 4049  41.018  26.391   8.861
    8AU     LIG 4050  41.164  26.517   9.319
    8AU     LIG 4051  41.220  26.736   9.763
    8AU     LIG 4052  41.280  26.980  10.193
    8AU     LIG 4053  41.309  26.922  10.669
    8AU     LIG 4054  41.450  26.683  11.059
    8AU       S 4055  41.594  25.987   8.140
    8AU     LIG 4056  41.818  26.305   8.483
    8AU     LIG 4057  42.131  26.545   8.767
    8AU     LIG 4058  42.448  26.684   9.104
    8AU     LIG 4059  42.769  26.587   9.471
    8AU     LIG 4060  43.137  26.656   9.782
    8AU     LIG 4061  43.479  26.953   9.955
    8AU    AUSL 4062  41.032  25.905   6.921
    8AU    AUSL 4063  40.900  26.321   6.894
    8AU     AUL 4064  41.027  26.341   6.603
    8AU       S 4065  41.283  25.958   6.611
    8AU     LIG 4066  41.577  25.851   6.275
    8AU     LIG 4067  41.631  25.641   5.862
    8AU     LIG 4068  41.705  25.488   5.424
    8AU     LIG 4069  42.010  25.484   5.058
    8AU     LIG 4070  42.415  25.451   4.792
    8AU     LIG 4071  42.695  25.338   4.414
    8AU       S 4072  41.371  26.593   6.780
    8AU     LIG 4073  41.612  26.566   6.402
    8AU     LIG 4074  41.854  26.747   6.038
    8AU     LIG 4075  42.051  26.923   5.638
    8AU     LIG 4076  42.069  27.259   5.285
    8AU     LIG 4077  42.177  27.647   5.026
    8AU     LIG 4078  42.257  27.956   4.681
    8AU    AUSL 4079  40.846  25.593   6.700
    8AU    AUSL 4080  41.315  25.635   7.004
    8AU     AUL 4081  41.175  25.538   6.728
    8AU       S 4082  41.592  25.316   6.840
    8AU     LIG 4083  41.727  24.825   6.679
    8AU     LIG 4084  41.837  24.529   6.325
    8AU     LIG 4085  42.024  24.249   5.989
    8AU     LIG 4086  42.279  23.998   5.678
    8AU     LIG 4087  42.611  24.051   5.331
    8AU     LIG 4088  43.008  24.150   5.068
    8AU       S 4089  41.081  25.776   6.355
    8AU     LIG 4090  41.268  25.434   6.193
    8AU     LIG 4091  41.303  25.259   5.759
    8AU     LIG 4092  41.272  25.219   5.291
    8AU     LIG 4093  41.173  24.982   4.890
    8AU     LIG 4094  41.236  24.887   4.437
    8AU     LIG 4095  41.477  24.870   4.031
    8AU    AUSL 4096  40.736  26.017   6.676
    8AU    AUSL 4097  40.505  25.730   6.872
    8AU     AUL 4098  40.639  25.747   6.489
    8AU       S 4099  40.200  25.786   6.364
    8AU     LIG 4100  40.051  25.570   5.969
    8AU     LIG 4101  39.921  25.403   5.554
    8AU     LIG 4102  39.783  25.193   5.143
    8AU     LIG 4103  39.804  24.836   4.791
    8AU     LIG 4104  39.835  24.769   4.312
    8AU     LIG 4105  39.844  25.031   3.906
    8AU       S 4106  41.066  25.916   6.437
    8AU     LIG 4107  41.196  25.924   5.917
    8AU     LIG 4108  41.245  25.714   5.498
    8AU     LIG 4109  41.363  25.682   5.039
    8AU     LIG 4110  41.366  25.854   4.588
    8AU     LIG 4111  41.390  26.072   4.171
    8AU     LIG 4112  41.603  26.138   3.747
    8AU    AUSL 4113  40.166  25.994   8.171
    8AU    AUSL 4114  40.431  26.333   8.088
    8AU     AUL 4115  40.385  26.272   8.423
    8AU       S 4116  40.084  25.982   8.650
    8AU     LIG 4117  39.881  25.596   8.870
    8AU     LIG 4118  39.664  25.368   9.218
    8AU     LIG 4119  39.422  25.228   9.608
    8AU     LIG 4120  39.136  25.303   9.982
    8AU     LIG 4121  38.928  25.438  10.390
    8AU     LIG 4122  38.655  25.416  10.786
    8AU       S 4123  40.008  26.448   8.233
    8AU     LIG 4124  39.997  26.477   8.689
    8AU     LIG 4125  39.912  26.766   9.047
    8AU     LIG 4126  39.665  27.042   9.349
    8AU     LIG 4127  39.573  27.181   9.807
    8AU     LIG 4128  39.431  27.474  10.161
    8AU     LIG 4129  39.202  27.724  10.497
    8AU    AUSL 4130  40.458  25.744   8.017
    8AU    AUSL 4131  39.943  25.698   7.994
    8AU     AUL 4132  39.994  25.834   8.226
    8AU       S 4133  39.720  25.462   8.271
    8AU     LIG 4134  39.342  25.172   8.143
    8AU     LIG 4135  39.067  24.786   8.299
    8AU     LIG 4136  38.720  24.472   8.478
    8AU     LIG 4137  38.373  24.409   8.804
    8AU     LIG 4138  38.173  24.152   9.154
    8AU     LIG 4139  38.250  24.028   9.601
    8AU       S 4140  40.268  25.723   8.579
    8AU     LIG 4141  40.326  25.336   8.759
    8AU     LIG 4142  40.169  25.240   9.195
    8AU     LIG 4143  39.945  25.223   9.637
    8AU     LIG 4144  39.691  25.092  10.033
    8AU     LIG 4145  39.612  24.909  10.475
    8AU     LIG 4146  39.556  24.953  10.947
    8AU    AUSL 4147  40.100  25.739   6.821
    8AU    AUSL 4148  40.319  25.373   6.927
    8AU     AUL 4149  40.361  25.431   6.640
    8AU       S 4150  40.029  25.692   6.459
    8AU     LIG 4151  39.690  25.851   6.227
    8AU     LIG 4152  39.634  25.839   5.779
    8AU     LIG 4153  39.473  25.594   5.407
    8AU     LIG 4154  39.121  25.503   5.102
    8AU     LIG 4155  38.861  25.450   4.698
    8AU     LIG 4156  38.793  25.517   4.220
    8AU       S 4157  39.964  25.245   6.784
    8AU     LIG 4158  39.826  24.756   6.723
    8AU     LIG 4159  39.388  24.579   6.641
    8AU     LIG 4160  39.122  24.350   6.318
    8AU     LIG 4161  39.138  24.081   5.924
    8AU     LIG 4162  38.973  23.887   5.522
    8AU     LIG 4163  38.982  23.648   5.103
    8AU    AUSL 4164  40.338  26.080   6.714
    8AU    AUSL 4165  40.017  26.107   6.975
    8AU     AUL 4166  39.861  25.982   6.764
    8AU       S 4167  39.970  26.420   6.683
    8AU     LIG 4168  39.651  26.317   6.421
    8AU     LIG 4169  39.579  26.359   5.963
    8AU     LIG 4170  39.361  26.702   5.681
    8AU     LIG 4171  39.162  26.875   5.269
    8AU     LIG 4172  38.781  27.032   4.998
    8AU     LIG 4173  38.455  27.368   4.890
    8AU       S 4174  40.262  26.032   6.491
    8AU     LIG 4175  40.082  26.091   6.003
    8AU     LIG 4176  40.088  25.899   5.559
    8AU     LIG 4177  39.929  25.733   5.137
    8AU     LIG 4178  39.850  25.954   4.703
    8AU     LIG 4179  39.795  26.187   4.270
    8AU     LIG 4180  39.759  26.290   3.788
    8AU    AUSL 4181  41.331  26.366   7.443
    8AU    AUSL 4182  41.268  26.209   7.050
    8AU     AUL 4183  41.316  26.651   7.264
    8AU       S 4184  41.442  26.339   6.868
    8AU     LIG 4185  41.772  26.144   6.647
    8AU     LIG 4186  42.071  26.329   6.315
    8AU     LIG 4187  42.349  26.623   6.031
    8AU     LIG 4188  42.677  26.738   5.694
    8AU     LIG 4189  43.085  26.821   5.448
    8AU     LIG 4190  43.435  27.046   5.210
    8AU       S 4191  41.701  26.390   7.303
    8AU     LIG 4192  41.989  26.591   7.625
    8AU     LIG 4193  42.458  26.567   7.617
    8AU     LIG 4194  42.919  26.569   7.519
    8AU     LIG 4195  43.288  26.885   7.488
    8AU     LIG 4196  43.486  27.340   7.489
    8AU     LIG 4197  43.817  27.689   7.442
    8AU    AUSL 4198  41.457  25.952   7.298
    8AU    AUSL 4199  41.477  25.708   7.684
    8AU     AUL 4200  41.762  25.814   7.557
    8AU       S 4201  41.711  26.037   7.151
    8AU     LIG 4202  42.154  26.180   7.009
    8AU     LIG 4203  42.581  26.267   7.194
    8AU     LIG 4204  43.027  26.130   7.262
    8AU     LIG 4205  43.487  26.206   7.351
    8AU     LIG 4206  43.906  26.291   7.121
    8AU     LIG 4207  44.301  26.489   6.934
    8AU       S 4208  41.760  25.334   7.639
    8AU     LIG 4209  42.198  25.211   7.631
    8AU     LIG 4210  42.590  24.963   7.677
    8AU     LIG 4211  43.017  24.769   7.719
    8AU     LIG 4212  43.493  24.786   7.742
    8AU     LIG 4213  43.828  24.760   8.063
    8AU     LIG 4214  44.232  24.978   8.116
    8AU    AUSL 4215  41.219  26.013   7.631
    8AU    AUSL 4216  41.239  26.373   7.845
    8AU     AUL 4217  41.516  26.206   7.698
    8AU       S 4218  41.480  26.262   8.137
    8AU     LIG 4219  41.665  26.613   8.045
    8AU     LIG 4220  41.930  26.828   8.369
    8AU     LIG 4221  42.228  27.054   8.679
    8AU     LIG 4222  42.512  27.440   8.785
    8AU     LIG 4223  42.759  27.868   8.790
    8AU     LIG 4224  42.777  28.321   8.910
    8AU       S 4225  41.796  26.246   7.337
    8AU     LIG 4226  42.189  26.118   7.530
    8AU     LIG 4227  42.648  26.089   7.671
    8AU     LIG 4228  43.102  26.139   7.764
    8AU     LIG 4229  43.530  26.076   7.896
    8AU     LIG 4230  43.960  26.173   8.028
    8AU     LIG 4231  44.295  26.485   8.116
    8AU    AUSL 4232  40.017  26.470   7.517
    8AU    AUSL 4233  40.127  26.217   7.835
    8AU     AUL 4234  39.828  26.584   7.759
    8AU       S 4235  39.850  26.319   8.136
    8AU     LIG 4236  39.535  26.412   8.470
    8AU     LIG 4237  39.512  26.458   8.932
    8AU     LIG 4238  39.222  26.590   9.291
    8AU     LIG 4239  38.867  26.789   9.570
    8AU     LIG 4240  38.467  26.927   9.835
    8AU     LIG 4241  38.045  27.083  10.020
    8AU       S 4242  39.478  26.381   7.552
    8AU     LIG 4243  39.301  26.783   7.726
    8AU     LIG 4244  39.019  27.168   7.740
    8AU     LIG 4245  38.805  27.604   7.700
    8AU     LIG 4246  38.480  27.976   7.774
    8AU     LIG 4247  38.054  28.006   7.582
    8AU     LIG 4248  37.758  28.113   7.248
    8AU    AUSL 4249  40.050  26.102   7.369
    8AU    AUSL 4250  40.177  26.446   7.135
    8AU     AUL 4251  39.890  26.419   7.155
    8AU       S 4252  39.523  26.447   7.414
    8AU     LIG 4253  39.411  26.327   6.951
    8AU     LIG 4254  38.947  26.283   6.767
    8AU     LIG 4255  38.488  26.537   6.782
    8AU     LIG 4256  38.056  26.765   6.909
    8AU     LIG 4257  37.588  26.835   6.805
    8AU     LIG 4258  37.116  26.913   6.657
    8AU       S 4259  40.101  26.505   6.698
    8AU     LIG 4260  40.008  26.931   6.532
    8AU     LIG 4261  39.852  27.223   6.189
    8AU     LIG 4262  39.680  27.667   6.112
    8AU     LIG 4263  39.291  27.916   5.940
    8AU     LIG 4264  38.919  28.231   5.842
    8AU     LIG 4265  38.663  28.635   5.902
    8AU    AUSL 4266  39.791  26.056   7.690
    8AU    AUSL 4267  39.799  25.791   7.300
    8AU     AUL 4268  39.673  26.038   7.283
    8AU       S 4269  39.459  25.693   7.520
    8AU     LIG 4270  39.110  25.368   7.709
    8AU     LIG 4271  38.651  25.414   7.703
    8AU     LIG 4272  38.276  25.682   7.620
    8AU     LIG 4273  37.890  25.625   7.427
    8AU     LIG 4274  37.663  25.225   7.347
    8AU     LIG 4275  37.415  24.897   7.090
    8AU       S 4276  39.616  26.143   7.747
    8AU     LIG 4277  39.312  26.361   8.019
    8AU     LIG 4278  39.034  26.597   8.334
    8AU     LIG 4279  38.532  26.646   8.283
    8AU     LIG 4280  38.017  26.679   8.232
    8AU     LIG 4281  37.610  26.937   8.148
    8AU     LIG 4282  37.288  27.236   8.349
    8AU    AUSL 4283  41.286  25.328   7.604
    8AU    AUSL 4284  41.201  25.575   7.944
    8AU     AUL 4285  41.509  25.524   7.979
    8AU       S 4286  41.475  25.110   7.584
    8AU     LIG 4287  41.685  24.766   7.662
    8AU     LIG 4288  42.124  24.692   7.634
    8AU     LIG 4289  42.519  24.471   7.545
    8AU     LIG 4290  42.948  24.292   7.514
    8AU     LIG 4291  43.369  24.074   7.467
    8AU     LIG 4292  43.735  23.804   7.648
    8AU       S 4293  41.191  25.183   8.024
    8AU     LIG 4294  41.585  25.101   8.241
    8AU     LIG 4295  41.769  24.767   8.491
    8AU     LIG 4296  41.945  24.438   8.776
    8AU     LIG 4297  42.196  24.158   9.073
    8AU     LIG 4298  42.571  24.140   9.392
    8AU     LIG 4299  42.910  24.182   9.744
    8AU    AUSL 4300  41.187  25.665   7.389
    8AU    AUSL 4301  41.209  25.289   7.205
    8AU     AUL 4302  41.506  25.500   7.260
    8AU       S 4303  41.463  25.231   7.616
    8AU     LIG 4304  41.871  25.047   7.267
    8AU     LIG 4305  42.345  24.902   7.219
    8AU     LIG 4306  42.817  24.757   7.240
    8AU     LIG 4307  43.281  24.616   7.297
    8AU     LIG 4308  43.726  24.617   7.220
    8AU     LIG 4309  44.135  24.481   7.021
    8AU       S 4310  41.419  25.069   7.089
    8AU     LIG 4311  41.265  24.684   6.905
    8AU     LIG 4312  41.512  24.319   6.674
    8AU     LIG 4313  41.789  24.010   6.394
    8AU     LIG 4314  42.059  23.731   6.084
    8AU     LIG 4315  42.350  23.371   5.917
    8AU     LIG 4316  42.755  23.117   5.992
    8AU    AUSL 4317  39.901  25.438   7.503
    8AU    AUSL 4318  40.158  25.632   7.201
    8AU     AUL 4319  39.779  25.564   7.123
    8AU       S 4320  39.870  25.212   6.866
    8AU     LIG 4321  39.433  25.191   6.922
    8AU     LIG 4322  39.039  24.953   6.824
    8AU     LIG 4323  38.769  24.663   6.531
    8AU     LIG 4324  38.436  24.533   6.190
    8AU     LIG 4325  38.218  24.670   5.785
    8AU     LIG 4326  38.033  24.604   5.363
    8AU       S 4327  39.537  25.553   7.505
    8AU     LIG 4328  39.487  25.147   7.456
    8AU     LIG 4329  39.062  24.963   7.369
    8AU     LIG 4330  38.591  24.891   7.529
    8AU     LIG 4331  38.090  24.804   7.611
    8AU     LIG 4332  37.662  24.612   7.752
    8AU     LIG 4333  37.441  24.220   7.926
    8AU    AUSL 4334  40.080  25.780   7.630
    8AU    AUSL 4335  40.169  25.408   7.808
    8AU     AUL 4336  39.840  25.422   7.814
    8AU       S 4337  39.831  25.269   8.242
    8AU     LIG 4338  39.742  24.930   7.935
    8AU     LIG 4339  39.357  24.626   7.907
    8AU     LIG 4340  38.998  24.300   8.068
    8AU     LIG 4341  38.701  23.956   8.281
    8AU     LIG 4342  38.337  23.608   8.373
    8AU     LIG 4343  38.067  23.359   8.686
    8AU       S 4344  39.528  25.695   7.584
    8AU     LIG 4345  39.140  25.480   7.225
    8AU     LIG 4346  38.705  25.296   7.168
    8AU     LIG 4347  38.261  25.244   7.375
    8AU     LIG 4348  37.984  25.269   7.772
    8AU     LIG 4349  37.560  25.122   7.887
    8AU     LIG 4350  37.125  25.079   8.066
    8AU    AUSL 4351  40.771  26.552   8.018
    8AU    AUSL 4352  40.270  26.606   7.813
    8AU     AUL 4353  40.498  26.701   8.119
    8AU       S 4354  40.066  26.578   8.155
    8AU     LIG 4355  39.785  26.864   8.431
    8AU     LIG 4356  39.642  27.134   8.806
    8AU     LIG 4357  39.476  27.535   9.025
    8AU     LIG 4358  39.199  27.946   9.076
    8AU     LIG 4359  38.901  28.345   9.127
    8AU     LIG 4360  38.771  28.824   9.182
    8AU       S 4361  40.905  26.941   8.081
    8AU     LIG 4362  41.038  27.286   8.371
    8AU     LIG 4363  41.016  27.726   8.591
    8AU     LIG 4364  41.023  28.171   8.792
    8AU     LIG 4365  41.228  28.546   9.024
    8AU     LIG 4366  41.460  28.734   9.404
    8AU     LIG 4367  41.403  28.992   9.798
    8AU    AUSL 4368  40.603  26.464   7.650
    8AU    AUSL 4369  40.817  26.675   7.299
    8AU     AUL 4370  40.624  26.886   7.676
    8AU       S 4371  40.991  26.982   7.915
    8AU     LIG 4372  40.876  27.457   7.915
    8AU     LIG 4373  40.748  27.860   8.173
    8AU     LIG 4374  40.699  28.280   8.397
    8AU     LIG 4375  40.440  28.708   8.410
    8AU     LIG 4376  40.264  29.092   8.580
    8AU     LIG 4377  40.289  29.521   8.576
    8AU       S 4378  40.854  26.977   7.261
    8AU     LIG 4379  41.111  27.187   6.927
    8AU     LIG 4380  41.181  27.630   6.691
    8AU     LIG 4381  41.286  28.126   6.580
    8AU     LIG 4382  41.396  28.591   6.452
    8AU     LIG 4383  41.472  29.079   6.455
    8AU     LIG 4384  41.484  29.557   6.579
    8AU    AUSL 4385  40.985  26.603   7.651
    8AU    AUSL 4386  40.884  26.178   7.900
    8AU     AUL 4387  41.106  26.527   8.039
    8AU       S 4388  41.411  26.040   8.112
    8AU     LIG 4389  41.366  26.574   8.466
    8AU     LIG 4390  41.653  26.746   8.805
    8AU     LIG 4391  41.977  26.926   9.119
    8AU     LIG 4392  42.123  27.217   9.484
    8AU     LIG 4393  42.125  27.534   9.858
    8AU     LIG 4394  42.245  27.850  10.192
    8AU       S 4395  41.112  26.861   7.700
    8AU     LIG 4396  41.376  27.265   7.907
    8AU     LIG 4397  41.316  27.664   8.166
    8AU     LIG 4398  41.189  28.109   8.282
    8AU     LIG 4399  41.285  28.505   8.491
    8AU     LIG 4400  41.248  28.955   8.602
    8AU     LIG 4401  41.214  29.405   8.718
    8AU    AUSL 4402  40.543  25.287   7.946
    8AU    AUSL 4403  40.902  25.385   7.714
    8AU     AUL 4404  40.720  25.144   8.163
    8AU       S 4405  40.507  24.758   8.023
    8AU     LIG 4406  40.292  24.440   8.270
    8AU     LIG 4407  40.093  24.039   8.297
    8AU     LIG 4408  40.111  23.583   8.364
    8AU     LIG 4409  40.187  23.272   8.720
    8AU     LIG 4410  40.425  22.957   8.998
    8AU     LIG 4411  40.417  22.474   8.953
    8AU       S 4412  41.129  24.971   7.886
    8AU     LIG 4413  41.422  24.636   8.097
    8AU     LIG 4414  41.608  24.284   8.393
    8AU     LIG 4415  41.841  23.947   8.661
    8AU     LIG 4416  42.088  23.644   8.935
    8AU     LIG 4417  42.261  23.198   9.042
    8AU     LIG 4418  42.599  22.869   9.005
    8AU    AUSL 4419  40.314  25.075   7.643
    8AU    AUSL 4420  40.267  25.448   8.203
    8AU     AUL 4421  40.216  25.118   7.988
    8AU       S 4422  40.325  24.687   7.831
    8AU     LIG 4423  40.133  24.232   7.802
    8AU     LIG 4424  39.929  23.767   7.889
    8AU     LIG 4425  39.649  23.446   8.132
    8AU     LIG 4426  39.535  22.968   8.133
    8AU     LIG 4427  39.683  22.562   8.378
    8AU     LIG 4428  39.589  22.093   8.429
    8AU       S 4429  40.053  25.369   8.332
    8AU     LIG 4430  40.038  24.870   8.398
    8AU     LIG 4431  39.616  24.628   8.367
    8AU     LIG 4432  39.241  24.353   8.527
    8AU     LIG 4433  38.920  24.075   8.753
    8AU     LIG 4434  38.820  23.826   9.142
    8AU     LIG 4435  38.876  23.744   9.610
    8AU    AUSL 4436  40.725  25.027   7.686
    8AU    AUSL 4437  40.513  25.248   7.329
    8AU     AUL 4438  40.427  24.893   7.431
    8AU       S 4439  40.696  24.741   7.098
    8AU     LIG 4440  40.217  24.588   7.098
    8AU     LIG 4441  40.010  24.161   7.123
    8AU     LIG 4442  39.966  23.676   7.039
    8AU     LIG 4443  39.812  23.219   6.915
    8AU     LIG 4444  39.786  22.748   6.803
    8AU     LIG 4445  39.594  22.524   6.456
    8AU       S 4446  40.656  24.801   7.822
    8AU     LIG 4447  40.638  24.285   7.912
    8AU     LIG 4448  40.438  23.828   7.957
    8AU     LIG 4449  40.364  23.334   7.977
    8AU     LIG 4450  40.475  22.851   8.043
    8AU     LIG 4451  40.619  22.405   8.264
    8AU     LIG 4452  40.828  22.251   8.659
    8AU    AUSL 4453  40.582  26.555   6.982
    8AU    AUSL 4454  40.957  26.297   7.302
    8AU     AUL 4455  40.951  26.618   6.983
    8AU       S 4456  40.648  26.966   6.907
    8AU     LIG 4457  40.764  27.333   6.558
    8AU     LIG 4458  41.027  27.566   6.189
    8AU     LIG 4459  41.190  28.039   6.077
    8AU     LIG 4460  41.234  28.515   5.966
    8AU     LIG 4461  41.295  28.877   5.653
    8AU     LIG 4462  41.210  28.924   5.180
    8AU       S 4463  41.360  26.308   6.961
    8AU     LIG 4464  41.857  26.589   6.871
    8AU     LIG 4465  42.095  26.811   6.501
    8AU     LIG 4466  42.345  27.130   6.217
    8AU     LIG 4467  42.605  27.565   6.154
    8AU     LIG 4468  42.831  28.007   6.046
    8AU     LIG 4469  42.908  28.364   5.724
    8AU    AUSL 4470  40.405  26.673   7.371
    8AU    AUSL 4471  40.478  26.183   7.073
    8AU     AUL 4472  40.307  26.676   7.060
    8AU       S 4473  40.611  26.995   7.218
    8AU     LIG 4474  40.684  27.452   7.058
    8AU     LIG 4475  40.497  27.766   6.751
    8AU     LIG 4476  40.529  28.283   6.688
    8AU     LIG 4477  40.580  28.782   6.577
    8AU     LIG 4478  40.633  29.247   6.436
    8AU     LIG 4479  40.322  29.590   6.312
    8AU       S 4480  40.323  26.518   6.603
    8AU     LIG 4481  40.053  26.559   6.189
    8AU     LIG 4482  39.857  26.785   5.817
    8AU     LIG 4483  39.738  26.836   5.343
    8AU     LIG 4484  39.686  27.063   4.931
    8AU     LIG 4485  39.600  27.410   4.626
    8AU     LIG 4486  39.398  27.797   4.465
    8AU    AUSL 4487  40.686  25.203   6.952
    8AU    AUSL 4488  40.123  25.212   7.260
    8AU     AUL 4489  40.346  25.066   7.006
    8AU       S 4490  39.893  25.096   7.132
    8AU     LIG 4491  39.556  24.747   7.154
    8AU     LIG 4492  39.142  24.518   7.088
    8AU     LIG 4493  38.891  24.237   6.795
    8AU     LIG 4494  38.531  24.017   6.570
    8AU     LIG 4495  38.572  23.625   6.249
    8AU     LIG 4496  38.247  23.368   6.063
    8AU       S 4497  40.719  24.812   6.975
    8AU     LIG 4498  40.564  24.364   6.801
    8AU     LIG 4499  40.335  23.939   6.773
    8AU     LIG 4500  40.204  23.508   6.599
    8AU     LIG 4501  40.244  23.246   6.202
    8AU     LIG 4502  40.437  22.928   5.911
    8AU     LIG 4503  40.724  22.801   5.549
    8AU    AUSL 4504  40.886  25.104   7.328
    8AU    AUSL 4505  40.891  25.515   7.094
    8AU     AUL 4506  40.993  25.175   6.938
    8AU       S 4507  40.871  24.858   7.271
    8AU     LIG 4508  40.590  24.399   7.416
    8AU     LIG 4509  40.442  23.918   7.283
    8AU     LIG 4510  40.434  23.443   7.066
    8AU     LIG 4511  40.632  23.007   6.892
    8AU     LIG 4512  40.497  22.522   6.787
    8AU     LIG 4513  40.681  22.048   6.687
    8AU       S 4514  41.441  25.177   6.832
    8AU     LIG 4515  41.241  25.011   6.508
    8AU     LIG 4516  41.317  24.608   6.297
    8AU     LIG 4517  41.494  24.246   6.041
    8AU     LIG 4518  41.698  23.922   5.759
    8AU     LIG 4519  41.941  23.675   5.445
    8AU     LIG 4520  42.153  23.660   5.028
    9AU     AUC 4521   7.201   5.908   7.499
    9AU     AUC 4522   7.464   5.912   7.338
    9AU     AUC 4523   7.456   5.903   7.648
    9AU     AUC 4524   6.951   5.909   7.335
    9AU     AUC 4525   6.941   5.926   7.649
    9AU     AUC 4526   7.048   6.165   7.494
    9AU     AUC 4527   7.360   6.164   7.483
    9AU     AUC 4528   7.051   5.651   7.510
    9AU     AUC 4529   7.344   5.655   7.520
    9AU     AUC 4530   7.195   5.760   7.760
    9AU     AUC 4531   7.215   6.072   7.753
    9AU     AUC 4532   7.204   5.744   7.243
    9AU     AUC 4533   7.191   6.047   7.236
    9AU     AUC 4534   7.712   5.908   7.177
    9AU     AUC 4535   7.720   5.917   7.486
    9AU     AUC 4536   7.715   5.908   7.795
    9AU     AUC 4537   6.692   5.894   7.183
    9AU     AUC 4538   6.684   5.921   7.491
    9AU     AUC 4539   6.693   5.941   7.809
    9AU     AUC 4540   6.904   6.430   7.497
    9AU     AUC 4541   7.211   6.431   7.490
    9AU     AUC 4542   7.504   6.427   7.485
    9AU     AUC 4543   6.873   5.395   7.516
    9AU     AUC 4544   7.189   5.386   7.507
    9AU     AUC 4545   7.504   5.392   7.526
    9AU     AUC 4546   7.182   5.608   8.013
    9AU     AUC 4547   7.203   5.918   8.025
    9AU     AUC 4548   7.221   6.227   8.015
    9AU     AUC 4549   7.208   5.570   7.007
    9AU     AUC 4550   7.214   5.886   6.976
    9AU     AUC 4551   7.188   6.193   6.972
    9AU     AUC 4552   7.469   5.764   7.923
    9AU     AUC 4553   7.470   6.056   7.915
    9AU     AUC 4554   7.477   5.739   7.083
    9AU     AUC 4555   7.472   6.046   7.069
    9AU     AUC 4556   6.931   5.777   7.924
    9AU     AUC 4557   6.951   6.087   7.925
    9AU     AUC 4558   6.957   5.741   7.069
    9AU     AUC 4559   6.940   6.047   7.074
    9AU     AUC 4560   7.613   6.177   7.316
    9AU     AUC 4561   7.629   6.158   7.635
    9AU     AUC 4562   6.780   6.161   7.346
    9AU     AUC 4563   6.793   6.187   7.665
    9AU     AUC 4564   7.617   5.646   7.350
    9AU     AUC 4565   7.620   5.652   7.668
    9AU     AUC 4566   6.781   5.652   7.338
    9AU     AUC 4567   6.786   5.663   7.678
    9AU     AUC 4568   7.054   6.329   7.766
    9AU     AUC 4569   7.372   6.336   7.735
    9AU     AUC 4570   7.028   5.487   7.755
    9AU     AUC 4571   7.347   5.500   7.786
    9AU     AUC 4572   7.036   6.317   7.232
    9AU     AUC 4573   7.353   6.310   7.216
    9AU     AUC 4574   7.032   5.491   7.242
    9AU     AUC 4575   7.362   5.482   7.267
    9AU    AUSL 4576   7.551   5.860   8.096
    9AU    AUSL 4577   7.512   5.439   8.134
    9AU     AUL 4578   7.747   5.520   8.399
    9AU       S 4579   7.784   5.160   8.062
    9AU     LIG 4580   7.708   4.997   8.465
    9AU     LIG 4581   7.748   4.570   8.628
    9AU     LIG 4582   8.011   4.272   8.881
    9AU     LIG 4583   8.247   3.970   9.178
    9AU     LIG 4584   8.187   3.747   9.625
    9AU     LIG 4585   8.165   3.602  10.096
    9AU       S 4586   7.597   5.879   8.653
    9AU     LIG 4587   7.861   5.632   8.911
    9AU     LIG 4588   8.050   5.474   9.316
    9AU     LIG 4589   8.322   5.331   9.672
    9AU     LIG 4590   8.721   5.286   9.937
    9AU     LIG 4591   9.007   5.270  10.312
    9AU     LIG 4592   9.171   5.270  10.763
    9AU    AUSL 4593   7.272   5.700   8.351
    9AU    AUSL 4594   7.133   6.087   8.284
    9AU     AUL 4595   7.187   6.062   8.703
    9AU       S 4596   7.344   5.698   8.502
    9AU     LIG 4597   7.424   5.360   8.770
    9AU     LIG 4598   7.609   5.228   9.207
    9AU     LIG 4599   7.774   5.126   9.671
    9AU     LIG 4600   7.884   4.949  10.124
    9AU     LIG 4601   7.913   4.844  10.600
    9AU     LIG 4602   7.995   4.775  11.069
    9AU       S 4603   6.843   5.789   8.614
    9AU     LIG 4604   6.824   5.705   9.086
    9AU     LIG 4605   6.594   5.633   9.501
    9AU     LIG 4606   6.396   5.620   9.936
    9AU     LIG 4607   6.341   5.904  10.332
    9AU     LIG 4608   6.332   6.132  10.761
    9AU     LIG 4609   6.245   6.293  11.212
    9AU    AUSL 4610   7.512   6.219   8.283
    9AU    AUSL 4611   7.851   6.113   7.967
    9AU     AUL 4612   7.843   5.950   8.282
    9AU       S 4613   7.543   6.246   8.473
    9AU     LIG 4614   7.834   6.282   8.841
    9AU     LIG 4615   7.968   6.487   9.269
    9AU     LIG 4616   7.922   6.568   9.756
    9AU     LIG 4617   7.914   6.727  10.218
    9AU     LIG 4618   7.844   6.843  10.678
    9AU     LIG 4619   8.013   6.734  11.110
    9AU       S 4620   8.133   6.174   8.003
    9AU     LIG 4621   8.323   6.118   8.418
    9AU     LIG 4622   8.610   6.365   8.697
    9AU     LIG 4623   8.874   6.673   8.965
    9AU     LIG 4624   9.112   6.770   9.381
    9AU     LIG 4625   9.449   6.736   9.733
    9AU     LIG 4626   9.830   6.946   9.915
    9AU    AUSL 4627   7.745   5.943   6.866
    9AU    AUSL 4628   7.497   6.328   6.820
    9AU     AUL 4629   7.874   6.298   6.459
    9AU       S 4630   7.773   5.968   6.709
    9AU     LIG 4631   8.052   5.863   6.303
    9AU     LIG 4632   8.074   5.640   5.898
    9AU     LIG 4633   8.204   5.499   5.452
    9AU     LIG 4634   8.540   5.420   5.094
    9AU     LIG 4635   8.931   5.349   4.787
    9AU     LIG 4636   9.154   5.336   4.356
    9AU       S 4637   7.499   6.381   6.661
    9AU     LIG 4638   7.796   6.764   6.598
    9AU     LIG 4639   8.155   6.815   6.300
    9AU     LIG 4640   8.427   6.971   5.921
    9AU     LIG 4641   8.485   7.149   5.456
    9AU     LIG 4642   8.568   7.508   5.132
    9AU     LIG 4643   8.619   7.922   4.890
    9AU    AUSL 4644   7.492   5.620   6.716
    9AU    AUSL 4645   7.819   5.570   7.010
    9AU     AUL 4646   7.928   5.567   6.681
    9AU       S 4647   7.888   5.143   6.858
    9AU     LIG 4648   8.034   4.981   6.443
    9AU     LIG 4649   8.289   4.621   6.242
    9AU     LIG 4650   8.554   4.336   5.960
    9AU     LIG 4651   8.942   4.283   5.669
    9AU     LIG 4652   9.344   4.233   5.399
    9AU     LIG 4653   9.726   4.249   5.104
    9AU       S 4654   7.584   5.822   6.448
    9AU     LIG 4655   7.694   5.433   6.246
    9AU     LIG 4656   7.730   5.271   5.797
    9AU     LIG 4657   7.765   5.239   5.316
    9AU     LIG 4658   7.771   5.143   4.843
    9AU     LIG 4659   7.900   4.965   4.417
    9AU     LIG 4660   8.264   4.812   4.137
    9AU    AUSL 4661   7.335   5.966   6.887
    9AU    AUSL 4662   7.092   5.713   6.670
    9AU     AUL 4663   7.284   5.491   6.572
    9AU       S 4664   7.045   5.813   6.334
    9AU     LIG 4665   7.033   5.483   6.047
    9AU     LIG 4666   6.778   5.269   5.698
    9AU     LIG 4667   6.544   5.098   5.306
    9AU     LIG 4668   6.263   4.889   4.967
    9AU     LIG 4669   6.154   4.815   4.509
    9AU     LIG 4670   6.240   4.982   4.075
    9AU       S 4671   7.487   5.938   6.492
    9AU     LIG 4672   7.566   5.857   5.971
    9AU     LIG 4673   7.720   5.721   5.530
    9AU     LIG 4674   7.875   5.696   5.075
    9AU     LIG 4675   7.878   5.946   4.660
    9AU     LIG 4676   7.951   6.165   4.245
    9AU     LIG 4677   8.054   6.287   3.797
    9AU    AUSL 4678   6.749   5.978   8.200
    9AU    AUSL 4679   6.898   6.381   8.132
    9AU     AUL 4680   6.929   6.301   8.428
    9AU       S 4681   6.681   5.961   8.646
    9AU     LIG 4682   6.405   5.594   8.804
    9AU     LIG 4683   6.201   5.441   9.226
    9AU     LIG 4684   5.990   5.407   9.666
    9AU     LIG 4685   5.667   5.331  10.017
    9AU     LIG 4686   5.283   5.483  10.277
    9AU     LIG 4687   5.062   5.646  10.665
    9AU       S 4688   6.472   6.336   8.362
    9AU     LIG 4689   6.536   6.468   8.782
    9AU     LIG 4690   6.494   6.860   9.047
    9AU     LIG 4691   6.299   7.214   9.302
    9AU     LIG 4692   6.210   7.440   9.714
    9AU     LIG 4693   6.027   7.562  10.147
    9AU     LIG 4694   5.857   7.846  10.494
    9AU    AUSL 4695   7.054   5.774   8.021
    9AU    AUSL 4696   6.551   5.688   7.994
    9AU     AUL 4697   6.553   5.805   8.231
    9AU       S 4698   6.384   5.358   8.210
    9AU     LIG 4699   5.960   5.217   8.051
    9AU     LIG 4700   5.586   4.952   8.210
    9AU     LIG 4701   5.362   4.673   8.540
    9AU     LIG 4702   5.128   4.378   8.841
    9AU     LIG 4703   4.851   4.052   9.066
    9AU     LIG 4704   4.481   4.003   9.359
    9AU       S 4705   6.864   5.688   8.571
    9AU     LIG 4706   6.835   5.295   8.761
    9AU     LIG 4707   6.660   5.205   9.200
    9AU     LIG 4708   6.436   5.158   9.638
    9AU     LIG 4709   6.201   5.124  10.070
    9AU     LIG 4710   6.109   4.878  10.494
    9AU     LIG 4711   6.134   4.815  10.979
    9AU    AUSL 4712   6.806   5.867   6.911
    9AU    AUSL 4713   6.946   5.440   6.930
    9AU     AUL 4714   6.768   5.559   6.633
    9AU       S 4715   6.834   5.892   6.304
    9AU     LIG 4716   6.552   5.674   5.998
    9AU     LIG 4717   6.343   5.517   5.577
    9AU     LIG 4718   6.044   5.251   5.292
    9AU     LIG 4719   5.814   5.156   4.880
    9AU     LIG 4720   5.573   5.366   4.525
    9AU     LIG 4721   5.360   5.425   4.105
    9AU       S 4722   6.516   5.165   6.788
    9AU     LIG 4723   6.256   4.782   6.765
    9AU     LIG 4724   5.956   4.492   6.544
    9AU     LIG 4725   5.660   4.218   6.284
    9AU     LIG 4726   5.443   4.077   5.885
    9AU     LIG 4727   5.393   3.880   5.457
    9AU     LIG 4728   5.289   3.546   5.138
    9AU    AUSL 4729   7.040   6.146   6.674
    9AU    AUSL 4730   6.541   6.170   6.979
    9AU     AUL 4731   6.627   6.021   6.686
    9AU       S 4732   6.436   6.434   6.767
    9AU     LIG 4733   6.285   6.457   6.340
    9AU     LIG 4734   6.109   6.689   5.953
    9AU     LIG 4735   5.885   6.808   5.539
    9AU     LIG 4736   5.456   6.876   5.330
    9AU     LIG 4737   5.032   7.087   5.279
    9AU     LIG 4738   4.585   7.213   5.188
    9AU       S 4739   7.040   6.085   6.448
    9AU     LIG 4740   7.069   6.038   5.904
    9AU     LIG 4741   6.827   5.777   5.577
    9AU     LIG 4742   6.638   5.725   5.137
    9AU     LIG 4743   6.616   5.951   4.693
    9AU     LIG 4744   6.475   6.254   4.332
    9AU     LIG 4745   6.240   6.519   4.003
    9AU    AUSL 4746   7.806   6.523   7.423
    9AU    AUSL 4747   7.835   6.281   7.077
    9AU     AUL 4748   7.952   6.745   7.223
    9AU       S 4749   7.980   6.377   6.899
    9AU     LIG 4750   8.348   6.292   6.632
    9AU     LIG 4751   8.584   6.517   6.257
    9AU     LIG 4752   8.909   6.756   5.967
    9AU     LIG 4753   9.307   6.770   5.658
    9AU     LIG 4754   9.733   6.808   5.406
    9AU     LIG 4755   9.948   7.085   5.084
    9AU       S 4756   8.259   6.410   7.343
    9AU     LIG 4757   8.723   6.459   7.491
    9AU     LIG 4758   9.191   6.579   7.525
    9AU     LIG 4759   9.650   6.728   7.551
    9AU     LIG 4760  10.110   6.903   7.589
    9AU     LIG 4761  10.384   7.222   7.844
    9AU     LIG 4762  10.610   7.644   7.856
    9AU    AUSL 4763   8.033   5.966   7.235
    9AU    AUSL 4764   8.037   5.805   7.649
    9AU     AUL 4765   8.322   5.747   7.413
    9AU       S 4766   8.236   6.187   7.298
    9AU     LIG 4767   8.631   6.078   7.157
    9AU     LIG 4768   9.090   6.148   7.248
    9AU     LIG 4769   9.547   6.296   7.260
    9AU     LIG 4770   9.992   6.467   7.269
    9AU     LIG 4771  10.431   6.610   7.251
    9AU     LIG 4772  10.862   6.561   7.058
    9AU       S 4773   8.349   5.339   7.653
    9AU     LIG 4774   8.754   5.094   7.703
    9AU     LIG 4775   9.167   4.824   7.710
    9AU     LIG 4776   9.604   4.587   7.692
    9AU     LIG 4777  10.089   4.542   7.722
    9AU     LIG 4778  10.439   4.513   8.036
    9AU     LIG 4779  10.798   4.634   8.311
    9AU    AUSL 4780   7.826   6.138   7.561
    9AU    AUSL 4781   7.718   6.478   7.822
    9AU     AUL 4782   7.963   6.492   7.696
    9AU       S 4783   7.994   6.370   8.124
    9AU     LIG 4784   8.428   6.568   8.172
    9AU     LIG 4785   8.624   6.852   8.523
    9AU     LIG 4786   8.880   7.222   8.729
    9AU     LIG 4787   9.112   7.672   8.784
    9AU     LIG 4788   9.433   7.990   8.972
    9AU     LIG 4789   9.510   8.467   8.948
    9AU       S 4790   8.281   6.210   7.547
    9AU     LIG 4791   8.590   6.029   7.762
    9AU     LIG 4792   9.059   6.131   7.767
    9AU     LIG 4793   9.528   6.263   7.773
    9AU     LIG 4794   9.993   6.408   7.778
    9AU     LIG 4795  10.448   6.570   7.781
    9AU     LIG 4796  10.763   6.855   8.006
    9AU    AUSL 4797   6.547   6.467   7.579
    9AU    AUSL 4798   6.588   6.217   7.917
    9AU     AUL 4799   6.556   6.671   7.835
    9AU       S 4800   6.392   6.293   8.103
    9AU     LIG 4801   6.048   6.566   8.388
    9AU     LIG 4802   6.038   6.742   8.832
    9AU     LIG 4803   5.840   6.868   9.256
    9AU     LIG 4804   5.452   6.861   9.573
    9AU     LIG 4805   5.072   6.979   9.863
    9AU     LIG 4806   4.714   7.085  10.174
    9AU       S 4807   6.184   6.463   7.674
    9AU     LIG 4808   6.092   6.877   7.450
    9AU     LIG 4809   5.758   7.262   7.420
    9AU     LIG 4810   5.389   7.621   7.437
    9AU     LIG 4811   4.960   7.865   7.514
    9AU     LIG 4812   4.555   8.061   7.686
    9AU     LIG 4813   4.104   8.048   7.483
    9AU    AUSL 4814   6.610   6.125   7.370
    9AU    AUSL 4815   6.697   6.528   7.202
    9AU     AUL 4816   6.412   6.453   7.241
    9AU       S 4817   6.057   6.380   7.552
    9AU     LIG 4818   5.903   6.497   7.117
    9AU     LIG 4819   5.478   6.647   6.865
    9AU     LIG 4820   5.011   6.804   6.690
    9AU     LIG 4821   4.537   6.983   6.553
    9AU     LIG 4822   4.033   7.038   6.520
    9AU     LIG 4823   3.736   7.279   6.817
    9AU       S 4824   6.522   6.683   6.832
    9AU     LIG 4825   6.425   6.941   6.434
    9AU     LIG 4826   6.315   7.287   6.097
    9AU     LIG 4827   6.256   7.746   5.909
    9AU     LIG 4828   6.091   8.216   5.894
    9AU     LIG 4829   5.749   8.559   5.845
    9AU     LIG 4830   5.290   8.657   5.722
    9AU    AUSL 4831   6.346   6.021   7.671
    9AU    AUSL 4832   6.382   5.796   7.308
    9AU     AUL 4833   6.211   6.052   7.280
    9AU       S 4834   6.038   5.601   7.439
    9AU     LIG 4835   5.596   5.591   7.667
    9AU     LIG 4836   5.086   5.572   7.619
    9AU     LIG 4837   4.616   5.630   7.447
    9AU     LIG 4838   4.292   5.303   7.189
    9AU     LIG 4839   3.801   5.284   7.108
    9AU     LIG 4840   3.335   5.088   7.033
    9AU       S 4841   6.160   6.045   7.756
    9AU     LIG 4842   5.867   6.256   8.025
    9AU     LIG 4843   5.541   6.569   8.196
    9AU     LIG 4844   5.105   6.803   8.229
    9AU     LIG 4845   4.649   6.995   8.198
    9AU     LIG 4846   4.195   6.922   8.273
    9AU     LIG 4847   3.819   7.204   8.275
    9AU    AUSL 4848   7.893   5.412   7.572
    9AU    AUSL 4849   7.842   5.623   7.951
    9AU     AUL 4850   8.155   5.673   7.906
    9AU       S 4851   8.042   5.157   7.548
    9AU     LIG 4852   8.277   4.852   7.783
    9AU     LIG 4853   8.666   4.592   7.647
    9AU     LIG 4854   9.070   4.376   7.478
    9AU     LIG 4855   9.500   4.185   7.376
    9AU     LIG 4856   9.947   4.080   7.474
    9AU     LIG 4857  10.365   3.928   7.363
    9AU       S 4858   7.883   5.304   8.028
    9AU     LIG 4859   8.206   5.040   8.288
    9AU     LIG 4860   8.260   4.684   8.608
    9AU     LIG 4861   8.517   4.372   8.882
    9AU     LIG 4862   8.856   4.285   9.215
    9AU     LIG 4863   9.197   4.413   9.547
    9AU     LIG 4864   9.486   4.412   9.930
    9AU    AUSL 4865   7.738   5.733   7.370
    9AU    AUSL 4866   7.667   5.271   7.263
    9AU     AUL 4867   8.014   5.482   7.189
    9AU       S 4868   8.088   5.320   7.597
    9AU     LIG 4869   8.437   5.014   7.294
    9AU     LIG 4870   8.915   4.839   7.257
    9AU     LIG 4871   9.408   4.692   7.233
    9AU     LIG 4872   9.907   4.536   7.232
    9AU     LIG 4873  10.388   4.371   7.098
    9AU     LIG 4874  10.872   4.371   6.925
    9AU       S 4875   7.911   5.038   7.064
    9AU     LIG 4876   7.949   4.628   6.811
    9AU     LIG 4877   8.120   4.251   6.561
    9AU     LIG 4878   8.396   3.956   6.306
    9AU     LIG 4879   8.668   3.551   6.253
    9AU     LIG 4880   9.005   3.212   6.162
    9AU     LIG 4881   9.394   3.139   5.905
    9AU    AUSL 4882   6.495   5.414   7.464
    9AU    AUSL 4883   6.578   5.563   7.051
    9AU     AUL 4884   6.290   5.639   7.031
    9AU       S 4885   6.506   5.235   7.016
    9AU     LIG 4886   6.027   5.225   6.930
    9AU     LIG 4887   5.729   4.931   6.737
    9AU     LIG 4888   5.488   4.696   6.406
    9AU     LIG 4889   5.184   4.414   6.180
    9AU     LIG 4890   4.957   4.293   5.774
    9AU     LIG 4891   4.672   4.367   5.390
    9AU       S 4892   6.193   5.381   7.407
    9AU     LIG 4893   5.827   5.142   7.550
    9AU     LIG 4894   5.359   5.117   7.616
    9AU     LIG 4895   4.929   4.910   7.706
    9AU     LIG 4896   4.518   4.736   7.488
    9AU     LIG 4897   4.051   4.583   7.416
    9AU     LIG 4898   3.681   4.260   7.424
    9AU    AUSL 4899   6.655   5.769   7.619
    9AU    AUSL 4900   6.743   5.377   7.795
    9AU     AUL 4901   6.368   5.557   7.794
    9AU       S 4902   6.476   5.167   7.997
    9AU     LIG 4903   6.261   4.925   7.753
    9AU     LIG 4904   5.892   4.675   7.911
    9AU     LIG 4905   5.560   4.394   8.156
    9AU     LIG 4906   5.255   4.107   8.425
    9AU     LIG 4907   4.995   3.763   8.665
    9AU     LIG 4908   4.829   3.312   8.752
    9AU       S 4909   6.083   5.651   7.461
    9AU     LIG 4910   5.657   5.473   7.177
    9AU     LIG 4911   5.200   5.362   7.163
    9AU     LIG 4912   4.794   5.185   7.309
    9AU     LIG 4913   4.452   5.207   7.661
    9AU     LIG 4914   3.984   5.271   7.628
    9AU     LIG 4915   3.595   5.330   7.895
    9AU    AUSL 4916   7.234   6.581   8.017
    9AU    AUSL 4917   6.914   6.373   7.726
    9AU     AUL 4918   6.942   6.676   8.101
    9AU       S 4919   6.545   6.514   8.264
    9AU     LIG 4920   6.434   6.892   8.507
    9AU     LIG 4921   6.240   7.234   8.785
    9AU     LIG 4922   6.199   7.671   9.004
    9AU     LIG 4923   5.959   8.098   9.034
    9AU     LIG 4924   5.732   8.483   9.225
    9AU     LIG 4925   5.359   8.752   9.359
    9AU       S 4926   7.293   6.976   7.965
    9AU     LIG 4927   7.433   7.075   8.350
    9AU     LIG 4928   7.465   7.500   8.556
    9AU     LIG 4929   7.441   7.922   8.767
    9AU     LIG 4930   7.355   8.178   9.163
    9AU     LIG 4931   7.392   8.451   9.553
    9AU     LIG 4932   7.247   8.735   9.902
    9AU    AUSL 4933   6.988   6.758   7.657
    9AU    AUSL 4934   7.419   6.744   7.260
    9AU     AUL 4935   7.105   6.993   7.415
    9AU       S 4936   7.133   7.052   7.870
    9AU     LIG 4937   7.235   7.480   8.077
    9AU     LIG 4938   7.255   7.921   8.273
    9AU     LIG 4939   7.343   8.341   8.476
    9AU     LIG 4940   7.183   8.785   8.547
    9AU     LIG 4941   7.035   9.217   8.670
    9AU     LIG 4942   6.880   9.658   8.829
    9AU       S 4943   7.436   7.083   7.087
    9AU     LIG 4944   7.800   7.234   6.882
    9AU     LIG 4945   7.931   7.681   6.752
    9AU     LIG 4946   8.231   8.084   6.767
    9AU     LIG 4947   8.425   8.534   6.749
    9AU     LIG 4948   8.368   8.995   6.642
    9AU     LIG 4949   8.060   9.370   6.601
    9AU    AUSL 4950   7.383   6.603   7.637
    9AU    AUSL 4951   7.404   6.233   7.902
    9AU     AUL 4952   7.556   6.611   8.049
    9AU       S 4953   7.936   6.405   8.229
    9AU     LIG 4954   8.146   6.593   8.591
    9AU     LIG 4955   8.355   6.719   8.984
    9AU     LIG 4956   8.589   6.815   9.382
    9AU     LIG 4957   8.786   7.081   9.720
    9AU     LIG 4958   8.772   7.454  10.029
    9AU     LIG 4959   8.915   7.834  10.275
    9AU       S 4960   7.469   6.917   7.708
    9AU     LIG 4961   7.697   7.268   7.942
    9AU     LIG 4962   7.715   7.699   8.152
    9AU     LIG 4963   7.801   8.133   8.338
    9AU     LIG 4964   8.017   8.576   8.356
    9AU     LIG 4965   8.017   9.066   8.374
    9AU     LIG 4966   7.824   9.508   8.444
    9AU    AUSL 4967   7.174   5.342   7.928
    9AU    AUSL 4968   7.526   5.475   7.728
    9AU     AUL 4969   7.358   5.231   8.194
    9AU       S 4970   7.230   4.805   8.021
    9AU     LIG 4971   7.192   4.507   8.290
    9AU     LIG 4972   6.906   4.173   8.317
    9AU     LIG 4973   6.803   3.752   8.403
    9AU     LIG 4974   6.830   3.306   8.484
    9AU     LIG 4975   6.902   2.951   8.764
    9AU     LIG 4976   6.961   2.771   9.200
    9AU       S 4977   7.814   5.099   7.953
    9AU     LIG 4978   7.891   4.656   8.120
    9AU     LIG 4979   8.092   4.272   8.357
    9AU     LIG 4980   8.329   3.945   8.638
    9AU     LIG 4981   8.575   3.575   8.835
    9AU     LIG 4982   8.977   3.334   8.962
    9AU     LIG 4983   9.419   3.179   9.074
    9AU    AUSL 4984   7.004   5.099   7.654
    9AU    AUSL 4985   6.879   5.457   8.186
    9AU     AUL 4986   6.925   5.143   8.037
    9AU       S 4987   6.977   4.748   7.817
    9AU     LIG 4988   6.760   4.355   7.856
    9AU     LIG 4989   6.585   3.927   7.963
    9AU     LIG 4990   6.563   3.457   8.050
    9AU     LIG 4991   6.468   3.025   8.233
    9AU     LIG 4992   6.346   2.579   8.366
    9AU     LIG 4993   6.241   2.104   8.449
    9AU       S 4994   6.587   5.313   8.291
    9AU     LIG 4995   6.267   4.889   8.339
    9AU     LIG 4996   5.902   4.619   8.465
    9AU     LIG 4997   5.655   4.278   8.695
    9AU     LIG 4998   5.402   3.959   8.951
    9AU     LIG 4999   5.393   3.719   9.360
    9AU     LIG 5000   5.397   3.578   9.817
    9AU    AUSL 5001   7.439   5.084   7.699
    9AU    AUSL 5002   6.945   5.099   7.248
    9AU     AUL 5003   7.255   4.832   7.463
    9AU       S 5004   6.862   4.797   7.128
    9AU     LIG 5005   6.517   4.534   7.152
    9AU     LIG 5006   6.505   4.083   7.174
    9AU     LIG 5007   6.553   3.621   7.077
    9AU     LIG 5008   6.587   3.175   6.905
    9AU     LIG 5009   6.418   2.796   6.684
    9AU     LIG 5010   6.324   2.344   6.695
    9AU       S 5011   7.354   4.871   7.899
    9AU     LIG 5012   7.300   4.369   7.794
    9AU     LIG 5013   7.096   3.940   7.890
    9AU     LIG 5014   7.092   3.486   8.066
    9AU     LIG 5015   7.258   3.076   8.285
    9AU     LIG 5016   7.562   2.693   8.354
    9AU     LIG 5017   7.960   2.421   8.422
    9AU    AUSL 5018   7.184   6.552   6.948
    9AU    AUSL 5019   7.484   6.345   7.253
    9AU     AUL 5020   7.558   6.652   7.006
    9AU       S 5021   7.216   6.835   6.752
    9AU     LIG 5022   7.454   7.141   6.518
    9AU     LIG 5023   7.584   7.556   6.349
    9AU     LIG 5024   7.612   7.779   5.912
    9AU     LIG 5025   7.635   8.111   5.562
    9AU     LIG 5026   7.672   8.557   5.412
    9AU     LIG 5027   7.983   8.857   5.241
    9AU       S 5028   7.923   6.371   6.961
    9AU     LIG 5029   8.266   6.760   6.818
    9AU     LIG 5030   8.596   6.964   6.514
    9AU     LIG 5031   8.785   7.264   6.185
    9AU     LIG 5032   8.970   7.717   6.096
    9AU     LIG 5033   9.315   8.059   6.121
    9AU     LIG 5034   9.647   8.373   5.993
    9AU    AUSL 5035   7.079   6.522   7.343
    9AU    AUSL 5036   6.944   6.246   7.050
    9AU     AUL 5037   6.907   6.719   7.092
    9AU       S 5038   7.252   7.016   6.980
    9AU     LIG 5039   7.319   7.513   6.852
    9AU     LIG 5040   7.158   7.992   6.840
    9AU     LIG 5041   6.987   8.468   6.781
    9AU     LIG 5042   7.084   8.937   6.668
    9AU     LIG 5043   7.159   9.384   6.480
    9AU     LIG 5044   6.911   9.591   6.131
    9AU       S 5045   6.747   6.503   6.709
    9AU     LIG 5046   6.784   6.590   6.284
    9AU     LIG 5047   6.585   6.864   5.931
    9AU     LIG 5048   6.320   7.120   5.590
    9AU     LIG 5049   6.237   7.384   5.164
    9AU     LIG 5050   6.080   7.731   4.839
    9AU     LIG 5051   5.813   8.092   4.640
    9AU    AUSL 5052   7.273   5.204   6.981
    9AU    AUSL 5053   6.871   5.480   7.333
    9AU     AUL 5054   6.960   5.194   6.898
    9AU       S 5055   6.481   5.112   7.109
    9AU     LIG 5056   6.145   4.864   7.259
    9AU     LIG 5057   5.860   4.549   7.056
    9AU     LIG 5058   5.515   4.332   6.774
    9AU     LIG 5059   5.224   4.002   6.540
    9AU     LIG 5060   4.910   3.589   6.572
    9AU     LIG 5061   4.581   3.239   6.444
    9AU       S 5062   7.101   4.775   7.014
    9AU     LIG 5063   6.918   4.358   6.875
    9AU     LIG 5064   6.760   3.949   6.732
    9AU     LIG 5065   6.666   3.536   6.551
    9AU     LIG 5066   6.743   3.106   6.389
    9AU     LIG 5067   6.801   2.868   5.979
    9AU     LIG 5068   6.920   2.658   5.563
    9AU    AUSL 5069   7.280   5.287   7.390
    9AU    AUSL 5070   7.407   5.561   7.099
    9AU     AUL 5071   7.457   5.069   7.141
    9AU       S 5072   6.865   4.903   7.260
    9AU     LIG 5073   6.967   4.398   7.386
    9AU     LIG 5074   6.997   3.932   7.198
    9AU     LIG 5075   7.031   3.508   6.920
    9AU     LIG 5076   7.172   3.075   6.711
    9AU     LIG 5077   7.516   2.708   6.588
    9AU     LIG 5078   7.738   2.344   6.327
    9AU       S 5079   7.679   5.185   6.758
    9AU     LIG 5080   7.538   4.837   6.574
    9AU     LIG 5081   7.777   4.530   6.294
    9AU     LIG 5082   8.035   4.216   6.016
    9AU     LIG 5083   8.120   3.931   5.618
    9AU     LIG 5084   8.289   3.628   5.268
    9AU     LIG 5085   8.634   3.452   4.994
   10AU     AUC 5086  15.997  28.052   7.501
   10AU     AUC 5087  16.264  28.044   7.349
   10AU     AUC 5088  16.248  28.034   7.661
   10AU     AUC 5089  15.750  28.061   7.327
   10AU     AUC 5090  15.732  28.084   7.640
   10AU     AUC 5091  15.856  28.314   7.493
   10AU     AUC 5092  16.167  28.299   7.485
   10AU     AUC 5093  15.834  27.801   7.507
   10AU     AUC 5094  16.129  27.793   7.528
   10AU     AUC 5095  15.978  27.903   7.762
   10AU     AUC 5096  16.012  28.218   7.752
   10AU     AUC 5097  15.997  27.886   7.247
   10AU     AUC 5098  16.001  28.189   7.238
   10AU     AUC 5099  16.517  28.029   7.196
   10AU     AUC 5100  16.516  28.040   7.503
   10AU     AUC 5101  16.496  28.032   7.820
   10AU     AUC 5102  15.493  28.059   7.167
   10AU     AUC 5103  15.480  28.088   7.478
   10AU     AUC 5104  15.484  28.108   7.798
   10AU     AUC 5105  15.722  28.585   7.493
   10AU     AUC 5106  16.029  28.572   7.489
   10AU     AUC 5107  16.324  28.556   7.491
   10AU     AUC 5108  15.647  27.555   7.511
   10AU     AUC 5109  15.960  27.532   7.510
   10AU     AUC 5110  16.277  27.525   7.543
   10AU     AUC 5111  15.956  27.751   8.011
   10AU     AUC 5112  15.989  28.059   8.028
   10AU     AUC 5113  16.020  28.368   8.017
   10AU     AUC 5114  16.000  27.709   7.009
   10AU     AUC 5115  16.018  28.027   6.979
   10AU     AUC 5116  16.010  28.333   6.973
   10AU     AUC 5117  16.245  27.902   7.936
   10AU     AUC 5118  16.255  28.190   7.929
   10AU     AUC 5119  16.275  27.868   7.095
   10AU     AUC 5120  16.286  28.174   7.078
   10AU     AUC 5121  15.708  27.932   7.917
   10AU     AUC 5122  15.746  28.240   7.922
   10AU     AUC 5123  15.753  27.897   7.063
   10AU     AUC 5124  15.751  28.202   7.067
   10AU     AUC 5125  16.425  28.300   7.327
   10AU     AUC 5126  16.430  28.283   7.654
   10AU     AUC 5127  15.592  28.323   7.337
   10AU     AUC 5128  15.599  28.347   7.660
   10AU     AUC 5129  16.406  27.774   7.368
   10AU     AUC 5130  16.398  27.783   7.689
   10AU     AUC 5131  15.570  27.814   7.326
   10AU     AUC 5132  15.562  27.829   7.667
   10AU     AUC 5133  15.861  28.476   7.764
   10AU     AUC 5134  16.178  28.475   7.736
   10AU     AUC 5135  15.797  27.640   7.753
   10AU     AUC 5136  16.115  27.638   7.790
   10AU     AUC 5137  15.856  28.466   7.229
   10AU     AUC 5138  16.174  28.444   7.219
   10AU     AUC 5139  15.818  27.646   7.243
   10AU     AUC 5140  16.146  27.618   7.275
   10AU    AUSL 5141  16.339  28.001   8.184
   10AU    AUSL 5142  16.282  27.573   8.136
   10AU     AUL 5143  16.474  27.577   8.480
   10AU       S 5144  16.573  27.312   8.062
   10AU     LIG 5145  16.438  27.058   8.430
   10AU     LIG 5146  16.509  26.645   8.600
   10AU     LIG 5147  16.737  26.318   8.848
   10AU     LIG 5148  17.016  26.023   9.084
   10AU     LIG 5149  17.131  25.852   9.506
   10AU     LIG 5150  17.136  25.725   9.971
   10AU       S 5151  16.370  27.985   8.378
   10AU     LIG 5152  16.523  27.932   8.839
   10AU     LIG 5153  16.805  27.732   9.208
   10AU     LIG 5154  17.079  27.535   9.584
   10AU     LIG 5155  17.410  27.532   9.953
   10AU     LIG 5156  17.796  27.552  10.256
   10AU     LIG 5157  18.126  27.651  10.599
   10AU    AUSL 5158  15.999  27.791   8.343
   10AU    AUSL 5159  15.939  28.203   8.289
   10AU     AUL 5160  16.063  28.144   8.690
   10AU       S 5161  16.048  27.759   8.481
   10AU     LIG 5162  16.107  27.627   8.879
   10AU     LIG 5163  16.384  27.436   9.227
   10AU     LIG 5164  16.616  27.280   9.632
   10AU     LIG 5165  16.641  27.062  10.073
   10AU     LIG 5166  16.669  26.964  10.545
   10AU     LIG 5167  16.833  26.924  10.994
   10AU       S 5168  15.633  28.001   8.644
   10AU     LIG 5169  15.428  27.900   9.076
   10AU     LIG 5170  15.275  27.770   9.501
   10AU     LIG 5171  15.165  27.789   9.962
   10AU     LIG 5172  15.222  28.019  10.396
   10AU     LIG 5173  15.084  28.279  10.790
   10AU     LIG 5174  14.951  28.456  11.221
   10AU    AUSL 5175  16.290  28.406   8.281
   10AU    AUSL 5176  16.627  28.238   8.001
   10AU     AUL 5177  16.726  28.192   8.446
   10AU       S 5178  16.320  28.421   8.425
   10AU     LIG 5179  16.504  28.467   8.826
   10AU     LIG 5180  16.734  28.686   9.198
   10AU     LIG 5181  16.739  28.775   9.689
   10AU     LIG 5182  16.734  28.934  10.157
   10AU     LIG 5183  16.869  29.032  10.616
   10AU     LIG 5184  16.941  28.935  11.085
   10AU       S 5185  16.877  28.284   8.021
   10AU     LIG 5186  17.206  28.304   8.326
   10AU     LIG 5187  17.409  28.519   8.695
   10AU     LIG 5188  17.664  28.846   8.918
   10AU     LIG 5189  17.897  29.055   9.277
   10AU     LIG 5190  18.297  29.138   9.530
   10AU     LIG 5191  18.717  29.248   9.734
   10AU    AUSL 5192  16.554  28.053   6.877
   10AU    AUSL 5193  16.329  28.450   6.822
   10AU     AUL 5194  16.686  28.373   6.449
   10AU       S 5195  16.616  28.069   6.742
   10AU     LIG 5196  16.869  27.932   6.336
   10AU     LIG 5197  16.893  27.768   5.911
   10AU     LIG 5198  17.014  27.633   5.470
   10AU     LIG 5199  17.281  27.533   5.078
   10AU     LIG 5200  17.642  27.544   4.751
   10AU     LIG 5201  17.883  27.661   4.350
   10AU       S 5202  16.343  28.508   6.673
   10AU     LIG 5203  16.574  28.865   6.550
   10AU     LIG 5204  16.912  28.988   6.250
   10AU     LIG 5205  17.170  29.116   5.851
   10AU     LIG 5206  17.452  29.259   5.479
   10AU     LIG 5207  17.532  29.537   5.097
   10AU     LIG 5208  17.780  29.671   4.718
   10AU    AUSL 5209  16.279  27.746   6.728
   10AU    AUSL 5210  16.617  27.682   7.031
   10AU     AUL 5211  16.642  27.644   6.665
   10AU       S 5212  16.746  27.262   6.914
   10AU     LIG 5213  16.849  27.074   6.505
   10AU     LIG 5214  17.079  26.710   6.305
   10AU     LIG 5215  17.325  26.469   5.974
   10AU     LIG 5216  17.695  26.534   5.660
   10AU     LIG 5217  18.070  26.486   5.362
   10AU     LIG 5218  18.524  26.552   5.221
   10AU       S 5219  16.384  27.982   6.450
   10AU     LIG 5220  16.451  27.610   6.191
   10AU     LIG 5221  16.548  27.420   5.757
   10AU     LIG 5222  16.603  27.379   5.277
   10AU     LIG 5223  16.613  27.127   4.852
   10AU     LIG 5224  16.690  26.945   4.402
   10AU     LIG 5225  16.786  26.871   3.938
   10AU    AUSL 5226  16.148  28.100   6.901
   10AU    AUSL 5227  15.887  27.870   6.677
   10AU     AUL 5228  16.071  27.658   6.559
   10AU       S 5229  15.610  28.031   6.368
   10AU     LIG 5230  15.617  27.642   6.098
   10AU     LIG 5231  15.470  27.418   5.689
   10AU     LIG 5232  15.198  27.331   5.294
   10AU     LIG 5233  14.958  27.071   4.955
   10AU     LIG 5234  14.933  26.908   4.505
   10AU     LIG 5235  14.946  26.920   4.041
   10AU       S 5236  16.290  28.076   6.502
   10AU     LIG 5237  16.445  28.084   5.986
   10AU     LIG 5238  16.551  27.894   5.547
   10AU     LIG 5239  16.712  27.870   5.096
   10AU     LIG 5240  16.712  28.059   4.645
   10AU     LIG 5241  16.729  28.223   4.184
   10AU     LIG 5242  16.818  28.412   3.746
   10AU    AUSL 5243  15.546  28.129   8.203
   10AU    AUSL 5244  15.720  28.516   8.140
   10AU     AUL 5245  15.784  28.434   8.450
   10AU       S 5246  15.456  28.146   8.628
   10AU     LIG 5247  15.082  27.901   8.678
   10AU     LIG 5248  14.937  27.704   9.078
   10AU     LIG 5249  14.789  27.589   9.514
   10AU     LIG 5250  14.544  27.642   9.914
   10AU     LIG 5251  14.285  27.736  10.304
   10AU     LIG 5252  14.103  28.032  10.629
   10AU       S 5253  15.344  28.544   8.354
   10AU     LIG 5254  15.314  28.609   8.795
   10AU     LIG 5255  15.185  28.924   9.113
   10AU     LIG 5256  14.984  29.287   9.331
   10AU     LIG 5257  14.915  29.644   9.644
   10AU     LIG 5258  14.751  29.796  10.079
   10AU     LIG 5259  14.492  29.912  10.473
   10AU    AUSL 5260  15.834  27.922   8.003
   10AU    AUSL 5261  15.318  27.878   7.975
   10AU     AUL 5262  15.330  27.981   8.220
   10AU       S 5263  15.128  27.544   8.186
   10AU     LIG 5264  14.729  27.366   8.027
   10AU     LIG 5265  14.386  27.095   8.207
   10AU     LIG 5266  14.193  26.823   8.551
   10AU     LIG 5267  13.984  26.514   8.838
   10AU     LIG 5268  13.705  26.261   9.120
   10AU     LIG 5269  13.295  26.266   9.381
   10AU       S 5270  15.593  27.844   8.581
   10AU     LIG 5271  15.387  27.493   8.766
   10AU     LIG 5272  15.278  27.345   9.210
   10AU     LIG 5273  15.170  27.271   9.676
   10AU     LIG 5274  15.071  26.981  10.048
   10AU     LIG 5275  15.018  26.808  10.482
   10AU     LIG 5276  14.827  26.885  10.910
   10AU    AUSL 5277  15.583  28.042   6.878
   10AU    AUSL 5278  15.741  27.595   6.933
   10AU     AUL 5279  15.602  27.654   6.629
   10AU       S 5280  15.365  28.035   6.612
   10AU     LIG 5281  15.172  27.746   6.323
   10AU     LIG 5282  15.085  27.718   5.844
   10AU     LIG 5283  14.809  27.623   5.457
   10AU     LIG 5284  14.596  27.449   5.063
   10AU     LIG 5285  14.281  27.507   4.699
   10AU     LIG 5286  13.969  27.577   4.340
   10AU       S 5287  15.283  27.334   6.787
   10AU     LIG 5288  15.059  26.946   6.740
   10AU     LIG 5289  14.789  26.643   6.498
   10AU     LIG 5290  14.519  26.391   6.194
   10AU     LIG 5291  14.321  26.338   5.761
   10AU     LIG 5292  14.334  26.262   5.293
   10AU     LIG 5293  14.260  26.161   4.839
   10AU    AUSL 5294  15.883  28.304   6.674
   10AU    AUSL 5295  15.355  28.364   6.965
   10AU     AUL 5296  15.576  28.435   6.639
   10AU       S 5297  15.146  28.538   6.807
   10AU     LIG 5298  14.916  28.618   6.411
   10AU     LIG 5299  14.687  28.890   6.082
   10AU     LIG 5300  14.491  29.124   5.705
   10AU     LIG 5301  14.186  29.216   5.323
   10AU     LIG 5302  13.749  29.265   5.093
   10AU     LIG 5303  13.511  29.535   4.769
   10AU       S 5304  15.816  28.078   6.458
   10AU     LIG 5305  15.897  28.046   5.969
   10AU     LIG 5306  15.542  27.929   5.627
   10AU     LIG 5307  15.265  27.919   5.205
   10AU     LIG 5308  15.194  28.089   4.725
   10AU     LIG 5309  15.164  28.237   4.237
   10AU     LIG 5310  15.020  28.470   3.823
   10AU    AUSL 5311  16.638  28.628   7.433
   10AU    AUSL 5312  16.657  28.392   7.083
   10AU     AUL 5313  16.795  28.842   7.244
   10AU       S 5314  16.804  28.517   6.874
   10AU     LIG 5315  17.138  28.573   6.531
   10AU     LIG 5316  17.399  28.798   6.199
   10AU     LIG 5317  17.634  28.871   5.780
   10AU     LIG 5318  17.922  28.994   5.413
   10AU     LIG 5319  18.241  29.176   5.106
   10AU     LIG 5320  18.560  29.519   5.014
   10AU       S 5321  17.099  28.502   7.363
   10AU     LIG 5322  17.550  28.564   7.579
   10AU     LIG 5323  18.050  28.614   7.542
   10AU     LIG 5324  18.535  28.703   7.469
   10AU     LIG 5325  18.893  28.994   7.599
   10AU     LIG 5326  19.113  29.414   7.630
   10AU     LIG 5327  19.242  29.854   7.467
   10AU    AUSL 5328  16.837  28.083   7.268
   10AU    AUSL 5329  16.834  27.917   7.673
   10AU     AUL 5330  17.129  27.846   7.454
   10AU       S 5331  17.040  28.285   7.331
   10AU     LIG 5332  17.503  28.155   7.277
   10AU     LIG 5333  17.993  28.174   7.291
   10AU     LIG 5334  18.485  28.209   7.309
   10AU     LIG 5335  18.958  28.319   7.301
   10AU     LIG 5336  19.355  28.422   7.041
   10AU     LIG 5337  19.635  28.593   6.714
   10AU       S 5338  17.116  27.443   7.722
   10AU     LIG 5339  17.545  27.329   7.690
   10AU     LIG 5340  17.906  27.070   7.735
   10AU     LIG 5341  18.309  26.933   7.659
   10AU     LIG 5342  18.678  27.140   7.652
   10AU     LIG 5343  19.078  27.111   7.813
   10AU     LIG 5344  19.451  27.142   8.096
   10AU    AUSL 5345  16.622  28.250   7.592
   10AU    AUSL 5346  16.521  28.601   7.826
   10AU     AUL 5347  16.782  28.613   7.688
   10AU       S 5348  16.712  28.452   8.084
   10AU     LIG 5349  17.168  28.696   8.011
   10AU     LIG 5350  17.355  28.933   8.392
   10AU     LIG 5351  17.522  29.286   8.681
   10AU     LIG 5352  17.815  29.649   8.799
   10AU     LIG 5353  17.916  30.123   8.799
   10AU     LIG 5354  17.949  30.555   8.946
   10AU       S 5355  17.102  28.306   7.596
   10AU     LIG 5356  17.433  28.103   7.798
   10AU     LIG 5357  17.915  28.182   7.804
   10AU     LIG 5358  18.404  28.329   7.808
   10AU     LIG 5359  18.893  28.501   7.796
   10AU     LIG 5360  19.327  28.717   7.979
   10AU     LIG 5361  19.803  28.855   8.117
   10AU    AUSL 5362  15.362  28.623   7.574
   10AU    AUSL 5363  15.395  28.375   7.918
   10AU     AUL 5364  15.366  28.820   7.843
   10AU       S 5365  15.202  28.449   8.112
   10AU     LIG 5366  14.926  28.378   8.530
   10AU     LIG 5367  14.794  28.687   8.870
   10AU     LIG 5368  14.602  28.897   9.238
   10AU     LIG 5369  14.211  29.006   9.518
   10AU     LIG 5370  13.851  29.249   9.764
   10AU     LIG 5371  13.507  29.348  10.093
   10AU       S 5372  14.972  28.653   7.680
   10AU     LIG 5373  14.796  29.059   7.460
   10AU     LIG 5374  14.364  29.300   7.415
   10AU     LIG 5375  14.086  29.697   7.499
   10AU     LIG 5376  13.685  29.945   7.619
   10AU     LIG 5377  13.336  30.160   7.876
   10AU     LIG 5378  12.853  30.247   7.867
   10AU    AUSL 5379  15.427  28.289   7.350
   10AU    AUSL 5380  15.531  28.701   7.205
   10AU     AUL 5381  15.246  28.627   7.259
   10AU       S 5382  14.867  28.573   7.524
   10AU     LIG 5383  14.759  28.676   7.083
   10AU     LIG 5384  14.356  28.767   6.841
   10AU     LIG 5385  13.931  28.954   6.740
   10AU     LIG 5386  13.475  28.839   6.755
   10AU     LIG 5387  13.036  29.059   6.711
   10AU     LIG 5388  12.702  29.426   6.668
   10AU       S 5389  15.273  28.938   6.919
   10AU     LIG 5390  15.015  29.108   6.524
   10AU     LIG 5391  14.886  29.371   6.144
   10AU     LIG 5392  14.817  29.737   5.839
   10AU     LIG 5393  14.655  30.197   5.771
   10AU     LIG 5394  14.348  30.568   5.672
   10AU     LIG 5395  14.029  30.906   5.519
   10AU    AUSL 5396  15.150  28.215   7.647
   10AU    AUSL 5397  15.175  27.978   7.284
   10AU     AUL 5398  15.018  28.240   7.255
   10AU       S 5399  14.821  27.792   7.398
   10AU     LIG 5400  14.470  27.725   7.739
   10AU     LIG 5401  13.978  27.686   7.861
   10AU     LIG 5402  13.525  27.530   7.750
   10AU     LIG 5403  13.142  27.374   7.485
   10AU     LIG 5404  12.734  27.502   7.266
   10AU     LIG 5405  12.331  27.369   7.037
   10AU       S 5406  14.958  28.247   7.739
   10AU     LIG 5407  14.701  28.469   8.086
   10AU     LIG 5408  14.440  28.788   8.344
   10AU     LIG 5409  13.936  28.883   8.272
   10AU     LIG 5410  13.455  28.929   8.198
   10AU     LIG 5411  13.021  28.770   8.092
   10AU     LIG 5412  12.557  28.854   8.000
   10AU    AUSL 5413  16.671  27.533   7.608
   10AU    AUSL 5414  16.595  27.779   7.964
   10AU     AUL 5415  16.931  27.801   7.941
   10AU       S 5416  16.852  27.268   7.582
   10AU     LIG 5417  17.202  26.958   7.559
   10AU     LIG 5418  17.632  26.794   7.409
   10AU     LIG 5419  18.051  26.548   7.439
   10AU     LIG 5420  18.457  26.266   7.442
   10AU     LIG 5421  18.724  25.857   7.534
   10AU     LIG 5422  19.074  25.728   7.823
   10AU       S 5423  16.617  27.486   8.065
   10AU     LIG 5424  16.912  27.279   8.407
   10AU     LIG 5425  16.985  26.860   8.637
   10AU     LIG 5426  17.226  26.483   8.834
   10AU     LIG 5427  17.554  26.385   9.181
   10AU     LIG 5428  17.955  26.440   9.459
   10AU     LIG 5429  18.331  26.451   9.753
   10AU    AUSL 5430  16.534  27.852   7.390
   10AU    AUSL 5431  16.450  27.397   7.293
   10AU     AUL 5432  16.805  27.605   7.230
   10AU       S 5433  16.855  27.441   7.640
   10AU     LIG 5434  17.247  27.371   7.259
   10AU     LIG 5435  17.735  27.261   7.213
   10AU     LIG 5436  18.141  26.982   7.167
   10AU     LIG 5437  18.616  26.843   7.232
   10AU     LIG 5438  19.098  26.715   7.166
   10AU     LIG 5439  19.508  26.536   6.955
   10AU       S 5440  16.678  27.157   7.124
   10AU     LIG 5441  16.654  26.751   6.856
   10AU     LIG 5442  16.823  26.371   6.604
   10AU     LIG 5443  17.048  26.001   6.384
   10AU     LIG 5444  17.266  25.567   6.347
   10AU     LIG 5445  17.499  25.178   6.143
   10AU     LIG 5446  17.863  24.902   5.993
   10AU    AUSL 5447  15.266  27.593   7.446
   10AU    AUSL 5448  15.376  27.732   7.040
   10AU     AUL 5449  15.085  27.820   7.004
   10AU       S 5450  15.264  27.400   7.004
   10AU     LIG 5451  14.795  27.378   6.962
   10AU     LIG 5452  14.536  27.049   6.744
   10AU     LIG 5453  14.270  26.734   6.496
   10AU     LIG 5454  14.017  26.547   6.135
   10AU     LIG 5455  13.812  26.475   5.707
   10AU     LIG 5456  13.605  26.510   5.275
   10AU       S 5457  14.982  27.576   7.387
   10AU     LIG 5458  14.658  27.304   7.507
   10AU     LIG 5459  14.201  27.285   7.607
   10AU     LIG 5460  13.744  27.119   7.564
   10AU     LIG 5461  13.309  26.962   7.747
   10AU     LIG 5462  12.930  26.640   7.811
   10AU     LIG 5463  12.653  26.232   7.853
   10AU    AUSL 5464  15.439  27.938   7.602
   10AU    AUSL 5465  15.498  27.550   7.786
   10AU     AUL 5466  15.133  27.756   7.778
   10AU       S 5467  15.237  27.348   7.945
   10AU     LIG 5468  15.041  27.045   7.756
   10AU     LIG 5469  14.706  26.791   7.948
   10AU     LIG 5470  14.383  26.511   8.189
   10AU     LIG 5471  14.103  26.197   8.443
   10AU     LIG 5472  13.846  25.840   8.663
   10AU     LIG 5473  13.609  25.396   8.637
   10AU       S 5474  14.861  27.850   7.435
   10AU     LIG 5475  14.386  27.655   7.233
   10AU     LIG 5476  13.891  27.592   7.313
   10AU     LIG 5477  13.448  27.781   7.312
   10AU     LIG 5478  13.108  27.852   7.654
   10AU     LIG 5479  12.722  27.612   7.783
   10AU     LIG 5480  12.432  27.299   7.999
   10AU    AUSL 5481  16.043  28.727   8.011
   10AU    AUSL 5482  15.724  28.533   7.734
   10AU     AUL 5483  15.763  28.829   8.087
   10AU       S 5484  15.388  28.661   8.277
   10AU     LIG 5485  15.012  28.903   8.464
   10AU     LIG 5486  14.879  29.220   8.813
   10AU     LIG 5487  14.900  29.681   9.003
   10AU     LIG 5488  14.830  30.160   9.080
   10AU     LIG 5489  14.621  30.582   9.163
   10AU     LIG 5490  14.197  30.781   9.246
   10AU       S 5491  16.093  29.140   7.958
   10AU     LIG 5492  16.275  29.195   8.339
   10AU     LIG 5493  16.440  29.609   8.504
   10AU     LIG 5494  16.508  30.047   8.706
   10AU     LIG 5495  16.359  30.294   9.097
   10AU     LIG 5496  16.223  30.512   9.511
   10AU     LIG 5497  16.063  30.866   9.788
   10AU    AUSL 5498  15.804  28.910   7.636
   10AU    AUSL 5499  16.250  28.876   7.258
   10AU     AUL 5500  15.858  29.108   7.362
   10AU       S 5501  15.956  29.189   7.811
   10AU     LIG 5502  16.135  29.619   8.050
   10AU     LIG 5503  16.264  30.032   8.249
   10AU     LIG 5504  16.218  30.464   8.450
   10AU     LIG 5505  15.950  30.886   8.489
   10AU     LIG 5506  15.658  31.291   8.505
   10AU     LIG 5507  15.485  31.739   8.485
   10AU       S 5508  16.291  29.193   7.177
   10AU     LIG 5509  16.639  29.319   6.926
   10AU     LIG 5510  16.731  29.759   6.735
   10AU     LIG 5511  16.897  30.227   6.800
   10AU     LIG 5512  16.778  30.697   6.683
   10AU     LIG 5513  16.896  31.144   6.554
   10AU     LIG 5514  17.076  31.566   6.708
   10AU    AUSL 5515  16.200  28.749   7.636
   10AU    AUSL 5516  16.196  28.368   7.901
   10AU     AUL 5517  16.361  28.777   8.022
   10AU       S 5518  16.741  28.582   8.215
   10AU     LIG 5519  16.924  28.672   8.589
   10AU     LIG 5520  17.149  28.931   8.899
   10AU     LIG 5521  17.363  29.024   9.306
   10AU     LIG 5522  17.581  29.229   9.671
   10AU     LIG 5523  17.619  29.564  10.004
   10AU     LIG 5524  17.561  30.008  10.171
   10AU       S 5525  16.257  29.082   7.685
   10AU     LIG 5526  16.564  29.352   7.938
   10AU     LIG 5527  16.713  29.799   8.102
   10AU     LIG 5528  16.740  30.268   8.228
   10AU     LIG 5529  17.120  30.598   8.256
   10AU     LIG 5530  17.188  31.062   8.365
   10AU     LIG 5531  17.086  31.437   8.649
   10AU    AUSL 5532  15.933  27.485   7.942
   10AU    AUSL 5533  16.294  27.600   7.731
   10AU     AUL 5534  16.130  27.351   8.176
   10AU       S 5535  15.946  26.938   8.030
   10AU     LIG 5536  15.945  26.577   8.269
   10AU     LIG 5537  15.685  26.222   8.385
   10AU     LIG 5538  15.631  25.772   8.340
   10AU     LIG 5539  15.582  25.396   8.596
   10AU     LIG 5540  15.548  25.204   9.032
   10AU     LIG 5541  15.529  25.039   9.480
   10AU       S 5542  16.562  27.216   7.960
   10AU     LIG 5543  16.795  26.838   8.138
   10AU     LIG 5544  16.924  26.426   8.368
   10AU     LIG 5545  17.071  26.022   8.574
   10AU     LIG 5546  17.224  25.608   8.766
   10AU     LIG 5547  17.471  25.202   8.837
   10AU     LIG 5548  17.813  24.866   8.784
   10AU    AUSL 5549  15.751  27.264   7.652
   10AU    AUSL 5550  15.626  27.626   8.174
   10AU     AUL 5551  15.679  27.308   8.040
   10AU       S 5552  15.702  26.878   7.890
   10AU     LIG 5553  15.506  26.490   7.978
   10AU     LIG 5554  15.368  26.042   7.990
   10AU     LIG 5555  15.162  25.616   8.121
   10AU     LIG 5556  14.874  25.213   8.183
   10AU     LIG 5557  14.714  24.771   8.318
   10AU     LIG 5558  14.796  24.333   8.437
   10AU       S 5559  15.320  27.488   8.251
   10AU     LIG 5560  15.051  27.059   8.306
   10AU     LIG 5561  14.716  26.778   8.482
   10AU     LIG 5562  14.488  26.419   8.708
   10AU     LIG 5563  14.236  26.073   8.940
   10AU     LIG 5564  14.119  25.864   9.345
   10AU     LIG 5565  14.074  25.886   9.825
   10AU    AUSL 5566  16.180  27.215   7.713
   10AU    AUSL 5567  15.715  27.249   7.242
   10AU     AUL 5568  15.906  27.001   7.502
   10AU       S 5569  15.621  26.925   7.130
   10AU     LIG 5570  15.306  26.629   7.079
   10AU     LIG 5571  15.254  26.180   7.105
   10AU     LIG 5572  15.102  25.803   6.864
   10AU     LIG 5573  14.811  25.424   6.792
   10AU     LIG 5574  14.770  24.971   6.691
   10AU     LIG 5575  14.769  24.512   6.599
   10AU       S 5576  16.106  26.976   7.903
   10AU     LIG 5577  15.992  26.503   7.753
   10AU     LIG 5578  15.906  26.058   7.950
   10AU     LIG 5579  16.070  25.607   8.100
   10AU     LIG 5580  16.202  25.128   8.109
   10AU     LIG 5581  16.293  24.642   8.055
   10AU     LIG 5582  16.501  24.213   8.115
   10AU    AUSL 5583  16.022  28.686   6.946
   10AU    AUSL 5584  16.309  28.475   7.256
   10AU     AUL 5585  16.405  28.778   7.014
   10AU       S 5586  16.106  29.038   6.776
   10AU     LIG 5587  16.353  29.331   6.502
   10AU     LIG 5588  16.412  29.764   6.310
   10AU     LIG 5589  16.449  30.022   5.889
   10AU     LIG 5590  16.431  30.344   5.514
   10AU     LIG 5591  16.470  30.814   5.356
   10AU     LIG 5592  16.403  31.301   5.325
   10AU       S 5593  16.759  28.476   6.967
   10AU     LIG 5594  16.993  28.959   6.812
   10AU     LIG 5595  17.283  29.202   6.545
   10AU     LIG 5596  17.510  29.569   6.359
   10AU     LIG 5597  17.817  29.868   6.162
   10AU     LIG 5598  18.187  30.115   5.991
   10AU     LIG 5599  18.280  30.587   5.990
   10AU    AUSL 5600  15.909  28.655   7.340
   10AU    AUSL 5601  15.757  28.398   7.046
   10AU     AUL 5602  15.740  28.820   6.987
   10AU       S 5603  16.121  29.148   6.999
   10AU     LIG 5604  16.226  29.632   6.891
   10AU     LIG 5605  16.293  30.102   6.721
   10AU     LIG 5606  16.107  30.579   6.639
   10AU     LIG 5607  15.881  31.042   6.579
   10AU     LIG 5608  15.848  31.549   6.562
   10AU     LIG 5609  15.491  31.877   6.485
   10AU       S 5610  15.323  28.789   6.776
   10AU     LIG 5611  15.399  28.813   6.343
   10AU     LIG 5612  15.184  28.980   5.970
   10AU     LIG 5613  14.991  29.270   5.644
   10AU     LIG 5614  14.876  29.556   5.279
   10AU     LIG 5615  14.783  29.805   4.871
   10AU     LIG 5616  14.547  30.160   4.654
   10AU    AUSL 5617  16.058  27.347   6.979
   10AU    AUSL 5618  15.651  27.632   7.334
   10AU     AUL 5619  15.719  27.335   6.938
   10AU       S 5620  15.271  27.266   7.122
   10AU     LIG 5621  14.958  26.978   7.240
   10AU     LIG 5622  14.714  26.636   7.012
   10AU     LIG 5623  14.467  26.312   6.736
   10AU     LIG 5624  14.136  26.138   6.440
   10AU     LIG 5625  13.787  25.861   6.286
   10AU     LIG 5626  13.659  25.412   6.190
   10AU       S 5627  15.954  26.946   6.908
   10AU     LIG 5628  15.672  26.608   6.713
   10AU     LIG 5629  15.478  26.190   6.647
   10AU     LIG 5630  15.536  25.736   6.541
   10AU     LIG 5631  15.535  25.452   6.143
   10AU     LIG 5632  15.580  25.152   5.763
   10AU     LIG 5633  15.757  24.772   5.537
   10AU    AUSL 5634  16.054  27.420   7.391
   10AU    AUSL 5635  16.207  27.692   7.114
   10AU     AUL 5636  16.225  27.185   7.211
   10AU       S 5637  15.865  26.911   7.066
   10AU     LIG 5638  15.797  26.459   7.206
   10AU     LIG 5639  15.760  26.011   7.039
   10AU     LIG 5640  15.956  25.592   6.892
   10AU     LIG 5641  16.275  25.214   6.910
   10AU     LIG 5642  16.525  24.848   6.693
   10AU     LIG 5643  16.698  24.395   6.732
   10AU       S 5644  16.487  27.254   6.839
   10AU     LIG 5645  16.329  27.008   6.539
   10AU     LIG 5646  16.554  26.680   6.288
   10AU     LIG 5647  16.810  26.341   6.060
   10AU     LIG 5648  16.963  26.052   5.711
   10AU     LIG 5649  17.115  25.834   5.315
   10AU     LIG 5650  17.376  25.694   4.953
   11POPC   NC3 5651  40.365  30.929   9.622
   11POPC   PO4 5652  40.929  30.702   9.439
   11POPC   GL1 5653  40.722  30.797   9.095
   11POPC   GL2 5654  40.351  30.720   9.141
   11POPC   C1A 5655  40.834  30.823   8.663
   11POPC   D2A 5656  40.515  30.940   8.374
   11POPC   C3A 5657  40.708  30.930   7.983
   11POPC   C4A 5658  40.990  30.925   7.678
   11POPC   C1B 5659  40.404  30.577   8.728
   11POPC   C2B 5660  40.578  30.419   8.342
   11POPC   C3B 5661  40.623  30.431   7.913
   11POPC   C4B 5662  40.485  30.683   7.580
   12POPC   NC3 5663  35.740  19.987   9.618
   12POPC   PO4 5664  35.931  19.385   9.755
   12POPC   GL1 5665  35.985  19.396   9.285
   12POPC   GL2 5666  35.890  19.759   9.177
   12POPC   C1A 5667  35.933  19.413   8.813
   12POPC   D2A 5668  35.949  19.730   8.450
   12POPC   C3A 5669  36.178  19.622   8.040
   12POPC   C4A 5670  36.303  19.412   7.673
   12POPC   C1B 5671  35.898  20.081   8.816
   12POPC   C2B 5672  36.102  20.257   8.430
   12POPC   C3B 5673  36.041  20.105   7.982
   12POPC   C4B 5674  36.157  19.892   7.565
   13POPC   NC3 5675  28.687  22.013   9.560
   13POPC   PO4 5676  28.301  22.506   9.789
   13POPC   GL1 5677  28.241  22.392   9.262
   13POPC   GL2 5678  28.298  22.025   9.196
   13POPC   C1A 5679  28.381  22.300   8.799
   13POPC   D2A 5680  28.145  22.101   8.465
   13POPC   C3A 5681  28.247  22.314   8.110
   13POPC   C4A 5682  28.610  22.357   7.875
   13POPC   C1B 5683  28.501  21.803   8.803
   13POPC   C2B 5684  28.459  21.712   8.327
   13POPC   C3B 5685  28.513  21.852   7.888
   13POPC   C4B 5686  28.177  22.100   7.662
   14POPC   NC3 5687   4.045  33.979   9.479
   14POPC   PO4 5688   4.429  33.559   9.418
   14POPC   GL1 5689   4.334  33.745   9.090
   14POPC   GL2 5690   3.964  33.656   9.072
   14POPC   C1A 5691   4.375  33.595   8.687
   14POPC   D2A 5692   4.282  33.235   8.414
   14POPC   C3A 5693   4.144  33.425   8.037
   14POPC   C4A 5694   4.385  33.681   7.769
   14POPC   C1B 5695   4.036  34.038   8.816
   14POPC   C2B 5696   4.237  34.032   8.451
   14POPC   C3B 5697   4.152  34.166   8.074
   14POPC   C4B 5698   3.981  34.036   7.746
   15POPC   NC3 5699   8.080  33.334   9.410
   15POPC   PO4 5700   7.974  34.024   9.426
   15POPC   GL1 5701   8.195  33.988   9.067
   15POPC   GL2 5702   8.086  33.628   8.970
   15POPC   C1A 5703   8.353  33.929   8.662
   15POPC   D2A 5704   8.163  33.677   8.384
   15POPC   C3A 5705   8.075  33.949   8.048
   15POPC   C4A 5706   8.348  33.960   7.718
   15POPC   C1B 5707   8.407  33.373   8.716
   15POPC   C2B 5708   8.565  33.332   8.283
   15POPC   C3B 5709   8.335  33.500   7.942
   15POPC   C4B 5710   8.472  33.511   7.512
   16POPC   NC3 5711  10.075  40.504   9.456
   16POPC   PO4 5712   9.587  40.975   9.417
   16POPC   GL1 5713   9.802  40.751   9.056
   16POPC   GL2 5714  10.199  40.804   9.040
   16POPC   C1A 5715   9.577  40.555   8.660
   16POPC   D2A 5716   9.425  40.718   8.236
   16POPC   C3A 5717   9.629  40.635   7.795
   16POPC   C4A 5718   9.573  40.464   7.315
   16POPC   C1B 5719  10.057  40.746   8.590
   16POPC   C2B 5720   9.892  40.942   8.188
   16POPC   C3B 5721   9.969  41.085   7.756
   16POPC   C4B 5722  10.109  41.163   7.328
   17POPC   NC3 5723  32.288  13.074   9.817
   17POPC   PO4 5724  31.919  12.625   9.454
   17POPC   GL1 5725  32.268  12.890   9.310
   17POPC   GL2 5726  32.110  13.210   9.338
   17POPC   C1A 5727  32.411  12.935   8.879
   17POPC   D2A 5728  32.528  12.875   8.439
   17POPC   C3A 5729  32.432  13.010   8.002
   17POPC   C4A 5730  32.392  12.771   7.623
   17POPC   C1B 5731  31.910  13.034   8.954
   17POPC   C2B 5732  31.980  12.786   8.585
   17POPC   C3B 5733  31.959  12.857   8.138
   17POPC   C4B 5734  31.937  12.993   7.712
   18POPC   NC3 5735  29.913  13.911   9.516
   18POPC   PO4 5736  30.227  14.608   9.483
   18POPC   GL1 5737  29.950  14.340   9.235
   18POPC   GL2 5738  30.265  14.113   9.192
   18POPC   C1A 5739  29.701  14.416   8.830
   18POPC   D2A 5740  29.836  14.656   8.436
   18POPC   C3A 5741  29.631  14.630   8.040
   18POPC   C4A 5742  29.767  14.502   7.598
   18POPC   C1B 5743  30.220  14.405   8.821
   18POPC   C2B 5744  30.271  14.323   8.394
   18POPC   C3B 5745  30.091  14.401   7.991
   18POPC   C4B 5746  30.288  14.446   7.565
   19POPC   NC3 5747   7.836  31.885   9.550
   19POPC   PO4 5748   8.200  32.387   9.402
   19POPC   GL1 5749   8.019  32.378   9.049
   19POPC   GL2 5750   7.757  32.140   9.075
   19POPC   C1A 5751   8.289  32.213   8.692
   19POPC   D2A 5752   8.474  31.976   8.364
   19POPC   C3A 5753   8.381  32.200   8.015
   19POPC   C4A 5754   8.024  32.376   7.775
   19POPC   C1B 5755   7.774  32.278   8.619
   19POPC   C2B 5756   7.928  32.068   8.253
   19POPC   C3B 5757   7.685  31.957   7.880
   19POPC   C4B 5758   7.757  32.052   7.447
   20POPC   NC3 5759  18.639   2.913   9.506
   20POPC   PO4 5760  19.176   2.545   9.514
   20POPC   GL1 5761  19.136   2.785   9.157
   20POPC   GL2 5762  18.836   2.695   9.073
   20POPC   C1A 5763  19.322   2.946   8.766
   20POPC   D2A 5764  19.150   3.037   8.333
   20POPC   C3A 5765  19.377   2.987   7.891
   20POPC   C4A 5766  19.264   2.840   7.446
   20POPC   C1B 5767  19.004   2.570   8.673
   20POPC   C2B 5768  18.862   2.578   8.295
   20POPC   C3B 5769  18.908   2.782   7.948
   20POPC   C4B 5770  18.796   2.692   7.561
   21POPC   NC3 5771  42.435  44.273   9.947
   21POPC   PO4 5772  42.316  44.748   9.510
   21POPC   GL1 5773  42.074  44.643   9.134
   21POPC   GL2 5774  42.349  44.468   9.075
   21POPC   C1A 5775  42.112  44.495   8.643
   21POPC   D2A 5776  42.340  44.415   8.233
   21POPC   C3A 5777  42.167  44.567   7.830
   21POPC   C4A 5778  42.266  44.454   7.432
   21POPC   C1B 5779  42.427  44.868   8.820
   21POPC   C2B 5780  42.587  44.829   8.398
   21POPC   C3B 5781  42.519  44.883   7.949
   21POPC   C4B 5782  42.711  44.731   7.547
   22POPC   NC3 5783  29.796  14.803   9.501
   22POPC   PO4 5784  30.210  15.405   9.497
   22POPC   GL1 5785  30.008  15.162   9.204
   22POPC   GL2 5786  29.633  15.215   9.199
   22POPC   C1A 5787  29.918  14.898   8.871
   22POPC   D2A 5788  29.961  15.143   8.518
   22POPC   C3A 5789  29.890  15.087   8.110
   22POPC   C4A 5790  29.772  14.994   7.717
   22POPC   C1B 5791  29.681  15.477   8.786
   22POPC   C2B 5792  29.686  15.523   8.296
   22POPC   C3B 5793  29.643  15.461   7.825
   22POPC   C4B 5794  29.636  15.343   7.344
   23POPC   NC3 5795   0.694  41.122   9.402
   23POPC   PO4 5796   0.690  41.824   9.509
   23POPC   GL1 5797   0.548  41.559   9.190
   23POPC   GL2 5798   0.875  41.557   9.088
   23POPC   C1A 5799   0.302  41.631   8.787
   23POPC   D2A 5800   0.212  41.346   8.455
   23POPC   C3A 5801   0.290  41.368   8.006
   23POPC   C4A 5802   0.264  41.527   7.556
   23POPC   C1B 5803   0.690  41.305   8.768
   23POPC   C2B 5804   0.778  41.356   8.368
   23POPC   C3B 5805   0.766  41.194   7.988
   23POPC   C4B 5806   0.724  41.496   7.720
   24POPC   NC3 5807  32.147  18.694   9.364
   24POPC   PO4 5808  32.101  19.340   9.456
   24POPC   GL1 5809  32.002  19.124   9.084
   24POPC   GL2 5810  31.748  18.848   9.095
   24POPC   C1A 5811  32.247  19.143   8.699
   24POPC   D2A 5812  32.507  19.184   8.327
   24POPC   C3A 5813  32.324  19.252   7.927
   24POPC   C4A 5814  32.234  19.005   7.564
   24POPC   C1B 5815  32.007  18.663   8.752
   24POPC   C2B 5816  32.334  18.683   8.463
   24POPC   C3B 5817  32.338  18.761   8.045
   24POPC   C4B 5818  31.920  18.732   7.858
   25POPC   NC3 5819  18.789  42.210   9.550
   25POPC   PO4 5820  19.310  41.955   9.183
   25POPC   GL1 5821  19.125  42.331   9.066
   25POPC   GL2 5822  18.756  42.419   9.101
   25POPC   C1A 5823  19.343  42.396   8.678
   25POPC   D2A 5824  19.423  42.154   8.305
   25POPC   C3A 5825  19.474  42.485   8.014
   25POPC   C4A 5826  19.428  42.483   7.593
   25POPC   C1B 5827  18.827  42.418   8.683
   25POPC   C2B 5828  19.010  42.451   8.271
   25POPC   C3B 5829  18.948  42.291   7.863
   25POPC   C4B 5830  18.700  42.531   7.559
   26POPC   NC3 5831   2.341  13.795   9.624
   26POPC   PO4 5832   2.011  13.221   9.818
   26POPC   GL1 5833   1.910  13.559   9.398
   26POPC   GL2 5834   2.120  13.814   9.190
   26POPC   C1A 5835   1.770  13.589   8.914
   26POPC   D2A 5836   1.657  13.555   8.456
   26POPC   C3A 5837   1.922  13.359   8.142
   26POPC   C4A 5838   1.948  13.376   7.699
   26POPC   C1B 5839   2.113  14.051   8.830
   26POPC   C2B 5840   1.917  14.027   8.456
   26POPC   C3B 5841   2.116  14.127   8.086
   26POPC   C4B 5842   1.972  13.889   7.758
   27POPC   NC3 5843   9.262  37.654   9.302
   27POPC   PO4 5844   9.951  37.537   9.545
   27POPC   GL1 5845   9.759  37.606   9.159
   27POPC   GL2 5846   9.695  37.924   9.136
   27POPC   C1A 5847   9.961  37.568   8.752
   27POPC   D2A 5848   9.915  37.816   8.416
   27POPC   C3A 5849   9.880  37.573   8.027
   27POPC   C4A 5850   9.735  37.712   7.634
   27POPC   C1B 5851   9.506  37.787   8.704
   27POPC   C2B 5852   9.442  37.743   8.242
   27POPC   C3B 5853   9.309  37.895   7.861
   27POPC   C4B 5854   9.186  38.015   7.427
   28POPC   NC3 5855  11.217  18.804   9.492
   28POPC   PO4 5856  11.471  19.409   9.494
   28POPC   GL1 5857  11.360  19.162   9.162
   28POPC   GL2 5858  11.443  18.807   9.043
   28POPC   C1A 5859  11.401  19.273   8.769
   28POPC   D2A 5860  11.342  18.938   8.490
   28POPC   C3A 5861  11.332  19.056   8.091
   28POPC   C4A 5862  11.198  18.962   7.663
   28POPC   C1B 5863  11.588  18.528   8.696
   28POPC   C2B 5864  11.754  18.662   8.290
   28POPC   C3B 5865  11.511  18.644   7.885
   28POPC   C4B 5866  11.510  18.632   7.429
   29POPC   NC3 5867  10.880  43.832   9.587
   29POPC   PO4 5868  11.519  43.606   9.686
   29POPC   GL1 5869  11.383  43.894   9.353
   29POPC   GL2 5870  11.562  43.667   9.131
   29POPC   C1A 5871  11.230  43.979   8.927
   29POPC   D2A 5872  11.363  43.849   8.545
   29POPC   C3A 5873  11.104  43.887   8.204
   29POPC   C4A 5874  11.121  43.889   7.771
   29POPC   C1B 5875  11.600  43.421   8.769
   29POPC   C2B 5876  11.729  43.543   8.371
   29POPC   C3B 5877  11.595  43.831   8.057
   29POPC   C4B 5878  11.721  43.782   7.654
   30POPC   NC3 5879  26.531  40.686   9.581
   30POPC   PO4 5880  27.089  40.374   9.736
   30POPC   GL1 5881  26.962  40.564   9.284
   30POPC   GL2 5882  26.656  40.606   9.100
   30POPC   C1A 5883  27.009  40.929   8.901
   30POPC   D2A 5884  27.190  41.048   8.467
   30POPC   C3A 5885  26.980  41.183   8.096
   30POPC   C4A 5886  27.003  41.010   7.709
   30POPC   C1B 5887  26.745  40.512   8.678
   30POPC   C2B 5888  26.763  40.813   8.377
   30POPC   C3B 5889  26.595  40.846   7.965
   30POPC   C4B 5890  26.385  40.495   7.757
   31POPC   NC3 5891  32.464  16.280   9.554
   31POPC   PO4 5892  31.958  16.768   9.546
   31POPC   GL1 5893  32.122  16.750   9.136
   31POPC   GL2 5894  32.462  16.751   9.158
   31POPC   C1A 5895  32.175  16.976   8.745
   31POPC   D2A 5896  32.258  17.020   8.319
   31POPC   C3A 5897  32.172  16.678   7.985
   31POPC   C4A 5898  31.798  16.564   7.783
   31POPC   C1B 5899  32.600  16.595   8.728
   31POPC   C2B 5900  32.591  16.582   8.255
   31POPC   C3B 5901  32.588  16.455   7.793
   31POPC   C4B 5902  32.617  16.650   7.373
   32POPC   NC3 5903  34.220   1.011   9.801
   32POPC   PO4 5904  34.707   1.229   9.448
   32POPC   GL1 5905  34.712   1.190   9.047
   32POPC   GL2 5906  34.348   1.324   9.081
   32POPC   C1A 5907  34.944   1.153   8.658
   32POPC   D2A 5908  34.897   1.382   8.239
   32POPC   C3A 5909  35.062   1.263   7.795
   32POPC   C4A 5910  34.982   0.987   7.397
   32POPC   C1B 5911  34.480   1.384   8.648
   32POPC   C2B 5912  34.389   1.388   8.233
   32POPC   C3B 5913  34.529   1.298   7.849
   32POPC   C4B 5914  34.282   1.470   7.547
   33POPC   NC3 5915   2.240  33.129   9.526
   33POPC   PO4 5916   1.654  32.840   9.446
   33POPC   GL1 5917   1.968  32.904   9.130
   33POPC   GL2 5918   2.036  33.246   9.070
   33POPC   C1A 5919   1.899  32.929   8.714
   33POPC   D2A 5920   2.020  32.814   8.337
   33POPC   C3A 5921   1.827  33.018   8.006
   33POPC   C4A 5922   1.925  33.077   7.568
   33POPC   C1B 5923   2.275  33.283   8.694
   33POPC   C2B 5924   2.490  33.039   8.431
   33POPC   C3B 5925   2.340  33.115   8.046
   33POPC   C4B 5926   2.370  33.301   7.693
   34POPC   NC3 5927  14.572  39.115   9.660
   34POPC   PO4 5928  14.712  39.687   9.389
   34POPC   GL1 5929  14.353  39.572   9.151
   34POPC   GL2 5930  14.256  39.215   9.107
   34POPC   C1A 5931  14.354  39.557   8.712
   34POPC   D2A 5932  14.185  39.336   8.370
   34POPC   C3A 5933  14.399  39.393   7.991
   34POPC   C4A 5934  14.435  39.333   7.534
   34POPC   C1B 5935  14.542  39.088   8.730
   34POPC   C2B 5936  14.607  38.944   8.285
   34POPC   C3B 5937  14.511  38.922   7.840
   34POPC   C4B 5938  14.743  38.946   7.404
   35POPC   NC3 5939  14.445  32.713   9.456
   35POPC   PO4 5940  14.030  33.237   9.368
   35POPC   GL1 5941  14.395  33.322   9.104
   35POPC   GL2 5942  14.705  33.124   9.160
   35POPC   C1A 5943  14.500  33.226   8.670
   35POPC   D2A 5944  14.256  33.050   8.327
   35POPC   C3A 5945  14.391  33.140   7.911
   35POPC   C4A 5946  14.360  32.887   7.506
   35POPC   C1B 5947  14.716  32.748   8.854
   35POPC   C2B 5948  14.587  32.520   8.465
   35POPC   C3B 5949  14.559  32.679   8.056
   35POPC   C4B 5950  14.796  32.859   7.746
   36POPC   NC3 5951  27.027  11.005   9.417
   36POPC   PO4 5952  27.180  10.284   9.530
   36POPC   GL1 5953  26.908  10.516   9.178
   36POPC   GL2 5954  26.688  10.252   9.010
   36POPC   C1A 5955  26.811  10.664   8.725
   36POPC   D2A 5956  26.867  10.415   8.342
   36POPC   C3A 5957  26.826  10.564   7.926
   36POPC   C4A 5958  26.644  10.358   7.551
   36POPC   C1B 5959  27.087  10.219   8.777
   36POPC   C2B 5960  27.362  10.394   8.489
   36POPC   C3B 5961  27.335  10.411   8.063
   36POPC   C4B 5962  27.159  10.226   7.694
   37POPC   NC3 5963  30.004  10.257  10.029
   37POPC   PO4 5964  29.746   9.900   9.537
   37POPC   GL1 5965  29.855   9.798   9.113
   37POPC   GL2 5966  29.567   9.629   9.063
   37POPC   C1A 5967  29.819   9.834   8.639
   37POPC   D2A 5968  29.671  10.018   8.234
   37POPC   C3A 5969  29.895   9.873   7.835
   37POPC   C4A 5970  30.238   9.577   7.708
   37POPC   C1B 5971  29.619   9.382   8.729
   37POPC   C2B 5972  29.678   9.219   8.338
   37POPC   C3B 5973  29.846   9.369   7.981
   37POPC   C4B 5974  29.676   9.488   7.566
   38POPC   NC3 5975  24.931  19.274   9.366
   38POPC   PO4 5976  24.405  18.716   9.504
   38POPC   GL1 5977  24.280  18.940   9.127
   38POPC   GL2 5978  24.633  19.008   9.069
   38POPC   C1A 5979  24.378  19.030   8.662
   38POPC   D2A 5980  24.578  19.009   8.286
   38POPC   C3A 5981  24.365  19.139   7.934
   38POPC   C4A 5982  24.191  18.985   7.543
   38POPC   C1B 5983  24.888  19.169   8.689
   38POPC   C2B 5984  25.083  19.060   8.262
   38POPC   C3B 5985  24.879  19.013   7.842
   38POPC   C4B 5986  24.633  19.210   7.486
   39POPC   NC3 5987  28.918  12.439   9.436
   39POPC   PO4 5988  29.043  11.748   9.513
   39POPC   GL1 5989  29.207  12.058   9.210
   39POPC   GL2 5990  28.981  11.952   8.957
   39POPC   C1A 5991  29.404  12.170   8.792
   39POPC   D2A 5992  29.267  12.013   8.401
   39POPC   C3A 5993  29.468  12.083   8.047
   39POPC   C4A 5994  29.337  12.027   7.631
   39POPC   C1B 5995  28.913  12.299   8.646
   39POPC   C2B 5996  29.082  12.459   8.227
   39POPC   C3B 5997  29.224  12.472   7.822
   39POPC   C4B 5998  29.110  12.415   7.378
   40POPC   NC3 5999   3.092  27.966   9.327
   40POPC   PO4 6000   2.669  28.235   9.792
   40POPC   GL1 6001   2.610  28.213   9.339
   40POPC   GL2 6002   2.859  28.434   9.211
   40POPC   C1A 6003   2.592  28.156   8.863
   40POPC   D2A 6004   2.707  28.076   8.413
   40POPC   C3A 6005   2.506  28.345   8.100
   40POPC   C4A 6006   2.616  28.537   7.704
   40POPC   C1B 6007   3.099  28.356   8.803
   40POPC   C2B 6008   3.044  28.483   8.367
   40POPC   C3B 6009   3.002  28.306   7.953
   40POPC   C4B 6010   3.005  28.307   7.458
   41POPC   NC3 6011  17.409  15.651   9.599
   41POPC   PO4 6012  17.886  16.169   9.502
   41POPC   GL1 6013  17.773  15.797   9.180
   41POPC   GL2 6014  17.403  15.670   9.094
   41POPC   C1A 6015  17.730  15.677   8.707
   41POPC   D2A 6016  17.473  15.861   8.351
   41POPC   C3A 6017  17.625  16.045   7.952
   41POPC   C4A 6018  17.359  16.384   7.806
   41POPC   C1B 6019  17.235  15.504   8.684
   41POPC   C2B 6020  17.076  15.553   8.253
   41POPC   C3B 6021  17.336  15.628   7.867
   41POPC   C4B 6022  17.299  15.496   7.423
   42POPC   NC3 6023  18.281  31.425   9.599
   42POPC   PO4 6024  18.056  32.022   9.685
   42POPC   GL1 6025  18.141  31.796   9.280
   42POPC   GL2 6026  18.494  31.697   9.190
   42POPC   C1A 6027  18.082  31.857   8.816
   42POPC   D2A 6028  18.206  31.731   8.407
   42POPC   C3A 6029  18.083  31.858   7.990
   42POPC   C4A 6030  18.160  31.611   7.627
   42POPC   C1B 6031  18.418  31.458   8.800
   42POPC   C2B 6032  18.584  31.385   8.353
   42POPC   C3B 6033  18.554  31.341   7.860
   42POPC   C4B 6034  18.556  31.435   7.367
   43POPC   NC3 6035  38.502  39.066   9.690
   43POPC   PO4 6036  38.201  39.681   9.786
   43POPC   GL1 6037  38.506  39.452   9.383
   43POPC   GL2 6038  38.359  39.111   9.207
   43POPC   C1A 6039  38.638  39.433   8.914
   43POPC   D2A 6040  38.471  39.569   8.498
   43POPC   C3A 6041  38.601  39.407   8.095
   43POPC   C4A 6042  38.346  39.387   7.755
   43POPC   C1B 6043  38.163  39.035   8.791
   43POPC   C2B 6044  38.389  39.030   8.416
   43POPC   C3B 6045  38.324  38.954   7.992
   43POPC   C4B 6046  38.286  38.973   7.494
   44POPC   NC3 6047  36.617  38.931   9.362
   44POPC   PO4 6048  36.098  39.327   9.540
   44POPC   GL1 6049  36.180  39.135   9.169
   44POPC   GL2 6050  36.130  38.778   9.257
   44POPC   C1A 6051  36.335  39.268   8.782
   44POPC   D2A 6052  36.395  39.424   8.359
   44POPC   C3A 6053  36.017  39.377   8.091
   44POPC   C4A 6054  36.146  39.268   7.698
   44POPC   C1B 6055  36.033  38.787   8.818
   44POPC   C2B 6056  36.077  38.999   8.426
   44POPC   C3B 6057  36.284  38.902   8.051
   44POPC   C4B 6058  36.144  38.721   7.678
   45POPC   NC3 6059  21.962  41.219   9.444
   45POPC   PO4 6060  22.323  41.808   9.505
   45POPC   GL1 6061  22.288  41.546   9.180
   45POPC   GL2 6062  21.943  41.645   9.121
   45POPC   C1A 6063  22.337  41.714   8.794
   45POPC   D2A 6064  22.459  41.566   8.426
   45POPC   C3A 6065  22.300  41.680   8.044
   45POPC   C4A 6066  22.156  41.467   7.676
   45POPC   C1B 6067  21.943  41.374   8.756
   45POPC   C2B 6068  22.077  41.252   8.336
   45POPC   C3B 6069  21.881  41.159   7.980
   45POPC   C4B 6070  21.724  41.139   7.540
   46POPC   NC3 6071   5.114  34.719   9.507
   46POPC   PO4 6072   4.732  34.338   9.721
   46POPC   GL1 6073   4.817  34.416   9.229
   46POPC   GL2 6074   5.180  34.516   9.051
   46POPC   C1A 6075   4.766  34.378   8.783
   46POPC   D2A 6076   4.958  34.587   8.423
   46POPC   C3A 6077   4.847  34.394   8.004
   46POPC   C4A 6078   4.915  34.389   7.563
   46POPC   C1B 6079   5.360  34.784   8.714
   46POPC   C2B 6080   5.287  34.931   8.273
   46POPC   C3B 6081   5.268  34.680   7.909
   46POPC   C4B 6082   5.580  34.498   7.702
   47POPC   NC3 6083  14.145  40.871   9.464
   47POPC   PO4 6084  14.798  41.150   9.299
   47POPC   GL1 6085  14.538  40.873   9.133
   47POPC   GL2 6086  14.591  40.568   9.349
   47POPC   C1A 6087  14.214  40.773   8.809
   47POPC   D2A 6088  13.994  40.781   8.404
   47POPC   C3A 6089  14.334  40.765   8.100
   47POPC   C4A 6090  14.452  41.001   7.746
   47POPC   C1B 6091  14.658  40.449   8.920
   47POPC   C2B 6092  14.557  40.464   8.499
   47POPC   C3B 6093  14.613  40.330   8.095
   47POPC   C4B 6094  14.561  40.497   7.713
   48POPC   NC3 6095   9.305  28.159   9.720
   48POPC   PO4 6096   9.860  28.567   9.572
   48POPC   GL1 6097   9.759  28.373   9.186
   48POPC   GL2 6098   9.410  28.301   9.195
   48POPC   C1A 6099   9.640  28.604   8.809
   48POPC   D2A 6100   9.828  28.717   8.419
   48POPC   C3A 6101   9.636  28.751   8.028
   48POPC   C4A 6102   9.809  28.545   7.689
   48POPC   C1B 6103   9.522  28.105   8.805
   48POPC   C2B 6104   9.835  28.194   8.525
   48POPC   C3B 6105   9.783  28.234   8.103
   48POPC   C4B 6106   9.822  28.036   7.720
   49POPC   NC3 6107   6.571  38.080   9.743
   49POPC   PO4 6108   6.439  38.761   9.602
   49POPC   GL1 6109   6.616  38.574   9.243
   49POPC   GL2 6110   6.586  38.200   9.239
   49POPC   C1A 6111   6.481  38.568   8.805
   49POPC   D2A 6112   6.198  38.562   8.434
   49POPC   C3A 6113   6.372  38.694   8.029
   49POPC   C4A 6114   6.641  38.856   7.699
   49POPC   C1B 6115   6.824  38.163   8.858
   49POPC   C2B 6116   6.878  38.013   8.447
   49POPC   C3B 6117   6.762  38.042   8.018
   49POPC   C4B 6118   6.973  38.209   7.665
   50POPC   NC3 6119   1.637  26.133   9.616
   50POPC   PO4 6120   2.252  25.745   9.508
   50POPC   GL1 6121   1.955  25.906   9.201
   50POPC   GL2 6122   1.823  26.241   9.169
   50POPC   C1A 6123   2.060  25.950   8.756
   50POPC   D2A 6124   2.255  26.007   8.314
   50POPC   C3A 6125   1.960  25.956   8.000
   50POPC   C4A 6126   1.939  25.753   7.568
   50POPC   C1B 6127   1.588  26.369   8.838
   50POPC   C2B 6128   1.822  26.264   8.441
   50POPC   C3B 6129   1.870  26.479   8.086
   50POPC   C4B 6130   1.835  26.337   7.703
   51POPC   NC3 6131  26.388   7.490   9.526
   51POPC   PO4 6132  25.742   7.600   9.590
   51POPC   GL1 6133  25.908   7.715   9.211
   51POPC   GL2 6134  26.249   7.802   9.156
   51POPC   C1A 6135  25.852   7.515   8.839
   51POPC   D2A 6136  26.042   7.293   8.544
   51POPC   C3A 6137  26.037   7.558   8.225
   51POPC   C4A 6138  25.907   7.539   7.840
   51POPC   C1B 6139  26.407   7.661   8.756
   51POPC   C2B 6140  26.506   7.437   8.387
   51POPC   C3B 6141  26.286   7.134   8.102
   51POPC   C4B 6142  26.382   7.076   7.667
   52POPC   NC3 6143  20.196  42.932   9.442
   52POPC   PO4 6144  19.726  43.464   9.423
   52POPC   GL1 6145  20.016  43.309   9.087
   52POPC   GL2 6146  20.399  43.158   9.046
   52POPC   C1A 6147  19.761  43.120   8.750
   52POPC   D2A 6148  19.857  42.876   8.381
   52POPC   C3A 6149  19.643  43.033   8.013
   52POPC   C4A 6150  19.757  43.474   7.861
   52POPC   C1B 6151  20.256  43.108   8.644
   52POPC   C2B 6152  19.995  43.369   8.362
   52POPC   C3B 6153  20.129  43.177   8.049
   52POPC   C4B 6154  20.488  43.082   7.919
   53POPC   NC3 6155  35.727  44.028   9.418
   53POPC   PO4 6156  35.113  43.650   9.518
   53POPC   GL1 6157  35.277  43.548   9.127
   53POPC   GL2 6158  35.333  43.914   9.078
   53POPC   C1A 6159  35.122  43.591   8.697
   53POPC   D2A 6160  34.993  43.855   8.386
   53POPC   C3A 6161  35.177  43.888   7.979
   53POPC   C4A 6162  35.325  44.287   7.785
   53POPC   C1B 6163  35.592  43.751   8.747
   53POPC   C2B 6164  35.589  43.836   8.306
   53POPC   C3B 6165  35.716  43.985   7.880
   53POPC   C4B 6166  35.446  43.854   7.535
   54POPC   NC3 6167  37.822  22.514   9.565
   54POPC   PO4 6168  37.377  23.107   9.477
   54POPC   GL1 6169  37.668  23.045   9.158
   54POPC   GL2 6170  37.918  22.809   9.170
   54POPC   C1A 6171  37.661  22.917   8.748
   54POPC   D2A 6172  37.337  22.813   8.524
   54POPC   C3A 6173  37.394  22.754   8.104
   54POPC   C4A 6174  37.563  22.641   7.732
   54POPC   C1B 6175  37.981  22.513   8.809
   54POPC   C2B 6176  37.877  22.434   8.373
   54POPC   C3B 6177  38.026  22.673   7.998
   54POPC   C4B 6178  37.862  23.072   7.825
   55POPC   NC3 6179  11.366   7.833   9.658
   55POPC   PO4 6180  11.212   8.448   9.544
   55POPC   GL1 6181  11.443   8.266   9.264
   55POPC   GL2 6182  11.205   8.006   9.183
   55POPC   C1A 6183  11.457   8.278   8.830
   55POPC   D2A 6184  11.281   8.108   8.446
   55POPC   C3A 6185  11.274   8.291   8.056
   55POPC   C4A 6186  11.606   8.265   7.764
   55POPC   C1B 6187  10.958   7.955   8.802
   55POPC   C2B 6188  10.797   8.034   8.364
   55POPC   C3B 6189  11.035   7.843   8.053
   55POPC   C4B 6190  11.209   7.895   7.683
   56POPC   NC3 6191  15.830  41.255   9.636
   56POPC   PO4 6192  15.968  40.682   9.758
   56POPC   GL1 6193  15.958  40.790   9.301
   56POPC   GL2 6194  16.305  40.748   9.154
   56POPC   C1A 6195  15.923  40.706   8.846
   56POPC   D2A 6196  15.980  40.854   8.431
   56POPC   C3A 6197  16.073  40.579   8.116
   56POPC   C4A 6198  15.948  40.741   7.750
   56POPC   C1B 6199  16.327  41.047   8.775
   56POPC   C2B 6200  16.530  41.034   8.379
   56POPC   C3B 6201  16.334  41.019   7.981
   56POPC   C4B 6202  16.203  41.137   7.565
   57POPC   NC3 6203  21.092  37.225   9.451
   57POPC   PO4 6204  21.654  36.928   9.452
   57POPC   GL1 6205  21.318  36.953   9.088
   57POPC   GL2 6206  21.116  36.682   8.990
   57POPC   C1A 6207  21.207  37.008   8.627
   57POPC   D2A 6208  21.509  37.230   8.356
   57POPC   C3A 6209  21.539  36.992   7.986
   57POPC   C4A 6210  21.424  36.924   7.585
   57POPC   C1B 6211  21.329  36.498   8.636
   57POPC   C2B 6212  21.315  36.516   8.181
   57POPC   C3B 6213  21.079  36.644   7.820
   57POPC   C4B 6214  21.093  36.503   7.443
   58POPC   NC3 6215  31.748  20.748   9.718
   58POPC   PO4 6216  31.170  20.593   9.373
   58POPC   GL1 6217  31.411  20.814   9.031
   58POPC   GL2 6218  31.830  20.821   9.019
   58POPC   C1A 6219  31.507  20.572   8.668
   58POPC   D2A 6220  31.346  20.381   8.334
   58POPC   C3A 6221  31.488  20.517   7.983
   58POPC   C4A 6222  31.581  20.181   7.721
   58POPC   C1B 6223  31.921  20.824   8.548
   58POPC   C2B 6224  31.682  21.050   8.188
   58POPC   C3B 6225  31.699  21.035   7.725
   58POPC   C4B 6226  31.482  20.728   7.506
   59POPC   NC3 6227  36.514   0.561   9.589
   59POPC   PO4 6228  35.922   0.229   9.701
   59POPC   GL1 6229  36.064   0.332   9.273
   59POPC   GL2 6230  36.027   0.700   9.198
   59POPC   C1A 6231  36.169   0.260   8.824
   59POPC   D2A 6232  36.228   0.450   8.414
   59POPC   C3A 6233  36.030   0.349   8.020
   59POPC   C4A 6234  36.238   0.474   7.648
   59POPC   C1B 6235  35.946   0.718   8.743
   59POPC   C2B 6236  35.830   0.750   8.276
   59POPC   C3B 6237  35.932   0.858   7.830
   59POPC   C4B 6238  35.819   0.802   7.374
   60POPC   NC3 6239  12.768  39.509   9.878
   60POPC   PO4 6240  13.157  39.129   9.556
   60POPC   GL1 6241  12.894  39.150   9.178
   60POPC   GL2 6242  12.913  39.479   9.019
   60POPC   C1A 6243  13.038  39.097   8.718
   60POPC   D2A 6244  13.054  39.389   8.328
   60POPC   C3A 6245  12.977  39.085   7.999
   60POPC   C4A 6246  12.765  39.036   7.606
   60POPC   C1B 6247  12.662  39.656   8.669
   60POPC   C2B 6248  12.597  39.647   8.205
   60POPC   C3B 6249  12.822  39.540   7.801
   60POPC   C4B 6250  12.759  39.720   7.327
   61POPC   NC3 6251  10.927  28.937   9.418
   61POPC   PO4 6252  10.314  29.221   9.671
   61POPC   GL1 6253  10.487  29.151   9.248
   61POPC   GL2 6254  10.505  29.489   9.154
   61POPC   C1A 6255  10.611  28.976   8.822
   61POPC   D2A 6256  10.794  29.112   8.405
   61POPC   C3A 6257  10.631  28.901   8.048
   61POPC   C4A 6258  10.499  29.013   7.636
   61POPC   C1B 6259  10.717  29.480   8.748
   61POPC   C2B 6260  10.715  29.659   8.322
   61POPC   C3B 6261  10.710  29.410   7.933
   61POPC   C4B 6262  10.919  29.260   7.564
   62POPC   NC3 6263  31.067  16.486   9.456
   62POPC   PO4 6264  30.556  16.929   9.417
   62POPC   GL1 6265  30.739  16.721   9.128
   62POPC   GL2 6266  31.089  16.843   9.089
   62POPC   C1A 6267  30.505  16.665   8.767
   62POPC   D2A 6268  30.532  16.885   8.372
   62POPC   C3A 6269  30.559  16.653   7.987
   62POPC   C4A 6270  30.390  16.722   7.575
   62POPC   C1B 6271  30.982  16.765   8.682
   62POPC   C2B 6272  30.974  16.628   8.305
   62POPC   C3B 6273  30.955  16.991   8.021
   62POPC   C4B 6274  30.846  16.936   7.597
   63POPC   NC3 6275  31.370  27.224   9.617
   63POPC   PO4 6276  31.403  26.540   9.581
   63POPC   GL1 6277  31.600  26.850   9.322
   63POPC   GL2 6278  31.300  26.928   9.182
   63POPC   C1A 6279  31.703  27.115   8.931
   63POPC   D2A 6280  31.757  27.001   8.480
   63POPC   C3A 6281  31.505  27.139   8.165
   63POPC   C4A 6282  31.347  27.000   7.769
   63POPC   C1B 6283  31.468  26.677   8.826
   63POPC   C2B 6284  31.454  26.534   8.441
   63POPC   C3B 6285  31.594  26.637   8.042
   63POPC   C4B 6286  31.555  26.402   7.682
   64POPC   NC3 6287  31.551  34.497   9.643
   64POPC   PO4 6288  32.141  34.849   9.497
   64POPC   GL1 6289  32.040  34.737   9.076
   64POPC   GL2 6290  32.076  34.391   8.889
   64POPC   C1A 6291  32.254  34.803   8.680
   64POPC   D2A 6292  32.371  34.507   8.363
   64POPC   C3A 6293  32.182  34.647   7.995
   64POPC   C4A 6294  32.053  34.610   7.577
   64POPC   C1B 6295  32.463  34.149   8.752
   64POPC   C2B 6296  32.570  33.976   8.333
   64POPC   C3B 6297  32.329  34.073   7.938
   64POPC   C4B 6298  32.412  34.230   7.494
   65POPC   NC3 6299  40.899   6.840   9.620
   65POPC   PO4 6300  40.329   6.389   9.524
   65POPC   GL1 6301  40.586   6.622   9.227
   65POPC   GL2 6302  40.798   6.934   9.127
   65POPC   C1A 6303  40.699   6.538   8.810
   65POPC   D2A 6304  40.846   6.465   8.390
   65POPC   C3A 6305  40.661   6.563   8.005
   65POPC   C4A 6306  40.962   6.814   7.754
   65POPC   C1B 6307  40.519   7.056   8.768
   65POPC   C2B 6308  40.445   7.172   8.303
   65POPC   C3B 6309  40.452   7.008   7.846
   65POPC   C4B 6310  40.502   7.019   7.381
   66POPC   NC3 6311  36.607   2.153   9.485
   66POPC   PO4 6312  37.218   1.757   9.592
   66POPC   GL1 6313  36.953   1.837   9.196
   66POPC   GL2 6314  36.754   2.131   9.025
   66POPC   C1A 6315  37.122   1.933   8.774
   66POPC   D2A 6316  36.998   1.759   8.400
   66POPC   C3A 6317  36.915   1.991   8.041
   66POPC   C4A 6318  37.099   1.931   7.667
   66POPC   C1B 6319  36.602   1.925   8.664
   66POPC   C2B 6320  36.485   2.123   8.279
   66POPC   C3B 6321  36.418   2.010   7.857
   66POPC   C4B 6322  36.617   1.984   7.477
   67POPC   NC3 6323  31.877  22.346   9.496
   67POPC   PO4 6324  32.272  21.795   9.477
   67POPC   GL1 6325  32.217  22.117   9.179
   67POPC   GL2 6326  31.894  21.982   9.144
   67POPC   C1A 6327  32.404  22.263   8.780
   67POPC   D2A 6328  32.373  22.388   8.325
   67POPC   C3A 6329  32.205  22.332   7.912
   67POPC   C4A 6330  32.395  22.065   7.577
   67POPC   C1B 6331  31.906  22.158   8.771
   67POPC   C2B 6332  31.854  22.273   8.355
   67POPC   C3B 6333  31.878  21.968   8.053
   67POPC   C4B 6334  31.889  22.020   7.636
   68POPC   NC3 6335   7.864  20.287   9.505
   68POPC   PO4 6336   8.511  20.422   9.662
   68POPC   GL1 6337   8.356  20.423   9.213
   68POPC   GL2 6338   8.117  20.670   9.139
   68POPC   C1A 6339   8.369  20.531   8.744
   68POPC   D2A 6340   8.112  20.665   8.419
   68POPC   C3A 6341   8.325  20.538   8.069
   68POPC   C4A 6342   8.329  20.167   7.805
   68POPC   C1B 6343   7.859  20.463   8.830
   68POPC   C2B 6344   7.603  20.579   8.485
   68POPC   C3B 6345   7.751  20.508   8.077
   68POPC   C4B 6346   7.969  20.608   7.718
   69POPC   NC3 6347   2.789  41.751   9.640
   69POPC   PO4 6348   3.069  41.181   9.414
   69POPC   GL1 6349   3.025  41.597   9.181
   69POPC   GL2 6350   2.681  41.709   9.155
   69POPC   C1A 6351   2.974  41.835   8.757
   69POPC   D2A 6352   2.939  41.631   8.359
   69POPC   C3A 6353   2.938  41.770   7.920
   69POPC   C4A 6354   3.038  41.350   7.731
   69POPC   C1B 6355   2.568  41.493   8.813
   69POPC   C2B 6356   2.407  41.547   8.422
   69POPC   C3B 6357   2.554  41.422   8.038
   69POPC   C4B 6358   2.567  41.175   7.698
   70POPC   NC3 6359  40.876  38.789   9.387
   70POPC   PO4 6360  40.466  38.327   9.509
   70POPC   GL1 6361  40.746  38.333   9.157
   70POPC   GL2 6362  40.959  38.056   9.171
   70POPC   C1A 6363  40.674  38.548   8.759
   70POPC   D2A 6364  40.541  38.779   8.403
   70POPC   C3A 6365  40.697  38.621   8.028
   70POPC   C4A 6366  40.562  38.399   7.703
   70POPC   C1B 6367  40.981  38.151   8.720
   70POPC   C2B 6368  40.747  38.234   8.339
   70POPC   C3B 6369  40.955  38.159   7.926
   70POPC   C4B 6370  41.022  38.336   7.493
   71POPC   NC3 6371  42.233   0.815   9.709
   71POPC   PO4 6372  42.073   1.426   9.469
   71POPC   GL1 6373  42.207   1.299   9.094
   71POPC   GL2 6374  42.367   1.006   9.199
   71POPC   C1A 6375  42.465   1.230   8.740
   71POPC   D2A 6376  42.407   0.973   8.395
   71POPC   C3A 6377  42.464   1.111   8.001
   71POPC   C4A 6378  42.251   1.313   7.684
   71POPC   C1B 6379  42.115   0.861   8.819
   71POPC   C2B 6380  42.017   0.663   8.440
   71POPC   C3B 6381  42.102   0.753   8.047
   71POPC   C4B 6382  42.249   0.790   7.654
   72POPC   NC3 6383  32.690  28.614   9.835
   72POPC   PO4 6384  33.062  28.173   9.380
   72POPC   GL1 6385  32.973  28.446   9.064
   72POPC   GL2 6386  33.239  28.299   8.919
   72POPC   C1A 6387  32.943  28.613   8.635
   72POPC   D2A 6388  33.036  28.538   8.192
   72POPC   C3A 6389  32.716  28.460   7.901
   72POPC   C4A 6390  32.735  28.529   7.427
   72POPC   C1B 6391  33.428  28.420   8.612
   72POPC   C2B 6392  33.479  28.242   8.276
   72POPC   C3B 6393  33.430  28.276   7.896
   72POPC   C4B 6394  33.163  28.410   7.668
   73POPC   NC3 6395  17.951  33.972   9.968
   73POPC   PO4 6396  18.473  33.566   9.662
   73POPC   GL1 6397  18.304  33.791   9.299
   73POPC   GL2 6398  17.984  33.704   9.145
   73POPC   C1A 6399  18.388  33.817   8.872
   73POPC   D2A 6400  18.273  33.845   8.459
   73POPC   C3A 6401  18.527  33.726   8.127
   73POPC   C4A 6402  18.409  33.797   7.713
   73POPC   C1B 6403  17.913  34.019   8.785
   73POPC   C2B 6404  18.052  34.317   8.418
   73POPC   C3B 6405  18.175  34.268   7.950
   73POPC   C4B 6406  18.003  34.127   7.544
   74POPC   NC3 6407  31.662  36.123   9.471
   74POPC   PO4 6408  30.976  36.170   9.742
   74POPC   GL1 6409  31.183  36.219   9.275
   74POPC   GL2 6410  31.379  35.982   9.056
   74POPC   C1A 6411  31.320  36.426   8.830
   74POPC   D2A 6412  31.528  36.197   8.450
   74POPC   C3A 6413  31.484  36.343   8.002
   74POPC   C4A 6414  31.145  36.493   7.739
   74POPC   C1B 6415  31.744  35.770   8.826
   74POPC   C2B 6416  31.943  35.713   8.410
   74POPC   C3B 6417  31.813  35.865   8.003
   74POPC   C4B 6418  31.409  35.879   7.791
   75POPC   NC3 6419  11.666  19.801   9.358
   75POPC   PO4 6420  11.073  20.083   9.462
   75POPC   GL1 6421  11.210  19.988   9.081
   75POPC   GL2 6422  11.237  19.650   9.097
   75POPC   C1A 6423  11.300  20.004   8.653
   75POPC   D2A 6424  11.249  20.141   8.253
   75POPC   C3A 6425  11.366  19.883   7.966
   75POPC   C4A 6426  11.435  19.936   7.570
   75POPC   C1B 6427  11.017  19.575   8.737
   75POPC   C2B 6428  11.233  19.562   8.361
   75POPC   C3B 6429  11.068  19.452   7.973
   75POPC   C4B 6430  11.383  19.433   7.694
   76POPC   NC3 6431  18.427  14.391   9.578
   76POPC   PO4 6432  17.727  14.300   9.485
   76POPC   GL1 6433  18.110  14.333   9.182
   76POPC   GL2 6434  18.474  14.159   9.143
   76POPC   C1A 6435  18.190  14.451   8.773
   76POPC   D2A 6436  17.962  14.568   8.412
   76POPC   C3A 6437  18.164  14.432   8.045
   76POPC   C4A 6438  18.047  14.275   7.677
   76POPC   C1B 6439  18.446  14.007   8.750
   76POPC   C2B 6440  18.544  14.246   8.397
   76POPC   C3B 6441  18.552  14.085   7.994
   76POPC   C4B 6442  18.551  14.214   7.610
   77POPC   NC3 6443  20.340  42.082   9.499
   77POPC   PO4 6444  20.491  42.679   9.202
   77POPC   GL1 6445  20.782  42.465   8.985
   77POPC   GL2 6446  20.728  42.145   9.141
   77POPC   C1A 6447  20.635  42.437   8.583
   77POPC   D2A 6448  20.409  42.646   8.255
   77POPC   C3A 6449  20.669  42.453   7.954
   77POPC   C4A 6450  20.760  42.314   7.515
   77POPC   C1B 6451  20.360  42.087   8.827
   77POPC   C2B 6452  20.325  42.105   8.346
   77POPC   C3B 6453  20.221  42.215   7.885
   77POPC   C4B 6454  20.255  42.207   7.404
   78POPC   NC3 6455   7.190  27.668   9.434
   78POPC   PO4 6456   7.788  27.463   9.387
   78POPC   GL1 6457   7.530  27.419   9.039
   78POPC   GL2 6458   7.143  27.370   9.011
   78POPC   C1A 6459   7.611  27.454   8.603
   78POPC   D2A 6460   7.291  27.361   8.317
   78POPC   C3A 6461   7.436  27.487   7.908
   78POPC   C4A 6462   7.225  27.332   7.527
   78POPC   C1B 6463   7.224  27.752   8.746
   78POPC   C2B 6464   7.357  27.870   8.304
   78POPC   C3B 6465   7.124  27.878   7.854
   78POPC   C4B 6466   7.088  27.789   7.318
   79POPC   NC3 6467   0.106  40.627   9.500
   79POPC   PO4 6468   0.156  41.235   9.289
   79POPC   GL1 6469   0.404  40.905   9.067
   79POPC   GL2 6470   0.344  40.548   9.064
   79POPC   C1A 6471   0.617  40.796   8.719
   79POPC   D2A 6472   0.485  40.927   8.335
   79POPC   C3A 6473   0.353  40.813   7.946
   79POPC   C4A 6474   0.483  41.048   7.580
   79POPC   C1B 6475   0.080  40.391   8.743
   79POPC   C2B 6476   0.224  40.439   8.322
   79POPC   C3B 6477   0.133  40.314   7.904
   79POPC   C4B 6478   0.170  40.577   7.530
   80POPC   NC3 6479   4.525  19.903   9.393
   80POPC   PO4 6480   3.882  19.732   9.224
   80POPC   GL1 6481   4.187  19.885   9.027
   80POPC   GL2 6482   4.147  20.223   9.215
   80POPC   C1A 6483   4.323  19.708   8.647
   80POPC   D2A 6484   4.150  19.853   8.264
   80POPC   C3A 6485   4.145  19.636   7.869
   80POPC   C4A 6486   4.172  19.864   7.486
   80POPC   C1B 6487   3.939  20.283   8.807
   80POPC   C2B 6488   3.772  20.214   8.392
   80POPC   C3B 6489   3.861  20.125   7.961
   80POPC   C4B 6490   3.844  20.275   7.577
   81POPC   NC3 6491  36.539  18.523   9.598
   81POPC   PO4 6492  35.861  18.470   9.861
   81POPC   GL1 6493  36.022  18.379   9.350
   81POPC   GL2 6494  36.331  18.421   9.146
   81POPC   C1A 6495  36.077  18.074   8.895
   81POPC   D2A 6496  36.391  18.081   8.550
   81POPC   C3A 6497  36.260  18.318   8.213
   81POPC   C4A 6498  35.989  18.176   7.868
   81POPC   C1B 6499  36.282  18.568   8.715
   81POPC   C2B 6500  36.564  18.771   8.410
   81POPC   C3B 6501  36.669  18.647   8.008
   81POPC   C4B 6502  36.424  18.419   7.748
   82POPC   NC3 6503  41.823  22.382   9.449
   82POPC   PO4 6504  41.472  21.963   9.318
   82POPC   GL1 6505  41.753  22.113   8.997
   82POPC   GL2 6506  42.101  22.142   9.073
   82POPC   C1A 6507  41.710  22.335   8.609
   82POPC   D2A 6508  41.776  22.381   8.164
   82POPC   C3A 6509  41.584  22.045   7.884
   82POPC   C4A 6510  41.234  21.849   7.613
   82POPC   C1B 6511  42.176  22.149   8.616
   82POPC   C2B 6512  42.195  22.083   8.151
   82POPC   C3B 6513  42.052  22.236   7.763
   82POPC   C4B 6514  41.821  22.124   7.407
   83POPC   NC3 6515  22.295  34.038   9.614
   83POPC   PO4 6516  21.846  33.616   9.465
   83POPC   GL1 6517  22.003  33.918   9.191
   83POPC   GL2 6518  21.720  34.081   9.080
   83POPC   C1A 6519  22.286  33.976   8.855
   83POPC   D2A 6520  22.270  33.681   8.505
   83POPC   C3A 6521  22.138  33.748   8.082
   83POPC   C4A 6522  22.406  33.687   7.716
   83POPC   C1B 6523  21.818  33.928   8.652
   83POPC   C2B 6524  21.681  34.162   8.328
   83POPC   C3B 6525  21.765  34.160   7.923
   83POPC   C4B 6526  21.893  33.826   7.641
   84POPC   NC3 6527  15.113  33.447   9.569
   84POPC   PO4 6528  15.364  34.040   9.661
   84POPC   GL1 6529  15.190  33.934   9.222
   84POPC   GL2 6530  15.014  33.604   9.104
   84POPC   C1A 6531  15.042  34.012   8.789
   84POPC   D2A 6532  15.036  33.710   8.481
   84POPC   C3A 6533  15.185  33.905   8.126
   84POPC   C4A 6534  15.168  33.778   7.713
   84POPC   C1B 6535  15.402  33.563   8.857
   84POPC   C2B 6536  15.559  33.676   8.434
   84POPC   C3B 6537  15.543  33.554   7.998
   84POPC   C4B 6538  15.553  33.492   7.528
   85POPC   NC3 6539  27.449   0.103   9.860
   85POPC   PO4 6540  27.674  44.697   9.571
   85POPC   GL1 6541  27.645  44.606   9.124
   85POPC   GL2 6542  27.758  44.927   9.020
   85POPC   C1A 6543  27.670  44.425   8.705
   85POPC   D2A 6544  27.645  44.619   8.295
   85POPC   C3A 6545  27.598  44.333   7.943
   85POPC   C4A 6546  27.406  44.207   7.552
   85POPC   C1B 6547  27.432  44.892   8.704
   85POPC   C2B 6548  27.322   0.040   8.276
   85POPC   C3B 6549  27.467  44.863   7.865
   85POPC   C4B 6550  27.386  44.699   7.432
   86POPC   NC3 6551  35.009  36.242   9.403
   86POPC   PO4 6552  35.344  35.638   9.479
   86POPC   GL1 6553  35.217  35.875   9.096
   86POPC   GL2 6554  35.405  36.219   9.068
   86POPC   C1A 6555  35.182  36.005   8.655
   86POPC   D2A 6556  35.501  36.094   8.326
   86POPC   C3A 6557  35.250  36.046   8.017
   86POPC   C4A 6558  35.290  35.961   7.640
   86POPC   C1B 6559  35.415  36.460   8.661
   86POPC   C2B 6560  35.134  36.461   8.316
   86POPC   C3B 6561  35.293  36.524   7.892
   86POPC   C4B 6562  35.379  36.407   7.434
   87POPC   NC3 6563  30.129  23.701   9.548
   87POPC   PO4 6564  29.737  24.177   9.433
   87POPC   GL1 6565  29.799  23.912   9.106
   87POPC   GL2 6566  29.896  23.565   9.117
   87POPC   C1A 6567  29.834  23.860   8.689
   87POPC   D2A 6568  29.602  23.763   8.361
   87POPC   C3A 6569  29.678  23.987   7.990
   87POPC   C4A 6570  29.684  23.812   7.604
   87POPC   C1B 6571  30.184  23.476   8.788
   87POPC   C2B 6572  29.995  23.438   8.395
   87POPC   C3B 6573  29.914  23.533   7.992
   87POPC   C4B 6574  30.128  23.501   7.598
   88POPC   NC3 6575  44.799  23.132   9.704
   88POPC   PO4 6576  44.627  22.513   9.529
   88POPC   GL1 6577  44.695  22.880   9.193
   88POPC   GL2 6578  44.645  22.665   8.908
   88POPC   C1A 6579  44.986  22.993   8.770
   88POPC   D2A 6580   0.125  22.872   8.295
   88POPC   C3A 6581  44.899  23.092   7.927
   88POPC   C4A 6582  44.802  23.125   7.475
   88POPC   C1B 6583  44.947  22.491   8.607
   88POPC   C2B 6584  44.929  22.280   8.247
   88POPC   C3B 6585  44.785  22.574   7.968
   88POPC   C4B 6586  44.444  22.831   7.783
   89POPC   NC3 6587  44.646  11.054   9.555
   89POPC   PO4 6588   0.127  11.448   9.524
   89POPC   GL1 6589  44.987  11.264   9.139
   89POPC   GL2 6590  44.597  11.284   9.110
   89POPC   C1A 6591  44.902  11.459   8.736
   89POPC   D2A 6592  44.653  11.659   8.429
   89POPC   C3A 6593  44.868  11.537   8.051
   89POPC   C4A 6594  44.984  11.349   7.679
   89POPC   C1B 6595  44.392  11.301   8.700
   89POPC   C2B 6596  44.633  11.163   8.335
   89POPC   C3B 6597  44.603  11.105   7.920
   89POPC   C4B 6598  44.262  10.903   7.729
   90POPC   NC3 6599  22.930  12.922   9.405
   90POPC   PO4 6600  22.778  12.223   9.540
   90POPC   GL1 6601  22.902  12.456   9.133
   90POPC   GL2 6602  22.670  12.688   9.070
   90POPC   C1A 6603  22.852  12.568   8.647
   90POPC   D2A 6604  22.982  12.805   8.359
   90POPC   C3A 6605  22.794  12.799   8.008
   90POPC   C4A 6606  23.117  12.726   7.770
   90POPC   C1B 6607  22.678  13.054   8.768
   90POPC   C2B 6608  22.784  13.258   8.372
   90POPC   C3B 6609  22.610  13.274   7.955
   90POPC   C4B 6610  22.650  13.043   7.562
   91POPC   NC3 6611  21.590  21.897   9.869
   91POPC   PO4 6612  21.806  22.392   9.575
   91POPC   GL1 6613  21.735  22.437   9.105
   91POPC   GL2 6614  21.396  22.478   9.041
   91POPC   C1A 6615  21.763  22.359   8.675
   91POPC   D2A 6616  21.670  22.041   8.372
   91POPC   C3A 6617  21.493  22.145   7.957
   91POPC   C4A 6618  21.145  22.269   7.665
   91POPC   C1B 6619  21.264  22.195   8.682
   91POPC   C2B 6620  21.166  21.940   8.296
   91POPC   C3B 6621  21.048  21.811   7.863
   91POPC   C4B 6622  20.940  21.885   7.397
   92POPC   NC3 6623  34.789  15.080   9.485
   92POPC   PO4 6624  34.186  15.092   9.481
   92POPC   GL1 6625  34.474  15.172   9.085
   92POPC   GL2 6626  34.865  15.146   8.995
   92POPC   C1A 6627  34.513  15.110   8.633
   92POPC   D2A 6628  34.624  14.950   8.228
   92POPC   C3A 6629  34.297  15.011   7.922
   92POPC   C4A 6630  34.243  15.421   7.698
   92POPC   C1B 6631  34.843  15.516   8.721
   92POPC   C2B 6632  34.918  15.662   8.309
   92POPC   C3B 6633  34.811  15.463   7.927
   92POPC   C4B 6634  34.774  15.083   7.736
   93POPC   NC3 6635  25.821  26.424   9.462
   93POPC   PO4 6636  26.052  26.950   9.770
   93POPC   GL1 6637  25.993  26.873   9.293
   93POPC   GL2 6638  26.090  26.564   9.071
   93POPC   C1A 6639  25.921  26.963   8.834
   93POPC   D2A 6640  26.000  26.687   8.498
   93POPC   C3A 6641  26.132  26.884   8.115
   93POPC   C4A 6642  26.111  26.900   7.686
   93POPC   C1B 6643  25.785  26.316   8.811
   93POPC   C2B 6644  25.709  26.258   8.391
   93POPC   C3B 6645  25.726  26.555   8.067
   93POPC   C4B 6646  25.780  26.527   7.651
   94POPC   NC3 6647  10.014  35.600   9.569
   94POPC   PO4 6648   9.962  34.985   9.561
   94POPC   GL1 6649   9.746  35.237   9.232
   94POPC   GL2 6650   9.663  35.610   9.190
   94POPC   C1A 6651   9.650  35.277   8.798
   94POPC   D2A 6652   9.833  35.378   8.408
   94POPC   C3A 6653   9.910  35.103   8.107
   94POPC   C4A 6654   9.677  35.271   7.782
   94POPC   C1B 6655   9.855  35.757   8.745
   94POPC   C2B 6656  10.016  35.850   8.300
   94POPC   C3B 6657   9.947  35.719   7.838
   94POPC   C4B 6658   9.959  35.605   7.357
   95POPC   NC3 6659   7.001  33.211   9.527
   95POPC   PO4 6660   7.665  33.122   9.437
   95POPC   GL1 6661   7.521  32.840   9.117
   95POPC   GL2 6662   7.155  32.825   9.199
   95POPC   C1A 6663   7.631  32.789   8.648
   95POPC   D2A 6664   7.621  33.118   8.349
   95POPC   C3A 6665   7.554  33.067   7.942
   95POPC   C4A 6666   7.749  32.822   7.713
   95POPC   C1B 6667   7.170  32.959   8.780
   95POPC   C2B 6668   7.182  32.889   8.353
   95POPC   C3B 6669   7.181  32.707   7.984
   95POPC   C4B 6670   6.923  32.591   7.693
   96POPC   NC3 6671  30.893   6.370   9.417
   96POPC   PO4 6672  30.283   6.413   9.442
   96POPC   GL1 6673  30.495   6.370   9.046
   96POPC   GL2 6674  30.824   6.242   8.918
   96POPC   C1A 6675  30.438   6.360   8.606
   96POPC   D2A 6676  30.679   6.436   8.255
   96POPC   C3A 6677  30.360   6.633   8.049
   96POPC   C4A 6678  30.327   6.954   7.743
   96POPC   C1B 6679  30.779   6.702   8.723
   96POPC   C2B 6680  30.664   6.948   8.309
   96POPC   C3B 6681  30.812   6.822   7.869
   96POPC   C4B 6682  31.148   6.852   7.534
   97POPC   NC3 6683  38.600   9.271   9.369
   97POPC   PO4 6684  38.452   8.793   9.933
   97POPC   GL1 6685  38.430   8.815   9.397
   97POPC   GL2 6686  38.670   8.807   9.129
   97POPC   C1A 6687  38.277   8.970   8.877
   97POPC   D2A 6688  38.262   8.996   8.387
   97POPC   C3A 6689  38.441   9.267   8.058
   97POPC   C4A 6690  38.323   9.227   7.614
   97POPC   C1B 6691  38.644   8.648   8.702
   97POPC   C2B 6692  38.689   8.742   8.256
   97POPC   C3B 6693  38.704   8.901   7.846
   97POPC   C4B 6694  38.697   8.668   7.464
   98POPC   NC3 6695  39.772  40.881   9.664
   98POPC   PO4 6696  40.408  40.615   9.612
   98POPC   GL1 6697  40.144  40.822   9.327
   98POPC   GL2 6698  39.867  40.581   9.250
   98POPC   C1A 6699  40.065  40.976   8.946
   98POPC   D2A 6700  39.806  41.028   8.599
   98POPC   C3A 6701  39.818  40.803   8.218
   98POPC   C4A 6702  39.789  40.960   7.793
   98POPC   C1B 6703  40.102  40.458   8.886
   98POPC   C2B 6704  40.093  40.379   8.435
   98POPC   C3B 6705  40.104  40.408   7.993
   98POPC   C4B 6706  40.111  40.609   7.596
   99POPC   NC3 6707  22.450   4.183   9.411
   99POPC   PO4 6708  21.922   4.557   9.630
   99POPC   GL1 6709  21.966   4.304   9.225
   99POPC   GL2 6710  21.872   3.921   9.194
   99POPC   C1A 6711  22.118   4.475   8.820
   99POPC   D2A 6712  22.138   4.654   8.411
   99POPC   C3A 6713  22.237   4.534   7.946
   99POPC   C4A 6714  22.555   4.176   7.808
   99POPC   C1B 6715  21.861   4.041   8.736
   99POPC   C2B 6716  22.079   4.146   8.334
   99POPC   C3B 6717  22.056   4.065   7.878
   99POPC   C4B 6718  21.843   4.360   7.663
  100POPC   NC3 6719  31.766  30.279   9.337
  100POPC   PO4 6720  31.545  29.688   9.444
  100POPC   GL1 6721  31.417  29.860   9.106
  100POPC   GL2 6722  31.268  30.148   9.298
  100POPC   C1A 6723  31.464  29.666   8.711
  100POPC   D2A 6724  31.214  29.596   8.354
  100POPC   C3A 6725  31.432  29.626   8.004
  100POPC   C4A 6726  31.300  29.798   7.636
  100POPC   C1B 6727  31.205  30.265   8.889
  100POPC   C2B 6728  31.377  30.176   8.525
  100POPC   C3B 6729  31.348  30.133   8.101
  100POPC   C4B 6730  31.421  30.276   7.717
  101POPC   NC3 6731  21.343  31.852   9.783
  101POPC   PO4 6732  21.702  31.336   9.514
  101POPC   GL1 6733  21.275  31.476   9.353
  101POPC   GL2 6734  21.301  31.809   9.257
  101POPC   C1A 6735  21.074  31.438   8.918
  101POPC   D2A 6736  21.232  31.249   8.507
  101POPC   C3A 6737  21.101  31.422   8.102
  101POPC   C4A 6738  21.342  31.599   7.764
  101POPC   C1B 6739  21.570  31.574   8.928
  101POPC   C2B 6740  21.607  31.621   8.491
  101POPC   C3B 6741  21.569  31.896   8.146
  101POPC   C4B 6742  21.730  31.956   7.741
  102POPC   NC3 6743  16.102  39.435   9.821
  102POPC   PO4 6744  16.003  38.941   9.350
  102POPC   GL1 6745  15.749  39.194   9.089
  102POPC   GL2 6746  16.030  39.147   8.877
  102POPC   C1A 6747  15.574  39.144   8.661
  102POPC   D2A 6748  15.718  39.326   8.338
  102POPC   C3A 6749  15.795  39.136   7.981
  102POPC   C4A 6750  15.722  39.510   7.776
  102POPC   C1B 6751  16.106  39.501   8.617
  102POPC   C2B 6752  16.136  39.544   8.161
  102POPC   C3B 6753  16.305  39.312   7.812
  102POPC   C4B 6754  16.230  38.884   7.672
  103POPC   NC3 6755  14.125  38.094   9.455
  103POPC   PO4 6756  14.474  38.666   9.622
  103POPC   GL1 6757  14.551  38.584   9.181
  103POPC   GL2 6758  14.219  38.439   9.097
  103POPC   C1A 6759  14.517  38.572   8.714
  103POPC   D2A 6760  14.256  38.531   8.342
  103POPC   C3A 6761  14.537  38.413   8.031
  103POPC   C4A 6762  14.629  38.496   7.615
  103POPC   C1B 6763  14.139  38.185   8.720
  103POPC   C2B 6764  14.142  37.999   8.288
  103POPC   C3B 6765  14.133  38.164   7.840
  103POPC   C4B 6766  14.037  37.935   7.452
  104POPC   NC3 6767  33.393  41.727   9.462
  104POPC   PO4 6768  32.739  41.376   9.422
  104POPC   GL1 6769  32.871  41.488   9.040
  104POPC   GL2 6770  33.222  41.432   9.095
  104POPC   C1A 6771  32.982  41.351   8.637
  104POPC   D2A 6772  33.290  41.464   8.350
  104POPC   C3A 6773  33.033  41.610   8.019
  104POPC   C4A 6774  32.928  41.352   7.665
  104POPC   C1B 6775  33.354  41.760   8.783
  104POPC   C2B 6776  33.348  41.966   8.360
  104POPC   C3B 6777  33.457  41.901   7.907
  104POPC   C4B 6778  33.151  41.818   7.549
  105POPC   NC3 6779   0.802  43.964   9.399
  105POPC   PO4 6780   0.130  44.097   9.514
  105POPC   GL1 6781   0.322  43.916   9.153
  105POPC   GL2 6782   0.532  43.592   9.165
  105POPC   C1A 6783   0.276  43.726   8.765
  105POPC   D2A 6784   0.447  43.782   8.364
  105POPC   C3A 6785   0.285  44.040   8.012
  105POPC   C4A 6786   0.067  43.788   7.691
  105POPC   C1B 6787   0.785  43.690   8.762
  105POPC   C2B 6788   0.953  43.656   8.327
  105POPC   C3B 6789   0.763  43.879   7.980
  105POPC   C4B 6790   0.555  43.694   7.653
  106POPC   NC3 6791   7.420   9.580   9.435
  106POPC   PO4 6792   7.276  10.178   9.501
  106POPC   GL1 6793   7.155  10.072   9.117
  106POPC   GL2 6794   7.493   9.919   9.053
  106POPC   C1A 6795   7.218  10.108   8.686
  106POPC   D2A 6796   7.533   9.953   8.407
  106POPC   C3A 6797   7.278   9.983   8.082
  106POPC   C4A 6798   7.174  10.311   7.840
  106POPC   C1B 6799   7.382   9.596   8.747
  106POPC   C2B 6800   7.315   9.498   8.302
  106POPC   C3B 6801   7.629   9.622   7.966
  106POPC   C4B 6802   7.831   9.701   7.546
  107POPC   NC3 6803  39.898  22.744   9.491
  107POPC   PO4 6804  39.954  23.280   9.442
  107POPC   GL1 6805  39.905  23.005   9.065
  107POPC   GL2 6806  39.663  22.703   9.017
  107POPC   C1A 6807  40.065  22.766   8.719
  107POPC   D2A 6808  40.183  22.620   8.373
  107POPC   C3A 6809  39.980  22.678   7.954
  107POPC   C4A 6810  40.240  22.857   7.584
  107POPC   C1B 6811  39.665  23.030   8.626
  107POPC   C2B 6812  39.996  23.086   8.274
  107POPC   C3B 6813  39.911  23.165   7.810
  107POPC   C4B 6814  40.034  23.300   7.390
  108POPC   NC3 6815  35.013  17.537   9.346
  108POPC   PO4 6816  35.633  17.534   9.593
  108POPC   GL1 6817  35.516  17.390   9.200
  108POPC   GL2 6818  35.442  17.724   9.063
  108POPC   C1A 6819  35.420  17.304   8.779
  108POPC   D2A 6820  35.515  17.621   8.464
  108POPC   C3A 6821  35.632  17.479   8.061
  108POPC   C4A 6822  35.415  17.332   7.729
  108POPC   C1B 6823  35.086  17.697   8.740
  108POPC   C2B 6824  35.070  17.862   8.349
  108POPC   C3B 6825  34.987  17.717   7.949
  108POPC   C4B 6826  34.995  17.963   7.584
  109POPC   NC3 6827  34.567  14.275   9.598
  109POPC   PO4 6828  34.208  14.182   9.068
  109POPC   GL1 6829  34.627  14.366   9.064
  109POPC   GL2 6830  34.939  14.223   9.204
  109POPC   C1A 6831  34.612  14.617   8.683
  109POPC   D2A 6832  34.249  14.614   8.365
  109POPC   C3A 6833  34.341  14.471   7.951
  109POPC   C4A 6834  34.743  14.600   7.864
  109POPC   C1B 6835  35.053  14.351   8.773
  109POPC   C2B 6836  34.872  14.272   8.399
  109POPC   C3B 6837  34.941  14.115   8.031
  109POPC   C4B 6838  34.699  14.135   7.666
  110POPC   NC3 6839  23.709  12.413   9.478
  110POPC   PO4 6840  23.268  12.915   9.712
  110POPC   GL1 6841  23.348  12.708   9.256
  110POPC   GL2 6842  23.655  12.666   9.048
  110POPC   C1A 6843  23.234  12.829   8.831
  110POPC   D2A 6844  23.443  12.978   8.462
  110POPC   C3A 6845  23.474  12.706   8.137
  110POPC   C4A 6846  23.641  12.671   7.739
  110POPC   C1B 6847  23.617  12.529   8.651
  110POPC   C2B 6848  23.923  12.662   8.401
  110POPC   C3B 6849  24.059  12.775   8.030
  110POPC   C4B 6850  24.119  12.505   7.718
  111POPC   NC3 6851  29.640   9.451   9.520
  111POPC   PO4 6852  30.031   8.943   9.585
  111POPC   GL1 6853  29.903   8.916   9.176
  111POPC   GL2 6854  29.924   9.258   9.131
  111POPC   C1A 6855  29.777   8.897   8.745
  111POPC   D2A 6856  29.670   8.701   8.366
  111POPC   C3A 6857  29.798   8.828   7.988
  111POPC   C4A 6858  29.558   8.728   7.631
  111POPC   C1B 6859  30.138   9.242   8.741
  111POPC   C2B 6860  30.144   8.977   8.374
  111POPC   C3B 6861  30.263   9.098   7.959
  111POPC   C4B 6862  29.957   9.084   7.583
  112POPC   NC3 6863   5.716  23.935   9.263
  112POPC   PO4 6864   6.416  23.868   9.345
  112POPC   GL1 6865   6.184  23.898   9.026
  112POPC   GL2 6866   6.078  23.562   9.063
  112POPC   C1A 6867   6.046  23.854   8.614
  112POPC   D2A 6868   5.833  23.809   8.274
  112POPC   C3A 6869   5.837  24.068   7.917
  112POPC   C4A 6870   6.144  23.944   7.615
  112POPC   C1B 6871   5.752  23.473   8.787
  112POPC   C2B 6872   5.689  23.309   8.408
  112POPC   C3B 6873   5.877  23.380   8.032
  112POPC   C4B 6874   5.657  23.635   7.750
  113POPC   NC3 6875  22.372   7.348   9.758
  113POPC   PO4 6876  23.038   7.306   9.549
  113POPC   GL1 6877  23.030   7.509   9.179
  113POPC   GL2 6878  22.696   7.480   9.178
  113POPC   C1A 6879  23.137   7.418   8.783
  113POPC   D2A 6880  23.268   7.439   8.370
  113POPC   C3A 6881  23.002   7.236   8.096
  113POPC   C4A 6882  23.070   7.327   7.692
  113POPC   C1B 6883  22.640   7.247   8.792
  113POPC   C2B 6884  22.539   7.223   8.366
  113POPC   C3B 6885  22.492   7.505   8.063
  113POPC   C4B 6886  22.611   7.570   7.696
  114POPC   NC3 6887  32.714  21.812   9.610
  114POPC   PO4 6888  33.102  22.353   9.450
  114POPC   GL1 6889  32.846  22.228   9.097
  114POPC   GL2 6890  32.670  21.897   9.114
  114POPC   C1A 6891  33.137  22.219   8.750
  114POPC   D2A 6892  33.350  22.000   8.430
  114POPC   C3A 6893  33.147  21.847   8.062
  114POPC   C4A 6894  33.217  22.022   7.674
  114POPC   C1B 6895  32.752  21.872   8.674
  114POPC   C2B 6896  32.827  22.160   8.340
  114POPC   C3B 6897  32.763  22.173   7.903
  114POPC   C4B 6898  32.769  21.737   7.670
  115POPC   NC3 6899  19.962  25.683   9.620
  115POPC   PO4 6900  19.955  26.267   9.281
  115POPC   GL1 6901  20.029  25.862   9.120
  115POPC   GL2 6902  19.688  25.742   9.205
  115POPC   C1A 6903  20.218  25.846   8.706
  115POPC   D2A 6904  20.298  25.704   8.272
  115POPC   C3A 6905  20.086  25.912   7.908
  115POPC   C4A 6906  19.985  25.911   7.473
  115POPC   C1B 6907  19.576  25.598   8.819
  115POPC   C2B 6908  19.711  25.641   8.419
  115POPC   C3B 6909  19.535  25.807   8.067
  115POPC   C4B 6910  19.544  25.768   7.647
  116POPC   NC3 6911  30.406  38.124   9.365
  116POPC   PO4 6912  30.782  38.638   9.501
  116POPC   GL1 6913  31.013  38.598   9.136
  116POPC   GL2 6914  31.144  38.264   9.147
  116POPC   C1A 6915  30.873  38.728   8.702
  116POPC   D2A 6916  30.532  38.585   8.408
  116POPC   C3A 6917  30.464  38.491   7.958
  116POPC   C4A 6918  30.695  38.703   7.615
  116POPC   C1B 6919  30.894  38.239   8.771
  116POPC   C2B 6920  30.887  38.208   8.326
  116POPC   C3B 6921  30.640  37.960   8.059
  116POPC   C4B 6922  30.492  37.922   7.692
  117POPC   NC3 6923   2.491   7.203   9.513
  117POPC   PO4 6924   2.603   7.867   9.439
  117POPC   GL1 6925   2.503   7.583   9.086
  117POPC   GL2 6926   2.472   7.191   9.021
  117POPC   C1A 6927   2.589   7.554   8.657
  117POPC   D2A 6928   2.861   7.391   8.330
  117POPC   C3A 6929   2.678   7.334   7.945
  117POPC   C4A 6930   2.578   7.537   7.566
  117POPC   C1B 6931   2.851   7.110   8.770
  117POPC   C2B 6932   2.928   6.860   8.371
  117POPC   C3B 6933   3.065   6.984   7.927
  117POPC   C4B 6934   3.004   7.283   7.535
  118POPC   NC3 6935  21.502  15.313   9.662
  118POPC   PO4 6936  21.378  14.726   9.597
  118POPC   GL1 6937  21.539  14.996   9.241
  118POPC   GL2 6938  21.655  15.337   9.182
  118POPC   C1A 6939  21.652  14.884   8.820
  118POPC   D2A 6940  21.771  14.921   8.381
  118POPC   C3A 6941  21.462  14.959   8.049
  118POPC   C4A 6942  21.736  14.882   7.745
  118POPC   C1B 6943  21.306  15.263   8.889
  118POPC   C2B 6944  21.311  15.183   8.481
  118POPC   C3B 6945  21.286  15.460   8.125
  118POPC   C4B 6946  21.258  15.391   7.714
  119POPC   NC3 6947  30.883  44.153   9.617
  119POPC   PO4 6948  30.641  43.497   9.674
  119POPC   GL1 6949  30.811  43.586   9.240
  119POPC   GL2 6950  30.796  43.917   9.190
  119POPC   C1A 6951  31.034  43.645   8.807
  119POPC   D2A 6952  31.013  43.449   8.365
  119POPC   C3A 6953  30.958  43.705   7.998
  119POPC   C4A 6954  30.635  43.914   7.713
  119POPC   C1B 6955  30.623  43.939   8.801
  119POPC   C2B 6956  30.612  43.782   8.393
  119POPC   C3B 6957  30.353  43.984   8.105
  119POPC   C4B 6958  30.416  44.379   7.855
  120POPC   NC3 6959  28.915  13.849   9.513
  120POPC   PO4 6960  29.169  13.256   9.449
  120POPC   GL1 6961  28.951  13.439   9.080
  120POPC   GL2 6962  28.842  13.773   9.009
  120POPC   C1A 6963  28.710  13.284   8.706
  120POPC   D2A 6964  28.713  13.265   8.237
  120POPC   C3A 6965  29.091  13.443   8.063
  120POPC   C4A 6966  29.404  13.674   7.889
  120POPC   C1B 6967  29.186  13.766   8.691
  120POPC   C2B 6968  29.244  14.006   8.335
  120POPC   C3B 6969  28.870  13.950   8.139
  120POPC   C4B 6970  28.831  13.752   7.742
  121POPC   NC3 6971  36.378  19.257   9.861
  121POPC   PO4 6972  36.290  18.850   9.409
  121POPC   GL1 6973  36.141  18.923   9.065
  121POPC   GL2 6974  35.798  18.958   9.067
  121POPC   C1A 6975  36.325  19.097   8.730
  121POPC   D2A 6976  36.177  19.258   8.380
  121POPC   C3A 6977  36.387  19.085   8.043
  121POPC   C4A 6978  36.464  18.928   7.635
  121POPC   C1B 6979  35.842  18.901   8.633
  121POPC   C2B 6980  36.053  18.777   8.279
  121POPC   C3B 6981  36.041  18.746   7.841
  121POPC   C4B 6982  35.788  18.928   7.488
  122POPC   NC3 6983  33.618  13.103   9.543
  122POPC   PO4 6984  33.005  12.880   9.627
  122POPC   GL1 6985  32.804  12.995   9.242
  122POPC   GL2 6986  33.003  13.262   9.122
  122POPC   C1A 6987  32.916  12.814   8.803
  122POPC   D2A 6988  33.034  12.946   8.367
  122POPC   C3A 6989  32.930  12.736   7.925
  122POPC   C4A 6990  33.279  12.561   7.650
  122POPC   C1B 6991  32.753  13.294   8.758
  122POPC   C2B 6992  32.659  13.348   8.348
  122POPC   C3B 6993  32.893  13.238   7.982
  122POPC   C4B 6994  32.780  13.118   7.555
  123POPC   NC3 6995  24.764  17.481   9.654
  123POPC   PO4 6996  24.233  17.770   9.778
  123POPC   GL1 6997  24.432  17.673   9.312
  123POPC   GL2 6998  24.714  17.485   9.145
  123POPC   C1A 6999  24.379  17.732   8.859
  123POPC   D2A 7000  24.278  17.661   8.429
  123POPC   C3A 7001  24.220  17.302   8.167
  123POPC   C4A 7002  24.470  17.554   7.858
  123POPC   C1B 7003  24.693  17.374   8.678
  123POPC   C2B 7004  24.722  17.278   8.214
  123POPC   C3B 7005  24.844  17.217   7.770
  123POPC   C4B 7006  24.963  17.318   7.343
  124POPC   NC3 7007   7.651  35.006   9.398
  124POPC   PO4 7008   7.280  34.479   9.381
  124POPC   GL1 7009   7.617  34.548   9.105
  124POPC   GL2 7010   7.665  34.234   8.915
  124POPC   C1A 7011   7.444  34.767   8.765
  124POPC   D2A 7012   7.231  34.724   8.371
  124POPC   C3A 7013   7.493  34.659   8.035
  124POPC   C4A 7014   7.487  34.317   7.753
  124POPC   C1B 7015   7.206  34.308   8.758
  124POPC   C2B 7016   6.854  34.284   8.468
  124POPC   C3B 7017   7.053  34.286   8.067
  124POPC   C4B 7018   6.970  34.350   7.651
  125POPC   NC3 7019  11.504  44.514   9.545
  125POPC   PO4 7020  10.920  44.371   9.549
  125POPC   GL1 7021  11.161  44.399   9.167
  125POPC   GL2 7022  11.216  44.682   9.116
  125POPC   C1A 7023  11.313  44.423   8.691
  125POPC   D2A 7024  11.423  44.287   8.267
  125POPC   C3A 7025  11.203  44.392   7.895
  125POPC   C4A 7026  11.188  44.644   7.512
  125POPC   C1B 7027  11.448  44.898   8.809
  125POPC   C2B 7028  11.255  44.903   8.439
  125POPC   C3B 7029  11.407  44.822   8.067
  125POPC   C4B 7030  11.367   0.063   7.723
  126POPC   NC3 7031   6.443  15.853   9.588
  126POPC   PO4 7032   6.884  16.328   9.476
  126POPC   GL1 7033   6.796  15.909   9.221
  126POPC   GL2 7034   6.443  15.949   9.074
  126POPC   C1A 7035   6.777  15.676   8.794
  126POPC   D2A 7036   6.624  15.927   8.405
  126POPC   C3A 7037   6.722  16.131   7.980
  126POPC   C4A 7038   6.772  16.212   7.517
  126POPC   C1B 7039   6.216  15.768   8.704
  126POPC   C2B 7040   6.307  15.518   8.335
  126POPC   C3B 7041   6.612  15.609   7.984
  126POPC   C4B 7042   6.497  15.799   7.624
  127POPC   NC3 7043  13.509  21.125   9.613
  127POPC   PO4 7044  13.556  20.493   9.496
  127POPC   GL1 7045  13.567  20.534   9.084
  127POPC   GL2 7046  13.508  20.899   9.143
  127POPC   C1A 7047  13.686  20.409   8.656
  127POPC   D2A 7048  13.933  20.537   8.299
  127POPC   C3A 7049  13.744  20.392   7.912
  127POPC   C4A 7050  13.665  20.516   7.483
  127POPC   C1B 7051  13.384  20.862   8.730
  127POPC   C2B 7052  13.613  20.926   8.383
  127POPC   C3B 7053  13.695  20.889   7.964
  127POPC   C4B 7054  13.446  20.967   7.609
  128POPC   NC3 7055   9.749  21.678   9.536
  128POPC   PO4 7056   9.350  21.212   9.419
  128POPC   GL1 7057   9.757  21.286   9.170
  128POPC   GL2 7058   9.830  21.640   9.034
  128POPC   C1A 7059  10.003  21.229   8.782
  128POPC   D2A 7060  10.031  21.490   8.409
  128POPC   C3A 7061   9.902  21.219   8.084
  128POPC   C4A 7062   9.653  21.128   7.723
  128POPC   C1B 7063   9.401  21.561   8.803
  128POPC   C2B 7064   9.279  21.694   8.372
  128POPC   C3B 7065   9.627  21.735   8.092
  128POPC   C4B 7066   9.893  21.602   7.765
  129POPC   NC3 7067  28.625  10.586   9.440
  129POPC   PO4 7068  28.121  10.192   9.427
  129POPC   GL1 7069  28.144  10.383   9.049
  129POPC   GL2 7070  28.324  10.698   9.038
  129POPC   C1A 7071  28.265  10.360   8.628
  129POPC   D2A 7072  28.520  10.308   8.273
  129POPC   C3A 7073  28.222  10.293   7.968
  129POPC   C4A 7074  28.248  10.618   7.738
  129POPC   C1B 7075  28.206  10.881   8.638
  129POPC   C2B 7076  28.324  10.819   8.216
  129POPC   C3B 7077  28.589  10.966   7.861
  129POPC   C4B 7078  28.505  10.921   7.420
  130POPC   NC3 7079   9.569  15.684   9.496
  130POPC   PO4 7080  10.081  16.022   9.715
  130POPC   GL1 7081  10.010  15.908   9.288
  130POPC   GL2 7082   9.698  16.079   9.165
  130POPC   C1A 7083  10.068  15.764   8.856
  130POPC   D2A 7084   9.975  15.949   8.450
  130POPC   C3A 7085   9.877  15.757   8.044
  130POPC   C4A 7086   9.589  15.802   7.765
  130POPC   C1B 7087   9.548  15.824   8.806
  130POPC   C2B 7088   9.452  15.896   8.377
  130POPC   C3B 7089   9.596  16.184   8.108
  130POPC   C4B 7090   9.485  16.301   7.695
  131POPC   NC3 7091   5.176  14.948   9.661
  131POPC   PO4 7092   4.800  15.366   9.308
  131POPC   GL1 7093   5.113  15.119   9.143
  131POPC   GL2 7094   4.970  14.785   9.213
  131POPC   C1A 7095   5.220  15.262   8.724
  131POPC   D2A 7096   4.924  15.393   8.401
  131POPC   C3A 7097   5.079  15.345   8.002
  131POPC   C4A 7098   5.473  15.224   7.917
  131POPC   C1B 7099   4.822  14.855   8.798
  131POPC   C2B 7100   5.070  14.857   8.433
  131POPC   C3B 7101   5.024  14.807   8.017
  131POPC   C4B 7102   5.136  14.967   7.632
  132POPC   NC3 7103   3.666  42.905   9.512
  132POPC   PO4 7104   3.296  43.466   9.408
  132POPC   GL1 7105   3.396  43.178   9.038
  132POPC   GL2 7106   3.665  42.963   9.023
  132POPC   C1A 7107   3.609  43.253   8.604
  132POPC   D2A 7108   3.929  43.453   8.328
  132POPC   C3A 7109   3.870  43.181   7.963
  132POPC   C4A 7110   3.467  43.079   7.760
  132POPC   C1B 7111   3.574  42.727   8.669
  132POPC   C2B 7112   3.642  42.822   8.259
  132POPC   C3B 7113   3.375  42.613   7.938
  132POPC   C4B 7114   3.233  42.682   7.515
  133POPC   NC3 7115   2.980   5.708   9.424
  133POPC   PO4 7116   2.473   6.036   9.749
  133POPC   GL1 7117   2.678   6.111   9.259
  133POPC   GL2 7118   3.006   6.058   9.041
  133POPC   C1A 7119   2.550   6.034   8.789
  133POPC   D2A 7120   2.355   6.138   8.390
  133POPC   C3A 7121   2.251   5.783   8.137
  133POPC   C4A 7122   2.498   5.547   7.881
  133POPC   C1B 7123   2.959   5.746   8.716
  133POPC   C2B 7124   2.749   5.800   8.303
  133POPC   C3B 7125   2.896   5.915   7.868
  133POPC   C4B 7126   3.103   5.765   7.482
  134POPC   NC3 7127  34.833  40.865   9.524
  134POPC   PO4 7128  34.182  40.727   9.439
  134POPC   GL1 7129  34.479  40.744   9.121
  134POPC   GL2 7130  34.536  41.085   9.108
  134POPC   C1A 7131  34.450  40.710   8.670
  134POPC   D2A 7132  34.215  40.699   8.284
  134POPC   C3A 7133  34.449  40.657   7.907
  134POPC   C4A 7134  34.549  40.763   7.494
  134POPC   C1B 7135  34.767  41.116   8.715
  134POPC   C2B 7136  34.708  40.968   8.266
  134POPC   C3B 7137  34.704  41.147   7.817
  134POPC   C4B 7138  34.917  41.120   7.385
  135POPC   NC3 7139  21.635   8.691   9.485
  135POPC   PO4 7140  21.531   9.353   9.383
  135POPC   GL1 7141  21.812   9.120   9.078
  135POPC   GL2 7142  21.753   8.773   9.017
  135POPC   C1A 7143  21.824   9.055   8.599
  135POPC   D2A 7144  21.676   9.317   8.227
  135POPC   C3A 7145  21.252   9.219   8.006
  135POPC   C4A 7146  21.199   9.010   7.606
  135POPC   C1B 7147  21.354   8.955   8.885
  135POPC   C2B 7148  21.317   9.036   8.475
  135POPC   C3B 7149  21.572   8.824   8.144
  135POPC   C4B 7150  21.425   8.579   7.811
  136POPC   NC3 7151  42.611   3.338   9.508
  136POPC   PO4 7152  42.111   3.772   9.386
  136POPC   GL1 7153  42.229   3.469   9.084
  136POPC   GL2 7154  42.560   3.555   9.063
  136POPC   C1A 7155  42.243   3.590   8.657
  136POPC   D2A 7156  42.510   3.760   8.327
  136POPC   C3A 7157  42.210   3.645   8.039
  136POPC   C4A 7158  41.943   3.740   7.712
  136POPC   C1B 7159  42.663   3.324   8.708
  136POPC   C2B 7160  42.823   3.360   8.288
  136POPC   C3B 7161  42.661   3.492   7.876
  136POPC   C4B 7162  42.302   3.345   7.631
  137POPC   NC3 7163   8.047  13.899   9.503
  137POPC   PO4 7164   8.569  13.574   9.441
  137POPC   GL1 7165   8.365  13.756   9.123
  137POPC   GL2 7166   8.057  13.563   9.126
  137POPC   C1A 7167   8.290  13.793   8.714
  137POPC   D2A 7168   8.116  13.867   8.355
  137POPC   C3A 7169   8.432  13.898   8.050
  137POPC   C4A 7170   8.375  13.826   7.629
  137POPC   C1B 7171   7.999  13.349   8.769
  137POPC   C2B 7172   8.118  13.365   8.366
  137POPC   C3B 7173   8.087  13.517   7.958
  137POPC   C4B 7174   7.938  13.318   7.608
  138POPC   NC3 7175  10.182  22.129   9.647
  138POPC   PO4 7176  10.850  22.259   9.475
  138POPC   GL1 7177  10.510  22.258   9.167
  138POPC   GL2 7178  10.327  21.941   9.158
  138POPC   C1A 7179  10.642  22.186   8.747
  138POPC   D2A 7180  10.875  22.079   8.384
  138POPC   C3A 7181  10.639  22.093   8.013
  138POPC   C4A 7182  10.716  21.784   7.720
  138POPC   C1B 7183  10.160  21.997   8.770
  138POPC   C2B 7184  10.287  22.166   8.383
  138POPC   C3B 7185  10.100  21.999   8.073
  138POPC   C4B 7186  10.238  22.000   7.706
  139POPC   NC3 7187  39.535  21.916   9.559
  139POPC   PO4 7188  38.925  21.803   9.605
  139POPC   GL1 7189  39.176  21.959   9.204
  139POPC   GL2 7190  39.472  22.196   9.123
  139POPC   C1A 7191  39.327  21.820   8.797
  139POPC   D2A 7192  39.110  21.921   8.399
  139POPC   C3A 7193  39.361  21.971   7.996
  139POPC   C4A 7194  39.266  22.182   7.605
  139POPC   C1B 7195  39.254  22.332   8.729
  139POPC   C2B 7196  39.219  22.412   8.260
  139POPC   C3B 7197  39.455  22.519   7.918
  139POPC   C4B 7198  39.360  22.702   7.523
  140POPC   NC3 7199   8.172  27.564   9.590
  140POPC   PO4 7200   8.776  27.587   9.291
  140POPC   GL1 7201   8.368  27.781   9.181
  140POPC   GL2 7202   8.111  27.577   9.030
  140POPC   C1A 7203   8.299  27.980   8.790
  140POPC   D2A 7204   8.356  27.744   8.420
  140POPC   C3A 7205   8.464  27.896   8.013
  140POPC   C4A 7206   8.439  27.605   7.674
  140POPC   C1B 7207   7.797  27.884   8.859
  140POPC   C2B 7208   7.847  27.912   8.420
  140POPC   C3B 7209   7.931  27.560   8.130
  140POPC   C4B 7210   7.932  27.443   7.698
  141POPC   NC3 7211  10.710  31.475   9.341
  141POPC   PO4 7212  10.138  31.504   9.664
  141POPC   GL1 7213  10.202  31.373   9.226
  141POPC   GL2 7214  10.436  31.216   9.012
  141POPC   C1A 7215  10.220  31.669   8.855
  141POPC   D2A 7216  10.532  31.659   8.514
  141POPC   C3A 7217  10.549  31.675   8.058
  141POPC   C4A 7218  10.985  31.745   7.873
  141POPC   C1B 7219  10.519  31.132   8.595
  141POPC   C2B 7220  10.629  31.171   8.164
  141POPC   C3B 7221  10.671  31.291   7.743
  141POPC   C4B 7222  10.701  31.090   7.343
  142POPC   NC3 7223   8.613  10.375   9.608
  142POPC   PO4 7224   8.061  10.667   9.682
  142POPC   GL1 7225   8.016  10.674   9.254
  142POPC   GL2 7226   8.357  10.722   9.143
  142POPC   C1A 7227   7.926  10.761   8.821
  142POPC   D2A 7228   8.179  10.783   8.465
  142POPC   C3A 7229   8.098  10.703   8.032
  142POPC   C4A 7230   8.424  10.767   7.726
  142POPC   C1B 7231   8.294  10.402   8.801
  142POPC   C2B 7232   8.424  10.322   8.345
  142POPC   C3B 7233   8.361  10.282   7.872
  142POPC   C4B 7234   8.567  10.391   7.427
  143POPC   NC3 7235   5.007  17.312   9.540
  143POPC   PO4 7236   4.646  17.912   9.502
  143POPC   GL1 7237   4.780  17.681   9.152
  143POPC   GL2 7238   5.132  17.622   9.151
  143POPC   C1A 7239   4.862  17.550   8.736
  143POPC   D2A 7240   4.780  17.255   8.444
  143POPC   C3A 7241   4.912  17.415   8.057
  143POPC   C4A 7242   4.705  17.478   7.679
  143POPC   C1B 7243   5.466  17.605   8.840
  143POPC   C2B 7244   5.501  17.755   8.441
  143POPC   C3B 7245   5.419  17.595   8.037
  143POPC   C4B 7246   5.555  17.375   7.652
  144POPC   NC3 7247  31.591  41.665   9.480
  144POPC   PO4 7248  31.806  41.107   9.213
  144POPC   GL1 7249  31.506  41.419   9.017
  144POPC   GL2 7250  31.199  41.510   9.154
  144POPC   C1A 7251  31.425  41.832   8.796
  144POPC   D2A 7252  31.498  41.922   8.362
  144POPC   C3A 7253  31.636  41.541   8.146
  144POPC   C4A 7254  31.702  41.606   7.704
  144POPC   C1B 7255  30.985  41.532   8.763
  144POPC   C2B 7256  31.141  41.550   8.346
  144POPC   C3B 7257  31.198  41.697   7.923
  144POPC   C4B 7258  31.248  41.515   7.513
  145POPC   NC3 7259   9.060  35.802   9.711
  145POPC   PO4 7260   8.864  36.378   9.553
  145POPC   GL1 7261   9.149  36.290   9.251
  145POPC   GL2 7262   9.227  35.916   9.264
  145POPC   C1A 7263   9.140  36.186   8.841
  145POPC   D2A 7264   9.401  36.127   8.503
  145POPC   C3A 7265   9.143  36.135   8.159
  145POPC   C4A 7266   9.323  36.135   7.758
  145POPC   C1B 7267   8.854  35.800   9.027
  145POPC   C2B 7268   8.777  35.836   8.580
  145POPC   C3B 7269   8.792  35.714   8.128
  145POPC   C4B 7270   8.806  35.999   7.789
  146POPC   NC3 7271  25.793  23.312   9.193
  146POPC   PO4 7272  25.987  22.731   9.509
  146POPC   GL1 7273  26.092  22.892   9.091
  146POPC   GL2 7274  26.395  23.044   8.989
  146POPC   C1A 7275  25.936  22.972   8.678
  146POPC   D2A 7276  25.780  22.704   8.367
  146POPC   C3A 7277  25.804  22.898   7.973
  146POPC   C4A 7278  25.948  22.837   7.564
  146POPC   C1B 7279  26.452  23.207   8.589
  146POPC   C2B 7280  26.164  23.139   8.243
  146POPC   C3B 7281  26.241  23.178   7.802
  146POPC   C4B 7282  26.205  23.243   7.360
  147POPC   NC3 7283  26.914  12.485   9.779
  147POPC   PO4 7284  26.481  11.999   9.754
  147POPC   GL1 7285  26.773  12.165   9.392
  147POPC   GL2 7286  26.527  12.051   9.206
  147POPC   C1A 7287  26.913  12.321   8.947
  147POPC   D2A 7288  26.976  12.414   8.464
  147POPC   C3A 7289  26.863  12.050   8.153
  147POPC   C4A 7290  27.006  11.864   7.773
  147POPC   C1B 7291  26.420  12.215   8.845
  147POPC   C2B 7292  26.494  12.198   8.450
  147POPC   C3B 7293  26.568  12.498   8.123
  147POPC   C4B 7294  26.851  12.405   7.767
  148POPC   NC3 7295  19.442  25.001   9.466
  148POPC   PO4 7296  20.144  25.026   9.508
  148POPC   GL1 7297  20.031  25.342   9.222
  148POPC   GL2 7298  19.739  25.232   9.141
  148POPC   C1A 7299  20.030  25.374   8.754
  148POPC   D2A 7300  20.033  25.266   8.308
  148POPC   C3A 7301  19.870  25.438   7.958
  148POPC   C4A 7302  19.946  25.234   7.579
  148POPC   C1B 7303  19.457  25.103   8.791
  148POPC   C2B 7304  19.517  25.163   8.347
  148POPC   C3B 7305  19.394  25.305   7.932
  148POPC   C4B 7306  19.426  25.289   7.519
  149POPC   NC3 7307  31.897  37.003   9.370
  149POPC   PO4 7308  32.514  37.060   9.640
  149POPC   GL1 7309  32.384  36.904   9.132
  149POPC   GL2 7310  32.160  36.611   9.163
  149POPC   C1A 7311  32.269  37.130   8.663
  149POPC   D2A 7312  32.329  36.997   8.238
  149POPC   C3A 7313  32.157  37.255   7.901
  149POPC   C4A 7314  32.155  37.212   7.470
  149POPC   C1B 7315  32.143  36.650   8.736
  149POPC   C2B 7316  32.427  36.507   8.419
  149POPC   C3B 7317  32.465  36.525   7.986
  149POPC   C4B 7318  32.214  36.768   7.717
  150POPC   NC3 7319   6.115   1.928   9.405
  150POPC   PO4 7320   5.453   1.748   9.479
  150POPC   GL1 7321   5.694   1.767   9.145
  150POPC   GL2 7322   5.607   2.073   9.074
  150POPC   C1A 7323   5.842   1.736   8.722
  150POPC   D2A 7324   5.718   1.932   8.350
  150POPC   C3A 7325   6.011   1.808   8.081
  150POPC   C4A 7326   5.928   1.931   7.690
  150POPC   C1B 7327   5.852   2.245   8.756
  150POPC   C2B 7328   5.853   2.438   8.376
  150POPC   C3B 7329   6.061   2.316   8.012
  150POPC   C4B 7330   6.005   2.433   7.609
  151POPC   NC3 7331   1.333  35.105   9.515
  151POPC   PO4 7332   1.038  35.682   9.397
  151POPC   GL1 7333   1.246  35.433   9.107
  151POPC   GL2 7334   1.551  35.569   9.000
  151POPC   C1A 7335   1.239  35.260   8.704
  151POPC   D2A 7336   1.065  35.053   8.355
  151POPC   C3A 7337   0.995  35.342   8.044
  151POPC   C4A 7338   0.968  35.520   7.634
  151POPC   C1B 7339   1.742  35.476   8.577
  151POPC   C2B 7340   1.462  35.399   8.262
  151POPC   C3B 7341   1.431  35.501   7.842
  151POPC   C4B 7342   1.677  35.325   7.545
  152POPC   NC3 7343  23.368   4.578   9.371
  152POPC   PO4 7344  22.899   4.191   9.369
  152POPC   GL1 7345  22.859   4.578   9.100
  152POPC   GL2 7346  23.141   4.687   8.890
  152POPC   C1A 7347  22.605   4.624   8.718
  152POPC   D2A 7348  22.609   4.513   8.266
  152POPC   C3A 7349  22.912   4.548   7.902
  152POPC   C4A 7350  22.928   4.340   7.447
  152POPC   C1B 7351  23.026   4.382   8.549
  152POPC   C2B 7352  22.926   4.104   8.169
  152POPC   C3B 7353  23.083   3.959   7.750
  152POPC   C4B 7354  23.320   3.646   7.485
  153POPC   NC3 7355  43.770   0.988   9.453
  153POPC   PO4 7356  44.320   1.445   9.545
  153POPC   GL1 7357  44.155   1.226   9.215
  153POPC   GL2 7358  43.876   1.417   9.177
  153POPC   C1A 7359  44.027   1.132   8.789
  153POPC   D2A 7360  43.832   1.023   8.381
  153POPC   C3A 7361  44.029   1.242   8.043
  153POPC   C4A 7362  44.187   1.223   7.637
  153POPC   C1B 7363  43.674   1.482   8.795
  153POPC   C2B 7364  43.768   1.542   8.365
  153POPC   C3B 7365  43.649   1.590   7.913
  153POPC   C4B 7366  43.639   1.713   7.424
  154POPC   NC3 7367   6.489   0.127   9.709
  154POPC   PO4 7368   6.728   0.731   9.725
  154POPC   GL1 7369   6.677   0.346   9.314
  154POPC   GL2 7370   6.486   0.034   9.226
  154POPC   C1A 7371   6.525   0.357   8.861
  154POPC   D2A 7372   6.548   0.146   8.515
  154POPC   C3A 7373   6.583   0.379   8.143
  154POPC   C4A 7374   6.616   0.299   7.724
  154POPC   C1B 7375   6.884   0.029   8.974
  154POPC   C2B 7376   7.036   0.222   8.583
  154POPC   C3B 7377   7.095   0.398   8.197
  154POPC   C4B 7378   7.097   0.226   7.793
  155POPC   NC3 7379  21.959  37.348   9.481
  155POPC   PO4 7380  21.884  38.061   9.418
  155POPC   GL1 7381  22.062  37.840   9.128
  155POPC   GL2 7382  22.373  37.727   9.143
  155POPC   C1A 7383  22.206  37.936   8.697
  155POPC   D2A 7384  22.317  37.634   8.393
  155POPC   C3A 7385  22.311  37.718   7.990
  155POPC   C4A 7386  22.061  37.749   7.640
  155POPC   C1B 7387  22.137  37.442   8.829
  155POPC   C2B 7388  22.038  37.205   8.458
  155POPC   C3B 7389  21.912  37.358   8.031
  155POPC   C4B 7390  21.789  37.290   7.591
  156POPC   NC3 7391  35.076  42.434   9.569
  156POPC   PO4 7392  35.661  42.814   9.509
  156POPC   GL1 7393  35.537  42.455   9.221
  156POPC   GL2 7394  35.184  42.466   9.084
  156POPC   C1A 7395  35.643  42.214   8.832
  156POPC   D2A 7396  35.424  42.199   8.424
  156POPC   C3A 7397  35.621  42.191   8.012
  156POPC   C4A 7398  35.513  42.552   7.793
  156POPC   C1B 7399  35.113  42.726   8.729
  156POPC   C2B 7400  35.264  42.685   8.320
  156POPC   C3B 7401  35.197  42.925   7.947
  156POPC   C4B 7402  35.056  42.766   7.573
  157POPC   NC3 7403  18.546  11.767   9.406
  157POPC   PO4 7404  18.211  12.347   9.532
  157POPC   GL1 7405  18.267  12.158   9.168
  157POPC   GL2 7406  18.100  11.841   9.124
  157POPC   C1A 7407  18.319  12.115   8.750
  157POPC   D2A 7408  18.174  11.938   8.386
  157POPC   C3A 7409  18.338  12.185   8.085
  157POPC   C4A 7410  18.198  12.246   7.727
  157POPC   C1B 7411  18.252  11.593   8.783
  157POPC   C2B 7412  18.535  11.561   8.486
  157POPC   C3B 7413  18.568  11.684   8.069
  157POPC   C4B 7414  18.544  11.866   7.702
  158POPC   NC3 7415  10.728  31.602   9.941
  158POPC   PO4 7416  11.385  31.714   9.584
  158POPC   GL1 7417  11.286  31.548   9.183
  158POPC   GL2 7418  11.224  31.194   9.211
  158POPC   C1A 7419  11.422  31.492   8.745
  158POPC   D2A 7420  11.406  31.730   8.353
  158POPC   C3A 7421  11.487  31.571   7.939
  158POPC   C4A 7422  11.379  31.735   7.521
  158POPC   C1B 7423  11.003  31.182   8.806
  158POPC   C2B 7424  11.003  31.403   8.403
  158POPC   C3B 7425  11.115  31.244   7.982
  158POPC   C4B 7426  11.136  31.296   7.511
  159POPC   NC3 7427  33.988  23.374   9.505
  159POPC   PO4 7428  33.561  23.915   9.457
  159POPC   GL1 7429  33.647  23.646   9.106
  159POPC   GL2 7430  34.020  23.580   9.048
  159POPC   C1A 7431  33.701  23.695   8.660
  159POPC   D2A 7432  33.637  23.491   8.273
  159POPC   C3A 7433  33.616  23.819   7.941
  159POPC   C4A 7434  33.417  24.090   7.630
  159POPC   C1B 7435  34.207  23.618   8.657
  159POPC   C2B 7436  34.064  23.751   8.243
  159POPC   C3B 7437  34.010  23.474   7.914
  159POPC   C4B 7438  34.268  23.356   7.574
  160POPC   NC3 7439  42.962   5.727   9.463
  160POPC   PO4 7440  43.520   6.144   9.240
  160POPC   GL1 7441  43.145   5.890   9.005
  160POPC   GL2 7442  42.758   5.948   9.041
  160POPC   C1A 7443  42.931   5.600   8.688
  160POPC   D2A 7444  42.961   5.348   8.275
  160POPC   C3A 7445  43.169   5.643   7.998
  160POPC   C4A 7446  43.376   6.043   7.853
  160POPC   C1B 7447  42.721   6.183   8.634
  160POPC   C2B 7448  42.946   6.145   8.219
  160POPC   C3B 7449  42.816   5.966   7.810
  160POPC   C4B 7450  42.768   6.045   7.332
  161POPC   NC3 7451  39.436  39.417   9.615
  161POPC   PO4 7452  38.840  39.336   9.816
  161POPC   GL1 7453  39.033  39.377   9.283
  161POPC   GL2 7454  39.367  39.616   9.160
  161POPC   C1A 7455  39.136  39.342   8.797
  161POPC   D2A 7456  39.018  39.520   8.375
  161POPC   C3A 7457  39.171  39.235   8.007
  161POPC   C4A 7458  39.337  38.808   7.824
  161POPC   C1B 7459  39.612  39.565   8.764
  161POPC   C2B 7460  39.524  39.510   8.301
  161POPC   C3B 7461  39.699  39.572   7.867
  161POPC   C4B 7462  39.639  39.398   7.428
  162POPC   NC3 7463  17.142  13.221   9.439
  162POPC   PO4 7464  17.493  12.610   9.539
  162POPC   GL1 7465  17.462  12.755   9.133
  162POPC   GL2 7466  17.773  12.951   9.087
  162POPC   C1A 7467  17.528  12.524   8.744
  162POPC   D2A 7468  17.555  12.565   8.285
  162POPC   C3A 7469  17.219  12.562   7.974
  162POPC   C4A 7470  17.280  12.674   7.548
  162POPC   C1B 7471  17.596  13.034   8.690
  162POPC   C2B 7472  17.770  13.037   8.284
  162POPC   C3B 7473  17.614  12.921   7.898
  162POPC   C4B 7474  17.938  12.913   7.637
  163POPC   NC3 7475  42.145   5.291   9.483
  163POPC   PO4 7476  42.402   4.722   9.373
  163POPC   GL1 7477  42.548   4.961   9.053
  163POPC   GL2 7478  42.428   5.295   9.059
  163POPC   C1A 7479  42.635   5.163   8.629
  163POPC   D2A 7480  42.376   5.304   8.326
  163POPC   C3A 7481  42.537   5.180   7.961
  163POPC   C4A 7482  42.371   5.166   7.577
  163POPC   C1B 7483  42.153   5.086   8.764
  163POPC   C2B 7484  41.894   5.097   8.423
  163POPC   C3B 7485  41.997   5.095   8.005
  163POPC   C4B 7486  41.893   5.050   7.578
  164POPC   NC3 7487  12.981  32.899   9.551
  164POPC   PO4 7488  12.391  33.183   9.426
  164POPC   GL1 7489  12.763  33.096   9.139
  164POPC   GL2 7490  13.018  33.344   9.038
  164POPC   C1A 7491  12.830  32.895   8.742
  164POPC   D2A 7492  12.636  32.773   8.339
  164POPC   C3A 7493  12.846  32.850   7.962
  164POPC   C4A 7494  12.709  33.035   7.559
  164POPC   C1B 7495  13.241  33.209   8.679
  164POPC   C2B 7496  13.216  32.898   8.369
  164POPC   C3B 7497  13.342  32.991   7.982
  164POPC   C4B 7498  13.170  33.157   7.624
  165POPC   NC3 7499  17.910  33.390   9.547
  165POPC   PO4 7500  17.235  33.196   9.465
  165POPC   GL1 7501  17.492  33.060   9.141
  165POPC   GL2 7502  17.863  33.076   9.165
  165POPC   C1A 7503  17.298  33.052   8.740
  165POPC   D2A 7504  17.168  32.777   8.418
  165POPC   C3A 7505  17.248  33.044   8.098
  165POPC   C4A 7506  17.333  33.110   7.716
  165POPC   C1B 7507  17.867  32.982   8.750
  165POPC   C2B 7508  17.684  33.115   8.386
  165POPC   C3B 7509  17.782  32.990   7.983
  165POPC   C4B 7510  18.077  32.769   7.738
  166POPC   NC3 7511  22.056  35.004   9.716
  166POPC   PO4 7512  22.496  35.457   9.462
  166POPC   GL1 7513  22.343  35.182   9.159
  166POPC   GL2 7514  21.981  35.195   9.254
  166POPC   C1A 7515  22.468  35.174   8.713
  166POPC   D2A 7516  22.619  35.312   8.287
  166POPC   C3A 7517  22.351  35.164   7.969
  166POPC   C4A 7518  22.061  35.510   7.912
  166POPC   C1B 7519  21.990  35.400   8.845
  166POPC   C2B 7520  22.049  35.315   8.405
  166POPC   C3B 7521  21.840  35.073   8.087
  166POPC   C4B 7522  21.853  35.130   7.676
  167POPC   NC3 7523  38.786   8.535   9.663
  167POPC   PO4 7524  39.193   7.972   9.636
  167POPC   GL1 7525  39.148   8.127   9.229
  167POPC   GL2 7526  38.948   8.383   9.194
  167POPC   C1A 7527  39.103   8.003   8.820
  167POPC   D2A 7528  39.173   7.908   8.420
  167POPC   C3A 7529  39.207   8.195   8.104
  167POPC   C4A 7530  38.918   8.280   7.733
  167POPC   C1B 7531  39.122   8.496   8.805
  167POPC   C2B 7532  39.160   8.650   8.404
  167POPC   C3B 7533  39.150   8.670   7.965
  167POPC   C4B 7534  39.372   8.519   7.608
  168POPC   NC3 7535  14.602  11.343   9.366
  168POPC   PO4 7536  14.063  11.513   9.694
  168POPC   GL1 7537  14.118  11.267   9.250
  168POPC   GL2 7538  14.229  11.539   9.094
  168POPC   C1A 7539  14.298  11.102   8.793
  168POPC   D2A 7540  14.264  11.259   8.320
  168POPC   C3A 7541  14.563  11.107   7.962
  168POPC   C4A 7542  14.505  11.174   7.481
  168POPC   C1B 7543  14.171  11.597   8.708
  168POPC   C2B 7544  14.510  11.683   8.474
  168POPC   C3B 7545  14.490  11.640   8.022
  168POPC   C4B 7546  14.792  11.546   7.722
  169POPC   NC3 7547  11.620   8.760   9.516
  169POPC   PO4 7548  11.058   9.086   9.663
  169POPC   GL1 7549  11.299   9.176   9.299
  169POPC   GL2 7550  11.221   8.840   9.213
  169POPC   C1A 7551  11.182   9.259   8.858
  169POPC   D2A 7552  11.141   9.029   8.470
  169POPC   C3A 7553  11.051   9.224   8.086
  169POPC   C4A 7554  11.326   9.096   7.797
  169POPC   C1B 7555  11.432   8.799   8.840
  169POPC   C2B 7556  11.460   8.596   8.443
  169POPC   C3B 7557  11.531   8.719   8.047
  169POPC   C4B 7558  11.700   8.730   7.638
  170POPC   NC3 7559  40.917   2.462   9.552
  170POPC   PO4 7560  40.515   3.006   9.708
  170POPC   GL1 7561  40.559   2.679   9.304
  170POPC   GL2 7562  40.861   2.817   9.158
  170POPC   C1A 7563  40.577   2.649   8.787
  170POPC   D2A 7564  40.745   2.650   8.361
  170POPC   C3A 7565  40.573   2.481   7.997
  170POPC   C4A 7566  40.452   2.693   7.637
  170POPC   C1B 7567  41.087   2.819   8.754
  170POPC   C2B 7568  41.246   2.670   8.351
  170POPC   C3B 7569  41.128   2.671   7.876
  170POPC   C4B 7570  41.179   2.730   7.381
  171POPC   NC3 7571  13.136  24.567   9.479
  171POPC   PO4 7572  13.629  24.221   9.370
  171POPC   GL1 7573  13.760  24.528   9.113
  171POPC   GL2 7574  14.070  24.376   9.096
  171POPC   C1A 7575  13.814  24.817   8.734
  171POPC   D2A 7576  13.554  24.934   8.371
  171POPC   C3A 7577  13.612  24.816   7.948
  171POPC   C4A 7578  13.341  24.516   7.678
  171POPC   C1B 7579  13.918  24.305   8.695
  171POPC   C2B 7580  13.848  24.102   8.324
  171POPC   C3B 7581  13.692  24.319   8.001
  171POPC   C4B 7582  13.847  24.483   7.625
  172POPC   NC3 7583  41.248  13.527   9.527
  172POPC   PO4 7584  41.755  13.656   9.371
  172POPC   GL1 7585  41.596  13.365   9.019
  172POPC   GL2 7586  41.238  13.298   9.050
  172POPC   C1A 7587  41.763  13.332   8.605
  172POPC   D2A 7588  41.641  13.663   8.331
  172POPC   C3A 7589  41.711  13.609   7.908
  172POPC   C4A 7590  41.846  13.308   7.598
  172POPC   C1B 7591  41.294  13.708   8.809
  172POPC   C2B 7592  41.183  13.877   8.398
  172POPC   C3B 7593  41.173  13.705   7.978
  172POPC   C4B 7594  41.002  13.714   7.548
  173POPC   NC3 7595  26.506  25.212   9.744
  173POPC   PO4 7596  27.019  25.561   9.550
  173POPC   GL1 7597  26.840  25.338   9.175
  173POPC   GL2 7598  26.478  25.185   9.210
  173POPC   C1A 7599  26.907  25.274   8.721
  173POPC   D2A 7600  26.597  25.253   8.379
  173POPC   C3A 7601  26.741  25.206   7.957
  173POPC   C4A 7602  26.648  25.389   7.552
  173POPC   C1B 7603  26.540  24.936   8.820
  173POPC   C2B 7604  26.572  24.744   8.426
  173POPC   C3B 7605  26.464  24.789   7.997
  173POPC   C4B 7606  26.692  24.847   7.585
  174POPC   NC3 7607  10.636  21.217   9.555
  174POPC   PO4 7608  10.224  21.672   9.574
  174POPC   GL1 7609  10.285  21.413   9.187
  174POPC   GL2 7610  10.252  21.027   9.199
  174POPC   C1A 7611  10.433  21.540   8.768
  174POPC   D2A 7612  10.505  21.716   8.362
  174POPC   C3A 7613  10.339  21.545   7.987
  174POPC   C4A 7614  10.336  21.500   7.520
  174POPC   C1B 7615  10.493  21.025   8.797
  174POPC   C2B 7616  10.507  21.162   8.333
  174POPC   C3B 7617  10.611  21.143   7.864
  174POPC   C4B 7618  10.671  21.108   7.413
  175POPC   NC3 7619  22.719  41.566   9.504
  175POPC   PO4 7620  23.191  41.053   9.613
  175POPC   GL1 7621  23.282  41.242   9.178
  175POPC   GL2 7622  23.132  41.569   9.181
  175POPC   C1A 7623  23.151  41.293   8.767
  175POPC   D2A 7624  23.203  41.593   8.454
  175POPC   C3A 7625  23.252  41.412   8.070
  175POPC   C4A 7626  23.019  41.269   7.743
  175POPC   C1B 7627  22.848  41.729   8.851
  175POPC   C2B 7628  22.814  41.919   8.450
  175POPC   C3B 7629  22.811  41.690   8.078
  175POPC   C4B 7630  22.637  41.688   7.666
  176POPC   NC3 7631  42.943  11.287   9.769
  176POPC   PO4 7632  43.506  10.901   9.607
  176POPC   GL1 7633  43.364  11.160   9.239
  176POPC   GL2 7634  43.014  11.309   9.257
  176POPC   C1A 7635  43.244  11.073   8.807
  176POPC   D2A 7636  43.435  11.134   8.409
  176POPC   C3A 7637  43.176  11.180   8.051
  176POPC   C4A 7638  43.349  11.240   7.660
  176POPC   C1B 7639  42.910  11.462   8.837
  176POPC   C2B 7640  43.130  11.564   8.474
  176POPC   C3B 7641  43.136  11.677   8.047
  176POPC   C4B 7642  42.886  11.497   7.715
  177POPC   NC3 7643  34.238  17.014   9.299
  177POPC   PO4 7644  34.625  16.494   9.541
  177POPC   GL1 7645  34.462  16.554   9.121
  177POPC   GL2 7646  34.584  16.872   8.920
  177POPC   C1A 7647  34.398  16.453   8.690
  177POPC   D2A 7648  34.585  16.726   8.367
  177POPC   C3A 7649  34.379  16.874   7.988
  177POPC   C4A 7650  34.143  16.532   7.762
  177POPC   C1B 7651  34.937  17.136   8.713
  177POPC   C2B 7652  35.106  17.327   8.313
  177POPC   C3B 7653  34.963  17.169   7.893
  177POPC   C4B 7654  34.662  17.047   7.588
  178POPC   NC3 7655  11.451  25.312   9.678
  178POPC   PO4 7656  11.068  25.879   9.520
  178POPC   GL1 7657  11.372  25.549   9.212
  178POPC   GL2 7658  11.320  25.202   9.180
  178POPC   C1A 7659  11.412  25.378   8.694
  178POPC   D2A 7660  11.421  25.125   8.283
  178POPC   C3A 7661  11.498  25.302   7.846
  178POPC   C4A 7662  11.849  25.561   7.800
  178POPC   C1B 7663  10.992  25.498   8.920
  178POPC   C2B 7664  11.058  25.679   8.468
  178POPC   C3B 7665  11.050  25.442   8.062
  178POPC   C4B 7666  11.054  24.960   7.973
  179POPC   NC3 7667   1.661   5.227   9.484
  179POPC   PO4 7668   1.108   4.906   9.492
  179POPC   GL1 7669   1.132   5.026   9.075
  179POPC   GL2 7670   1.401   5.248   9.060
  179POPC   C1A 7671   1.305   4.903   8.668
  179POPC   D2A 7672   1.169   4.977   8.271
  179POPC   C3A 7673   1.235   4.840   7.866
  179POPC   C4A 7674   1.022   5.165   7.646
  179POPC   C1B 7675   1.215   5.398   8.710
  179POPC   C2B 7676   1.341   5.433   8.323
  179POPC   C3B 7677   1.439   5.334   7.920
  179POPC   C4B 7678   1.362   5.593   7.589
  180POPC   NC3 7679  18.463  36.525   9.537
  180POPC   PO4 7680  18.356  35.922   9.572
  180POPC   GL1 7681  18.258  36.029   9.146
  180POPC   GL2 7682  18.396  35.749   8.936
  180POPC   C1A 7683  18.396  36.334   8.872
  180POPC   D2A 7684  18.634  36.340   8.488
  180POPC   C3A 7685  18.456  36.251   8.070
  180POPC   C4A 7686  18.578  36.401   7.659
  180POPC   C1B 7687  18.239  35.964   8.569
  180POPC   C2B 7688  17.933  36.206   8.333
  180POPC   C3B 7689  17.975  36.256   7.908
  180POPC   C4B 7690  18.224  36.030   7.569
  181POPC   NC3 7691  15.758  16.325   9.382
  181POPC   PO4 7692  15.820  16.929   9.263
  181POPC   GL1 7693  15.982  16.587   9.026
  181POPC   GL2 7694  16.318  16.536   9.003
  181POPC   C1A 7695  15.845  16.454   8.640
  181POPC   D2A 7696  15.757  16.188   8.264
  181POPC   C3A 7697  15.759  16.467   7.930
  181POPC   C4A 7698  15.694  16.919   7.899
  181POPC   C1B 7699  16.248  16.833   8.675
  181POPC   C2B 7700  16.065  16.772   8.266
  181POPC   C3B 7701  16.176  16.753   7.840
  181POPC   C4B 7702  16.125  16.391   7.561
  182POPC   NC3 7703   5.404  26.487   9.512
  182POPC   PO4 7704   4.892  26.971   9.573
  182POPC   GL1 7705   5.067  26.907   9.207
  182POPC   GL2 7706   5.106  27.251   9.107
  182POPC   C1A 7707   5.277  26.847   8.826
  182POPC   D2A 7708   5.306  26.635   8.446
  182POPC   C3A 7709   5.462  26.884   8.119
  182POPC   C4A 7710   5.266  26.764   7.758
  182POPC   C1B 7711   4.832  27.042   8.747
  182POPC   C2B 7712   4.972  27.064   8.332
  182POPC   C3B 7713   4.823  26.903   7.993
  182POPC   C4B 7714   4.756  26.880   7.603
  183POPC   NC3 7715  20.257   3.045   9.585
  183POPC   PO4 7716  20.821   2.822   9.428
  183POPC   GL1 7717  20.462   2.792   9.153
  183POPC   GL2 7718  20.755   2.677   8.947
  183POPC   C1A 7719  20.334   2.748   8.705
  183POPC   D2A 7720  20.668   2.722   8.405
  183POPC   C3A 7721  20.597   2.524   8.022
  183POPC   C4A 7722  20.391   2.554   7.631
  183POPC   C1B 7723  20.960   2.357   8.768
  183POPC   C2B 7724  20.975   2.072   8.416
  183POPC   C3B 7725  20.951   2.174   7.986
  183POPC   C4B 7726  20.894   2.458   7.574
  184POPC   NC3 7727   5.603  43.988   9.489
  184POPC   PO4 7728   6.077  43.551   9.632
  184POPC   GL1 7729   6.097  43.737   9.176
  184POPC   GL2 7730   5.770  43.855   9.044
  184POPC   C1A 7731   6.036  43.553   8.762
  184POPC   D2A 7732   5.790  43.650   8.413
  184POPC   C3A 7733   5.975  43.538   8.022
  184POPC   C4A 7734   6.261  43.755   7.741
  184POPC   C1B 7735   5.575  44.161   8.786
  184POPC   C2B 7736   5.694  44.304   8.372
  184POPC   C3B 7737   5.624  44.140   7.978
  184POPC   C4B 7738   5.766  43.880   7.697
  185POPC   NC3 7739  21.792  32.685   9.461
  185POPC   PO4 7740  21.723  32.039   9.620
  185POPC   GL1 7741  21.651  32.164   9.152
  185POPC   GL2 7742  21.659  32.513   8.988
  185POPC   C1A 7743  21.396  32.034   8.779
  185POPC   D2A 7744  21.120  32.136   8.442
  185POPC   C3A 7745  21.076  31.936   8.061
  185POPC   C4A 7746  21.263  32.165   7.745
  185POPC   C1B 7747  21.387  32.540   8.634
  185POPC   C2B 7748  21.450  32.433   8.182
  185POPC   C3B 7749  21.659  32.486   7.768
  185POPC   C4B 7750  21.873  32.317   7.405
  186POPC   NC3 7751  30.918  26.523   9.534
  186POPC   PO4 7752  30.918  27.216   9.501
  186POPC   GL1 7753  30.805  26.871   9.192
  186POPC   GL2 7754  30.501  26.698   9.253
  186POPC   C1A 7755  30.965  26.789   8.776
  186POPC   D2A 7756  31.095  26.898   8.349
  186POPC   C3A 7757  30.838  26.889   7.971
  186POPC   C4A 7758  30.687  27.254   7.735
  186POPC   C1B 7759  30.429  26.915   8.866
  186POPC   C2B 7760  30.536  26.864   8.465
  186POPC   C3B 7761  30.356  26.700   8.111
  186POPC   C4B 7762  30.265  26.936   7.759
  187POPC   NC3 7763   3.106  28.076   9.904
  187POPC   PO4 7764   3.542  28.090   9.393
  187POPC   GL1 7765   3.506  28.485   9.130
  187POPC   GL2 7766   3.851  28.655   9.113
  187POPC   C1A 7767   3.556  28.623   8.678
  187POPC   D2A 7768   3.851  28.609   8.343
  187POPC   C3A 7769   3.684  28.378   8.030
  187POPC   C4A 7770   3.434  28.346   7.711
  187POPC   C1B 7771   3.855  28.239   8.848
  187POPC   C2B 7772   3.720  28.103   8.472
  187POPC   C3B 7773   3.901  27.897   8.145
  187POPC   C4B 7774   3.843  27.966   7.721
  188POPC   NC3 7775  10.366   1.287   9.436
  188POPC   PO4 7776  10.949   1.607   9.722
  188POPC   GL1 7777  10.787   1.532   9.259
  188POPC   GL2 7778  10.695   1.146   9.089
  188POPC   C1A 7779  10.652   1.602   8.825
  188POPC   D2A 7780  10.693   1.421   8.396
  188POPC   C3A 7781  10.599   1.436   7.932
  188POPC   C4A 7782  10.615   1.112   7.591
  188POPC   C1B 7783  10.389   1.149   8.727
  188POPC   C2B 7784  10.189   1.029   8.345
  188POPC   C3B 7785  10.162   1.117   7.880
  188POPC   C4B 7786  10.144   0.953   7.444
  189POPC   NC3 7787  11.934  37.250   9.701
  189POPC   PO4 7788  12.022  36.631   9.349
  189POPC   GL1 7789  11.983  36.706   8.972
  189POPC   GL2 7790  11.673  36.490   9.007
  189POPC   C1A 7791  12.144  37.012   8.696
  189POPC   D2A 7792  11.975  37.129   8.315
  189POPC   C3A 7793  12.296  37.048   8.032
  189POPC   C4A 7794  12.438  36.863   7.655
  189POPC   C1B 7795  11.621  36.630   8.613
  189POPC   C2B 7796  11.685  36.694   8.208
  189POPC   C3B 7797  11.819  36.904   7.875
  189POPC   C4B 7798  11.829  36.607   7.572
  190POPC   NC3 7799  18.096  15.396   9.265
  190POPC   PO4 7800  18.094  14.733   9.523
  190POPC   GL1 7801  18.235  14.861   9.149
  190POPC   GL2 7802  18.519  14.673   9.141
  190POPC   C1A 7803  18.150  14.967   8.714
  190POPC   D2A 7804  18.009  15.075   8.287
  190POPC   C3A 7805  18.269  15.344   8.013
  190POPC   C4A 7806  18.212  15.445   7.571
  190POPC   C1B 7807  18.626  14.720   8.722
  190POPC   C2B 7808  18.452  14.785   8.297
  190POPC   C3B 7809  18.349  14.860   7.832
  190POPC   C4B 7810  18.536  15.057   7.452
  191POPC   NC3 7811  30.051  35.726   9.635
  191POPC   PO4 7812  29.657  35.354   9.294
  191POPC   GL1 7813  29.932  35.661   9.129
  191POPC   GL2 7814  30.320  35.707   9.165
  191POPC   C1A 7815  29.916  35.648   8.703
  191POPC   D2A 7816  29.647  35.589   8.372
  191POPC   C3A 7817  29.823  35.587   7.993
  191POPC   C4A 7818  29.759  35.237   7.745
  191POPC   C1B 7819  30.289  35.335   8.884
  191POPC   C2B 7820  30.062  35.224   8.470
  191POPC   C3B 7821  30.177  35.201   8.048
  191POPC   C4B 7822  30.303  35.499   7.771
  192POPC   NC3 7823  35.249  30.528   9.395
  192POPC   PO4 7824  35.816  30.300   9.394
  192POPC   GL1 7825  35.596  30.479   9.039
  192POPC   GL2 7826  35.581  30.854   9.139
  192POPC   C1A 7827  35.337  30.601   8.698
  192POPC   D2A 7828  34.977  30.585   8.417
  192POPC   C3A 7829  35.225  30.610   8.049
  192POPC   C4A 7830  35.280  30.967   7.837
  192POPC   C1B 7831  35.801  30.872   8.729
  192POPC   C2B 7832  35.652  30.841   8.318
  192POPC   C3B 7833  35.760  30.803   7.906
  192POPC   C4B 7834  35.677  31.055   7.544
  193POPC   NC3 7835  34.454  36.490   9.364
  193POPC   PO4 7836  34.748  35.856   9.456
  193POPC   GL1 7837  34.609  36.057   9.112
  193POPC   GL2 7838  34.256  36.003   9.133
  193POPC   C1A 7839  34.701  36.227   8.708
  193POPC   D2A 7840  34.613  36.468   8.388
  193POPC   C3A 7841  34.762  36.147   8.129
  193POPC   C4A 7842  34.792  36.106   7.698
  193POPC   C1B 7843  34.202  36.288   8.753
  193POPC   C2B 7844  34.270  36.110   8.347
  193POPC   C3B 7845  34.306  36.294   7.957
  193POPC   C4B 7846  34.163  36.258   7.574
  194POPC   NC3 7847  37.341  15.952   9.500
  194POPC   PO4 7848  36.791  15.639   9.650
  194POPC   GL1 7849  36.898  15.838   9.266
  194POPC   GL2 7850  36.960  15.550   9.147
  194POPC   C1A 7851  36.868  15.955   8.807
  194POPC   D2A 7852  36.947  16.202   8.428
  194POPC   C3A 7853  36.872  16.044   8.002
  194POPC   C4A 7854  36.926  16.126   7.536
  194POPC   C1B 7855  36.753  15.441   8.766
  194POPC   C2B 7856  36.769  15.638   8.363
  194POPC   C3B 7857  36.975  15.528   7.997
  194POPC   C4B 7858  36.839  15.608   7.588
  195POPC   NC3 7859   5.688  17.013   9.535
  195POPC   PO4 7860   6.123  16.440   9.641
  195POPC   GL1 7861   5.881  16.609   9.260
  195POPC   GL2 7862   5.490  16.643   9.245
  195POPC   C1A 7863   5.926  16.723   8.834
  195POPC   D2A 7864   6.098  16.807   8.427
  195POPC   C3A 7865   5.999  16.534   8.092
  195POPC   C4A 7866   6.148  16.763   7.751
  195POPC   C1B 7867   5.415  16.664   8.787
  195POPC   C2B 7868   5.577  16.739   8.338
  195POPC   C3B 7869   5.594  16.705   7.856
  195POPC   C4B 7870   5.501  16.875   7.437
  196POPC   NC3 7871   9.921  30.015   9.529
  196POPC   PO4 7872   9.404  30.309   9.685
  196POPC   GL1 7873   9.500  30.200   9.235
  196POPC   GL2 7874   9.814  30.372   9.151
  196POPC   C1A 7875   9.682  29.871   8.931
  196POPC   D2A 7876   9.615  29.617   8.561
  196POPC   C3A 7877   9.531  29.805   8.145
  196POPC   C4A 7878   9.609  29.754   7.716
  196POPC   C1B 7879  10.013  30.210   8.753
  196POPC   C2B 7880   9.965  29.967   8.365
  196POPC   C3B 7881   9.958  30.107   7.895
  196POPC   C4B 7882  10.028  30.265   7.399
  197POPC   NC3 7883  13.785  11.098   9.612
  197POPC   PO4 7884  13.343  11.554   9.480
  197POPC   GL1 7885  13.410  11.675   9.082
  197POPC   GL2 7886  13.721  11.507   9.070
  197POPC   C1A 7887  13.414  11.472   8.687
  197POPC   D2A 7888  13.368  11.220   8.363
  197POPC   C3A 7889  13.646  11.322   8.051
  197POPC   C4A 7890  13.666  11.405   7.625
  197POPC   C1B 7891  13.788  11.142   8.783
  197POPC   C2B 7892  13.803  10.904   8.372
  197POPC   C3B 7893  14.002  10.950   7.978
  197POPC   C4B 7894  14.131  11.332   7.799
  198POPC   NC3 7895   2.426  33.798   9.561
  198POPC   PO4 7896   2.879  34.167   9.733
  198POPC   GL1 7897   2.905  34.115   9.218
  198POPC   GL2 7898   2.842  33.738   9.089
  198POPC   C1A 7899   2.759  34.100   8.755
  198POPC   D2A 7900   2.732  33.924   8.322
  198POPC   C3A 7901   3.008  33.980   7.979
  198POPC   C4A 7902   2.845  33.927   7.579
  198POPC   C1B 7903   2.742  33.520   8.648
  198POPC   C2B 7904   2.811  33.370   8.202
  198POPC   C3B 7905   2.854  33.420   7.734
  198POPC   C4B 7906   2.992  33.328   7.291
  199POPC   NC3 7907  24.203  26.710   9.568
  199POPC   PO4 7908  23.616  26.820   9.542
  199POPC   GL1 7909  23.873  26.763   9.160
  199POPC   GL2 7910  24.118  26.442   9.151
  199POPC   C1A 7911  23.720  26.922   8.736
  199POPC   D2A 7912  23.478  27.220   8.434
  199POPC   C3A 7913  23.354  27.038   8.025
  199POPC   C4A 7914  23.375  26.613   7.837
  199POPC   C1B 7915  23.974  26.493   8.738
  199POPC   C2B 7916  23.759  26.519   8.362
  199POPC   C3B 7917  23.887  26.550   7.957
  199POPC   C4B 7918  23.792  26.497   7.540
  200POPC   NC3 7919   3.100   4.954   9.497
  200POPC   PO4 7920   2.579   5.323   9.446
  200POPC   GL1 7921   2.605   5.249   9.077
  200POPC   GL2 7922   2.768   4.913   9.050
  200POPC   C1A 7923   2.570   5.400   8.682
  200POPC   D2A 7924   2.620   5.003   8.477
  200POPC   C3A 7925   2.653   5.095   8.062
  200POPC   C4A 7926   2.914   4.930   7.785
  200POPC   C1B 7927   3.028   5.204   8.800
  200POPC   C2B 7928   2.992   5.352   8.358
  200POPC   C3B 7929   3.065   5.426   7.910
  200POPC   C4B 7930   3.245   5.241   7.511
  201POPC   NC3 7931  14.811  38.298   9.556
  201POPC   PO4 7932  15.290  38.736   9.495
  201POPC   GL1 7933  15.214  38.398   9.199
  201POPC   GL2 7934  15.533  38.221   9.209
  201POPC   C1A 7935  14.988  38.308   8.798
  201POPC   D2A 7936  14.920  38.511   8.395
  201POPC   C3A 7937  15.051  38.368   7.986
  201POPC   C4A 7938  15.014  38.784   7.800
  201POPC   C1B 7939  15.640  38.262   8.768
  201POPC   C2B 7940  15.380  38.229   8.397
  201POPC   C3B 7941  15.542  38.136   7.971
  201POPC   C4B 7942  15.589  38.220   7.530
  202POPC   NC3 7943  10.201  38.793   9.418
  202POPC   PO4 7944  10.770  39.077   9.529
  202POPC   GL1 7945  10.497  39.201   9.216
  202POPC   GL2 7946  10.756  39.106   8.980
  202POPC   C1A 7947  10.534  39.524   8.873
  202POPC   D2A 7948  10.720  39.356   8.475
  202POPC   C3A 7949  10.626  39.554   8.065
  202POPC   C4A 7950  10.763  39.630   7.669
  202POPC   C1B 7951  10.319  39.087   8.768
  202POPC   C2B 7952  10.213  39.214   8.404
  202POPC   C3B 7953  10.444  39.077   8.119
  202POPC   C4B 7954  10.567  39.152   7.743
  203POPC   NC3 7955  29.121  23.193   9.490
  203POPC   PO4 7956  29.518  22.710   9.520
  203POPC   GL1 7957  29.204  22.752   9.198
  203POPC   GL2 7958  29.280  23.099   9.023
  203POPC   C1A 7959  28.904  22.811   8.834
  203POPC   D2A 7960  28.759  23.081   8.492
  203POPC   C3A 7961  28.643  22.809   8.149
  203POPC   C4A 7962  28.739  22.854   7.714
  203POPC   C1B 7963  29.403  22.777   8.739
  203POPC   C2B 7964  29.162  22.736   8.368
  203POPC   C3B 7965  29.103  23.048   8.063
  203POPC   C4B 7966  29.272  22.931   7.691
  204POPC   NC3 7967  20.461   5.571   9.655
  204POPC   PO4 7968  20.951   6.029   9.518
  204POPC   GL1 7969  20.889   5.763   9.152
  204POPC   GL2 7970  20.541   5.785   9.179
  204POPC   C1A 7971  20.708   5.670   8.708
  204POPC   D2A 7972  20.318   5.657   8.397
  204POPC   C3A 7973  20.473   5.628   7.961
  204POPC   C4A 7974  20.898   5.687   7.823
  204POPC   C1B 7975  20.365   6.031   8.808
  204POPC   C2B 7976  20.528   6.115   8.381
  204POPC   C3B 7977  20.647   6.116   7.956
  204POPC   C4B 7978  20.279   6.071   7.734
  205POPC   NC3 7979  36.357  14.579   9.522
  205POPC   PO4 7980  35.703  14.355   9.484
  205POPC   GL1 7981  36.041  14.449   9.141
  205POPC   GL2 7982  36.342  14.736   9.052
  205POPC   C1A 7983  36.180  14.340   8.738
  205POPC   D2A 7984  35.939  14.116   8.415
  205POPC   C3A 7985  36.131  14.074   8.019
  205POPC   C4A 7986  36.091  14.107   7.549
  205POPC   C1B 7987  36.386  14.810   8.605
  205POPC   C2B 7988  36.191  14.575   8.278
  205POPC   C3B 7989  36.165  14.548   7.853
  205POPC   C4B 7990  35.830  14.700   7.634
  206POPC   NC3 7991  21.437  44.834   9.537
  206POPC   PO4 7992  21.456  44.129   9.390
  206POPC   GL1 7993  21.524  44.463   9.044
  206POPC   GL2 7994  21.593  44.840   9.036
  206POPC   C1A 7995  21.208  44.559   8.706
  206POPC   D2A 7996  20.951  44.479   8.303
  206POPC   C3A 7997  21.238  44.316   8.011
  206POPC   C4A 7998  21.535  44.347   7.680
  206POPC   C1B 7999  21.613  44.860   8.570
  206POPC   C2B 8000  21.272  44.881   8.294
  206POPC   C3B 8001  21.215  44.815   7.896
  206POPC   C4B 8002  21.553   0.010   7.815
  207POPC   NC3 8003   1.451  17.090   9.394
  207POPC   PO4 8004   1.042  17.715   9.480
  207POPC   GL1 8005   1.122  17.411   9.188
  207POPC   GL2 8006   0.964  17.125   9.115
  207POPC   C1A 8007   1.306  17.407   8.810
  207POPC   D2A 8008   1.227  17.684   8.500
  207POPC   C3A 8009   1.291  17.553   8.105
  207POPC   C4A 8010   1.221  17.571   7.688
  207POPC   C1B 8011   1.175  16.930   8.763
  207POPC   C2B 8012   1.225  17.128   8.361
  207POPC   C3B 8013   1.096  17.095   7.910
  207POPC   C4B 8014   1.149  17.089   7.440
  208POPC   NC3 8015   3.331  29.242   9.637
  208POPC   PO4 8016   3.902  29.083   9.430
  208POPC   GL1 8017   3.564  29.146   9.154
  208POPC   GL2 8018   3.283  29.387   9.155
  208POPC   C1A 8019   3.372  29.099   8.758
  208POPC   D2A 8020   3.552  29.074   8.381
  208POPC   C3A 8021   3.381  28.801   8.123
  208POPC   C4A 8022   3.594  28.815   7.768
  208POPC   C1B 8023   3.160  29.585   8.749
  208POPC   C2B 8024   3.348  29.656   8.354
  208POPC   C3B 8025   3.382  29.389   7.989
  208POPC   C4B 8026   3.004  29.264   7.822
  209POPC   NC3 8027  11.373  23.531   9.575
  209POPC   PO4 8028  11.116  22.941   9.528
  209POPC   GL1 8029  11.116  23.089   9.146
  209POPC   GL2 8030  11.469  23.133   9.142
  209POPC   C1A 8031  10.968  23.175   8.744
  209POPC   D2A 8032  11.131  23.047   8.367
  209POPC   C3A 8033  11.045  23.224   7.977
  209POPC   C4A 8034  10.890  22.923   7.675
  209POPC   C1B 8035  11.434  22.842   8.778
  209POPC   C2B 8036  11.549  22.741   8.337
  209POPC   C3B 8037  11.371  22.832   7.923
  209POPC   C4B 8038  11.388  22.977   7.494
  210POPC   NC3 8039  28.048  22.158   9.643
  210POPC   PO4 8040  27.440  21.940   9.496
  210POPC   GL1 8041  27.728  22.070   9.227
  210POPC   GL2 8042  27.553  21.800   9.017
  210POPC   C1A 8043  27.821  22.209   8.834
  210POPC   D2A 8044  27.597  22.223   8.442
  210POPC   C3A 8045  27.790  22.092   8.059
  210POPC   C4A 8046  27.760  22.419   7.754
  210POPC   C1B 8047  27.524  21.735   8.600
  210POPC   C2B 8048  27.181  21.789   8.359
  210POPC   C3B 8049  27.273  22.077   8.064
  210POPC   C4B 8050  27.399  22.035   7.687
  211POPC   NC3 8051  24.599   7.750   9.256
  211POPC   PO4 8052  24.499   7.203   9.653
  211POPC   GL1 8053  24.412   7.199   9.193
  211POPC   GL2 8054  24.663   7.325   8.970
  211POPC   C1A 8055  24.203   7.400   8.800
  211POPC   D2A 8056  24.185   7.568   8.375
  211POPC   C3A 8057  24.389   7.534   7.973
  211POPC   C4A 8058  24.597   7.873   7.716
  211POPC   C1B 8059  24.722   7.594   8.583
  211POPC   C2B 8060  24.863   7.659   8.135
  211POPC   C3B 8061  24.819   7.387   7.749
  211POPC   C4B 8062  24.777   7.024   7.420
  212POPC   NC3 8063  17.110  41.813   9.410
  212POPC   PO4 8064  16.954  41.193   9.508
  212POPC   GL1 8065  17.243  41.216   9.156
  212POPC   GL2 8066  17.432  41.543   9.121
  212POPC   C1A 8067  17.416  41.193   8.760
  212POPC   D2A 8068  17.294  41.510   8.516
  212POPC   C3A 8069  17.319  41.470   8.085
  212POPC   C4A 8070  17.407  41.276   7.719
  212POPC   C1B 8071  17.519  41.886   8.811
  212POPC   C2B 8072  17.784  41.933   8.459
  212POPC   C3B 8073  17.661  41.917   8.048
  212POPC   C4B 8074  17.539  41.765   7.657
  213POPC   NC3 8075   6.976  12.638   9.427
  213POPC   PO4 8076   7.560  12.792   9.510
  213POPC   GL1 8077   7.450  12.910   9.141
  213POPC   GL2 8078   7.317  13.255   9.225
  213POPC   C1A 8079   7.650  12.776   8.795
  213POPC   D2A 8080   7.476  12.611   8.429
  213POPC   C3A 8081   7.581  12.651   8.030
  213POPC   C4A 8082   7.193  12.664   7.783
  213POPC   C1B 8083   7.492  13.343   8.828
  213POPC   C2B 8084   7.649  13.133   8.450
  213POPC   C3B 8085   7.659  13.238   8.050
  213POPC   C4B 8086   7.524  13.023   7.698
  214POPC   NC3 8087  13.844  43.623   9.459
  214POPC   PO4 8088  13.566  44.239   9.353
  214POPC   GL1 8089  13.685  43.964   9.091
  214POPC   GL2 8090  13.451  43.678   9.135
  214POPC   C1A 8091  13.572  44.014   8.672
  214POPC   D2A 8092  13.542  44.173   8.263
  214POPC   C3A 8093  13.547  43.986   7.840
  214POPC   C4A 8094  13.457  43.907   7.397
  214POPC   C1B 8095  13.758  43.549   8.785
  214POPC   C2B 8096  13.770  43.387   8.358
  214POPC   C3B 8097  13.902  43.457   7.938
  214POPC   C4B 8098  13.890  43.723   7.573
  215POPC   NC3 8099   9.905  17.989   9.448
  215POPC   PO4 8100   9.496  18.469   9.699
  215POPC   GL1 8101   9.642  18.446   9.258
  215POPC   GL2 8102   9.496  18.144   9.155
  215POPC   C1A 8103   9.652  18.490   8.788
  215POPC   D2A 8104   9.858  18.437   8.361
  215POPC   C3A 8105   9.639  18.420   7.981
  215POPC   C4A 8106   9.779  18.280   7.565
  215POPC   C1B 8107   9.381  18.008   8.748
  215POPC   C2B 8108   9.388  18.089   8.308
  215POPC   C3B 8109   9.350  18.011   7.876
  215POPC   C4B 8110   9.283  18.401   7.609
  216POPC   NC3 8111   2.144  38.439   9.667
  216POPC   PO4 8112   2.406  38.978   9.236
  216POPC   GL1 8113   2.069  38.703   8.930
  216POPC   GL2 8114   1.933  38.383   9.052
  216POPC   C1A 8115   2.034  38.453   8.556
  216POPC   D2A 8116   1.980  38.210   8.209
  216POPC   C3A 8117   2.005  38.472   7.884
  216POPC   C4A 8118   2.248  38.850   7.786
  216POPC   C1B 8119   1.623  38.236   8.745
  216POPC   C2B 8120   1.597  37.966   8.409
  216POPC   C3B 8121   1.533  38.083   7.993
  216POPC   C4B 8122   1.599  38.265   7.635
  217POPC   NC3 8123  34.823  23.173   9.432
  217POPC   PO4 8124  34.238  22.902   9.567
  217POPC   GL1 8125  34.531  22.835   9.155
  217POPC   GL2 8126  34.665  23.102   8.964
  217POPC   C1A 8127  34.585  22.643   8.732
  217POPC   D2A 8128  34.570  22.827   8.311
  217POPC   C3A 8129  34.635  22.660   7.911
  217POPC   C4A 8130  34.531  22.890   7.541
  217POPC   C1B 8131  34.349  23.130   8.671
  217POPC   C2B 8132  34.346  23.286   8.256
  217POPC   C3B 8133  34.650  23.218   7.920
  217POPC   C4B 8134  34.806  23.337   7.490
  218POPC   NC3 8135   2.257  23.502   9.453
  218POPC   PO4 8136   1.711  23.879   9.600
  218POPC   GL1 8137   1.942  23.891   9.198
  218POPC   GL2 8138   2.079  23.599   9.008
  218POPC   C1A 8139   1.776  23.901   8.768
  218POPC   D2A 8140   1.955  23.946   8.373
  218POPC   C3A 8141   1.793  23.833   8.028
  218POPC   C4A 8142   1.747  23.572   7.742
  218POPC   C1B 8143   2.290  23.632   8.618
  218POPC   C2B 8144   2.316  23.622   8.162
  218POPC   C3B 8145   2.200  23.336   7.805
  218POPC   C4B 8146   2.425  23.244   7.408
  219POPC   NC3 8147  22.377  42.974   9.335
  219POPC   PO4 8148  22.264  43.610   9.557
  219POPC   GL1 8149  22.135  43.400   9.181
  219POPC   GL2 8150  21.897  43.126   9.172
  219POPC   C1A 8151  22.145  43.271   8.726
  219POPC   D2A 8152  22.463  43.222   8.396
  219POPC   C3A 8153  22.374  43.187   7.970
  219POPC   C4A 8154  22.159  42.960   7.675
  219POPC   C1B 8155  21.809  42.859   8.824
  219POPC   C2B 8156  21.818  43.050   8.411
  219POPC   C3B 8157  21.793  42.883   8.024
  219POPC   C4B 8158  21.690  42.775   7.627
  220POPC   NC3 8159  14.484  43.337   9.566
  220POPC   PO4 8160  14.525  42.717   9.682
  220POPC   GL1 8161  14.479  42.918   9.200
  220POPC   GL2 8162  14.331  43.220   9.076
  220POPC   C1A 8163  14.335  42.892   8.709
  220POPC   D2A 8164  14.146  43.061   8.318
  220POPC   C3A 8165  14.357  43.169   7.922
  220POPC   C4A 8166  14.409  42.980   7.536
  220POPC   C1B 8167  14.270  43.437   8.677
  220POPC   C2B 8168  14.322  43.558   8.243
  220POPC   C3B 8169  14.389  43.663   7.807
  220POPC   C4B 8170  14.659  43.449   7.556
  221POPC   NC3 8171  21.652   6.642   9.644
  221POPC   PO4 8172  20.983   6.779   9.693
  221POPC   GL1 8173  21.253   6.812   9.271
  221POPC   GL2 8174  21.626   6.757   9.149
  221POPC   C1A 8175  21.249   6.570   8.875
  221POPC   D2A 8176  21.320   6.334   8.501
  221POPC   C3A 8177  21.369   6.554   8.088
  221POPC   C4A 8178  21.352   6.854   7.753
  221POPC   C1B 8179  21.662   6.895   8.698
  221POPC   C2B 8180  21.697   6.959   8.248
  221POPC   C3B 8181  21.836   6.735   7.906
  221POPC   C4B 8182  21.780   6.665   7.470
  222POPC   NC3 8183   4.408   1.999   9.554
  222POPC   PO4 8184   4.229   1.472   9.258
  222POPC   GL1 8185   4.548   1.785   9.108
  222POPC   GL2 8186   4.533   2.194   9.074
  222POPC   C1A 8187   4.342   1.891   8.732
  222POPC   D2A 8188   4.058   2.035   8.471
  222POPC   C3A 8189   4.162   1.896   8.077
  222POPC   C4A 8190   4.470   1.722   7.815
  222POPC   C1B 8191   4.374   2.396   8.647
  222POPC   C2B 8192   4.295   2.405   8.181
  222POPC   C3B 8193   4.381   2.261   7.744
  222POPC   C4B 8194   4.315   2.302   7.276
  223POPC   NC3 8195  44.323  44.507   9.423
  223POPC   PO4 8196  44.776  44.897   9.547
  223POPC   GL1 8197  44.665  44.776   9.159
  223POPC   GL2 8198  44.787  44.434   9.194
  223POPC   C1A 8199  44.495  44.947   8.775
  223POPC   D2A 8200  44.397  44.783   8.356
  223POPC   C3A 8201  44.732  44.786   8.031
  223POPC   C4A 8202  44.487  44.807   7.651
  223POPC   C1B 8203  44.550  44.421   8.798
  223POPC   C2B 8204  44.702  44.402   8.388
  223POPC   C3B 8205  44.523  44.339   7.989
  223POPC   C4B 8206  44.905  44.303   7.752
  224POPC   NC3 8207  14.718  23.146   9.392
  224POPC   PO4 8208  15.298  22.862   9.504
  224POPC   GL1 8209  15.216  22.792   9.131
  224POPC   GL2 8210  15.339  23.137   9.046
  224POPC   C1A 8211  15.417  22.714   8.770
  224POPC   D2A 8212  15.420  23.099   8.524
  224POPC   C3A 8213  15.368  23.052   8.068
  224POPC   C4A 8214  15.315  22.636   7.867
  224POPC   C1B 8215  14.972  23.074   8.765
  224POPC   C2B 8216  14.835  23.176   8.349
  224POPC   C3B 8217  14.892  23.033   7.900
  224POPC   C4B 8218  14.929  23.257   7.492
  225POPC   NC3 8219  26.997  26.105   9.570
  225POPC   PO4 8220  26.309  26.261   9.467
  225POPC   GL1 8221  26.647  25.995   9.207
  225POPC   GL2 8222  26.957  26.122   9.053
  225POPC   C1A 8223  26.714  25.736   8.834
  225POPC   D2A 8224  26.896  25.681   8.413
  225POPC   C3A 8225  26.700  25.839   8.065
  225POPC   C4A 8226  26.832  25.851   7.620
  225POPC   C1B 8227  26.805  26.205   8.618
  225POPC   C2B 8228  26.866  26.423   8.216
  225POPC   C3B 8229  26.723  26.295   7.843
  225POPC   C4B 8230  26.628  26.264   7.417
  226POPC   NC3 8231  43.503  44.408   9.520
  226POPC   PO4 8232  44.042  44.892   9.432
  226POPC   GL1 8233  43.846  44.760   9.104
  226POPC   GL2 8234  43.890  44.435   9.182
  226POPC   C1A 8235  44.058  44.666   8.723
  226POPC   D2A 8236  43.884  44.675   8.322
  226POPC   C3A 8237  44.101  44.644   7.943
  226POPC   C4A 8238  44.040  44.612   7.501
  226POPC   C1B 8239  43.719  44.302   8.818
  226POPC   C2B 8240  43.886  44.183   8.421
  226POPC   C3B 8241  43.756  44.259   7.999
  226POPC   C4B 8242  43.564  44.393   7.614
  227POPC   NC3 8243  36.826  42.071   9.485
  227POPC   PO4 8244  37.099  42.669   9.545
  227POPC   GL1 8245  36.928  42.478   9.159
  227POPC   GL2 8246  36.582  42.387   9.155
  227POPC   C1A 8247  37.071  42.483   8.717
  227POPC   D2A 8248  37.055  42.708   8.333
  227POPC   C3A 8249  36.956  42.444   8.003
  227POPC   C4A 8250  37.069  42.517   7.557
  227POPC   C1B 8251  36.675  42.158   8.778
  227POPC   C2B 8252  36.714  41.823   8.451
  227POPC   C3B 8253  36.642  41.814   7.999
  227POPC   C4B 8254  36.823  42.079   7.676
  228POPC   NC3 8255  26.117   5.623   9.456
  228POPC   PO4 8256  25.803   5.103   9.537
  228POPC   GL1 8257  26.009   5.134   9.129
  228POPC   GL2 8258  25.947   5.456   9.004
  228POPC   C1A 8259  26.066   4.909   8.710
  228POPC   D2A 8260  25.898   5.006   8.284
  228POPC   C3A 8261  26.121   4.992   7.869
  228POPC   C4A 8262  26.180   5.062   7.402
  228POPC   C1B 8263  26.101   5.405   8.583
  228POPC   C2B 8264  26.133   5.447   8.118
  228POPC   C3B 8265  26.020   5.483   7.687
  228POPC   C4B 8266  26.142   5.568   7.265
  229POPC   NC3 8267  25.011  38.394   9.728
  229POPC   PO4 8268  24.455  38.624   9.371
  229POPC   GL1 8269  24.458  38.629   8.931
  229POPC   GL2 8270  24.770  38.617   8.780
  229POPC   C1A 8271  24.349  38.695   8.492
  229POPC   D2A 8272  24.068  38.356   8.367
  229POPC   C3A 8273  24.114  38.156   7.992
  229POPC   C4A 8274  24.448  38.197   7.684
  229POPC   C1B 8275  24.587  38.243   8.619
  229POPC   C2B 8276  24.580  38.320   8.185
  229POPC   C3B 8277  24.824  38.501   7.888
  229POPC   C4B 8278  24.668  38.667   7.538
  230POPC   NC3 8279  25.038  39.953   9.483
  230POPC   PO4 8280  25.670  39.938   9.377
  230POPC   GL1 8281  25.489  40.253   9.079
  230POPC   GL2 8282  25.127  40.342   9.169
  230POPC   C1A 8283  25.463  40.115   8.629
  230POPC   D2A 8284  25.303  39.768   8.311
  230POPC   C3A 8285  25.289  39.927   7.895
  230POPC   C4A 8286  25.436  39.855   7.455
  230POPC   C1B 8287  24.973  40.062   8.830
  230POPC   C2B 8288  24.998  40.161   8.409
  230POPC   C3B 8289  24.815  40.054   8.031
  230POPC   C4B 8290  24.910  40.187   7.627
  231POPC   NC3 8291   5.351  27.232   9.587
  231POPC   PO4 8292   5.897  27.695   9.686
  231POPC   GL1 8293   5.984  27.667   9.224
  231POPC   GL2 8294   6.283  27.517   9.270
  231POPC   C1A 8295   5.839  27.699   8.760
  231POPC   D2A 8296   5.605  27.694   8.355
  231POPC   C3A 8297   5.823  27.570   7.996
  231POPC   C4A 8298   5.928  27.952   7.832
  231POPC   C1B 8299   6.269  27.384   8.845
  231POPC   C2B 8300   6.177  27.442   8.422
  231POPC   C3B 8301   6.374  27.492   8.041
  231POPC   C4B 8302   6.274  27.637   7.676
  232POPC   NC3 8303   8.137  42.212   9.371
  232POPC   PO4 8304   8.283  42.834   9.541
  232POPC   GL1 8305   8.324  42.627   9.159
  232POPC   GL2 8306   7.997  42.598   9.063
  232POPC   C1A 8307   8.376  42.431   8.736
  232POPC   D2A 8308   8.205  42.288   8.363
  232POPC   C3A 8309   8.279  42.537   8.004
  232POPC   C4A 8310   8.546  42.376   7.706
  232POPC   C1B 8311   7.859  42.242   8.783
  232POPC   C2B 8312   7.730  42.104   8.386
  232POPC   C3B 8313   7.840  42.255   8.000
  232POPC   C4B 8314   8.081  42.196   7.634
  233POPC   NC3 8315  43.532  30.976   9.846
  233POPC   PO4 8316  43.943  30.511   9.553
  233POPC   GL1 8317  44.076  30.615   9.149
  233POPC   GL2 8318  44.068  30.990   9.104
  233POPC   C1A 8319  43.967  30.661   8.714
  233POPC   D2A 8320  43.965  30.918   8.371
  233POPC   C3A 8321  43.803  30.602   8.154
  233POPC   C4A 8322  43.749  30.481   7.759
  233POPC   C1B 8323  43.701  31.098   8.794
  233POPC   C2B 8324  43.462  31.177   8.395
  233POPC   C3B 8325  43.624  31.058   7.981
  233POPC   C4B 8326  44.037  30.916   7.790
  234POPC   NC3 8327  37.887   5.189   9.545
  234POPC   PO4 8328  37.375   4.807   9.248
  234POPC   GL1 8329  37.678   5.023   9.122
  234POPC   GL2 8330  37.524   5.301   9.208
  234POPC   C1A 8331  37.823   4.904   8.764
  234POPC   D2A 8332  37.574   4.742   8.441
  234POPC   C3A 8333  37.646   4.937   8.051
  234POPC   C4A 8334  37.360   5.212   7.781
  234POPC   C1B 8335  37.583   5.365   8.759
  234POPC   C2B 8336  37.529   5.362   8.323
  234POPC   C3B 8337  37.777   5.453   7.972
  234POPC   C4B 8338  37.708   5.526   7.540
  235POPC   NC3 8339   3.143  12.958   9.534
  235POPC   PO4 8340   3.656  12.550   9.701
  235POPC   GL1 8341   3.640  12.773   9.277
  235POPC   GL2 8342   3.697  13.143   9.195
  235POPC   C1A 8343   3.374  12.775   8.886
  235POPC   D2A 8344   3.460  12.861   8.419
  235POPC   C3A 8345   3.630  12.549   8.124
  235POPC   C4A 8346   3.333  12.499   7.786
  235POPC   C1B 8347   3.837  12.960   8.784
  235POPC   C2B 8348   3.972  12.918   8.323
  235POPC   C3B 8349   3.739  13.057   7.973
  235POPC   C4B 8350   3.782  13.198   7.569
  236POPC   NC3 8351  34.145  16.485   9.527
  236POPC   PO4 8352  33.787  16.947   9.235
  236POPC   GL1 8353  33.855  16.617   9.083
  236POPC   GL2 8354  33.486  16.542   9.077
  236POPC   C1A 8355  33.920  16.645   8.653
  236POPC   D2A 8356  34.068  16.582   8.270
  236POPC   C3A 8357  33.856  16.874   7.970
  236POPC   C4A 8358  33.725  16.816   7.513
  236POPC   C1B 8359  33.444  16.423   8.659
  236POPC   C2B 8360  33.518  16.667   8.294
  236POPC   C3B 8361  33.445  16.587   7.865
  236POPC   C4B 8362  33.660  16.299   7.584
  237POPC   NC3 8363   1.156  36.090   9.550
  237POPC   PO4 8364   1.668  36.457   9.454
  237POPC   GL1 8365   1.290  36.358   9.113
  237POPC   GL2 8366   1.240  35.986   9.033
  237POPC   C1A 8367   1.148  36.262   8.629
  237POPC   D2A 8368   1.076  35.853   8.373
  237POPC   C3A 8369   0.913  35.906   7.980
  237POPC   C4A 8370   0.905  36.348   7.803
  237POPC   C1B 8371   1.505  35.911   8.636
  237POPC   C2B 8372   1.545  35.903   8.160
  237POPC   C3B 8373   1.358  36.037   7.755
  237POPC   C4B 8374   1.377  35.753   7.385
  238POPC   NC3 8375  37.213   0.440   9.538
  238POPC   PO4 8376  36.571   0.118   9.357
  238POPC   GL1 8377  36.823   0.442   9.193
  238POPC   GL2 8378  36.644   0.765   9.165
  238POPC   C1A 8379  36.897   0.419   8.768
  238POPC   D2A 8380  36.683   0.202   8.409
  238POPC   C3A 8381  36.880   0.194   8.024
  238POPC   C4A 8382  36.788   0.070   7.611
  238POPC   C1B 8383  36.470   0.696   8.807
  238POPC   C2B 8384  36.679   0.707   8.411
  238POPC   C3B 8385  36.550   0.595   8.036
  238POPC   C4B 8386  36.792   0.588   7.680
  239POPC   NC3 8387  25.714  41.114   9.546
  239POPC   PO4 8388  25.098  41.339   9.350
  239POPC   GL1 8389  25.200  41.648   9.071
  239POPC   GL2 8390  25.538  41.683   9.164
  239POPC   C1A 8391  25.090  41.807   8.684
  239POPC   D2A 8392  25.171  41.608   8.314
  239POPC   C3A 8393  25.069  41.784   7.933
  239POPC   C4A 8394  25.045  41.495   7.541
  239POPC   C1B 8395  25.564  41.533   8.741
  239POPC   C2B 8396  25.723  41.684   8.375
  239POPC   C3B 8397  25.638  41.650   7.983
  239POPC   C4B 8398  25.459  41.772   7.621
  240POPC   NC3 8399   6.036  19.190   9.490
  240POPC   PO4 8400   5.635  18.630   9.520
  240POPC   GL1 8401   5.635  18.956   9.189
  240POPC   GL2 8402   5.957  19.028   9.034
  240POPC   C1A 8403   5.586  19.026   8.710
  240POPC   D2A 8404   5.883  18.897   8.405
  240POPC   C3A 8405   5.833  19.125   8.035
  240POPC   C4A 8406   5.935  18.957   7.646
  240POPC   C1B 8407   6.194  19.172   8.721
  240POPC   C2B 8408   6.217  19.314   8.330
  240POPC   C3B 8409   6.306  19.208   7.903
  240POPC   C4B 8410   6.228  19.411   7.516
  241POPC   NC3 8411   8.765  31.464   9.459
  241POPC   PO4 8412   8.098  31.412   9.602
  241POPC   GL1 8413   8.305  31.260   9.215
  241POPC   GL2 8414   8.413  31.572   9.083
  241POPC   C1A 8415   8.248  31.189   8.745
  241POPC   D2A 8416   8.098  31.035   8.313
  241POPC   C3A 8417   8.302  31.241   7.944
  241POPC   C4A 8418   8.293  31.460   7.507
  241POPC   C1B 8419   8.142  31.705   8.734
  241POPC   C2B 8420   8.162  31.575   8.307
  241POPC   C3B 8421   8.157  31.753   7.890
  241POPC   C4B 8422   8.425  31.944   7.561
  242POPC   NC3 8423   4.313  38.707   9.435
  242POPC   PO4 8424   4.537  38.029   9.467
  242POPC   GL1 8425   4.355  38.287   9.125
  242POPC   GL2 8426   4.086  38.193   8.958
  242POPC   C1A 8427   4.386  38.569   8.762
  242POPC   D2A 8428   4.522  38.772   8.402
  242POPC   C3A 8429   4.249  38.545   8.146
  242POPC   C4A 8430   4.374  38.368   7.785
  242POPC   C1B 8431   4.063  38.220   8.540
  242POPC   C2B 8432   3.885  38.099   8.189
  242POPC   C3B 8433   3.845  38.068   7.747
  242POPC   C4B 8434   3.828  38.285   7.366
  243POPC   NC3 8435  42.557  12.496   9.493
  243POPC   PO4 8436  43.220  12.590   9.422
  243POPC   GL1 8437  43.120  12.879   9.100
  243POPC   GL2 8438  42.764  12.854   9.142
  243POPC   C1A 8439  43.037  12.884   8.670
  243POPC   D2A 8440  42.926  12.935   8.273
  243POPC   C3A 8441  43.235  12.816   7.993
  243POPC   C4A 8442  43.236  12.892   7.571
  243POPC   C1B 8443  42.823  12.468   8.876
  243POPC   C2B 8444  42.881  12.438   8.408
  243POPC   C3B 8445  42.771  12.567   7.937
  243POPC   C4B 8446  42.882  12.492   7.483
  244POPC   NC3 8447  16.040  21.105   9.514
  244POPC   PO4 8448  15.692  21.608   9.739
  244POPC   GL1 8449  15.742  21.536   9.274
  244POPC   GL2 8450  15.628  21.194   9.223
  244POPC   C1A 8451  15.790  21.725   8.829
  244POPC   D2A 8452  15.866  21.843   8.384
  244POPC   C3A 8453  16.105  21.577   8.111
  244POPC   C4A 8454  16.241  21.288   7.798
  244POPC   C1B 8455  15.572  21.276   8.779
  244POPC   C2B 8456  15.591  21.332   8.309
  244POPC   C3B 8457  15.740  21.214   7.855
  244POPC   C4B 8458  15.723  21.150   7.383
  245POPC   NC3 8459   5.249  23.358   9.428
  245POPC   PO4 8460   4.734  22.972   9.445
  245POPC   GL1 8461   4.948  23.053   9.082
  245POPC   GL2 8462   4.875  23.372   9.090
  245POPC   C1A 8463   5.049  22.889   8.674
  245POPC   D2A 8464   4.969  22.697   8.248
  245POPC   C3A 8465   5.254  22.815   7.917
  245POPC   C4A 8466   5.193  22.993   7.489
  245POPC   C1B 8467   4.742  23.367   8.674
  245POPC   C2B 8468   4.694  23.134   8.274
  245POPC   C3B 8469   4.785  23.003   7.832
  245POPC   C4B 8470   4.742  23.298   7.491
  246POPC   NC3 8471  15.028  20.674   9.520
  246POPC   PO4 8472  15.690  20.489   9.548
  246POPC   GL1 8473  15.373  20.487   9.172
  246POPC   GL2 8474  15.077  20.264   9.181
  246POPC   C1A 8475  15.056  20.675   8.859
  246POPC   D2A 8476  14.851  20.686   8.432
  246POPC   C3A 8477  15.143  20.840   8.115
  246POPC   C4A 8478  15.395  20.870   7.702
  246POPC   C1B 8479  14.885  20.211   8.756
  246POPC   C2B 8480  15.150  20.273   8.388
  246POPC   C3B 8481  15.419  20.356   8.063
  246POPC   C4B 8482  15.111  20.441   7.787
  247POPC   NC3 8483  22.546  14.828   9.356
  247POPC   PO4 8484  21.921  15.119   9.555
  247POPC   GL1 8485  22.065  14.985   9.163
  247POPC   GL2 8486  22.171  15.307   9.043
  247POPC   C1A 8487  22.180  14.940   8.718
  247POPC   D2A 8488  22.197  15.224   8.377
  247POPC   C3A 8489  22.158  15.093   7.959
  247POPC   C4A 8490  22.491  15.087   7.679
  247POPC   C1B 8491  21.843  15.355   8.721
  247POPC   C2B 8492  21.754  15.441   8.289
  247POPC   C3B 8493  21.769  15.418   7.848
  247POPC   C4B 8494  22.133  15.421   7.517
  248POPC   NC3 8495   0.710  18.041   9.442
  248POPC   PO4 8496   1.171  18.477   9.551
  248POPC   GL1 8497   1.209  18.262   9.127
  248POPC   GL2 8498   1.288  17.889   9.068
  248POPC   C1A 8499   1.436  18.205   8.715
  248POPC   D2A 8500   1.482  18.067   8.313
  248POPC   C3A 8501   1.469  18.398   8.045
  248POPC   C4A 8502   1.540  18.391   7.631
  248POPC   C1B 8503   0.947  18.011   8.772
  248POPC   C2B 8504   0.810  17.940   8.340
  248POPC   C3B 8505   1.071  18.000   7.985
  248POPC   C4B 8506   1.062  18.234   7.620
  249POPC   NC3 8507  44.189  13.492   9.667
  249POPC   PO4 8508  43.523  13.471   9.456
  249POPC   GL1 8509  43.888  13.246   9.204
  249POPC   GL2 8510  44.237  13.416   9.158
  249POPC   C1A 8511  43.976  13.321   8.747
  249POPC   D2A 8512  43.799  13.491   8.353
  249POPC   C3A 8513  43.936  13.588   7.933
  249POPC   C4A 8514  43.698  13.663   7.564
  249POPC   C1B 8515  44.406  13.640   8.767
  249POPC   C2B 8516  44.321  13.740   8.308
  249POPC   C3B 8517  44.221  14.015   7.952
  249POPC   C4B 8518  44.105  13.957   7.506
  250POPC   NC3 8519  39.854  31.374   9.526
  250POPC   PO4 8520  40.389  31.725   9.306
  250POPC   GL1 8521  40.154  31.472   9.044
  250POPC   GL2 8522  40.131  31.170   9.145
  250POPC   C1A 8523  39.856  31.471   8.714
  250POPC   D2A 8524  39.812  31.727   8.332
  250POPC   C3A 8525  40.143  31.747   8.011
  250POPC   C4A 8526  40.151  31.647   7.557
  250POPC   C1B 8527  40.122  31.019   8.720
  250POPC   C2B 8528  39.967  31.191   8.300
  250POPC   C3B 8529  39.962  31.289   7.869
  250POPC   C4B 8530  39.773  31.314   7.474
  251POPC   NC3 8531  26.793  19.981   9.607
  251POPC   PO4 8532  26.951  19.375   9.523
  251POPC   GL1 8533  26.783  19.625   9.152
  251POPC   GL2 8534  26.633  19.979   9.138
  251POPC   C1A 8535  27.010  19.834   8.799
  251POPC   D2A 8536  27.258  19.818   8.414
  251POPC   C3A 8537  27.027  19.768   8.047
  251POPC   C4A 8538  26.683  19.504   7.948
  251POPC   C1B 8539  26.508  19.977   8.751
  251POPC   C2B 8540  26.563  19.835   8.348
  251POPC   C3B 8541  26.329  19.964   8.014
  251POPC   C4B 8542  26.547  19.901   7.641
  252POPC   NC3 8543   4.761  24.229   9.374
  252POPC   PO4 8544   4.226  23.823   9.581
  252POPC   GL1 8545   4.188  23.643   9.188
  252POPC   GL2 8546   4.526  23.742   9.112
  252POPC   C1A 8547   4.227  23.508   8.759
  252POPC   D2A 8548   4.375  23.532   8.346
  252POPC   C3A 8549   4.134  23.779   8.071
  252POPC   C4A 8550   4.074  23.659   7.633
  252POPC   C1B 8551   4.588  23.895   8.698
  252POPC   C2B 8552   4.855  23.768   8.343
  252POPC   C3B 8553   4.653  23.757   7.937
  252POPC   C4B 8554   4.392  24.073   7.736
  253POPC   NC3 8555  33.344  19.593   9.510
  253POPC   PO4 8556  32.767  19.996   9.483
  253POPC   GL1 8557  33.078  19.934   9.189
  253POPC   GL2 8558  32.998  19.580   9.140
  253POPC   C1A 8559  33.161  20.159   8.813
  253POPC   D2A 8560  32.945  20.089   8.434
  253POPC   C3A 8561  33.083  19.899   8.061
  253POPC   C4A 8562  33.247  20.105   7.705
  253POPC   C1B 8563  33.137  19.665   8.730
  253POPC   C2B 8564  32.853  19.575   8.412
  253POPC   C3B 8565  32.736  19.527   8.011
  253POPC   C4B 8566  32.877  19.703   7.628
  254POPC   NC3 8567   1.979  35.604   9.258
  254POPC   PO4 8568   1.774  35.004   9.410
  254POPC   GL1 8569   2.131  35.000   9.104
  254POPC   GL2 8570   1.915  35.208   8.961
  254POPC   C1A 8571   2.253  35.100   8.631
  254POPC   D2A 8572   1.955  35.085   8.269
  254POPC   C3A 8573   1.913  35.410   8.008
  254POPC   C4A 8574   2.234  35.590   7.823
  254POPC   C1B 8575   1.665  34.976   8.710
  254POPC   C2B 8576   1.518  34.829   8.340
  254POPC   C3B 8577   1.533  34.988   7.942
  254POPC   C4B 8578   1.913  34.917   7.744
  255POPC   NC3 8579  14.606  16.878   9.598
  255POPC   PO4 8580  14.096  17.326   9.538
  255POPC   GL1 8581  14.242  16.990   9.207
  255POPC   GL2 8582  14.436  16.675   9.160
  255POPC   C1A 8583  14.405  16.991   8.773
  255POPC   D2A 8584  14.429  16.757   8.417
  255POPC   C3A 8585  14.289  16.955   8.061
  255POPC   C4A 8586  14.313  16.743   7.696
  255POPC   C1B 8587  14.305  16.417   8.798
  255POPC   C2B 8588  14.002  16.461   8.405
  255POPC   C3B 8589  14.158  16.341   7.978
  255POPC   C4B 8590  14.158  16.258   7.505
  256POPC   NC3 8591  35.918  17.183   9.472
  256POPC   PO4 8592  36.269  17.851   9.458
  256POPC   GL1 8593  36.035  17.591   9.204
  256POPC   GL2 8594  36.268  17.289   9.096
  256POPC   C1A 8595  35.882  17.524   8.824
  256POPC   D2A 8596  36.024  17.704   8.463
  256POPC   C3A 8597  36.138  17.386   8.190
  256POPC   C4A 8598  36.071  17.450   7.762
  256POPC   C1B 8599  36.417  17.614   8.822
  256POPC   C2B 8600  36.545  17.616   8.401
  256POPC   C3B 8601  36.357  17.824   8.075
  256POPC   C4B 8602  36.420  17.917   7.697
  257POPC   NC3 8603  22.664   6.273   9.584
  257POPC   PO4 8604  23.167   5.763   9.508
  257POPC   GL1 8605  22.866   5.870   9.138
  257POPC   GL2 8606  22.633   5.582   9.031
  257POPC   C1A 8607  22.936   6.038   8.687
  257POPC   D2A 8608  22.849   5.875   8.236
  257POPC   C3A 8609  23.154   5.919   7.873
  257POPC   C4A 8610  23.069   6.000   7.431
  257POPC   C1B 8611  22.501   5.805   8.640
  257POPC   C2B 8612  22.562   6.252   8.409
  257POPC   C3B 8613  22.679   6.272   7.963
  257POPC   C4B 8614  22.677   5.878   7.726
  258POPC   NC3 8615  34.846  24.756   9.417
  258POPC   PO4 8616  34.454  24.281   9.497
  258POPC   GL1 8617  34.494  24.448   9.133
  258POPC   GL2 8618  34.819  24.324   9.079
  258POPC   C1A 8619  34.248  24.542   8.781
  258POPC   D2A 8620  34.071  24.616   8.388
  258POPC   C3A 8621  34.461  24.689   8.141
  258POPC   C4A 8622  34.610  24.671   7.728
  258POPC   C1B 8623  34.792  24.603   8.743
  258POPC   C2B 8624  34.795  24.391   8.366
  258POPC   C3B 8625  35.012  24.183   8.043
  258POPC   C4B 8626  35.045  24.407   7.671
  259POPC   NC3 8627   0.695  13.308   9.439
  259POPC   PO4 8628   0.364  13.815   9.776
  259POPC   GL1 8629   0.597  13.788   9.315
  259POPC   GL2 8630   0.401  13.624   9.085
  259POPC   C1A 8631   0.796  13.956   8.923
  259POPC   D2A 8632   0.886  13.956   8.468
  259POPC   C3A 8633   0.690  13.674   8.114
  259POPC   C4A 8634   0.399  13.376   7.853
  259POPC   C1B 8635   0.413  13.702   8.670
  259POPC   C2B 8636   0.211  13.805   8.303
  259POPC   C3B 8637   0.208  13.838   7.884
  259POPC   C4B 8638  44.935  13.586   7.663
  260POPC   NC3 8639  40.464   3.412   9.461
  260POPC   PO4 8640  40.026   3.896   9.597
  260POPC   GL1 8641  40.131   3.715   9.216
  260POPC   GL2 8642  39.941   3.407   9.297
  260POPC   C1A 8643  40.345   3.631   8.807
  260POPC   D2A 8644  40.378   3.681   8.352
  260POPC   C3A 8645  40.116   3.422   8.091
  260POPC   C4A 8646  39.996   3.546   7.699
  260POPC   C1B 8647  39.806   3.482   8.879
  260POPC   C2B 8648  39.804   3.644   8.452
  260POPC   C3B 8649  39.598   3.592   8.035
  260POPC   C4B 8650  39.560   3.784   7.612
  261POPC   NC3 8651  36.683  13.409   9.349
  261POPC   PO4 8652  36.515  14.100   9.440
  261POPC   GL1 8653  36.754  14.003   9.044
  261POPC   GL2 8654  36.882  13.676   8.984
  261POPC   C1A 8655  37.127  14.055   8.781
  261POPC   D2A 8656  37.243  13.925   8.333
  261POPC   C3A 8657  36.984  14.040   7.969
  261POPC   C4A 8658  36.965  13.978   7.515
  261POPC   C1B 8659  37.139  13.554   8.664
  261POPC   C2B 8660  37.029  13.449   8.209
  261POPC   C3B 8661  36.826  13.441   7.785
  261POPC   C4B 8662  36.768  13.164   7.415
  262POPC   NC3 8663   8.875  21.575   9.401
  262POPC   PO4 8664   8.857  20.899   9.610
  262POPC   GL1 8665   8.696  21.109   9.216
  262POPC   GL2 8666   9.013  21.223   9.050
  262POPC   C1A 8667   8.605  21.302   8.789
  262POPC   D2A 8668   8.950  21.318   8.515
  262POPC   C3A 8669   8.873  21.400   8.098
  262POPC   C4A 8670   8.770  21.668   7.751
  262POPC   C1B 8671   9.264  20.979   8.776
  262POPC   C2B 8672   9.207  20.888   8.344
  262POPC   C3B 8673   9.389  21.230   8.157
  262POPC   C4B 8674   9.269  21.481   7.815
  263POPC   NC3 8675  25.595  25.520   9.536
  263POPC   PO4 8676  25.647  24.810   9.539
  263POPC   GL1 8677  25.390  25.154   9.261
  263POPC   GL2 8678  25.018  25.149   9.201
  263POPC   C1A 8679  25.422  25.105   8.841
  263POPC   D2A 8680  25.642  25.059   8.480
  263POPC   C3A 8681  25.633  25.337   8.158
  263POPC   C4A 8682  25.633  25.226   7.748
  263POPC   C1B 8683  25.079  25.485   8.891
  263POPC   C2B 8684  25.253  25.447   8.494
  263POPC   C3B 8685  25.111  25.289   8.135
  263POPC   C4B 8686  25.158  25.411   7.727
  264POPC   NC3 8687   9.217  17.270   9.544
  264POPC   PO4 8688   8.635  17.654   9.397
  264POPC   GL1 8689   8.933  17.436   9.152
  264POPC   GL2 8690   8.877  17.151   9.023
  264POPC   C1A 8691   9.176  17.548   8.813
  264POPC   D2A 8692   9.283  17.566   8.378
  264POPC   C3A 8693   8.949  17.533   8.043
  264POPC   C4A 8694   9.122  17.564   7.603
  264POPC   C1B 8695   8.733  17.324   8.633
  264POPC   C2B 8696   8.533  17.208   8.226
  264POPC   C3B 8697   8.484  17.174   7.781
  264POPC   C4B 8698   8.778  17.217   7.408
  265POPC   NC3 8699  24.344   9.555   9.310
  265POPC   PO4 8700  24.811  10.024   9.522
  265POPC   GL1 8701  24.592  10.142   9.141
  265POPC   GL2 8702  24.256  10.017   9.144
  265POPC   C1A 8703  24.509  10.061   8.700
  265POPC   D2A 8704  24.597   9.812   8.345
  265POPC   C3A 8705  24.557  10.042   7.987
  265POPC   C4A 8706  24.606   9.799   7.624
  265POPC   C1B 8707  24.084   9.731   8.765
  265POPC   C2B 8708  24.124   9.540   8.323
  265POPC   C3B 8709  24.154   9.709   7.900
  265POPC   C4B 8710  24.121   9.728   7.444
  266POPC   NC3 8711   7.846  12.423   9.609
  266POPC   PO4 8712   7.236  11.995   9.503
  266POPC   GL1 8713   7.357  12.360   9.258
  266POPC   GL2 8714   7.665  12.397   9.139
  266POPC   C1A 8715   7.238  12.455   8.845
  266POPC   D2A 8716   7.217  12.144   8.518
  266POPC   C3A 8717   7.241  12.257   8.112
  266POPC   C4A 8718   7.141  12.172   7.701
  266POPC   C1B 8719   7.535  11.998   8.890
  266POPC   C2B 8720   7.600  11.728   8.506
  266POPC   C3B 8721   7.577  11.841   8.056
  266POPC   C4B 8722   7.637  12.205   7.768
  267POPC   NC3 8723  34.626  32.193   9.502
  267POPC   PO4 8724  35.036  31.718   9.273
  267POPC   GL1 8725  34.726  31.948   9.026
  267POPC   GL2 8726  34.623  32.323   9.000
  267POPC   C1A 8727  34.706  32.016   8.590
  267POPC   D2A 8728  34.566  31.832   8.249
  267POPC   C3A 8729  34.732  31.996   7.884
  267POPC   C4A 8730  34.739  32.057   7.411
  267POPC   C1B 8731  34.367  32.390   8.605
  267POPC   C2B 8732  34.394  32.546   8.169
  267POPC   C3B 8733  34.507  32.425   7.747
  267POPC   C4B 8734  34.565  32.659   7.342
  268POPC   NC3 8735  21.240  35.219   9.688
  268POPC   PO4 8736  21.809  35.376   9.814
  268POPC   GL1 8737  21.531  35.417   9.337
  268POPC   GL2 8738  21.200  35.322   9.191
  268POPC   C1A 8739  21.505  35.613   8.895
  268POPC   D2A 8740  21.344  35.527   8.466
  268POPC   C3A 8741  21.570  35.566   8.067
  268POPC   C4A 8742  21.476  35.670   7.624
  268POPC   C1B 8743  21.563  35.110   8.948
  268POPC   C2B 8744  21.593  35.073   8.526
  268POPC   C3B 8745  21.304  35.108   8.169
  268POPC   C4B 8746  21.363  35.199   7.754
  269POPC   NC3 8747   2.592  20.348   9.458
  269POPC   PO4 8748   2.920  20.920   9.530
  269POPC   GL1 8749   2.898  20.663   9.194
  269POPC   GL2 8750   2.568  20.746   9.108
  269POPC   C1A 8751   2.923  20.709   8.756
  269POPC   D2A 8752   2.668  20.731   8.398
  269POPC   C3A 8753   2.927  20.915   8.066
  269POPC   C4A 8754   3.059  20.886   7.613
  269POPC   C1B 8755   2.527  20.363   8.813
  269POPC   C2B 8756   2.568  20.185   8.412
  269POPC   C3B 8757   2.486  20.288   7.983
  269POPC   C4B 8758   2.372  20.178   7.563
  270POPC   NC3 8759  12.270  27.773   9.409
  270POPC   PO4 8760  11.567  27.788   9.499
  270POPC   GL1 8761  11.810  27.806   9.132
  270POPC   GL2 8762  11.877  27.461   9.127
  270POPC   C1A 8763  11.988  27.748   8.705
  270POPC   D2A 8764  11.919  27.887   8.265
  270POPC   C3A 8765  12.080  27.690   7.883
  270POPC   C4A 8766  12.297  27.459   7.534
  270POPC   C1B 8767  11.840  27.264   8.692
  270POPC   C2B 8768  11.835  27.365   8.224
  270POPC   C3B 8769  11.955  27.180   7.798
  270POPC   C4B 8770  11.865  27.255   7.333
  271POPC   NC3 8771  35.241  43.183   9.545
  271POPC   PO4 8772  35.859  43.544   9.433
  271POPC   GL1 8773  35.692  43.223   9.111
  271POPC   GL2 8774  35.405  42.951   9.100
  271POPC   C1A 8775  35.484  43.226   8.703
  271POPC   D2A 8776  35.152  43.169   8.423
  271POPC   C3A 8777  35.324  43.406   8.123
  271POPC   C4A 8778  35.352  43.382   7.700
  271POPC   C1B 8779  35.625  42.734   8.714
  271POPC   C2B 8780  35.688  42.925   8.271
  271POPC   C3B 8781  35.678  43.028   7.836
  271POPC   C4B 8782  35.478  42.975   7.395
  272POPC   NC3 8783  27.138  37.371   9.801
  272POPC   PO4 8784  26.824  37.875   9.558
  272POPC   GL1 8785  26.709  37.741   9.148
  272POPC   GL2 8786  26.887  37.436   9.185
  272POPC   C1A 8787  26.641  37.709   8.723
  272POPC   D2A 8788  26.897  37.730   8.349
  272POPC   C3A 8789  26.658  37.656   8.003
  272POPC   C4A 8790  26.736  37.887   7.642
  272POPC   C1B 8791  26.834  37.222   8.791
  272POPC   C2B 8792  26.685  37.260   8.383
  272POPC   C3B 8793  26.975  37.265   8.040
  272POPC   C4B 8794  26.937  37.411   7.635
  273POPC   NC3 8795  27.137  39.353   9.342
  273POPC   PO4 8796  27.843  39.094   9.515
  273POPC   GL1 8797  27.691  39.169   9.125
  273POPC   GL2 8798  27.700  39.517   9.171
  273POPC   C1A 8799  27.690  38.962   8.719
  273POPC   D2A 8800  27.807  38.807   8.286
  273POPC   C3A 8801  27.525  39.020   7.982
  273POPC   C4A 8802  27.239  39.418   8.029
  273POPC   C1B 8803  27.886  39.466   8.738
  273POPC   C2B 8804  27.861  39.311   8.316
  273POPC   C3B 8805  27.748  39.476   7.902
  273POPC   C4B 8806  27.975  39.827   7.713
  274POPC   NC3 8807   4.874  41.578   9.671
  274POPC   PO4 8808   5.502  41.442   9.455
  274POPC   GL1 8809   5.185  41.670   9.253
  274POPC   GL2 8810   5.232  41.453   9.015
  274POPC   C1A 8811   4.824  41.745   8.972
  274POPC   D2A 8812   4.813  41.791   8.507
  274POPC   C3A 8813   4.883  41.474   8.180
  274POPC   C4A 8814   4.909  41.417   7.726
  274POPC   C1B 8815   5.285  41.834   8.753
  274POPC   C2B 8816   5.293  41.925   8.305
  274POPC   C3B 8817   5.290  41.728   7.877
  274POPC   C4B 8818   5.629  41.735   7.532
  275POPC   NC3 8819  44.422  10.291   9.230
  275POPC   PO4 8820   0.043  10.557   9.528
  275POPC   GL1 8821  44.831  10.748   9.173
  275POPC   GL2 8822  44.762  10.482   8.922
  275POPC   C1A 8823  44.782  10.945   8.773
  275POPC   D2A 8824  44.848  10.701   8.404
  275POPC   C3A 8825  44.538  10.621   8.112
  275POPC   C4A 8826  44.724  10.651   7.734
  275POPC   C1B 8827  44.434  10.425   8.593
  275POPC   C2B 8828  44.268  10.191   8.262
  275POPC   C3B 8829  44.408   9.951   7.923
  275POPC   C4B 8830  44.410  10.225   7.584
  276POPC   NC3 8831   4.012  43.796   9.729
  276POPC   PO4 8832   4.540  44.228   9.548
  276POPC   GL1 8833   4.271  43.959   9.311
  276POPC   GL2 8834   4.412  43.626   9.263
  276POPC   C1A 8835   4.133  43.993   8.906
  276POPC   D2A 8836   4.405  44.213   8.632
  276POPC   C3A 8837   4.354  44.183   8.177
  276POPC   C4A 8838   4.276  44.080   7.742
  276POPC   C1B 8839   4.592  43.751   8.858
  276POPC   C2B 8840   4.443  43.721   8.437
  276POPC   C3B 8841   4.640  43.782   8.057
  276POPC   C4B 8842   4.590  43.626   7.664
  277POPC   NC3 8843  36.193  44.892   9.538
  277POPC   PO4 8844  36.133  44.259   9.576
  277POPC   GL1 8845  35.911  44.496   9.235
  277POPC   GL2 8846  36.090  44.784   9.072
  277POPC   C1A 8847  35.857  44.459   8.757
  277POPC   D2A 8848  36.125  44.410   8.364
  277POPC   C3A 8849  36.036  44.619   7.960
  277POPC   C4A 8850  36.049  44.540   7.515
  277POPC   C1B 8851  36.353  44.774   8.722
  277POPC   C2B 8852  36.245  44.936   8.331
  277POPC   C3B 8853  36.405   0.009   7.937
  277POPC   C4B 8854  36.297  44.987   7.496
  278POPC   NC3 8855   3.915  13.585   9.434
  278POPC   PO4 8856   3.275  13.390   9.421
  278POPC   GL1 8857   3.314  13.509   9.050
  278POPC   GL2 8858   3.635  13.643   8.993
  278POPC   C1A 8859   3.402  13.266   8.729
  278POPC   D2A 8860   3.671  13.339   8.421
  278POPC   C3A 8861   3.560  13.550   8.090
  278POPC   C4A 8862   3.316  13.335   7.789
  278POPC   C1B 8863   3.371  13.783   8.611
  278POPC   C2B 8864   3.397  14.095   8.259
  278POPC   C3B 8865   3.651  14.010   7.893
  278POPC   C4B 8866   3.626  13.690   7.592
  279POPC   NC3 8867  13.241  23.448   9.551
  279POPC   PO4 8868  13.353  22.770   9.530
  279POPC   GL1 8869  13.041  22.845   9.208
  279POPC   GL2 8870  12.926  23.202   9.189
  279POPC   C1A 8871  12.938  22.697   8.802
  279POPC   D2A 8872  13.040  22.888   8.412
  279POPC   C3A 8873  13.010  22.764   8.025
  279POPC   C4A 8874  12.712  22.754   7.736
  279POPC   C1B 8875  12.796  23.228   8.762
  279POPC   C2B 8876  12.667  23.372   8.357
  279POPC   C3B 8877  12.823  23.247   7.977
  279POPC   C4B 8878  12.849  23.406   7.569
  280POPC   NC3 8879   6.972  27.002   9.358
  280POPC   PO4 8880   6.452  26.876   9.828
  280POPC   GL1 8881   6.392  26.829   9.344
  280POPC   GL2 8882   6.504  27.079   9.174
  280POPC   C1A 8883   6.553  26.664   8.902
  280POPC   D2A 8884   6.756  26.675   8.508
  280POPC   C3A 8885   6.601  26.471   8.150
  280POPC   C4A 8886   6.711  26.597   7.737
  280POPC   C1B 8887   6.729  27.123   8.783
  280POPC   C2B 8888   6.653  27.196   8.379
  280POPC   C3B 8889   6.522  26.997   8.019
  280POPC   C4B 8890   6.540  27.152   7.609
  281POPC   NC3 8891   6.578  22.649   9.524
  281POPC   PO4 8892   6.898  22.113   9.585
  281POPC   GL1 8893   6.581  22.191   9.254
  281POPC   GL2 8894   6.282  21.957   9.259
  281POPC   C1A 8895   6.663  22.280   8.823
  281POPC   D2A 8896   6.758  22.007   8.477
  281POPC   C3A 8897   6.801  22.195   8.080
  281POPC   C4A 8898   6.881  21.949   7.733
  281POPC   C1B 8899   6.166  22.153   8.864
  281POPC   C2B 8900   6.288  22.215   8.453
  281POPC   C3B 8901   6.295  22.021   8.053
  281POPC   C4B 8902   6.425  22.236   7.716
  282POPC   NC3 8903   3.869   0.406   9.349
  282POPC   PO4 8904   3.116   0.598   9.507
  282POPC   GL1 8905   3.388   0.750   9.232
  282POPC   GL2 8906   3.468   0.456   9.028
  282POPC   C1A 8907   3.353   0.923   8.846
  282POPC   D2A 8908   3.385   0.808   8.434
  282POPC   C3A 8909   3.282   0.478   8.190
  282POPC   C4A 8910   3.440   0.648   7.816
  282POPC   C1B 8911   3.718   0.472   8.628
  282POPC   C2B 8912   3.797   0.497   8.155
  282POPC   C3B 8913   3.933   0.451   7.699
  282POPC   C4B 8914   3.989   0.215   7.302
  283POPC   NC3 8915  14.728  18.600   9.517
  283POPC   PO4 8916  15.425  18.680   9.573
  283POPC   GL1 8917  15.278  18.397   9.251
  283POPC   GL2 8918  14.951  18.286   9.198
  283POPC   C1A 8919  15.313  18.306   8.832
  283POPC   D2A 8920  15.166  18.446   8.434
  283POPC   C3A 8921  15.151  18.111   8.155
  283POPC   C4A 8922  15.188  18.120   7.725
  283POPC   C1B 8923  14.798  18.393   8.789
  283POPC   C2B 8924  14.670  18.319   8.368
  283POPC   C3B 8925  14.837  18.480   8.015
  283POPC   C4B 8926  14.831  18.692   7.658
  284POPC   NC3 8927  20.974   7.201   9.482
  284POPC   PO4 8928  21.688   7.132   9.519
  284POPC   GL1 8929  21.499   7.265   9.158
  284POPC   GL2 8930  21.233   7.444   9.059
  284POPC   C1A 8931  21.653   7.415   8.761
  284POPC   D2A 8932  21.785   7.687   8.453
  284POPC   C3A 8933  21.640   7.547   8.036
  284POPC   C4A 8934  21.720   7.205   7.749
  284POPC   C1B 8935  21.211   7.077   8.792
  284POPC   C2B 8936  21.213   6.951   8.375
  284POPC   C3B 8937  21.192   7.267   8.021
  284POPC   C4B 8938  21.183   7.700   7.832
  285POPC   NC3 8939  10.601  42.912   9.532
  285POPC   PO4 8940  10.585  43.564   9.331
  285POPC   GL1 8941  10.699  43.219   9.134
  285POPC   GL2 8942  10.394  43.025   9.090
  285POPC   C1A 8943  10.707  43.199   8.723
  285POPC   D2A 8944  10.572  43.363   8.355
  285POPC   C3A 8945  10.825  43.246   8.013
  285POPC   C4A 8946  11.012  43.410   7.670
  285POPC   C1B 8947  10.326  42.835   8.696
  285POPC   C2B 8948  10.174  43.045   8.322
  285POPC   C3B 8949  10.321  43.223   7.935
  285POPC   C4B 8950  10.255  42.925   7.667
  286POPC   NC3 8951  10.826  40.241   9.537
  286POPC   PO4 8952  10.553  40.859   9.456
  286POPC   GL1 8953  10.747  40.856   9.060
  286POPC   GL2 8954  10.818  40.501   9.089
  286POPC   C1A 8955  10.727  41.084   8.659
  286POPC   D2A 8956  10.383  41.073   8.362
  286POPC   C3A 8957  10.362  40.844   7.989
  286POPC   C4A 8958  10.257  40.435   7.870
  286POPC   C1B 8959  10.766  40.524   8.630
  286POPC   C2B 8960  10.809  40.764   8.234
  286POPC   C3B 8961  10.802  40.599   7.785
  286POPC   C4B 8962  10.888  40.528   7.308
  287POPC   NC3 8963  18.449  10.144   9.563
  287POPC   PO4 8964  18.128  10.687   9.544
  287POPC   GL1 8965  18.362  10.607   9.152
  287POPC   GL2 8966  18.327  10.286   9.090
  287POPC   C1A 8967  18.271  10.724   8.703
  287POPC   D2A 8968  17.929  10.746   8.380
  287POPC   C3A 8969  18.103  10.837   7.968
  287POPC   C4A 8970  18.433  10.649   7.721
  287POPC   C1B 8971  18.372  10.228   8.659
  287POPC   C2B 8972  18.354  10.446   8.271
  287POPC   C3B 8973  18.251  10.225   7.939
  287POPC   C4B 8974  18.409  10.073   7.584
  288POPC   NC3 8975  33.331  26.290   9.410
  288POPC   PO4 8976  33.239  25.654   9.383
  288POPC   GL1 8977  33.177  25.933   9.052
  288POPC   GL2 8978  32.798  26.003   9.067
  288POPC   C1A 8979  33.245  25.885   8.616
  288POPC   D2A 8980  32.866  25.778   8.448
  288POPC   C3A 8981  32.733  26.000   8.129
  288POPC   C4A 8982  32.934  25.954   7.729
  288POPC   C1B 8983  32.879  26.222   8.685
  288POPC   C2B 8984  32.936  26.556   8.402
  288POPC   C3B 8985  33.012  26.426   7.955
  288POPC   C4B 8986  32.915  26.424   7.469
  289POPC   NC3 8987   6.300  39.152   9.819
  289POPC   PO4 8988   5.719  39.228   9.467
  289POPC   GL1 8989   5.687  39.232   9.042
  289POPC   GL2 8990   5.417  39.007   9.013
  289POPC   C1A 8991   5.867  39.420   8.681
  289POPC   D2A 8992   6.042  39.737   8.450
  289POPC   C3A 8993   5.992  39.607   8.073
  289POPC   C4A 8994   5.812  39.284   7.827
  289POPC   C1B 8995   5.480  39.080   8.591
  289POPC   C2B 8996   5.792  39.032   8.282
  289POPC   C3B 8997   5.466  38.941   7.966
  289POPC   C4B 8998   5.479  39.010   7.539
  290POPC   NC3 8999  38.603   6.699   9.688
  290POPC   PO4 9000  38.155   6.401   9.237
  290POPC   GL1 9001  38.484   6.547   9.021
  290POPC   GL2 9002  38.628   6.838   9.152
  290POPC   C1A 9003  38.548   6.730   8.615
  290POPC   D2A 9004  38.705   6.516   8.278
  290POPC   C3A 9005  38.437   6.454   7.934
  290POPC   C4A 9006  37.981   6.507   7.868
  290POPC   C1B 9007  38.806   7.114   8.842
  290POPC   C2B 9008  38.769   7.152   8.374
  290POPC   C3B 9009  38.665   6.958   7.982
  290POPC   C4B 9010  38.268   6.934   7.743
  291POPC   NC3 9011  37.329  16.881   9.763
  291POPC   PO4 9012  37.975  16.854   9.575
  291POPC   GL1 9013  37.697  16.869   9.172
  291POPC   GL2 9014  37.310  16.794   9.149
  291POPC   C1A 9015  37.687  16.763   8.701
  291POPC   D2A 9016  37.790  16.886   8.252
  291POPC   C3A 9017  37.814  16.591   7.890
  291POPC   C4A 9018  38.094  16.640   7.533
  291POPC   C1B 9019  37.223  16.991   8.739
  291POPC   C2B 9020  37.265  16.802   8.379
  291POPC   C3B 9021  37.368  16.855   7.960
  291POPC   C4B 9022  37.613  17.144   7.731
  292POPC   NC3 9023   7.784  18.620   9.315
  292POPC   PO4 9024   7.260  18.989   9.487
  292POPC   GL1 9025   7.287  18.997   9.097
  292POPC   GL2 9026   7.628  19.065   9.087
  292POPC   C1A 9027   7.110  19.175   8.756
  292POPC   D2A 9028   7.318  19.288   8.393
  292POPC   C3A 9029   7.173  19.237   7.983
  292POPC   C4A 9030   7.206  19.299   7.553
  292POPC   C1B 9031   7.598  18.972   8.667
  292POPC   C2B 9032   7.833  19.125   8.348
  292POPC   C3B 9033   7.913  19.113   7.926
  292POPC   C4B 9034   7.930  18.676   7.819
  293POPC   NC3 9035  35.838  39.541   9.222
  293POPC   PO4 9036  35.325  39.794   9.684
  293POPC   GL1 9037  35.285  39.912   9.188
  293POPC   GL2 9038  35.444  39.701   8.935
  293POPC   C1A 9039  35.498  40.209   8.827
  293POPC   D2A 9040  35.663  40.119   8.400
  293POPC   C3A 9041  35.495  40.063   7.988
  293POPC   C4A 9042  35.194  40.259   7.735
  293POPC   C1B 9043  35.103  39.931   8.696
  293POPC   C2B 9044  35.023  40.043   8.262
  293POPC   C3B 9045  35.020  39.814   7.919
  293POPC   C4B 9046  34.855  39.828   7.481
  294POPC   NC3 9047  35.569   5.208   9.511
  294POPC   PO4 9048  36.242   4.948   9.413
  294POPC   GL1 9049  35.973   5.091   9.141
  294POPC   GL2 9050  35.982   5.428   9.253
  294POPC   C1A 9051  36.016   5.006   8.712
  294POPC   D2A 9052  36.317   4.957   8.361
  294POPC   C3A 9053  36.129   4.985   7.949
  294POPC   C4A 9054  36.101   4.785   7.534
  294POPC   C1B 9055  36.003   5.506   8.787
  294POPC   C2B 9056  36.018   5.376   8.341
  294POPC   C3B 9057  35.934   5.469   7.901
  294POPC   C4B 9058  35.868   5.658   7.485
  295POPC   NC3 9059  27.377  41.215   9.510
  295POPC   PO4 9060  27.712  41.847   9.450
  295POPC   GL1 9061  27.654  41.621   9.143
  295POPC   GL2 9062  27.286  41.631   9.183
  295POPC   C1A 9063  27.835  41.617   8.746
  295POPC   D2A 9064  28.051  41.593   8.363
  295POPC   C3A 9065  27.891  41.645   7.953
  295POPC   C4A 9066  27.714  41.593   7.537
  295POPC   C1B 9067  27.361  41.396   8.804
  295POPC   C2B 9068  27.587  41.340   8.389
  295POPC   C3B 9069  27.415  41.439   7.948
  295POPC   C4B 9070  27.243  41.402   7.499
  296POPC   NC3 9071  19.113  25.012   9.947
  296POPC   PO4 9072  19.572  25.408   9.621
  296POPC   GL1 9073  19.271  25.415   9.219
  296POPC   GL2 9074  19.030  25.136   9.209
  296POPC   C1A 9075  19.080  25.429   8.778
  296POPC   D2A 9076  19.153  25.523   8.331
  296POPC   C3A 9077  18.898  25.283   8.011
  296POPC   C4A 9078  18.921  25.309   7.563
  296POPC   C1B 9079  18.934  24.904   8.845
  296POPC   C2B 9080  19.029  25.014   8.434
  296POPC   C3B 9081  19.194  24.851   8.050
  296POPC   C4B 9082  18.990  24.808   7.674
  297POPC   NC3 9083  18.795  13.429   9.311
  297POPC   PO4 9084  19.097  12.810   9.542
  297POPC   GL1 9085  19.155  12.928   9.145
  297POPC   GL2 9086  18.805  12.952   9.102
  297POPC   C1A 9087  19.136  12.659   8.789
  297POPC   D2A 9088  18.980  12.599   8.381
  297POPC   C3A 9089  19.224  12.896   8.146
  297POPC   C4A 9090  19.295  12.909   7.709
  297POPC   C1B 9091  18.913  13.169   8.711
  297POPC   C2B 9092  18.744  13.191   8.302
  297POPC   C3B 9093  18.793  13.052   7.886
  297POPC   C4B 9094  18.852  13.329   7.555
  298POPC   NC3 9095  33.209  16.364   9.467
  298POPC   PO4 9096  32.732  15.873   9.501
  298POPC   GL1 9097  33.080  15.889   9.185
  298POPC   GL2 9098  33.137  15.537   9.067
  298POPC   C1A 9099  33.265  15.857   8.708
  298POPC   D2A 9100  33.591  15.978   8.425
  298POPC   C3A 9101  33.458  16.069   8.023
  298POPC   C4A 9102  33.290  15.809   7.723
  298POPC   C1B 9103  32.769  15.717   8.835
  298POPC   C2B 9104  32.679  15.702   8.423
  298POPC   C3B 9105  32.954  15.796   8.118
  298POPC   C4B 9106  32.789  15.958   7.777
  299POPC   NC3 9107   7.055  13.778   9.497
  299POPC   PO4 9108   7.690  13.599   9.480
  299POPC   GL1 9109   7.474  13.806   9.185
  299POPC   GL2 9110   7.721  14.061   9.143
  299POPC   C1A 9111   7.242  13.832   8.794
  299POPC   D2A 9112   7.259  13.966   8.356
  299POPC   C3A 9113   7.237  13.616   8.040
  299POPC   C4A 9114   7.462  13.515   7.669
  299POPC   C1B 9115   7.769  13.811   8.776
  299POPC   C2B 9116   7.654  13.637   8.414
  299POPC   C3B 9117   7.696  13.817   8.042
  299POPC   C4B 9118   7.874  13.845   7.624
  300POPC   NC3 9119  13.189  18.377  10.003
  300POPC   PO4 9120  12.894  18.161   9.467
  300POPC   GL1 9121  12.740  18.327   9.104
  300POPC   GL2 9122  12.401  18.504   9.116
  300POPC   C1A 9123  12.806  18.422   8.675
  300POPC   D2A 9124  12.885  18.533   8.300
  300POPC   C3A 9125  12.789  18.316   7.957
  300POPC   C4A 9126  13.016  18.374   7.608
  300POPC   C1B 9127  12.387  18.177   8.788
  300POPC   C2B 9128  12.564  18.065   8.359
  300POPC   C3B 9129  12.592  17.849   7.934
  300POPC   C4B 9130  12.638  18.038   7.511
  301POPC   NC3 9131   4.696   5.696   9.789
  301POPC   PO4 9132   4.179   5.806   9.667
  301POPC   GL1 9133   4.095   5.972   9.233
  301POPC   GL2 9134   4.084   5.661   9.052
  301POPC   C1A 9135   3.941   6.155   8.841
  301POPC   D2A 9136   4.164   6.073   8.425
  301POPC   C3A 9137   4.214   6.196   7.984
  301POPC   C4A 9138   4.400   6.101   7.581
  301POPC   C1B 9139   3.872   5.699   8.622
  301POPC   C2B 9140   3.880   5.730   8.149
  301POPC   C3B 9141   4.201   5.685   7.809
  301POPC   C4B 9142   4.111   5.727   7.352
  302POPC   NC3 9143  28.179  41.805   9.422
  302POPC   PO4 9144  28.488  41.232   9.594
  302POPC   GL1 9145  28.417  41.411   9.181
  302POPC   GL2 9146  28.087  41.286   9.094
  302POPC   C1A 9147  28.366  41.702   8.788
  302POPC   D2A 9148  28.426  41.928   8.377
  302POPC   C3A 9149  28.431  41.856   7.943
  302POPC   C4A 9150  28.214  41.726   7.563
  302POPC   C1B 9151  28.360  41.197   8.726
  302POPC   C2B 9152  28.402  41.235   8.298
  302POPC   C3B 9153  28.490  41.343   7.891
  302POPC   C4B 9154  28.872  41.220   7.732
  303POPC   NC3 9155  41.045   9.303   9.450
  303POPC   PO4 9156  40.631   8.718   9.431
  303POPC   GL1 9157  40.706   9.012   9.147
  303POPC   GL2 9158  41.045   8.889   9.111
  303POPC   C1A 9159  40.573   8.990   8.709
  303POPC   D2A 9160  40.618   8.670   8.400
  303POPC   C3A 9161  40.690   8.833   7.993
  303POPC   C4A 9162  40.456   9.192   7.845
  303POPC   C1B 9163  41.057   9.150   8.785
  303POPC   C2B 9164  41.047   8.973   8.379
  303POPC   C3B 9165  41.074   9.191   8.000
  303POPC   C4B 9166  41.120   8.975   7.635
  304POPC   NC3 9167  35.022  35.706   9.797
  304POPC   PO4 9168  35.159  35.080   9.456
  304POPC   GL1 9169  35.364  35.268   9.052
  304POPC   GL2 9170  35.648  35.525   9.082
  304POPC   C1A 9171  35.241  35.186   8.624
  304POPC   D2A 9172  35.343  35.009   8.221
  304POPC   C3A 9173  35.233  35.319   7.895
  304POPC   C4A 9174  34.933  35.658   7.906
  304POPC   C1B 9175  35.530  35.631   8.691
  304POPC   C2B 9176  35.317  35.617   8.305
  304POPC   C3B 9177  35.605  35.688   7.950
  304POPC   C4B 9178  35.588  35.583   7.520
  305POPC   NC3 9179   4.807   1.323  10.173
  305POPC   PO4 9180   5.192   1.094   9.613
  305POPC   GL1 9181   5.219   1.158   9.195
  305POPC   GL2 9182   5.511   0.949   9.179
  305POPC   C1A 9183   5.038   1.323   8.794
  305POPC   D2A 9184   4.919   1.486   8.376
  305POPC   C3A 9185   4.919   1.117   8.151
  305POPC   C4A 9186   4.971   0.952   7.733
  305POPC   C1B 9187   5.628   0.858   8.727
  305POPC   C2B 9188   5.449   1.009   8.310
  305POPC   C3B 9189   5.474   1.039   7.838
  305POPC   C4B 9190   5.421   0.780   7.437
  306POPC   NC3 9191  23.625  19.618   9.540
  306POPC   PO4 9192  23.884  20.230   9.457
  306POPC   GL1 9193  23.693  19.980   9.139
  306POPC   GL2 9194  23.941  19.774   9.108
  306POPC   C1A 9195  23.650  19.875   8.674
  306POPC   D2A 9196  23.748  19.565   8.338
  306POPC   C3A 9197  23.505  19.592   7.915
  306POPC   C4A 9198  23.363  19.862   7.593
  306POPC   C1B 9199  24.145  19.994   8.787
  306POPC   C2B 9200  24.215  19.977   8.351
  306POPC   C3B 9201  24.125  20.190   7.977
  306POPC   C4B 9202  23.838  19.993   7.727
  307POPC   NC3 9203  11.037  34.513   9.413
  307POPC   PO4 9204  10.391  34.450   9.560
  307POPC   GL1 9205  10.332  34.497   9.150
  307POPC   GL2 9206  10.644  34.625   9.086
  307POPC   C1A 9207  10.397  34.496   8.685
  307POPC   D2A 9208  10.233  34.778   8.403
  307POPC   C3A 9209  10.239  34.521   8.085
  307POPC   C4A 9210  10.332  34.525   7.697
  307POPC   C1B 9211  10.586  34.963   8.793
  307POPC   C2B 9212  10.741  34.942   8.432
  307POPC   C3B 9213  10.770  34.605   8.170
  307POPC   C4B 9214  10.843  34.636   7.728
  308POPC   NC3 9215  31.088   1.496   9.592
  308POPC   PO4 9216  30.526   1.700   9.721
  308POPC   GL1 9217  30.707   1.726   9.256
  308POPC   GL2 9218  31.089   1.730   9.119
  308POPC   C1A 9219  30.537   1.814   8.808
  308POPC   D2A 9220  30.630   1.748   8.347
  308POPC   C3A 9221  30.553   2.100   8.060
  308POPC   C4A 9222  30.742   2.268   7.705
  308POPC   C1B 9223  31.038   1.881   8.660
  308POPC   C2B 9224  31.075   1.989   8.197
  308POPC   C3B 9225  30.953   1.806   7.789
  308POPC   C4B 9226  30.918   1.941   7.336
  309POPC   NC3 9227   3.076  21.970   9.417
  309POPC   PO4 9228   3.854  21.962   9.411
  309POPC   GL1 9229   3.658  22.177   9.092
  309POPC   GL2 9230   3.315  22.281   9.056
  309POPC   C1A 9231   3.497  21.957   8.720
  309POPC   D2A 9232   3.703  22.002   8.357
  309POPC   C3A 9233   3.502  22.017   7.980
  309POPC   C4A 9234   3.661  22.210   7.637
  309POPC   C1B 9235   3.139  22.661   8.839
  309POPC   C2B 9236   2.948  22.660   8.448
  309POPC   C3B 9237   2.982  22.445   8.076
  309POPC   C4B 9238   3.156  22.310   7.718
  310POPC   NC3 9239  33.112  44.780   9.830
  310POPC   PO4 9240  32.848  44.394   9.334
  310POPC   GL1 9241  32.923  44.641   9.048
  310POPC   GL2 9242  33.265  44.712   9.207
  310POPC   C1A 9243  32.781  44.864   8.697
  310POPC   D2A 9244  33.005   0.018   8.349
  310POPC   C3A 9245  32.917  44.745   8.023
  310POPC   C4A 9246  32.598  44.756   7.771
  310POPC   C1B 9247  33.295  44.438   8.815
  310POPC   C2B 9248  33.128  44.519   8.448
  310POPC   C3B 9249  33.413  44.741   8.175
  310POPC   C4B 9250  33.308  44.956   7.788
  311POPC   NC3 9251   1.128  11.777   9.457
  311POPC   PO4 9252   1.539  12.195   9.543
  311POPC   GL1 9253   1.263  12.248   9.211
  311POPC   GL2 9254   1.363  11.931   9.049
  311POPC   C1A 9255   1.238  12.339   8.773
  311POPC   D2A 9256   1.191  12.083   8.397
  311POPC   C3A 9257   1.201  12.283   7.971
  311POPC   C4A 9258   1.048  12.345   7.575
  311POPC   C1B 9259   1.367  11.637   8.712
  311POPC   C2B 9260   1.215  11.554   8.311
  311POPC   C3B 9261   1.298  11.777   7.995
  311POPC   C4B 9262   1.196  11.844   7.610
  312POPC   NC3 9263  20.040  40.532   9.584
  312POPC   PO4 9264  19.572  41.023   9.435
  312POPC   GL1 9265  19.740  40.680   9.174
  312POPC   GL2 9266  20.041  40.875   9.194
  312POPC   C1A 9267  19.863  40.506   8.754
  312POPC   D2A 9268  19.992  40.363   8.325
  312POPC   C3A 9269  19.848  40.561   7.943
  312POPC   C4A 9270  19.780  40.765   7.540
  312POPC   C1B 9271  19.937  41.019   8.796
  312POPC   C2B 9272  19.966  40.873   8.370
  312POPC   C3B 9273  19.815  41.071   7.983
  312POPC   C4B 9274  19.970  41.231   7.621
  313POPC   NC3 9275   7.669  41.429   9.564
  313POPC   PO4 9276   7.000  41.677   9.542
  313POPC   GL1 9277   7.239  41.525   9.232
  313POPC   GL2 9278   7.493  41.780   9.226
  313POPC   C1A 9279   7.411  41.367   8.852
  313POPC   D2A 9280   7.190  41.317   8.467
  313POPC   C3A 9281   7.453  41.423   8.098
  313POPC   C4A 9282   7.347  41.455   7.677
  313POPC   C1B 9283   7.459  41.896   8.802
  313POPC   C2B 9284   7.289  41.843   8.376
  313POPC   C3B 9285   7.298  41.900   7.933
  313POPC   C4B 9286   7.656  41.919   7.648
  314POPC   NC3 9287  13.755  17.037   9.369
  314POPC   PO4 9288  13.418  16.575   9.505
  314POPC   GL1 9289  13.590  16.597   9.109
  314POPC   GL2 9290  13.947  16.508   9.186
  314POPC   C1A 9291  13.471  16.714   8.661
  314POPC   D2A 9292  13.433  16.466   8.271
  314POPC   C3A 9293  13.662  16.437   7.880
  314POPC   C4A 9294  13.551  16.762   7.596
  314POPC   C1B 9295  13.956  16.779   8.816
  314POPC   C2B 9296  13.886  16.995   8.451
  314POPC   C3B 9297  13.789  16.906   8.038
  314POPC   C4B 9298  13.953  17.100   7.653
  315POPC   NC3 9299  23.608  13.252   9.700
  315POPC   PO4 9300  24.185  13.499   9.524
  315POPC   GL1 9301  23.744  13.520   9.274
  315POPC   GL2 9302  23.378  13.304   9.257
  315POPC   C1A 9303  23.522  13.694   8.900
  315POPC   D2A 9304  23.659  13.752   8.468
  315POPC   C3A 9305  23.430  13.851   8.131
  315POPC   C4A 9306  23.427  13.622   7.795
  315POPC   C1B 9307  23.624  13.170   8.909
  315POPC   C2B 9308  23.827  13.283   8.552
  315POPC   C3B 9309  23.698  13.331   8.134
  315POPC   C4B 9310  23.963  13.246   7.813
  316POPC   NC3 9311  13.916  20.207   9.467
  316POPC   PO4 9312  14.564  20.551   9.427
  316POPC   GL1 9313  14.389  20.667   9.043
  316POPC   GL2 9314  14.114  20.407   9.008
  316POPC   C1A 9315  14.361  20.622   8.592
  316POPC   D2A 9316  14.384  20.257   8.332
  316POPC   C3A 9317  14.712  20.270   8.068
  316POPC   C4A 9318  14.660  20.716   7.929
  316POPC   C1B 9319  13.942  20.806   8.844
  316POPC   C2B 9320  14.090  21.067   8.503
  316POPC   C3B 9321  14.215  20.944   8.116
  316POPC   C4B 9322  14.120  20.738   7.720
  317POPC   NC3 9323  27.912  36.554   9.346
  317POPC   PO4 9324  28.323  36.990   9.810
  317POPC   GL1 9325  28.314  37.122   9.356
  317POPC   GL2 9326  28.291  36.815   9.099
  317POPC   C1A 9327  28.341  37.255   8.886
  317POPC   D2A 9328  28.463  36.899   8.602
  317POPC   C3A 9329  28.488  36.915   8.150
  317POPC   C4A 9330  28.458  37.018   7.702
  317POPC   C1B 9331  28.083  36.586   8.734
  317POPC   C2B 9332  28.045  36.679   8.314
  317POPC   C3B 9333  28.167  36.604   7.879
  317POPC   C4B 9334  28.129  36.481   7.424
  318POPC   NC3 9335  39.072  31.992   9.609
  318POPC   PO4 9336  39.084  32.634   9.594
  318POPC   GL1 9337  38.945  32.385   9.249
  318POPC   GL2 9338  38.798  32.076   9.175
  318POPC   C1A 9339  38.955  32.464   8.814
  318POPC   D2A 9340  38.987  32.631   8.392
  318POPC   C3A 9341  39.090  32.305   8.060
  318POPC   C4A 9342  38.842  32.205   7.713
  318POPC   C1B 9343  39.034  31.968   8.758
  318POPC   C2B 9344  39.211  31.843   8.306
  318POPC   C3B 9345  39.166  31.820   7.822
  318POPC   C4B 9346  38.982  31.905   7.338
  319POPC   NC3 9347  11.696  32.908   9.554
  319POPC   PO4 9348  11.256  33.323   9.767
  319POPC   GL1 9349  11.286  33.266   9.266
  319POPC   GL2 9350  11.462  33.035   9.093
  319POPC   C1A 9351  11.018  33.102   8.855
  319POPC   D2A 9352  11.225  33.116   8.405
  319POPC   C3A 9353  11.198  32.840   8.042
  319POPC   C4A 9354  11.004  32.859   7.657
  319POPC   C1B 9355  11.378  32.759   8.740
  319POPC   C2B 9356  11.606  32.717   8.350
  319POPC   C3B 9357  11.597  32.545   7.926
  319POPC   C4B 9358  11.478  32.708   7.518
  320POPC   NC3 9359  34.707  27.716   9.487
  320POPC   PO4 9360  34.178  27.352   9.424
  320POPC   GL1 9361  34.436  27.496   9.109
  320POPC   GL2 9362  34.455  27.173   9.013
  320POPC   C1A 9363  34.686  27.768   8.820
  320POPC   D2A 9364  34.600  27.906   8.384
  320POPC   C3A 9365  34.804  27.706   7.988
  320POPC   C4A 9366  34.622  27.698   7.576
  320POPC   C1B 9367  34.534  27.332   8.617
  320POPC   C2B 9368  34.594  27.299   8.213
  320POPC   C3B 9369  34.309  27.252   7.929
  320POPC   C4B 9370  34.314  27.296   7.503
  321POPC   NC3 9371  10.180  43.532   9.558
  321POPC   PO4 9372   9.528  43.842   9.498
  321POPC   GL1 9373   9.612  44.026   9.131
  321POPC   GL2 9374   9.972  44.042   9.225
  321POPC   C1A 9375   9.395  43.967   8.747
  321POPC   D2A 9376   9.352  43.642   8.437
  321POPC   C3A 9377   9.606  43.775   8.077
  321POPC   C4A 9378   9.728  43.679   7.671
  321POPC   C1B 9379   9.949  43.760   8.865
  321POPC   C2B 9380  10.221  43.715   8.512
  321POPC   C3B 9381  10.134  43.697   8.083
  321POPC   C4B 9382  10.176  43.975   7.776
  322POPC   NC3 9383  42.278  15.253  10.017
  322POPC   PO4 9384  42.439  14.823   9.711
  322POPC   GL1 9385  42.479  14.971   9.246
  322POPC   GL2 9386  42.252  15.262   9.142
  322POPC   C1A 9387  42.514  15.045   8.770
  322POPC   D2A 9388  42.446  15.225   8.359
  322POPC   C3A 9389  42.559  15.112   7.938
  322POPC   C4A 9390  42.616  15.222   7.497
  322POPC   C1B 9391  42.063  15.336   8.707
  322POPC   C2B 9392  42.134  15.602   8.334
  322POPC   C3B 9393  42.328  15.584   7.920
  322POPC   C4B 9394  42.145  15.406   7.555
  323POPC   NC3 9395  38.173  17.270   9.709
  323POPC   PO4 9396  38.737  17.488   9.712
  323POPC   GL1 9397  38.454  17.462   9.312
  323POPC   GL2 9398  38.224  17.177   9.192
  323POPC   C1A 9399  38.410  17.552   8.840
  323POPC   D2A 9400  38.172  17.714   8.457
  323POPC   C3A 9401  38.381  17.764   8.031
  323POPC   C4A 9402  38.453  17.445   7.726
  323POPC   C1B 9403  38.058  17.194   8.705
  323POPC   C2B 9404  38.207  17.218   8.250
  323POPC   C3B 9405  38.114  17.071   7.819
  323POPC   C4B 9406  38.315  17.085   7.383
  324POPC   NC3 9407  12.303  17.281   9.504
  324POPC   PO4 9408  11.938  17.880   9.559
  324POPC   GL1 9409  12.033  17.695   9.131
  324POPC   GL2 9410  12.109  17.346   9.042
  324POPC   C1A 9411  12.259  17.703   8.716
  324POPC   D2A 9412  12.540  17.565   8.402
  324POPC   C3A 9413  12.301  17.383   8.100
  324POPC   C4A 9414  12.098  17.546   7.754
  324POPC   C1B 9415  12.278  17.173   8.646
  324POPC   C2B 9416  12.643  17.058   8.388
  324POPC   C3B 9417  12.606  16.971   7.960
  324POPC   C4B 9418  12.268  17.053   7.666
  325POPC   NC3 9419  32.452  19.645   9.417
  325POPC   PO4 9420  31.941  20.196   9.512
  325POPC   GL1 9421  32.095  19.963   9.194
  325POPC   GL2 9422  32.413  20.072   9.110
  325POPC   C1A 9423  32.102  19.815   8.774
  325POPC   D2A 9424  32.040  19.542   8.410
  325POPC   C3A 9425  32.109  19.748   8.025
  325POPC   C4A 9426  32.379  19.696   7.698
  325POPC   C1B 9427  32.638  19.860   8.800
  325POPC   C2B 9428  32.454  19.910   8.395
  325POPC   C3B 9429  32.603  20.013   8.017
  325POPC   C4B 9430  32.579  20.160   7.613
  326POPC   NC3 9431   3.706  30.181   9.574
  326POPC   PO4 9432   3.631  29.571   9.742
  326POPC   GL1 9433   3.601  29.745   9.308
  326POPC   GL2 9434   3.897  29.826   9.131
  326POPC   C1A 9435   3.462  29.993   8.915
  326POPC   D2A 9436   3.737  29.987   8.536
  326POPC   C3A 9437   3.681  30.216   8.159
  326POPC   C4A 9438   3.770  30.161   7.735
  326POPC   C1B 9439   3.686  29.535   8.817
  326POPC   C2B 9440   3.838  29.488   8.402
  326POPC   C3B 9441   3.777  29.721   8.032
  326POPC   C4B 9442   3.372  29.902   7.891
  327POPC   NC3 9443  21.480  30.984   9.305
  327POPC   PO4 9444  20.818  30.919   9.306
  327POPC   GL1 9445  21.011  30.655   9.007
  327POPC   GL2 9446  21.319  30.496   9.119
  327POPC   C1A 9447  21.045  30.758   8.588
  327POPC   D2A 9448  20.987  30.921   8.170
  327POPC   C3A 9449  21.344  31.031   7.876
  327POPC   C4A 9450  21.511  30.884   7.463
  327POPC   C1B 9451  21.553  30.649   8.746
  327POPC   C2B 9452  21.479  30.767   8.326
  327POPC   C3B 9453  21.376  30.506   8.001
  327POPC   C4B 9454  21.705  30.240   7.854
  328POPC   NC3 9455  30.440  34.090   9.429
  328POPC   PO4 9456  31.000  33.746   9.491
  328POPC   GL1 9457  30.795  33.797   9.129
  328POPC   GL2 9458  30.987  33.459   9.010
  328POPC   C1A 9459  30.688  34.054   8.740
  328POPC   D2A 9460  30.895  33.932   8.310
  328POPC   C3A 9461  30.659  33.966   7.888
  328POPC   C4A 9462  30.299  34.126   7.656
  328POPC   C1B 9463  30.663  33.548   8.716
  328POPC   C2B 9464  30.521  33.551   8.323
  328POPC   C3B 9465  30.820  33.500   8.003
  328POPC   C4B 9466  30.719  33.546   7.566
  329POPC   NC3 9467  20.509  15.317   9.544
  329POPC   PO4 9468  20.592  14.669   9.444
  329POPC   GL1 9469  20.652  14.947   9.107
  329POPC   GL2 9470  20.331  15.106   9.078
  329POPC   C1A 9471  20.820  15.119   8.722
  329POPC   D2A 9472  20.864  15.435   8.416
  329POPC   C3A 9473  20.806  15.307   8.021
  329POPC   C4A 9474  20.953  14.953   7.832
  329POPC   C1B 9475  20.323  14.962   8.640
  329POPC   C2B 9476  20.467  14.899   8.189
  329POPC   C3B 9477  20.388  15.153   7.792
  329POPC   C4B 9478  20.380  15.519   7.478
  330POPC   NC3 9479  28.353  21.071   9.515
  330POPC   PO4 9480  28.302  21.750   9.645
  330POPC   GL1 9481  28.272  21.518   9.255
  330POPC   GL2 9482  27.955  21.617   9.261
  330POPC   C1A 9483  28.382  21.296   8.856
  330POPC   D2A 9484  28.670  21.285   8.531
  330POPC   C3A 9485  28.429  21.211   8.165
  330POPC   C4A 9486  28.469  21.290   7.765
  330POPC   C1B 9487  28.003  21.690   8.805
  330POPC   C2B 9488  27.958  21.627   8.337
  330POPC   C3B 9489  28.064  21.644   7.883
  330POPC   C4B 9490  28.091  21.676   7.394
  331POPC   NC3 9491  41.074   4.052   9.445
  331POPC   PO4 9492  41.654   4.431   9.567
  331POPC   GL1 9493  41.790   4.511   9.146
  331POPC   GL2 9494  41.457   4.422   8.983
  331POPC   C1A 9495  41.882   4.480   8.690
  331POPC   D2A 9496  41.566   4.279   8.400
  331POPC   C3A 9497  41.510   4.435   7.969
  331POPC   C4A 9498  41.602   4.133   7.635
  331POPC   C1B 9499  41.150   4.184   8.716
  331POPC   C2B 9500  41.048   4.279   8.277
  331POPC   C3B 9501  41.240   4.009   7.982
  331POPC   C4B 9502  41.206   3.813   7.612
  332POPC   NC3 9503   0.702  39.032   9.588
  332POPC   PO4 9504   0.082  39.281   9.488
  332POPC   GL1 9505   0.328  39.017   9.152
  332POPC   GL2 9506   0.670  39.120   9.100
  332POPC   C1A 9507   0.466  39.017   8.674
  332POPC   D2A 9508   0.704  39.201   8.355
  332POPC   C3A 9509   0.460  39.328   8.034
  332POPC   C4A 9510   0.451  39.073   7.730
  332POPC   C1B 9511   0.591  39.484   8.822
  332POPC   C2B 9512   0.641  39.714   8.423
  332POPC   C3B 9513   0.813  39.681   7.976
  332POPC   C4B 9514   0.744  39.457   7.566
  333POPC   NC3 9515  10.203  15.226   9.676
  333POPC   PO4 9516   9.511  15.220   9.536
  333POPC   GL1 9517   9.519  15.117   9.153
  333POPC   GL2 9518   9.287  14.838   9.192
  333POPC   C1A 9519   9.673  15.308   8.804
  333POPC   D2A 9520   9.750  15.488   8.439
  333POPC   C3A 9521   9.907  15.246   8.090
  333POPC   C4A 9522   9.940  15.270   7.652
  333POPC   C1B 9523   9.390  14.873   8.743
  333POPC   C2B 9524   9.580  14.993   8.390
  333POPC   C3B 9525   9.484  14.872   8.003
  333POPC   C4B 9526   9.444  15.108   7.647
  334POPC   NC3 9527  13.788  37.242   9.481
  334POPC   PO4 9528  13.292  36.849   9.475
  334POPC   GL1 9529  13.486  37.035   9.125
  334POPC   GL2 9530  13.851  36.922   9.092
  334POPC   C1A 9531  13.582  37.237   8.755
  334POPC   D2A 9532  13.823  37.034   8.442
  334POPC   C3A 9533  13.747  37.240   8.057
  334POPC   C4A 9534  13.490  37.125   7.729
  334POPC   C1B 9535  13.645  36.588   8.895
  334POPC   C2B 9536  13.537  36.629   8.499
  334POPC   C3B 9537  13.579  36.733   8.081
  334POPC   C4B 9538  13.304  36.533   7.841
  335POPC   NC3 9539   8.003  29.372   9.511
  335POPC   PO4 9540   8.038  28.733   9.431
  335POPC   GL1 9541   8.261  29.051   9.174
  335POPC   GL2 9542   8.160  29.363   9.044
  335POPC   C1A 9543   8.384  28.992   8.751
  335POPC   D2A 9544   8.233  28.737   8.443
  335POPC   C3A 9545   8.203  28.896   8.062
  335POPC   C4A 9546   8.136  28.907   7.700
  335POPC   C1B 9547   8.265  29.483   8.681
  335POPC   C2B 9548   8.259  29.304   8.332
  335POPC   C3B 9549   8.071  29.401   7.981
  335POPC   C4B 9550   7.925  29.374   7.591
  336POPC   NC3 9551   6.722  21.707   9.457
  336POPC   PO4 9552   6.288  21.209   9.555
  336POPC   GL1 9553   6.545  21.278   9.169
  336POPC   GL2 9554   6.910  21.272   9.161
  336POPC   C1A 9555   6.454  21.261   8.720
  336POPC   D2A 9556   6.550  21.003   8.333
  336POPC   C3A 9557   6.403  21.255   7.962
  336POPC   C4A 9558   6.471  21.635   7.690
  336POPC   C1B 9559   6.871  21.558   8.802
  336POPC   C2B 9560   6.870  21.433   8.358
  336POPC   C3B 9561   6.888  21.455   7.905
  336POPC   C4B 9562   6.950  21.528   7.465
  337POPC   NC3 9563  14.507  10.363   9.542
  337POPC   PO4 9564  14.071  10.790   9.409
  337POPC   GL1 9565  14.234  10.492   9.120
  337POPC   GL2 9566  14.513  10.693   9.108
  337POPC   C1A 9567  14.172  10.552   8.701
  337POPC   D2A 9568  14.325  10.761   8.352
  337POPC   C3A 9569  14.375  10.605   7.942
  337POPC   C4A 9570  14.662  10.689   7.621
  337POPC   C1B 9571  14.712  10.778   8.716
  337POPC   C2B 9572  14.801  10.536   8.340
  337POPC   C3B 9573  14.749  10.272   7.964
  337POPC   C4B 9574  14.821  10.207   7.516
  338POPC   NC3 9575  19.710   6.160   9.611
  338POPC   PO4 9576  20.324   6.029   9.642
  338POPC   GL1 9577  20.053   5.894   9.245
  338POPC   GL2 9578  19.691   5.875   9.183
  338POPC   C1A 9579  20.000   5.659   8.818
  338POPC   D2A 9580  19.743   5.736   8.413
  338POPC   C3A 9581  19.945   5.760   7.978
  338POPC   C4A 9582  19.821   5.946   7.533
  338POPC   C1B 9583  19.833   6.128   8.791
  338POPC   C2B 9584  20.015   6.163   8.347
  338POPC   C3B 9585  19.847   6.265   7.933
  338POPC   C4B 9586  19.708   6.462   7.553
  339POPC   NC3 9587  12.236  41.803   9.408
  339POPC   PO4 9588  11.857  41.213   9.426
  339POPC   GL1 9589  12.093  41.400   9.107
  339POPC   GL2 9590  11.919  41.722   9.002
  339POPC   C1A 9591  12.332  41.563   8.759
  339POPC   D2A 9592  12.326  41.742   8.350
  339POPC   C3A 9593  11.975  41.532   8.198
  339POPC   C4A 9594  12.037  41.237   7.905
  339POPC   C1B 9595  11.912  42.020   8.666
  339POPC   C2B 9596  11.854  42.051   8.241
  339POPC   C3B 9597  12.073  41.921   7.893
  339POPC   C4B 9598  11.899  41.867   7.471
  340POPC   NC3 9599  19.086   2.077   9.518
  340POPC   PO4 9600  19.454   1.635   9.223
  340POPC   GL1 9601  19.098   1.885   9.049
  340POPC   GL2 9602  19.126   2.279   9.074
  340POPC   C1A 9603  19.150   2.065   8.633
  340POPC   D2A 9604  19.152   2.171   8.229
  340POPC   C3A 9605  19.394   1.939   8.012
  340POPC   C4A 9606  19.371   1.757   7.615
  340POPC   C1B 9607  18.729   2.191   8.879
  340POPC   C2B 9608  18.676   2.022   8.427
  340POPC   C3B 9609  18.700   2.185   7.995
  340POPC   C4B 9610  19.005   2.104   7.691
  341POPC   NC3 9611   1.225   2.686   9.532
  341POPC   PO4 9612   1.834   2.371   9.525
  341POPC   GL1 9613   1.546   2.498   9.176
  341POPC   GL2 9614   1.431   2.854   9.107
  341POPC   C1A 9615   1.448   2.444   8.750
  341POPC   D2A 9616   1.257   2.348   8.339
  341POPC   C3A 9617   1.267   2.641   7.993
  341POPC   C4A 9618   1.039   2.466   7.638
  341POPC   C1B 9619   1.034   2.750   8.898
  341POPC   C2B 9620   0.762   2.767   8.526
  341POPC   C3B 9621   0.771   2.710   8.048
  341POPC   C4B 9622   0.963   2.962   7.704
  342POPC   NC3 9623  36.748  31.066   9.335
  342POPC   PO4 9624  36.814  30.344   9.434
  342POPC   GL1 9625  36.736  30.576   9.099
  342POPC   GL2 9626  36.484  30.386   8.955
  342POPC   C1A 9627  36.820  30.803   8.727
  342POPC   D2A 9628  37.189  30.945   8.503
  342POPC   C3A 9629  37.151  30.903   8.070
  342POPC   C4A 9630  37.135  30.861   7.639
  342POPC   C1B 9631  36.743  30.280   8.658
  342POPC   C2B 9632  36.809  30.337   8.243
  342POPC   C3B 9633  36.671  30.712   8.085
  342POPC   C4B 9634  36.606  30.803   7.656
  343POPC   NC3 9635   0.910  30.863   9.496
  343POPC   PO4 9636   1.498  30.409   9.556
  343POPC   GL1 9637   1.299  30.651   9.234
  343POPC   GL2 9638   0.988  30.483   9.156
  343POPC   C1A 9639   1.230  30.877   8.838
  343POPC   D2A 9640   1.347  30.694   8.412
  343POPC   C3A 9641   1.247  30.880   7.997
  343POPC   C4A 9642   1.371  30.698   7.610
  343POPC   C1B 9643   0.898  30.516   8.743
  343POPC   C2B 9644   0.849  30.794   8.423
  343POPC   C3B 9645   0.913  30.530   8.125
  343POPC   C4B 9646   0.925  30.495   7.707
  344POPC   NC3 9647  18.957  31.871   9.512
  344POPC   PO4 9648  18.715  31.249   9.570
  344POPC   GL1 9649  18.935  31.340   9.179
  344POPC   GL2 9650  19.216  31.557   9.214
  344POPC   C1A 9651  18.875  31.670   8.850
  344POPC   D2A 9652  18.962  31.782   8.438
  344POPC   C3A 9653  18.995  31.509   8.083
  344POPC   C4A 9654  19.163  31.158   7.846
  344POPC   C1B 9655  19.333  31.499   8.771
  344POPC   C2B 9656  19.399  31.364   8.367
  344POPC   C3B 9657  19.542  31.474   7.989
  344POPC   C4B 9658  19.271  31.620   7.672
  345POPC   NC3 9659  38.621  23.113   9.529
  345POPC   PO4 9660  38.325  22.513   9.801
  345POPC   GL1 9661  38.364  22.683   9.364
  345POPC   GL2 9662  38.239  22.382   9.248
  345POPC   C1A 9663  38.321  22.964   8.929
  345POPC   D2A 9664  38.517  23.143   8.545
  345POPC   C3A 9665  38.315  23.111   8.128
  345POPC   C4A 9666  38.370  22.986   7.677
  345POPC   C1B 9667  38.499  22.506   8.889
  345POPC   C2B 9668  38.365  22.645   8.460
  345POPC   C3B 9669  38.564  22.653   8.041
  345POPC   C4B 9670  38.925  22.575   7.765
  346POPC   NC3 9671  36.802  28.806   9.662
  346POPC   PO4 9672  36.784  28.112   9.607
  346POPC   GL1 9673  36.890  28.358   9.275
  346POPC   GL2 9674  36.903  28.099   9.039
  346POPC   C1A 9675  36.950  28.650   8.976
  346POPC   D2A 9676  36.997  28.694   8.537
  346POPC   C3A 9677  36.878  28.419   8.206
  346POPC   C4A 9678  36.921  28.511   7.785
  346POPC   C1B 9679  37.100  28.205   8.648
  346POPC   C2B 9680  37.377  28.385   8.349
  346POPC   C3B 9681  37.362  28.297   7.917
  346POPC   C4B 9682  37.301  28.276   7.441
  347POPC   NC3 9683  38.094  18.562  10.053
  347POPC   PO4 9684  38.383  18.971   9.614
  347POPC   GL1 9685  38.314  18.908   9.176
  347POPC   GL2 9686  38.642  18.867   9.001
  347POPC   C1A 9687  38.178  18.970   8.745
  347POPC   D2A 9688  38.342  19.204   8.406
  347POPC   C3A 9689  38.290  19.150   7.962
  347POPC   C4A 9690  38.558  19.270   7.611
  347POPC   C1B 9691  38.644  18.805   8.527
  347POPC   C2B 9692  38.695  18.826   8.063
  347POPC   C3B 9693  38.731  18.475   7.779
  347POPC   C4B 9694  38.682  18.487   7.290
  348POPC   NC3 9695  30.353  43.349   9.349
  348POPC   PO4 9696  30.858  42.915   9.529
  348POPC   GL1 9697  30.834  43.074   9.159
  348POPC   GL2 9698  31.086  42.844   9.069
  348POPC   C1A 9699  30.691  43.264   8.773
  348POPC   D2A 9700  30.678  43.074   8.376
  348POPC   C3A 9701  30.595  43.311   8.016
  348POPC   C4A 9702  30.326  43.100   7.740
  348POPC   C1B 9703  30.792  42.750   8.749
  348POPC   C2B 9704  30.833  42.568   8.329
  348POPC   C3B 9705  30.718  42.794   7.951
  348POPC   C4B 9706  30.790  43.007   7.566
  349POPC   NC3 9707  17.077  42.502   9.612
  349POPC   PO4 9708  17.559  41.986   9.453
  349POPC   GL1 9709  17.293  42.242   9.181
  349POPC   GL2 9710  17.387  42.591   9.203
  349POPC   C1A 9711  17.230  42.356   8.747
  349POPC   D2A 9712  17.522  42.402   8.377
  349POPC   C3A 9713  17.395  42.351   7.932
  349POPC   C4A 9714  17.357  42.466   7.492
  349POPC   C1B 9715  17.560  42.782   8.833
  349POPC   C2B 9716  17.764  42.873   8.460
  349POPC   C3B 9717  17.622  42.793   8.053
  349POPC   C4B 9718  17.828  42.743   7.640
  350POPC   NC3 9719  20.295  14.379   9.272
  350POPC   PO4 9720  19.775  14.099   9.527
  350POPC   GL1 9721  19.792  14.296   9.148
  350POPC   GL2 9722  19.771  14.620   9.208
  350POPC   C1A 9723  19.920  14.114   8.763
  350POPC   D2A 9724  19.875  14.210   8.329
  350POPC   C3A 9725  19.887  14.153   7.908
  350POPC   C4A 9726  19.527  14.272   7.693
  350POPC   C1B 9727  19.934  14.632   8.781
  350POPC   C2B 9728  19.943  14.715   8.362
  350POPC   C3B 9729  19.879  14.644   7.953
  350POPC   C4B 9730  20.180  14.699   7.699
  351POPC   NC3 9731  15.569  39.105   9.581
  351POPC   PO4 9732  14.932  39.389   9.816
  351POPC   GL1 9733  15.025  39.163   9.411
  351POPC   GL2 9734  14.763  39.233   9.174
  351POPC   C1A 9735  15.209  39.140   8.989
  351POPC   D2A 9736  15.041  39.044   8.562
  351POPC   C3A 9737  15.263  39.175   8.171
  351POPC   C4A 9738  15.338  39.178   7.712
  351POPC   C1B 9739  14.885  39.496   8.782
  351POPC   C2B 9740  14.799  39.437   8.338
  351POPC   C3B 9741  14.866  39.295   7.881
  351POPC   C4B 9742  14.928  39.424   7.460
  352POPC   NC3 9743  19.439  27.668   9.980
  352POPC   PO4 9744  18.911  27.555   9.647
  352POPC   GL1 9745  18.963  27.416   9.188
  352POPC   GL2 9746  19.329  27.378   9.116
  352POPC   C1A 9747  18.956  27.407   8.715
  352POPC   D2A 9748  19.002  27.347   8.258
  352POPC   C3A 9749  18.794  27.580   7.918
  352POPC   C4A 9750  18.791  27.995   7.695
  352POPC   C1B 9751  19.403  27.655   8.747
  352POPC   C2B 9752  19.434  27.640   8.297
  352POPC   C3B 9753  19.310  27.589   7.876
  352POPC   C4B 9754  19.435  27.319   7.539
  353POPC   NC3 9755   7.572  40.495   9.773
  353POPC   PO4 9756   8.323  40.537   9.712
  353POPC   GL1 9757   8.283  40.451   9.204
  353POPC   GL2 9758   8.384  40.792   9.100
  353POPC   C1A 9759   8.241  40.456   8.723
  353POPC   D2A 9760   7.929  40.691   8.447
  353POPC   C3A 9761   7.962  40.934   8.041
  353POPC   C4A 9762   7.921  40.669   7.672
  353POPC   C1B 9763   8.245  40.993   8.726
  353POPC   C2B 9764   8.420  40.822   8.350
  353POPC   C3B 9765   8.357  40.622   7.946
  353POPC   C4B 9766   8.345  40.891   7.545
  354POPC   NC3 9767  28.182   4.862   9.380
  354POPC   PO4 9768  28.418   5.419   9.548
  354POPC   GL1 9769  28.425   5.380   9.118
  354POPC   GL2 9770  28.107   5.511   9.078
  354POPC   C1A 9771  28.532   5.048   8.810
  354POPC   D2A 9772  28.714   4.835   8.452
  354POPC   C3A 9773  28.648   5.026   8.016
  354POPC   C4A 9774  28.531   4.999   7.567
  354POPC   C1B 9775  28.060   5.218   8.731
  354POPC   C2B 9776  28.269   5.117   8.347
  354POPC   C3B 9777  28.148   5.089   7.905
  354POPC   C4B 9778  28.004   4.926   7.492
  355POPC   NC3 9779  11.730   2.630   9.454
  355POPC   PO4 9780  12.322   3.022   9.425
  355POPC   GL1 9781  12.113   2.740   9.122
  355POPC   GL2 9782  11.767   2.869   9.012
  355POPC   C1A 9783  12.274   2.471   8.791
  355POPC   D2A 9784  12.090   2.333   8.405
  355POPC   C3A 9785  11.879   2.622   8.140
  355POPC   C4A 9786  11.802   2.609   7.753
  355POPC   C1B 9787  11.906   2.764   8.623
  355POPC   C2B 9788  12.295   2.817   8.385
  355POPC   C3B 9789  12.243   2.981   8.004
  355POPC   C4B 9790  11.835   3.125   7.911
  356POPC   NC3 9791  28.718  43.924   9.327
  356POPC   PO4 9792  29.054  43.406   9.499
  356POPC   GL1 9793  29.109  43.473   9.087
  356POPC   GL2 9794  29.453  43.593   9.025
  356POPC   C1A 9795  28.965  43.722   8.719
  356POPC   D2A 9796  28.884  43.918   8.300
  356POPC   C3A 9797  28.997  43.807   7.868
  356POPC   C4A 9798  29.054  44.125   7.482
  356POPC   C1B 9799  29.352  43.396   8.647
  356POPC   C2B 9800  29.198  43.502   8.264
  356POPC   C3B 9801  29.407  43.484   7.878
  356POPC   C4B 9802  29.431  43.814   7.604
  357POPC   NC3 9803   4.862  15.688   9.639
  357POPC   PO4 9804   5.247  16.236   9.518
  357POPC   GL1 9805   5.139  15.889   9.221
  357POPC   GL2 9806   4.842  16.051   9.208
  357POPC   C1A 9807   4.907  15.754   8.804
  357POPC   D2A 9808   4.850  15.928   8.406
  357POPC   C3A 9809   5.210  15.817   8.203
  357POPC   C4A 9810   5.333  15.832   7.801
  357POPC   C1B 9811   5.094  16.245   8.844
  357POPC   C2B 9812   5.218  16.308   8.397
  357POPC   C3B 9813   5.010  16.214   7.970
  357POPC   C4B 9814   4.721  16.349   7.640
  358POPC   NC3 9815  44.290  25.378   9.759
  358POPC   PO4 9816  44.096  24.848   9.544
  358POPC   GL1 9817  44.118  25.042   9.102
  358POPC   GL2 9818  44.111  25.390   9.186
  358POPC   C1A 9819  43.989  25.045   8.611
  358POPC   D2A 9820  43.798  25.265   8.233
  358POPC   C3A 9821  43.867  25.182   7.781
  358POPC   C4A 9822  43.674  25.121   7.371
  358POPC   C1B 9823  43.952  25.539   8.770
  358POPC   C2B 9824  43.852  25.767   8.359
  358POPC   C3B 9825  43.858  25.678   7.906
  358POPC   C4B 9826  43.594  25.709   7.519
  359POPC   NC3 9827   6.413  29.816   9.551
  359POPC   PO4 9828   5.774  29.976   9.501
  359POPC   GL1 9829   6.057  30.025   9.162
  359POPC   GL2 9830   5.987  29.696   9.114
  359POPC   C1A 9831   5.856  30.107   8.757
  359POPC   D2A 9832   5.642  30.128   8.374
  359POPC   C3A 9833   5.889  30.237   8.000
  359POPC   C4A 9834   5.693  30.152   7.590
  359POPC   C1B 9835   5.562  29.711   8.861
  359POPC   C2B 9836   5.393  29.682   8.400
  359POPC   C3B 9837   5.512  29.834   7.961
  359POPC   C4B 9838   5.943  29.776   7.787
  360POPC   NC3 9839   0.210  32.297   9.421
  360POPC   PO4 9840   0.698  31.902   9.499
  360POPC   GL1 9841   0.570  32.070   9.098
  360POPC   GL2 9842   0.265  31.925   9.041
  360POPC   C1A 9843   0.364  32.355   8.772
  360POPC   D2A 9844   0.134  32.395   8.390
  360POPC   C3A 9845   0.383  32.478   8.020
  360POPC   C4A 9846   0.587  32.440   7.595
  360POPC   C1B 9847   0.430  31.846   8.626
  360POPC   C2B 9848   0.337  31.956   8.200
  360POPC   C3B 9849   0.106  32.087   7.846
  360POPC   C4B 9850   0.308  32.028   7.459
  361POPC   NC3 9851  16.224  33.083   9.516
  361POPC   PO4 9852  15.587  33.346   9.639
  361POPC   GL1 9853  15.877  33.382   9.266
  361POPC   GL2 9854  15.954  33.062   9.095
  361POPC   C1A 9855  15.925  33.468   8.789
  361POPC   D2A 9856  15.835  33.260   8.367
  361POPC   C3A 9857  16.070  33.257   7.969
  361POPC   C4A 9858  15.985  33.188   7.513
  361POPC   C1B 9859  16.177  32.998   8.692
  361POPC   C2B 9860  16.118  32.836   8.269
  361POPC   C3B 9861  15.966  32.760   7.862
  361POPC   C4B 9862  16.084  32.690   7.457
  362POPC   NC3 9863  19.472  41.593   9.419
  362POPC   PO4 9864  20.089  41.690   9.502
  362POPC   GL1 9865  19.985  41.827   9.101
  362POPC   GL2 9866  19.664  41.683   8.949
  362POPC   C1A 9867  20.093  41.653   8.699
  362POPC   D2A 9868  19.960  41.394   8.362
  362POPC   C3A 9869  20.082  41.592   7.953
  362POPC   C4A 9870  20.032  41.743   7.512
  362POPC   C1B 9871  19.303  41.684   8.620
  362POPC   C2B 9872  19.232  41.381   8.328
  362POPC   C3B 9873  19.548  41.534   8.052
  362POPC   C4B 9874  19.583  41.556   7.636
  363POPC   NC3 9875   5.623   9.052   9.894
  363POPC   PO4 9876   6.127   9.031   9.520
  363POPC   GL1 9877   5.925   9.074   9.094
  363POPC   GL2 9878   5.574   9.204   9.125
  363POPC   C1A 9879   6.063   8.999   8.676
  363POPC   D2A 9880   6.250   8.992   8.289
  363POPC   C3A 9881   6.025   8.817   7.933
  363POPC   C4A 9882   5.978   9.006   7.503
  363POPC   C1B 9883   5.642   9.331   8.681
  363POPC   C2B 9884   5.753   9.201   8.255
  363POPC   C3B 9885   5.581   9.070   7.821
  363POPC   C4B 9886   5.545   9.234   7.388
  364POPC   NC3 9887   9.913  33.053   9.391
  364POPC   PO4 9888   9.347  33.456   9.201
  364POPC   GL1 9889   9.713  33.293   8.981
  364POPC   GL2 9890  10.093  33.270   8.957
  364POPC   C1A 9891   9.665  33.016   8.656
  364POPC   D2A 9892   9.465  33.044   8.277
  364POPC   C3A 9893   9.746  33.214   7.999
  364POPC   C4A 9894   9.633  33.019   7.661
  364POPC   C1B 9895  10.108  32.786   8.794
  364POPC   C2B 9896   9.854  32.574   8.472
  364POPC   C3B 9897   9.843  32.694   8.050
  364POPC   C4B 9898  10.120  32.819   7.715
  365POPC   NC3 9899  37.843  16.406   9.505
  365POPC   PO4 9900  37.781  15.747   9.562
  365POPC   GL1 9901  37.699  15.936   9.139
  365POPC   GL2 9902  37.347  15.931   8.993
  365POPC   C1A 9903  37.824  16.052   8.715
  365POPC   D2A 9904  37.984  16.178   8.293
  365POPC   C3A 9905  37.812  16.004   7.910
  365POPC   C4A 9906  37.852  16.204   7.499
  365POPC   C1B 9907  37.386  16.311   8.717
  365POPC   C2B 9908  37.512  16.387   8.272
  365POPC   C3B 9909  37.362  16.289   7.862
  365POPC   C4B 9910  37.292  15.861   7.757
  366POPC   NC3 9911  16.896  36.544   9.379
  366POPC   PO4 9912  16.613  35.949   9.363
  366POPC   GL1 9913  16.600  36.278   9.040
  366POPC   GL2 9914  16.949  36.415   8.902
  366POPC   C1A 9915  16.579  36.258   8.604
  366POPC   D2A 9916  16.789  36.107   8.253
  366POPC   C3A 9917  16.384  36.046   8.104
  366POPC   C4A 9918  16.206  36.061   7.742
  366POPC   C1B 9919  17.010  35.974   8.760
  366POPC   C2B 9920  17.076  35.674   8.406
  366POPC   C3B 9921  17.108  35.798   7.953
  366POPC   C4B 9922  16.748  36.002   7.713
  367POPC   NC3 9923  22.533  44.707   9.609
  367POPC   PO4 9924  21.878  44.781   9.719
  367POPC   GL1 9925  22.010  44.674   9.281
  367POPC   GL2 9926  22.312  44.867   9.152
  367POPC   C1A 9927  21.998  44.627   8.818
  367POPC   D2A 9928  22.005  44.534   8.377
  367POPC   C3A 9929  21.713  44.613   8.086
  367POPC   C4A 9930  21.923  44.699   7.694
  367POPC   C1B 9931  22.497  44.760   8.762
  367POPC   C2B 9932  22.518  44.556   8.361
  367POPC   C3B 9933  22.436  44.617   7.930
  367POPC   C4B 9934  22.451   0.023   7.721
  368POPC   NC3 9935  36.184  43.816   9.613
  368POPC   PO4 9936  36.579  44.194   9.191
  368POPC   GL1 9937  36.187  44.010   9.100
  368POPC   GL2 9938  36.278  43.664   9.118
  368POPC   C1A 9939  36.029  43.988   8.663
  368POPC   D2A 9940  36.100  43.831   8.240
  368POPC   C3A 9941  36.220  44.128   7.903
  368POPC   C4A 9942  36.310  44.101   7.464
  368POPC   C1B 9943  36.033  43.490   8.777
  368POPC   C2B 9944  35.842  43.395   8.381
  368POPC   C3B 9945  35.815  43.502   7.945
  368POPC   C4B 9946  36.212  43.587   7.773
  369POPC   NC3 9947   6.115  39.421   9.314
  369POPC   PO4 9948   6.693  39.340   9.667
  369POPC   GL1 9949   6.594  39.171   9.252
  369POPC   GL2 9950   6.299  38.968   9.157
  369POPC   C1A 9951   6.712  39.115   8.818
  369POPC   D2A 9952   6.627  38.928   8.418
  369POPC   C3A 9953   6.781  39.159   8.070
  369POPC   C4A 9954   6.704  39.365   7.634
  369POPC   C1B 9955   6.190  39.017   8.730
  369POPC   C2B 9956   6.276  39.286   8.377
  369POPC   C3B 9957   6.288  39.182   7.951
  369POPC   C4B 9958   6.225  39.132   7.523
  370POPC   NC3 9959  12.298  33.633   9.514
  370POPC   PO4 9960  12.927  34.018   9.330
  370POPC   GL1 9961  12.747  33.876   8.997
  370POPC   GL2 9962  12.592  33.595   9.108
  370POPC   C1A 9963  12.956  33.718   8.648
  370POPC   D2A 9964  13.071  33.909   8.277
  370POPC   C3A 9965  12.722  33.853   8.023
  370POPC   C4A 9966  12.741  33.871   7.599
  370POPC   C1B 9967  12.611  33.358   8.725
  370POPC   C2B 9968  12.840  33.257   8.363
  370POPC   C3B 9969  12.848  33.360   7.963
  370POPC   C4B 9970  12.505  33.452   7.740
  371POPC   NC3 9971  37.513  41.479   9.506
  371POPC   PO4 9972  37.228  42.038   9.222
  371POPC   GL1 9973  37.428  41.667   9.026
  371POPC   GL2 9974  37.718  41.405   9.003
  371POPC   C1A 9975  37.464  41.589   8.607
  371POPC   D2A 9976  37.589  41.775   8.286
  371POPC   C3A 9977  37.610  41.463   8.003
  371POPC   C4A 9978  37.570  41.433   7.590
  371POPC   C1B 9979  37.945  41.738   8.693
  371POPC   C2B 9980  38.114  41.815   8.221
  371POPC   C3B 9981  38.068  41.596   7.778
  371POPC   C4B 9982  37.924  41.739   7.373
  372POPC   NC3 9983  18.735  37.348   9.199
  372POPC   PO4 9984  18.271  36.952   9.572
  372POPC   GL1 9985  18.114  36.933   9.170
  372POPC   GL2 9986  18.237  37.241   9.101
  372POPC   C1A 9987  18.280  36.825   8.749
  372POPC   D2A 9988  18.243  36.619   8.338
  372POPC   C3A 9989  18.223  36.723   7.874
  372POPC   C4A 9990  18.103  36.513   7.478
  372POPC   C1B 9991  18.297  37.317   8.664
  372POPC   C2B 9992  18.073  37.096   8.358
  372POPC   C3B 9993  17.962  37.179   7.973
  372POPC   C4B 9994  18.329  37.230   7.741
  373POPC   NC3 9995  43.694  11.359   9.590
  373POPC   PO4 9996  44.201  10.960   9.511
  373POPC   GL1 9997  44.080  11.268   9.175
  373POPC   GL2 9998  43.786  11.482   9.131
  373POPC   C1A 9999  43.889  11.143   8.780
  373POPC   D2A10000  43.921  11.322   8.432
  373POPC   C3A10001  44.196  11.346   8.097
  373POPC   C4A10002  43.964  11.361   7.733
  373POPC   C1B10003  43.536  11.504   8.780
  373POPC   C2B10004  43.607  11.706   8.406
  373POPC   C3B10005  43.605  11.490   8.058
  373POPC   C4B10006  43.549  11.713   7.699
  374POPC   NC310007   7.267  40.459   9.283
  374POPC   PO410008   7.593  40.966   9.607
  374POPC   GL110009   7.574  40.861   9.162
  374POPC   GL210010   7.876  40.711   8.977
  374POPC   C1A10011   7.448  40.841   8.733
  374POPC   D2A10012   7.526  40.974   8.344
  374POPC   C3A10013   7.245  40.967   8.018
  374POPC   C4A10014   7.512  40.962   7.715
  374POPC   C1B10015   7.702  40.346   8.741
  374POPC   C2B10016   7.431  40.406   8.428
  374POPC   C3B10017   7.597  40.553   8.066
  374POPC   C4B10018   7.494  40.410   7.710
  375POPC   NC310019  11.169  13.774   9.702
  375POPC   PO410020  11.761  13.886   9.605
  375POPC   GL110021  11.435  13.782   9.247
  375POPC   GL210022  11.049  13.702   9.180
  375POPC   C1A10023  11.490  13.815   8.792
  375POPC   D2A10024  11.359  13.606   8.430
  375POPC   C3A10025  11.404  13.709   8.002
  375POPC   C4A10026  11.354  13.340   7.758
  375POPC   C1B10027  10.910  13.714   8.724
  375POPC   C2B10028  10.898  13.690   8.245
  375POPC   C3B10029  10.928  13.668   7.771
  375POPC   C4B10030  10.807  13.760   7.319
  376POPC   NC310031  10.901  38.615   9.482
  376POPC   PO410032  11.383  38.178   9.349
  376POPC   GL110033  11.386  38.446   9.052
  376POPC   GL210034  11.694  38.643   8.993
  376POPC   C1A10035  11.131  38.557   8.724
  376POPC   D2A10036  11.324  38.525   8.337
  376POPC   C3A10037  11.203  38.642   7.903
  376POPC   C4A10038  11.001  38.403   7.506
  376POPC   C1B10039  11.792  38.235   8.790
  376POPC   C2B10040  11.688  38.090   8.373
  376POPC   C3B10041  11.598  38.288   7.983
  376POPC   C4B10042  11.503  38.403   7.578
  377POPC   NC310043  28.927  15.389   9.529
  377POPC   PO410044  29.354  14.896   9.586
  377POPC   GL110045  29.132  14.986   9.210
  377POPC   GL210046  29.342  14.681   9.106
  377POPC   C1A10047  28.997  15.290   8.828
  377POPC   D2A10048  29.168  15.444   8.406
  377POPC   C3A10049  28.944  15.345   8.011
  377POPC   C4A10050  28.823  15.319   7.588
  377POPC   C1B10051  29.426  14.987   8.793
  377POPC   C2B10052  29.484  15.035   8.409
  377POPC   C3B10053  29.371  15.073   8.031
  377POPC   C4B10054  29.280  15.131   7.641
  378POPC   NC310055  38.314  44.129   9.481
  378POPC   PO410056  38.957  44.003   9.653
  378POPC   GL110057  38.702  43.805   9.285
  378POPC   GL210058  38.582  44.058   9.042
  378POPC   C1A10059  38.484  43.598   8.882
  378POPC   D2A10060  38.296  43.765   8.482
  378POPC   C3A10061  38.487  43.748   8.069
  378POPC   C4A10062  38.489  43.524   7.681
  378POPC   C1B10063  38.197  44.143   8.803
  378POPC   C2B10064  38.025  44.334   8.422
  378POPC   C3B10065  38.097  44.333   7.970
  378POPC   C4B10066  38.450  44.196   7.730
  379POPC   NC310067  21.299   0.810   9.369
  379POPC   PO410068  21.618   0.234   9.381
  379POPC   GL110069  21.422   0.344   9.001
  379POPC   GL210070  21.140   0.541   8.969
  379POPC   C1A10071  21.446   0.403   8.555
  379POPC   D2A10072  21.755   0.295   8.255
  379POPC   C3A10073  21.628   0.493   7.913
  379POPC   C4A10074  21.176   0.351   7.976
  379POPC   C1B10075  21.281   0.918   8.740
  379POPC   C2B10076  21.284   1.110   8.368
  379POPC   C3B10077  21.259   0.852   7.995
  379POPC   C4B10078  21.342   0.654   7.538
  380POPC   NC310079  44.256  42.959   9.730
  380POPC   PO410080  43.630  43.287   9.709
  380POPC   GL110081  43.857  43.178   9.286
  380POPC   GL210082  43.779  43.482   9.119
  380POPC   C1A10083  43.990  42.919   8.866
  380POPC   D2A10084  43.771  42.831   8.436
  380POPC   C3A10085  43.996  42.872   8.046
  380POPC   C4A10086  43.952  43.066   7.612
  380POPC   C1B10087  44.083  43.423   8.834
  380POPC   C2B10088  44.153  43.205   8.446
  380POPC   C3B10089  44.079  43.360   8.018
  380POPC   C4B10090  44.050  43.580   7.638
  381POPC   NC310091  33.514  36.558   9.700
  381POPC   PO410092  33.749  35.891   9.485
  381POPC   GL110093  33.757  35.843   9.082
  381POPC   GL210094  33.790  36.207   9.041
  381POPC   C1A10095  33.913  35.879   8.681
  381POPC   D2A10096  33.782  36.043   8.280
  381POPC   C3A10097  33.909  35.836   7.962
  381POPC   C4A10098  33.716  35.735   7.582
  381POPC   C1B10099  33.585  36.318   8.644
  381POPC   C2B10100  33.427  36.396   8.232
  381POPC   C3B10101  33.418  36.225   7.825
  381POPC   C4B10102  33.260  36.453   7.464
  382POPC   NC310103  20.404  33.656   9.599
  382POPC   PO410104  20.245  34.252   9.401
  382POPC   GL110105  20.455  33.880   9.143
  382POPC   GL210106  20.756  33.794   9.261
  382POPC   C1A10107  20.345  33.742   8.742
  382POPC   D2A10108  20.309  33.860   8.343
  382POPC   C3A10109  20.430  33.600   8.034
  382POPC   C4A10110  20.559  33.748   7.651
  382POPC   C1B10111  20.898  33.858   8.849
  382POPC   C2B10112  20.802  33.787   8.462
  382POPC   C3B10113  20.832  33.932   8.073
  382POPC   C4B10114  20.955  34.058   7.649
  383POPC   NC310115  19.560  15.133   9.432
  383POPC   PO410116  20.069  15.490   9.528
  383POPC   GL110117  19.903  15.410   9.141
  383POPC   GL210118  19.811  15.077   8.985
  383POPC   C1A10119  19.983  15.487   8.744
  383POPC   D2A10120  19.895  15.213   8.461
  383POPC   C3A10121  19.814  15.397   8.094
  383POPC   C4A10122  19.956  15.431   7.725
  383POPC   C1B10123  19.520  14.914   8.633
  383POPC   C2B10124  19.556  14.962   8.160
  383POPC   C3B10125  19.635  15.019   7.703
  383POPC   C4B10126  19.538  15.074   7.251
  384POPC   NC310127   6.230  23.503   9.556
  384POPC   PO410128   6.947  23.822   9.492
  384POPC   GL110129   6.819  23.822   9.030
  384POPC   GL210130   6.725  24.087   8.908
  384POPC   C1A10131   6.513  23.663   8.721
  384POPC   D2A10132   6.441  23.441   8.374
  384POPC   C3A10133   6.326  23.597   7.986
  384POPC   C4A10134   6.552  23.636   7.634
  384POPC   C1B10135   6.463  24.126   8.529
  384POPC   C2B10136   6.287  24.067   8.158
  384POPC   C3B10137   6.587  24.100   7.827
  384POPC   C4B10138   6.701  24.064   7.388
  385POPC   NC310139  30.276  23.084   9.329
  385POPC   PO410140  30.802  22.767   9.601
  385POPC   GL110141  30.771  22.904   9.145
  385POPC   GL210142  30.796  22.578   9.015
  385POPC   C1A10143  30.815  23.171   8.744
  385POPC   D2A10144  30.940  23.347   8.282
  385POPC   C3A10145  30.814  23.116   7.870
  385POPC   C4A10146  30.944  23.026   7.391
  385POPC   C1B10147  30.644  22.691   8.617
  385POPC   C2B10148  30.534  23.030   8.339
  385POPC   C3B10149  30.312  23.201   8.006
  385POPC   C4B10150  30.329  23.013   7.635
  386POPC   NC310151  37.764  24.481   9.611
  386POPC   PO410152  37.471  23.909   9.481
  386POPC   GL110153  37.507  24.255   9.168
  386POPC   GL210154  37.694  24.557   9.116
  386POPC   C1A10155  37.313  24.314   8.772
  386POPC   D2A10156  37.223  24.399   8.358
  386POPC   C3A10157  37.478  24.727   8.211
  386POPC   C4A10158  37.932  24.838   8.122
  386POPC   C1B10159  37.843  24.296   8.770
  386POPC   C2B10160  37.756  24.310   8.332
  386POPC   C3B10161  38.020  24.350   7.971
  386POPC   C4B10162  38.272  24.330   7.587
  387POPC   NC310163  29.736  15.643   9.507
  387POPC   PO410164  29.842  16.288   9.703
  387POPC   GL110165  29.757  16.161   9.293
  387POPC   GL210166  30.086  16.017   9.296
  387POPC   C1A10167  29.763  16.050   8.830
  387POPC   D2A10168  29.981  15.963   8.412
  387POPC   C3A10169  29.790  16.238   8.070
  387POPC   C4A10170  29.468  16.152   7.737
  387POPC   C1B10171  30.149  15.750   8.948
  387POPC   C2B10172  30.244  15.529   8.613
  387POPC   C3B10173  30.223  15.495   8.154
  387POPC   C4B10174  30.010  15.810   7.893
  388POPC   NC310175  42.504   9.903   9.541
  388POPC   PO410176  42.227   9.339   9.448
  388POPC   GL110177  42.054   9.444   9.107
  388POPC   GL210178  42.108   9.778   9.212
  388POPC   C1A10179  42.236   9.465   8.723
  388POPC   D2A10180  42.044   9.513   8.354
  388POPC   C3A10181  42.347   9.555   8.065
  388POPC   C4A10182  42.360   9.701   7.666
  388POPC   C1B10183  42.153   9.961   8.810
  388POPC   C2B10184  42.420   9.887   8.449
  388POPC   C3B10185  42.641   9.968   8.074
  388POPC   C4B10186  42.514  10.188   7.720
  389POPC   NC310187  41.081   7.621   9.491
  389POPC   PO410188  40.549   7.149   9.530
  389POPC   GL110189  40.582   7.418   9.168
  389POPC   GL210190  40.589   7.755   9.296
  389POPC   C1A10191  40.891   7.475   8.853
  389POPC   D2A10192  41.181   7.672   8.525
  389POPC   C3A10193  41.113   7.464   8.124
  389POPC   C4A10194  40.888   7.327   7.728
  389POPC   C1B10195  40.532   7.884   8.881
  389POPC   C2B10196  40.684   7.769   8.491
  389POPC   C3B10197  40.883   7.949   8.163
  389POPC   C4B10198  40.677   7.873   7.820
  390POPC   NC310199  36.937  31.856   9.431
  390POPC   PO410200  37.185  31.248   9.326
  390POPC   GL110201  37.029  31.275   8.958
  390POPC   GL210202  36.799  31.514   9.058
  390POPC   C1A10203  36.822  31.296   8.589
  390POPC   D2A10204  36.968  31.364   8.221
  390POPC   C3A10205  36.701  31.205   7.954
  390POPC   C4A10206  36.801  31.269   7.545
  390POPC   C1B10207  36.515  31.656   8.742
  390POPC   C2B10208  36.628  31.719   8.305
  390POPC   C3B10209  36.726  31.696   7.850
  390POPC   C4B10210  36.470  31.641   7.448
  391POPC   NC310211   5.886  22.782   9.487
  391POPC   PO410212   5.696  23.502   9.451
  391POPC   GL110213   5.694  23.155   9.183
  391POPC   GL210214   6.020  23.054   9.071
  391POPC   C1A10215   5.583  22.957   8.803
  391POPC   D2A10216   5.501  22.770   8.426
  391POPC   C3A10217   5.733  22.906   8.090
  391POPC   C4A10218   5.649  23.103   7.688
  391POPC   C1B10219   6.110  23.126   8.620
  391POPC   C2B10220   6.246  23.023   8.169
  391POPC   C3B10221   6.140  22.942   7.740
  391POPC   C4B10222   6.048  22.956   7.307
  392POPC   NC310223  30.759  39.086   9.610
  392POPC   PO410224  30.118  39.022   9.450
  392POPC   GL110225  30.451  39.247   9.183
  392POPC   GL210226  30.706  39.000   9.115
  392POPC   C1A10227  30.716  39.365   8.784
  392POPC   D2A10228  30.793  39.126   8.391
  392POPC   C3A10229  30.911  39.383   8.043
  392POPC   C4A10230  30.814  39.393   7.606
  392POPC   C1B10231  30.406  38.941   8.761
  392POPC   C2B10232  30.271  39.039   8.339
  392POPC   C3B10233  30.500  39.025   7.946
  392POPC   C4B10234  30.433  39.088   7.466
  393POPC   NC310235   5.516  32.055   9.554
  393POPC   PO410236   5.994  32.581   9.511
  393POPC   GL110237   5.745  32.391   9.222
  393POPC   GL210238   5.860  32.071   9.158
  393POPC   C1A10239   5.478  32.383   8.869
  393POPC   D2A10240   5.429  32.202   8.464
  393POPC   C3A10241   5.693  32.389   8.145
  393POPC   C4A10242   5.653  32.285   7.710
  393POPC   C1B10243   5.994  32.303   8.781
  393POPC   C2B10244   6.184  32.382   8.375
  393POPC   C3B10245   6.108  32.116   8.024
  393POPC   C4B10246   6.147  32.132   7.626
  394POPC   NC310247  12.162  14.123   9.448
  394POPC   PO410248  11.813  14.735   9.515
  394POPC   GL110249  11.983  14.528   9.171
  394POPC   GL210250  12.363  14.560   9.195
  394POPC   C1A10251  11.852  14.256   8.825
  394POPC   D2A10252  11.621  14.329   8.436
  394POPC   C3A10253  11.815  14.246   8.027
  394POPC   C4A10254  11.854  14.432   7.614
  394POPC   C1B10255  12.262  14.672   8.767
  394POPC   C2B10256  12.401  14.612   8.338
  394POPC   C3B10257  12.269  14.529   7.923
  394POPC   C4B10258  12.288  14.696   7.515
  395POPC   NC310259  33.031  39.196   9.668
  395POPC   PO410260  32.913  39.642   9.232
  395POPC   GL110261  32.965  39.218   9.146
  395POPC   GL210262  33.195  38.968   9.204
  395POPC   C1A10263  32.858  39.078   8.746
  395POPC   D2A10264  32.862  39.365   8.402
  395POPC   C3A10265  32.985  39.180   8.016
  395POPC   C4A10266  33.059  39.442   7.697
  395POPC   C1B10267  33.366  39.146   8.825
  395POPC   C2B10268  33.311  39.095   8.416
  395POPC   C3B10269  33.454  38.917   8.044
  395POPC   C4B10270  33.406  39.072   7.644
  396POPC   NC310271  11.125  32.125   9.470
  396POPC   PO410272  11.305  32.698   9.426
  396POPC   GL110273  11.399  32.383   9.118
  396POPC   GL210274  11.574  32.041   9.216
  396POPC   C1A10275  11.102  32.321   8.795
  396POPC   D2A10276  10.991  32.592   8.442
  396POPC   C3A10277  10.965  32.344   8.083
  396POPC   C4A10278  11.115  32.376   7.684
  396POPC   C1B10279  11.573  32.036   8.755
  396POPC   C2B10280  11.396  32.249   8.377
  396POPC   C3B10281  11.404  32.076   7.965
  396POPC   C4B10282  11.766  31.970   7.757
  397POPC   NC310283  43.933   1.665   9.635
  397POPC   PO410284  43.682   2.216   9.470
  397POPC   GL110285  43.811   1.928   9.163
  397POPC   GL210286  44.173   1.853   9.230
  397POPC   C1A10287  43.674   1.982   8.718
  397POPC   D2A10288  43.446   1.930   8.322
  397POPC   C3A10289  43.678   2.086   8.013
  397POPC   C4A10290  44.031   2.258   7.851
  397POPC   C1B10291  44.143   1.696   8.815
  397POPC   C2B10292  44.109   1.949   8.441
  397POPC   C3B10293  44.141   1.790   8.065
  397POPC   C4B10294  44.067   1.734   7.682
  398POPC   NC310295  38.104  38.307   9.719
  398POPC   PO410296  38.553  38.625   9.597
  398POPC   GL110297  38.297  38.593   9.187
  398POPC   GL210298  38.001  38.369   9.209
  398POPC   C1A10299  38.432  38.596   8.706
  398POPC   D2A10300  38.608  38.587   8.238
  398POPC   C3A10301  38.541  38.578   7.744
  398POPC   C4A10302  38.739  38.755   7.355
  398POPC   C1B10303  37.931  38.532   8.767
  398POPC   C2B10304  38.079  38.578   8.324
  398POPC   C3B10305  38.261  38.256   8.040
  398POPC   C4B10306  38.226  38.178   7.594
  399POPC   NC310307  44.849  35.261   9.652
  399POPC   PO410308   0.068  35.754   9.408
  399POPC   GL110309  44.854  35.451   9.093
  399POPC   GL210310  44.475  35.337   9.051
  399POPC   C1A10311  44.779  35.398   8.619
  399POPC   D2A10312  44.509  35.553   8.259
  399POPC   C3A10313  44.641  35.565   7.819
  399POPC   C4A10314  44.454  35.726   7.425
  399POPC   C1B10315  44.314  35.187   8.614
  399POPC   C2B10316  44.540  35.047   8.220
  399POPC   C3B10317  44.560  35.056   7.760
  399POPC   C4B10318  44.368  35.060   7.304
  400POPC   NC310319   7.809  42.868   9.503
  400POPC   PO410320   7.227  43.214   9.660
  400POPC   GL110321   7.523  43.316   9.284
  400POPC   GL210322   7.272  43.400   9.080
  400POPC   C1A10323   7.694  43.274   8.856
  400POPC   D2A10324   7.660  43.102   8.477
  400POPC   C3A10325   7.703  43.310   8.113
  400POPC   C4A10326   7.576  43.158   7.718
  400POPC   C1B10327   7.165  43.076   8.782
  400POPC   C2B10328   7.230  42.826   8.390
  400POPC   C3B10329   7.202  42.846   7.920
  400POPC   C4B10330   7.078  43.138   7.573
  401POPC   NC310331   2.209   2.560   9.723
  401POPC   PO410332   2.361   2.975   9.205
  401POPC   GL110333   1.967   2.839   9.163
  401POPC   GL210334   2.048   2.515   9.088
  401POPC   C1A10335   1.785   2.845   8.756
  401POPC   D2A10336   1.614   2.732   8.362
  401POPC   C3A10337   1.679   2.978   7.994
  401POPC   C4A10338   1.898   2.880   7.618
  401POPC   C1B10339   2.245   2.625   8.680
  401POPC   C2B10340   2.141   2.795   8.302
  401POPC   C3B10341   1.965   2.548   8.011
  401POPC   C4B10342   2.014   2.381   7.631
  402POPC   NC310343  31.764  29.309   9.581
  402POPC   PO410344  31.462  28.692   9.489
  402POPC   GL110345  31.565  28.990   9.176
  402POPC   GL210346  31.323  29.274   9.235
  402POPC   C1A10347  31.666  29.177   8.777
  402POPC   D2A10348  31.727  29.357   8.348
  402POPC   C3A10349  31.579  29.079   7.997
  402POPC   C4A10350  31.378  29.024   7.591
  402POPC   C1B10351  31.173  29.238   8.816
  402POPC   C2B10352  31.278  29.090   8.418
  402POPC   C3B10353  31.073  29.028   8.030
  402POPC   C4B10354  31.057  29.368   7.744
  403POPC   NC310355  24.236  35.888   9.664
  403POPC   PO410356  24.895  35.985   9.548
  403POPC   GL110357  24.623  36.122   9.193
  403POPC   GL210358  24.399  35.869   9.092
  403POPC   C1A10359  24.513  36.235   8.743
  403POPC   D2A10360  24.559  36.063   8.306
  403POPC   C3A10361  24.412  36.038   7.865
  403POPC   C4A10362  24.345  36.180   7.433
  403POPC   C1B10363  24.709  35.754   8.708
  403POPC   C2B10364  24.939  35.755   8.263
  403POPC   C3B10365  24.695  35.591   7.883
  403POPC   C4B10366  24.501  35.703   7.451
  404POPC   NC310367  38.052  39.915   9.412
  404POPC   PO410368  37.464  40.268   9.526
  404POPC   GL110369  37.558  40.033   9.160
  404POPC   GL210370  37.821  40.193   9.034
  404POPC   C1A10371  37.627  39.773   8.772
  404POPC   D2A10372  37.425  39.621   8.356
  404POPC   C3A10373  37.671  39.645   7.972
  404POPC   C4A10374  37.599  39.884   7.597
  404POPC   C1B10375  37.568  40.247   8.660
  404POPC   C2B10376  37.565  40.097   8.244
  404POPC   C3B10377  37.903  40.130   7.974
  404POPC   C4B10378  37.970  40.266   7.538
  405POPC   NC310379  40.133   7.312   9.420
  405POPC   PO410380  39.986   7.955   9.411
  405POPC   GL110381  40.046   7.686   9.085
  405POPC   GL210382  39.731   7.542   9.203
  405POPC   C1A10383  40.245   7.510   8.702
  405POPC   D2A10384  40.211   7.695   8.298
  405POPC   C3A10385  40.331   7.510   7.911
  405POPC   C4A10386  40.154   7.324   7.560
  405POPC   C1B10387  39.814   7.283   8.836
  405POPC   C2B10388  39.669   7.185   8.434
  405POPC   C3B10389  39.853   7.372   8.077
  405POPC   C4B10390  39.808   7.644   7.711
  406POPC   NC310391  10.061  42.227   9.381
  406POPC   PO410392   9.474  42.322   9.619
  406POPC   GL110393   9.569  42.372   9.176
  406POPC   GL210394   9.739  42.073   8.997
  406POPC   C1A10395   9.420  42.403   8.744
  406POPC   D2A10396   9.674  42.317   8.374
  406POPC   C3A10397   9.514  42.335   7.962
  406POPC   C4A10398   9.707  42.124   7.631
  406POPC   C1B10399   9.920  42.487   8.806
  406POPC   C2B10400   9.756  42.810   8.519
  406POPC   C3B10401   9.750  42.793   8.052
  406POPC   C4B10402   9.837  42.622   7.622
  407POPC   NC310403  27.035   7.881   9.501
  407POPC   PO410404  26.728   7.419   9.812
  407POPC   GL110405  26.850   7.428   9.309
  407POPC   GL210406  26.760   7.703   9.118
  407POPC   C1A10407  26.867   7.278   8.856
  407POPC   D2A10408  27.014   7.388   8.423
  407POPC   C3A10409  26.803   7.166   8.084
  407POPC   C4A10410  26.834   7.303   7.683
  407POPC   C1B10411  26.953   7.809   8.724
  407POPC   C2B10412  27.083   7.908   8.303
  407POPC   C3B10413  26.835   7.698   8.011
  407POPC   C4B10414  26.423   7.560   7.860
  408POPC   NC310415  27.277  34.768  10.026
  408POPC   PO410416  27.644  34.511   9.519
  408POPC   GL110417  27.709  34.560   9.087
  408POPC   GL210418  27.805  34.902   8.967
  408POPC   C1A10419  27.636  34.482   8.652
  408POPC   D2A10420  27.580  34.638   8.225
  408POPC   C3A10421  27.451  34.381   7.932
  408POPC   C4A10422  27.243  34.323   7.547
  408POPC   C1B10423  27.620  34.988   8.637
  408POPC   C2B10424  27.424  35.122   8.315
  408POPC   C3B10425  27.342  34.964   7.906
  408POPC   C4B10426  27.604  34.763   7.620
  409POPC   NC310427  32.973  12.420   9.547
  409POPC   PO410428  32.899  11.909   9.409
  409POPC   GL110429  32.879  12.238   9.080
  409POPC   GL210430  32.637  12.518   9.141
  409POPC   C1A10431  33.121  12.340   8.718
  409POPC   D2A10432  32.995  12.419   8.307
  409POPC   C3A10433  33.117  12.169   7.931
  409POPC   C4A10434  33.446  12.053   7.600
  409POPC   C1B10435  32.597  12.426   8.666
  409POPC   C2B10436  32.504  12.444   8.178
  409POPC   C3B10437  32.635  12.334   7.745
  409POPC   C4B10438  32.479  12.344   7.283
  410POPC   NC310439   4.069  38.104   9.513
  410POPC   PO410440   3.401  37.947   9.555
  410POPC   GL110441   3.502  37.640   9.176
  410POPC   GL210442   3.801  37.791   9.156
  410POPC   C1A10443   3.645  37.448   8.709
  410POPC   D2A10444   3.787  37.594   8.276
  410POPC   C3A10445   3.680  37.375   7.909
  410POPC   C4A10446   3.597  37.375   7.463
  410POPC   C1B10447   3.667  37.945   8.766
  410POPC   C2B10448   3.394  37.835   8.465
  410POPC   C3B10449   3.432  37.906   8.036
  410POPC   C4B10450   3.313  37.713   7.701
  411POPC   NC310451  33.279  34.772   9.470
  411POPC   PO410452  32.899  35.364   9.503
  411POPC   GL110453  33.139  35.202   9.201
  411POPC   GL210454  32.945  34.910   9.115
  411POPC   C1A10455  33.091  35.412   8.820
  411POPC   D2A10456  33.226  35.373   8.409
  411POPC   C3A10457  32.985  35.474   8.052
  411POPC   C4A10458  32.939  35.629   7.627
  411POPC   C1B10459  33.243  34.922   8.782
  411POPC   C2B10460  33.115  34.865   8.391
  411POPC   C3B10461  33.209  35.003   8.000
  411POPC   C4B10462  32.894  35.095   7.715
  412POPC   NC310463   6.418  20.758   9.540
  412POPC   PO410464   7.109  20.645   9.469
  412POPC   GL110465   6.789  20.779   9.198
  412POPC   GL210466   6.523  20.524   9.100
  412POPC   C1A10467   6.759  20.855   8.794
  412POPC   D2A10468   6.620  20.512   8.543
  412POPC   C3A10469   6.834  20.509   8.155
  412POPC   C4A10470   6.687  20.801   7.878
  412POPC   C1B10471   6.220  20.305   8.848
  412POPC   C2B10472   6.190  20.132   8.474
  412POPC   C3B10473   6.203  20.207   8.072
  412POPC   C4B10474   6.475  20.355   7.790
  413POPC   NC310475  11.708  40.782   9.520
  413POPC   PO410476  12.374  40.601   9.510
  413POPC   GL110477  12.063  40.680   9.185
  413POPC   GL210478  11.779  40.388   9.191
  413POPC   C1A10479  12.110  40.917   8.809
  413POPC   D2A10480  12.259  40.656   8.456
  413POPC   C3A10481  12.156  40.762   8.047
  413POPC   C4A10482  12.254  40.610   7.664
  413POPC   C1B10483  11.657  40.640   8.842
  413POPC   C2B10484  11.748  40.786   8.457
  413POPC   C3B10485  11.758  40.470   8.175
  413POPC   C4B10486  11.728  40.419   7.757
  414POPC   NC310487  30.664  22.301   9.673
  414POPC   PO410488  30.362  22.630   9.272
  414POPC   GL110489  30.461  22.197   9.163
  414POPC   GL210490  30.811  22.063   9.205
  414POPC   C1A10491  30.441  22.190   8.716
  414POPC   D2A10492  30.229  22.461   8.417
  414POPC   C3A10493  30.508  22.557   8.089
  414POPC   C4A10494  30.328  22.345   7.747
  414POPC   C1B10495  30.874  21.908   8.757
  414POPC   C2B10496  30.594  21.810   8.375
  414POPC   C3B10497  30.633  22.011   7.970
  414POPC   C4B10498  31.003  22.284   7.841
  415POPC   NC310499   8.717  15.621   9.408
  415POPC   PO410500   9.263  16.033   9.489
  415POPC   GL110501   9.018  15.947   9.132
  415POPC   GL210502   8.816  16.222   8.983
  415POPC   C1A10503   9.029  15.883   8.685
  415POPC   D2A10504   9.017  16.191   8.363
  415POPC   C3A10505   9.129  16.015   7.947
  415POPC   C4A10506   8.786  15.857   7.703
  415POPC   C1B10507   8.536  16.356   8.694
  415POPC   C2B10508   8.496  16.257   8.269
  415POPC   C3B10509   8.721  16.326   7.891
  415POPC   C4B10510   8.553  16.281   7.434
  416POPC   NC310511  23.660  43.538   9.494
  416POPC   PO410512  23.898  44.183   9.563
  416POPC   GL110513  23.882  43.898   9.204
  416POPC   GL210514  23.516  43.964   9.147
  416POPC   C1A10515  23.737  43.642   8.846
  416POPC   D2A10516  23.900  43.568   8.443
  416POPC   C3A10517  23.910  43.915   8.191
  416POPC   C4A10518  23.931  43.734   7.808
  416POPC   C1B10519  23.290  43.920   8.781
  416POPC   C2B10520  23.384  43.594   8.461
  416POPC   C3B10521  23.497  43.657   8.058
  416POPC   C4B10522  23.493  43.992   7.769
  417POPC   NC310523  28.028   9.114   9.589
  417POPC   PO410524  27.324   8.961   9.593
  417POPC   GL110525  27.516   9.063   9.207
  417POPC   GL210526  27.264   9.274   9.005
  417POPC   C1A10527  27.734   8.854   8.891
  417POPC   D2A10528  27.743   8.987   8.474
  417POPC   C3A10529  27.797   8.756   8.104
  417POPC   C4A10530  27.657   9.016   7.765
  417POPC   C1B10531  27.216   8.851   8.805
  417POPC   C2B10532  27.326   8.692   8.397
  417POPC   C3B10533  27.270   8.974   8.077
  417POPC   C4B10534  27.147   8.923   7.631
  418POPC   NC310535  39.805  13.135   9.535
  418POPC   PO410536  40.312  12.759   9.545
  418POPC   GL110537  40.069  12.712   9.156
  418POPC   GL210538  39.957  13.049   9.071
  418POPC   C1A10539  39.879  12.701   8.722
  418POPC   D2A10540  39.797  12.529   8.315
  418POPC   C3A10541  39.716  12.750   7.938
  418POPC   C4A10542  40.171  12.765   7.913
  418POPC   C1B10543  40.111  13.148   8.670
  418POPC   C2B10544  39.930  13.056   8.288
  418POPC   C3B10545  40.007  13.246   7.874
  418POPC   C4B10546  39.866  13.026   7.498
  419POPC   NC310547   6.240  26.439   9.651
  419POPC   PO410548   5.680  26.850   9.587
  419POPC   GL110549   5.659  26.884   9.174
  419POPC   GL210550   5.958  27.117   9.217
  419POPC   C1A10551   5.668  26.547   8.835
  419POPC   D2A10552   5.812  26.543   8.402
  419POPC   C3A10553   5.587  26.397   8.025
  419POPC   C4A10554   5.754  26.652   7.671
  419POPC   C1B10555   6.099  26.887   8.865
  419POPC   C2B10556   6.256  26.825   8.446
  419POPC   C3B10557   6.009  26.936   8.065
  419POPC   C4B10558   6.024  27.194   7.679
  420POPC   NC310559  42.054  40.628   9.550
  420POPC   PO410560  42.695  40.653   9.432
  420POPC   GL110561  42.353  40.625   9.113
  420POPC   GL210562  42.160  40.921   9.129
  420POPC   C1A10563  42.276  40.648   8.653
  420POPC   D2A10564  42.558  40.426   8.340
  420POPC   C3A10565  42.579  40.583   7.909
  420POPC   C4A10566  42.278  40.515   7.547
  420POPC   C1B10567  42.547  41.044   8.892
  420POPC   C2B10568  42.678  40.951   8.476
  420POPC   C3B10569  42.589  41.111   8.068
  420POPC   C4B10570  42.267  40.978   7.778
  421POPC   NC310571   4.814  25.092   9.601
  421POPC   PO410572   5.439  25.344   9.522
  421POPC   GL110573   5.167  25.487   9.220
  421POPC   GL210574   5.075  25.126   9.168
  421POPC   C1A10575   5.263  25.578   8.772
  421POPC   D2A10576   4.939  25.588   8.442
  421POPC   C3A10577   4.773  25.515   8.041
  421POPC   C4A10578   4.958  25.604   7.653
  421POPC   C1B10579   4.941  25.174   8.748
  421POPC   C2B10580   5.057  25.103   8.297
  421POPC   C3B10581   5.084  25.150   7.855
  421POPC   C4B10582   5.284  25.010   7.487
  422POPC   NC310583   6.153  38.428   9.417
  422POPC   PO410584   5.477  38.369   9.504
  422POPC   GL110585   5.736  38.414   9.149
  422POPC   GL210586   5.828  38.757   9.186
  422POPC   C1A10587   5.968  38.202   8.792
  422POPC   D2A10588   5.869  38.163   8.352
  422POPC   C3A10589   6.115  38.264   7.977
  422POPC   C4A10590   6.012  38.318   7.505
  422POPC   C1B10591   5.773  38.691   8.730
  422POPC   C2B10592   5.551  38.582   8.351
  422POPC   C3B10593   5.676  38.483   7.924
  422POPC   C4B10594   5.940  38.775   7.726
  423POPC   NC310595  22.620  10.071   9.457
  423POPC   PO410596  23.189  10.372   9.377
  423POPC   GL110597  22.869  10.391   9.072
  423POPC   GL210598  22.697  10.735   8.964
  423POPC   C1A10599  22.714  10.344   8.650
  423POPC   D2A10600  22.733  10.607   8.310
  423POPC   C3A10601  22.738  10.343   7.956
  423POPC   C4A10602  23.112  10.484   7.838
  423POPC   C1B10603  23.100  10.690   8.718
  423POPC   C2B10604  23.300  10.739   8.317
  423POPC   C3B10605  23.038  10.939   8.009
  423POPC   C4B10606  22.693  10.852   7.751
  424POPC   NC310607  33.469  36.559   9.201
  424POPC   PO410608  34.069  36.802   9.435
  424POPC   GL110609  33.943  37.172   9.161
  424POPC   GL210610  33.600  37.054   9.018
  424POPC   C1A10611  33.971  37.284   8.705
  424POPC   D2A10612  33.852  37.068   8.309
  424POPC   C3A10613  33.664  37.270   7.959
  424POPC   C4A10614  34.008  37.086   7.752
  424POPC   C1B10615  33.864  36.761   8.738
  424POPC   C2B10616  33.942  36.536   8.328
  424POPC   C3B10617  33.848  36.583   7.864
  424POPC   C4B10618  33.927  36.663   7.397
  425POPC   NC310619  22.991  27.831   9.556
  425POPC   PO410620  22.927  28.426   9.521
  425POPC   GL110621  22.948  28.209   9.127
  425POPC   GL210622  22.644  28.117   9.124
  425POPC   C1A10623  22.962  28.268   8.642
  425POPC   D2A10624  23.010  28.548   8.255
  425POPC   C3A10625  22.983  28.460   7.791
  425POPC   C4A10626  23.221  28.283   7.414
  425POPC   C1B10627  22.507  28.066   8.685
  425POPC   C2B10628  22.585  28.081   8.222
  425POPC   C3B10629  22.865  27.962   7.854
  425POPC   C4B10630  22.883  27.888   7.388
  426POPC   NC310631  38.830  14.499   9.401
  426POPC   PO410632  39.278  14.058   9.536
  426POPC   GL110633  39.163  14.200   9.159
  426POPC   GL210634  38.970  13.952   9.076
  426POPC   C1A10635  39.131  14.450   8.800
  426POPC   D2A10636  39.189  14.284   8.414
  426POPC   C3A10637  39.384  14.453   8.062
  426POPC   C4A10638  39.446  14.129   7.793
  426POPC   C1B10639  38.711  14.152   8.743
  426POPC   C2B10640  38.687  14.325   8.336
  426POPC   C3B10641  38.917  14.229   7.985
  426POPC   C4B10642  39.024  14.524   7.687
  427POPC   NC310643  20.596  24.944   9.430
  427POPC   PO410644  20.955  25.461   9.241
  427POPC   GL110645  20.539  25.318   9.070
  427POPC   GL210646  20.349  25.006   9.009
  427POPC   C1A10647  20.534  25.438   8.657
  427POPC   D2A10648  20.847  25.486   8.368
  427POPC   C3A10649  20.715  25.366   7.979
  427POPC   C4A10650  20.346  25.464   7.821
  427POPC   C1B10651  20.328  24.977   8.581
  427POPC   C2B10652  20.296  24.865   8.137
  427POPC   C3B10653  20.428  24.974   7.752
  427POPC   C4B10654  20.803  25.065   7.531
  428POPC   NC310655  12.401   3.482   9.415
  428POPC   PO410656  11.782   3.795   9.499
  428POPC   GL110657  11.928   3.653   9.110
  428POPC   GL210658  11.980   3.305   9.155
  428POPC   C1A10659  12.014   3.540   8.686
  428POPC   D2A10660  11.936   3.240   8.408
  428POPC   C3A10661  11.737   3.529   8.207
  428POPC   C4A10662  11.837   3.710   7.804
  428POPC   C1B10663  12.218   3.110   8.806
  428POPC   C2B10664  12.437   3.312   8.465
  428POPC   C3B10665  12.248   3.509   8.093
  428POPC   C4B10666  12.203   3.375   7.672
  429POPC   NC310667  11.151  37.786   9.385
  429POPC   PO410668  11.396  37.222   9.431
  429POPC   GL110669  11.496  37.496   9.133
  429POPC   GL210670  11.604  37.840   9.058
  429POPC   C1A10671  11.368  37.511   8.739
  429POPC   D2A10672  11.052  37.620   8.489
  429POPC   C3A10673  11.264  37.530   8.115
  429POPC   C4A10674  11.140  37.519   7.701
  429POPC   C1B10675  11.301  38.035   8.706
  429POPC   C2B10676  11.193  38.036   8.233
  429POPC   C3B10677  11.207  38.017   7.782
  429POPC   C4B10678  11.436  37.943   7.364
  430POPC   NC310679  24.552  16.566   9.425
  430POPC   PO410680  24.418  17.198   9.493
  430POPC   GL110681  24.334  17.130   9.046
  430POPC   GL210682  24.294  16.762   9.012
  430POPC   C1A10683  24.368  17.010   8.576
  430POPC   D2A10684  24.461  16.775   8.228
  430POPC   C3A10685  24.421  16.929   7.844
  430POPC   C4A10686  24.474  16.620   7.524
  430POPC   C1B10687  24.280  16.502   8.611
  430POPC   C2B10688  24.190  16.290   8.201
  430POPC   C3B10689  24.088  16.484   7.822
  430POPC   C4B10690  23.970  16.436   7.385
  431POPC   NC310691  13.031  12.200   9.469
  431POPC   PO410692  12.385  12.497   9.195
  431POPC   GL110693  12.511  12.092   9.045
  431POPC   GL210694  12.858  12.041   9.033
  431POPC   C1A10695  12.611  12.097   8.590
  431POPC   D2A10696  12.711  12.402   8.237
  431POPC   C3A10697  12.909  12.147   7.924
  431POPC   C4A10698  12.790  11.734   7.825
  431POPC   C1B10699  13.051  11.825   8.729
  431POPC   C2B10700  13.051  11.635   8.332
  431POPC   C3B10701  13.270  11.677   7.943
  431POPC   C4B10702  13.290  11.927   7.572
  432POPC   NC310703   9.487   0.674   9.531
  432POPC   PO410704   8.743   0.480   9.562
  432POPC   GL110705   8.861   0.426   9.167
  432POPC   GL210706   9.145   0.619   9.135
  432POPC   C1A10707   8.774   0.505   8.753
  432POPC   D2A10708   8.880   0.502   8.286
  432POPC   C3A10709   8.844   0.525   7.823
  432POPC   C4A10710   8.847   0.598   7.347
  432POPC   C1B10711   9.353   0.617   8.727
  432POPC   C2B10712   9.375   0.515   8.303
  432POPC   C3B10713   9.348   0.625   7.890
  432POPC   C4B10714   9.266   0.388   7.535
  433POPC   NC310715  12.918  43.699   9.444
  433POPC   PO410716  13.044  44.301   9.742
  433POPC   GL110717  13.070  44.162   9.262
  433POPC   GL210718  12.750  44.066   9.136
  433POPC   C1A10719  13.107  43.923   8.829
  433POPC   D2A10720  13.038  44.056   8.398
  433POPC   C3A10721  13.101  43.846   8.022
  433POPC   C4A10722  12.982  43.845   7.604
  433POPC   C1B10723  12.591  43.837   8.784
  433POPC   C2B10724  12.462  43.993   8.391
  433POPC   C3B10725  12.597  43.916   7.984
  433POPC   C4B10726  12.485  43.594   7.718
  434POPC   NC310727  36.494  37.406   9.611
  434POPC   PO410728  37.081  37.793   9.509
  434POPC   GL110729  36.825  37.589   9.207
  434POPC   GL210730  36.521  37.723   9.167
  434POPC   C1A10731  36.906  37.490   8.767
  434POPC   D2A10732  37.170  37.449   8.372
  434POPC   C3A10733  36.982  37.401   7.953
  434POPC   C4A10734  36.808  37.821   7.794
  434POPC   C1B10735  36.538  37.863   8.749
  434POPC   C2B10736  36.686  37.678   8.347
  434POPC   C3B10737  36.479  37.458   8.027
  434POPC   C4B10738  36.336  37.645   7.663
  435POPC   NC310739   5.714  25.670   9.296
  435POPC   PO410740   6.037  25.213   9.665
  435POPC   GL110741   5.877  25.145   9.228
  435POPC   GL210742   5.568  25.214   9.056
  435POPC   C1A10743   5.965  25.113   8.766
  435POPC   D2A10744   5.889  25.036   8.329
  435POPC   C3A10745   5.942  25.365   8.022
  435POPC   C4A10746   5.724  25.164   7.731
  435POPC   C1B10747   5.455  25.110   8.633
  435POPC   C2B10748   5.457  25.400   8.262
  435POPC   C3B10749   5.436  25.553   7.845
  435POPC   C4B10750   5.763  25.627   7.541
  436POPC   NC310751   1.580   1.784   9.779
  436POPC   PO410752   1.203   2.206   9.457
  436POPC   GL110753   1.262   2.061   9.077
  436POPC   GL210754   0.994   1.897   9.016
  436POPC   C1A10755   1.393   1.938   8.667
  436POPC   D2A10756   1.380   1.687   8.311
  436POPC   C3A10757   1.265   1.967   7.975
  436POPC   C4A10758   1.548   2.266   7.795
  436POPC   C1B10759   0.947   2.272   8.741
  436POPC   C2B10760   0.730   2.302   8.341
  436POPC   C3B10761   0.775   2.135   7.945
  436POPC   C4B10762   0.778   2.057   7.492
  437POPC   NC310763  31.382  31.194   9.459
  437POPC   PO410764  31.842  31.683   9.559
  437POPC   GL110765  31.697  31.726   9.165
  437POPC   GL210766  31.750  31.390   9.049
  437POPC   C1A10767  31.577  31.781   8.741
  437POPC   D2A10768  31.489  31.511   8.402
  437POPC   C3A10769  31.326  31.696   8.044
  437POPC   C4A10770  31.527  32.030   7.871
  437POPC   C1B10771  31.826  31.112   8.671
  437POPC   C2B10772  31.660  31.035   8.254
  437POPC   C3B10773  31.229  31.183   8.112
  437POPC   C4B10774  31.254  31.306   7.723
  438POPC   NC310775   4.406  11.470   9.805
  438POPC   PO410776   4.248  12.148   9.523
  438POPC   GL110777   4.462  12.324   9.167
  438POPC   GL210778   4.380  12.022   9.021
  438POPC   C1A10779   4.377  12.376   8.706
  438POPC   D2A10780   4.248  12.464   8.319
  438POPC   C3A10781   4.458  12.207   8.045
  438POPC   C4A10782   4.303  12.225   7.647
  438POPC   C1B10783   4.124  11.811   8.760
  438POPC   C2B10784   4.311  11.891   8.421
  438POPC   C3B10785   4.395  11.681   8.093
  438POPC   C4B10786   4.223  11.734   7.744
  439POPC   NC310787  32.216  37.870   9.532
  439POPC   PO410788  32.197  37.331   9.251
  439POPC   GL110789  32.307  37.683   9.067
  439POPC   GL210790  32.621  37.689   9.198
  439POPC   C1A10791  32.269  37.676   8.669
  439POPC   D2A10792  32.260  37.542   8.298
  439POPC   C3A10793  32.049  37.788   8.005
  439POPC   C4A10794  32.165  37.702   7.627
  439POPC   C1B10795  32.738  37.873   8.803
  439POPC   C2B10796  32.570  37.969   8.387
  439POPC   C3B10797  32.536  37.856   7.962
  439POPC   C4B10798  32.630  37.972   7.536
  440POPC   NC310799  42.332  43.502   9.464
  440POPC   PO410800  42.062  44.066   9.728
  440POPC   GL110801  42.198  43.988   9.283
  440POPC   GL210802  41.991  43.712   9.110
  440POPC   C1A10803  42.373  44.024   8.837
  440POPC   D2A10804  42.254  43.918   8.381
  440POPC   C3A10805  42.612  43.976   8.088
  440POPC   C4A10806  42.760  43.748   7.706
  440POPC   C1B10807  41.876  44.021   8.737
  440POPC   C2B10808  41.858  44.234   8.267
  440POPC   C3B10809  42.090  44.072   7.883
  440POPC   C4B10810  42.286  43.670   7.844
  441POPC   NC310811  38.482  41.649   9.331
  441POPC   PO410812  38.573  42.224   9.743
  441POPC   GL110813  38.486  42.194   9.284
  441POPC   GL210814  38.767  42.115   9.124
  441POPC   C1A10815  38.242  42.263   8.861
  441POPC   D2A10816  38.256  42.595   8.496
  441POPC   C3A10817  38.076  42.484   8.059
  441POPC   C4A10818  38.200  42.124   7.780
  441POPC   C1B10819  38.723  42.393   8.811
  441POPC   C2B10820  38.758  42.498   8.388
  441POPC   C3B10821  38.573  42.447   7.996
  441POPC   C4B10822  38.687  42.200   7.640
  442POPC   NC310823  28.161  14.747   9.572
  442POPC   PO410824  28.642  14.227   9.566
  442POPC   GL110825  28.510  14.149   9.187
  442POPC   GL210826  28.263  14.402   9.205
  442POPC   C1A10827  28.536  14.379   8.778
  442POPC   D2A10828  28.742  14.502   8.403
  442POPC   C3A10829  28.629  14.385   8.000
  442POPC   C4A10830  28.492  14.518   7.624
  442POPC   C1B10831  28.075  14.653   8.870
  442POPC   C2B10832  28.243  14.649   8.454
  442POPC   C3B10833  28.172  14.654   8.019
  442POPC   C4B10834  28.001  14.733   7.608
  443POPC   NC310835  43.634   6.461   9.556
  443POPC   PO410836  44.371   6.749   9.597
  443POPC   GL110837  44.125   6.782   9.239
  443POPC   GL210838  43.752   6.772   9.154
  443POPC   C1A10839  44.157   6.745   8.825
  443POPC   D2A10840  43.818   6.627   8.540
  443POPC   C3A10841  43.848   6.712   8.101
  443POPC   C4A10842  44.199   6.688   7.795
  443POPC   C1B10843  43.517   6.960   8.786
  443POPC   C2B10844  43.606   7.123   8.358
  443POPC   C3B10845  43.453   7.041   7.932
  443POPC   C4B10846  43.602   6.697   7.658
  444POPC   NC310847   6.897  30.540   9.424
  444POPC   PO410848   6.289  30.825   9.619
  444POPC   GL110849   6.498  30.702   9.189
  444POPC   GL210850   6.852  30.934   9.110
  444POPC   C1A10851   6.706  30.596   8.770
  444POPC   D2A10852   6.395  30.785   8.495
  444POPC   C3A10853   6.523  30.891   8.102
  444POPC   C4A10854   6.758  30.746   7.757
  444POPC   C1B10855   6.988  31.008   8.648
  444POPC   C2B10856   7.047  30.794   8.224
  444POPC   C3B10857   7.211  30.539   7.859
  444POPC   C4B10858   6.953  30.358   7.488
  445POPC   NC310859  28.851  36.221   9.430
  445POPC   PO410860  29.569  36.088   9.482
  445POPC   GL110861  29.417  36.167   9.076
  445POPC   GL210862  29.122  36.350   9.002
  445POPC   C1A10863  29.429  35.947   8.667
  445POPC   D2A10864  29.167  35.763   8.322
  445POPC   C3A10865  29.243  35.951   7.947
  445POPC   C4A10866  29.288  36.402   7.796
  445POPC   C1B10867  28.940  35.985   8.805
  445POPC   C2B10868  28.690  35.932   8.462
  445POPC   C3B10869  28.739  35.785   8.033
  445POPC   C4B10870  28.831  36.028   7.673
  446POPC   NC310871  26.791  20.834   9.627
  446POPC   PO410872  27.170  20.266   9.582
  446POPC   GL110873  26.859  20.445   9.260
  446POPC   GL210874  26.952  20.790   9.144
  446POPC   C1A10875  26.736  20.442   8.797
  446POPC   D2A10876  26.909  20.216   8.417
  446POPC   C3A10877  26.777  20.217   7.982
  446POPC   C4A10878  26.695  20.373   7.532
  446POPC   C1B10879  27.023  20.872   8.715
  446POPC   C2B10880  26.785  20.740   8.348
  446POPC   C3B10881  26.791  20.710   7.901
  446POPC   C4B10882  27.078  20.785   7.559
  447POPC   NC310883  35.982   4.519   9.330
  447POPC   PO410884  36.105   3.996   9.687
  447POPC   GL110885  36.142   3.977   9.167
  447POPC   GL210886  36.469   4.045   9.079
  447POPC   C1A10887  36.042   4.179   8.727
  447POPC   D2A10888  36.007   4.551   8.447
  447POPC   C3A10889  36.003   4.485   7.984
  447POPC   C4A10890  35.797   4.232   7.656
  447POPC   C1B10891  36.561   4.297   8.711
  447POPC   C2B10892  36.395   4.255   8.293
  447POPC   C3B10893  36.382   4.124   7.875
  447POPC   C4B10894  36.271   4.322   7.486
  448POPC   NC310895  41.871   1.812   9.636
  448POPC   PO410896  41.272   2.119   9.535
  448POPC   GL110897  41.515   2.016   9.163
  448POPC   GL210898  41.190   1.938   9.065
  448POPC   C1A10899  41.774   2.012   8.760
  448POPC   D2A10900  42.050   2.033   8.437
  448POPC   C3A10901  41.955   1.779   8.087
  448POPC   C4A10902  41.866   2.007   7.712
  448POPC   C1B10903  41.294   1.899   8.686
  448POPC   C2B10904  41.509   1.746   8.361
  448POPC   C3B10905  41.403   1.851   7.959
  448POPC   C4B10906  41.387   1.854   7.507
  449POPC   NC310907  10.766  15.342   9.803
  449POPC   PO410908  10.424  14.945   9.386
  449POPC   GL110909  10.362  15.070   9.009
  449POPC   GL210910  10.083  15.272   9.100
  449POPC   C1A10911  10.658  15.147   8.648
  449POPC   D2A10912  10.733  15.187   8.217
  449POPC   C3A10913  10.404  15.113   7.930
  449POPC   C4A10914  10.640  15.047   7.574
  449POPC   C1B10915  10.180  15.317   8.617
  449POPC   C2B10916  10.314  15.563   8.249
  449POPC   C3B10917  10.305  15.606   7.789
  449POPC   C4B10918  10.336  15.405   7.333
  450POPC   NC310919  13.434  32.056   9.678
  450POPC   PO410920  14.026  32.459   9.384
  450POPC   GL110921  13.731  32.361   9.081
  450POPC   GL210922  13.391  32.380   9.174
  450POPC   C1A10923  13.615  32.270   8.680
  450POPC   D2A10924  13.536  32.472   8.306
  450POPC   C3A10925  13.653  32.252   7.950
  450POPC   C4A10926  13.646  31.920   7.677
  450POPC   C1B10927  13.174  32.518   8.777
  450POPC   C2B10928  13.017  32.420   8.358
  450POPC   C3B10929  13.184  32.461   7.946
  450POPC   C4B10930  13.280  32.246   7.566
  451POPC   NC310931  36.371  32.086   9.514
  451POPC   PO410932  35.778  32.349   9.499
  451POPC   GL110933  35.965  32.129   9.181
  451POPC   GL210934  35.975  32.431   8.998
  451POPC   C1A10935  36.238  32.052   8.815
  451POPC   D2A10936  36.467  32.180   8.455
  451POPC   C3A10937  36.388  32.064   8.021
  451POPC   C4A10938  36.447  32.399   7.762
  451POPC   C1B10939  35.746  32.083   8.723
  451POPC   C2B10940  35.943  32.006   8.338
  451POPC   C3B10941  36.041  32.409   8.163
  451POPC   C4B10942  35.963  32.525   7.763
  452POPC   NC310943  23.640  37.435   9.560
  452POPC   PO410944  23.812  37.990   9.418
  452POPC   GL110945  23.558  37.741   9.139
  452POPC   GL210946  23.357  37.425   9.145
  452POPC   C1A10947  23.624  37.817   8.725
  452POPC   D2A10948  23.736  37.980   8.369
  452POPC   C3A10949  23.709  37.792   8.004
  452POPC   C4A10950  23.771  37.959   7.609
  452POPC   C1B10951  23.132  37.372   8.795
  452POPC   C2B10952  23.303  37.523   8.449
  452POPC   C3B10953  23.295  37.496   8.066
  452POPC   C4B10954  23.425  37.580   7.656
  453POPC   NC310955  41.070  20.485   9.533
  453POPC   PO410956  40.454  20.823   9.575
  453POPC   GL110957  40.575  20.845   9.128
  453POPC   GL210958  40.469  21.178   9.037
  453POPC   C1A10959  40.842  20.724   8.740
  453POPC   D2A10960  40.995  20.871   8.299
  453POPC   C3A10961  40.861  20.691   7.892
  453POPC   C4A10962  40.613  20.347   7.698
  453POPC   C1B10963  40.379  20.963   8.657
  453POPC   C2B10964  40.488  20.954   8.226
  453POPC   C3B10965  40.355  20.789   7.827
  453POPC   C4B10966  40.311  20.647   7.381
  454POPC   NC310967  32.819   0.037   9.336
  454POPC   PO410968  33.255   0.537   9.534
  454POPC   GL110969  33.093   0.589   9.158
  454POPC   GL210970  32.730   0.533   9.090
  454POPC   C1A10971  33.322   0.590   8.809
  454POPC   D2A10972  33.200   0.681   8.426
  454POPC   C3A10973  33.265   0.389   8.108
  454POPC   C4A10974  33.239   0.572   7.704
  454POPC   C1B10975  32.850   0.400   8.712
  454POPC   C2B10976  32.749   0.458   8.306
  454POPC   C3B10977  32.814   0.295   7.889
  454POPC   C4B10978  32.873   0.122   7.500
  455POPC   NC310979  24.376  44.184   9.499
  455POPC   PO410980  24.740  43.666   9.721
  455POPC   GL110981  24.447  43.687   9.294
  455POPC   GL210982  24.516  43.957   9.067
  455POPC   C1A10983  24.255  43.616   8.830
  455POPC   D2A10984  24.396  43.410   8.454
  455POPC   C3A10985  24.333  43.603   8.091
  455POPC   C4A10986  24.326  44.023   7.912
  455POPC   C1B10987  24.737  44.132   8.716
  455POPC   C2B10988  24.628  44.000   8.316
  455POPC   C3B10989  24.818  44.124   7.920
  455POPC   C4B10990  24.756  44.053   7.475
  456POPC   NC310991  32.850  32.545   9.778
  456POPC   PO410992  33.044  33.183   9.691
  456POPC   GL110993  32.940  32.956   9.221
  456POPC   GL210994  32.842  32.665   9.081
  456POPC   C1A10995  32.877  33.172   8.824
  456POPC   D2A10996  32.649  33.147   8.433
  456POPC   C3A10997  32.788  33.002   8.010
  456POPC   C4A10998  32.895  33.231   7.631
  456POPC   C1B10999  33.018  32.726   8.662
  456POPC   C2B11000  33.172  33.044   8.377
  456POPC   C3B11001  33.317  32.949   7.947
  456POPC   C4B11002  33.130  32.788   7.549
  457POPC   NC311003  41.974   6.067   9.460
  457POPC   PO411004  42.489   5.624   9.438
  457POPC   GL111005  42.256   5.788   9.097
  457POPC   GL211006  42.270   6.122   8.953
  457POPC   C1A11007  42.408   5.662   8.698
  457POPC   D2A11008  42.618   5.752   8.317
  457POPC   C3A11009  42.343   5.976   8.118
  457POPC   C4A11010  42.304   6.013   7.686
  457POPC   C1B11011  41.961   5.925   8.670
  457POPC   C2B11012  41.975   5.629   8.320
  457POPC   C3B11013  42.168   5.548   7.895
  457POPC   C4B11014  42.015   5.545   7.458
  458POPC   NC311015  24.229  10.972   9.501
  458POPC   PO411016  24.626  11.584   9.540
  458POPC   GL111017  24.527  11.285   9.207
  458POPC   GL211018  24.165  11.426   9.233
  458POPC   C1A11019  24.688  11.059   8.801
  458POPC   D2A11020  24.765  10.854   8.375
  458POPC   C3A11021  24.605  11.101   8.010
  458POPC   C4A11022  24.559  11.083   7.557
  458POPC   C1B11023  24.201  11.224   8.824
  458POPC   C2B11024  24.313  11.333   8.412
  458POPC   C3B11025  24.147  11.479   8.033
  458POPC   C4B11026  24.138  11.358   7.617
  459POPC   NC311027  40.265   4.251   9.400
  459POPC   PO411028  39.833   4.667   9.700
  459POPC   GL111029  39.779   4.528   9.243
  459POPC   GL211030  39.824   4.164   9.174
  459POPC   C1A11031  39.792   4.509   8.773
  459POPC   D2A11032  40.111   4.667   8.455
  459POPC   C3A11033  40.162   4.478   8.035
  459POPC   C4A11034  39.820   4.344   7.783
  459POPC   C1B11035  39.969   3.998   8.813
  459POPC   C2B11036  40.037   4.127   8.420
  459POPC   C3B11037  39.986   3.938   8.054
  459POPC   C4B11038  40.258   3.994   7.774
  460POPC   NC311039   4.436  30.463   9.539
  460POPC   PO411040   3.844  30.938   9.566
  460POPC   GL111041   4.051  30.759   9.154
  460POPC   GL211042   4.333  30.522   9.066
  460POPC   C1A11043   4.021  30.619   8.691
  460POPC   D2A11044   4.140  30.417   8.310
  460POPC   C3A11045   3.928  30.618   7.954
  460POPC   C4A11046   4.101  30.902   7.647
  460POPC   C1B11047   4.536  30.743   8.770
  460POPC   C2B11048   4.495  30.993   8.401
  460POPC   C3B11049   4.408  30.810   8.049
  460POPC   C4B11050   4.609  30.718   7.690
  461POPC   NC311051  30.697  33.380   9.430
  461POPC   PO411052  30.620  32.701   9.335
  461POPC   GL111053  30.861  32.939   9.039
  461POPC   GL211054  30.566  33.132   8.987
  461POPC   C1A11055  30.886  33.108   8.590
  461POPC   D2A11056  30.689  33.036   8.188
  461POPC   C3A11057  30.751  33.057   7.719
  461POPC   C4A11058  30.915  33.147   7.293
  461POPC   C1B11059  30.526  32.760   8.672
  461POPC   C2B11060  30.415  32.603   8.256
  461POPC   C3B11061  30.268  32.909   7.928
  461POPC   C4B11062  30.352  33.348   7.862
  462POPC   NC311063  31.202  14.841   9.747
  462POPC   PO411064  31.810  15.075   9.493
  462POPC   GL111065  31.622  15.042   9.068
  462POPC   GL211066  31.300  15.173   9.063
  462POPC   C1A11067  31.608  15.065   8.612
  462POPC   D2A11068  31.679  15.434   8.314
  462POPC   C3A11069  31.632  15.251   7.915
  462POPC   C4A11070  31.585  14.805   7.797
  462POPC   C1B11071  31.291  15.449   8.694
  462POPC   C2B11072  31.181  15.208   8.320
  462POPC   C3B11073  31.150  15.073   7.890
  462POPC   C4B11074  31.033  15.412   7.676
  463POPC   NC311075  31.229  34.151   9.466
  463POPC   PO411076  31.291  34.876   9.571
  463POPC   GL111077  31.507  34.720   9.173
  463POPC   GL211078  31.372  34.396   9.064
  463POPC   C1A11079  31.649  34.660   8.732
  463POPC   D2A11080  31.773  34.374   8.419
  463POPC   C3A11081  31.670  34.499   8.015
  463POPC   C4A11082  31.553  34.420   7.612
  463POPC   C1B11083  31.183  34.190   8.714
  463POPC   C2B11084  31.244  34.362   8.300
  463POPC   C3B11085  31.104  34.251   7.891
  463POPC   C4B11086  31.121  34.184   7.446
  464POPC   NC311087  32.613  26.823   9.397
  464POPC   PO411088  32.006  26.872   9.672
  464POPC   GL111089  32.108  26.718   9.235
  464POPC   GL211090  32.310  26.411   9.093
  464POPC   C1A11091  32.108  26.817   8.804
  464POPC   D2A11092  32.268  26.975   8.417
  464POPC   C3A11093  32.055  26.940   8.026
  464POPC   C4A11094  32.250  26.727   7.712
  464POPC   C1B11095  32.442  26.479   8.623
  464POPC   C2B11096  32.481  26.535   8.166
  464POPC   C3B11097  32.531  26.316   7.787
  464POPC   C4B11098  32.322  26.288   7.406
  465POPC   NC311099  10.891  33.148   9.535
  465POPC   PO411100  10.316  32.804   9.530
  465POPC   GL111101  10.517  32.973   9.146
  465POPC   GL211102  10.604  33.319   9.125
  465POPC   C1A11103  10.488  33.080   8.687
  465POPC   D2A11104  10.128  33.079   8.378
  465POPC   C3A11105  10.283  33.221   8.006
  465POPC   C4A11106  10.558  33.098   7.688
  465POPC   C1B11107  10.735  33.525   8.705
  465POPC   C2B11108  10.739  33.285   8.299
  465POPC   C3B11109  10.969  33.292   7.938
  465POPC   C4B11110  10.946  33.380   7.511
  466POPC   NC311111  35.964  31.179   9.547
  466POPC   PO411112  36.498  31.656   9.444
  466POPC   GL111113  36.311  31.347   9.134
  466POPC   GL211114  35.953  31.232   9.061
  466POPC   C1A11115  36.294  31.213   8.688
  466POPC   D2A11116  36.172  31.501   8.372
  466POPC   C3A11117  36.272  31.518   7.962
  466POPC   C4A11118  36.052  31.793   7.734
  466POPC   C1B11119  35.928  31.599   8.815
  466POPC   C2B11120  35.673  31.571   8.429
  466POPC   C3B11121  35.784  31.366   8.009
  466POPC   C4B11122  35.576  31.547   7.651
  467POPC   NC311123  11.835  35.503   9.568
  467POPC   PO411124  12.189  34.922   9.637
  467POPC   GL111125  12.175  35.278   9.258
  467POPC   GL211126  11.904  35.324   9.075
  467POPC   C1A11127  12.322  35.575   8.920
  467POPC   D2A11128  12.425  35.480   8.516
  467POPC   C3A11129  12.370  35.615   8.107
  467POPC   C4A11130  12.354  35.397   7.769
  467POPC   C1B11131  11.791  35.299   8.656
  467POPC   C2B11132  11.885  35.574   8.317
  467POPC   C3B11133  11.883  35.541   7.907
  467POPC   C4B11134  11.906  35.219   7.650
  468POPC   NC311135   8.576  17.197   9.453
  468POPC   PO411136   7.962  17.443   9.562
  468POPC   GL111137   8.153  17.515   9.184
  468POPC   GL211138   7.875  17.685   9.065
  468POPC   C1A11139   8.297  17.605   8.769
  468POPC   D2A11140   8.464  17.700   8.364
  468POPC   C3A11141   8.318  17.651   7.939
  468POPC   C4A11142   8.589  17.683   7.584
  468POPC   C1B11143   7.872  17.332   8.735
  468POPC   C2B11144   8.024  17.322   8.254
  468POPC   C3B11145   7.870  17.400   7.777
  468POPC   C4B11146   7.794  17.430   7.282
  469POPC   NC311147   8.765  25.510   9.601
  469POPC   PO411148   9.251  25.113   9.587
  469POPC   GL111149   9.120  25.359   9.231
  469POPC   GL211150   8.820  25.227   9.165
  469POPC   C1A11151   9.263  25.402   8.794
  469POPC   D2A11152   9.050  25.425   8.413
  469POPC   C3A11153   9.213  25.326   8.023
  469POPC   C4A11154   9.030  25.416   7.648
  469POPC   C1B11155   8.865  25.056   8.760
  469POPC   C2B11156   8.651  24.989   8.382
  469POPC   C3B11157   8.759  25.093   7.979
  469POPC   C4B11158   8.997  24.895   7.674
  470POPC   NC311159   4.597  18.127   9.910
  470POPC   PO411160   5.091  18.460   9.711
  470POPC   GL111161   5.054  18.493   9.271
  470POPC   GL211162   5.003  18.144   9.187
  470POPC   C1A11163   4.853  18.489   8.846
  470POPC   D2A11164   4.985  18.356   8.445
  470POPC   C3A11165   4.846  18.357   8.029
  470POPC   C4A11166   5.199  18.367   7.766
  470POPC   C1B11167   5.132  17.994   8.769
  470POPC   C2B11168   5.003  17.849   8.333
  470POPC   C3B11169   5.065  17.890   7.869
  470POPC   C4B11170   5.061  17.823   7.401
  471POPC   NC311171  38.791   5.149   9.592
  471POPC   PO411172  38.132   4.797   9.627
  471POPC   GL111173  38.183   4.901   9.211
  471POPC   GL211174  38.433   5.173   9.216
  471POPC   C1A11175  38.335   4.905   8.801
  471POPC   D2A11176  38.493   5.107   8.483
  471POPC   C3A11177  38.526   4.874   8.130
  471POPC   C4A11178  38.358   4.899   7.716
  471POPC   C1B11179  38.096   5.332   8.917
  471POPC   C2B11180  38.011   5.259   8.451
  471POPC   C3B11181  38.238   5.274   8.044
  471POPC   C4B11182  38.614   5.345   7.762
  472POPC   NC311183  28.879  24.891   9.346
  472POPC   PO411184  29.376  24.579   9.704
  472POPC   GL111185  29.435  24.615   9.222
  472POPC   GL211186  29.138  24.604   9.007
  472POPC   C1A11187  29.527  24.325   8.835
  472POPC   D2A11188  29.684  24.292   8.408
  472POPC   C3A11189  29.430  24.441   8.043
  472POPC   C4A11190  29.324  24.606   7.622
  472POPC   C1B11191  28.855  24.403   8.710
  472POPC   C2B11192  28.922  24.395   8.287
  472POPC   C3B11193  28.790  24.492   7.883
  472POPC   C4B11194  28.906  24.358   7.497
  473POPC   NC311195  38.523   7.572   9.734
  473POPC   PO411196  38.361   7.001   9.959
  473POPC   GL111197  38.400   7.173   9.452
  473POPC   GL211198  38.700   7.400   9.290
  473POPC   C1A11199  38.307   7.398   8.990
  473POPC   D2A11200  38.232   7.763   8.653
  473POPC   C3A11201  38.243   7.672   8.181
  473POPC   C4A11202  38.450   7.422   7.854
  473POPC   C1B11203  38.766   7.616   8.892
  473POPC   C2B11204  38.710   7.677   8.466
  473POPC   C3B11205  38.881   7.589   8.090
  473POPC   C4B11206  38.944   7.332   7.729
  474POPC   NC311207  24.793   6.839   9.443
  474POPC   PO411208  25.488   6.635   9.522
  474POPC   GL111209  25.207   6.717   9.165
  474POPC   GL211210  25.109   7.063   9.086
  474POPC   C1A11211  25.120   6.662   8.716
  474POPC   D2A11212  25.311   6.733   8.312
  474POPC   C3A11213  25.409   6.313   8.139
  474POPC   C4A11214  25.284   6.219   7.724
  474POPC   C1B11215  24.996   7.148   8.639
  474POPC   C2B11216  25.057   7.195   8.191
  474POPC   C3B11217  25.120   6.926   7.846
  474POPC   C4B11218  25.497   6.692   7.818
  475POPC   NC311219   8.978  29.592   9.489
  475POPC   PO411220   8.770  30.260   9.554
  475POPC   GL111221   8.912  30.067   9.214
  475POPC   GL211222   8.592  30.149   9.098
  475POPC   C1A11223   9.175  29.906   8.900
  475POPC   D2A11224   9.134  29.795   8.475
  475POPC   C3A11225   9.008  29.801   8.027
  475POPC   C4A11226   8.880  29.541   7.662
  475POPC   C1B11227   8.554  30.280   8.741
  475POPC   C2B11228   8.649  30.047   8.398
  475POPC   C3B11229   8.648  30.215   8.030
  475POPC   C4B11230   8.703  30.023   7.643
  476POPC   NC311231  43.364  12.143   9.472
  476POPC   PO411232  42.916  11.708   9.606
  476POPC   GL111233  42.995  11.841   9.191
  476POPC   GL211234  43.326  11.716   9.180
  476POPC   C1A11235  42.870  11.970   8.757
  476POPC   D2A11236  42.715  11.838   8.350
  476POPC   C3A11237  42.840  12.079   8.019
  476POPC   C4A11238  43.168  12.063   7.707
  476POPC   C1B11239  43.393  11.990   8.811
  476POPC   C2B11240  43.259  12.070   8.376
  476POPC   C3B11241  43.547  12.137   8.020
  476POPC   C4B11242  43.482  12.466   7.692
  477POPC   NC311243  26.847   7.028   9.598
  477POPC   PO411244  27.200   6.458   9.532
  477POPC   GL111245  26.951   6.563   9.175
  477POPC   GL211246  27.080   6.872   9.160
  477POPC   C1A11247  26.799   6.748   8.758
  477POPC   D2A11248  26.550   6.563   8.431
  477POPC   C3A11249  26.498   6.681   8.030
  477POPC   C4A11250  26.771   6.767   7.748
  477POPC   C1B11251  27.306   6.983   8.812
  477POPC   C2B11252  27.181   6.909   8.394
  477POPC   C3B11253  27.274   7.023   7.979
  477POPC   C4B11254  27.185   6.965   7.548
  478POPC   NC311255  44.585  40.368   9.839
  478POPC   PO411256  44.210  39.923   9.471
  478POPC   GL111257  44.447  40.129   9.130
  478POPC   GL211258  44.809  40.073   9.072
  478POPC   C1A11259  44.483  40.166   8.676
  478POPC   D2A11260  44.722  40.303   8.324
  478POPC   C3A11261  44.441  40.269   7.989
  478POPC   C4A11262  44.381  39.943   7.663
  478POPC   C1B11263  44.748  39.722   8.756
  478POPC   C2B11264  44.584  39.761   8.325
  478POPC   C3B11265  44.799  39.921   7.966
  478POPC   C4B11266  44.895  39.811   7.566
  479POPC   NC311267  21.100   8.143   9.471
  479POPC   PO411268  21.802   8.263   9.507
  479POPC   GL111269  21.595   8.255   9.125
  479POPC   GL211270  21.319   8.480   9.123
  479POPC   C1A11271  21.438   7.975   8.794
  479POPC   D2A11272  21.362   7.943   8.344
  479POPC   C3A11273  21.616   8.062   7.967
  479POPC   C4A11274  21.630   7.822   7.561
  479POPC   C1B11275  21.472   8.491   8.676
  479POPC   C2B11276  21.221   8.456   8.307
  479POPC   C3B11277  21.042   8.162   8.026
  479POPC   C4B11278  21.235   8.154   7.627
  480POPC   NC311279   2.261  39.432   9.266
  480POPC   PO411280   2.245  38.912   9.741
  480POPC   GL111281   1.924  39.041   9.272
  480POPC   GL211282   1.653  39.257   9.178
  480POPC   C1A11283   1.941  39.145   8.758
  480POPC   D2A11284   1.977  38.943   8.315
  480POPC   C3A11285   2.052  39.274   7.969
  480POPC   C4A11286   1.920  39.245   7.511
  480POPC   C1B11287   1.492  39.388   8.776
  480POPC   C2B11288   1.631  39.329   8.345
  480POPC   C3B11289   1.562  39.151   7.925
  480POPC   C4B11290   1.410  39.194   7.518
  481POPC   NC311291  26.673  14.974   9.881
  481POPC   PO411292  27.292  15.060   9.660
  481POPC   GL111293  27.030  15.151   9.265
  481POPC   GL211294  26.680  15.173   9.357
  481POPC   C1A11295  27.028  15.248   8.799
  481POPC   D2A11296  26.983  15.414   8.347
  481POPC   C3A11297  27.077  15.112   7.976
  481POPC   C4A11298  27.123  15.068   7.486
  481POPC   C1B11299  26.641  14.912   8.986
  481POPC   C2B11300  26.520  15.014   8.558
  481POPC   C3B11301  26.608  15.119   8.144
  481POPC   C4B11302  26.378  15.146   7.750
  482POPC   NC311303  23.015  18.828   9.599
  482POPC   PO411304  23.542  19.165   9.604
  482POPC   GL111305  23.260  19.172   9.205
  482POPC   GL211306  22.873  19.146   9.225
  482POPC   C1A11307  23.072  19.259   8.756
  482POPC   D2A11308  22.991  19.388   8.287
  482POPC   C3A11309  23.123  19.173   7.899
  482POPC   C4A11310  23.173  18.833   7.549
  482POPC   C1B11311  22.754  18.874   8.863
  482POPC   C2B11312  22.718  18.947   8.387
  482POPC   C3B11313  22.619  19.159   7.968
  482POPC   C4B11314  22.766  19.129   7.528
  483POPC   NC311315  20.549  31.335   9.403
  483POPC   PO411316  20.899  31.841   9.685
  483POPC   GL111317  20.790  31.756   9.236
  483POPC   GL211318  20.496  31.664   8.984
  483POPC   C1A11319  20.890  31.917   8.838
  483POPC   D2A11320  20.861  31.685   8.480
  483POPC   C3A11321  20.590  31.766   8.123
  483POPC   C4A11322  20.776  31.615   7.740
  483POPC   C1B11323  20.374  31.473   8.600
  483POPC   C2B11324  20.611  31.273   8.291
  483POPC   C3B11325  20.597  31.144   7.884
  483POPC   C4B11326  20.923  31.123   7.593
  484POPC   NC311327   5.646  44.803   9.477
  484POPC   PO411328   6.006  44.198   9.384
  484POPC   GL111329   5.866  44.456   9.097
  484POPC   GL211330   6.112  44.701   9.175
  484POPC   C1A11331   6.011  44.560   8.684
  484POPC   D2A11332   6.111  44.570   8.250
  484POPC   C3A11333   5.806  44.667   7.957
  484POPC   C4A11334   5.749  44.483   7.574
  484POPC   C1B11335   6.128   0.034   8.824
  484POPC   C2B11336   6.089   0.069   8.347
  484POPC   C3B11337   6.282  44.948   7.922
  484POPC   C4B11338   6.371  44.910   7.462
  485POPC   NC311339  19.692  34.101   9.378
  485POPC   PO411340  19.983  33.463   9.505
  485POPC   GL111341  19.989  33.655   9.104
  485POPC   GL211342  19.998  34.015   9.006
  485POPC   C1A11343  19.825  33.662   8.676
  485POPC   D2A11344  19.976  33.480   8.302
  485POPC   C3A11345  19.750  33.512   7.917
  485POPC   C4A11346  19.838  33.691   7.476
  485POPC   C1B11347  19.967  34.172   8.628
  485POPC   C2B11348  19.841  34.045   8.233
  485POPC   C3B11349  20.060  33.917   7.885
  485POPC   C4B11350  20.203  34.072   7.518
  486POPC   NC311351  26.214  18.082   9.478
  486POPC   PO411352  26.429  18.669   9.238
  486POPC   GL111353  26.181  18.354   9.053
  486POPC   GL211354  25.834  18.268   9.165
  486POPC   C1A11355  26.068  18.450   8.686
  486POPC   D2A11356  26.274  18.611   8.352
  486POPC   C3A11357  26.197  18.325   8.030
  486POPC   C4A11358  26.147  18.434   7.643
  486POPC   C1B11359  25.905  17.949   8.827
  486POPC   C2B11360  25.967  18.014   8.415
  486POPC   C3B11361  25.770  18.028   8.072
  486POPC   C4B11362  25.931  17.974   7.690
  487POPC   NC311363   1.863  10.336   9.420
  487POPC   PO411364   2.263  10.849   9.238
  487POPC   GL111365   1.863  10.673   9.042
  487POPC   GL211366   2.107  10.484   8.932
  487POPC   C1A11367   1.723  10.298   8.730
  487POPC   D2A11368   2.063  10.343   8.404
  487POPC   C3A11369   1.924  10.617   8.067
  487POPC   C4A11370   1.840  10.341   7.740
  487POPC   C1B11371   1.989  10.805   8.582
  487POPC   C2B11372   2.344  10.808   8.308
  487POPC   C3B11373   2.430  10.489   8.032
  487POPC   C4B11374   2.259  10.634   7.667
  488POPC   NC311375  28.796  38.023   9.366
  488POPC   PO411376  29.275  37.775   9.781
  488POPC   GL111377  29.251  37.802   9.315
  488POPC   GL211378  29.027  37.543   9.202
  488POPC   C1A11379  29.182  37.859   8.840
  488POPC   D2A11380  29.150  37.637   8.449
  488POPC   C3A11381  29.183  37.806   8.053
  488POPC   C4A11382  29.213  37.713   7.635
  488POPC   C1B11383  28.789  37.500   8.808
  488POPC   C2B11384  28.797  37.250   8.429
  488POPC   C3B11385  29.003  37.296   8.018
  488POPC   C4B11386  28.821  37.381   7.659
  489POPC   NC311387   3.139   3.955   9.485
  489POPC   PO411388   2.805   4.573   9.475
  489POPC   GL111389   2.883   4.292   9.123
  489POPC   GL211390   2.676   4.017   9.064
  489POPC   C1A11391   2.903   4.238   8.656
  489POPC   D2A11392   2.664   4.474   8.330
  489POPC   C3A11393   2.865   4.408   7.934
  489POPC   C4A11394   2.747   4.454   7.534
  489POPC   C1B11395   2.422   4.263   8.779
  489POPC   C2B11396   2.280   4.138   8.345
  489POPC   C3B11397   2.396   4.197   7.927
  489POPC   C4B11398   2.382   4.078   7.492
  490POPC   NC311399  16.699  35.555   9.579
  490POPC   PO411400  16.998  34.940   9.748
  490POPC   GL111401  16.921  35.041   9.279
  490POPC   GL211402  16.582  35.211   9.181
  490POPC   C1A11403  16.950  35.042   8.812
  490POPC   D2A11404  16.771  35.235   8.432
  490POPC   C3A11405  16.964  35.215   8.012
  490POPC   C4A11406  16.910  35.145   7.544
  490POPC   C1B11407  16.766  35.520   8.882
  490POPC   C2B11408  16.581  35.742   8.533
  490POPC   C3B11409  16.653  35.625   8.112
  490POPC   C4B11410  16.575  35.499   7.738
  491POPC   NC311411  39.644  42.421   9.474
  491POPC   PO411412  40.341  42.470   9.644
  491POPC   GL111413  40.091  42.524   9.192
  491POPC   GL211414  39.917  42.241   9.090
  491POPC   C1A11415  40.142  42.519   8.709
  491POPC   D2A11416  40.125  42.172   8.362
  491POPC   C3A11417  40.363  42.276   7.985
  491POPC   C4A11418  40.246  42.623   7.728
  491POPC   C1B11419  39.643  42.411   8.804
  491POPC   C2B11420  39.697  42.461   8.356
  491POPC   C3B11421  39.496  42.386   7.949
  491POPC   C4B11422  39.396  42.507   7.528
  492POPC   NC311423  14.157  18.590   9.291
  492POPC   PO411424  14.586  18.136   9.564
  492POPC   GL111425  14.450  18.122   9.146
  492POPC   GL211426  14.679  17.867   9.071
  492POPC   C1A11427  14.297  18.267   8.741
  492POPC   D2A11428  14.142  18.253   8.323
  492POPC   C3A11429  14.323  18.519   8.006
  492POPC   C4A11430  14.317  18.501   7.556
  492POPC   C1B11431  14.668  17.922   8.686
  492POPC   C2B11432  14.453  17.848   8.347
  492POPC   C3B11433  14.580  17.985   7.974
  492POPC   C4B11434  14.700  18.189   7.625
  493POPC   NC311435  21.556  23.518   9.389
  493POPC   PO411436  21.373  24.135   9.607
  493POPC   GL111437  21.470  23.978   9.167
  493POPC   GL211438  21.194  23.753   9.106
  493POPC   C1A11439  21.594  23.761   8.774
  493POPC   D2A11440  21.622  23.819   8.352
  493POPC   C3A11441  21.558  23.565   7.998
  493POPC   C4A11442  21.464  23.690   7.532
  493POPC   C1B11443  21.072  23.659   8.674
  493POPC   C2B11444  21.126  23.724   8.225
  493POPC   C3B11445  21.021  23.699   7.768
  493POPC   C4B11446  20.955  23.785   7.291
  494POPC   NC311447  37.232   8.507   9.687
  494POPC   PO411448  36.885   8.067   9.681
  494POPC   GL111449  37.034   8.218   9.244
  494POPC   GL211450  37.080   8.577   9.169
  494POPC   C1A11451  37.054   8.164   8.759
  494POPC   D2A11452  36.958   8.359   8.314
  494POPC   C3A11453  37.095   8.204   7.912
  494POPC   C4A11454  37.031   7.887   7.568
  494POPC   C1B11455  36.996   8.674   8.717
  494POPC   C2B11456  36.988   8.876   8.280
  494POPC   C3B11457  36.920   8.696   7.867
  494POPC   C4B11458  36.723   8.831   7.488
  495POPC   NC311459  31.648   3.065   9.878
  495POPC   PO411460  31.383   3.612   9.530
  495POPC   GL111461  31.265   3.568   9.136
  495POPC   GL211462  31.048   3.306   9.158
  495POPC   C1A11463  31.528   3.591   8.786
  495POPC   D2A11464  31.764   3.734   8.460
  495POPC   C3A11465  31.668   3.711   8.011
  495POPC   C4A11466  31.826   3.415   7.687
  495POPC   C1B11467  31.147   3.266   8.707
  495POPC   C2B11468  31.300   3.490   8.332
  495POPC   C3B11469  31.173   3.588   7.903
  495POPC   C4B11470  31.242   3.371   7.519
  496POPC   NC311471  10.823   8.692   9.583
  496POPC   PO411472  10.194   8.852   9.443
  496POPC   GL111473  10.434   9.138   9.159
  496POPC   GL211474  10.793   9.133   9.199
  496POPC   C1A11475  10.609   9.224   8.728
  496POPC   D2A11476  10.657   8.975   8.335
  496POPC   C3A11477  10.586   9.123   7.897
  496POPC   C4A11478  10.395   9.114   7.470
  496POPC   C1B11479  10.881   8.793   8.847
  496POPC   C2B11480  10.960   8.550   8.428
  496POPC   C3B11481  10.933   8.709   7.982
  496POPC   C4B11482  10.543   8.664   7.685
  497POPC   NC311483  35.441  14.759   9.564
  497POPC   PO411484  35.145  15.376   9.442
  497POPC   GL111485  35.277  15.450   9.020
  497POPC   GL211486  35.503  15.163   9.090
  497POPC   C1A11487  35.268  15.279   8.616
  497POPC   D2A11488  35.462  15.056   8.329
  497POPC   C3A11489  35.183  15.051   8.022
  497POPC   C4A11490  35.339  14.854   7.684
  497POPC   C1B11491  35.745  15.345   8.753
  497POPC   C2B11492  35.763  15.482   8.315
  497POPC   C3B11493  35.563  15.376   7.908
  497POPC   C4B11494  35.568  15.510   7.458
  498POPC   NC311495   5.707  16.216   9.553
  498POPC   PO411496   6.076  15.695   9.379
  498POPC   GL111497   5.661  15.813   9.150
  498POPC   GL211498   5.565  16.176   9.069
  498POPC   C1A11499   5.421  15.834   8.741
  498POPC   D2A11500   5.694  16.058   8.462
  498POPC   C3A11501   5.601  16.196   8.056
  498POPC   C4A11502   5.822  16.018   7.715
  498POPC   C1B11503   5.987  16.208   8.902
  498POPC   C2B11504   6.193  16.253   8.497
  498POPC   C3B11505   6.208  16.045   8.101
  498POPC   C4B11506   6.284  16.253   7.717
  499POPC   NC311507   5.670  22.140   9.308
  499POPC   PO411508   6.179  22.414   9.500
  499POPC   GL111509   6.223  22.581   9.139
  499POPC   GL211510   5.869  22.560   9.017
  499POPC   C1A11511   6.334  22.675   8.741
  499POPC   D2A11512   6.019  22.651   8.441
  499POPC   C3A11513   6.080  22.512   8.024
  499POPC   C4A11514   5.675  22.494   7.813
  499POPC   C1B11515   5.702  22.315   8.664
  499POPC   C2B11516   5.821  22.137   8.267
  499POPC   C3B11517   5.659  21.990   7.888
  499POPC   C4B11518   5.494  21.600   7.872
  500POPC   NC311519   5.534  40.206   9.404
  500POPC   PO411520   6.151  39.832   9.528
  500POPC   GL111521   6.286  39.963   9.162
  500POPC   GL211522   6.029  40.237   9.176
  500POPC   C1A11523   6.273  40.089   8.755
  500POPC   D2A11524   6.044  40.249   8.423
  500POPC   C3A11525   6.227  40.077   8.066
  500POPC   C4A11526   6.077  40.053   7.655
  500POPC   C1B11527   5.806  39.909   8.889
  500POPC   C2B11528   5.587  39.966   8.485
  500POPC   C3B11529   5.708  40.035   8.047
  500POPC   C4B11530   5.682  39.753   7.687
  501POPC   NC311531   3.404  44.518   9.414
  501POPC   PO411532   3.871  44.944   9.444
  501POPC   GL111533   3.643  44.846   9.085
  501POPC   GL211534   3.297  44.978   9.152
  501POPC   C1A11535   3.499  44.545   8.751
  501POPC   D2A11536   3.458  44.318   8.338
  501POPC   C3A11537   3.472  44.558   7.953
  501POPC   C4A11538   3.318  44.438   7.516
  501POPC   C1B11539   3.376   0.047   8.695
  501POPC   C2B11540   3.285  44.957   8.259
  501POPC   C3B11541   3.495   0.094   7.911
  501POPC   C4B11542   3.908   0.011   7.971
  502POPC   NC311543  19.742  35.579   9.456
  502POPC   PO411544  19.616  34.898   9.526
  502POPC   GL111545  19.737  35.154   9.137
  502POPC   GL211546  20.052  35.378   9.082
  502POPC   C1A11547  19.730  35.329   8.690
  502POPC   D2A11548  20.020  35.373   8.323
  502POPC   C3A11549  19.815  35.283   7.902
  502POPC   C4A11550  19.538  35.583   7.678
  502POPC   C1B11551  20.092  35.715   8.755
  502POPC   C2B11552  20.285  35.849   8.349
  502POPC   C3B11553  20.064  35.738   7.951
  502POPC   C4B11554  20.042  35.588   7.533
  503POPC   NC311555   3.719  43.517   9.209
  503POPC   PO411556   3.674  44.115   9.554
  503POPC   GL111557   3.449  43.972   9.177
  503POPC   GL211558   3.076  43.855   9.151
  503POPC   C1A11559   3.619  44.041   8.770
  503POPC   D2A11560   3.926  44.140   8.452
  503POPC   C3A11561   3.795  44.019   8.048
  503POPC   C4A11562   3.375  44.044   7.862
  503POPC   C1B11563   3.266  43.645   8.768
  503POPC   C2B11564   3.488  43.732   8.374
  503POPC   C3B11565   3.533  43.563   7.964
  503POPC   C4B11566   3.318  43.578   7.580
  504POPC   NC311567  31.050  25.739   9.490
  504POPC   PO411568  30.522  26.247   9.503
  504POPC   GL111569  30.714  26.239   9.134
  504POPC   GL211570  30.694  25.914   9.099
  504POPC   C1A11571  30.603  26.446   8.768
  504POPC   D2A11572  30.809  26.455   8.358
  504POPC   C3A11573  30.739  26.087   8.095
  504POPC   C4A11574  30.676  26.385   7.809
  504POPC   C1B11575  30.895  25.794   8.731
  504POPC   C2B11576  30.937  25.631   8.311
  504POPC   C3B11577  30.903  25.660   7.857
  504POPC   C4B11578  30.593  25.892   7.616
  505POPC   NC311579  11.474   3.450   9.517
  505POPC   PO411580  11.156   3.960   9.594
  505POPC   GL111581  11.403   3.794   9.155
  505POPC   GL211582  11.475   3.377   9.022
  505POPC   C1A11583  11.559   3.774   8.729
  505POPC   D2A11584  11.286   3.735   8.404
  505POPC   C3A11585  11.399   3.862   8.016
  505POPC   C4A11586  11.415   3.415   7.846
  505POPC   C1B11587  11.204   3.207   8.674
  505POPC   C2B11588  11.014   2.963   8.299
  505POPC   C3B11589  10.957   3.183   7.879
  505POPC   C4B11590  10.977   3.674   7.792
  506POPC   NC311591  22.288  12.393   9.577
  506POPC   PO411592  22.055  11.748   9.524
  506POPC   GL111593  22.252  11.909   9.139
  506POPC   GL211594  22.431  12.222   9.132
  506POPC   C1A11595  22.327  11.745   8.694
  506POPC   D2A11596  22.200  12.005   8.317
  506POPC   C3A11597  22.106  11.909   7.874
  506POPC   C4A11598  21.972  12.012   7.444
  506POPC   C1B11599  22.504  12.217   8.705
  506POPC   C2B11600  22.499  12.438   8.302
  506POPC   C3B11601  22.384  12.357   7.890
  506POPC   C4B11602  22.446  12.161   7.514
  507POPC   NC311603  36.562  41.413   9.538
  507POPC   PO411604  37.113  41.725   9.675
  507POPC   GL111605  36.960  41.537   9.237
  507POPC   GL211606  36.662  41.270   9.082
  507POPC   C1A11607  36.999  41.493   8.778
  507POPC   D2A11608  37.143  41.255   8.402
  507POPC   C3A11609  37.113  41.580   8.127
  507POPC   C4A11610  37.106  41.638   7.705
  507POPC   C1B11611  36.744  41.070   8.664
  507POPC   C2B11612  36.649  41.332   8.293
  507POPC   C3B11613  36.737  41.309   7.872
  507POPC   C4B11614  36.606  41.163   7.482
  508POPC   NC311615  40.431  42.832   9.380
  508POPC   PO411616  40.219  43.434   9.406
  508POPC   GL111617  40.040  43.121   9.157
  508POPC   GL211618  39.741  42.897   9.237
  508POPC   C1A11619  40.196  43.176   8.759
  508POPC   D2A11620  40.127  42.978   8.404
  508POPC   C3A11621  40.009  43.248   8.077
  508POPC   C4A11622  40.130  43.135   7.687
  508POPC   C1B11623  39.741  42.910   8.763
  508POPC   C2B11624  39.636  42.965   8.290
  508POPC   C3B11625  39.762  42.817   7.855
  508POPC   C4B11626  39.642  42.963   7.425
  509POPC   NC311627  21.906   7.555   9.403
  509POPC   PO411628  22.253   6.979   9.508
  509POPC   GL111629  22.254   7.248   9.175
  509POPC   GL211630  21.976   7.138   9.073
  509POPC   C1A11631  22.256   7.600   8.841
  509POPC   D2A11632  22.335   7.830   8.454
  509POPC   C3A11633  22.086   7.821   8.078
  509POPC   C4A11634  22.075   7.569   7.720
  509POPC   C1B11635  22.106   7.156   8.656
  509POPC   C2B11636  22.057   7.311   8.235
  509POPC   C3B11637  22.221   7.111   7.875
  509POPC   C4B11638  22.105   7.049   7.438
  510POPC   NC311639  19.638   0.562   9.475
  510POPC   PO411640  20.245   0.562   9.766
  510POPC   GL111641  20.095   0.353   9.314
  510POPC   GL211642  19.859   0.088   9.221
  510POPC   C1A11643  20.021   0.416   8.797
  510POPC   D2A11644  20.012   0.272   8.331
  510POPC   C3A11645  19.890   0.532   7.940
  510POPC   C4A11646  20.039   0.640   7.485
  510POPC   C1B11647  19.645   0.046   8.834
  510POPC   C2B11648  19.508   0.241   8.462
  510POPC   C3B11649  19.502   0.132   8.025
  510POPC   C4B11650  19.318   0.334   7.663
  511POPC   NC311651  30.481  13.332   9.527
  511POPC   PO411652  30.623  13.933   9.584
  511POPC   GL111653  30.688  13.711   9.210
  511POPC   GL211654  30.384  13.591   9.093
  511POPC   C1A11655  30.850  13.572   8.809
  511POPC   D2A11656  30.717  13.439   8.391
  511POPC   C3A11657  30.767  13.630   8.002
  511POPC   C4A11658  30.532  13.637   7.650
  511POPC   C1B11659  30.465  13.905   8.769
  511POPC   C2B11660  30.358  13.819   8.349
  511POPC   C3B11661  30.409  14.013   7.972
  511POPC   C4B11662  30.131  13.962   7.627
  512POPC   NC311663  18.346  16.063   9.477
  512POPC   PO411664  18.554  15.473   9.274
  512POPC   GL111665  18.317  15.807   9.029
  512POPC   GL211666  18.498  16.130   8.984
  512POPC   C1A11667  18.215  15.805   8.592
  512POPC   D2A11668  17.962  15.749   8.215
  512POPC   C3A11669  18.135  15.915   7.819
  512POPC   C4A11670  18.533  15.855   7.612
  512POPC   C1B11671  18.233  16.315   8.657
  512POPC   C2B11672  18.251  16.197   8.241
  512POPC   C3B11673  18.564  16.258   7.914
  512POPC   C4B11674  18.812  16.256   7.477
  513POPC   NC311675   7.573  22.707   9.438
  513POPC   PO411676   7.025  23.085   9.395
  513POPC   GL111677   7.366  23.033   9.059
  513POPC   GL211678   7.704  22.842   8.984
  513POPC   C1A11679   7.331  22.980   8.626
  513POPC   D2A11680   7.414  22.795   8.233
  513POPC   C3A11681   7.136  22.922   7.924
  513POPC   C4A11682   7.140  23.303   7.662
  513POPC   C1B11683   7.903  23.095   8.687
  513POPC   C2B11684   7.682  23.256   8.331
  513POPC   C3B11685   7.601  23.151   7.881
  513POPC   C4B11686   7.769  23.250   7.457
  514POPC   NC311687  21.015  44.038   9.438
  514POPC   PO411688  21.500  43.604   9.658
  514POPC   GL111689  21.311  43.651   9.250
  514POPC   GL211690  21.646  43.661   9.131
  514POPC   C1A11691  21.165  43.691   8.807
  514POPC   D2A11692  21.395  43.695   8.390
  514POPC   C3A11693  21.255  43.783   7.961
  514POPC   C4A11694  21.309  43.629   7.541
  514POPC   C1B11695  21.578  43.992   8.795
  514POPC   C2B11696  21.569  44.259   8.452
  514POPC   C3B11697  21.692  44.076   8.078
  514POPC   C4B11698  21.743  43.843   7.697
  515POPC   NC311699  20.517   0.220   9.587
  515POPC   PO411700  20.840   0.826   9.403
  515POPC   GL111701  20.675   0.482   9.177
  515POPC   GL211702  20.416   0.636   9.037
  515POPC   C1A11703  20.646   0.310   8.732
  515POPC   D2A11704  20.434   0.574   8.424
  515POPC   C3A11705  20.407   0.434   7.995
  515POPC   C4A11706  20.739   0.365   7.696
  515POPC   C1B11707  20.767   0.813   8.766
  515POPC   C2B11708  20.792   0.979   8.383
  515POPC   C3B11709  20.735   0.836   7.994
  515POPC   C4B11710  20.903   0.864   7.601
  516POPC   NC311711  17.694  14.665   9.781
  516POPC   PO411712  17.123  14.493   9.491
  516POPC   GL111713  17.316  14.415   9.094
  516POPC   GL211714  17.640  14.298   8.964
  516POPC   C1A11715  17.197  14.168   8.750
  516POPC   D2A11716  17.291  14.068   8.331
  516POPC   C3A11717  17.677  14.238   8.125
  516POPC   C4A11718  17.561  14.418   7.756
  516POPC   C1B11719  17.468  14.616   8.647
  516POPC   C2B11720  17.402  14.661   8.217
  516POPC   C3B11721  17.669  14.871   7.952
  516POPC   C4B11722  17.905  14.753   7.603
  517POPC   NC311723  20.252  15.913   9.528
  517POPC   PO411724  20.877  15.592   9.571
  517POPC   GL111725  20.668  15.819   9.244
  517POPC   GL211726  20.394  15.615   9.145
  517POPC   C1A11727  20.497  16.005   8.846
  517POPC   D2A11728  20.556  15.867   8.416
  517POPC   C3A11729  20.553  16.105   8.054
  517POPC   C4A11730  20.539  15.996   7.625
  517POPC   C1B11731  20.486  15.485   8.755
  517POPC   C2B11732  20.364  15.384   8.327
  517POPC   C3B11733  20.373  15.636   7.969
  517POPC   C4B11734  20.064  15.926   7.764
  518POPC   NC311735   6.572  41.900   9.581
  518POPC   PO411736   6.430  41.198   9.474
  518POPC   GL111737   6.645  41.460   9.147
  518POPC   GL211738   6.756  41.815   9.124
  518POPC   C1A11739   6.491  41.618   8.733
  518POPC   D2A11740   6.246  41.666   8.315
  518POPC   C3A11741   6.477  41.568   7.967
  518POPC   C4A11742   6.491  41.266   7.641
  518POPC   C1B11743   6.988  41.684   8.782
  518POPC   C2B11744   6.818  41.656   8.356
  518POPC   C3B11745   6.954  41.446   8.012
  518POPC   C4B11746   6.864  41.625   7.609
  519POPC   NC311747   1.155  11.038   9.493
  519POPC   PO411748   1.554  11.547   9.343
  519POPC   GL111749   1.385  11.251   9.093
  519POPC   GL211750   1.070  11.407   9.118
  519POPC   C1A11751   1.417  10.985   8.754
  519POPC   D2A11752   1.209  11.056   8.370
  519POPC   C3A11753   1.412  11.027   8.012
  519POPC   C4A11754   1.297  11.345   7.767
  519POPC   C1B11755   0.937  11.349   8.725
  519POPC   C2B11756   0.684  11.211   8.394
  519POPC   C3B11757   0.847  11.227   7.999
  519POPC   C4B11758   0.820  11.401   7.596
  520POPC   NC311759   3.852   9.306   9.505
  520POPC   PO411760   3.345   8.886   9.617
  520POPC   GL111761   3.275   8.956   9.178
  520POPC   GL211762   3.613   9.038   9.133
  520POPC   C1A11763   3.274   9.102   8.728
  520POPC   D2A11764   3.124   9.140   8.302
  520POPC   C3A11765   3.406   9.197   7.965
  520POPC   C4A11766   3.750   9.218   7.672
  520POPC   C1B11767   3.746   8.905   8.727
  520POPC   C2B11768   3.562   8.820   8.321
  520POPC   C3B11769   3.723   8.660   7.936
  520POPC   C4B11770   3.990   8.792   7.567
  521POPC   NC311771   9.097  42.489   9.414
  521POPC   PO411772   8.570  42.073   9.270
  521POPC   GL111773   8.921  42.178   9.042
  521POPC   GL211774   9.208  42.009   9.215
  521POPC   C1A11775   8.906  42.379   8.648
  521POPC   D2A11776   8.720  42.308   8.240
  521POPC   C3A11777   9.004  42.367   7.909
  521POPC   C4A11778   8.935  42.659   7.572
  521POPC   C1B11779   9.262  41.917   8.776
  521POPC   C2B11780   9.201  42.083   8.336
  521POPC   C3B11781   9.211  41.892   7.915
  521POPC   C4B11782   8.985  41.946   7.534
  522POPC   NC311783  33.872  22.678   9.421
  522POPC   PO411784  33.562  23.193   9.500
  522POPC   GL111785  33.735  23.129   9.112
  522POPC   GL211786  34.075  23.049   9.102
  522POPC   C1A11787  33.825  23.200   8.688
  522POPC   D2A11788  33.564  23.004   8.416
  522POPC   C3A11789  33.610  23.060   7.990
  522POPC   C4A11790  33.719  22.717   7.772
  522POPC   C1B11791  34.049  22.721   8.758
  522POPC   C2B11792  34.044  22.805   8.299
  522POPC   C3B11793  34.150  22.971   7.878
  522POPC   C4B11794  34.056  22.915   7.392
  523POPC   NC311795   9.087   1.588   9.462
  523POPC   PO411796   8.778   2.205   9.649
  523POPC   GL111797   8.899   2.182   9.209
  523POPC   GL211798   8.783   1.870   9.116
  523POPC   C1A11799   9.226   2.013   8.898
  523POPC   D2A11800   9.424   2.192   8.508
  523POPC   C3A11801   9.289   2.188   8.063
  523POPC   C4A11802   9.158   2.237   7.633
  523POPC   C1B11803   8.767   2.030   8.693
  523POPC   C2B11804   8.945   1.883   8.286
  523POPC   C3B11805   8.966   1.817   7.815
  523POPC   C4B11806   8.769   1.949   7.418
  524POPC   NC311807   2.200   8.105   9.426
  524POPC   PO411808   1.545   8.410   9.398
  524POPC   GL111809   1.818   8.215   9.095
  524POPC   GL211810   1.725   7.892   9.022
  524POPC   C1A11811   2.114   8.293   8.750
  524POPC   D2A11812   2.362   8.625   8.495
  524POPC   C3A11813   2.230   8.610   8.068
  524POPC   C4A11814   2.143   8.239   7.846
  524POPC   C1B11815   1.999   7.798   8.671
  524POPC   C2B11816   2.241   7.640   8.303
  524POPC   C3B11817   2.264   7.748   7.905
  524POPC   C4B11818   1.847   7.833   7.734
  525POPC   NC311819  38.657  12.867   9.277
  525POPC   PO411820  39.346  13.051   9.528
  525POPC   GL111821  39.155  12.956   9.154
  525POPC   GL211822  39.472  12.849   9.018
  525POPC   C1A11823  39.130  13.078   8.716
  525POPC   D2A11824  39.442  12.864   8.458
  525POPC   C3A11825  39.220  12.854   8.137
  525POPC   C4A11826  39.218  12.917   7.745
  525POPC   C1B11827  39.168  12.583   8.777
  525POPC   C2B11828  39.174  12.373   8.372
  525POPC   C3B11829  39.108  12.399   7.920
  525POPC   C4B11830  39.038  12.502   7.476
  526POPC   NC311831  29.339   6.981   9.496
  526POPC   PO411832  28.865   7.544   9.423
  526POPC   GL111833  29.118   7.420   9.103
  526POPC   GL211834  28.999   7.061   9.136
  526POPC   C1A11835  29.102   7.643   8.697
  526POPC   D2A11836  28.840   7.769   8.342
  526POPC   C3A11837  28.906   7.564   7.935
  526POPC   C4A11838  29.199   7.573   7.574
  526POPC   C1B11839  29.228   7.079   8.737
  526POPC   C2B11840  29.087   7.259   8.356
  526POPC   C3B11841  29.137   7.080   7.993
  526POPC   C4B11842  29.375   7.071   7.641
  527POPC   NC311843  12.531  35.226   9.592
  527POPC   PO411844  13.120  35.507   9.784
  527POPC   GL111845  12.955  35.352   9.310
  527POPC   GL211846  13.157  35.416   9.004
  527POPC   C1A11847  12.691  35.229   8.916
  527POPC   D2A11848  12.877  35.251   8.514
  527POPC   C3A11849  12.679  35.071   8.153
  527POPC   C4A11850  12.832  35.272   7.786
  527POPC   C1B11851  12.835  35.709   8.788
  527POPC   C2B11852  12.810  35.787   8.338
  527POPC   C3B11853  13.135  35.655   8.009
  527POPC   C4B11854  13.114  35.605   7.543
  528POPC   NC311855  26.145  17.097   9.399
  528POPC   PO411856  25.866  17.768   9.439
  528POPC   GL111857  25.937  17.487   9.139
  528POPC   GL211858  25.649  17.264   9.193
  528POPC   C1A11859  26.142  17.474   8.745
  528POPC   D2A11860  26.188  17.436   8.313
  528POPC   C3A11861  26.235  17.765   8.051
  528POPC   C4A11862  26.240  17.555   7.655
  528POPC   C1B11863  25.568  17.531   8.800
  528POPC   C2B11864  25.684  17.583   8.356
  528POPC   C3B11865  25.808  17.475   7.909
  528POPC   C4B11866  25.764  17.574   7.440
  529POPC   NC311867  39.093  10.572   9.741
  529POPC   PO411868  39.594  10.251   9.464
  529POPC   GL111869  39.375  10.499   9.159
  529POPC   GL211870  39.035  10.655   9.226
  529POPC   C1A11871  39.486  10.527   8.704
  529POPC   D2A11872  39.669  10.325   8.328
  529POPC   C3A11873  39.480  10.480   7.928
  529POPC   C4A11874  39.469  10.951   7.861
  529POPC   C1B11875  38.990  10.525   8.783
  529POPC   C2B11876  38.829  10.537   8.332
  529POPC   C3B11877  39.017  10.708   7.949
  529POPC   C4B11878  39.076  10.914   7.547
  530POPC   NC311879  44.412   5.311   9.521
  530POPC   PO411880  44.438   4.678   9.402
  530POPC   GL111881  44.671   5.003   9.103
  530POPC   GL211882  44.722   5.397   9.101
  530POPC   C1A11883  44.527   5.185   8.682
  530POPC   D2A11884  44.204   5.281   8.373
  530POPC   C3A11885  44.395   5.417   8.015
  530POPC   C4A11886  44.613   5.237   7.677
  530POPC   C1B11887   0.031   5.266   8.803
  530POPC   C2B11888  44.984   4.968   8.501
  530POPC   C3B11889  44.845   5.121   8.122
  530POPC   C4B11890   0.120   5.244   7.812
  531POPC   NC311891  44.378  32.455   9.474
  531POPC   PO411892  43.857  32.070   9.496
  531POPC   GL111893  44.027  32.237   9.170
  531POPC   GL211894  44.162  31.960   9.099
  531POPC   C1A11895  44.203  32.346   8.775
  531POPC   D2A11896  44.088  32.498   8.380
  531POPC   C3A11897  44.171  32.334   8.011
  531POPC   C4A11898  43.942  32.442   7.642
  531POPC   C1B11899  43.956  31.868   8.765
  531POPC   C2B11900  43.982  31.983   8.378
  531POPC   C3B11901  43.763  32.016   8.034
  531POPC   C4B11902  43.970  31.937   7.705
  532POPC   NC311903  17.062  39.303   9.565
  532POPC   PO411904  17.705  38.947   9.621
  532POPC   GL111905  17.673  39.164   9.232
  532POPC   GL211906  17.353  39.005   9.159
  532POPC   C1A11907  17.527  39.428   8.874
  532POPC   D2A11908  17.270  39.691   8.594
  532POPC   C3A11909  17.419  39.547   8.207
  532POPC   C4A11910  17.673  39.311   7.936
  532POPC   C1B11911  17.605  38.947   8.772
  532POPC   C2B11912  17.493  39.037   8.369
  532POPC   C3B11913  17.284  38.992   7.986
  532POPC   C4B11914  17.654  38.811   7.823
  533POPC   NC311915  43.658  42.191   9.328
  533POPC   PO411916  44.197  42.532   9.542
  533POPC   GL111917  44.046  42.484   9.140
  533POPC   GL211918  44.120  42.144   9.089
  533POPC   C1A11919  43.855  42.418   8.723
  533POPC   D2A11920  43.929  42.356   8.281
  533POPC   C3A11921  43.624  42.553   7.983
  533POPC   C4A11922  43.907  42.559   7.615
  533POPC   C1B11923  44.317  41.886   8.785
  533POPC   C2B11924  44.425  41.818   8.338
  533POPC   C3B11925  44.223  42.001   7.969
  533POPC   C4B11926  43.788  42.099   7.836
  534POPC   NC311927  14.130  33.660   9.526
  534POPC   PO411928  14.814  33.825   9.568
  534POPC   GL111929  14.534  33.806   9.209
  534POPC   GL211930  14.170  33.812   9.066
  534POPC   C1A11931  14.612  33.710   8.804
  534POPC   D2A11932  14.552  33.932   8.453
  534POPC   C3A11933  14.700  33.781   8.049
  534POPC   C4A11934  14.813  34.134   7.806
  534POPC   C1B11935  14.118  33.680   8.669
  534POPC   C2B11936  14.272  33.565   8.254
  534POPC   C3B11937  14.228  33.651   7.831
  534POPC   C4B11938  14.138  33.347   7.528
  535POPC   NC311939  13.788  22.768   9.357
  535POPC   PO411940  14.316  23.036   9.578
  535POPC   GL111941  14.228  23.032   9.162
  535POPC   GL211942  14.332  23.349   9.086
  535POPC   C1A11943  14.478  22.950   8.784
  535POPC   D2A11944  14.579  22.746   8.431
  535POPC   C3A11945  14.461  22.850   8.064
  535POPC   C4A11946  14.434  22.683   7.700
  535POPC   C1B11947  14.144  23.322   8.727
  535POPC   C2B11948  14.180  23.135   8.366
  535POPC   C3B11949  13.987  22.985   8.013
  535POPC   C4B11950  14.091  23.041   7.546
  536POPC   NC311951   1.150  41.795   9.481
  536POPC   PO411952   1.219  41.055   9.489
  536POPC   GL111953   1.273  41.235   9.137
  536POPC   GL211954   1.392  41.575   9.099
  536POPC   C1A11955   1.206  41.299   8.729
  536POPC   D2A11956   1.465  41.485   8.405
  536POPC   C3A11957   1.215  41.472   8.032
  536POPC   C4A11958   1.179  41.326   7.616
  536POPC   C1B11959   1.255  41.811   8.749
  536POPC   C2B11960   1.439  42.054   8.449
  536POPC   C3B11961   1.559  41.882   8.054
  536POPC   C4B11962   1.399  41.774   7.658
  537POPC   NC311963  33.257  44.184   9.403
  537POPC   PO411964  33.330  43.518   9.311
  537POPC   GL111965  33.098  43.832   9.060
  537POPC   GL211966  32.757  43.933   9.143
  537POPC   C1A11967  33.262  43.946   8.663
  537POPC   D2A11968  33.332  43.679   8.326
  537POPC   C3A11969  33.024  43.653   8.008
  537POPC   C4A11970  33.189  43.872   7.659
  537POPC   C1B11971  32.830  44.186   8.740
  537POPC   C2B11972  32.846  44.046   8.332
  537POPC   C3B11973  33.097  44.203   8.044
  537POPC   C4B11974  33.002  44.358   7.683
  538POPC   NC311975  39.477   9.752   9.370
  538POPC   PO411976  38.815   9.636   9.584
  538POPC   GL111977  38.966   9.716   9.213
  538POPC   GL211978  39.103   9.374   9.183
  538POPC   C1A11979  39.060  10.018   8.869
  538POPC   D2A11980  38.987  10.045   8.414
  538POPC   C3A11981  39.318  10.018   8.124
  538POPC   C4A11982  39.351   9.852   7.733
  538POPC   C1B11983  39.010   9.519   8.753
  538POPC   C2B11984  39.234   9.570   8.373
  538POPC   C3B11985  39.007   9.610   8.004
  538POPC   C4B11986  38.807   9.387   7.676
  539POPC   NC311987  17.088  33.494   9.808
  539POPC   PO411988  16.714  33.048   9.472
  539POPC   GL111989  16.484  33.181   9.102
  539POPC   GL211990  16.429  32.823   9.102
  539POPC   C1A11991  16.564  33.335   8.691
  539POPC   D2A11992  16.903  33.241   8.428
  539POPC   C3A11993  16.774  33.291   8.001
  539POPC   C4A11994  16.889  33.364   7.569
  539POPC   C1B11995  16.742  32.872   8.768
  539POPC   C2B11996  16.633  32.825   8.351
  539POPC   C3B11997  16.810  32.778   7.944
  539POPC   C4B11998  16.445  32.973   7.752
  540POPC   NC311999  10.092  12.597   9.634
  540POPC   PO412000  10.722  12.988   9.743
  540POPC   GL112001  10.504  12.893   9.355
  540POPC   GL212002  10.806  12.814   9.218
  540POPC   C1A12003  10.404  12.963   8.896
  540POPC   D2A12004  10.275  12.935   8.447
  540POPC   C3A12005  10.478  12.969   8.019
  540POPC   C4A12006  10.377  12.846   7.582
  540POPC   C1B12007  10.739  12.574   8.866
  540POPC   C2B12008  10.733  12.705   8.461
  540POPC   C3B12009  10.832  12.588   8.068
  540POPC   C4B12010  10.894  12.356   7.706
  541POPC   NC312011   7.328  21.992   9.605
  541POPC   PO412012   7.864  22.343   9.473
  541POPC   GL112013   7.600  22.285   9.132
  541POPC   GL212014   7.456  21.944   9.078
  541POPC   C1A12015   7.373  22.448   8.780
  541POPC   D2A12016   7.247  22.172   8.443
  541POPC   C3A12017   7.293  22.334   8.037
  541POPC   C4A12018   7.295  22.221   7.621
  541POPC   C1B12019   7.691  21.980   8.666
  541POPC   C2B12020   7.646  21.952   8.198
  541POPC   C3B12021   7.384  21.794   7.867
  541POPC   C4B12022   7.497  21.802   7.401
  542POPC   NC312023  39.128   3.020   9.817
  542POPC   PO412024  39.576   2.543   9.740
  542POPC   GL112025  39.390   2.596   9.301
  542POPC   GL212026  39.022   2.484   9.201
  542POPC   C1A12027  39.407   2.574   8.851
  542POPC   D2A12028  39.097   2.680   8.546
  542POPC   C3A12029  39.343   2.742   8.191
  542POPC   C4A12030  39.471   2.818   7.789
  542POPC   C1B12031  38.896   2.238   8.801
  542POPC   C2B12032  38.829   2.288   8.340
  542POPC   C3B12033  39.003   2.436   7.970
  542POPC   C4B12034  38.980   2.787   7.726
  543POPC   NC312035  20.117  10.007   9.458
  543POPC   PO412036  19.652   9.505   9.525
  543POPC   GL112037  19.849   9.670   9.193
  543POPC   GL212038  20.178   9.510   9.255
  543POPC   C1A12039  19.909   9.898   8.831
  543POPC   D2A12040  19.827   9.771   8.445
  543POPC   C3A12041  19.950   9.915   8.078
  543POPC   C4A12042  19.713   9.865   7.748
  543POPC   C1B12043  20.121   9.402   8.830
  543POPC   C2B12044  19.936   9.245   8.441
  543POPC   C3B12045  19.892   9.426   8.053
  543POPC   C4B12046  20.041   9.439   7.674
  544POPC   NC312047  13.240  41.285   9.565
  544POPC   PO412048  12.606  41.538   9.467
  544POPC   GL112049  12.708  41.702   9.096
  544POPC   GL212050  13.072  41.664   9.143
  544POPC   C1A12051  12.821  41.687   8.668
  544POPC   D2A12052  13.182  41.778   8.430
  544POPC   C3A12053  13.046  41.870   7.990
  544POPC   C4A12054  12.598  41.903   7.904
  544POPC   C1B12055  13.149  41.297   8.854
  544POPC   C2B12056  12.984  41.244   8.454
  544POPC   C3B12057  12.755  41.467   8.158
  544POPC   C4B12058  12.856  41.464   7.721
  545POPC   NC312059  42.430   1.724   9.342
  545POPC   PO412060  42.048   2.224   9.522
  545POPC   GL112061  42.128   2.088   9.122
  545POPC   GL212062  41.966   1.763   9.123
  545POPC   C1A12063  42.437   2.137   8.774
  545POPC   D2A12064  42.573   2.021   8.362
  545POPC   C3A12065  42.341   2.104   8.035
  545POPC   C4A12066  42.342   2.290   7.665
  545POPC   C1B12067  42.197   1.666   8.735
  545POPC   C2B12068  42.381   1.539   8.335
  545POPC   C3B12069  42.590   1.614   7.967
  545POPC   C4B12070  42.384   1.797   7.638
  546POPC   NC312071  17.831   1.104   9.470
  546POPC   PO412072  17.238   1.334   9.655
  546POPC   GL112073  17.452   1.364   9.227
  546POPC   GL212074  17.475   1.020   9.057
  546POPC   C1A12075  17.725   1.394   8.823
  546POPC   D2A12076  17.554   1.272   8.411
  546POPC   C3A12077  17.625   1.473   8.008
  546POPC   C4A12078  17.432   1.311   7.621
  546POPC   C1B12079  17.700   0.837   8.674
  546POPC   C2B12080  17.661   0.798   8.228
  546POPC   C3B12081  17.819   1.031   7.882
  546POPC   C4B12082  17.770   0.995   7.423
  547POPC   NC312083  17.039   2.629  10.016
  547POPC   PO412084  17.404   2.285   9.514
  547POPC   GL112085  17.492   2.548   9.091
  547POPC   GL212086  17.858   2.659   9.123
  547POPC   C1A12087  17.532   2.830   8.692
  547POPC   D2A12088  17.501   2.920   8.219
  547POPC   C3A12089  17.233   2.743   7.882
  547POPC   C4A12090  17.075   2.731   7.455
  547POPC   C1B12091  17.832   2.429   8.726
  547POPC   C2B12092  17.535   2.405   8.377
  547POPC   C3B12093  17.655   2.454   7.963
  547POPC   C4B12094  17.579   2.567   7.540
  548POPC   NC312095  26.047   6.452   9.429
  548POPC   PO412096  26.396   7.040   9.412
  548POPC   GL112097  26.298   6.800   9.020
  548POPC   GL212098  26.441   6.491   9.065
  548POPC   C1A12099  26.109   6.784   8.577
  548POPC   D2A12100  25.832   6.896   8.204
  548POPC   C3A12101  25.976   6.817   7.775
  548POPC   C4A12102  25.843   6.501   7.455
  548POPC   C1B12103  26.229   6.291   8.707
  548POPC   C2B12104  26.106   6.372   8.240
  548POPC   C3B12105  26.193   6.355   7.787
  548POPC   C4B12106  26.368   6.614   7.434
  549POPC   NC312107  27.671  10.299   9.525
  549POPC   PO412108  27.561  10.972   9.485
  549POPC   GL112109  27.695  10.664   9.175
  549POPC   GL212110  27.443  10.398   9.094
  549POPC   C1A12111  27.792  10.612   8.762
  549POPC   D2A12112  27.709  10.792   8.400
  549POPC   C3A12113  27.833  10.639   8.049
  549POPC   C4A12114  27.761  10.662   7.649
  549POPC   C1B12115  27.281  10.723   8.872
  549POPC   C2B12116  27.197  10.890   8.459
  549POPC   C3B12117  27.350  10.922   8.050
  549POPC   C4B12118  27.243  10.746   7.667
  550POPC   NC312119   9.596  13.134   9.611
  550POPC   PO412120   9.701  12.501   9.404
  550POPC   GL112121   9.621  12.656   9.077
  550POPC   GL212122   9.940  12.850   9.090
  550POPC   C1A12123   9.732  12.590   8.657
  550POPC   D2A12124   9.822  12.793   8.267
  550POPC   C3A12125   9.773  12.599   7.870
  550POPC   C4A12126  10.014  12.460   7.507
  550POPC   C1B12127   9.610  13.085   8.840
  550POPC   C2B12128   9.450  13.131   8.420
  550POPC   C3B12129   9.641  13.216   8.024
  550POPC   C4B12130   9.427  13.216   7.658
  551POPC   NC312131  34.176  13.869   9.382
  551POPC   PO412132  34.844  13.857   9.603
  551POPC   GL112133  34.630  13.839   9.208
  551POPC   GL212134  34.625  13.518   9.114
  551POPC   C1A12135  34.773  13.915   8.787
  551POPC   D2A12136  34.800  13.733   8.359
  551POPC   C3A12137  34.465  13.908   8.072
  551POPC   C4A12138  34.352  13.766   7.659
  551POPC   C1B12139  34.331  13.606   8.766
  551POPC   C2B12140  34.239  13.527   8.328
  551POPC   C3B12141  34.477  13.367   7.963
  551POPC   C4B12142  34.688  13.265   7.549
  552POPC   NC312143   7.833  13.154   9.418
  552POPC   PO412144   8.243  12.629   9.466
  552POPC   GL112145   8.056  12.772   9.117
  552POPC   GL212146   8.278  13.080   9.129
  552POPC   C1A12147   8.160  12.867   8.681
  552POPC   D2A12148   8.419  12.961   8.319
  552POPC   C3A12149   8.121  13.005   7.985
  552POPC   C4A12150   7.949  12.754   7.647
  552POPC   C1B12151   8.513  13.324   8.808
  552POPC   C2B12152   8.623  13.530   8.421
  552POPC   C3B12153   8.563  13.392   8.044
  552POPC   C4B12154   8.452  13.263   7.653
  553POPC   NC312155  29.256  24.184   9.480
  553POPC   PO412156  28.958  23.593   9.660
  553POPC   GL112157  29.156  23.651   9.247
  553POPC   GL212158  28.919  23.904   9.221
  553POPC   C1A12159  29.363  23.592   8.817
  553POPC   D2A12160  29.132  23.536   8.409
  553POPC   C3A12161  29.351  23.512   7.996
  553POPC   C4A12162  28.988  23.501   7.758
  553POPC   C1B12163  28.904  23.855   8.800
  553POPC   C2B12164  29.201  24.041   8.547
  553POPC   C3B12165  29.195  23.991   8.141
  553POPC   C4B12166  29.203  23.970   7.743
  554POPC   NC312167  12.112  20.694   9.416
  554POPC   PO412168  12.069  19.991   9.475
  554POPC   GL112169  12.223  20.187   9.092
  554POPC   GL212170  12.278  20.555   8.968
  554POPC   C1A12171  12.079  20.206   8.675
  554POPC   D2A12172  12.244  20.508   8.428
  554POPC   C3A12173  12.077  20.311   8.083
  554POPC   C4A12174  12.064  20.381   7.674
  554POPC   C1B12175  11.870  20.676   8.777
  554POPC   C2B12176  11.733  20.554   8.383
  554POPC   C3B12177  11.939  20.810   8.104
  554POPC   C4B12178  11.873  20.847   7.704
  555POPC   NC312179  16.970  11.666   9.873
  555POPC   PO412180  16.623  12.153   9.589
  555POPC   GL112181  16.553  12.195   9.156
  555POPC   GL212182  16.897  12.081   9.115
  555POPC   C1A12183  16.422  12.308   8.717
  555POPC   D2A12184  16.683  12.414   8.337
  555POPC   C3A12185  16.660  12.168   7.947
  555POPC   C4A12186  16.518  12.200   7.526
  555POPC   C1B12187  16.742  11.896   8.722
  555POPC   C2B12188  16.888  11.860   8.295
  555POPC   C3B12189  17.023  11.728   7.891
  555POPC   C4B12190  16.723  11.734   7.566
  556POPC   NC312191  10.741  13.330   9.430
  556POPC   PO412192  10.417  13.916   9.724
  556POPC   GL112193  10.492  13.797   9.259
  556POPC   GL212194  10.509  13.471   9.025
  556POPC   C1A12195  10.409  13.912   8.810
  556POPC   D2A12196  10.270  13.609   8.474
  556POPC   C3A12197  10.454  13.514   8.050
  556POPC   C4A12198  10.412  13.745   7.673
  556POPC   C1B12199  10.833  13.209   8.810
  556POPC   C2B12200  10.749  13.219   8.400
  556POPC   C3B12201  10.941  13.210   8.024
  556POPC   C4B12202  10.954  12.929   7.690
  557POPC   NC312203  38.109  29.714   9.439
  557POPC   PO412204  38.728  29.951   9.349
  557POPC   GL112205  38.438  29.925   9.020
  557POPC   GL212206  38.093  30.061   9.046
  557POPC   C1A12207  38.570  29.870   8.606
  557POPC   D2A12208  38.587  30.073   8.231
  557POPC   C3A12209  38.590  29.844   7.872
  557POPC   C4A12210  38.685  29.980   7.481
  557POPC   C1B12211  38.194  30.232   8.616
  557POPC   C2B12212  38.160  30.328   8.162
  557POPC   C3B12213  38.073  30.062   7.790
  557POPC   C4B12214  38.245  30.198   7.346
  558POPC   NC312215  10.598  18.677   9.398
  558POPC   PO412216  10.359  18.009   9.377
  558POPC   GL112217  10.158  18.346   9.142
  558POPC   GL212218  10.374  18.568   8.948
  558POPC   C1A12219  10.097  18.192   8.732
  558POPC   D2A12220  10.281  17.961   8.362
  558POPC   C3A12221  10.077  18.110   7.993
  558POPC   C4A12222  10.128  18.545   7.857
  558POPC   C1B12223  10.620  18.184   8.755
  558POPC   C2B12224  10.808  18.062   8.335
  558POPC   C3B12225  10.672  18.131   7.887
  558POPC   C4B12226  10.740  18.057   7.423
  559POPC   NC312227  20.275  26.413   9.569
  559POPC   PO412228  20.496  26.969   9.745
  559POPC   GL112229  20.564  26.775   9.316
  559POPC   GL212230  20.813  26.508   9.228
  559POPC   C1A12231  20.452  26.803   8.878
  559POPC   D2A12232  20.657  26.719   8.485
  559POPC   C3A12233  20.482  26.926   8.115
  559POPC   C4A12234  20.271  26.775   7.737
  559POPC   C1B12235  20.959  26.831   8.908
  559POPC   C2B12236  21.119  26.934   8.481
  559POPC   C3B12237  20.982  26.833   8.071
  559POPC   C4B12238  20.774  26.958   7.682
  560POPC   NC312239  12.681  31.923   9.555
  560POPC   PO412240  13.042  32.438   9.566
  560POPC   GL112241  12.869  32.249   9.153
  560POPC   GL212242  12.524  32.074   9.114
  560POPC   C1A12243  12.678  32.403   8.746
  560POPC   D2A12244  12.446  32.298   8.375
  560POPC   C3A12245  12.675  32.322   7.949
  560POPC   C4A12246  12.873  32.534   7.551
  560POPC   C1B12247  12.589  31.910   8.710
  560POPC   C2B12248  12.817  31.939   8.333
  560POPC   C3B12249  12.670  31.800   7.974
  560POPC   C4B12250  12.764  31.899   7.588
  561POPC   NC312251   3.211  25.308   9.758
  561POPC   PO412252   3.788  25.264   9.416
  561POPC   GL112253   3.551  25.148   9.092
  561POPC   GL212254   3.307  24.934   9.110
  561POPC   C1A12255   3.612  25.039   8.713
  561POPC   D2A12256   3.377  24.994   8.377
  561POPC   C3A12257   3.660  25.160   8.066
  561POPC   C4A12258   3.931  25.275   7.710
  561POPC   C1B12259   3.115  25.255   8.842
  561POPC   C2B12260   2.995  25.440   8.466
  561POPC   C3B12261   3.142  25.344   8.064
  561POPC   C4B12262   3.441  25.561   7.797
  562POPC   NC312263  12.268   7.029   9.467
  562POPC   PO412264  11.818   7.577   9.657
  562POPC   GL112265  11.894   7.343   9.281
  562POPC   GL212266  12.216   7.411   9.129
  562POPC   C1A12267  11.808   7.372   8.835
  562POPC   D2A12268  11.887   7.643   8.472
  562POPC   C3A12269  11.866   7.449   8.065
  562POPC   C4A12270  12.179   7.561   7.789
  562POPC   C1B12271  12.355   7.227   8.714
  562POPC   C2B12272  12.323   7.254   8.230
  562POPC   C3B12273  12.523   7.182   7.806
  562POPC   C4B12274  12.771   7.346   7.414
  563POPC   NC312275   9.035  34.347   9.802
  563POPC   PO412276   8.934  33.772   9.547
  563POPC   GL112277   8.933  33.775   9.116
  563POPC   GL212278   8.613  33.664   9.079
  563POPC   C1A12279   9.115  34.049   8.781
  563POPC   D2A12280   9.148  33.921   8.337
  563POPC   C3A12281   8.976  34.059   7.929
  563POPC   C4A12282   9.238  33.934   7.602
  563POPC   C1B12283   8.795  33.677   8.642
  563POPC   C2B12284   8.658  33.808   8.235
  563POPC   C3B12285   8.824  33.585   7.884
  563POPC   C4B12286   9.006  33.474   7.533
  564POPC   NC312287  11.602  34.639   9.375
  564POPC   PO412288  10.936  34.957   9.334
  564POPC   GL112289  11.109  34.793   8.970
  564POPC   GL212290  11.335  34.513   8.979
  564POPC   C1A12291  10.985  34.531   8.640
  564POPC   D2A12292  11.363  34.399   8.396
  564POPC   C3A12293  11.268  34.481   7.970
  564POPC   C4A12294  11.343  34.610   7.540
  564POPC   C1B12295  11.616  34.804   8.745
  564POPC   C2B12296  11.759  34.851   8.317
  564POPC   C3B12297  11.605  34.886   7.872
  564POPC   C4B12298  11.501  35.060   7.391
  565POPC   NC312299  25.899   4.656   9.585
  565POPC   PO412300  25.961   4.116   9.523
  565POPC   GL112301  25.930   4.380   9.127
  565POPC   GL212302  25.738   4.700   9.108
  565POPC   C1A12303  25.986   4.404   8.665
  565POPC   D2A12304  26.145   4.575   8.253
  565POPC   C3A12305  26.066   4.329   7.881
  565POPC   C4A12306  25.882   4.022   7.585
  565POPC   C1B12307  25.556   4.688   8.714
  565POPC   C2B12308  25.631   4.552   8.296
  565POPC   C3B12309  25.695   4.711   7.894
  565POPC   C4B12310  25.912   4.640   7.518
  566POPC   NC312311  17.340  30.974   9.585
  566POPC   PO412312  17.828  31.404   9.524
  566POPC   GL112313  17.618  31.154   9.205
  566POPC   GL212314  17.577  30.790   9.184
  566POPC   C1A12315  17.469  31.123   8.797
  566POPC   D2A12316  17.676  30.905   8.454
  566POPC   C3A12317  17.527  30.892   8.020
  566POPC   C4A12318  17.676  30.892   7.594
  566POPC   C1B12319  17.415  30.602   8.810
  566POPC   C2B12320  17.563  30.397   8.471
  566POPC   C3B12321  17.577  30.385   8.031
  566POPC   C4B12322  17.567  30.354   7.569
  567POPC   NC312323  18.739  12.516   9.535
  567POPC   PO412324  19.068  11.871   9.525
  567POPC   GL112325  18.975  12.144   9.200
  567POPC   GL212326  19.262  12.377   9.197
  567POPC   C1A12327  18.826  12.251   8.788
  567POPC   D2A12328  18.697  12.047   8.418
  567POPC   C3A12329  18.857  12.133   8.026
  567POPC   C4A12330  19.074  12.484   7.868
  567POPC   C1B12331  19.316  12.093   8.811
  567POPC   C2B12332  19.226  12.136   8.407
  567POPC   C3B12333  19.362  12.044   8.018
  567POPC   C4B12334  19.202  12.041   7.637
  568POPC   NC312335  38.210  12.915   9.652
  568POPC   PO412336  38.396  12.463   9.224
  568POPC   GL112337  38.344  12.767   8.916
  568POPC   GL212338  38.236  12.578   8.702
  568POPC   C1A12339  38.653  12.872   8.579
  568POPC   D2A12340  38.769  12.633   8.235
  568POPC   C3A12341  38.752  12.757   7.857
  568POPC   C4A12342  38.792  13.160   7.917
  568POPC   C1B12343  37.948  12.954   8.681
  568POPC   C2B12344  38.004  13.182   8.324
  568POPC   C3B12345  38.350  12.940   8.143
  568POPC   C4B12346  38.305  12.546   7.880
  569POPC   NC312347  30.496   4.658   9.644
  569POPC   PO412348  30.748   4.076   9.545
  569POPC   GL112349  30.854   4.460   9.305
  569POPC   GL212350  30.557   4.607   9.128
  569POPC   C1A12351  31.013   4.450   8.889
  569POPC   D2A12352  30.927   4.245   8.507
  569POPC   C3A12353  30.935   4.522   8.138
  569POPC   C4A12354  30.783   4.391   7.771
  569POPC   C1B12355  30.506   4.472   8.665
  569POPC   C2B12356  30.495   4.266   8.220
  569POPC   C3B12357  30.300   4.289   7.798
  569POPC   C4B12358  30.361   4.593   7.439
  570POPC   NC312359  29.710  41.345   9.495
  570POPC   PO412360  30.143  41.803   9.428
  570POPC   GL112361  30.076  41.647   9.007
  570POPC   GL212362  29.952  41.332   9.050
  570POPC   C1A12363  30.094  41.628   8.552
  570POPC   D2A12364  29.958  41.414   8.198
  570POPC   C3A12365  30.128  41.509   7.806
  570POPC   C4A12366  29.950  41.753   7.439
  570POPC   C1B12367  29.704  41.330   8.676
  570POPC   C2B12368  29.456  41.167   8.354
  570POPC   C3B12369  29.657  41.063   7.974
  570POPC   C4B12370  29.695  41.306   7.606
  571POPC   NC312371  14.495  15.031   9.459
  571POPC   PO412372  14.040  15.616   9.548
  571POPC   GL112373  14.265  15.552   9.085
  571POPC   GL212374  14.581  15.379   9.071
  571POPC   C1A12375  14.315  15.457   8.633
  571POPC   D2A12376  14.599  15.284   8.344
  571POPC   C3A12377  14.478  15.413   7.949
  571POPC   C4A12378  14.072  15.422   7.764
  571POPC   C1B12379  14.499  15.010   8.808
  571POPC   C2B12380  14.306  14.856   8.466
  571POPC   C3B12381  14.238  14.979   8.067
  571POPC   C4B12382  13.934  14.913   7.770
  572POPC   NC312383  33.806  43.379   9.310
  572POPC   PO412384  33.611  43.981   9.645
  572POPC   GL112385  33.864  43.907   9.273
  572POPC   GL212386  33.610  43.897   9.072
  572POPC   C1A12387  34.117  43.870   8.830
  572POPC   D2A12388  34.115  44.120   8.391
  572POPC   C3A12389  34.074  43.884   7.972
  572POPC   C4A12390  33.788  43.534   7.840
  572POPC   C1B12391  33.726  44.186   8.749
  572POPC   C2B12392  33.546  44.243   8.344
  572POPC   C3B12393  33.566  43.987   7.998
  572POPC   C4B12394  33.681  43.960   7.588
  573POPC   NC312395   1.089   0.608   9.707
  573POPC   PO412396   1.461   0.004   9.540
  573POPC   GL112397   1.397   0.234   9.139
  573POPC   GL212398   1.334   0.587   9.007
  573POPC   C1A12399   1.152   0.179   8.741
  573POPC   D2A12400   1.144   0.275   8.321
  573POPC   C3A12401   1.477   0.422   8.076
  573POPC   C4A12402   1.390   0.333   7.642
  573POPC   C1B12403   0.996   0.699   8.696
  573POPC   C2B12404   0.884   0.698   8.264
  573POPC   C3B12405   1.054   0.649   7.844
  573POPC   C4B12406   1.068   0.629   7.368
  574POPC   NC312407  10.212  20.299   9.566
  574POPC   PO412408  10.654  20.776   9.453
  574POPC   GL112409  10.562  20.595   9.121
  574POPC   GL212410  10.673  20.288   9.206
  574POPC   C1A12411  10.629  20.495   8.725
  574POPC   D2A12412  10.852  20.421   8.389
  574POPC   C3A12413  10.726  20.665   8.063
  574POPC   C4A12414  10.614  20.673   7.635
  574POPC   C1B12415  10.335  20.118   8.949
  574POPC   C2B12416  10.262  20.122   8.528
  574POPC   C3B12417  10.455  20.203   8.173
  574POPC   C4B12418  10.300  20.377   7.861
  575POPC   NC312419   1.861   1.033   9.456
  575POPC   PO412420   2.330   1.491   9.385
  575POPC   GL112421   2.094   1.281   9.043
  575POPC   GL212422   1.770   1.034   8.960
  575POPC   C1A12423   2.081   1.271   8.598
  575POPC   D2A12424   1.743   1.322   8.313
  575POPC   C3A12425   1.874   1.340   7.892
  575POPC   C4A12426   2.223   1.374   7.588
  575POPC   C1B12427   2.181   0.817   8.849
  575POPC   C2B12428   2.377   0.888   8.426
  575POPC   C3B12429   2.230   1.027   8.021
  575POPC   C4B12430   2.147   0.875   7.564
  576POPC   NC312431  36.253  36.751   9.441
  576POPC   PO412432  35.752  37.124   9.460
  576POPC   GL112433  36.042  37.008   9.072
  576POPC   GL212434  36.380  37.201   9.153
  576POPC   C1A12435  36.161  36.668   8.737
  576POPC   D2A12436  35.902  36.479   8.360
  576POPC   C3A12437  35.915  36.749   7.956
  576POPC   C4A12438  36.069  36.972   7.546
  576POPC   C1B12439  36.421  37.334   8.733
  576POPC   C2B12440  36.272  37.092   8.373
  576POPC   C3B12441  36.394  36.960   7.948
  576POPC   C4B12442  36.540  37.186   7.571
  577POPC   NC312443   2.565  21.202   9.451
  577POPC   PO412444   2.647  21.852   9.246
  577POPC   GL112445   2.827  21.503   9.040
  577POPC   GL212446   2.933  21.158   9.065
  577POPC   C1A12447   3.124  21.519   8.705
  577POPC   D2A12448   3.256  21.660   8.303
  577POPC   C3A12449   2.961  21.441   8.006
  577POPC   C4A12450   2.527  21.607   7.911
  577POPC   C1B12451   2.563  21.125   8.763
  577POPC   C2B12452   2.263  21.058   8.404
  577POPC   C3B12453   2.369  20.901   7.984
  577POPC   C4B12454   2.620  21.134   7.712
  578POPC   NC312455   8.262  18.619   9.838
  578POPC   PO412456   8.232  19.225   9.502
  578POPC   GL112457   8.125  19.243   9.107
  578POPC   GL212458   7.927  19.519   9.041
  578POPC   C1A12459   8.126  18.973   8.755
  578POPC   D2A12460   8.374  18.742   8.457
  578POPC   C3A12461   8.343  18.896   8.065
  578POPC   C4A12462   8.332  18.884   7.610
  578POPC   C1B12463   8.217  19.499   8.671
  578POPC   C2B12464   8.240  19.406   8.247
  578POPC   C3B12465   8.418  19.353   7.867
  578POPC   C4B12466   8.497  19.370   7.427
  579POPC   NC312467  26.397  26.658   9.700
  579POPC   PO412468  27.000  26.536   9.770
  579POPC   GL112469  26.892  26.578   9.285
  579POPC   GL212470  26.591  26.489   9.090
  579POPC   C1A12471  27.020  26.630   8.798
  579POPC   D2A12472  27.214  26.850   8.395
  579POPC   C3A12473  27.045  26.928   7.947
  579POPC   C4A12474  27.121  27.053   7.489
  579POPC   C1B12475  26.505  26.721   8.695
  579POPC   C2B12476  26.633  26.876   8.283
  579POPC   C3B12477  26.573  26.771   7.845
  579POPC   C4B12478  26.479  26.745   7.395
  580POPC   NC312479  11.265   1.287   9.875
  580POPC   PO412480  10.937   0.832   9.511
  580POPC   GL112481  11.149   1.171   9.323
  580POPC   GL212482  11.466   1.137   9.198
  580POPC   C1A12483  11.112   1.328   8.874
  580POPC   D2A12484  11.179   1.178   8.455
  580POPC   C3A12485  11.144   1.484   8.138
  580POPC   C4A12486  11.130   1.458   7.702
  580POPC   C1B12487  11.621   1.267   8.761
  580POPC   C2B12488  11.631   1.447   8.337
  580POPC   C3B12489  11.613   1.367   7.884
  580POPC   C4B12490  11.863   1.105   7.578
  581POPC   NC312491   1.888  39.198   9.734
  581POPC   PO412492   1.176  39.145   9.564
  581POPC   GL112493   1.170  39.110   9.148
  581POPC   GL212494   1.062  39.459   9.105
  581POPC   C1A12495   1.061  39.112   8.714
  581POPC   D2A12496   1.228  38.989   8.289
  581POPC   C3A12497   0.977  39.087   7.874
  581POPC   C4A12498   0.835  39.002   7.391
  581POPC   C1B12499   1.063  39.687   8.740
  581POPC   C2B12500   1.131  39.493   8.356
  581POPC   C3B12501   1.352  39.625   8.012
  581POPC   C4B12502   1.213  39.659   7.629
  582POPC   NC312503  19.447   3.631   9.595
  582POPC   PO412504  19.039   3.159   9.570
  582POPC   GL112505  19.204   3.283   9.189
  582POPC   GL212506  18.840   3.210   9.098
  582POPC   C1A12507  19.156   3.419   8.750
  582POPC   D2A12508  19.301   3.603   8.389
  582POPC   C3A12509  19.153   3.444   8.012
  582POPC   C4A12510  18.989   3.692   7.673
  582POPC   C1B12511  18.790   3.054   8.704
  582POPC   C2B12512  18.744   3.333   8.365
  582POPC   C3B12513  18.675   3.252   7.940
  582POPC   C4B12514  18.948   3.183   7.609
  583POPC   NC312515  10.260  24.890   9.221
  583POPC   PO412516  10.376  25.357   9.708
  583POPC   GL112517  10.644  25.294   9.282
  583POPC   GL212518  10.818  24.963   9.268
  583POPC   C1A12519  10.587  25.242   8.786
  583POPC   D2A12520  10.270  25.008   8.573
  583POPC   C3A12521  10.147  25.171   8.161
  583POPC   C4A12522  10.274  25.537   7.917
  583POPC   C1B12523  11.031  24.956   8.866
  583POPC   C2B12524  10.976  25.157   8.496
  583POPC   C3B12525  10.651  25.174   8.246
  583POPC   C4B12526  10.612  25.173   7.833
  584POPC   NC312527   5.719  25.601   9.814
  584POPC   PO412528   6.162  25.978   9.499
  584POPC   GL112529   5.884  26.171   9.194
  584POPC   GL212530   6.006  26.507   9.207
  584POPC   C1A12531   5.771  26.033   8.751
  584POPC   D2A12532   5.858  25.717   8.417
  584POPC   C3A12533   5.793  25.897   8.002
  584POPC   C4A12534   5.822  26.140   7.619
  584POPC   C1B12535   6.140  26.380   8.785
  584POPC   C2B12536   6.153  26.169   8.386
  584POPC   C3B12537   6.112  26.359   7.993
  584POPC   C4B12538   6.329  26.258   7.635
  585POPC   NC312539  29.303  17.025   9.493
  585POPC   PO412540  28.935  17.591   9.446
  585POPC   GL112541  28.982  17.511   9.064
  585POPC   GL212542  29.319  17.525   9.053
  585POPC   C1A12543  28.849  17.645   8.692
  585POPC   D2A12544  29.030  17.889   8.392
  585POPC   C3A12545  28.912  17.717   8.003
  585POPC   C4A12546  29.120  17.330   7.870
  585POPC   C1B12547  29.524  17.819   8.761
  585POPC   C2B12548  29.617  17.920   8.323
  585POPC   C3B12549  29.446  17.709   7.957
  585POPC   C4B12550  29.470  17.607   7.485
  586POPC   NC312551  39.595   8.150   9.511
  586POPC   PO412552  39.939   8.678   9.433
  586POPC   GL112553  39.901   8.340   9.087
  586POPC   GL212554  39.618   8.139   9.015
  586POPC   C1A12555  40.009   8.031   8.712
  586POPC   D2A12556  39.905   8.095   8.258
  586POPC   C3A12557  40.146   8.010   7.867
  586POPC   C4A12558  40.367   8.032   7.463
  586POPC   C1B12559  39.528   8.241   8.600
  586POPC   C2B12560  39.628   8.519   8.277
  586POPC   C3B12561  39.804   8.421   7.893
  586POPC   C4B12562  39.611   8.089   7.799
  587POPC   NC312563  10.191  10.142   9.852
  587POPC   PO412564  10.583   9.774   9.429
  587POPC   GL112565  10.315   9.631   9.074
  587POPC   GL212566  10.525   9.866   8.933
  587POPC   C1A12567  10.321   9.624   8.575
  587POPC   D2A12568  10.753   9.614   8.415
  587POPC   C3A12569  10.679   9.610   8.002
  587POPC   C4A12570  10.286   9.532   7.752
  587POPC   C1B12571  10.525  10.151   8.639
  587POPC   C2B12572  10.658  10.189   8.248
  587POPC   C3B12573  10.352  10.142   7.958
  587POPC   C4B12574  10.146  10.004   7.599
  588POPC   NC312575  38.095  44.899   9.487
  588POPC   PO412576  38.658  44.436   9.360
  588POPC   GL112577  38.463  44.565   9.037
  588POPC   GL212578  38.138  44.516   9.123
  588POPC   C1A12579  38.515  44.503   8.618
  588POPC   D2A12580  38.341  44.741   8.314
  588POPC   C3A12581  38.577  44.665   7.992
  588POPC   C4A12582  38.750  44.697   7.615
  588POPC   C1B12583  38.025  44.743   8.751
  588POPC   C2B12584  37.863  44.968   8.380
  588POPC   C3B12585  38.031  44.932   7.954
  588POPC   C4B12586  38.235  44.690   7.613
  589POPC   NC312587  36.297  30.307   9.415
  589POPC   PO412588  36.331  30.932   9.456
  589POPC   GL112589  36.310  30.848   9.033
  589POPC   GL212590  36.067  30.648   9.097
  589POPC   C1A12591  36.331  30.716   8.570
  589POPC   D2A12592  36.143  30.996   8.235
  589POPC   C3A12593  36.189  31.047   7.793
  589POPC   C4A12594  36.104  30.739   7.483
  589POPC   C1B12595  36.007  30.351   8.752
  589POPC   C2B12596  35.964  30.428   8.316
  589POPC   C3B12597  36.214  30.513   7.950
  589POPC   C4B12598  36.597  30.318   7.755
  590POPC   NC312599  33.246  31.302   9.608
  590POPC   PO412600  33.204  31.969   9.451
  590POPC   GL112601  33.201  31.589   9.146
  590POPC   GL212602  32.967  31.278   9.178
  590POPC   C1A12603  33.390  31.422   8.734
  590POPC   D2A12604  33.362  31.619   8.283
  590POPC   C3A12605  33.227  31.567   7.842
  590POPC   C4A12606  32.801  31.659   7.724
  590POPC   C1B12607  32.887  31.303   8.740
  590POPC   C2B12608  33.127  31.171   8.367
  590POPC   C3B12609  32.893  31.216   8.013
  590POPC   C4B12610  32.525  31.225   7.742
  591POPC   NC312611  20.287  11.363   9.843
  591POPC   PO412612  19.690  11.294   9.530
  591POPC   GL112613  19.578  11.222   9.140
  591POPC   GL212614  19.924  11.333   9.061
  591POPC   C1A12615  19.641  11.095   8.718
  591POPC   D2A12616  19.990  11.212   8.460
  591POPC   C3A12617  19.896  11.218   8.025
  591POPC   C4A12618  20.053  11.279   7.634
  591POPC   C1B12619  19.698  11.632   8.810
  591POPC   C2B12620  19.506  11.681   8.442
  591POPC   C3B12621  19.699  11.682   8.054
  591POPC   C4B12622  19.649  11.799   7.625
  592POPC   NC312623  22.113  15.557   9.476
  592POPC   PO412624  22.463  16.136   9.354
  592POPC   GL112625  22.389  15.787   9.107
  592POPC   GL212626  22.695  15.690   9.083
  592POPC   C1A12627  22.385  15.595   8.686
  592POPC   D2A12628  22.578  15.554   8.278
  592POPC   C3A12629  22.232  15.604   7.997
  592POPC   C4A12630  21.941  15.921   7.844
  592POPC   C1B12631  22.753  15.959   8.715
  592POPC   C2B12632  22.664  16.092   8.273
  592POPC   C3B12633  22.438  16.065   7.868
  592POPC   C4B12634  22.346  16.394   7.510
  593POPC   NC312635  13.180  20.268   9.369
  593POPC   PO412636  12.523  20.320   9.527
  593POPC   GL112637  12.742  20.497   9.146
  593POPC   GL212638  13.051  20.665   9.081
  593POPC   C1A12639  12.703  20.670   8.706
  593POPC   D2A12640  12.737  20.474   8.297
  593POPC   C3A12641  12.459  20.620   7.949
  593POPC   C4A12642  12.744  20.531   7.641
  593POPC   C1B12643  13.140  20.400   8.693
  593POPC   C2B12644  13.332  20.449   8.259
  593POPC   C3B12645  13.238  20.426   7.789
  593POPC   C4B12646  13.170  20.608   7.361
  594POPC   NC312647  15.783   0.599   9.720
  594POPC   PO412648  16.157   0.118   9.487
  594POPC   GL112649  15.889   0.254   9.142
  594POPC   GL212650  15.734   0.586   9.194
  594POPC   C1A12651  15.976   0.472   8.717
  594POPC   D2A12652  16.097   0.589   8.288
  594POPC   C3A12653  16.215   0.314   7.960
  594POPC   C4A12654  15.942   0.256   7.577
  594POPC   C1B12655  15.565   0.758   8.802
  594POPC   C2B12656  15.715   0.899   8.413
  594POPC   C3B12657  15.659   0.737   8.028
  594POPC   C4B12658  15.578   0.627   7.629
  595POPC   NC312659  12.309  26.315   9.775
  595POPC   PO412660  12.587  25.831   9.476
  595POPC   GL112661  12.370  25.923   9.059
  595POPC   GL212662  12.074  26.113   9.091
  595POPC   C1A12663  12.117  25.684   8.740
  595POPC   D2A12664  12.035  25.577   8.283
  595POPC   C3A12665  12.255  25.837   7.928
  595POPC   C4A12666  12.269  26.080   7.528
  595POPC   C1B12667  11.910  26.188   8.671
  595POPC   C2B12668  11.899  26.082   8.214
  595POPC   C3B12669  11.780  26.106   7.784
  595POPC   C4B12670  11.858  26.356   7.400
  596POPC   NC312671  35.809  17.951   9.535
  596POPC   PO412672  35.122  17.990   9.387
  596POPC   GL112673  35.367  18.251   9.142
  596POPC   GL212674  35.519  18.564   9.297
  596POPC   C1A12675  35.392  18.146   8.724
  596POPC   D2A12676  35.264  18.346   8.373
  596POPC   C3A12677  35.314  18.147   7.965
  596POPC   C4A12678  35.157  18.456   7.703
  596POPC   C1B12679  35.779  18.476   8.920
  596POPC   C2B12680  35.796  18.382   8.479
  596POPC   C3B12681  35.643  18.532   8.068
  596POPC   C4B12682  35.653  18.476   7.626
  597POPC   NC312683  27.304  22.378   9.445
  597POPC   PO412684  26.623  22.446   9.552
  597POPC   GL112685  26.660  22.168   9.182
  597POPC   GL212686  27.015  22.009   9.191
  597POPC   C1A12687  26.480  22.125   8.757
  597POPC   D2A12688  26.582  22.313   8.350
  597POPC   C3A12689  26.784  22.064   8.112
  597POPC   C4A12690  26.819  21.959   7.687
  597POPC   C1B12691  27.209  22.113   8.800
  597POPC   C2B12692  27.069  22.389   8.496
  597POPC   C3B12693  27.031  22.535   8.093
  597POPC   C4B12694  27.060  22.403   7.700
  598POPC   NC312695  15.638  20.062   9.340
  598POPC   PO412696  14.997  19.786   9.387
  598POPC   GL112697  15.278  19.785   9.095
  598POPC   GL212698  15.515  19.542   9.066
  598POPC   C1A12699  15.310  19.882   8.688
  598POPC   D2A12700  15.383  19.813   8.251
  598POPC   C3A12701  15.187  19.946   7.856
  598POPC   C4A12702  15.174  19.661   7.497
  598POPC   C1B12703  15.184  19.346   8.810
  598POPC   C2B12704  15.039  19.340   8.375
  598POPC   C3B12705  15.143  19.372   7.935
  598POPC   C4B12706  14.848  19.300   7.598
  599POPC   NC312707   8.474  40.122   9.558
  599POPC   PO412708   7.974  39.682   9.813
  599POPC   GL112709   8.144  39.653   9.401
  599POPC   GL212710   7.849  39.609   9.201
  599POPC   C1A12711   8.264  39.836   8.991
  599POPC   D2A12712   8.351  39.761   8.553
  599POPC   C3A12713   8.247  40.094   8.247
  599POPC   C4A12714   8.370  40.083   7.817
  599POPC   C1B12715   7.784  39.801   8.769
  599POPC   C2B12716   7.885  39.731   8.301
  599POPC   C3B12717   7.892  39.837   7.816
  599POPC   C4B12718   7.800  39.680   7.328
  600POPC   NC312719   6.415   0.767   9.385
  600POPC   PO412720   6.397   1.494   9.417
  600POPC   GL112721   6.472   1.198   9.036
  600POPC   GL212722   6.480   0.853   8.893
  600POPC   C1A12723   6.553   1.214   8.557
  600POPC   D2A12724   6.350   1.331   8.141
  600POPC   C3A12725   6.664   1.270   7.815
  600POPC   C4A12726   6.921   1.526   7.515
  600POPC   C1B12727   6.726   0.693   8.532
  600POPC   C2B12728   6.603   0.885   8.150
  600POPC   C3B12729   6.411   0.795   7.744
  600POPC   C4B12730   6.297   0.771   7.289
  601POPC   NC312731  28.744  34.939   9.520
  601POPC   PO412732  28.098  35.340   9.485
  601POPC   GL112733  28.332  35.447   9.131
  601POPC   GL212734  28.478  35.156   9.153
  601POPC   C1A12735  28.408  35.560   8.711
  601POPC   D2A12736  28.290  35.686   8.303
  601POPC   C3A12737  28.265  35.406   7.991
  601POPC   C4A12738  28.456  35.343   7.619
  601POPC   C1B12739  28.256  35.054   8.794
  601POPC   C2B12740  28.396  35.093   8.398
  601POPC   C3B12741  28.398  34.916   8.020
  601POPC   C4B12742  28.591  34.866   7.650
  602POPC   NC312743  21.651  12.000   9.467
  602POPC   PO412744  20.950  12.169   9.409
  602POPC   GL112745  21.291  12.018   9.125
  602POPC   GL212746  21.541  11.766   8.992
  602POPC   C1A12747  21.420  12.200   8.744
  602POPC   D2A12748  21.551  11.965   8.385
  602POPC   C3A12749  21.210  11.918   8.102
  602POPC   C4A12750  20.983  12.162   7.784
  602POPC   C1B12751  21.888  12.004   8.793
  602POPC   C2B12752  21.884  12.377   8.508
  602POPC   C3B12753  21.804  12.296   8.060
  602POPC   C4B12754  21.544  12.056   7.740
  603POPC   NC312755   1.441  14.135   9.444
  603POPC   PO412756   0.938  14.529   9.604
  603POPC   GL112757   1.087  14.397   9.213
  603POPC   GL212758   1.416  14.584   9.190
  603POPC   C1A12759   1.212  14.268   8.812
  603POPC   D2A12760   1.083  14.472   8.447
  603POPC   C3A12761   1.180  14.451   8.028
  603POPC   C4A12762   1.222  14.235   7.658
  603POPC   C1B12763   1.395  14.755   8.779
  603POPC   C2B12764   1.599  14.894   8.402
  603POPC   C3B12765   1.563  14.855   7.978
  603POPC   C4B12766   1.408  14.700   7.635
  604POPC   NC312767  12.443  24.730   9.513
  604POPC   PO412768  12.838  24.211   9.523
  604POPC   GL112769  12.713  24.412   9.183
  604POPC   GL212770  12.546  24.093   9.113
  604POPC   C1A12771  12.946  24.589   8.829
  604POPC   D2A12772  13.266  24.517   8.500
  604POPC   C3A12773  13.135  24.686   8.106
  604POPC   C4A12774  12.963  24.838   7.702
  604POPC   C1B12775  12.586  24.236   8.722
  604POPC   C2B12776  12.814  24.295   8.372
  604POPC   C3B12777  12.965  24.223   7.969
  604POPC   C4B12778  12.747  24.381   7.637
  605POPC   NC312779  21.971   5.700   9.540
  605POPC   PO412780  22.217   6.304   9.706
  605POPC   GL112781  22.287   6.115   9.253
  605POPC   GL212782  22.169   5.796   9.095
  605POPC   C1A12783  22.229   6.204   8.798
  605POPC   D2A12784  22.085   6.025   8.405
  605POPC   C3A12785  22.247   5.952   7.991
  605POPC   C4A12786  21.943   5.894   7.636
  605POPC   C1B12787  22.097   5.493   8.767
  605POPC   C2B12788  22.195   5.511   8.336
  605POPC   C3B12789  22.456   5.475   7.988
  605POPC   C4B12790  22.469   5.447   7.547
  606POPC   NC312791  28.955  18.034   9.478
  606POPC   PO412792  29.259  18.559   9.454
  606POPC   GL112793  29.003  18.391   9.098
  606POPC   GL212794  29.049  18.036   8.969
  606POPC   C1A12795  29.114  18.544   8.723
  606POPC   D2A12796  29.342  18.332   8.416
  606POPC   C3A12797  29.210  18.175   8.022
  606POPC   C4A12798  29.176  17.990   7.634
  606POPC   C1B12799  28.716  18.185   8.667
  606POPC   C2B12800  28.837  18.438   8.324
  606POPC   C3B12801  29.003  18.639   8.022
  606POPC   C4B12802  28.862  18.385   7.707
  607POPC   NC312803  20.005  34.621   9.566
  607POPC   PO412804  19.383  34.402   9.554
  607POPC   GL112805  19.444  34.529   9.137
  607POPC   GL212806  19.806  34.519   9.099
  607POPC   C1A12807  19.523  34.445   8.677
  607POPC   D2A12808  19.766  34.552   8.328
  607POPC   C3A12809  19.562  34.696   7.945
  607POPC   C4A12810  19.778  34.818   7.599
  607POPC   C1B12811  19.931  34.817   8.783
  607POPC   C2B12812  20.221  34.913   8.439
  607POPC   C3B12813  20.070  34.842   8.036
  607POPC   C4B12814  19.998  34.425   7.853
  608POPC   NC312815  36.659  15.221   9.463
  608POPC   PO412816  37.233  15.128   9.816
  608POPC   GL112817  37.121  15.073   9.309
  608POPC   GL212818  36.836  14.958   9.077
  608POPC   C1A12819  37.220  15.225   8.882
  608POPC   D2A12820  37.216  15.399   8.471
  608POPC   C3A12821  37.235  15.105   8.130
  608POPC   C4A12822  36.968  15.007   7.769
  608POPC   C1B12823  36.879  14.950   8.636
  608POPC   C2B12824  36.751  15.110   8.292
  608POPC   C3B12825  36.564  14.839   8.031
  608POPC   C4B12826  36.438  14.940   7.638
  609POPC   NC312827   8.300   0.301   9.488
  609POPC   PO412828   7.773   0.678   9.414
  609POPC   GL112829   7.974   0.391   9.086
  609POPC   GL212830   8.353   0.487   9.031
  609POPC   C1A12831   8.192   0.184   8.690
  609POPC   D2A12832   8.317   0.440   8.318
  609POPC   C3A12833   8.090   0.312   7.956
  609POPC   C4A12834   8.259   0.036   7.658
  609POPC   C1B12835   8.097   0.722   8.712
  609POPC   C2B12836   7.950   0.932   8.327
  609POPC   C3B12837   8.017   0.818   7.892
  609POPC   C4B12838   8.400   0.661   7.647
  610POPC   NC312839  34.295  25.393   9.571
  610POPC   PO412840  34.921  25.590   9.712
  610POPC   GL112841  34.718  25.281   9.301
  610POPC   GL212842  34.482  25.431   9.076
  610POPC   C1A12843  34.842  25.171   8.814
  610POPC   D2A12844  34.889  24.959   8.382
  610POPC   C3A12845  34.659  25.177   8.096
  610POPC   C4A12846  34.740  25.453   7.775
  610POPC   C1B12847  34.378  25.031   8.899
  610POPC   C2B12848  34.337  25.029   8.498
  610POPC   C3B12849  34.123  25.074   8.116
  610POPC   C4B12850  34.321  25.126   7.716
  611POPC   NC312851  31.183  22.664   9.363
  611POPC   PO412852  31.440  22.061   9.481
  611POPC   GL112853  31.525  22.355   9.143
  611POPC   GL212854  31.211  22.302   9.011
  611POPC   C1A12855  31.564  22.505   8.736
  611POPC   D2A12856  31.311  22.360   8.354
  611POPC   C3A12857  31.538  22.370   7.942
  611POPC   C4A12858  31.649  22.446   7.488
  611POPC   C1B12859  31.415  21.990   8.809
  611POPC   C2B12860  31.506  21.885   8.408
  611POPC   C3B12861  31.363  21.883   7.990
  611POPC   C4B12862  31.377  22.032   7.584
  612POPC   NC312863  28.961  41.183   9.416
  612POPC   PO412864  29.296  41.820   9.577
  612POPC   GL112865  29.260  41.661   9.157
  612POPC   GL212866  29.588  41.701   9.137
  612POPC   C1A12867  29.196  41.511   8.707
  612POPC   D2A12868  28.808  41.619   8.490
  612POPC   C3A12869  28.905  41.646   8.062
  612POPC   C4A12870  29.285  41.425   7.919
  612POPC   C1B12871  29.650  41.854   8.750
  612POPC   C2B12872  29.560  41.701   8.329
  612POPC   C3B12873  29.676  41.741   7.890
  612POPC   C4B12874  29.429  41.761   7.544
  613POPC   NC312875  30.631  15.623   9.625
  613POPC   PO412876  30.636  16.308   9.557
  613POPC   GL112877  30.552  16.245   9.175
  613POPC   GL212878  30.582  15.897   9.192
  613POPC   C1A12879  30.835  16.281   8.833
  613POPC   D2A12880  31.018  16.084   8.491
  613POPC   C3A12881  30.886  16.141   8.072
  613POPC   C4A12882  30.980  15.917   7.712
  613POPC   C1B12883  30.685  15.771   8.795
  613POPC   C2B12884  30.588  15.819   8.387
  613POPC   C3B12885  30.735  15.630   8.056
  613POPC   C4B12886  30.496  15.759   7.742
  614POPC   NC312887  14.464  17.698   9.490
  614POPC   PO412888  14.868  17.195   9.380
  614POPC   GL112889  14.575  17.363   9.092
  614POPC   GL212890  14.229  17.500   9.089
  614POPC   C1A12891  14.511  17.461   8.670
  614POPC   D2A12892  14.243  17.362   8.366
  614POPC   C3A12893  14.401  17.458   7.956
  614POPC   C4A12894  14.602  17.177   7.660
  614POPC   C1B12895  14.137  17.794   8.800
  614POPC   C2B12896  13.953  17.768   8.414
  614POPC   C3B12897  14.076  17.862   8.004
  614POPC   C4B12898  14.187  18.013   7.613
  615POPC   NC312899  15.446  13.375   9.426
  615POPC   PO412900  16.046  13.393   9.472
  615POPC   GL112901  15.980  13.684   9.182
  615POPC   GL212902  15.749  13.471   9.008
  615POPC   C1A12903  16.150  13.740   8.789
  615POPC   D2A12904  15.959  13.564   8.470
  615POPC   C3A12905  16.140  13.735   8.104
  615POPC   C4A12906  15.980  13.526   7.764
  615POPC   C1B12907  15.589  13.836   8.829
  615POPC   C2B12908  15.425  13.884   8.433
  615POPC   C3B12909  15.626  13.712   8.107
  615POPC   C4B12910  15.569  13.829   7.690
  616POPC   NC312911  11.157  21.927   9.551
  616POPC   PO412912  11.112  21.292   9.603
  616POPC   GL112913  11.036  21.392   9.199
  616POPC   GL212914  11.336  21.266   9.110
  616POPC   C1A12915  11.003  21.655   8.821
  616POPC   D2A12916  10.991  21.555   8.386
  616POPC   C3A12917  11.263  21.561   8.018
  616POPC   C4A12918  11.031  21.363   7.702
  616POPC   C1B12919  11.300  21.219   8.694
  616POPC   C2B12920  11.504  21.027   8.374
  616POPC   C3B12921  11.489  21.071   7.949
  616POPC   C4B12922  11.528  21.323   7.581
  617POPC   NC312923   1.587  28.167   9.472
  617POPC   PO412924   0.873  28.078   9.529
  617POPC   GL112925   1.091  28.388   9.290
  617POPC   GL212926   1.221  28.128   9.109
  617POPC   C1A12927   1.318  28.615   8.951
  617POPC   D2A12928   1.253  28.710   8.496
  617POPC   C3A12929   1.314  28.419   8.100
  617POPC   C4A12930   1.161  28.491   7.694
  617POPC   C1B12931   1.147  28.219   8.675
  617POPC   C2B12932   1.374  27.959   8.414
  617POPC   C3B12933   1.552  27.890   8.042
  617POPC   C4B12934   1.321  27.944   7.669
  618POPC   NC312935  25.091  10.471   9.419
  618POPC   PO412936  25.702  10.546   9.300
  618POPC   GL112937  25.431  10.730   8.964
  618POPC   GL212938  25.085  10.836   9.038
  618POPC   C1A12939  25.264  10.767   8.519
  618POPC   D2A12940  25.259  10.954   8.098
  618POPC   C3A12941  25.461  10.665   7.850
  618POPC   C4A12942  25.433  10.232   7.823
  618POPC   C1B12943  24.956  10.447   8.789
  618POPC   C2B12944  24.819  10.319   8.379
  618POPC   C3B12945  25.010  10.483   8.035
  618POPC   C4B12946  24.944  10.764   7.724
  619POPC   NC312947  28.212  24.596   9.611
  619POPC   PO412948  28.847  24.422   9.363
  619POPC   GL112949  28.515  24.588   9.133
  619POPC   GL212950  28.136  24.433   9.142
  619POPC   C1A12951  28.603  24.859   8.752
  619POPC   D2A12952  28.600  24.788   8.311
  619POPC   C3A12953  28.401  24.403   8.208
  619POPC   C4A12954  28.291  24.250   7.824
  619POPC   C1B12955  28.255  24.500   8.721
  619POPC   C2B12956  28.054  24.704   8.417
  619POPC   C3B12957  28.138  24.827   8.030
  619POPC   C4B12958  27.897  24.683   7.727
  620POPC   NC312959  30.668  36.015   9.432
  620POPC   PO412960  30.471  36.659   9.359
  620POPC   GL112961  30.736  36.408   9.123
  620POPC   GL212962  30.475  36.204   9.004
  620POPC   C1A12963  30.927  36.104   8.796
  620POPC   D2A12964  30.762  35.984   8.370
  620POPC   C3A12965  30.963  36.072   7.960
  620POPC   C4A12966  30.903  36.123   7.490
  620POPC   C1B12967  30.331  35.936   8.678
  620POPC   C2B12968  30.296  35.794   8.226
  620POPC   C3B12969  30.478  35.967   7.822
  620POPC   C4B12970  30.427  35.891   7.363
  621POPC   NC312971   7.304  43.689   9.533
  621POPC   PO412972   7.612  44.241   9.648
  621POPC   GL112973   7.414  44.042   9.211
  621POPC   GL212974   7.097  43.943   9.034
  621POPC   C1A12975   7.497  43.765   8.806
  621POPC   D2A12976   7.346  43.860   8.381
  621POPC   C3A12977   7.648  43.819   8.069
  621POPC   C4A12978   7.629  43.681   7.658
  621POPC   C1B12979   7.006  43.593   8.694
  621POPC   C2B12980   7.216  43.355   8.353
  621POPC   C3B12981   7.238  43.485   7.941
  621POPC   C4B12982   7.186  43.902   7.829
  622POPC   NC312983   2.737  14.782   9.236
  622POPC   PO412984   2.659  14.169   9.537
  622POPC   GL112985   2.870  14.281   9.161
  622POPC   GL212986   2.561  14.241   8.998
  622POPC   C1A12987   2.936  14.472   8.712
  622POPC   D2A12988   2.955  14.407   8.275
  622POPC   C3A12989   2.905  14.722   7.946
  622POPC   C4A12990   2.798  14.555   7.547
  622POPC   C1B12991   2.860  13.970   8.757
  622POPC   C2B12992   2.910  13.867   8.341
  622POPC   C3B12993   2.680  14.064   8.010
  622POPC   C4B12994   2.898  14.051   7.621
  623POPC   NC312995  23.435  41.914   9.402
  623POPC   PO412996  23.735  42.478   9.470
  623POPC   GL112997  23.846  42.352   9.100
  623POPC   GL212998  23.810  42.695   8.974
  623POPC   C1A12999  23.635  42.322   8.700
  623POPC   D2A13000  23.711  42.566   8.336
  623POPC   C3A13001  23.527  42.398   7.996
  623POPC   C4A13002  23.662  42.092   7.708
  623POPC   C1B13003  24.099  42.523   8.687
  623POPC   C2B13004  24.237  42.549   8.282
  623POPC   C3B13005  24.055  42.346   7.956
  623POPC   C4B13006  24.017  42.462   7.540
  624POPC   NC313007  12.542  34.299   9.339
  624POPC   PO413008  12.811  34.887   9.440
  624POPC   GL113009  12.593  34.736   9.075
  624POPC   GL213010  12.896  34.483   9.021
  624POPC   C1A13011  12.670  34.767   8.629
  624POPC   D2A13012  13.065  34.771   8.436
  624POPC   C3A13013  13.080  34.633   8.024
  624POPC   C4A13014  13.041  34.210   7.845
  624POPC   C1B13015  12.892  34.265   8.638
  624POPC   C2B13016  12.706  34.345   8.228
  624POPC   C3B13017  12.499  34.325   7.798
  624POPC   C4B13018  12.369  34.105   7.359
  625POPC   NC313019  18.640  37.212   9.719
  625POPC   PO413020  18.320  37.776   9.460
  625POPC   GL113021  18.219  37.740   9.080
  625POPC   GL213022  18.514  37.748   8.938
  625POPC   C1A13023  17.963  37.677   8.743
  625POPC   D2A13024  17.891  37.571   8.337
  625POPC   C3A13025  18.245  37.609   8.066
  625POPC   C4A13026  18.152  37.691   7.620
  625POPC   C1B13027  18.701  37.615   8.568
  625POPC   C2B13028  18.691  37.274   8.290
  625POPC   C3B13029  18.810  37.360   7.904
  625POPC   C4B13030  18.642  37.670   7.675
  626POPC   NC313031  29.329  11.071   9.415
  626POPC   PO413032  28.641  11.033   9.576
  626POPC   GL113033  28.936  11.289   9.172
  626POPC   GL213034  29.280  11.507   9.146
  626POPC   C1A13035  29.144  11.188   8.757
  626POPC   D2A13036  29.262  11.019   8.353
  626POPC   C3A13037  29.026  11.179   8.009
  626POPC   C4A13038  29.259  11.173   7.628
  626POPC   C1B13039  29.357  11.648   8.745
  626POPC   C2B13040  29.118  11.530   8.364
  626POPC   C3B13041  29.235  11.622   7.925
  626POPC   C4B13042  29.019  11.605   7.505
  627POPC   NC313043   0.117  44.565   9.605
  627POPC   PO413044   0.528   0.007   9.394
  627POPC   GL113045   0.178  44.823   9.162
  627POPC   GL213046   0.294  44.455   9.134
  627POPC   C1A13047   0.015  44.659   8.750
  627POPC   D2A13048   0.273  44.447   8.391
  627POPC   C3A13049   0.257  44.620   7.954
  627POPC   C4A13050   0.462  44.863   7.626
  627POPC   C1B13051   0.647  44.313   8.868
  627POPC   C2B13052   0.757  44.174   8.465
  627POPC   C3B13053   0.736  44.389   8.076
  627POPC   C4B13054   0.618  44.341   7.658
  628POPC   NC313055  31.401  15.453   9.485
  628POPC   PO413056  31.323  16.103   9.393
  628POPC   GL113057  31.525  15.955   9.015
  628POPC   GL213058  31.718  16.235   9.011
  628POPC   C1A13059  31.493  15.892   8.538
  628POPC   D2A13060  31.243  15.718   8.165
  628POPC   C3A13061  31.450  15.724   7.757
  628POPC   C4A13062  31.770  16.073   7.613
  628POPC   C1B13063  31.361  16.402   8.774
  628POPC   C2B13064  31.424  16.354   8.338
  628POPC   C3B13065  31.368  16.211   7.895
  628POPC   C4B13066  31.313  16.137   7.409
  629POPC   NC313067  32.511  35.628   9.446
  629POPC   PO413068  32.228  36.260   9.527
  629POPC   GL113069  32.068  36.042   9.162
  629POPC   GL213070  31.821  36.251   8.989
  629POPC   C1A13071  32.276  35.833   8.828
  629POPC   D2A13072  32.540  36.002   8.502
  629POPC   C3A13073  32.297  36.057   8.146
  629POPC   C4A13074  32.384  35.973   7.731
  629POPC   C1B13075  32.016  36.193   8.585
  629POPC   C2B13076  31.961  36.449   8.216
  629POPC   C3B13077  31.979  36.324   7.798
  629POPC   C4B13078  31.902  36.012   7.495
  630POPC   NC313079  32.671  29.166   9.707
  630POPC   PO413080  33.061  28.657   9.574
  630POPC   GL113081  32.914  28.955   9.215
  630POPC   GL213082  32.839  29.335   9.157
  630POPC   C1A13083  33.043  29.087   8.784
  630POPC   D2A13084  32.836  29.073   8.394
  630POPC   C3A13085  33.067  29.114   8.064
  630POPC   C4A13086  33.009  28.876   7.751
  630POPC   C1B13087  32.651  29.452   8.723
  630POPC   C2B13088  32.707  29.549   8.257
  630POPC   C3B13089  32.615  29.287   7.878
  630POPC   C4B13090  32.508  29.311   7.432
  631POPC   NC313091  24.190  11.873   9.607
  631POPC   PO413092  24.474  12.516   9.509
  631POPC   GL113093  24.354  12.314   9.136
  631POPC   GL213094  24.349  11.930   9.124
  631POPC   C1A13095  24.474  12.462   8.729
  631POPC   D2A13096  24.686  12.318   8.341
  631POPC   C3A13097  24.532  12.229   7.947
  631POPC   C4A13098  24.612  12.497   7.650
  631POPC   C1B13099  24.369  11.786   8.686
  631POPC   C2B13100  24.545  11.779   8.250
  631POPC   C3B13101  24.565  11.669   7.800
  631POPC   C4B13102  24.231  11.840   7.548
  632POPC   NC313103  42.343   6.992   9.374
  632POPC   PO413104  42.034   6.493   9.635
  632POPC   GL113105  42.184   6.520   9.257
  632POPC   GL213106  41.885   6.462   9.127
  632POPC   C1A13107  42.254   6.625   8.828
  632POPC   D2A13108  42.288   6.472   8.432
  632POPC   C3A13109  42.305   6.824   8.128
  632POPC   C4A13110  42.377   6.770   7.697
  632POPC   C1B13111  41.718   6.376   8.765
  632POPC   C2B13112  41.757   6.372   8.363
  632POPC   C3B13113  42.001   6.340   8.028
  632POPC   C4B13114  42.012   6.410   7.652
  633POPC   NC313115  22.092  29.277   9.565
  633POPC   PO413116  22.178  28.713   9.521
  633POPC   GL113117  21.997  28.827   9.099
  633POPC   GL213118  22.056  29.171   9.074
  633POPC   C1A13119  21.803  28.985   8.695
  633POPC   D2A13120  21.840  29.304   8.401
  633POPC   C3A13121  21.880  29.167   7.980
  633POPC   C4A13122  22.084  29.434   7.682
  633POPC   C1B13123  22.301  28.976   8.721
  633POPC   C2B13124  22.178  28.877   8.302
  633POPC   C3B13125  22.367  29.023   7.910
  633POPC   C4B13126  22.558  28.808   7.577
  634POPC   NC313127   8.034  40.796   9.469
  634POPC   PO413128   8.129  41.496   9.508
  634POPC   GL113129   8.283  41.309   9.146
  634POPC   GL213130   7.956  41.194   9.118
  634POPC   C1A13131   8.382  41.530   8.761
  634POPC   D2A13132   8.271  41.734   8.375
  634POPC   C3A13133   8.287  41.449   7.991
  634POPC   C4A13134   8.328  41.395   7.509
  634POPC   C1B13135   7.881  41.587   8.900
  634POPC   C2B13136   7.750  41.605   8.483
  634POPC   C3B13137   7.859  41.729   8.066
  634POPC   C4B13138   7.850  41.446   7.724
  635POPC   NC313139  25.107   9.617   9.585
  635POPC   PO413140  25.646   9.760   9.334
  635POPC   GL113141  25.573   9.608   8.967
  635POPC   GL213142  25.354   9.388   9.120
  635POPC   C1A13143  25.490   9.819   8.561
  635POPC   D2A13144  25.305  10.181   8.340
  635POPC   C3A13145  25.067   9.967   8.025
  635POPC   C4A13146  25.351   9.629   7.858
  635POPC   C1B13147  25.172   9.387   8.731
  635POPC   C2B13148  25.108   9.527   8.320
  635POPC   C3B13149  24.865   9.513   7.955
  635POPC   C4B13150  24.974   9.439   7.521
  636POPC   NC313151  35.017   4.377   9.435
  636POPC   PO413152  35.688   4.148   9.274
  636POPC   GL113153  35.310   4.144   9.067
  636POPC   GL213154  35.343   4.500   9.048
  636POPC   C1A13155  35.231   4.220   8.628
  636POPC   D2A13156  35.515   4.426   8.340
  636POPC   C3A13157  35.662   4.094   8.116
  636POPC   C4A13158  35.348   4.014   7.806
  636POPC   C1B13159  34.991   4.639   8.796
  636POPC   C2B13160  34.877   4.529   8.362
  636POPC   C3B13161  35.143   4.460   7.987
  636POPC   C4B13162  35.183   4.479   7.545
  637POPC   NC313163  15.418  44.059   9.551
  637POPC   PO413164  14.875  43.654   9.660
  637POPC   GL113165  15.121  43.763   9.270
  637POPC   GL213166  15.477  43.770   9.120
  637POPC   C1A13167  15.036  43.655   8.859
  637POPC   D2A13168  15.251  43.697   8.487
  637POPC   C3A13169  15.056  43.893   8.161
  637POPC   C4A13170  15.022  43.680   7.787
  637POPC   C1B13171  15.665  43.990   8.738
  637POPC   C2B13172  15.561  44.071   8.327
  637POPC   C3B13173  15.505  43.908   7.919
  637POPC   C4B13174  15.173  44.150   7.695
  638POPC   NC313175   4.159  17.229   9.619
  638POPC   PO413176   4.261  17.823   9.906
  638POPC   GL113177   4.301  17.602   9.357
  638POPC   GL213178   3.967  17.594   9.262
  638POPC   C1A13179   4.365  17.473   8.915
  638POPC   D2A13180   4.411  17.640   8.488
  638POPC   C3A13181   4.375  17.410   8.109
  638POPC   C4A13182   4.205  17.640   7.761
  638POPC   C1B13183   3.960  17.804   8.900
  638POPC   C2B13184   4.077  18.044   8.581
  638POPC   C3B13185   4.068  17.988   8.130
  638POPC   C4B13186   4.190  18.169   7.730
  639POPC   NC313187  23.679  25.612   9.432
  639POPC   PO413188  23.877  24.933   9.555
  639POPC   GL113189  23.664  25.128   9.232
  639POPC   GL213190  23.965  25.281   9.139
  639POPC   C1A13191  23.656  25.067   8.782
  639POPC   D2A13192  23.911  25.050   8.419
  639POPC   C3A13193  23.697  25.110   8.039
  639POPC   C4A13194  23.685  24.976   7.623
  639POPC   C1B13195  23.807  25.539   8.785
  639POPC   C2B13196  23.606  25.510   8.372
  639POPC   C3B13197  23.720  25.644   7.980
  639POPC   C4B13198  23.832  25.463   7.622
  640POPC   NC313199  22.112  36.728   9.457
  640POPC   PO413200  22.422  37.417   9.537
  640POPC   GL113201  22.334  37.138   9.183
  640POPC   GL213202  21.990  37.029   9.075
  640POPC   C1A13203  22.392  36.962   8.758
  640POPC   D2A13204  22.521  36.884   8.348
  640POPC   C3A13205  22.424  37.216   8.103
  640POPC   C4A13206  22.307  37.253   7.715
  640POPC   C1B13207  21.701  36.962   8.769
  640POPC   C2B13208  21.731  36.762   8.406
  640POPC   C3B13209  22.033  36.845   8.111
  640POPC   C4B13210  21.951  36.835   7.715
  641POPC   NC313211   2.679  16.398   9.879
  641POPC   PO413212   2.807  15.885   9.512
  641POPC   GL113213   2.789  15.999   9.118
  641POPC   GL213214   2.579  16.243   9.194
  641POPC   C1A13215   2.831  16.102   8.696
  641POPC   D2A13216   3.013  15.928   8.369
  641POPC   C3A13217   2.782  16.052   8.014
  641POPC   C4A13218   2.945  15.973   7.631
  641POPC   C1B13219   2.384  16.306   8.807
  641POPC   C2B13220   2.401  16.480   8.394
  641POPC   C3B13221   2.333  16.306   7.979
  641POPC   C4B13222   2.537  16.283   7.584
  642POPC   NC313223   6.182  35.875   9.532
  642POPC   PO413224   5.774  36.410   9.431
  642POPC   GL113225   6.063  36.268   9.172
  642POPC   GL213226   6.006  35.909   9.058
  642POPC   C1A13227   6.154  36.297   8.754
  642POPC   D2A13228   6.067  35.925   8.516
  642POPC   C3A13229   6.023  36.065   8.118
  642POPC   C4A13230   6.075  35.953   7.730
  642POPC   C1B13231   5.675  36.113   8.823
  642POPC   C2B13232   5.709  36.342   8.425
  642POPC   C3B13233   5.562  36.261   8.015
  642POPC   C4B13234   5.401  36.224   7.610
  643POPC   NC313235  29.920  26.472   9.495
  643POPC   PO413236  29.945  27.049   9.660
  643POPC   GL113237  30.051  26.924   9.203
  643POPC   GL213238  29.847  26.681   9.044
  643POPC   C1A13239  29.972  27.051   8.713
  643POPC   D2A13240  29.925  27.224   8.308
  643POPC   C3A13241  29.811  26.941   7.977
  643POPC   C4A13242  29.834  27.049   7.505
  643POPC   C1B13243  30.089  26.550   8.685
  643POPC   C2B13244  29.875  26.439   8.309
  643POPC   C3B13245  29.670  26.363   7.929
  643POPC   C4B13246  29.901  26.561   7.614
  644POPC   NC313247  35.224  38.712   9.411
  644POPC   PO413248  35.473  38.084   9.444
  644POPC   GL113249  35.417  38.343   9.091
  644POPC   GL213250  35.662  38.562   9.195
  644POPC   C1A13251  35.156  38.422   8.693
  644POPC   D2A13252  35.303  38.350   8.254
  644POPC   C3A13253  35.157  38.651   7.949
  644POPC   C4A13254  34.900  38.648   7.556
  644POPC   C1B13255  35.511  38.755   8.812
  644POPC   C2B13256  35.665  38.694   8.417
  644POPC   C3B13257  35.772  38.610   8.019
  644POPC   C4B13258  35.553  38.565   7.641
  645POPC   NC313259  10.638  41.919   9.480
  645POPC   PO413260  10.408  42.487   9.526
  645POPC   GL113261  10.574  42.429   9.122
  645POPC   GL213262  10.444  42.085   9.038
  645POPC   C1A13263  10.825  42.690   8.807
  645POPC   D2A13264  10.862  42.880   8.373
  645POPC   C3A13265  10.542  42.769   8.091
  645POPC   C4A13266  10.479  42.477   7.754
  645POPC   C1B13267  10.376  42.291   8.661
  645POPC   C2B13268  10.161  42.506   8.337
  645POPC   C3B13269  10.036  42.333   7.981
  645POPC   C4B13270  10.207  42.057   7.688
  646POPC   NC313271  24.510  13.003   9.457
  646POPC   PO413272  23.772  12.882   9.484
  646POPC   GL113273  24.068  13.081   9.149
  646POPC   GL213274  24.382  13.312   9.053
  646POPC   C1A13275  24.200  12.968   8.713
  646POPC   D2A13276  24.473  12.826   8.364
  646POPC   C3A13277  24.474  13.069   7.976
  646POPC   C4A13278  24.339  12.976   7.580
  646POPC   C1B13279  24.701  12.991   8.825
  646POPC   C2B13280  24.993  12.875   8.460
  646POPC   C3B13281  24.867  12.731   8.035
  646POPC   C4B13282  24.851  12.938   7.599
  647POPC   NC313283  39.831   5.137   9.708
  647POPC   PO413284  40.245   4.728   9.310
  647POPC   GL113285  40.040   5.034   9.099
  647POPC   GL213286  39.709   5.092   9.206
  647POPC   C1A13287  40.198   5.230   8.739
  647POPC   D2A13288  40.336   5.119   8.334
  647POPC   C3A13289  40.042   5.007   8.010
  647POPC   C4A13290  40.166   5.267   7.678
  647POPC   C1B13291  39.726   5.402   8.824
  647POPC   C2B13292  39.852   5.326   8.363
  647POPC   C3B13293  39.714   5.428   7.903
  647POPC   C4B13294  39.750   5.400   7.414
  648POPC   NC313295  17.681  36.951   9.617
  648POPC   PO413296  17.218  37.234   9.230
  648POPC   GL113297  17.240  36.833   9.086
  648POPC   GL213298  17.595  36.775   9.147
  648POPC   C1A13299  17.227  36.795   8.630
  648POPC   D2A13300  17.279  36.766   8.175
  648POPC   C3A13301  17.461  37.061   7.880
  648POPC   C4A13302  17.416  37.042   7.434
  648POPC   C1B13303  17.889  36.537   8.913
  648POPC   C2B13304  17.758  36.673   8.522
  648POPC   C3B13305  17.779  36.709   8.107
  648POPC   C4B13306  17.646  36.618   7.704
  649POPC   NC313307  43.149  29.685   9.623
  649POPC   PO413308  43.328  30.318   9.551
  649POPC   GL113309  43.345  30.013   9.251
  649POPC   GL213310  43.015  29.889   9.168
  649POPC   C1A13311  43.420  29.906   8.830
  649POPC   D2A13312  43.412  30.177   8.489
  649POPC   C3A13313  43.346  29.958   8.135
  649POPC   C4A13314  43.441  30.069   7.738
  649POPC   C1B13315  42.966  30.120   8.764
  649POPC   C2B13316  42.918  30.256   8.320
  649POPC   C3B13317  42.936  30.140   7.869
  649POPC   C4B13318  42.665  29.932   7.546
  650POPC   NC313319  26.447  39.018   9.384
  650POPC   PO413320  27.118  38.943   9.124
  650POPC   GL113321  26.957  39.184   8.876
  650POPC   GL213322  26.688  39.303   9.048
  650POPC   C1A13323  26.718  39.134   8.539
  650POPC   D2A13324  26.452  39.217   8.236
  650POPC   C3A13325  26.740  39.097   7.982
  650POPC   C4A13326  26.664  38.900   7.656
  650POPC   C1B13327  26.722  39.612   8.750
  650POPC   C2B13328  26.966  39.611   8.441
  650POPC   C3B13329  26.749  39.604   8.114
  650POPC   C4B13330  26.807  39.531   7.729
  651POPC   NC313331  44.829   7.805   9.710
  651POPC   PO413332  44.485   8.348   9.601
  651POPC   GL113333  44.575   8.311   9.207
  651POPC   GL213334  44.869   8.144   9.240
  651POPC   C1A13335  44.760   8.417   8.800
  651POPC   D2A13336  44.927   8.249   8.415
  651POPC   C3A13337  44.674   8.201   8.041
  651POPC   C4A13338  44.596   8.421   7.649
  651POPC   C1B13339  44.734   7.915   8.830
  651POPC   C2B13340  44.796   7.751   8.388
  651POPC   C3B13341   0.062   7.883   8.018
  651POPC   C4B13342  44.888   7.976   7.614
  652POPC   NC313343  38.579  22.117   9.614
  652POPC   PO413344  37.948  22.008   9.578
  652POPC   GL113345  38.166  21.889   9.167
  652POPC   GL213346  38.542  21.814   9.185
  652POPC   C1A13347  38.285  22.066   8.796
  652POPC   D2A13348  38.469  21.958   8.432
  652POPC   C3A13349  38.304  22.225   8.151
  652POPC   C4A13350  38.375  22.060   7.793
  652POPC   C1B13351  38.797  22.085   8.882
  652POPC   C2B13352  38.780  22.336   8.488
  652POPC   C3B13353  38.810  22.171   8.058
  652POPC   C4B13354  38.913  21.774   7.886
  653POPC   NC313355  11.734  13.410   9.506
  653POPC   PO413356  12.263  13.728   9.222
  653POPC   GL113357  12.158  13.406   8.996
  653POPC   GL213358  11.827  13.524   9.025
  653POPC   C1A13359  12.262  13.427   8.566
  653POPC   D2A13360  12.466  13.734   8.284
  653POPC   C3A13361  12.225  13.810   7.924
  653POPC   C4A13362  12.223  13.635   7.504
  653POPC   C1B13363  11.764  13.365   8.638
  653POPC   C2B13364  11.865  13.591   8.261
  653POPC   C3B13365  11.841  13.462   7.848
  653POPC   C4B13366  11.758  13.415   7.421
  654POPC   NC313367   6.897  35.550   9.585
  654POPC   PO413368   6.491  35.083   9.391
  654POPC   GL113369   6.812  35.282   9.160
  654POPC   GL213370   6.663  35.600   9.118
  654POPC   C1A13371   6.908  35.293   8.748
  654POPC   D2A13372   6.711  35.476   8.385
  654POPC   C3A13373   6.873  35.353   7.982
  654POPC   C4A13374   6.741  35.180   7.589
  654POPC   C1B13375   6.289  35.520   8.858
  654POPC   C2B13376   6.184  35.374   8.442
  654POPC   C3B13377   6.367  35.226   8.040
  654POPC   C4B13378   6.445  35.567   7.745
  655POPC   NC313379  30.892  40.045   9.503
  655POPC   PO413380  30.371  39.541   9.597
  655POPC   GL113381  30.519  39.776   9.203
  655POPC   GL213382  30.898  39.771   9.075
  655POPC   C1A13383  30.500  39.834   8.752
  655POPC   D2A13384  30.871  39.796   8.465
  655POPC   C3A13385  30.721  39.889   8.058
  655POPC   C4A13386  30.461  40.031   7.722
  655POPC   C1B13387  30.844  40.178   8.818
  655POPC   C2B13388  30.860  40.310   8.368
  655POPC   C3B13389  31.103  40.197   7.967
  655POPC   C4B13390  30.894  40.311   7.594
  656POPC   NC313391  37.574  33.442   9.447
  656POPC   PO413392  37.498  32.782   9.676
  656POPC   GL113393  37.697  32.901   9.285
  656POPC   GL213394  37.383  32.927   9.156
  656POPC   C1A13395  37.818  32.875   8.852
  656POPC   D2A13396  37.872  32.877   8.408
  656POPC   C3A13397  37.946  32.766   7.976
  656POPC   C4A13398  37.736  32.970   7.603
  656POPC   C1B13399  37.281  33.169   8.787
  656POPC   C2B13400  37.519  33.247   8.413
  656POPC   C3B13401  37.656  33.308   7.986
  656POPC   C4B13402  37.377  33.439   7.681
  657POPC   NC313403  28.941  42.157   9.574
  657POPC   PO413404  29.420  42.490   9.356
  657POPC   GL113405  29.257  42.164   9.135
  657POPC   GL213406  28.934  42.254   9.084
  657POPC   C1A13407  29.164  42.008   8.715
  657POPC   D2A13408  29.399  42.176   8.391
  657POPC   C3A13409  29.283  42.025   7.994
  657POPC   C4A13410  29.306  42.241   7.628
  657POPC   C1B13411  29.173  42.508   8.761
  657POPC   C2B13412  29.342  42.684   8.413
  657POPC   C3B13413  29.230  42.539   8.036
  657POPC   C4B13414  29.091  42.691   7.665
  658POPC   NC313415  11.469  29.026   9.622
  658POPC   PO413416  10.939  29.428   9.403
  658POPC   GL113417  11.290  29.228   9.189
  658POPC   GL213418  11.357  28.887   9.115
  658POPC   C1A13419  11.354  29.256   8.743
  658POPC   D2A13420  11.190  29.498   8.390
  658POPC   C3A13421  11.288  29.271   7.993
  658POPC   C4A13422  11.721  29.270   7.763
  658POPC   C1B13423  11.093  28.789   8.738
  658POPC   C2B13424  11.085  28.703   8.266
  658POPC   C3B13425  11.072  28.805   7.811
  658POPC   C4B13426  11.352  29.030   7.531
  659POPC   NC313427  23.743  22.321   9.608
  659POPC   PO413428  23.478  21.711   9.558
  659POPC   GL113429  23.692  21.984   9.188
  659POPC   GL213430  23.814  22.319   9.107
  659POPC   C1A13431  23.557  22.081   8.735
  659POPC   D2A13432  23.795  22.214   8.358
  659POPC   C3A13433  23.680  22.035   7.964
  659POPC   C4A13434  23.403  22.234   7.723
  659POPC   C1B13435  24.042  22.467   8.737
  659POPC   C2B13436  24.102  22.629   8.325
  659POPC   C3B13437  23.906  22.529   7.941
  659POPC   C4B13438  23.885  22.285   7.575
  660POPC   NC313439   0.975  18.956   9.570
  660POPC   PO413440   1.582  19.288   9.505
  660POPC   GL113441   1.321  19.175   9.161
  660POPC   GL213442   1.292  18.815   9.170
  660POPC   C1A13443   1.427  19.111   8.702
  660POPC   D2A13444   1.273  18.904   8.302
  660POPC   C3A13445   1.285  19.189   7.945
  660POPC   C4A13446   0.959  19.259   7.651
  660POPC   C1B13447   1.177  18.646   8.770
  660POPC   C2B13448   1.074  18.391   8.406
  660POPC   C3B13449   0.964  18.535   8.019
  660POPC   C4B13450   1.162  18.739   7.704
  661POPC   NC313451  21.006   2.394   9.461
  661POPC   PO413452  21.475   2.950   9.508
  661POPC   GL113453  21.271   2.762   9.188
  661POPC   GL213454  21.103   3.027   9.047
  661POPC   C1A13455  21.423   2.669   8.808
  661POPC   D2A13456  21.665   2.819   8.471
  661POPC   C3A13457  21.558   2.948   8.058
  661POPC   C4A13458  21.509   2.775   7.641
  661POPC   C1B13459  21.069   2.932   8.617
  661POPC   C2B13460  21.183   2.585   8.350
  661POPC   C3B13461  21.102   2.691   7.962
  661POPC   C4B13462  21.132   3.092   7.786
  662POPC   NC313463  19.652  44.654   9.494
  662POPC   PO413464  20.211  44.879   9.523
  662POPC   GL113465  20.041  44.595   9.155
  662POPC   GL213466  19.721  44.329   9.095
  662POPC   C1A13467  19.879  44.601   8.725
  662POPC   D2A13468  19.681  44.770   8.374
  662POPC   C3A13469  19.970  44.821   8.081
  662POPC   C4A13470  20.006  44.576   7.757
  662POPC   C1B13471  19.572  44.170   8.685
  662POPC   C2B13472  19.487  44.307   8.252
  662POPC   C3B13473  19.513  44.553   7.857
  662POPC   C4B13474  19.544  44.489   7.389
  663POPC   NC313475  27.600  24.255   9.356
  663POPC   PO413476  27.733  24.864   9.491
  663POPC   GL113477  27.689  24.701   9.101
  663POPC   GL213478  27.358  24.613   9.087
  663POPC   C1A13479  27.754  24.416   8.748
  663POPC   D2A13480  27.980  24.158   8.453
  663POPC   C3A13481  27.876  24.333   8.088
  663POPC   C4A13482  27.554  24.245   7.798
  663POPC   C1B13483  27.251  24.281   8.783
  663POPC   C2B13484  27.430  24.283   8.353
  663POPC   C3B13485  27.471  24.676   8.075
  663POPC   C4B13486  27.241  25.040   7.857
  664POPC   NC313487  23.320   6.918   9.604
  664POPC   PO413488  23.817   6.503   9.439
  664POPC   GL113489  23.660   6.495   9.075
  664POPC   GL213490  23.596   6.859   9.102
  664POPC   C1A13491  23.733   6.615   8.668
  664POPC   D2A13492  23.572   6.856   8.363
  664POPC   C3A13493  23.592   6.590   8.014
  664POPC   C4A13494  23.908   6.322   7.804
  664POPC   C1B13495  24.008   6.949   8.917
  664POPC   C2B13496  24.047   7.026   8.474
  664POPC   C3B13497  24.082   7.012   8.046
  664POPC   C4B13498  23.901   6.832   7.698
  665POPC   NC313499   1.661  22.709   9.320
  665POPC   PO413500   1.817  23.342   9.391
  665POPC   GL113501   2.019  23.085   9.109
  665POPC   GL213502   1.698  23.041   8.937
  665POPC   C1A13503   2.107  22.905   8.697
  665POPC   D2A13504   1.826  22.873   8.358
  665POPC   C3A13505   2.110  22.825   8.044
  665POPC   C4A13506   2.187  22.832   7.631
  665POPC   C1B13507   1.864  23.339   8.638
  665POPC   C2B13508   1.884  23.348   8.202
  665POPC   C3B13509   1.736  23.086   7.857
  665POPC   C4B13510   1.431  23.210   7.560
  666POPC   NC313511   6.218  11.164   9.478
  666POPC   PO413512   5.591  11.363   9.571
  666POPC   GL113513   5.547  11.508   9.174
  666POPC   GL213514   5.887  11.385   9.105
  666POPC   C1A13515   5.510  11.278   8.776
  666POPC   D2A13516   5.681  11.068   8.416
  666POPC   C3A13517   5.713  11.355   8.068
  666POPC   C4A13518   5.695  11.385   7.636
  666POPC   C1B13519   6.110  11.175   8.749
  666POPC   C2B13520   6.169  11.272   8.299
  666POPC   C3B13521   6.169  11.242   7.814
  666POPC   C4B13522   6.120  11.526   7.398
  667POPC   NC313523   9.122  30.531   9.405
  667POPC   PO413524   8.673  30.995   9.458
  667POPC   GL113525   8.927  30.875   9.096
  667POPC   GL213526   8.925  30.523   8.960
  667POPC   C1A13527   9.068  30.885   8.644
  667POPC   D2A13528   8.948  30.666   8.264
  667POPC   C3A13529   9.162  30.769   7.886
  667POPC   C4A13530   9.052  31.017   7.552
  667POPC   C1B13531   9.038  30.304   8.614
  667POPC   C2B13532   9.225  30.234   8.225
  667POPC   C3B13533   9.115  30.263   7.797
  667POPC   C4B13534   9.146  30.487   7.393
  668POPC   NC313535  39.410   2.138   9.551
  668POPC   PO413536  38.774   2.005   9.479
  668POPC   GL113537  39.056   1.874   9.178
  668POPC   GL213538  39.323   2.086   9.063
  668POPC   C1A13539  39.116   1.664   8.790
  668POPC   D2A13540  39.131   1.895   8.416
  668POPC   C3A13541  39.219   1.728   8.025
  668POPC   C4A13542  39.120   2.002   7.703
  668POPC   C1B13543  39.530   1.991   8.712
  668POPC   C2B13544  39.631   1.909   8.293
  668POPC   C3B13545  39.436   2.194   8.055
  668POPC   C4B13546  39.518   2.343   7.684
  669POPC   NC313547   5.020  38.259   9.516
  669POPC   PO413548   5.132  37.591   9.546
  669POPC   GL113549   5.156  37.790   9.136
  669POPC   GL213550   4.891  38.081   9.072
  669POPC   C1A13551   5.213  37.499   8.764
  669POPC   D2A13552   5.262  37.630   8.331
  669POPC   C3A13553   5.231  37.775   7.958
  669POPC   C4A13554   5.037  37.472   7.726
  669POPC   C1B13555   4.998  37.956   8.677
  669POPC   C2B13556   4.783  37.619   8.490
  669POPC   C3B13557   4.737  37.659   8.074
  669POPC   C4B13558   4.796  38.059   7.855
  670POPC   NC313559   8.106  21.852   9.425
  670POPC   PO413560   8.763  22.013   9.542
  670POPC   GL113561   8.510  21.997   9.122
  670POPC   GL213562   8.200  22.230   9.105
  670POPC   C1A13563   8.452  22.211   8.688
  670POPC   D2A13564   8.122  22.096   8.368
  670POPC   C3A13565   8.279  22.175   7.957
  670POPC   C4A13566   8.383  21.987   7.561
  670POPC   C1B13567   7.942  22.425   8.781
  670POPC   C2B13568   7.720  22.427   8.394
  670POPC   C3B13569   7.796  22.383   7.961
  670POPC   C4B13570   8.053  22.607   7.704
  671POPC   NC313571  16.908  21.540   9.275
  671POPC   PO413572  16.301  21.479   9.450
  671POPC   GL113573  16.215  21.499   9.048
  671POPC   GL213574  16.544  21.374   8.952
  671POPC   C1A13575  16.263  21.600   8.607
  671POPC   D2A13576  16.606  21.638   8.299
  671POPC   C3A13577  16.695  21.281   8.013
  671POPC   C4A13578  16.657  21.057   7.597
  671POPC   C1B13579  16.632  21.172   8.531
  671POPC   C2B13580  16.882  20.876   8.236
  671POPC   C3B13581  17.076  20.811   7.800
  671POPC   C4B13582  16.980  20.702   7.355
  672POPC   NC313583  28.320  15.616   9.563
  672POPC   PO413584  28.378  16.178   9.490
  672POPC   GL113585  28.345  15.911   9.124
  672POPC   GL213586  28.642  15.664   9.183
  672POPC   C1A13587  28.248  15.920   8.676
  672POPC   D2A13588  28.359  15.881   8.248
  672POPC   C3A13589  28.143  15.923   7.866
  672POPC   C4A13590  28.326  16.123   7.503
  672POPC   C1B13591  28.499  15.480   8.827
  672POPC   C2B13592  28.650  15.491   8.397
  672POPC   C3B13593  28.446  15.463   7.972
  672POPC   C4B13594  28.436  15.628   7.559
  673POPC   NC313595  34.331  21.790   9.434
  673POPC   PO413596  34.772  21.360   9.719
  673POPC   GL113597  34.685  21.477   9.210
  673POPC   GL213598  34.938  21.354   9.086
  673POPC   C1A13599  34.622  21.470   8.719
  673POPC   D2A13600  34.406  21.371   8.329
  673POPC   C3A13601  34.429  21.565   7.947
  673POPC   C4A13602  34.742  21.581   7.691
  673POPC   C1B13603  35.067  21.162   8.747
  673POPC   C2B13604  34.853  21.027   8.414
  673POPC   C3B13605  34.846  21.219   8.043
  673POPC   C4B13606  35.103  21.171   7.679
  674POPC   NC313607  35.651   2.276   9.234
  674POPC   PO413608  35.525   1.673   9.562
  674POPC   GL113609  35.405   1.760   9.149
  674POPC   GL213610  35.153   1.983   9.160
  674POPC   C1A13611  35.451   1.984   8.729
  674POPC   D2A13612  35.648   2.193   8.398
  674POPC   C3A13613  35.457   2.051   8.030
  674POPC   C4A13614  35.549   1.915   7.613
  674POPC   C1B13615  35.027   2.267   8.824
  674POPC   C2B13616  35.180   2.384   8.422
  674POPC   C3B13617  35.002   2.298   8.032
  674POPC   C4B13618  35.182   2.282   7.637
  675POPC   NC313619  18.964  38.989   9.478
  675POPC   PO413620  19.069  39.639   9.446
  675POPC   GL113621  18.916  39.374   9.115
  675POPC   GL213622  19.225  39.175   9.101
  675POPC   C1A13623  19.008  39.309   8.674
  675POPC   D2A13624  19.385  39.382   8.486
  675POPC   C3A13625  19.267  39.412   8.109
  675POPC   C4A13626  18.969  39.439   7.803
  675POPC   C1B13627  19.408  38.948   8.780
  675POPC   C2B13628  19.250  38.901   8.336
  675POPC   C3B13629  19.197  38.945   7.891
  675POPC   C4B13630  18.897  38.985   7.557
  676POPC   NC313631   8.140  36.030   9.394
  676POPC   PO413632   8.268  36.705   9.467
  676POPC   GL113633   8.322  36.438   9.086
  676POPC   GL213634   8.612  36.236   9.134
  676POPC   C1A13635   8.200  36.101   8.739
  676POPC   D2A13636   7.884  36.058   8.398
  676POPC   C3A13637   8.049  36.144   8.021
  676POPC   C4A13638   8.310  35.861   7.833
  676POPC   C1B13639   8.674  36.339   8.696
  676POPC   C2B13640   8.566  36.195   8.281
  676POPC   C3B13641   8.487  36.370   7.913
  676POPC   C4B13642   8.489  36.452   7.512
  677POPC   NC313643  25.887  21.168   9.761
  677POPC   PO413644  26.142  21.729   9.452
  677POPC   GL113645  26.002  21.482   9.121
  677POPC   GL213646  25.752  21.258   9.197
  677POPC   C1A13647  26.126  21.440   8.702
  677POPC   D2A13648  25.947  21.273   8.331
  677POPC   C3A13649  26.151  21.480   8.013
  677POPC   C4A13650  25.984  21.639   7.645
  677POPC   C1B13651  25.868  21.013   8.773
  677POPC   C2B13652  25.940  20.761   8.391
  677POPC   C3B13653  25.926  20.885   7.966
  677POPC   C4B13654  25.734  21.244   7.801
  678POPC   NC313655  12.114   1.712   9.561
  678POPC   PO413656  12.087   2.333   9.471
  678POPC   GL113657  12.314   2.103   9.148
  678POPC   GL213658  11.990   1.990   9.083
  678POPC   C1A13659  12.287   1.958   8.683
  678POPC   D2A13660  12.408   1.903   8.239
  678POPC   C3A13661  12.302   2.257   7.943
  678POPC   C4A13662  12.243   2.476   7.549
  678POPC   C1B13663  11.767   1.810   8.706
  678POPC   C2B13664  11.892   1.882   8.319
  678POPC   C3B13665  11.854   2.009   7.919
  678POPC   C4B13666  11.823   1.713   7.568
  679POPC   NC313667  20.066   2.090   9.592
  679POPC   PO413668  20.758   1.940   9.768
  679POPC   GL113669  20.649   2.021   9.307
  679POPC   GL213670  20.308   1.945   9.164
  679POPC   C1A13671  20.705   1.897   8.852
  679POPC   D2A13672  20.372   1.773   8.564
  679POPC   C3A13673  20.587   1.779   8.175
  679POPC   C4A13674  20.625   1.872   7.745
  679POPC   C1B13675  20.417   2.308   8.957
  679POPC   C2B13676  20.493   2.274   8.532
  679POPC   C3B13677  20.259   2.150   8.211
  679POPC   C4B13678  20.189   2.150   7.831
  680POPC   NC313679   7.947  14.915   9.409
  680POPC   PO413680   8.520  15.282   9.656
  680POPC   GL113681   8.315  15.497   9.161
  680POPC   GL213682   7.976  15.367   9.103
  680POPC   C1A13683   8.320  15.366   8.709
  680POPC   D2A13684   8.491  15.002   8.470
  680POPC   C3A13685   8.434  14.999   8.012
  680POPC   C4A13686   8.541  14.711   7.683
  680POPC   C1B13687   7.799  15.260   8.680
  680POPC   C2B13688   7.710  15.315   8.233
  680POPC   C3B13689   7.812  15.231   7.811
  680POPC   C4B13690   7.776  15.331   7.364
  681POPC   NC313691  33.577  17.745   9.473
  681POPC   PO413692  34.115  17.352   9.595
  681POPC   GL113693  33.970  17.434   9.169
  681POPC   GL213694  33.728  17.635   9.015
  681POPC   C1A13695  34.055  17.348   8.740
  681POPC   D2A13696  34.092  17.092   8.392
  681POPC   C3A13697  34.006  17.373   8.066
  681POPC   C4A13698  33.811  17.289   7.696
  681POPC   C1B13699  33.706  17.865   8.667
  681POPC   C2B13700  33.629  17.856   8.254
  681POPC   C3B13701  33.622  17.731   7.850
  681POPC   C4B13702  33.928  17.782   7.518
  682POPC   NC313703  14.463  21.042   9.414
  682POPC   PO413704  14.144  21.644   9.324
  682POPC   GL113705  14.491  21.495   9.137
  682POPC   GL213706  14.285  21.205   8.972
  682POPC   C1A13707  14.728  21.376   8.780
  682POPC   D2A13708  14.608  21.144   8.430
  682POPC   C3A13709  14.635  21.312   8.026
  682POPC   C4A13710  14.406  21.159   7.707
  682POPC   C1B13711  14.230  21.540   8.687
  682POPC   C2B13712  13.993  21.573   8.358
  682POPC   C3B13713  14.160  21.526   7.976
  682POPC   C4B13714  14.288  21.633   7.579
  683POPC   NC313715  43.426  10.539   9.315
  683POPC   PO413716  42.703  10.335   9.419
  683POPC   GL113717  43.001  10.293   9.126
  683POPC   GL213718  43.161   9.985   9.198
  683POPC   C1A13719  43.084  10.547   8.763
  683POPC   D2A13720  43.030  10.776   8.398
  683POPC   C3A13721  43.326  10.707   8.074
  683POPC   C4A13722  43.060  10.801   7.680
  683POPC   C1B13723  43.331  10.085   8.780
  683POPC   C2B13724  43.275  10.249   8.366
  683POPC   C3B13725  43.450  10.188   7.975
  683POPC   C4B13726  43.453  10.485   7.648
  684POPC   NC313727  18.605  39.895   9.702
  684POPC   PO413728  19.183  40.252   9.432
  684POPC   GL113729  19.232  40.052   9.088
  684POPC   GL213730  19.472  40.259   8.967
  684POPC   C1A13731  19.271  39.769   8.780
  684POPC   D2A13732  19.003  39.779   8.408
  684POPC   C3A13733  19.180  39.927   8.031
  684POPC   C4A13734  19.417  39.693   7.715
  684POPC   C1B13735  19.149  40.252   8.618
  684POPC   C2B13736  18.893  40.349   8.279
  684POPC   C3B13737  18.845  40.309   7.858
  684POPC   C4B13738  19.171  40.135   7.557
  685POPC   NC313739  28.793  37.097   9.640
  685POPC   PO413740  29.164  36.571   9.467
  685POPC   GL113741  29.122  36.997   9.251
  685POPC   GL213742  28.770  37.103   9.133
  685POPC   C1A13743  29.203  37.192   8.841
  685POPC   D2A13744  29.298  37.152   8.406
  685POPC   C3A13745  29.457  36.798   8.227
  685POPC   C4A13746  29.420  36.905   7.848
  685POPC   C1B13747  28.869  36.773   8.865
  685POPC   C2B13748  28.952  36.728   8.435
  685POPC   C3B13749  28.961  36.796   8.006
  685POPC   C4B13750  28.945  36.881   7.572
  686POPC   NC313751  16.900  44.311   9.569
  686POPC   PO413752  16.630  43.680   9.565
  686POPC   GL113753  16.860  43.876   9.186
  686POPC   GL213754  17.047  44.247   9.105
  686POPC   C1A13755  16.636  43.678   8.787
  686POPC   D2A13756  16.500  43.758   8.394
  686POPC   C3A13757  16.366  43.621   7.975
  686POPC   C4A13758  16.717  43.684   7.705
  686POPC   C1B13759  16.704  44.174   8.807
  686POPC   C2B13760  16.541  44.284   8.376
  686POPC   C3B13761  16.554  44.088   8.001
  686POPC   C4B13762  16.482  44.128   7.587
  687POPC   NC313763  16.592  44.996   9.613
  687POPC   PO413764  17.181  44.719   9.479
  687POPC   GL113765  16.994  44.800   9.116
  687POPC   GL213766  16.696  44.654   9.164
  687POPC   C1A13767  16.971  44.590   8.723
  687POPC   D2A13768  16.905  44.709   8.353
  687POPC   C3A13769  16.866  44.482   8.013
  687POPC   C4A13770  16.733  44.593   7.592
  687POPC   C1B13771  16.447  44.593   8.760
  687POPC   C2B13772  16.399  44.782   8.352
  687POPC   C3B13773  16.373  44.566   7.967
  687POPC   C4B13774  16.148  44.502   7.609
  688POPC   NC313775  31.490  11.256   9.436
  688POPC   PO413776  31.183  10.796   9.569
  688POPC   GL113777  31.250  10.840   9.133
  688POPC   GL213778  31.605  10.757   9.088
  688POPC   C1A13779  31.289  10.733   8.685
  688POPC   D2A13780  31.356  10.409   8.379
  688POPC   C3A13781  31.586  10.529   8.022
  688POPC   C4A13782  31.519  10.526   7.592
  688POPC   C1B13783  31.729  10.443   8.734
  688POPC   C2B13784  31.847  10.212   8.319
  688POPC   C3B13785  31.816  10.103   7.840
  688POPC   C4B13786  31.842  10.198   7.370
  689POPC   NC313787  37.034  19.373   9.418
  689POPC   PO413788  36.748  18.886   9.815
  689POPC   GL113789  36.778  18.914   9.345
  689POPC   GL213790  36.586  19.208   9.215
  689POPC   C1A13791  36.748  18.820   8.896
  689POPC   D2A13792  37.031  19.009   8.580
  689POPC   C3A13793  37.021  19.001   8.143
  689POPC   C4A13794  36.965  19.000   7.708
  689POPC   C1B13795  36.755  19.360   8.831
  689POPC   C2B13796  36.681  19.366   8.412
  689POPC   C3B13797  36.754  19.427   8.002
  689POPC   C4B13798  36.776  19.554   7.611
  690POPC   NC313799  26.045  20.440   9.433
  690POPC   PO413800  26.327  21.009   9.602
  690POPC   GL113801  26.137  20.903   9.192
  690POPC   GL213802  25.765  20.759   9.186
  690POPC   C1A13803  26.224  20.618   8.823
  690POPC   D2A13804  26.231  20.330   8.475
  690POPC   C3A13805  26.355  20.499   8.111
  690POPC   C4A13806  26.299  20.656   7.723
  690POPC   C1B13807  25.724  20.505   8.799
  690POPC   C2B13808  25.693  20.312   8.391
  690POPC   C3B13809  25.839  20.355   7.941
  690POPC   C4B13810  25.835  20.567   7.503
  691POPC   NC313811  15.225  21.661   9.610
  691POPC   PO413812  14.906  21.103   9.464
  691POPC   GL113813  15.115  21.158   9.073
  691POPC   GL213814  15.217  21.489   9.135
  691POPC   C1A13815  15.125  21.111   8.603
  691POPC   D2A13816  15.061  21.399   8.301
  691POPC   C3A13817  15.220  21.308   7.923
  691POPC   C4A13818  14.928  21.062   7.689
  691POPC   C1B13819  15.186  21.614   8.749
  691POPC   C2B13820  15.361  21.799   8.412
  691POPC   C3B13821  15.107  21.847   8.052
  691POPC   C4B13822  15.036  21.681   7.658
  692POPC   NC313823  31.297   4.965   9.663
  692POPC   PO413824  31.983   5.116   9.805
  692POPC   GL113825  31.718   5.034   9.345
  692POPC   GL213826  31.404   5.016   9.178
  692POPC   C1A13827  31.787   5.018   8.852
  692POPC   D2A13828  31.711   4.822   8.436
  692POPC   C3A13829  31.751   4.976   8.016
  692POPC   C4A13830  31.553   4.950   7.655
  692POPC   C1B13831  31.147   5.224   8.887
  692POPC   C2B13832  31.226   4.992   8.516
  692POPC   C3B13833  31.240   4.949   8.087
  692POPC   C4B13834  31.216   5.335   7.877
  693POPC   NC313835  10.043  11.042   9.525
  693POPC   PO413836   9.815  10.370   9.664
  693POPC   GL113837   9.729  10.629   9.321
  693POPC   GL213838  10.045  10.603   9.193
  693POPC   C1A13839   9.563  10.685   8.915
  693POPC   D2A13840   9.708  10.660   8.502
  693POPC   C3A13841   9.502  10.656   8.094
  693POPC   C4A13842   9.760  10.449   7.814
  693POPC   C1B13843   9.996  10.936   8.869
  693POPC   C2B13844  10.055  11.076   8.456
  693POPC   C3B13845   9.954  10.877   8.091
  693POPC   C4B13846   9.869  10.947   7.699
  694POPC   NC313847   1.859  11.892   9.419
  694POPC   PO413848   2.100  12.514   9.527
  694POPC   GL113849   2.114  12.258   9.156
  694POPC   GL213850   1.763  12.270   9.080
  694POPC   C1A13851   2.163  12.018   8.768
  694POPC   D2A13852   2.124  12.139   8.328
  694POPC   C3A13853   2.086  11.844   7.983
  694POPC   C4A13854   2.062  12.033   7.578
  694POPC   C1B13855   1.668  12.076   8.685
  694POPC   C2B13856   1.678  11.864   8.326
  694POPC   C3B13857   1.671  12.100   7.957
  694POPC   C4B13858   1.551  12.209   7.575
  695POPC   NC313859   7.256  20.226   9.418
  695POPC   PO413860   7.759  20.731   9.473
  695POPC   GL113861   7.468  20.591   9.112
  695POPC   GL213862   7.261  20.892   9.003
  695POPC   C1A13863   7.157  20.493   8.738
  695POPC   D2A13864   7.133  20.857   8.444
  695POPC   C3A13865   7.295  20.758   8.057
  695POPC   C4A13866   7.348  20.424   7.781
  695POPC   C1B13867   7.674  20.969   8.807
  695POPC   C2B13868   7.693  21.079   8.359
  695POPC   C3B13869   7.726  21.001   7.907
  695POPC   C4B13870   7.534  20.858   7.561
  696POPC   NC313871   4.769  31.795   9.524
  696POPC   PO413872   5.146  32.350   9.539
  696POPC   GL113873   4.924  32.213   9.175
  696POPC   GL213874   5.138  31.948   9.131
  696POPC   C1A13875   4.978  32.354   8.737
  696POPC   D2A13876   5.008  32.504   8.326
  696POPC   C3A13877   5.212  32.295   8.001
  696POPC   C4A13878   4.854  32.248   7.840
  696POPC   C1B13879   5.002  31.845   8.695
  696POPC   C2B13880   5.091  31.846   8.246
  696POPC   C3B13881   5.122  31.812   7.795
  696POPC   C4B13882   5.464  31.867   7.501
  697POPC   NC313883  36.032  43.108   9.495
  697POPC   PO413884  36.353  42.510   9.619
  697POPC   GL113885  36.289  42.794   9.202
  697POPC   GL213886  36.385  43.146   9.151
  697POPC   C1A13887  36.060  42.983   8.821
  697POPC   D2A13888  36.169  42.916   8.413
  697POPC   C3A13889  36.139  43.123   8.036
  697POPC   C4A13890  36.299  42.983   7.655
  697POPC   C1B13891  36.508  43.324   8.788
  697POPC   C2B13892  36.405  43.420   8.362
  697POPC   C3B13893  36.607  43.310   7.969
  697POPC   C4B13894  36.683  43.268   7.538
  698POPC   NC313895  25.196  13.324   9.445
  698POPC   PO413896  25.542  13.969   9.390
  698POPC   GL113897  25.414  13.659   9.114
  698POPC   GL213898  25.076  13.638   9.075
  698POPC   C1A13899  25.480  13.597   8.656
  698POPC   D2A13900  25.335  13.877   8.307
  698POPC   C3A13901  25.197  13.744   7.896
  698POPC   C4A13902  25.496  13.583   7.560
  698POPC   C1B13903  25.088  13.310   8.776
  698POPC   C2B13904  25.069  13.413   8.369
  698POPC   C3B13905  24.959  13.248   8.007
  698POPC   C4B13906  24.892  13.452   7.608
  699POPC   NC313907   4.902  20.707   9.465
  699POPC   PO413908   5.543  20.834   9.337
  699POPC   GL113909   5.198  20.620   9.077
  699POPC   GL213910   4.927  20.841   8.955
  699POPC   C1A13911   5.086  20.377   8.731
  699POPC   D2A13912   5.256  20.147   8.395
  699POPC   C3A13913   5.269  20.350   7.989
  699POPC   C4A13914   5.371  20.726   7.710
  699POPC   C1B13915   5.313  20.880   8.668
  699POPC   C2B13916   5.363  20.802   8.246
  699POPC   C3B13917   4.976  20.754   8.010
  699POPC   C4B13918   4.849  20.465   7.688
  700POPC   NC313919  39.579   0.262   9.606
  700POPC   PO413920  39.149   0.767   9.665
  700POPC   GL113921  39.386   0.659   9.279
  700POPC   GL213922  39.298   0.307   9.168
  700POPC   C1A13923  39.458   0.614   8.817
  700POPC   D2A13924  39.313   0.330   8.462
  700POPC   C3A13925  39.269   0.547   8.061
  700POPC   C4A13926  39.479   0.551   7.675
  700POPC   C1B13927  38.954   0.242   8.827
  700POPC   C2B13928  38.866  44.994   8.409
  700POPC   C3B13929  38.951   0.103   7.958
  700POPC   C4B13930  38.902   0.187   7.520
  701POPC   NC313931  40.121  21.772   9.557
  701POPC   PO413932  39.792  22.298   9.534
  701POPC   GL113933  39.984  22.269   9.164
  701POPC   GL213934  40.222  22.002   9.117
  701POPC   C1A13935  39.936  22.286   8.745
  701POPC   D2A13936  40.074  22.148   8.334
  701POPC   C3A13937  39.839  22.170   7.950
  701POPC   C4A13938  39.744  22.355   7.525
  701POPC   C1B13939  40.385  22.000   8.721
  701POPC   C2B13940  40.480  21.861   8.324
  701POPC   C3B13941  40.373  22.062   7.939
  701POPC   C4B13942  40.249  22.361   7.658
  702POPC   NC313943  33.652  31.982   9.577
  702POPC   PO413944  34.154  32.380   9.458
  702POPC   GL113945  33.787  32.308   9.152
  702POPC   GL213946  33.569  31.988   9.086
  702POPC   C1A13947  33.911  32.197   8.755
  702POPC   D2A13948  34.137  31.927   8.483
  702POPC   C3A13949  34.149  32.102   8.049
  702POPC   C4A13950  33.912  32.182   7.673
  702POPC   C1B13951  33.510  31.912   8.677
  702POPC   C2B13952  33.676  32.037   8.303
  702POPC   C3B13953  33.669  31.825   7.927
  702POPC   C4B13954  33.501  31.879   7.513
  703POPC   NC313955  36.789  29.899   9.547
  703POPC   PO413956  37.227  29.458   9.305
  703POPC   GL113957  36.989  29.784   9.085
  703POPC   GL213958  36.617  29.914   9.083
  703POPC   C1A13959  37.108  29.947   8.682
  703POPC   D2A13960  37.310  29.920   8.290
  703POPC   C3A13961  37.117  29.768   7.943
  703POPC   C4A13962  36.981  29.981   7.585
  703POPC   C1B13963  36.353  29.943   8.733
  703POPC   C2B13964  36.404  30.057   8.326
  703POPC   C3B13965  36.569  29.871   7.944
  703POPC   C4B13966  36.496  29.836   7.479
  704POPC   NC313967  22.608  36.249   9.445
  704POPC   PO413968  23.139  35.889   9.485
  704POPC   GL113969  22.945  35.825   9.099
  704POPC   GL213970  22.612  35.951   9.021
  704POPC   C1A13971  22.994  36.053   8.691
  704POPC   D2A13972  23.262  36.090   8.362
  704POPC   C3A13973  23.123  36.185   7.979
  704POPC   C4A13974  22.907  35.997   7.642
  704POPC   C1B13975  22.599  36.380   8.765
  704POPC   C2B13976  22.798  36.431   8.355
  704POPC   C3B13977  22.607  36.241   8.000
  704POPC   C4B13978  22.512  36.307   7.573
  705POPC   NC313979   2.837  27.119   9.796
  705POPC   PO413980   2.682  26.571   9.447
  705POPC   GL113981   2.801  26.653   9.037
  705POPC   GL213982   3.035  26.882   9.135
  705POPC   C1A13983   2.819  26.596   8.564
  705POPC   D2A13984   2.833  26.508   8.110
  705POPC   C3A13985   2.709  26.848   7.845
  705POPC   C4A13986   2.882  27.014   7.447
  705POPC   C1B13987   2.867  27.080   8.734
  705POPC   C2B13988   2.951  27.046   8.272
  705POPC   C3B13989   3.073  27.252   7.869
  705POPC   C4B13990   2.898  27.520   7.568
  706POPC   NC313991  33.246  23.510   9.426
  706POPC   PO413992  32.905  24.010   9.543
  706POPC   GL113993  33.149  23.926   9.151
  706POPC   GL213994  33.076  23.645   8.974
  706POPC   C1A13995  33.353  24.062   8.782
  706POPC   D2A13996  33.300  23.852   8.367
  706POPC   C3A13997  33.062  23.920   7.975
  706POPC   C4A13998  32.854  23.709   7.639
  706POPC   C1B13999  33.320  23.377   8.727
  706POPC   C2B14000  33.149  23.275   8.344
  706POPC   C3B14001  33.226  23.420   7.960
  706POPC   C4B14002  33.331  23.550   7.594
  707POPC   NC314003   3.257   1.063   9.653
  707POPC   PO414004   3.831   0.832   9.536
  707POPC   GL114005   3.738   1.155   9.209
  707POPC   GL214006   3.467   1.385   9.085
  707POPC   C1A14007   3.892   1.135   8.799
  707POPC   D2A14008   3.888   0.935   8.429
  707POPC   C3A14009   3.658   1.133   8.123
  707POPC   C4A14010   3.734   1.218   7.708
  707POPC   C1B14011   3.483   1.359   8.602
  707POPC   C2B14012   3.157   1.230   8.308
  707POPC   C3B14013   3.190   1.173   7.858
  707POPC   C4B14014   3.312   1.544   7.646
  708POPC   NC314015  25.955  10.094   9.356
  708POPC   PO414016  26.358  10.533   9.538
  708POPC   GL114017  26.191  10.478   9.114
  708POPC   GL214018  26.381  10.677   8.970
  708POPC   C1A14019  25.913  10.387   8.722
  708POPC   D2A14020  25.824  10.191   8.332
  708POPC   C3A14021  25.904  10.402   7.951
  708POPC   C4A14022  26.182  10.186   7.674
  708POPC   C1B14023  26.404  10.359   8.606
  708POPC   C2B14024  26.376  10.368   8.148
  708POPC   C3B14025  26.327  10.688   7.841
  708POPC   C4B14026  26.374  11.130   7.850
  709POPC   NC314027  35.907  42.439   9.618
  709POPC   PO414028  36.376  41.911   9.389
  709POPC   GL114029  36.197  42.048   9.036
  709POPC   GL214030  36.051  42.341   9.146
  709POPC   C1A14031  36.205  41.996   8.612
  709POPC   D2A14032  36.415  42.228   8.324
  709POPC   C3A14033  36.293  42.219   7.941
  709POPC   C4A14034  36.510  42.496   7.705
  709POPC   C1B14035  36.123  42.483   8.744
  709POPC   C2B14036  35.928  42.446   8.345
  709POPC   C3B14037  36.007  42.636   7.933
  709POPC   C4B14038  35.898  42.738   7.489
  710POPC   NC314039  12.821  28.232   9.581
  710POPC   PO414040  12.667  27.570   9.393
  710POPC   GL114041  12.667  27.977   9.152
  710POPC   GL214042  12.973  28.165   9.099
  710POPC   C1A14043  12.554  28.266   8.802
  710POPC   D2A14044  12.746  28.486   8.436
  710POPC   C3A14045  12.697  28.369   7.968
  710POPC   C4A14046  12.831  28.633   7.589
  710POPC   C1B14047  13.162  28.234   8.679
  710POPC   C2B14048  13.141  28.246   8.223
  710POPC   C3B14049  13.226  28.393   7.812
  710POPC   C4B14050  13.144  28.269   7.380
  711POPC   NC314051  14.143  31.968   9.463
  711POPC   PO414052  14.767  32.019   9.776
  711POPC   GL114053  14.758  32.081   9.287
  711POPC   GL214054  14.458  32.250   9.174
  711POPC   C1A14055  14.800  32.204   8.815
  711POPC   D2A14056  14.635  31.997   8.406
  711POPC   C3A14057  14.529  32.183   7.999
  711POPC   C4A14058  14.196  32.439   7.763
  711POPC   C1B14059  14.211  32.247   8.764
  711POPC   C2B14060  14.088  32.265   8.304
  711POPC   C3B14061  14.079  31.976   7.944
  711POPC   C4B14062  14.119  31.981   7.476
  712POPC   NC314063  36.746  26.459   9.610
  712POPC   PO414064  36.827  27.114   9.657
  712POPC   GL114065  36.715  27.119   9.203
  712POPC   GL214066  36.703  26.764   9.198
  712POPC   C1A14067  36.915  27.065   8.767
  712POPC   D2A14068  36.823  26.843   8.346
  712POPC   C3A14069  36.996  27.054   7.945
  712POPC   C4A14070  37.303  26.869   7.648
  712POPC   C1B14071  36.880  26.559   8.817
  712POPC   C2B14072  37.099  26.393   8.434
  712POPC   C3B14073  37.083  26.539   7.989
  712POPC   C4B14074  36.982  26.485   7.534
  713POPC   NC314075   0.110   8.705   9.502
  713POPC   PO414076   0.711   9.023   9.601
  713POPC   GL114077   0.407   9.071   9.295
  713POPC   GL214078   0.509   8.755   9.113
  713POPC   C1A14079   0.381   9.184   8.869
  713POPC   D2A14080   0.474   8.906   8.534
  713POPC   C3A14081   0.418   9.106   8.147
  713POPC   C4A14082   0.336   8.946   7.767
  713POPC   C1B14083   0.769   8.532   8.778
  713POPC   C2B14084   0.917   8.473   8.337
  713POPC   C3B14085   0.704   8.603   7.928
  713POPC   C4B14086   0.797   8.768   7.493
  714POPC   NC314087  39.064  21.290   9.638
  714POPC   PO414088  39.740  21.496   9.565
  714POPC   GL114089  39.351  21.475   9.248
  714POPC   GL214090  38.961  21.493   9.181
  714POPC   C1A14091  39.258  21.305   8.821
  714POPC   D2A14092  39.543  21.426   8.506
  714POPC   C3A14093  39.456  21.431   8.070
  714POPC   C4A14094  39.411  21.560   7.668
  714POPC   C1B14095  38.853  21.601   8.748
  714POPC   C2B14096  39.017  21.434   8.345
  714POPC   C3B14097  38.805  21.291   7.956
  714POPC   C4B14098  38.962  21.309   7.546
  715POPC   NC314099  37.483  14.831   9.557
  715POPC   PO414100  37.511  14.184   9.477
  715POPC   GL114101  37.577  14.421   9.129
  715POPC   GL214102  37.797  14.671   9.184
  715POPC   C1A14103  37.536  14.320   8.691
  715POPC   D2A14104  37.688  14.154   8.316
  715POPC   C3A14105  37.470  14.208   7.910
  715POPC   C4A14106  37.440  14.062   7.459
  715POPC   C1B14107  37.939  14.590   8.805
  715POPC   C2B14108  37.807  14.647   8.397
  715POPC   C3B14109  37.897  14.498   7.985
  715POPC   C4B14110  38.093  14.756   7.708
  716POPC   NC314111  30.506  30.668   9.348
  716POPC   PO414112  30.967  31.114   9.647
  716POPC   GL114113  30.915  30.932   9.203
  716POPC   GL214114  30.603  30.934   8.936
  716POPC   C1A14115  31.009  30.718   8.789
  716POPC   D2A14116  30.821  30.963   8.423
  716POPC   C3A14117  30.807  30.785   8.001
  716POPC   C4A14118  30.935  30.478   7.650
  716POPC   C1B14119  30.535  30.574   8.624
  716POPC   C2B14120  30.545  30.385   8.190
  716POPC   C3B14121  30.430  30.502   7.770
  716POPC   C4B14122  30.132  30.792   7.572
  717POPC   NC314123   4.657  33.961   9.457
  717POPC   PO414124   5.059  33.406   9.555
  717POPC   GL114125   4.913  33.532   9.167
  717POPC   GL214126   5.218  33.721   9.175
  717POPC   C1A14127   5.013  33.549   8.720
  717POPC   D2A14128   4.764  33.556   8.349
  717POPC   C3A14129   4.649  33.931   8.135
  717POPC   C4A14130   4.897  33.917   7.774
  717POPC   C1B14131   5.136  34.031   8.871
  717POPC   C2B14132   5.050  34.094   8.426
  717POPC   C3B14133   5.287  34.136   8.040
  717POPC   C4B14134   5.450  33.721   7.873
  718POPC   NC314135  28.679   8.846   9.636
  718POPC   PO414136  29.268   9.174   9.498
  718POPC   GL114137  29.427   9.097   9.096
  718POPC   GL214138  29.413   8.749   9.057
  718POPC   C1A14139  29.291   9.009   8.634
  718POPC   D2A14140  29.115   9.104   8.251
  718POPC   C3A14141  29.384   9.144   7.904
  718POPC   C4A14142  29.321   9.153   7.474
  718POPC   C1B14143  29.345   8.503   8.700
  718POPC   C2B14144  29.153   8.544   8.319
  718POPC   C3B14145  29.108   8.707   7.933
  718POPC   C4B14146  29.028   8.751   7.526
  719POPC   NC314147   3.816  31.952   9.484
  719POPC   PO414148   3.282  32.431   9.491
  719POPC   GL114149   3.475  32.234   9.160
  719POPC   GL214150   3.280  31.901   9.188
  719POPC   C1A14151   3.560  32.450   8.747
  719POPC   D2A14152   3.497  32.499   8.294
  719POPC   C3A14153   3.736  32.128   8.082
  719POPC   C4A14154   3.680  31.972   7.663
  719POPC   C1B14155   3.186  32.076   8.767
  719POPC   C2B14156   3.280  32.026   8.332
  719POPC   C3B14157   3.259  32.154   7.898
  719POPC   C4B14158   3.051  31.953   7.574
  720POPC   NC314159  23.629  41.152   9.519
  720POPC   PO414160  23.883  41.760   9.468
  720POPC   GL114161  23.722  41.570   9.122
  720POPC   GL214162  23.942  41.266   9.144
  720POPC   C1A14163  23.628  41.796   8.716
  720POPC   D2A14164  23.787  42.011   8.326
  720POPC   C3A14165  23.704  41.700   8.053
  720POPC   C4A14166  23.587  41.560   7.695
  720POPC   C1B14167  23.684  41.176   8.808
  720POPC   C2B14168  23.659  41.349   8.426
  720POPC   C3B14169  23.692  41.159   8.039
  720POPC   C4B14170  23.487  41.047   7.663
  721POPC   NC314171  29.238  16.329   9.389
  721POPC   PO414172  29.256  15.701   9.448
  721POPC   GL114173  29.097  15.914   9.111
  721POPC   GL214174  28.800  16.161   9.152
  721POPC   C1A14175  29.274  15.839   8.716
  721POPC   D2A14176  29.435  15.966   8.325
  721POPC   C3A14177  29.266  15.744   7.982
  721POPC   C4A14178  29.224  15.665   7.530
  721POPC   C1B14179  28.757  15.921   8.739
  721POPC   C2B14180  28.891  15.934   8.312
  721POPC   C3B14181  28.774  15.834   7.896
  721POPC   C4B14182  28.827  16.010   7.511
  722POPC   NC314183   1.847  16.952   9.840
  722POPC   PO414184   2.388  16.666   9.648
  722POPC   GL114185   2.248  16.826   9.225
  722POPC   GL214186   1.885  16.886   9.211
  722POPC   C1A14187   2.132  16.745   8.780
  722POPC   D2A14188   1.900  16.438   8.525
  722POPC   C3A14189   1.911  16.583   8.104
  722POPC   C4A14190   2.245  16.811   7.942
  722POPC   C1B14191   1.693  17.002   8.790
  722POPC   C2B14192   1.887  17.024   8.377
  722POPC   C3B14193   1.663  17.110   8.030
  722POPC   C4B14194   1.806  16.888   7.697
  723POPC   NC314195  24.266  19.984   9.462
  723POPC   PO414196  24.828  19.727   9.283
  723POPC   GL114197  24.492  19.728   9.058
  723POPC   GL214198  24.353  19.444   9.155
  723POPC   C1A14199  24.573  19.748   8.643
  723POPC   D2A14200  24.757  19.978   8.305
  723POPC   C3A14201  24.529  19.896   7.932
  723POPC   C4A14202  24.493  20.180   7.591
  723POPC   C1B14203  24.128  19.461   8.759
  723POPC   C2B14204  24.282  19.467   8.344
  723POPC   C3B14205  24.102  19.615   7.985
  723POPC   C4B14206  24.257  19.531   7.632
  724POPC   NC314207   0.611  12.679   9.519
  724POPC   PO414208   0.563  13.138   9.042
  724POPC   GL114209   0.574  12.657   9.017
  724POPC   GL214210   0.235  12.504   9.196
  724POPC   C1A14211   0.723  12.353   8.676
  724POPC   D2A14212   0.766  12.363   8.227
  724POPC   C3A14213   0.689  12.758   8.030
  724POPC   C4A14214   0.481  12.906   7.675
  724POPC   C1B14215   0.218  12.418   8.766
  724POPC   C2B14216   0.338  12.625   8.388
  724POPC   C3B14217   0.165  12.618   7.960
  724POPC   C4B14218   0.105  12.587   7.518
  725POPC   NC314219  30.480   8.923   9.645
  725POPC   PO414220  31.030   8.965   9.621
  725POPC   GL114221  30.780   8.951   9.199
  725POPC   GL214222  30.416   9.057   9.153
  725POPC   C1A14223  30.730   8.916   8.716
  725POPC   D2A14224  30.612   8.785   8.256
  725POPC   C3A14225  30.764   8.939   7.846
  725POPC   C4A14226  30.752   9.238   7.501
  725POPC   C1B14227  30.258   8.739   8.859
  725POPC   C2B14228  30.265   8.481   8.493
  725POPC   C3B14229  30.190   8.504   8.067
  725POPC   C4B14230  30.291   8.695   7.687
  726POPC   NC314231  44.695  41.129   9.371
  726POPC   PO414232  44.230  41.549   9.500
  726POPC   GL114233  44.413  41.477   9.099
  726POPC   GL214234  44.770  41.601   9.148
  726POPC   C1A14235  44.529  41.224   8.713
  726POPC   D2A14236  44.722  41.321   8.294
  726POPC   C3A14237  44.499  41.443   7.915
  726POPC   C4A14238  44.452  41.180   7.560
  726POPC   C1B14239  44.783  41.663   8.706
  726POPC   C2B14240  44.966  41.787   8.315
  726POPC   C3B14241  44.924  41.713   7.887
  726POPC   C4B14242  44.735  41.809   7.496
  727POPC   NC314243   4.534  27.280   9.676
  727POPC   PO414244   5.103  27.652   9.613
  727POPC   GL114245   5.128  27.796   9.199
  727POPC   GL214246   4.819  27.692   9.175
  727POPC   C1A14247   5.321  27.647   8.800
  727POPC   D2A14248   5.388  27.271   8.519
  727POPC   C3A14249   5.317  27.373   8.049
  727POPC   C4A14250   5.103  27.249   7.660
  727POPC   C1B14251   4.832  27.542   8.777
  727POPC   C2B14252   4.986  27.610   8.380
  727POPC   C3B14253   4.835  27.573   7.965
  727POPC   C4B14254   4.599  27.365   7.662
  728POPC   NC314255  27.754  15.091   9.741
  728POPC   PO414256  28.481  15.194   9.634
  728POPC   GL114257  28.360  15.179   9.259
  728POPC   GL214258  28.018  15.138   9.270
  728POPC   C1A14259  28.505  14.893   8.976
  728POPC   D2A14260  28.558  15.034   8.587
  728POPC   C3A14261  28.506  14.999   8.166
  728POPC   C4A14262  28.440  15.015   7.719
  728POPC   C1B14263  28.091  15.161   8.812
  728POPC   C2B14264  28.158  15.391   8.427
  728POPC   C3B14265  27.949  15.435   8.028
  728POPC   C4B14266  28.013  15.281   7.613
  729POPC   NC314267  12.139   7.919   9.663
  729POPC   PO414268  12.033   8.535   9.576
  729POPC   GL114269  11.964   8.254   9.238
  729POPC   GL214270  12.278   8.320   9.063
  729POPC   C1A14271  11.922   8.036   8.837
  729POPC   D2A14272  11.777   8.156   8.430
  729POPC   C3A14273  12.019   8.115   8.063
  729POPC   C4A14274  12.107   8.429   7.759
  729POPC   C1B14275  12.288   8.319   8.588
  729POPC   C2B14276  12.413   8.504   8.175
  729POPC   C3B14277  12.613   8.465   7.766
  729POPC   C4B14278  12.443   8.297   7.370
  730POPC   NC314279  16.182  10.390   9.658
  730POPC   PO414280  15.800  10.885   9.705
  730POPC   GL114281  15.794  10.637   9.306
  730POPC   GL214282  16.145  10.625   9.154
  730POPC   C1A14283  15.744  10.715   8.834
  730POPC   D2A14284  15.963  10.707   8.429
  730POPC   C3A14285  15.728  10.555   8.076
  730POPC   C4A14286  15.705  10.401   7.658
  730POPC   C1B14287  16.083  10.330   8.764
  730POPC   C2B14288  16.071  10.226   8.295
  730POPC   C3B14289  16.170  10.335   7.842
  730POPC   C4B14290  16.044  10.091   7.430
  731POPC   NC314291  36.778  35.222   9.658
  731POPC   PO414292  37.295  34.826   9.405
  731POPC   GL114293  37.025  35.219   9.210
  731POPC   GL214294  36.658  35.364   9.195
  731POPC   C1A14295  36.927  35.413   8.783
  731POPC   D2A14296  36.928  35.284   8.352
  731POPC   C3A14297  36.995  35.529   7.954
  731POPC   C4A14298  37.029  35.630   7.490
  731POPC   C1B14299  36.464  35.132   8.852
  731POPC   C2B14300  36.586  34.898   8.423
  731POPC   C3B14301  36.680  35.073   7.968
  731POPC   C4B14302  36.823  35.138   7.502
  732POPC   NC314303  33.687  40.520   9.466
  732POPC   PO414304  33.413  41.104   9.773
  732POPC   GL114305  33.455  40.929   9.269
  732POPC   GL214306  33.790  40.954   9.168
  732POPC   C1A14307  33.518  40.617   8.850
  732POPC   D2A14308  33.791  40.512   8.492
  732POPC   C3A14309  33.690  40.609   8.070
  732POPC   C4A14310  33.642  40.992   7.872
  732POPC   C1B14311  33.938  40.940   8.734
  732POPC   C2B14312  33.941  41.130   8.302
  732POPC   C3B14313  34.155  41.086   7.914
  732POPC   C4B14314  34.032  40.793   7.600
  733POPC   NC314315  41.790   9.204   9.494
  733POPC   PO414316  41.315   9.748   9.495
  733POPC   GL114317  41.589   9.728   9.140
  733POPC   GL214318  41.726  10.065   9.084
  733POPC   C1A14319  41.666   9.466   8.755
  733POPC   D2A14320  41.388   9.350   8.406
  733POPC   C3A14321  41.585   9.319   8.025
  733POPC   C4A14322  41.872   9.617   7.839
  733POPC   C1B14323  41.532   9.988   8.689
  733POPC   C2B14324  41.628   9.817   8.285
  733POPC   C3B14325  41.748  10.112   7.967
  733POPC   C4B14326  41.604  10.366   7.627
  734POPC   NC314327  17.531  34.286   9.389
  734POPC   PO414328  17.489  33.706   9.774
  734POPC   GL114329  17.495  33.598   9.293
  734POPC   GL214330  17.509  33.885   9.087
  734POPC   C1A14331  17.633  33.453   8.847
  734POPC   D2A14332  17.830  33.602   8.467
  734POPC   C3A14333  17.673  33.498   8.031
  734POPC   C4A14334  17.550  33.562   7.624
  734POPC   C1B14335  17.374  34.070   8.691
  734POPC   C2B14336  17.515  34.017   8.259
  734POPC   C3B14337  17.441  34.068   7.808
  734POPC   C4B14338  17.163  34.276   7.478
  735POPC   NC314339  41.807   8.308   9.504
  735POPC   PO414340  41.394   8.935   9.478
  735POPC   GL114341  41.604   8.956   9.099
  735POPC   GL214342  41.962   8.863   9.173
  735POPC   C1A14343  41.495   8.920   8.701
  735POPC   D2A14344  41.490   8.621   8.406
  735POPC   C3A14345  41.420   8.797   8.027
  735POPC   C4A14346  41.454   8.611   7.633
  735POPC   C1B14347  41.997   9.030   8.769
  735POPC   C2B14348  41.852   9.047   8.356
  735POPC   C3B14349  42.068   9.146   7.969
  735POPC   C4B14350  41.822   9.143   7.614
  736POPC   NC314351   9.333  32.282   9.543
  736POPC   PO414352   9.839  32.594   9.321
  736POPC   GL114353   9.743  32.210   9.116
  736POPC   GL214354   9.425  31.986   9.161
  736POPC   C1A14355   9.991  32.146   8.731
  736POPC   D2A14356  10.047  31.841   8.389
  736POPC   C3A14357   9.960  32.015   7.989
  736POPC   C4A14358  10.150  32.332   7.780
  736POPC   C1B14359   9.389  32.173   8.746
  736POPC   C2B14360   9.595  32.110   8.365
  736POPC   C3B14361   9.430  32.022   7.968
  736POPC   C4B14362   9.271  32.204   7.613
  737POPC   NC314363  30.474  12.352   9.708
  737POPC   PO414364  31.031  12.276   9.456
  737POPC   GL114365  30.851  12.395   9.104
  737POPC   GL214366  30.514  12.373   9.201
  737POPC   C1A14367  30.913  12.480   8.665
  737POPC   D2A14368  30.860  12.155   8.303
  737POPC   C3A14369  30.822  12.275   7.850
  737POPC   C4A14370  30.698  12.028   7.488
  737POPC   C1B14371  30.496  12.159   8.782
  737POPC   C2B14372  30.331  12.011   8.384
  737POPC   C3B14373  30.373  12.031   7.920
  737POPC   C4B14374  30.328  12.349   7.621
  738POPC   NC314375  44.007  43.640   9.532
  738POPC   PO414376  43.378  43.931   9.558
  738POPC   GL114377  43.698  43.974   9.228
  738POPC   GL214378  44.006  43.931   9.084
  738POPC   C1A14379  43.691  43.797   8.738
  738POPC   D2A14380  43.986  43.694   8.409
  738POPC   C3A14381  43.714  43.715   8.049
  738POPC   C4A14382  43.610  43.885   7.668
  738POPC   C1B14383  44.260  43.988   8.765
  738POPC   C2B14384  44.384  44.013   8.375
  738POPC   C3B14385  44.169  43.941   7.998
  738POPC   C4B14386  44.064  44.109   7.587
  739POPC   NC314387  28.179  22.859   9.509
  739POPC   PO414388  28.714  23.275   9.287
  739POPC   GL114389  28.345  23.154   9.113
  739POPC   GL214390  28.449  22.810   9.067
  739POPC   C1A14391  28.252  23.120   8.687
  739POPC   D2A14392  28.128  23.228   8.303
  739POPC   C3A14393  28.453  23.253   7.980
  739POPC   C4A14394  28.266  23.107   7.609
  739POPC   C1B14395  28.064  22.674   8.844
  739POPC   C2B14396  27.945  22.650   8.413
  739POPC   C3B14397  28.126  22.801   8.005
  739POPC   C4B14398  28.254  22.613   7.623
  740POPC   NC314399   9.586  36.549   9.421
  740POPC   PO414400   9.882  36.027   9.612
  740POPC   GL114401   9.949  36.054   9.173
  740POPC   GL214402   9.617  36.111   9.014
  740POPC   C1A14403  10.042  36.245   8.748
  740POPC   D2A14404   9.841  36.352   8.345
  740POPC   C3A14405  10.023  36.227   7.928
  740POPC   C4A14406   9.830  36.106   7.527
  740POPC   C1B14407   9.343  35.719   8.819
  740POPC   C2B14408   9.224  35.629   8.412
  740POPC   C3B14409   9.461  35.701   8.036
  740POPC   C4B14410   9.514  35.701   7.573
  741POPC   NC314411  38.529   1.727   9.786
  741POPC   PO414412  38.155   1.807   9.246
  741POPC   GL114413  38.405   1.965   8.914
  741POPC   GL214414  38.163   2.204   8.864
  741POPC   C1A14415  38.633   1.791   8.593
  741POPC   D2A14416  38.809   1.515   8.298
  741POPC   C3A14417  38.747   1.878   8.030
  741POPC   C4A14418  38.612   1.891   7.615
  741POPC   C1B14419  38.060   1.823   8.572
  741POPC   C2B14420  37.915   1.850   8.153
  741POPC   C3B14421  38.130   1.974   7.764
  741POPC   C4B14422  38.177   1.833   7.319
  742POPC   NC314423   1.465   4.550   9.437
  742POPC   PO414424   1.082   3.959   9.465
  742POPC   GL114425   1.124   4.144   9.081
  742POPC   GL214426   1.472   4.140   9.099
  742POPC   C1A14427   1.070   4.175   8.623
  742POPC   D2A14428   0.739   4.148   8.305
  742POPC   C3A14429   0.927   4.252   7.911
  742POPC   C4A14430   1.040   4.300   7.485
  742POPC   C1B14431   1.478   4.442   8.755
  742POPC   C2B14432   1.363   4.467   8.286
  742POPC   C3B14433   1.444   4.370   7.826
  742POPC   C4B14434   1.573   4.572   7.423
  743POPC   NC314435  34.021   2.409   9.516
  743POPC   PO414436  33.578   2.885   9.527
  743POPC   GL114437  33.673   2.740   9.134
  743POPC   GL214438  33.707   2.400   9.107
  743POPC   C1A14439  33.490   2.645   8.738
  743POPC   D2A14440  33.756   2.546   8.377
  743POPC   C3A14441  33.726   2.833   8.054
  743POPC   C4A14442  33.584   2.788   7.640
  743POPC   C1B14443  34.040   2.471   8.804
  743POPC   C2B14444  34.206   2.246   8.423
  743POPC   C3B14445  34.107   2.329   7.974
  743POPC   C4B14446  34.093   2.702   7.722
  744POPC   NC314447   6.787   7.886   9.410
  744POPC   PO414448   6.715   8.412   9.559
  744POPC   GL114449   6.679   8.452   9.127
  744POPC   GL214450   6.453   8.185   9.106
  744POPC   C1A14451   6.777   8.294   8.694
  744POPC   D2A14452   6.892   8.451   8.278
  744POPC   C3A14453   6.857   8.203   7.902
  744POPC   C4A14454   6.579   7.876   7.747
  744POPC   C1B14455   6.283   8.476   8.781
  744POPC   C2B14456   6.393   8.516   8.322
  744POPC   C3B14457   6.373   8.385   7.867
  744POPC   C4B14458   6.416   8.242   7.419
  745POPC   NC314459  32.254  41.168   9.331
  745POPC   PO414460  32.182  40.566   9.606
  745POPC   GL114461  32.100  40.682   9.208
  745POPC   GL214462  32.469  40.712   9.119
  745POPC   C1A14463  32.083  40.743   8.773
  745POPC   D2A14464  32.056  41.089   8.486
  745POPC   C3A14465  32.214  40.934   8.101
  745POPC   C4A14466  32.069  40.763   7.719
  745POPC   C1B14467  32.524  41.035   8.776
  745POPC   C2B14468  32.520  41.288   8.430
  745POPC   C3B14469  32.631  41.248   8.047
  745POPC   C4B14470  32.503  41.043   7.683
  746POPC   NC314471  33.533  18.744   9.440
  746POPC   PO414472  34.195  18.821   9.465
  746POPC   GL114473  33.942  18.769   9.103
  746POPC   GL214474  33.684  19.056   9.060
  746POPC   C1A14475  33.918  18.807   8.660
  746POPC   D2A14476  33.670  19.074   8.439
  746POPC   C3A14477  33.595  19.014   8.018
  746POPC   C4A14478  33.888  18.939   7.683
  746POPC   C1B14479  33.618  19.429   8.797
  746POPC   C2B14480  33.835  19.596   8.406
  746POPC   C3B14481  33.913  19.404   7.958
  746POPC   C4B14482  33.574  19.335   7.622
  747POPC   NC314483  15.295  36.539   9.364
  747POPC   PO414484  14.983  37.166   9.533
  747POPC   GL114485  15.049  37.077   9.129
  747POPC   GL214486  14.749  37.269   9.077
  747POPC   C1A14487  15.230  36.964   8.733
  747POPC   D2A14488  15.323  36.673   8.395
  747POPC   C3A14489  15.209  36.795   7.985
  747POPC   C4A14490  15.415  36.982   7.694
  747POPC   C1B14491  14.698  37.086   8.675
  747POPC   C2B14492  14.830  36.865   8.307
  747POPC   C3B14493  14.814  37.137   7.939
  747POPC   C4B14494  14.781  37.500   7.690
  748POPC   NC314495  35.058  33.090   9.405
  748POPC   PO414496  35.710  33.040   9.580
  748POPC   GL114497  35.557  32.938   9.181
  748POPC   GL214498  35.313  32.719   9.213
  748POPC   C1A14499  35.319  33.046   8.794
  748POPC   D2A14500  35.427  33.256   8.430
  748POPC   C3A14501  35.315  33.073   8.049
  748POPC   C4A14502  35.397  33.301   7.702
  748POPC   C1B14503  35.075  32.599   8.827
  748POPC   C2B14504  35.157  32.728   8.422
  748POPC   C3B14505  34.868  32.751   8.120
  748POPC   C4B14506  34.940  32.687   7.729
  749POPC   NC314507   6.166  13.448   9.177
  749POPC   PO414508   6.626  13.636   9.602
  749POPC   GL114509   6.664  13.715   9.166
  749POPC   GL214510   6.814  13.398   9.175
  749POPC   C1A14511   6.686  13.807   8.717
  749POPC   D2A14512   6.427  13.723   8.354
  749POPC   C3A14513   6.417  13.987   7.992
  749POPC   C4A14514   6.457  13.825   7.554
  749POPC   C1B14515   6.971  13.389   8.782
  749POPC   C2B14516   6.876  13.412   8.343
  749POPC   C3B14517   6.737  13.567   7.930
  749POPC   C4B14518   6.857  13.527   7.489
  750POPC   NC314519  20.490   9.126   9.563
  750POPC   PO414520  20.906   8.579   9.481
  750POPC   GL114521  20.583   8.771   9.184
  750POPC   GL214522  20.560   9.162   9.063
  750POPC   C1A14523  20.623   8.751   8.729
  750POPC   D2A14524  20.868   8.833   8.355
  750POPC   C3A14525  20.794   8.968   7.931
  750POPC   C4A14526  20.740   8.936   7.443
  750POPC   C1B14527  20.793   9.390   8.718
  750POPC   C2B14528  20.731   9.344   8.290
  750POPC   C3B14529  20.387   9.253   8.026
  750POPC   C4B14530  20.607   9.365   7.703
  751POPC   NC314531   2.649  39.132   9.614
  751POPC   PO414532   3.241  39.204   9.737
  751POPC   GL114533   3.057  39.154   9.280
  751POPC   GL214534   2.754  39.336   9.154
  751POPC   C1A14535   3.094  39.192   8.811
  751POPC   D2A14536   2.927  39.076   8.396
  751POPC   C3A14537   3.080  39.242   7.996
  751POPC   C4A14538   2.968  39.201   7.562
  751POPC   C1B14539   2.607  39.340   8.713
  751POPC   C2B14540   2.682  39.520   8.299
  751POPC   C3B14541   2.575  39.256   7.943
  751POPC   C4B14542   2.418  39.348   7.549
  752POPC   NC314543  36.359   2.923   9.433
  752POPC   PO414544  36.113   2.246   9.342
  752POPC   GL114545  36.105   2.600   9.085
  752POPC   GL214546  35.854   2.866   9.130
  752POPC   C1A14547  36.186   2.670   8.655
  752POPC   D2A14548  36.060   2.485   8.274
  752POPC   C3A14549  36.320   2.518   7.922
  752POPC   C4A14550  36.285   2.589   7.473
  752POPC   C1B14551  35.859   3.071   8.713
  752POPC   C2B14552  35.971   3.028   8.242
  752POPC   C3B14553  35.900   2.800   7.850
  752POPC   C4B14554  35.811   2.925   7.409
  753POPC   NC314555  14.250  14.205   9.967
  753POPC   PO414556  14.691  14.593   9.576
  753POPC   GL114557  14.434  14.349   9.243
  753POPC   GL214558  14.231  14.642   9.100
  753POPC   C1A14559  14.370  14.042   8.848
  753POPC   D2A14560  14.448  13.862   8.399
  753POPC   C3A14561  14.740  14.089   8.042
  753POPC   C4A14562  14.635  14.213   7.572
  753POPC   C1B14563  14.562  14.509   8.781
  753POPC   C2B14564  14.495  14.377   8.382
  753POPC   C3B14565  14.515  14.552   7.968
  753POPC   C4B14566  14.921  14.575   7.766
  754POPC   NC314567  42.174   4.292   9.468
  754POPC   PO414568  42.883   4.361   9.625
  754POPC   GL114569  42.611   4.235   9.203
  754POPC   GL214570  42.320   4.416   8.993
  754POPC   C1A14571  42.504   4.012   8.782
  754POPC   D2A14572  42.338   4.259   8.410
  754POPC   C3A14573  42.577   4.397   8.023
  754POPC   C4A14574  42.278   4.118   7.847
  754POPC   C1B14575  42.471   4.668   8.665
  754POPC   C2B14576  42.355   4.797   8.257
  754POPC   C3B14577  42.246   4.705   7.801
  754POPC   C4B14578  42.280   4.740   7.321
  755POPC   NC314579   0.750   7.312   9.757
  755POPC   PO414580   0.201   7.567   9.566
  755POPC   GL114581   0.378   7.388   9.199
  755POPC   GL214582   0.746   7.351   9.210
  755POPC   C1A14583   0.457   7.514   8.789
  755POPC   D2A14584   0.298   7.731   8.449
  755POPC   C3A14585   0.469   7.567   8.088
  755POPC   C4A14586   0.493   7.495   7.688
  755POPC   C1B14587   0.760   7.116   8.780
  755POPC   C2B14588   0.599   7.043   8.356
  755POPC   C3B14589   0.718   7.123   7.945
  755POPC   C4B14590   0.963   7.293   7.600
  756POPC   NC314591  26.284  36.941   9.510
  756POPC   PO414592  25.658  36.741   9.408
  756POPC   GL114593  25.849  36.970   9.085
  756POPC   GL214594  26.180  36.807   9.035
  756POPC   C1A14595  25.865  36.888   8.644
  756POPC   D2A14596  26.151  36.582   8.488
  756POPC   C3A14597  26.182  36.614   8.053
  756POPC   C4A14598  25.981  36.723   7.690
  756POPC   C1B14599  26.319  37.122   8.757
  756POPC   C2B14600  26.173  37.183   8.349
  756POPC   C3B14601  26.187  37.131   7.934
  756POPC   C4B14602  26.429  37.325   7.697
  757POPC   NC314603  27.448  21.485   9.422
  757POPC   PO414604  27.942  21.099   9.290
  757POPC   GL114605  27.682  21.258   9.021
  757POPC   GL214606  27.396  21.061   9.080
  757POPC   C1A14607  27.725  21.248   8.607
  757POPC   D2A14608  27.453  21.316   8.275
  757POPC   C3A14609  27.568  21.627   8.008
  757POPC   C4A14610  27.649  21.607   7.579
  757POPC   C1B14611  27.231  21.353   8.758
  757POPC   C2B14612  26.943  21.297   8.411
  757POPC   C3B14613  27.068  21.108   8.004
  757POPC   C4B14614  27.373  21.200   7.665
  758POPC   NC314615  21.402  33.588   9.592
  758POPC   PO414616  21.048  34.138   9.555
  758POPC   GL114617  21.253  33.864   9.214
  758POPC   GL214618  21.133  33.460   9.179
  758POPC   C1A14619  21.470  33.662   8.881
  758POPC   D2A14620  21.339  33.775   8.475
  758POPC   C3A14621  21.594  33.687   8.127
  758POPC   C4A14622  21.396  33.807   7.775
  758POPC   C1B14623  21.074  33.389   8.718
  758POPC   C2B14624  21.050  33.383   8.268
  758POPC   C3B14625  20.983  33.509   7.838
  758POPC   C4B14626  21.092  33.632   7.393
  759POPC   NC314627   3.843  41.527   9.692
  759POPC   PO414628   4.454  41.739   9.601
  759POPC   GL114629   4.325  41.578   9.186
  759POPC   GL214630   3.965  41.468   9.191
  759POPC   C1A14631   4.432  41.471   8.748
  759POPC   D2A14632   4.336  41.617   8.337
  759POPC   C3A14633   4.417  41.405   7.948
  759POPC   C4A14634   4.458  41.514   7.525
  759POPC   C1B14635   3.937  41.308   8.761
  759POPC   C2B14636   3.736  41.362   8.375
  759POPC   C3B14637   3.912  41.543   8.012
  759POPC   C4B14638   4.002  41.337   7.629
  760POPC   NC314639  11.804  31.926   9.709
  760POPC   PO414640  11.936  32.501   9.606
  760POPC   GL114641  11.918  32.423   9.169
  760POPC   GL214642  12.243  32.477   8.992
  760POPC   C1A14643  11.798  32.496   8.767
  760POPC   D2A14644  11.913  32.303   8.390
  760POPC   C3A14645  12.091  32.549   8.088
  760POPC   C4A14646  12.025  32.382   7.679
  760POPC   C1B14647  12.113  32.080   8.813
  760POPC   C2B14648  12.158  31.844   8.417
  760POPC   C3B14649  12.205  32.022   8.019
  760POPC   C4B14650  12.271  31.861   7.632
  761POPC   NC314651   7.165  15.503   9.591
  761POPC   PO414652   7.527  14.933   9.605
  761POPC   GL114653   7.414  15.184   9.285
  761POPC   GL214654   7.585  15.049   9.076
  761POPC   C1A14655   7.181  15.281   8.880
  761POPC   D2A14656   7.254  15.147   8.446
  761POPC   C3A14657   7.242  15.456   8.092
  761POPC   C4A14658   7.312  15.303   7.643
  761POPC   C1B14659   7.516  14.818   8.734
  761POPC   C2B14660   7.656  14.806   8.334
  761POPC   C3B14661   7.417  14.914   7.994
  761POPC   C4B14662   7.578  14.811   7.610
  762POPC   NC314663   3.359  38.431   9.548
  762POPC   PO414664   3.947  38.496   9.719
  762POPC   GL114665   3.702  38.302   9.234
  762POPC   GL214666   3.376  38.166   9.115
  762POPC   C1A14667   3.653  38.444   8.761
  762POPC   D2A14668   3.749  38.637   8.368
  762POPC   C3A14669   3.633  38.481   7.949
  762POPC   C4A14670   3.938  38.622   7.730
  762POPC   C1B14671   3.191  38.247   8.756
  762POPC   C2B14672   3.350  38.316   8.342
  762POPC   C3B14673   3.130  38.307   7.936
  762POPC   C4B14674   3.349  38.219   7.553
  763POPC   NC314675  20.978  32.208   9.420
  763POPC   PO414676  20.427  32.568   9.524
  763POPC   GL114677  20.664  32.538   9.181
  763POPC   GL214678  20.525  32.185   9.136
  763POPC   C1A14679  20.825  32.428   8.792
  763POPC   D2A14680  20.623  32.193   8.473
  763POPC   C3A14681  20.800  32.365   8.091
  763POPC   C4A14682  20.720  32.127   7.745
  763POPC   C1B14683  20.275  32.453   8.852
  763POPC   C2B14684  20.185  32.456   8.423
  763POPC   C3B14685  20.315  32.217   8.053
  763POPC   C4B14686  20.207  32.120   7.641
  764POPC   NC314687   1.496  43.925   9.453
  764POPC   PO414688   0.954  43.535   9.448
  764POPC   GL114689   1.167  43.779   9.083
  764POPC   GL214690   1.514  43.753   8.982
  764POPC   C1A14691   1.216  43.968   8.641
  764POPC   D2A14692   1.183  44.120   8.185
  764POPC   C3A14693   1.210  43.855   7.782
  764POPC   C4A14694   1.411  43.996   7.379
  764POPC   C1B14695   1.745  43.458   8.762
  764POPC   C2B14696   1.647  43.441   8.380
  764POPC   C3B14697   1.585  43.775   8.094
  764POPC   C4B14698   1.618  43.603   7.647
  765POPC   NC314699  25.466  39.059   9.574
  765POPC   PO414700  24.841  39.527   9.560
  765POPC   GL114701  24.983  39.482   9.168
  765POPC   GL214702  25.233  39.212   9.142
  765POPC   C1A14703  25.152  39.560   8.760
  765POPC   D2A14704  25.206  39.253   8.436
  765POPC   C3A14705  25.030  39.278   8.071
  765POPC   C4A14706  25.095  39.510   7.704
  765POPC   C1B14707  25.547  39.198   8.814
  765POPC   C2B14708  25.582  38.929   8.397
  765POPC   C3B14709  25.520  39.140   7.967
  765POPC   C4B14710  25.527  39.323   7.518
  766POPC   NC314711   2.036  34.108   9.548
  766POPC   PO414712   2.129  33.507   9.773
  766POPC   GL114713   2.016  33.698   9.276
  766POPC   GL214714   2.311  33.892   9.079
  766POPC   C1A14715   1.869  33.891   8.843
  766POPC   D2A14716   1.860  33.739   8.433
  766POPC   C3A14717   1.964  33.934   8.051
  766POPC   C4A14718   1.948  33.555   7.816
  766POPC   C1B14719   2.329  33.812   8.633
  766POPC   C2B14720   2.337  33.607   8.209
  766POPC   C3B14721   2.403  33.790   7.771
  766POPC   C4B14722   2.549  33.635   7.318
  767POPC   NC314723   5.391  36.077   9.453
  767POPC   PO414724   4.950  36.612   9.639
  767POPC   GL114725   4.914  36.333   9.211
  767POPC   GL214726   5.187  36.166   9.016
  767POPC   C1A14727   4.891  36.436   8.739
  767POPC   D2A14728   5.114  36.155   8.413
  767POPC   C3A14729   5.029  36.239   7.947
  767POPC   C4A14730   4.926  36.160   7.475
  767POPC   C1B14731   5.234  35.794   8.779
  767POPC   C2B14732   4.920  35.678   8.502
  767POPC   C3B14733   4.766  35.845   8.138
  767POPC   C4B14734   4.896  35.737   7.745
  768POPC   NC314735  11.898  19.193   9.538
  768POPC   PO414736  12.395  18.729   9.628
  768POPC   GL114737  12.313  19.021   9.237
  768POPC   GL214738  12.015  18.933   9.123
  768POPC   C1A14739  12.265  19.233   8.802
  768POPC   D2A14740  12.157  19.021   8.412
  768POPC   C3A14741  12.325  19.159   8.051
  768POPC   C4A14742  12.233  18.918   7.694
  768POPC   C1B14743  11.802  19.000   8.752
  768POPC   C2B14744  11.718  19.263   8.373
  768POPC   C3B14745  11.825  19.114   7.974
  768POPC   C4B14746  11.739  19.077   7.556
  769POPC   NC314747   7.108  32.036   9.647
  769POPC   PO414748   7.645  32.301   9.668
  769POPC   GL114749   7.361  32.355   9.314
  769POPC   GL214750   7.230  32.043   9.147
  769POPC   C1A14751   7.336  32.445   8.868
  769POPC   D2A14752   7.277  32.390   8.423
  769POPC   C3A14753   7.606  32.467   8.123
  769POPC   C4A14754   7.485  32.405   7.693
  769POPC   C1B14755   7.041  32.040   8.737
  769POPC   C2B14756   7.094  31.915   8.305
  769POPC   C3B14757   7.115  32.157   7.956
  769POPC   C4B14758   7.239  31.981   7.577
  770POPC   NC314759  31.784  26.476   9.837
  770POPC   PO414760  31.483  25.975   9.447
  770POPC   GL114761  31.298  25.999   9.093
  770POPC   GL214762  31.219  26.364   9.142
  770POPC   C1A14763  31.530  26.057   8.706
  770POPC   D2A14764  31.706  26.119   8.279
  770POPC   C3A14765  31.538  25.921   7.920
  770POPC   C4A14766  31.459  25.800   7.505
  770POPC   C1B14767  31.078  26.283   8.750
  770POPC   C2B14768  31.169  26.094   8.371
  770POPC   C3B14769  31.191  26.318   8.028
  770POPC   C4B14770  31.103  26.099   7.693
  771POPC   NC314771   3.348   2.238   9.479
  771POPC   PO414772   3.422   2.940   9.581
  771POPC   GL114773   3.570   2.832   9.176
  771POPC   GL214774   3.676   2.525   9.222
  771POPC   C1A14775   3.414   2.766   8.768
  771POPC   D2A14776   3.175   2.953   8.427
  771POPC   C3A14777   3.317   2.810   8.020
  771POPC   C4A14778   3.589   2.923   7.671
  771POPC   C1B14779   3.757   2.353   8.795
  771POPC   C2B14780   3.738   2.412   8.353
  771POPC   C3B14781   3.870   2.268   7.924
  771POPC   C4B14782   3.943   2.468   7.565
  772POPC   NC314783  31.772  24.739   9.439
  772POPC   PO414784  31.232  24.300   9.652
  772POPC   GL114785  31.479  24.383   9.217
  772POPC   GL214786  31.440  24.770   9.062
  772POPC   C1A14787  31.506  24.384   8.747
  772POPC   D2A14788  31.216  24.358   8.384
  772POPC   C3A14789  31.458  24.437   8.011
  772POPC   C4A14790  31.665  24.612   7.661
  772POPC   C1B14791  31.232  24.828   8.647
  772POPC   C2B14792  31.383  24.888   8.238
  772POPC   C3B14793  31.259  24.880   7.793
  772POPC   C4B14794  31.348  24.868   7.324
  773POPC   NC314795  39.016  42.290   9.587
  773POPC   PO414796  39.624  41.949   9.421
  773POPC   GL114797  39.286  42.130   9.185
  773POPC   GL214798  39.192  42.433   9.103
  773POPC   C1A14799  39.116  42.048   8.761
  773POPC   D2A14800  39.292  42.143   8.378
  773POPC   C3A14801  39.032  42.220   8.030
  773POPC   C4A14802  39.163  42.033   7.635
  773POPC   C1B14803  39.184  42.563   8.690
  773POPC   C2B14804  39.223  42.677   8.282
  773POPC   C3B14805  38.981  42.788   7.965
  773POPC   C4B14806  38.796  42.679   7.596
  774POPC   NC314807   5.582   0.528   9.582
  774POPC   PO414808   6.047   0.052   9.575
  774POPC   GL114809   6.061   0.364   9.223
  774POPC   GL214810   5.704   0.476   9.117
  774POPC   C1A14811   6.070   0.564   8.798
  774POPC   D2A14812   6.227   0.666   8.410
  774POPC   C3A14813   6.107   0.458   8.006
  774POPC   C4A14814   6.156   0.363   7.569
  774POPC   C1B14815   5.656   0.241   8.777
  774POPC   C2B14816   5.754   0.451   8.413
  774POPC   C3B14817   5.623   0.600   8.056
  774POPC   C4B14818   5.669   0.373   7.718
  775POPC   NC314819  21.634  30.199   9.430
  775POPC   PO414820  21.070  29.914   9.490
  775POPC   GL114821  21.228  29.974   9.098
  775POPC   GL214822  20.957  30.136   8.969
  775POPC   C1A14823  21.430  29.799   8.715
  775POPC   D2A14824  21.379  29.558   8.335
  775POPC   C3A14825  21.627  29.599   7.963
  775POPC   C4A14826  21.459  29.475   7.537
  775POPC   C1B14827  21.228  30.266   8.638
  775POPC   C2B14828  21.355  30.057   8.221
  775POPC   C3B14829  21.312  29.929   7.776
  775POPC   C4B14830  21.171  29.888   7.372
  776POPC   NC314831  39.164  20.479  10.260
  776POPC   PO414832  39.085  20.822   9.715
  776POPC   GL114833  39.093  20.973   9.239
  776POPC   GL214834  39.455  20.978   9.165
  776POPC   C1A14835  39.106  20.792   8.803
  776POPC   D2A14836  39.073  20.469   8.458
  776POPC   C3A14837  39.230  20.589   8.036
  776POPC   C4A14838  39.223  21.014   7.861
  776POPC   C1B14839  39.605  20.943   8.717
  776POPC   C2B14840  39.545  20.952   8.257
  776POPC   C3B14841  39.688  20.814   7.817
  776POPC   C4B14842  39.807  20.726   7.370
  777POPC   NC314843  18.018  16.581   9.650
  777POPC   PO414844  18.575  16.395   9.674
  777POPC   GL114845  18.437  16.560   9.281
  777POPC   GL214846  18.129  16.445   9.146
  777POPC   C1A14847  18.519  16.686   8.849
  777POPC   D2A14848  18.339  16.886   8.472
  777POPC   C3A14849  18.299  16.689   8.068
  777POPC   C4A14850  17.996  16.433   7.886
  777POPC   C1B14851  17.995  16.779   8.848
  777POPC   C2B14852  17.829  16.984   8.443
  777POPC   C3B14853  17.829  16.911   7.968
  777POPC   C4B14854  17.675  16.707   7.556
  778POPC   NC314855  36.674  21.110   9.177
  778POPC   PO414856  37.016  21.558   9.530
  778POPC   GL114857  36.859  21.598   9.139
  778POPC   GL214858  37.192  21.511   9.019
  778POPC   C1A14859  36.614  21.700   8.783
  778POPC   D2A14860  36.375  21.775   8.404
  778POPC   C3A14861  36.623  21.728   8.042
  778POPC   C4A14862  36.703  21.447   7.713
  778POPC   C1B14863  36.966  21.341   8.672
  778POPC   C2B14864  36.889  21.306   8.256
  778POPC   C3B14865  37.130  21.273   7.912
  778POPC   C4B14866  37.517  21.120   7.837
  779POPC   NC314867  18.390   1.405   9.492
  779POPC   PO414868  18.197   0.885   9.672
  779POPC   GL114869  18.283   0.879   9.231
  779POPC   GL214870  18.575   1.084   9.156
  779POPC   C1A14871  18.173   1.041   8.820
  779POPC   D2A14872  18.063   1.092   8.385
  779POPC   C3A14873  18.291   0.913   8.048
  779POPC   C4A14874  18.241   0.983   7.600
  779POPC   C1B14875  18.653   1.271   8.744
  779POPC   C2B14876  18.550   1.469   8.329
  779POPC   C3B14877  18.526   1.336   7.885
  779POPC   C4B14878  18.510   1.358   7.405
  780POPC   NC314879   2.405  38.509   9.228
  780POPC   PO414880   2.935  38.300   9.455
  780POPC   GL114881   3.113  38.636   9.121
  780POPC   GL214882   2.806  38.794   8.957
  780POPC   C1A14883   3.235  38.735   8.658
  780POPC   D2A14884   2.928  38.564   8.341
  780POPC   C3A14885   2.847  38.774   7.965
  780POPC   C4A14886   3.155  38.727   7.639
  780POPC   C1B14887   2.528  38.575   8.627
  780POPC   C2B14888   2.419  38.522   8.201
  780POPC   C3B14889   2.522  38.402   7.800
  780POPC   C4B14890   2.290  38.451   7.435
  781POPC   NC314891   1.616  21.514   9.495
  781POPC   PO414892   1.744  22.252   9.403
  781POPC   GL114893   1.971  22.231   9.054
  781POPC   GL214894   2.070  22.559   9.047
  781POPC   C1A14895   2.171  22.030   8.684
  781POPC   D2A14896   2.210  21.799   8.291
  781POPC   C3A14897   2.126  21.943   7.883
  781POPC   C4A14898   1.755  21.933   7.696
  781POPC   C1B14899   1.871  22.449   8.628
  781POPC   C2B14900   2.023  22.332   8.218
  781POPC   C3B14901   1.899  22.421   7.775
  781POPC   C4B14902   1.774  22.286   7.336
  782POPC   NC314903  35.127   1.991   9.679
  782POPC   PO414904  34.443   2.193   9.487
  782POPC   GL114905  34.644   2.065   9.157
  782POPC   GL214906  34.703   1.703   9.178
  782POPC   C1A14907  34.562   2.029   8.751
  782POPC   D2A14908  34.612   1.817   8.393
  782POPC   C3A14909  34.546   2.042   8.045
  782POPC   C4A14910  34.335   1.961   7.677
  782POPC   C1B14911  34.963   1.672   8.788
  782POPC   C2B14912  35.117   1.843   8.381
  782POPC   C3B14913  35.012   1.788   7.950
  782POPC   C4B14914  34.830   1.923   7.600
  783POPC   NC314915  35.395   3.097   9.632
  783POPC   PO414916  35.259   2.387   9.461
  783POPC   GL114917  35.343   2.749   9.209
  783POPC   GL214918  35.129   3.037   9.205
  783POPC   C1A14919  35.400   2.711   8.774
  783POPC   D2A14920  35.607   2.716   8.397
  783POPC   C3A14921  35.467   2.548   7.992
  783POPC   C4A14922  35.667   2.424   7.591
  783POPC   C1B14923  34.939   2.933   8.824
  783POPC   C2B14924  35.097   2.926   8.399
  783POPC   C3B14925  34.946   3.091   8.003
  783POPC   C4B14926  35.008   2.736   7.747
  784POPC   NC314927   7.367  18.473   9.715
  784POPC   PO414928   7.790  18.172   9.262
  784POPC   GL114929   7.382  18.345   9.164
  784POPC   GL214930   7.493  18.546   8.909
  784POPC   C1A14931   7.163  18.178   8.797
  784POPC   D2A14932   7.255  18.342   8.378
  784POPC   C3A14933   7.106  18.264   7.983
  784POPC   C4A14934   7.483  18.372   7.728
  784POPC   C1B14935   7.105  18.674   8.727
  784POPC   C2B14936   7.068  18.841   8.335
  784POPC   C3B14937   7.471  18.828   8.106
  784POPC   C4B14938   7.520  18.917   7.666
  785POPC   NC314939   4.726   9.203   9.479
  785POPC   PO414940   4.098   8.911   9.531
  785POPC   GL114941   4.128   9.097   9.116
  785POPC   GL214942   4.400   8.888   9.079
  785POPC   C1A14943   3.954   9.384   8.766
  785POPC   D2A14944   3.755   9.304   8.339
  785POPC   C3A14945   4.039   9.036   8.061
  785POPC   C4A14946   4.421   8.955   7.795
  785POPC   C1B14947   4.211   8.702   8.702
  785POPC   C2B14948   4.291   8.601   8.264
  785POPC   C3B14949   4.661   8.532   7.957
  785POPC   C4B14950   4.907   8.821   7.655
  786POPC   NC314951   8.066  15.507   9.589
  786POPC   PO414952   8.506  16.041   9.376
  786POPC   GL114953   8.308  15.979   9.025
  786POPC   GL214954   7.970  15.875   9.190
  786POPC   C1A14955   8.329  15.877   8.633
  786POPC   D2A14956   8.005  15.674   8.437
  786POPC   C3A14957   8.051  15.713   7.995
  786POPC   C4A14958   8.293  16.056   7.830
  786POPC   C1B14959   7.806  16.003   8.794
  786POPC   C2B14960   8.032  16.286   8.534
  786POPC   C3B14961   7.991  16.385   8.109
  786POPC   C4B14962   7.782  16.156   7.772
  787POPC   NC314963   3.967  27.936   9.414
  787POPC   PO414964   4.212  27.533   9.882
  787POPC   GL114965   4.365  27.636   9.376
  787POPC   GL214966   4.180  27.550   9.124
  787POPC   C1A14967   4.457  27.875   8.887
  787POPC   D2A14968   4.470  27.739   8.437
  787POPC   C3A14969   4.577  28.000   8.102
  787POPC   C4A14970   4.481  27.853   7.679
  787POPC   C1B14971   4.005  27.726   8.721
  787POPC   C2B14972   4.018  27.451   8.361
  787POPC   C3B14973   4.200  27.516   7.960
  787POPC   C4B14974   4.095  27.525   7.533
  788POPC   NC314975   9.074  27.930   9.268
  788POPC   PO414976   8.961  27.587   9.807
  788POPC   GL114977   9.243  27.444   9.253
  788POPC   GL214978   9.353  27.653   8.992
  788POPC   C1A14979   9.081  27.325   8.760
  788POPC   D2A14980   9.180  27.411   8.301
  788POPC   C3A14981   8.860  27.470   7.985
  788POPC   C4A14982   8.944  27.693   7.587
  788POPC   C1B14983   9.533  27.623   8.624
  788POPC   C2B14984   9.413  27.899   8.318
  788POPC   C3B14985   9.427  27.796   7.911
  788POPC   C4B14986   9.326  28.021   7.548
  789POPC   NC314987  27.854  11.276   9.653
  789POPC   PO414988  27.174  11.449   9.493
  789POPC   GL114989  27.342  11.279   9.120
  789POPC   GL214990  27.653  11.403   9.166
  789POPC   C1A14991  27.580  11.107   8.778
  789POPC   D2A14992  27.581  11.300   8.385
  789POPC   C3A14993  27.796  11.173   8.026
  789POPC   C4A14994  27.594  11.129   7.639
  789POPC   C1B14995  27.566  11.652   8.806
  789POPC   C2B14996  27.621  11.813   8.392
  789POPC   C3B14997  27.457  11.673   8.018
  789POPC   C4B14998  27.643  11.626   7.646
  790POPC   NC314999  33.081  34.069   9.510
  790POPC   PO415000  32.449  33.898   9.471
  790POPC   GL115001  32.789  33.775   9.175
  790POPC   GL215002  33.014  33.470   9.228
  790POPC   C1A15003  32.955  33.962   8.796
  790POPC   D2A15004  33.270  34.003   8.459
  790POPC   C3A15005  33.082  33.976   8.070
  790POPC   C4A15006  32.811  34.235   7.851
  790POPC   C1B15007  33.242  33.534   8.827
  790POPC   C2B15008  32.988  33.555   8.448
  790POPC   C3B15009  33.079  33.461   8.033
  790POPC   C4B15010  33.181  33.681   7.628
  791POPC   NC315011  27.019  16.469   9.631
  791POPC   PO415012  26.541  16.926   9.616
  791POPC   GL115013  26.872  16.783   9.271
  791POPC   GL215014  27.238  16.830   9.285
  791POPC   C1A15015  26.872  16.408   8.955
  791POPC   D2A15016  26.978  16.291   8.507
  791POPC   C3A15017  26.902  16.498   8.064
  791POPC   C4A15018  26.559  16.765   7.863
  791POPC   C1B15019  27.227  16.750   8.831
  791POPC   C2B15020  27.319  16.889   8.390
  791POPC   C3B15021  27.033  17.013   8.044
  791POPC   C4B15022  26.987  16.938   7.602
  792POPC   NC315023  37.220   5.564   9.534
  792POPC   PO415024  37.802   5.653   9.501
  792POPC   GL115025  37.704   5.759   9.078
  792POPC   GL215026  37.315   5.732   9.051
  792POPC   C1A15027  37.931   5.746   8.672
  792POPC   D2A15028  38.178   5.723   8.311
  792POPC   C3A15029  38.078   6.036   8.055
  792POPC   C4A15030  37.775   6.007   7.737
  792POPC   C1B15031  37.428   5.840   8.635
  792POPC   C2B15032  37.599   5.857   8.225
  792POPC   C3B15033  37.366   5.740   7.856
  792POPC   C4B15034  37.231   6.065   7.562
  793POPC   NC315035  34.174  41.210   9.499
  793POPC   PO415036  33.851  41.836   9.382
  793POPC   GL115037  33.756  41.484   9.114
  793POPC   GL215038  34.085  41.353   9.024
  793POPC   C1A15039  33.739  41.434   8.660
  793POPC   D2A15040  33.766  41.678   8.292
  793POPC   C3A15041  33.809  41.492   7.902
  793POPC   C4A15042  33.419  41.412   7.727
  793POPC   C1B15043  34.298  41.310   8.637
  793POPC   C2B15044  34.250  41.543   8.245
  793POPC   C3B15045  34.343  41.552   7.819
  793POPC   C4B15046  34.121  41.644   7.458
  794POPC   NC315047  34.347  42.848   9.840
  794POPC   PO415048  34.653  42.433   9.371
  794POPC   GL115049  34.613  42.188   9.043
  794POPC   GL215050  34.890  42.001   9.162
  794POPC   C1A15051  34.411  42.322   8.676
  794POPC   D2A15052  34.401  42.490   8.267
  794POPC   C3A15053  34.177  42.431   7.928
  794POPC   C4A15054  34.290  42.511   7.491
  794POPC   C1B15055  35.015  42.135   8.746
  794POPC   C2B15056  34.878  42.373   8.413
  794POPC   C3B15057  35.008  42.406   7.981
  794POPC   C4B15058  35.115  42.038   7.764
  795POPC   NC315059   3.627  20.049   9.466
  795POPC   PO415060   3.384  19.407   9.720
  795POPC   GL115061   3.310  19.476   9.262
  795POPC   GL215062   3.307  19.808   9.176
  795POPC   C1A15063   3.387  19.507   8.789
  795POPC   D2A15064   3.761  19.674   8.537
  795POPC   C3A15065   3.658  19.670   8.083
  795POPC   C4A15066   3.663  19.786   7.644
  795POPC   C1B15067   3.487  20.013   8.815
  795POPC   C2B15068   3.343  19.941   8.443
  795POPC   C3B15069   3.365  20.105   8.072
  795POPC   C4B15070   3.342  20.169   7.696
  796POPC   NC315071  37.995  43.273   9.433
  796POPC   PO415072  37.304  43.564   9.472
  796POPC   GL115073  37.370  43.160   9.224
  796POPC   GL215074  37.705  43.149   9.052
  796POPC   C1A15075  37.339  42.914   8.817
  796POPC   D2A15076  37.416  43.112   8.414
  796POPC   C3A15077  37.707  43.004   8.093
  796POPC   C4A15078  37.444  42.987   7.739
  796POPC   C1B15079  37.965  43.417   8.789
  796POPC   C2B15080  37.884  43.411   8.380
  796POPC   C3B15081  38.083  43.422   7.998
  796POPC   C4B15082  37.931  43.306   7.612
  797POPC   NC315083   4.832  16.494   9.537
  797POPC   PO415084   5.246  16.920   9.613
  797POPC   GL115085   4.970  16.880   9.240
  797POPC   GL215086   4.767  17.160   9.107
  797POPC   C1A15087   4.864  16.720   8.831
  797POPC   D2A15088   5.066  16.821   8.441
  797POPC   C3A15089   4.852  16.891   8.063
  797POPC   C4A15090   5.087  16.682   7.782
  797POPC   C1B15091   5.180  17.159   8.864
  797POPC   C2B15092   5.298  17.278   8.444
  797POPC   C3B15093   5.326  17.097   8.032
  797POPC   C4B15094   5.089  17.153   7.628
  798POPC   NC315095   8.488  26.425   9.619
  798POPC   PO415096   8.025  25.939   9.441
  798POPC   GL115097   8.169  25.997   9.069
  798POPC   GL215098   8.415  26.224   9.160
  798POPC   C1A15099   8.015  26.182   8.691
  798POPC   D2A15100   8.183  26.389   8.323
  798POPC   C3A15101   8.115  26.268   7.884
  798POPC   C4A15102   8.218  26.608   7.670
  798POPC   C1B15103   8.516  26.160   8.732
  798POPC   C2B15104   8.357  25.924   8.403
  798POPC   C3B15105   8.476  25.922   7.970
  798POPC   C4B15106   8.368  25.851   7.537
  799POPC   NC315107  36.623  21.837   9.554
  799POPC   PO415108  36.049  22.214   9.524
  799POPC   GL115109  36.203  22.284   9.135
  799POPC   GL215110  36.335  21.982   9.101
  799POPC   C1A15111  36.023  22.366   8.728
  799POPC   D2A15112  36.173  22.276   8.294
  799POPC   C3A15113  35.993  22.130   7.925
  799POPC   C4A15114  35.898  21.735   7.707
  799POPC   C1B15115  36.514  22.198   8.717
  799POPC   C2B15116  36.672  22.179   8.294
  799POPC   C3B15117  36.513  22.208   7.868
  799POPC   C4B15118  36.281  22.501   7.617
  800POPC   NC315119   5.576  41.946   9.504
  800POPC   PO415120   5.696  42.662   9.554
  800POPC   GL115121   5.737  42.478   9.169
  800POPC   GL215122   5.957  42.736   9.055
  800POPC   C1A15123   5.696  42.190   8.816
  800POPC   D2A15124   5.719  42.228   8.355
  800POPC   C3A15125   6.081  42.133   8.055
  800POPC   C4A15126   6.015  42.089   7.577
  800POPC   C1B15127   5.807  42.663   8.651
  800POPC   C2B15128   5.979  42.655   8.238
  800POPC   C3B15129   5.891  42.547   7.805
  800POPC   C4B15130   5.531  42.534   7.539
  801POPC   NC315131  21.578  42.679   9.630
  801POPC   PO415132  21.136  42.253   9.499
  801POPC   GL115133  21.295  42.308   9.105
  801POPC   GL215134  21.671  42.407   9.149
  801POPC   C1A15135  21.130  42.204   8.692
  801POPC   D2A15136  21.048  42.410   8.295
  801POPC   C3A15137  21.117  42.231   7.873
  801POPC   C4A15138  21.355  42.112   7.499
  801POPC   C1B15139  21.620  42.356   8.695
  801POPC   C2B15140  21.535  42.172   8.281
  801POPC   C3B15141  21.617  42.319   7.865
  801POPC   C4B15142  21.842  42.309   7.451
  802POPC   NC315143  30.660  14.385   9.589
  802POPC   PO415144  30.961  14.937   9.373
  802POPC   GL115145  30.736  14.592   9.130
  802POPC   GL215146  30.813  14.207   9.159
  802POPC   C1A15147  30.710  14.424   8.715
  802POPC   D2A15148  30.884  14.460   8.344
  802POPC   C3A15149  30.609  14.516   8.025
  802POPC   C4A15150  30.718  14.760   7.692
  802POPC   C1B15151  31.044  14.043   8.820
  802POPC   C2B15152  30.885  13.936   8.414
  802POPC   C3B15153  30.941  14.095   7.994
  802POPC   C4B15154  30.739  14.224   7.627
  803POPC   NC315155  16.186  12.933   9.488
  803POPC   PO415156  15.758  12.441   9.544
  803POPC   GL115157  15.742  12.771   9.212
  803POPC   GL215158  16.077  12.780   9.008
  803POPC   C1A15159  15.663  13.010   8.813
  803POPC   D2A15160  15.904  13.052   8.413
  803POPC   C3A15161  15.899  12.704   8.132
  803POPC   C4A15162  15.658  12.685   7.755
  803POPC   C1B15163  16.176  13.192   8.820
  803POPC   C2B15164  16.421  13.339   8.470
  803POPC   C3B15165  16.271  13.220   8.078
  803POPC   C4B15166  16.041  13.022   7.759
  804POPC   NC315167  44.998  22.496   9.239
  804POPC   PO415168   0.096  21.899   9.499
  804POPC   GL115169  44.815  21.912   9.159
  804POPC   GL215170  44.603  22.147   9.198
  804POPC   C1A15171  44.857  22.005   8.723
  804POPC   D2A15172  44.638  21.862   8.364
  804POPC   C3A15173  44.745  21.896   7.947
  804POPC   C4A15174  44.565  22.146   7.618
  804POPC   C1B15175  44.289  22.334   8.948
  804POPC   C2B15176  44.449  22.310   8.535
  804POPC   C3B15177  44.401  22.252   8.103
  804POPC   C4B15178  44.122  22.404   7.791
  805POPC   NC315179  17.307   0.222   9.507
  805POPC   PO415180  17.788   0.675   9.302
  805POPC   GL115181  17.517   0.486   9.013
  805POPC   GL215182  17.340   0.182   9.014
  805POPC   C1A15183  17.218   0.607   8.711
  805POPC   D2A15184  17.078   0.595   8.293
  805POPC   C3A15185  17.210   0.878   7.949
  805POPC   C4A15186  17.523   0.665   7.727
  805POPC   C1B15187  17.168   0.085   8.635
  805POPC   C2B15188  17.210   0.087   8.212
  805POPC   C3B15189  17.197   0.307   7.875
  805POPC   C4B15190  17.298   0.268   7.455
  806POPC   NC315191   0.609  29.344   9.355
  806POPC   PO415192   0.267  28.756   9.516
  806POPC   GL115193   0.211  29.012   9.122
  806POPC   GL215194   0.237  29.374   8.982
  806POPC   C1A15195   0.486  29.024   8.741
  806POPC   D2A15196   0.577  29.178   8.325
  806POPC   C3A15197   0.419  28.910   7.993
  806POPC   C4A15198   0.696  28.616   7.833
  806POPC   C1B15199   0.575  29.575   8.739
  806POPC   C2B15200   0.811  29.667   8.375
  806POPC   C3B15201   0.720  29.548   7.973
  806POPC   C4B15202   0.814  29.165   7.786
  807POPC   NC315203  20.446  10.833   9.420
  807POPC   PO415204  20.941  10.508   9.595
  807POPC   GL115205  20.714  10.456   9.193
  807POPC   GL215206  20.506  10.188   9.092
  807POPC   C1A15207  20.566  10.654   8.782
  807POPC   D2A15208  20.346  10.629   8.356
  807POPC   C3A15209  20.561  10.718   7.972
  807POPC   C4A15210  20.495  10.945   7.589
  807POPC   C1B15211  20.242  10.270   8.753
  807POPC   C2B15212  20.336  10.118   8.365
  807POPC   C3B15213  20.280  10.287   7.980
  807POPC   C4B15214  20.630  10.230   7.745
  808POPC   NC315215  38.750   4.160   9.457
  808POPC   PO415216  39.363   4.224   9.353
  808POPC   GL115217  39.076   4.396   9.125
  808POPC   GL215218  38.938   4.141   8.927
  808POPC   C1A15219  39.165   4.602   8.786
  808POPC   D2A15220  39.392   4.579   8.407
  808POPC   C3A15221  39.160   4.610   8.023
  808POPC   C4A15222  39.402   4.683   7.650
  808POPC   C1B15223  39.396   4.134   8.721
  808POPC   C2B15224  39.527   4.061   8.285
  808POPC   C3B15225  39.317   4.135   7.882
  808POPC   C4B15226  38.884   4.037   7.745
  809POPC   NC315227  26.563  13.134   9.346
  809POPC   PO415228  27.042  12.925   9.811
  809POPC   GL115229  26.879  12.695   9.309
  809POPC   GL215230  26.541  12.608   9.163
  809POPC   C1A15231  26.920  12.839   8.811
  809POPC   D2A15232  27.042  13.095   8.406
  809POPC   C3A15233  26.908  12.881   8.013
  809POPC   C4A15234  26.705  12.910   7.634
  809POPC   C1B15235  26.450  12.696   8.708
  809POPC   C2B15236  26.556  12.984   8.390
  809POPC   C3B15237  26.368  12.979   7.998
  809POPC   C4B15238  26.242  12.715   7.639
  810POPC   NC315239  16.629   4.434   9.819
  810POPC   PO415240  16.822   3.918   9.747
  810POPC   GL115241  16.744   4.176   9.332
  810POPC   GL215242  16.834   3.986   9.033
  810POPC   C1A15243  16.635   4.446   8.910
  810POPC   D2A15244  16.603   4.597   8.423
  810POPC   C3A15245  16.717   4.469   7.986
  810POPC   C4A15246  16.720   4.625   7.529
  810POPC   C1B15247  16.913   4.173   8.590
  810POPC   C2B15248  17.065   4.136   8.163
  810POPC   C3B15249  17.029   4.154   7.704
  810POPC   C4B15250  17.034   3.823   7.350
  811POPC   NC315251  39.694  29.395   9.494
  811POPC   PO415252  40.253  29.254   9.254
  811POPC   GL115253  39.934  29.433   9.010
  811POPC   GL215254  39.777  29.119   9.050
  811POPC   C1A15255  39.812  29.334   8.580
  811POPC   D2A15256  39.969  29.184   8.164
  811POPC   C3A15257  39.829  29.376   7.766
  811POPC   C4A15258  39.945  29.483   7.335
  811POPC   C1B15259  39.930  28.778   8.768
  811POPC   C2B15260  39.945  28.696   8.312
  811POPC   C3B15261  40.026  28.764   7.866
  811POPC   C4B15262  40.005  28.600   7.446
  812POPC   NC315263   8.266  43.670   9.401
  812POPC   PO415264   7.915  44.136   9.142
  812POPC   GL115265   8.031  43.677   8.951
  812POPC   GL215266   8.421  43.603   8.920
  812POPC   C1A15267   8.113  43.411   8.564
  812POPC   D2A15268   8.340  43.457   8.164
  812POPC   C3A15269   8.107  43.678   7.822
  812POPC   C4A15270   8.022  43.918   7.396
  812POPC   C1B15271   8.425  44.002   8.696
  812POPC   C2B15272   8.319  44.186   8.271
  812POPC   C3B15273   8.275  44.160   7.813
  812POPC   C4B15274   8.504  43.868   7.530
  813POPC   NC315275  12.503   2.556   9.411
  813POPC   PO415276  13.078   2.878   9.632
  813POPC   GL115277  12.822   2.910   9.238
  813POPC   GL215278  12.958   2.643   9.094
  813POPC   C1A15279  12.657   2.868   8.767
  813POPC   D2A15280  12.895   2.819   8.374
  813POPC   C3A15281  12.768   2.946   7.944
  813POPC   C4A15282  12.947   3.038   7.498
  813POPC   C1B15283  12.793   2.379   8.742
  813POPC   C2B15284  12.591   2.401   8.367
  813POPC   C3B15285  12.771   2.439   7.965
  813POPC   C4B15286  12.761   2.558   7.528
  814POPC   NC315287  31.409  33.501   9.512
  814POPC   PO415288  31.623  34.026   9.728
  814POPC   GL115289  31.612  33.867   9.246
  814POPC   GL215290  31.315  33.841   9.090
  814POPC   C1A15291  31.656  34.012   8.770
  814POPC   D2A15292  31.443  33.886   8.381
  814POPC   C3A15293  31.565  33.989   7.957
  814POPC   C4A15294  31.558  33.722   7.584
  814POPC   C1B15295  31.501  33.518   8.855
  814POPC   C2B15296  31.288  33.409   8.508
  814POPC   C3B15297  31.347  33.461   8.067
  814POPC   C4B15298  31.181  33.362   7.668
  815POPC   NC315299   5.013  21.729   9.483
  815POPC   PO415300   4.594  21.148   9.512
  815POPC   GL115301   4.901  21.299   9.202
  815POPC   GL215302   4.789  21.604   9.068
  815POPC   C1A15303   5.149  21.351   8.794
  815POPC   D2A15304   5.015  21.259   8.344
  815POPC   C3A15305   5.229  21.187   7.925
  815POPC   C4A15306   5.200  21.409   7.509
  815POPC   C1B15307   4.631  21.364   8.737
  815POPC   C2B15308   4.482  21.272   8.323
  815POPC   C3B15309   4.709  21.197   7.927
  815POPC   C4B15310   4.909  20.980   7.559
  816POPC   NC315311  23.025  44.984   9.321
  816POPC   PO415312  22.929  44.415   9.655
  816POPC   GL115313  22.903  44.506   9.210
  816POPC   GL215314  22.984  44.196   9.117
  816POPC   C1A15315  22.995  44.675   8.765
  816POPC   D2A15316  23.035  44.499   8.344
  816POPC   C3A15317  22.973  44.752   7.964
  816POPC   C4A15318  23.224  44.870   7.594
  816POPC   C1B15319  22.736  44.248   8.742
  816POPC   C2B15320  22.732  44.081   8.332
  816POPC   C3B15321  22.822  44.262   7.939
  816POPC   C4B15322  23.098  44.360   7.615
  817POPC   NC315323  13.960   1.164   9.381
  817POPC   PO415324  13.319   1.353   9.373
  817POPC   GL115325  13.623   1.317   9.035
  817POPC   GL215326  13.764   0.922   9.000
  817POPC   C1A15327  13.618   1.498   8.646
  817POPC   D2A15328  13.445   1.373   8.280
  817POPC   C3A15329  13.610   1.525   7.919
  817POPC   C4A15330  13.520   1.338   7.541
  817POPC   C1B15331  13.658   1.004   8.605
  817POPC   C2B15332  13.894   1.141   8.258
  817POPC   C3B15333  13.668   1.020   7.935
  817POPC   C4B15334  13.378   0.849   7.700
  818POPC   NC315335  15.443  11.493   9.886
  818POPC   PO415336  14.963  11.202   9.596
  818POPC   GL115337  15.060  11.261   9.147
  818POPC   GL215338  15.015  11.627   9.159
  818POPC   C1A15339  14.866  11.344   8.703
  818POPC   D2A15340  14.897  11.434   8.229
  818POPC   C3A15341  15.207  11.306   7.913
  818POPC   C4A15342  15.016  11.109   7.541
  818POPC   C1B15343  15.321  11.561   8.810
  818POPC   C2B15344  15.403  11.492   8.389
  818POPC   C3B15345  15.661  11.671   8.058
  818POPC   C4B15346  15.563  11.690   7.623
  819POPC   NC315347  10.157  25.814   9.298
  819POPC   PO415348   9.668  26.219   9.395
  819POPC   GL115349   9.722  26.286   9.003
  819POPC   GL215350   9.398  26.372   8.918
  819POPC   C1A15351   9.795  26.099   8.594
  819POPC   D2A15352   9.978  25.765   8.301
  819POPC   C3A15353   9.895  25.931   7.900
  819POPC   C4A15354   9.724  26.333   7.794
  819POPC   C1B15355   9.317  25.947   8.821
  819POPC   C2B15356   9.387  25.809   8.436
  819POPC   C3B15357   9.411  26.023   8.074
  819POPC   C4B15358   9.412  25.749   7.740
  820POPC   NC315359   0.098  20.752   9.561
  820POPC   PO415360   0.098  20.181   9.410
  820POPC   GL115361  44.849  20.492   9.129
  820POPC   GL215362  44.464  20.567   9.156
  820POPC   C1A15363  44.788  20.558   8.672
  820POPC   D2A15364  44.549  20.534   8.262
  820POPC   C3A15365  44.798  20.399   7.894
  820POPC   C4A15366  44.640  20.218   7.498
  820POPC   C1B15367  44.463  20.911   8.840
  820POPC   C2B15368  44.537  21.016   8.420
  820POPC   C3B15369  44.400  20.967   8.004
  820POPC   C4B15370  44.422  20.658   7.693
  821POPC   NC315371  10.484   0.668   9.600
  821POPC   PO415372  10.453  44.966   9.637
  821POPC   GL115373  10.406   0.028   9.209
  821POPC   GL215374  10.397   0.384   9.186
  821POPC   C1A15375  10.443   0.101   8.761
  821POPC   D2A15376  10.808   0.299   8.554
  821POPC   C3A15377  10.731   0.367   8.110
  821POPC   C4A15378  10.956   0.338   7.742
  821POPC   C1B15379  10.510   0.626   8.808
  821POPC   C2B15380  10.364   0.544   8.427
  821POPC   C3B15381  10.258   0.631   8.026
  821POPC   C4B15382  10.501   0.618   7.676
  822POPC   NC315383   0.975   6.912   9.355
  822POPC   PO415384   1.279   6.336   9.434
  822POPC   GL115385   1.324   6.625   9.113
  822POPC   GL215386   1.458   6.950   9.183
  822POPC   C1A15387   1.091   6.606   8.741
  822POPC   D2A15388   0.980   6.373   8.392
  822POPC   C3A15389   0.946   6.674   8.087
  822POPC   C4A15390   0.787   6.682   7.701
  822POPC   C1B15391   1.274   7.085   8.796
  822POPC   C2B15392   1.113   7.088   8.397
  822POPC   C3B15393   1.238   7.140   8.007
  822POPC   C4B15394   1.300   6.866   7.687
  823POPC   NC315395  21.709  39.928   9.517
  823POPC   PO415396  21.058  40.265   9.455
  823POPC   GL115397  21.391  40.111   9.147
  823POPC   GL215398  21.768  40.240   9.132
  823POPC   C1A15399  21.226  40.021   8.739
  823POPC   D2A15400  21.092  40.137   8.341
  823POPC   C3A15401  21.159  39.880   8.007
  823POPC   C4A15402  21.050  39.994   7.621
  823POPC   C1B15403  21.766  39.991   8.772
  823POPC   C2B15404  21.571  39.899   8.390
  823POPC   C3B15405  21.653  39.954   7.994
  823POPC   C4B15406  21.561  39.784   7.629
  824POPC   NC315407  23.835  27.246   9.471
  824POPC   PO415408  23.250  27.485   9.417
  824POPC   GL115409  23.612  27.617   9.173
  824POPC   GL215410  23.750  27.950   9.292
  824POPC   C1A15411  23.822  27.416   8.802
  824POPC   D2A15412  24.015  27.222   8.443
  824POPC   C3A15413  23.953  27.465   8.095
  824POPC   C4A15414  23.610  27.472   7.879
  824POPC   C1B15415  23.898  27.904   8.862
  824POPC   C2B15416  23.737  27.811   8.436
  824POPC   C3B15417  23.761  27.947   8.002
  824POPC   C4B15418  24.055  27.801   7.710
  825POPC   NC315419   8.356  31.060   9.771
  825POPC   PO415420   7.935  30.620   9.570
  825POPC   GL115421   8.158  30.764   9.223
  825POPC   GL215422   8.472  30.636   9.172
  825POPC   C1A15423   8.104  30.591   8.803
  825POPC   D2A15424   7.830  30.580   8.454
  825POPC   C3A15425   8.054  30.555   8.091
  825POPC   C4A15426   8.090  30.810   7.773
  825POPC   C1B15427   8.559  30.798   8.772
  825POPC   C2B15428   8.445  30.643   8.395
  825POPC   C3B15429   8.531  30.746   7.992
  825POPC   C4B15430   8.721  30.566   7.655
  826POPC   NC315431  25.101  34.880   9.464
  826POPC   PO415432  24.935  34.269   9.594
  826POPC   GL115433  24.936  34.504   9.176
  826POPC   GL215434  25.265  34.633   9.053
  826POPC   C1A15435  24.842  34.706   8.764
  826POPC   D2A15436  24.886  34.507   8.347
  826POPC   C3A15437  25.164  34.661   8.040
  826POPC   C4A15438  25.207  34.631   7.597
  826POPC   C1B15439  25.385  34.709   8.606
  826POPC   C2B15440  25.537  34.930   8.231
  826POPC   C3B15441  25.649  34.634   7.891
  826POPC   C4B15442  25.696  34.318   7.544
  827POPC   NC315443  34.413  19.218   9.439
  827POPC   PO415444  34.766  19.688   9.649
  827POPC   GL115445  34.834  19.303   9.177
  827POPC   GL215446  34.523  19.198   8.959
  827POPC   C1A15447  34.937  19.024   8.771
  827POPC   D2A15448  34.755  19.119   8.349
  827POPC   C3A15449  34.774  18.816   7.974
  827POPC   C4A15450  34.833  18.794   7.522
  827POPC   C1B15451  34.116  19.266   8.792
  827POPC   C2B15452  34.168  19.213   8.380
  827POPC   C3B15453  34.414  19.433   8.100
  827POPC   C4B15454  34.429  19.194   7.753
  828POPC   NC315455   1.688   7.157   9.592
  828POPC   PO415456   1.897   7.743   9.466
  828POPC   GL115457   2.012   7.471   9.121
  828POPC   GL215458   1.932   7.153   9.141
  828POPC   C1A15459   2.123   7.305   8.685
  828POPC   D2A15460   2.395   7.144   8.355
  828POPC   C3A15461   2.192   7.214   7.928
  828POPC   C4A15462   2.099   7.432   7.515
  828POPC   C1B15463   1.776   6.952   8.766
  828POPC   C2B15464   1.641   7.114   8.400
  828POPC   C3B15465   1.725   7.009   8.000
  828POPC   C4B15466   1.681   7.213   7.646
  829POPC   NC315467   8.831  13.190   9.451
  829POPC   PO415468   9.464  13.638   9.509
  829POPC   GL115469   9.289  13.325   9.232
  829POPC   GL215470   9.036  13.588   9.194
  829POPC   C1A15471   9.104  13.250   8.817
  829POPC   D2A15472   9.143  13.547   8.465
  829POPC   C3A15473   9.075  13.422   8.022
  829POPC   C4A15474   8.838  13.678   7.718
  829POPC   C1B15475   8.821  13.745   8.846
  829POPC   C2B15476   8.879  14.019   8.521
  829POPC   C3B15477   8.974  13.951   8.118
  829POPC   C4B15478   9.267  14.015   7.790
  830POPC   NC315479  43.685  40.471   9.763
  830POPC   PO415480  44.234  40.859   9.383
  830POPC   GL115481  44.128  40.684   9.025
  830POPC   GL215482  43.819  40.820   9.030
  830POPC   C1A15483  44.104  40.952   8.656
  830POPC   D2A15484  43.908  40.945   8.295
  830POPC   C3A15485  43.944  40.738   7.983
  830POPC   C4A15486  43.920  40.951   7.679
  830POPC   C1B15487  43.547  40.878   8.650
  830POPC   C2B15488  43.481  40.671   8.242
  830POPC   C3B15489  43.474  40.713   7.787
  830POPC   C4B15490  43.758  40.532   7.452
  831POPC   NC315491  18.570  10.980   9.460
  831POPC   PO415492  18.116  11.564   9.533
  831POPC   GL115493  18.031  11.315   9.132
  831POPC   GL215494  18.322  11.108   9.018
  831POPC   C1A15495  17.944  11.148   8.711
  831POPC   D2A15496  18.225  11.158   8.373
  831POPC   C3A15497  18.096  11.489   8.142
  831POPC   C4A15498  18.020  11.775   7.810
  831POPC   C1B15499  18.666  11.068   8.663
  831POPC   C2B15500  18.744  11.187   8.216
  831POPC   C3B15501  18.426  11.242   7.863
  831POPC   C4B15502  18.397  11.114   7.443
  832POPC   NC315503  13.258  14.471   9.579
  832POPC   PO415504  12.651  14.193   9.446
  832POPC   GL115505  12.981  14.283   9.181
  832POPC   GL215506  12.928  14.643   9.218
  832POPC   C1A15507  13.023  14.202   8.753
  832POPC   D2A15508  12.651  14.181   8.506
  832POPC   C3A15509  12.726  14.203   8.083
  832POPC   C4A15510  13.132  14.314   7.885
  832POPC   C1B15511  12.789  14.668   8.796
  832POPC   C2B15512  12.962  14.608   8.387
  832POPC   C3B15513  12.798  14.736   8.006
  832POPC   C4B15514  12.710  14.481   7.662
  833POPC   NC315515   4.674  13.324   9.448
  833POPC   PO415516   4.292  13.897   9.455
  833POPC   GL115517   4.359  13.615   9.132
  833POPC   GL215518   4.106  13.399   8.997
  833POPC   C1A15519   4.410  13.732   8.714
  833POPC   D2A15520   4.540  13.898   8.332
  833POPC   C3A15521   4.558  13.690   7.963
  833POPC   C4A15522   4.460  13.831   7.553
  833POPC   C1B15523   4.128  13.333   8.601
  833POPC   C2B15524   4.103  13.604   8.252
  833POPC   C3B15525   4.067  13.592   7.812
  833POPC   C4B15526   4.073  13.545   7.347
  834POPC   NC315527  20.639  30.500   9.347
  834POPC   PO415528  20.169  31.044   9.486
  834POPC   GL115529  20.352  30.861   9.121
  834POPC   GL215530  20.307  30.500   8.973
  834POPC   C1A15531  20.487  30.920   8.683
  834POPC   D2A15532  20.328  30.855   8.257
  834POPC   C3A15533  20.593  30.635   7.966
  834POPC   C4A15534  20.982  30.648   7.745
  834POPC   C1B15535  20.662  30.415   8.656
  834POPC   C2B15536  20.916  30.364   8.254
  834POPC   C3B15537  20.881  30.169   7.846
  834POPC   C4B15538  20.818  30.247   7.414
  835POPC   NC315539  36.293  40.404   9.344
  835POPC   PO415540  35.747  39.931   9.423
  835POPC   GL115541  35.976  40.035   9.095
  835POPC   GL215542  36.290  39.845   9.175
  835POPC   C1A15543  36.049  40.252   8.722
  835POPC   D2A15544  36.174  40.417   8.337
  835POPC   C3A15545  36.005  40.272   7.952
  835POPC   C4A15546  36.257  40.249   7.569
  835POPC   C1B15547  36.240  39.777   8.727
  835POPC   C2B15548  36.094  39.865   8.308
  835POPC   C3B15549  36.221  39.795   7.890
  835POPC   C4B15550  35.841  39.673   7.626
  836POPC   NC315551  28.199  40.900   9.716
  836POPC   PO415552  28.737  40.782   9.462
  836POPC   GL115553  28.480  40.890   9.159
  836POPC   GL215554  28.152  40.749   9.235
  836POPC   C1A15555  28.580  40.697   8.784
  836POPC   D2A15556  28.849  40.668   8.407
  836POPC   C3A15557  28.606  40.816   8.050
  836POPC   C4A15558  28.501  40.886   7.643
  836POPC   C1B15559  28.067  40.809   8.829
  836POPC   C2B15560  28.226  40.757   8.436
  836POPC   C3B15561  28.112  40.608   8.086
  836POPC   C4B15562  28.012  40.761   7.697
  837POPC   NC315563  16.697  23.322   9.445
  837POPC   PO415564  16.950  23.898   9.492
  837POPC   GL115565  16.825  23.659   9.099
  837POPC   GL215566  16.442  23.578   9.098
  837POPC   C1A15567  16.772  23.329   8.769
  837POPC   D2A15568  16.630  23.328   8.362
  837POPC   C3A15569  16.866  23.619   8.114
  837POPC   C4A15570  16.834  23.677   7.681
  837POPC   C1B15571  16.247  23.433   8.723
  837POPC   C2B15572  16.191  23.571   8.275
  837POPC   C3B15573  16.348  23.743   7.862
  837POPC   C4B15574  16.547  24.126   7.615
  838POPC   NC315575  41.730   7.627   9.387
  838POPC   PO415576  41.245   7.154   9.536
  838POPC   GL115577  41.354   7.308   9.128
  838POPC   GL215578  41.330   7.660   9.041
  838POPC   C1A15579  41.306   7.190   8.693
  838POPC   D2A15580  41.569   7.216   8.316
  838POPC   C3A15581  41.426   7.119   7.884
  838POPC   C4A15582  41.365   7.372   7.505
  838POPC   C1B15583  41.638   7.580   8.739
  838POPC   C2B15584  41.675   7.722   8.314
  838POPC   C3B15585  41.594   7.600   7.934
  838POPC   C4B15586  41.824   7.582   7.560
  839POPC   NC315587   1.264  40.560   9.573
  839POPC   PO415588   0.598  40.659   9.492
  839POPC   GL115589   0.970  40.720   9.142
  839POPC   GL215590   1.386  40.726   9.127
  839POPC   C1A15591   1.139  40.750   8.687
  839POPC   D2A15592   1.193  41.031   8.317
  839POPC   C3A15593   1.175  40.929   7.920
  839POPC   C4A15594   0.837  40.670   7.833
  839POPC   C1B15595   1.604  40.428   8.885
  839POPC   C2B15596   1.558  40.490   8.481
  839POPC   C3B15597   1.212  40.503   8.217
  839POPC   C4B15598   1.381  40.499   7.823
  840POPC   NC315599   8.268  17.924   9.471
  840POPC   PO415600   7.847  18.421   9.735
  840POPC   GL115601   8.227  18.411   9.285
  840POPC   GL215602   8.217  18.103   9.001
  840POPC   C1A15603   8.490  18.503   8.897
  840POPC   D2A15604   8.442  18.213   8.509
  840POPC   C3A15605   8.443  18.398   8.070
  840POPC   C4A15606   8.417  18.220   7.637
  840POPC   C1B15607   8.015  18.448   8.718
  840POPC   C2B15608   7.949  18.485   8.283
  840POPC   C3B15609   7.971  18.183   7.909
  840POPC   C4B15610   7.938  18.302   7.463
  841POPC   NC315611  32.697  14.731   9.353
  841POPC   PO415612  32.123  14.425   9.546
  841POPC   GL115613  32.203  14.583   9.158
  841POPC   GL215614  32.480  14.362   9.045
  841POPC   C1A15615  32.012  14.486   8.757
  841POPC   D2A15616  31.874  14.212   8.412
  841POPC   C3A15617  32.130  14.199   8.039
  841POPC   C4A15618  32.031  14.526   7.739
  841POPC   C1B15619  32.506  14.718   8.740
  841POPC   C2B15620  32.780  14.867   8.418
  841POPC   C3B15621  32.633  14.877   7.972
  841POPC   C4B15622  32.508  14.650   7.579
  842POPC   NC315623  44.879   3.675   9.542
  842POPC   PO415624  44.279   3.831   9.270
  842POPC   GL115625  44.698   3.737   9.079
  842POPC   GL215626  44.838   3.398   9.102
  842POPC   C1A15627  44.801   3.683   8.665
  842POPC   D2A15628  44.590   3.802   8.341
  842POPC   C3A15629  44.816   3.743   8.004
  842POPC   C4A15630  44.541   3.756   7.663
  842POPC   C1B15631  45.000   3.212   8.725
  842POPC   C2B15632  44.812   3.276   8.340
  842POPC   C3B15633  44.514   3.342   8.018
  842POPC   C4B15634  44.728   3.270   7.653
  843POPC   NC315635  39.935   6.585   9.682
  843POPC   PO415636  39.652   7.123   9.481
  843POPC   GL115637  39.978   6.846   9.236
  843POPC   GL215638  39.806   6.545   9.146
  843POPC   C1A15639  40.179   6.655   8.841
  843POPC   D2A15640  40.071   6.824   8.429
  843POPC   C3A15641  39.980   6.565   8.060
  843POPC   C4A15642  40.189   6.586   7.676
  843POPC   C1B15643  39.656   6.792   8.810
  843POPC   C2B15644  39.579   6.683   8.401
  843POPC   C3B15645  39.584   6.870   8.020
  843POPC   C4B15646  39.884   6.980   7.773
  844POPC   NC315647  36.089  40.972   9.658
  844POPC   PO415648  35.841  40.504   9.344
  844POPC   GL115649  35.937  40.785   9.094
  844POPC   GL215650  36.206  40.957   9.140
  844POPC   C1A15651  35.961  40.755   8.683
  844POPC   D2A15652  35.719  40.866   8.386
  844POPC   C3A15653  35.925  40.796   8.063
  844POPC   C4A15654  35.912  40.974   7.688
  844POPC   C1B15655  36.265  41.151   8.776
  844POPC   C2B15656  36.318  40.951   8.352
  844POPC   C3B15657  36.389  40.907   7.887
  844POPC   C4B15658  36.401  40.713   7.428
  845POPC   NC315659  14.685  41.684   9.246
  845POPC   PO415660  14.362  41.315   9.693
  845POPC   GL115661  14.312  41.340   9.220
  845POPC   GL215662  14.196  41.657   9.022
  845POPC   C1A15663  14.433  41.249   8.772
  845POPC   D2A15664  14.615  40.970   8.470
  845POPC   C3A15665  14.685  41.242   8.134
  845POPC   C4A15666  14.401  41.492   7.866
  845POPC   C1B15667  14.423  41.961   8.735
  845POPC   C2B15668  14.693  41.905   8.358
  845POPC   C3B15669  14.628  41.941   7.913
  845POPC   C4B15670  14.582  41.763   7.460
  846POPC   NC315671   1.409  18.055   9.555
  846POPC   PO415672   2.136  18.213   9.570
  846POPC   GL115673   2.027  18.523   9.252
  846POPC   GL215674   1.669  18.470   9.244
  846POPC   C1A15675   2.201  18.688   8.870
  846POPC   D2A15676   2.099  18.436   8.516
  846POPC   C3A15677   2.164  18.558   8.102
  846POPC   C4A15678   2.028  18.342   7.717
  846POPC   C1B15679   1.839  18.118   8.992
  846POPC   C2B15680   1.908  17.954   8.582
  846POPC   C3B15681   1.986  18.070   8.168
  846POPC   C4B15682   2.180  17.848   7.842
  847POPC   NC315683  10.640  27.282   9.641
  847POPC   PO415684  10.445  27.877   9.412
  847POPC   GL115685  10.564  27.597   9.129
  847POPC   GL215686  10.308  27.391   9.084
  847POPC   C1A15687  10.572  27.723   8.709
  847POPC   D2A15688  10.392  27.600   8.343
  847POPC   C3A15689  10.573  27.740   7.962
  847POPC   C4A15690  10.625  28.034   7.661
  847POPC   C1B15691  10.526  27.207   8.761
  847POPC   C2B15692  10.729  27.197   8.376
  847POPC   C3B15693  10.530  27.234   8.006
  847POPC   C4B15694  10.463  27.380   7.600
  848POPC   NC315695  36.918  36.506   9.479
  848POPC   PO415696  36.889  35.724   9.576
  848POPC   GL115697  36.803  35.947   9.138
  848POPC   GL215698  36.794  36.321   8.989
  848POPC   C1A15699  36.757  35.928   8.680
  848POPC   D2A15700  36.712  36.391   8.448
  848POPC   C3A15701  36.610  36.346   7.989
  848POPC   C4A15702  36.753  35.966   7.791
  848POPC   C1B15703  37.138  36.244   8.685
  848POPC   C2B15704  37.155  35.944   8.337
  848POPC   C3B15705  37.247  35.999   7.921
  848POPC   C4B15706  37.095  36.385   7.819
  849POPC   NC315707   5.686  29.516   9.511
  849POPC   PO415708   5.987  29.000   9.539
  849POPC   GL115709   6.064  29.116   9.132
  849POPC   GL215710   5.751  29.238   9.084
  849POPC   C1A15711   6.001  28.893   8.745
  849POPC   D2A15712   6.234  28.834   8.361
  849POPC   C3A15713   5.985  28.918   7.994
  849POPC   C4A15714   5.646  28.726   7.777
  849POPC   C1B15715   5.921  29.409   8.719
  849POPC   C2B15716   5.938  29.265   8.381
  849POPC   C3B15717   5.752  29.400   8.059
  849POPC   C4B15718   5.887  29.303   7.647
  850POPC   NC315719  30.896  20.209   9.519
  850POPC   PO415720  30.426  20.681   9.457
  850POPC   GL115721  30.422  20.549   9.044
  850POPC   GL215722  30.752  20.469   9.088
  850POPC   C1A15723  30.428  20.619   8.596
  850POPC   D2A15724  30.389  20.704   8.119
  850POPC   C3A15725  30.371  20.440   7.754
  850POPC   C4A15726  30.657  20.550   7.405
  850POPC   C1B15727  30.971  20.502   8.717
  850POPC   C2B15728  30.858  20.534   8.310
  850POPC   C3B15729  30.859  20.520   7.902
  850POPC   C4B15730  31.125  20.409   7.594
  851POPC   NC315731  19.248   9.685   9.379
  851POPC   PO415732  19.563  10.303   9.498
  851POPC   GL115733  19.472  10.076   9.133
  851POPC   GL215734  19.113  10.085   9.097
  851POPC   C1A15735  19.407   9.922   8.697
  851POPC   D2A15736  19.387  10.158   8.319
  851POPC   C3A15737  19.241  10.009   7.927
  851POPC   C4A15738  19.201   9.566   7.805
  851POPC   C1B15739  18.904   9.970   8.723
  851POPC   C2B15740  18.962   9.792   8.305
  851POPC   C3B15741  18.762   9.782   7.884
  851POPC   C4B15742  18.820   9.770   7.454
  852POPC   NC315743  23.514  21.267   9.483
  852POPC   PO415744  24.059  21.188   9.230
  852POPC   GL115745  23.786  21.503   9.089
  852POPC   GL215746  23.395  21.561   9.089
  852POPC   C1A15747  23.698  21.584   8.688
  852POPC   D2A15748  23.768  21.710   8.326
  852POPC   C3A15749  23.702  21.396   8.068
  852POPC   C4A15750  23.766  21.457   7.669
  852POPC   C1B15751  23.233  21.359   8.730
  852POPC   C2B15752  23.246  21.260   8.271
  852POPC   C3B15753  23.315  21.152   7.815
  852POPC   C4B15754  23.479  21.177   7.363
  853POPC   NC315755  44.827  39.670   9.425
  853POPC   PO415756  44.402  39.230   9.697
  853POPC   GL115757  44.414  39.362   9.271
  853POPC   GL215758  44.724  39.210   9.158
  853POPC   C1A15759  44.410  39.336   8.811
  853POPC   D2A15760  44.654  39.262   8.441
  853POPC   C3A15761  44.438  39.255   8.044
  853POPC   C4A15762  44.514  39.216   7.595
  853POPC   C1B15763   0.012  39.249   8.818
  853POPC   C2B15764   0.173  39.432   8.456
  853POPC   C3B15765  44.955  39.446   8.063
  853POPC   C4B15766   0.009  39.317   7.648
  854POPC   NC315767  32.476   4.014  10.045
  854POPC   PO415768  33.010   3.694   9.677
  854POPC   GL115769  33.044   3.612   9.267
  854POPC   GL215770  33.375   3.722   9.251
  854POPC   C1A15771  32.831   3.545   8.856
  854POPC   D2A15772  32.625   3.756   8.517
  854POPC   C3A15773  32.657   3.592   8.103
  854POPC   C4A15774  32.841   3.755   7.734
  854POPC   C1B15775  33.357   3.563   8.842
  854POPC   C2B15776  33.166   3.651   8.458
  854POPC   C3B15777  33.178   3.551   8.030
  854POPC   C4B15778  33.357   3.812   7.697
  855POPC   NC315779   5.161  19.675   9.497
  855POPC   PO415780   5.113  20.298   9.605
  855POPC   GL115781   5.135  20.065   9.161
  855POPC   GL215782   4.909  19.752   9.059
  855POPC   C1A15783   5.327  19.827   8.787
  855POPC   D2A15784   5.296  19.621   8.354
  855POPC   C3A15785   5.051  19.878   8.030
  855POPC   C4A15786   5.072  19.992   7.607
  855POPC   C1B15787   4.843  19.773   8.578
  855POPC   C2B15788   4.613  19.657   8.166
  855POPC   C3B15789   4.652  19.685   7.702
  855POPC   C4B15790   4.857  19.666   7.271
  856POPC   NC315791  31.982  32.153   9.476
  856POPC   PO415792  32.527  32.703   9.489
  856POPC   GL115793  32.333  32.466   9.177
  856POPC   GL215794  31.968  32.532   9.096
  856POPC   C1A15795  32.422  32.256   8.801
  856POPC   D2A15796  32.218  32.344   8.430
  856POPC   C3A15797  32.378  32.079   8.108
  856POPC   C4A15798  32.538  32.151   7.706
  856POPC   C1B15799  31.922  32.161   8.819
  856POPC   C2B15800  31.767  32.090   8.379
  856POPC   C3B15801  31.926  32.317   8.011
  856POPC   C4B15802  32.037  32.130   7.631
  857POPC   NC315803   3.735   5.819   9.544
  857POPC   PO415804   3.302   5.365   9.473
  857POPC   GL115805   3.334   5.582   9.070
  857POPC   GL215806   3.597   5.806   9.051
  857POPC   C1A15807   3.406   5.511   8.620
  857POPC   D2A15808   3.266   5.791   8.288
  857POPC   C3A15809   3.417   5.815   7.904
  857POPC   C4A15810   3.343   6.171   7.683
  857POPC   C1B15811   3.425   6.004   8.728
  857POPC   C2B15812   3.653   6.143   8.413
  857POPC   C3B15813   3.718   6.215   8.027
  857POPC   C4B15814   3.836   6.001   7.668
  858POPC   NC315815  29.325  39.854   9.446
  858POPC   PO415816  28.942  40.307   9.414
  858POPC   GL115817  29.139  40.126   9.044
  858POPC   GL215818  29.176  39.728   8.982
  858POPC   C1A15819  29.036  40.038   8.612
  858POPC   D2A15820  29.257  39.686   8.413
  858POPC   C3A15821  29.376  39.892   8.057
  858POPC   C4A15822  29.079  40.089   7.766
  858POPC   C1B15823  28.850  39.553   8.711
  858POPC   C2B15824  28.694  39.754   8.322
  858POPC   C3B15825  28.905  39.636   7.952
  858POPC   C4B15826  29.273  39.599   7.665
  859POPC   NC315827  39.901  38.571   9.416
  859POPC   PO415828  39.624  38.258   8.973
  859POPC   GL115829  40.059  38.233   8.890
  859POPC   GL215830  40.261  38.453   9.052
  859POPC   C1A15831  40.263  38.356   8.496
  859POPC   D2A15832  40.211  38.273   8.062
  859POPC   C3A15833  39.804  38.471   7.895
  859POPC   C4A15834  39.596  38.511   7.472
  859POPC   C1B15835  40.107  38.783   8.771
  859POPC   C2B15836  40.040  38.819   8.326
  859POPC   C3B15837  40.228  38.755   7.932
  859POPC   C4B15838  40.363  38.857   7.549
  860POPC   NC315839   5.369  13.121   9.454
  860POPC   PO415840   5.038  13.692   9.428
  860POPC   GL115841   4.856  13.702   9.051
  860POPC   GL215842   5.080  13.413   9.002
  860POPC   C1A15843   4.900  13.658   8.600
  860POPC   D2A15844   5.050  13.414   8.243
  860POPC   C3A15845   5.006  13.498   7.811
  860POPC   C4A15846   4.925  13.715   7.409
  860POPC   C1B15847   5.355  13.434   8.636
  860POPC   C2B15848   5.539  13.262   8.241
  860POPC   C3B15849   5.353  13.099   7.812
  860POPC   C4B15850   5.118  13.242   7.389
  861POPC   NC315851  41.356  30.880   9.499
  861POPC   PO415852  41.466  30.232   9.650
  861POPC   GL115853  41.549  30.502   9.233
  861POPC   GL215854  41.257  30.658   9.034
  861POPC   C1A15855  41.762  30.639   8.840
  861POPC   D2A15856  41.859  30.531   8.375
  861POPC   C3A15857  41.635  30.696   8.019
  861POPC   C4A15858  41.475  31.054   7.854
  861POPC   C1B15859  41.358  30.876   8.631
  861POPC   C2B15860  41.166  30.856   8.225
  861POPC   C3B15861  41.145  30.527   7.936
  861POPC   C4B15862  41.391  30.245   7.651
  862POPC   NC315863   1.920  24.345   9.469
  862POPC   PO415864   2.217  25.012   9.426
  862POPC   GL115865   2.049  24.733   9.121
  862POPC   GL215866   2.244  24.430   9.093
  862POPC   C1A15867   1.946  24.575   8.715
  862POPC   D2A15868   1.742  24.631   8.341
  862POPC   C3A15869   1.910  24.364   8.052
  862POPC   C4A15870   2.097  24.461   7.669
  862POPC   C1B15871   2.235  24.147   8.738
  862POPC   C2B15872   2.398  24.169   8.293
  862POPC   C3B15873   2.247  24.021   7.863
  862POPC   C4B15874   2.399  24.102   7.437
  863POPC   NC315875   3.825   3.164   9.495
  863POPC   PO415876   3.471   3.747   9.747
  863POPC   GL115877   3.343   3.440   9.406
  863POPC   GL215878   3.637   3.541   9.204
  863POPC   C1A15879   3.321   3.237   8.968
  863POPC   D2A15880   3.482   3.363   8.546
  863POPC   C3A15881   3.422   3.302   8.091
  863POPC   C4A15882   3.284   3.646   7.810
  863POPC   C1B15883   3.908   3.451   8.831
  863POPC   C2B15884   3.910   3.647   8.405
  863POPC   C3B15885   3.822   3.603   7.955
  863POPC   C4B15886   3.884   3.315   7.634
  864POPC   NC315887  37.965   8.123   9.268
  864POPC   PO415888  37.666   8.690   9.700
  864POPC   GL115889  37.537   8.389   9.283
  864POPC   GL215890  37.490   8.028   9.127
  864POPC   C1A15891  37.505   8.391   8.782
  864POPC   D2A15892  37.407   8.124   8.361
  864POPC   C3A15893  37.597   8.281   7.973
  864POPC   C4A15894  37.898   8.610   8.035
  864POPC   C1B15895  37.729   7.931   8.705
  864POPC   C2B15896  37.932   8.079   8.314
  864POPC   C3B15897  38.090   8.126   7.878
  864POPC   C4B15898  38.042   7.899   7.456
  865POPC   NC315899   2.798  35.661   9.511
  865POPC   PO415900   2.752  35.012   9.618
  865POPC   GL115901   2.834  35.241   9.227
  865POPC   GL215902   2.498  35.375   9.097
  865POPC   C1A15903   2.934  35.451   8.840
  865POPC   D2A15904   2.743  35.222   8.503
  865POPC   C3A15905   2.459  35.290   8.175
  865POPC   C4A15906   2.705  35.348   7.809
  865POPC   C1B15907   2.466  35.620   8.698
  865POPC   C2B15908   2.687  35.746   8.287
  865POPC   C3B15909   2.646  35.872   7.822
  865POPC   C4B15910   2.544  35.624   7.429
  866POPC   NC315911  16.459  22.771   9.514
  866POPC   PO415912  17.058  23.040   9.538
  866POPC   GL115913  16.821  22.939   9.130
  866POPC   GL215914  16.474  23.050   9.058
  866POPC   C1A15915  16.766  22.631   8.784
  866POPC   D2A15916  16.590  22.525   8.354
  866POPC   C3A15917  16.647  22.773   7.964
  866POPC   C4A15918  16.654  23.229   7.852
  866POPC   C1B15919  16.411  22.944   8.633
  866POPC   C2B15920  16.199  22.849   8.250
  866POPC   C3B15921  16.212  23.010   7.847
  866POPC   C4B15922  16.444  22.869   7.456
  867POPC   NC315923  28.392  19.421   9.527
  867POPC   PO415924  28.790  19.992   9.466
  867POPC   GL115925  28.575  19.723   9.152
  867POPC   GL215926  28.176  19.755   9.077
  867POPC   C1A15927  28.519  19.787   8.725
  867POPC   D2A15928  28.251  19.880   8.389
  867POPC   C3A15929  28.471  19.803   8.038
  867POPC   C4A15930  28.208  19.783   7.711
  867POPC   C1B15931  28.179  20.189   8.784
  867POPC   C2B15932  28.208  20.398   8.388
  867POPC   C3B15933  28.096  20.207   7.996
  867POPC   C4B15934  28.069  20.259   7.542
  868POPC   NC315935  26.906  13.824   9.457
  868POPC   PO415936  27.042  13.160   9.342
  868POPC   GL115937  26.887  13.443   9.085
  868POPC   GL215938  27.121  13.663   9.039
  868POPC   C1A15939  26.717  13.404   8.699
  868POPC   D2A15940  26.713  13.612   8.329
  868POPC   C3A15941  26.759  13.368   7.999
  868POPC   C4A15942  26.459  13.376   7.691
  868POPC   C1B15943  27.271  13.789   8.675
  868POPC   C2B15944  27.222  13.593   8.304
  868POPC   C3B15945  27.158  13.722   7.910
  868POPC   C4B15946  26.851  13.742   7.636
  869POPC   NC315947  43.447   3.288   9.594
  869POPC   PO415948  42.967   2.768   9.454
  869POPC   GL115949  42.880   2.973   9.094
  869POPC   GL215950  42.538   3.017   9.102
  869POPC   C1A15951  43.057   2.834   8.718
  869POPC   D2A15952  43.141   2.956   8.319
  869POPC   C3A15953  43.078   2.801   7.926
  869POPC   C4A15954  43.067   2.964   7.509
  869POPC   C1B15955  42.568   2.641   8.831
  869POPC   C2B15956  42.797   2.458   8.481
  869POPC   C3B15957  42.674   2.505   8.063
  869POPC   C4B15958  42.709   2.623   7.635
  870POPC   NC315959  25.117  15.398   9.536
  870POPC   PO415960  25.460  14.873   9.422
  870POPC   GL115961  25.305  15.174   9.117
  870POPC   GL215962  25.472  15.485   9.170
  870POPC   C1A15963  25.133  15.403   8.754
  870POPC   D2A15964  24.939  15.488   8.341
  870POPC   C3A15965  25.116  15.327   7.975
  870POPC   C4A15966  25.443  15.073   7.822
  870POPC   C1B15967  25.644  15.558   8.778
  870POPC   C2B15968  25.478  15.511   8.368
  870POPC   C3B15969  25.567  15.607   7.956
  870POPC   C4B15970  25.289  15.697   7.628
  871POPC   NC315971  30.220  21.715   9.390
  871POPC   PO415972  29.950  22.252   9.697
  871POPC   GL115973  29.935  22.271   9.235
  871POPC   GL215974  29.616  22.403   9.118
  871POPC   C1A15975  29.975  22.035   8.857
  871POPC   D2A15976  29.833  22.088   8.432
  871POPC   C3A15977  30.109  22.034   8.102
  871POPC   C4A15978  30.152  21.813   7.718
  871POPC   C1B15979  29.819  22.499   8.724
  871POPC   C2B15980  29.661  22.606   8.326
  871POPC   C3B15981  29.536  22.480   7.935
  871POPC   C4B15982  29.835  22.258   7.676
  872POPC   NC315983  14.639  20.075   9.365
  872POPC   PO415984  14.041  19.736   9.520
  872POPC   GL115985  14.236  19.834   9.143
  872POPC   GL215986  14.523  19.595   9.153
  872POPC   C1A15987  14.393  19.982   8.753
  872POPC   D2A15988  14.366  19.718   8.365
  872POPC   C3A15989  14.318  19.913   7.969
  872POPC   C4A15990  14.192  20.228   7.736
  872POPC   C1B15991  14.796  19.674   8.784
  872POPC   C2B15992  14.875  19.843   8.405
  872POPC   C3B15993  14.791  19.716   8.048
  872POPC   C4B15994  14.717  19.845   7.642
  873POPC   NC315995  20.816  28.252   9.623
  873POPC   PO415996  20.248  28.570   9.665
  873POPC   GL115997  20.498  28.470   9.263
  873POPC   GL215998  20.820  28.617   9.209
  873POPC   C1A15999  20.707  28.187   8.944
  873POPC   D2A16000  20.859  28.194   8.518
  873POPC   C3A16001  20.718  27.887   8.201
  873POPC   C4A16002  20.568  27.991   7.784
  873POPC   C1B16003  20.643  28.646   8.759
  873POPC   C2B16004  20.584  28.609   8.297
  873POPC   C3B16005  20.645  28.530   7.841
  873POPC   C4B16006  20.727  28.739   7.427
  874POPC   NC316007  43.321   8.410   9.455
  874POPC   PO416008  42.882   7.907   9.454
  874POPC   GL116009  43.098   8.055   9.106
  874POPC   GL216010  42.932   8.384   9.128
  874POPC   C1A16011  43.281   8.281   8.744
  874POPC   D2A16012  43.446   8.533   8.392
  874POPC   C3A16013  43.306   8.375   7.986
  874POPC   C4A16014  43.131   7.959   7.909
  874POPC   C1B16015  42.771   8.293   8.737
  874POPC   C2B16016  42.944   8.216   8.317
  874POPC   C3B16017  42.797   8.399   7.889
  874POPC   C4B16018  42.777   8.540   7.428
  875POPC   NC316019  32.068  27.772   9.328
  875POPC   PO416020  31.449  27.692   9.535
  875POPC   GL116021  31.472  27.899   9.154
  875POPC   GL216022  31.682  27.628   9.016
  875POPC   C1A16023  31.338  27.885   8.730
  875POPC   D2A16024  31.544  27.583   8.451
  875POPC   C3A16025  31.522  27.696   8.013
  875POPC   C4A16026  31.288  28.036   7.868
  875POPC   C1B16027  31.860  27.922   8.723
  875POPC   C2B16028  32.028  27.819   8.334
  875POPC   C3B16029  31.930  27.421   8.158
  875POPC   C4B16030  31.767  27.310   7.761
  876POPC   NC316031  40.579  10.648   9.554
  876POPC   PO416032  41.161  10.414   9.586
  876POPC   GL116033  40.957  10.578   9.204
  876POPC   GL216034  40.724  10.351   9.108
  876POPC   C1A16035  40.889  10.672   8.749
  876POPC   D2A16036  40.887  10.823   8.328
  876POPC   C3A16037  40.817  10.544   7.991
  876POPC   C4A16038  40.750  10.769   7.624
  876POPC   C1B16039  40.534  10.253   8.702
  876POPC   C2B16040  40.585  10.074   8.262
  876POPC   C3B16041  40.454  10.201   7.816
  876POPC   C4B16042  40.635  10.339   7.397
  877POPC   NC316043   4.508  26.705   9.480
  877POPC   PO416044   4.084  27.172   9.464
  877POPC   GL116045   4.313  27.032   9.125
  877POPC   GL216046   4.594  27.221   9.155
  877POPC   C1A16047   4.331  26.828   8.703
  877POPC   D2A16048   4.072  26.881   8.318
  877POPC   C3A16049   4.185  26.514   8.055
  877POPC   C4A16050   4.542  26.473   7.807
  877POPC   C1B16051   4.383  27.327   8.719
  877POPC   C2B16052   4.482  27.214   8.268
  877POPC   C3B16053   4.324  26.997   7.859
  877POPC   C4B16054   4.321  27.074   7.348
  878POPC   NC316055   5.804  43.169   9.636
  878POPC   PO416056   6.381  42.984   9.450
  878POPC   GL116057   6.167  43.197   9.118
  878POPC   GL216058   5.808  43.307   9.150
  878POPC   C1A16059   6.121  43.057   8.664
  878POPC   D2A16060   5.808  43.132   8.323
  878POPC   C3A16061   5.900  43.046   7.864
  878POPC   C4A16062   6.231  42.868   7.551
  878POPC   C1B16063   5.565  43.097   8.823
  878POPC   C2B16064   5.309  43.185   8.453
  878POPC   C3B16065   5.438  43.435   8.099
  878POPC   C4B16066   5.589  43.412   7.683
  879POPC   NC316067  32.615  33.184   9.522
  879POPC   PO416068  31.904  33.318   9.501
  879POPC   GL116069  32.104  33.067   9.143
  879POPC   GL216070  32.450  33.041   9.080
  879POPC   C1A16071  32.172  33.175   8.690
  879POPC   D2A16072  32.164  32.899   8.328
  879POPC   C3A16073  32.212  33.107   7.929
  879POPC   C4A16074  32.394  33.276   7.531
  879POPC   C1B16075  32.476  32.762   8.747
  879POPC   C2B16076  32.614  32.653   8.347
  879POPC   C3B16077  32.399  32.585   7.980
  879POPC   C4B16078  32.352  32.628   7.557
  880POPC   NC316079  38.394  25.687   9.504
  880POPC   PO416080  38.042  26.237   9.783
  880POPC   GL116081  38.160  26.108   9.349
  880POPC   GL216082  38.504  26.173   9.233
  880POPC   C1A16083  38.165  26.062   8.862
  880POPC   D2A16084  38.414  26.172   8.461
  880POPC   C3A16085  38.251  26.278   8.040
  880POPC   C4A16086  38.162  26.425   7.593
  880POPC   C1B16087  38.685  25.944   8.862
  880POPC   C2B16088  38.703  25.750   8.435
  880POPC   C3B16089  38.516  25.824   8.032
  880POPC   C4B16090  38.550  26.121   7.664
  881POPC   NC316091  16.157  43.683   9.541
  881POPC   PO416092  15.801  44.194   9.348
  881POPC   GL116093  15.995  43.896   9.115
  881POPC   GL216094  16.349  43.940   9.122
  881POPC   C1A16095  16.037  43.639   8.749
  881POPC   D2A16096  15.734  43.525   8.424
  881POPC   C3A16097  15.864  43.511   7.988
  881POPC   C4A16098  15.885  43.691   7.574
  881POPC   C1B16099  16.205  44.104   8.701
  881POPC   C2B16100  16.052  43.948   8.284
  881POPC   C3B16101  16.045  44.072   7.851
  881POPC   C4B16102  16.027  44.119   7.329
  882POPC   NC316103  27.341  12.804   9.484
  882POPC   PO416104  27.813  13.287   9.554
  882POPC   GL116105  27.813  12.998   9.177
  882POPC   GL216106  27.459  12.904   9.024
  882POPC   C1A16107  27.823  13.054   8.710
  882POPC   D2A16108  27.832  12.754   8.360
  882POPC   C3A16109  27.768  12.901   7.909
  882POPC   C4A16110  27.532  12.983   7.492
  882POPC   C1B16111  27.386  12.755   8.631
  882POPC   C2B16112  27.348  12.730   8.202
  882POPC   C3B16113  27.329  12.625   7.800
  882POPC   C4B16114  27.115  12.698   7.434
  883POPC   NC316115  41.800   1.067   9.335
  883POPC   PO416116  41.134   1.236   9.439
  883POPC   GL116117  41.358   1.143   9.110
  883POPC   GL216118  41.497   1.492   9.138
  883POPC   C1A16119  41.373   0.884   8.748
  883POPC   D2A16120  41.587   0.903   8.379
  883POPC   C3A16121  41.405   0.871   8.013
  883POPC   C4A16122  41.442   1.085   7.635
  883POPC   C1B16123  41.727   1.459   8.762
  883POPC   C2B16124  41.970   1.242   8.444
  883POPC   C3B16125  41.848   1.190   8.004
  883POPC   C4B16126  41.687   1.499   7.745
  884POPC   NC316127  22.840   7.927   9.422
  884POPC   PO416128  22.726   8.643   9.518
  884POPC   GL116129  22.610   8.379   9.156
  884POPC   GL216130  22.912   8.210   9.003
  884POPC   C1A16131  22.476   8.253   8.723
  884POPC   D2A16132  22.825   8.147   8.433
  884POPC   C3A16133  22.942   8.254   8.025
  884POPC   C4A16134  22.820   8.366   7.613
  884POPC   C1B16135  22.748   7.813   8.807
  884POPC   C2B16136  22.815   7.637   8.437
  884POPC   C3B16137  22.943   7.740   8.034
  884POPC   C4B16138  23.032   7.882   7.611
  885POPC   NC316139   3.804  27.374   9.762
  885POPC   PO416140   3.248  27.684   9.663
  885POPC   GL116141   3.472  27.649   9.193
  885POPC   GL216142   3.710  27.465   9.254
  885POPC   C1A16143   3.476  27.733   8.752
  885POPC   D2A16144   3.226  27.996   8.441
  885POPC   C3A16145   3.406  27.943   8.030
  885POPC   C4A16146   3.273  27.884   7.600
  885POPC   C1B16147   3.843  27.266   8.841
  885POPC   C2B16148   3.613  27.129   8.457
  885POPC   C3B16149   3.550  27.138   8.022
  885POPC   C4B16150   3.593  27.499   7.725
  886POPC   NC316151   3.263  43.863   9.648
  886POPC   PO416152   2.583  43.822   9.561
  886POPC   GL116153   2.557  43.798   9.134
  886POPC   GL216154   2.600  44.152   9.085
  886POPC   C1A16155   2.758  43.673   8.740
  886POPC   D2A16156   2.989  43.545   8.342
  886POPC   C3A16157   2.889  43.761   7.960
  886POPC   C4A16158   2.671  43.636   7.564
  886POPC   C1B16159   2.390  44.038   8.700
  886POPC   C2B16160   2.451  43.795   8.306
  886POPC   C3B16161   2.405  43.930   7.865
  886POPC   C4B16162   2.490  44.108   7.410
  887POPC   NC316163   1.372  39.588   9.484
  887POPC   PO416164   1.046  40.136   9.600
  887POPC   GL116165   1.188  40.218   9.171
  887POPC   GL216166   1.532  40.146   9.301
  887POPC   C1A16167   1.185  40.206   8.685
  887POPC   D2A16168   1.052  39.996   8.297
  887POPC   C3A16169   1.074  40.107   7.838
  887POPC   C4A16170   1.044  40.389   7.463
  887POPC   C1B16171   1.536  39.899   8.915
  887POPC   C2B16172   1.507  39.823   8.482
  887POPC   C3B16173   1.522  40.101   8.136
  887POPC   C4B16174   1.613  40.049   7.718
  888POPC   NC316175  24.692   7.600   9.779
  888POPC   PO416176  24.319   8.132   9.511
  888POPC   GL116177  24.539   8.335   9.211
  888POPC   GL216178  24.234   8.533   9.166
  888POPC   C1A16179  24.629   8.330   8.759
  888POPC   D2A16180  24.712   8.088   8.373
  888POPC   C3A16181  24.682   8.335   7.957
  888POPC   C4A16182  24.565   8.364   7.496
  888POPC   C1B16183  24.152   8.183   8.892
  888POPC   C2B16184  24.193   8.078   8.492
  888POPC   C3B16185  24.291   8.025   8.090
  888POPC   C4B16186  24.157   8.217   7.736
  889POPC   NC316187   8.644  19.101   9.305
  889POPC   PO416188   9.105  18.669   9.305
  889POPC   GL116189   9.132  19.115   9.064
  889POPC   GL216190   8.832  19.297   8.910
  889POPC   C1A16191   9.170  19.199   8.576
  889POPC   D2A16192   9.226  18.838   8.309
  889POPC   C3A16193   8.852  18.879   8.101
  889POPC   C4A16194   8.787  19.064   7.733
  889POPC   C1B16195   8.627  19.183   8.559
  889POPC   C2B16196   8.791  19.378   8.224
  889POPC   C3B16197   9.026  19.488   7.898
  889POPC   C4B16198   9.007  19.416   7.452
  890POPC   NC316199  37.175   3.702   9.477
  890POPC   PO416200  36.593   3.325   9.396
  890POPC   GL116201  36.826   3.623   9.134
  890POPC   GL216202  37.071   3.359   9.096
  890POPC   C1A16203  36.844   3.663   8.710
  890POPC   D2A16204  36.603   3.334   8.487
  890POPC   C3A16205  36.733   3.353   8.052
  890POPC   C4A16206  36.803   3.789   7.863
  890POPC   C1B16207  37.289   3.422   8.718
  890POPC   C2B16208  37.141   3.569   8.283
  890POPC   C3B16209  37.189   3.454   7.839
  890POPC   C4B16210  37.104   3.207   7.472
  891POPC   NC316211   5.228  42.602   9.519
  891POPC   PO416212   5.057  41.999   9.626
  891POPC   GL116213   4.979  42.183   9.240
  891POPC   GL216214   5.299  42.187   9.139
  891POPC   C1A16215   4.888  42.223   8.800
  891POPC   D2A16216   4.960  42.341   8.390
  891POPC   C3A16217   4.904  42.071   8.016
  891POPC   C4A16218   4.737  42.225   7.623
  891POPC   C1B16219   5.321  42.535   8.839
  891POPC   C2B16220   5.375  42.652   8.398
  891POPC   C3B16221   5.314  42.427   8.009
  891POPC   C4B16222   5.601  42.133   7.861
  892POPC   NC316223  23.088   9.858   9.628
  892POPC   PO416224  22.496   9.612   9.426
  892POPC   GL116225  22.836   9.670   9.143
  892POPC   GL216226  23.115   9.918   9.130
  892POPC   C1A16227  22.920   9.725   8.707
  892POPC   D2A16228  23.138   9.681   8.317
  892POPC   C3A16229  22.876   9.628   7.907
  892POPC   C4A16230  22.794   9.575   7.428
  892POPC   C1B16231  23.185  10.164   8.740
  892POPC   C2B16232  23.131  10.230   8.314
  892POPC   C3B16233  23.210  10.009   7.931
  892POPC   C4B16234  22.979  10.045   7.566
  893POPC   NC316235   6.902  18.718   9.329
  893POPC   PO416236   6.323  18.826   9.474
  893POPC   GL116237   6.476  19.037   9.125
  893POPC   GL216238   6.772  19.197   9.161
  893POPC   C1A16239   6.653  18.907   8.711
  893POPC   D2A16240   6.469  18.881   8.300
  893POPC   C3A16241   6.731  18.943   7.944
  893POPC   C4A16242   7.071  18.732   7.798
  893POPC   C1B16243   6.646  19.402   8.787
  893POPC   C2B16244   6.780  19.306   8.370
  893POPC   C3B16245   6.718  19.479   7.984
  893POPC   C4B16246   6.722  19.370   7.539
  894POPC   NC316247  16.357  42.638   9.273
  894POPC   PO416248  16.750  42.102   9.453
  894POPC   GL116249  16.783  42.223   9.037
  894POPC   GL216250  16.868  42.554   9.149
  894POPC   C1A16251  16.761  42.210   8.552
  894POPC   D2A16252  16.987  42.428   8.223
  894POPC   C3A16253  16.882  42.326   7.788
  894POPC   C4A16254  16.610  42.077   7.485
  894POPC   C1B16255  16.763  42.673   8.752
  894POPC   C2B16256  16.586  42.713   8.372
  894POPC   C3B16257  16.614  42.744   7.956
  894POPC   C4B16258  16.401  42.498   7.681
  895POPC   NC316259  41.832  12.452   9.511
  895POPC   PO416260  41.318  13.066   9.516
  895POPC   GL116261  41.506  12.839   9.163
  895POPC   GL216262  41.434  12.475   9.183
  895POPC   C1A16263  41.436  12.959   8.741
  895POPC   D2A16264  41.273  13.319   8.482
  895POPC   C3A16265  41.513  13.189   8.135
  895POPC   C4A16266  41.629  12.888   7.805
  895POPC   C1B16267  41.578  12.476   8.762
  895POPC   C2B16268  41.552  12.657   8.326
  895POPC   C3B16269  41.317  12.520   7.931
  895POPC   C4B16270  41.425  12.511   7.482
  896POPC   NC316271   0.405  30.052   9.668
  896POPC   PO416272   0.159  29.462   9.457
  896POPC   GL116273   0.424  29.816   9.205
  896POPC   GL216274   0.734  30.023   9.248
  896POPC   C1A16275   0.403  30.161   8.871
  896POPC   D2A16276   0.203  30.062   8.469
  896POPC   C3A16277   0.240  30.162   8.044
  896POPC   C4A16278   0.438  29.955   7.717
  896POPC   C1B16279   0.897  30.013   8.801
  896POPC   C2B16280   0.707  30.160   8.394
  896POPC   C3B16281   0.894  30.044   7.960
  896POPC   C4B16282   0.910  30.022   7.467
  897POPC   NC316283  34.642  34.081   9.249
  897POPC   PO416284  34.809  33.469   9.520
  897POPC   GL116285  34.550  33.550   9.176
  897POPC   GL216286  34.210  33.701   9.199
  897POPC   C1A16287  34.546  33.683   8.753
  897POPC   D2A16288  34.337  33.694   8.395
  897POPC   C3A16289  34.646  33.676   8.085
  897POPC   C4A16290  34.465  33.491   7.735
  897POPC   C1B16291  34.118  33.976   8.811
  897POPC   C2B16292  34.298  34.215   8.446
  897POPC   C3B16293  34.305  34.045   8.018
  897POPC   C4B16294  34.189  34.174   7.636
  898POPC   NC316295  33.015  15.446   9.536
  898POPC   PO416296  32.673  14.914   9.778
  898POPC   GL116297  33.119  14.979   9.382
  898POPC   GL216298  33.248  14.779   9.148
  898POPC   C1A16299  33.041  15.081   8.846
  898POPC   D2A16300  33.061  15.394   8.534
  898POPC   C3A16301  32.895  15.285   8.139
  898POPC   C4A16302  32.917  15.452   7.738
  898POPC   C1B16303  33.418  14.749   8.770
  898POPC   C2B16304  33.292  14.942   8.415
  898POPC   C3B16305  33.319  14.965   8.015
  898POPC   C4B16306  33.037  14.951   7.659
  899POPC   NC316307   7.738  31.080   9.469
  899POPC   PO416308   7.371  31.687   9.472
  899POPC   GL116309   7.557  31.656   9.093
  899POPC   GL216310   7.874  31.534   9.147
  899POPC   C1A16311   7.382  31.657   8.673
  899POPC   D2A16312   7.178  31.405   8.349
  899POPC   C3A16313   7.344  31.553   7.952
  899POPC   C4A16314   7.252  31.471   7.528
  899POPC   C1B16315   7.755  31.312   8.749
  899POPC   C2B16316   7.697  31.381   8.294
  899POPC   C3B16317   7.807  31.319   7.851
  899POPC   C4B16318   7.760  31.548   7.471
  900POPC   NC316319   9.822  16.382   9.567
  900POPC   PO416320   9.577  16.982   9.519
  900POPC   GL116321   9.790  16.832   9.176
  900POPC   GL216322   9.600  16.711   8.924
  900POPC   C1A16323   9.921  17.076   8.819
  900POPC   D2A16324   9.827  16.902   8.439
  900POPC   C3A16325  10.182  16.922   8.175
  900POPC   C4A16326  10.101  17.017   7.758
  900POPC   C1B16327   9.853  16.379   8.738
  900POPC   C2B16328  10.008  16.435   8.306
  900POPC   C3B16329   9.784  16.644   7.968
  900POPC   C4B16330   9.843  16.637   7.533
  901POPC   NC316331  34.482  17.625   9.686
  901POPC   PO416332  34.736  17.135   9.334
  901POPC   GL116333  34.492  17.471   9.162
  901POPC   GL216334  34.622  17.818   9.158
  901POPC   C1A16335  34.557  17.499   8.721
  901POPC   D2A16336  34.592  17.241   8.346
  901POPC   C3A16337  34.535  17.422   7.969
  901POPC   C4A16338  34.293  17.445   7.632
  901POPC   C1B16339  34.673  18.011   8.733
  901POPC   C2B16340  34.571  17.827   8.317
  901POPC   C3B16341  34.445  17.922   7.901
  901POPC   C4B16342  34.490  17.876   7.463
  902POPC   NC316343  12.600  21.472   9.379
  902POPC   PO416344  13.237  21.438   9.424
  902POPC   GL116345  12.963  21.189   9.106
  902POPC   GL216346  12.623  21.000   9.096
  902POPC   C1A16347  12.745  21.300   8.707
  902POPC   D2A16348  12.945  21.344   8.320
  902POPC   C3A16349  12.715  21.404   7.953
  902POPC   C4A16350  12.947  21.499   7.583
  902POPC   C1B16351  12.314  21.019   8.734
  902POPC   C2B16352  12.516  20.966   8.325
  902POPC   C3B16353  12.863  20.914   8.024
  902POPC   C4B16354  12.759  21.024   7.606
  903POPC   NC316355  41.937  31.510   9.421
  903POPC   PO416356  42.555  31.217   9.450
  903POPC   GL116357  42.697  31.358   9.087
  903POPC   GL216358  42.309  31.396   9.044
  903POPC   C1A16359  42.618  31.579   8.713
  903POPC   D2A16360  42.365  31.455   8.384
  903POPC   C3A16361  42.556  31.551   8.019
  903POPC   C4A16362  42.774  31.493   7.617
  903POPC   C1B16363  42.065  31.636   8.764
  903POPC   C2B16364  41.881  31.588   8.370
  903POPC   C3B16365  42.063  31.688   7.964
  903POPC   C4B16366  42.251  31.487   7.610
  904POPC   NC316367  34.802  23.955   9.485
  904POPC   PO416368  34.418  23.384   9.339
  904POPC   GL116369  34.609  23.609   9.067
  904POPC   GL216370  34.442  23.916   9.107
  904POPC   C1A16371  34.709  23.524   8.644
  904POPC   D2A16372  34.555  23.758   8.311
  904POPC   C3A16373  34.501  23.695   7.912
  904POPC   C4A16374  34.868  23.802   7.727
  904POPC   C1B16375  34.540  24.085   8.719
  904POPC   C2B16376  34.322  24.194   8.334
  904POPC   C3B16377  34.463  24.208   7.908
  904POPC   C4B16378  34.391  24.274   7.461
  905POPC   NC316379  21.113  29.445   9.449
  905POPC   PO416380  21.677  29.119   9.467
  905POPC   GL116381  21.505  29.023   9.114
  905POPC   GL216382  21.192  28.977   9.261
  905POPC   C1A16383  21.371  29.256   8.742
  905POPC   D2A16384  21.412  29.048   8.337
  905POPC   C3A16385  21.273  29.228   7.947
  905POPC   C4A16386  21.069  29.110   7.564
  905POPC   C1B16387  21.095  28.855   8.850
  905POPC   C2B16388  21.090  28.666   8.469
  905POPC   C3B16389  21.053  28.772   8.050
  905POPC   C4B16390  21.175  28.625   7.656
  906POPC   NC316391  14.667  36.771   9.559
  906POPC   PO416392  14.238  37.162   9.554
  906POPC   GL116393  14.357  36.958   9.155
  906POPC   GL216394  14.650  36.763   9.063
  906POPC   C1A16395  14.247  36.816   8.732
  906POPC   D2A16396  14.339  36.924   8.322
  906POPC   C3A16397  14.097  36.906   7.960
  906POPC   C4A16398  14.164  37.203   7.649
  906POPC   C1B16399  14.727  36.532   8.696
  906POPC   C2B16400  14.496  36.394   8.349
  906POPC   C3B16401  14.450  36.544   7.960
  906POPC   C4B16402  14.702  36.729   7.684
  907POPC   NC316403  37.816  20.892   9.632
  907POPC   PO416404  37.190  20.629   9.610
  907POPC   GL116405  37.462  20.517   9.248
  907POPC   GL216406  37.696  20.769   9.156
  907POPC   C1A16407  37.469  20.509   8.783
  907POPC   D2A16408  37.579  20.785   8.421
  907POPC   C3A16409  37.566  20.598   8.008
  907POPC   C4A16410  37.319  20.253   7.950
  907POPC   C1B16411  37.951  20.671   8.792
  907POPC   C2B16412  38.058  20.596   8.348
  907POPC   C3B16413  38.043  20.743   7.928
  907POPC   C4B16414  37.882  20.909   7.561
  908POPC   NC316415   3.004  23.700   9.436
  908POPC   PO416416   2.434  24.126   9.445
  908POPC   GL116417   2.524  23.872   9.065
  908POPC   GL216418   2.758  23.573   9.008
  908POPC   C1A16419   2.720  23.903   8.637
  908POPC   D2A16420   3.014  23.849   8.307
  908POPC   C3A16421   2.740  23.923   7.982
  908POPC   C4A16422   2.573  23.658   7.686
  908POPC   C1B16423   3.175  23.675   8.773
  908POPC   C2B16424   3.358  23.465   8.400
  908POPC   C3B16425   3.202  23.448   7.991
  908POPC   C4B16426   3.091  23.717   7.686
  909POPC   NC316427  35.227  44.883   9.282
  909POPC   PO416428  35.443  44.366   9.536
  909POPC   GL116429  35.401  44.437   9.084
  909POPC   GL216430  35.027  44.475   9.020
  909POPC   C1A16431  35.342  44.337   8.630
  909POPC   D2A16432  35.583  44.348   8.238
  909POPC   C3A16433  35.512  44.717   7.979
  909POPC   C4A16434  35.305   0.061   7.797
  909POPC   C1B16435  35.006  44.792   8.664
  909POPC   C2B16436  35.033  44.835   8.201
  909POPC   C3B16437  34.959  44.694   7.777
  909POPC   C4B16438  34.942  44.980   7.399
  910POPC   NC316439  36.383  27.241   9.574
  910POPC   PO416440  36.293  26.570   9.634
  910POPC   GL116441  36.199  26.583   9.194
  910POPC   GL216442  36.192  26.895   9.222
  910POPC   C1A16443  35.988  26.649   8.786
  910POPC   D2A16444  36.108  26.528   8.370
  910POPC   C3A16445  35.978  26.771   8.020
  910POPC   C4A16446  36.128  26.568   7.654
  910POPC   C1B16447  36.416  26.906   8.818
  910POPC   C2B16448  36.326  27.026   8.404
  910POPC   C3B16449  36.468  27.053   8.000
  910POPC   C4B16450  36.611  26.704   7.793
  911POPC   NC316451  22.394  23.440   9.485
  911POPC   PO416452  21.923  23.909   9.342
  911POPC   GL116453  22.075  23.940   8.972
  911POPC   GL216454  22.350  23.696   9.013
  911POPC   C1A16455  22.098  23.882   8.541
  911POPC   D2A16456  22.053  23.613   8.177
  911POPC   C3A16457  22.033  23.890   7.860
  911POPC   C4A16458  22.439  23.970   7.630
  911POPC   C1B16459  22.007  23.438   8.803
  911POPC   C2B16460  21.900  23.203   8.432
  911POPC   C3B16461  21.870  23.152   7.976
  911POPC   C4B16462  21.818  23.360   7.611
  912POPC   NC316463  31.850  40.961   9.645
  912POPC   PO416464  31.342  40.523   9.567
  912POPC   GL116465  31.504  40.690   9.198
  912POPC   GL216466  31.282  40.964   9.109
  912POPC   C1A16467  31.567  40.682   8.746
  912POPC   D2A16468  31.813  40.648   8.348
  912POPC   C3A16469  31.629  40.585   7.936
  912POPC   C4A16470  31.732  40.441   7.512
  912POPC   C1B16471  31.250  41.106   8.676
  912POPC   C2B16472  30.981  41.066   8.298
  912POPC   C3B16473  31.186  41.184   7.914
  912POPC   C4B16474  31.538  41.045   7.659
  913POPC   NC316475  32.651  43.389   9.394
  913POPC   PO416476  33.094  43.107   9.808
  913POPC   GL116477  33.042  43.055   9.319
  913POPC   GL216478  33.329  42.926   9.113
  913POPC   C1A16479  32.928  43.138   8.840
  913POPC   D2A16480  33.113  43.217   8.406
  913POPC   C3A16481  32.939  43.102   7.981
  913POPC   C4A16482  32.633  43.364   7.748
  913POPC   C1B16483  33.232  42.744   8.676
  913POPC   C2B16484  33.381  42.819   8.231
  913POPC   C3B16485  33.299  42.754   7.770
  913POPC   C4B16486  33.422  42.743   7.304
  914POPC   NC316487  43.433  39.685   9.371
  914POPC   PO416488  43.221  40.251   9.661
  914POPC   GL116489  43.217  40.093   9.206
  914POPC   GL216490  42.919  40.075   9.018
  914POPC   C1A16491  43.388  39.957   8.792
  914POPC   D2A16492  43.398  40.173   8.410
  914POPC   C3A16493  43.507  39.947   8.034
  914POPC   C4A16494  43.457  40.212   7.706
  914POPC   C1B16495  42.911  40.073   8.586
  914POPC   C2B16496  43.032  39.847   8.230
  914POPC   C3B16497  43.023  39.910   7.807
  914POPC   C4B16498  42.890  39.899   7.382
  915POPC   NC316499  22.851   5.423   9.471
  915POPC   PO416500  23.438   5.031   9.430
  915POPC   GL116501  23.121   5.136   9.160
  915POPC   GL216502  23.194   5.476   9.085
  915POPC   C1A16503  22.827   5.088   8.822
  915POPC   D2A16504  22.925   4.886   8.425
  915POPC   C3A16505  22.709   4.999   8.055
  915POPC   C4A16506  22.832   5.044   7.636
  915POPC   C1B16507  23.010   5.544   8.698
  915POPC   C2B16508  22.765   5.408   8.379
  915POPC   C3B16509  22.946   5.454   7.943
  915POPC   C4B16510  22.999   5.496   7.504
  916POPC   NC316511   2.247   5.621   9.621
  916POPC   PO416512   2.186   6.215   9.274
  916POPC   GL116513   2.172   5.827   9.104
  916POPC   GL216514   1.822   5.930   8.981
  916POPC   C1A16515   2.138   5.733   8.651
  916POPC   D2A16516   1.855   6.085   8.437
  916POPC   C3A16517   1.963   6.190   8.019
  916POPC   C4A16518   2.155   5.986   7.657
  916POPC   C1B16519   1.616   5.706   8.678
  916POPC   C2B16520   1.803   5.590   8.286
  916POPC   C3B16521   1.757   5.747   7.875
  916POPC   C4B16522   1.570   6.078   7.625
  917POPC   NC316523   8.862  16.388   9.441
  917POPC   PO416524   8.887  16.996   9.728
  917POPC   GL116525   9.139  16.807   9.304
  917POPC   GL216526   9.355  16.500   9.306
  917POPC   C1A16527   9.097  16.746   8.807
  917POPC   D2A16528   8.827  16.696   8.408
  917POPC   C3A16529   8.885  16.918   8.008
  917POPC   C4A16530   8.768  16.757   7.636
  917POPC   C1B16531   9.327  16.294   8.867
  917POPC   C2B16532   9.421  16.503   8.468
  917POPC   C3B16533   9.224  16.541   8.066
  917POPC   C4B16534   9.288  16.762   7.715
  918POPC   NC316535  40.620  37.902   9.605
  918POPC   PO416536  40.873  37.414   9.536
  918POPC   GL116537  40.676  37.629   9.158
  918POPC   GL216538  40.428  37.931   9.155
  918POPC   C1A16539  40.836  37.639   8.728
  918POPC   D2A16540  40.947  37.784   8.324
  918POPC   C3A16541  40.920  37.557   7.935
  918POPC   C4A16542  41.022  37.281   7.560
  918POPC   C1B16543  40.507  38.025   8.782
  918POPC   C2B16544  40.439  37.835   8.399
  918POPC   C3B16545  40.533  37.886   7.968
  918POPC   C4B16546  40.299  37.953   7.614
  919POPC   NC316547  13.241   2.458   9.528
  919POPC   PO416548  13.856   2.299   9.392
  919POPC   GL116549  13.712   2.452   9.017
  919POPC   GL216550  13.473   2.689   9.125
  919POPC   C1A16551  13.730   2.776   8.690
  919POPC   D2A16552  13.448   2.919   8.379
  919POPC   C3A16553  13.652   2.692   8.104
  919POPC   C4A16554  13.866   2.817   7.778
  919POPC   C1B16555  13.268   2.582   8.717
  919POPC   C2B16556  13.226   2.447   8.281
  919POPC   C3B16557  13.211   2.678   7.872
  919POPC   C4B16558  13.544   2.458   7.669
  920POPC   NC316559  26.678  10.190   9.508
  920POPC   PO416560  26.898   9.557   9.317
  920POPC   GL116561  26.937   9.793   9.005
  920POPC   GL216562  27.237   9.924   9.166
  920POPC   C1A16563  26.936   9.771   8.528
  920POPC   D2A16564  26.964   9.396   8.249
  920POPC   C3A16565  26.737   9.544   7.922
  920POPC   C4A16566  26.711  10.026   7.931
  920POPC   C1B16567  27.380   9.738   8.781
  920POPC   C2B16568  27.458   9.862   8.354
  920POPC   C3B16569  27.184   9.820   8.004
  920POPC   C4B16570  27.089   9.655   7.571
  921POPC   NC316571  33.335   2.480   9.497
  921POPC   PO416572  32.773   2.723   9.655
  921POPC   GL116573  32.884   2.548   9.237
  921POPC   GL216574  33.154   2.804   9.140
  921POPC   C1A16575  32.950   2.522   8.770
  921POPC   D2A16576  33.117   2.713   8.393
  921POPC   C3A16577  32.927   2.538   8.041
  921POPC   C4A16578  33.113   2.606   7.637
  921POPC   C1B16579  33.089   3.086   8.776
  921POPC   C2B16580  32.947   3.209   8.359
  921POPC   C3B16581  33.099   3.027   7.957
  921POPC   C4B16582  33.155   3.080   7.502
  922POPC   NC316583  35.705  39.536   9.720
  922POPC   PO416584  35.121  39.153   9.475
  922POPC   GL116585  35.326  39.192   9.086
  922POPC   GL216586  35.661  39.073   9.169
  922POPC   C1A16587  35.195  39.339   8.662
  922POPC   D2A16588  35.361  39.656   8.367
  922POPC   C3A16589  35.489  39.553   7.978
  922POPC   C4A16590  35.227  39.403   7.712
  922POPC   C1B16591  35.707  39.204   8.712
  922POPC   C2B16592  35.580  39.178   8.307
  922POPC   C3B16593  35.532  39.035   7.890
  922POPC   C4B16594  35.769  39.007   7.495
  923POPC   NC316595  21.020  13.696   9.357
  923POPC   PO416596  21.531  13.243   9.457
  923POPC   GL116597  21.328  13.401   9.092
  923POPC   GL216598  21.427  13.755   9.036
  923POPC   C1A16599  21.084  13.380   8.703
  923POPC   D2A16600  20.901  13.682   8.389
  923POPC   C3A16601  21.151  13.660   8.021
  923POPC   C4A16602  21.497  13.586   7.752
  923POPC   C1B16603  21.362  13.795   8.589
  923POPC   C2B16604  21.289  14.082   8.245
  923POPC   C3B16605  21.352  14.076   7.788
  923POPC   C4B16606  21.717  13.941   7.453
  924POPC   NC316607   4.521  15.059   9.511
  924POPC   PO416608   3.959  15.415   9.245
  924POPC   GL116609   4.324  15.195   9.062
  924POPC   GL216610   4.291  14.830   9.111
  924POPC   C1A16611   4.485  15.227   8.659
  924POPC   D2A16612   4.125  15.237   8.416
  924POPC   C3A16613   4.086  14.897   8.158
  924POPC   C4A16614   4.169  15.063   7.751
  924POPC   C1B16615   4.324  14.728   8.684
  924POPC   C2B16616   4.571  14.811   8.320
  924POPC   C3B16617   4.596  15.147   8.053
  924POPC   C4B16618   4.686  15.218   7.625
  925POPC   NC316619  18.149  35.577   9.359
  925POPC   PO416620  18.633  35.051   9.422
  925POPC   GL116621  18.451  35.226   9.112
  925POPC   GL216622  18.101  35.141   9.085
  925POPC   C1A16623  18.429  35.184   8.707
  925POPC   D2A16624  18.433  35.458   8.422
  925POPC   C3A16625  18.339  35.235   8.070
  925POPC   C4A16626  18.653  35.150   7.796
  925POPC   C1B16627  18.003  35.471   8.713
  925POPC   C2B16628  17.967  35.636   8.287
  925POPC   C3B16629  18.288  35.768   8.022
  925POPC   C4B16630  18.393  35.557   7.655
  926POPC   NC316631  33.314  25.400   9.764
  926POPC   PO416632  32.744  25.258   9.550
  926POPC   GL116633  32.920  25.349   9.152
  926POPC   GL216634  33.045  25.031   9.099
  926POPC   C1A16635  33.085  25.390   8.739
  926POPC   D2A16636  32.913  25.293   8.340
  926POPC   C3A16637  33.141  25.568   8.061
  926POPC   C4A16638  33.139  25.477   7.628
  926POPC   C1B16639  32.766  24.940   8.730
  926POPC   C2B16640  32.828  24.788   8.281
  926POPC   C3B16641  32.996  25.027   7.897
  926POPC   C4B16642  33.320  24.978   7.552
  927POPC   NC316643   6.791  11.873   9.552
  927POPC   PO416644   6.200  12.044   9.519
  927POPC   GL116645   6.479  12.111   9.170
  927POPC   GL216646   6.827  12.234   9.159
  927POPC   C1A16647   6.581  11.949   8.766
  927POPC   D2A16648   6.715  12.129   8.376
  927POPC   C3A16649   6.771  11.954   7.971
  927POPC   C4A16650   6.646  12.177   7.588
  927POPC   C1B16651   6.729  12.480   8.772
  927POPC   C2B16652   6.939  12.584   8.392
  927POPC   C3B16653   6.770  12.471   7.998
  927POPC   C4B16654   6.670  12.711   7.665
  928POPC   NC316655  34.875  16.079   9.516
  928POPC   PO416656  34.272  16.080   9.355
  928POPC   GL116657  34.638  16.023   9.062
  928POPC   GL216658  34.760  15.678   9.181
  928POPC   C1A16659  34.643  15.993   8.598
  928POPC   D2A16660  34.493  16.232   8.224
  928POPC   C3A16661  34.648  16.430   7.867
  928POPC   C4A16662  34.494  16.328   7.450
  928POPC   C1B16663  34.373  15.623   8.875
  928POPC   C2B16664  34.404  15.557   8.434
  928POPC   C3B16665  34.395  15.759   8.056
  928POPC   C4B16666  34.659  15.922   7.741
  929POPC   NC316667  41.070   8.511   9.463
  929POPC   PO416668  41.455   7.985   9.413
  929POPC   GL116669  41.677   8.086   9.070
  929POPC   GL216670  41.499   8.435   9.084
  929POPC   C1A16671  41.656   8.101   8.656
  929POPC   D2A16672  41.366   8.125   8.334
  929POPC   C3A16673  41.625   8.256   8.034
  929POPC   C4A16674  41.619   8.038   7.678
  929POPC   C1B16675  41.842   8.545   8.814
  929POPC   C2B16676  42.013   8.574   8.398
  929POPC   C3B16677  41.916   8.674   7.976
  929POPC   C4B16678  41.914   8.436   7.623
  930POPC   NC316679  18.830   0.449   9.639
  930POPC   PO416680  19.403   0.107   9.476
  930POPC   GL116681  19.181   0.469   9.226
  930POPC   GL216682  18.852   0.658   9.182
  930POPC   C1A16683  19.115   0.478   8.773
  930POPC   D2A16684  19.014   0.117   8.499
  930POPC   C3A16685  18.837   0.178   8.083
  930POPC   C4A16686  18.801   0.398   7.703
  930POPC   C1B16687  18.654   0.750   8.793
  930POPC   C2B16688  18.740   0.570   8.421
  930POPC   C3B16689  18.780   0.734   8.067
  930POPC   C4B16690  18.718   0.909   7.694
  931POPC   NC316691  37.069  39.801   9.556
  931POPC   PO416692  36.728  40.283   9.434
  931POPC   GL116693  36.952  40.228   9.083
  931POPC   GL216694  37.069  39.893   9.067
  931POPC   C1A16695  36.703  40.169   8.722
  931POPC   D2A16696  36.577  39.949   8.374
  931POPC   C3A16697  36.608  40.153   7.982
  931POPC   C4A16698  36.708  39.956   7.600
  931POPC   C1B16699  37.154  39.947   8.653
  931POPC   C2B16700  37.056  40.034   8.246
  931POPC   C3B16701  37.161  40.031   7.828
  931POPC   C4B16702  37.218  40.121   7.368
  932POPC   NC316703   0.113  30.694   9.607
  932POPC   PO416704   0.659  30.450   9.557
  932POPC   GL116705   0.473  30.615   9.173
  932POPC   GL216706   0.136  30.780   9.114
  932POPC   C1A16707   0.437  30.693   8.727
  932POPC   D2A16708   0.355  30.582   8.322
  932POPC   C3A16709   0.533  30.787   7.955
  932POPC   C4A16710   0.429  30.475   7.691
  932POPC   C1B16711  44.936  30.781   8.705
  932POPC   C2B16712  44.928  30.939   8.298
  932POPC   C3B16713   0.032  30.727   7.915
  932POPC   C4B16714   0.078  30.806   7.467
  933POPC   NC316715  36.016  32.745   9.406
  933POPC   PO416716  36.395  33.259   9.540
  933POPC   GL116717  36.290  33.076   9.146
  933POPC   GL216718  35.993  33.230   9.171
  933POPC   C1A16719  36.155  32.919   8.725
  933POPC   D2A16720  36.422  32.746   8.364
  933POPC   C3A16721  36.283  32.886   7.954
  933POPC   C4A16722  36.394  33.204   7.656
  933POPC   C1B16723  35.773  33.297   8.823
  933POPC   C2B16724  35.940  33.330   8.428
  933POPC   C3B16725  35.832  33.175   8.049
  933POPC   C4B16726  35.900  33.421   7.701
  934POPC   NC316727   6.795  14.743   9.463
  934POPC   PO416728   6.654  15.421   9.583
  934POPC   GL116729   6.627  15.204   9.191
  934POPC   GL216730   6.375  15.417   9.038
  934POPC   C1A16731   6.696  15.127   8.749
  934POPC   D2A16732   6.790  15.338   8.378
  934POPC   C3A16733   6.890  15.116   7.991
  934POPC   C4A16734   6.812  15.283   7.560
  934POPC   C1B16735   6.190  15.089   8.765
  934POPC   C2B16736   6.372  14.988   8.344
  934POPC   C3B16737   6.398  15.154   7.914
  934POPC   C4B16738   6.324  15.338   7.474
  935POPC   NC316739   4.304  11.699   9.368
  935POPC   PO416740   4.067  11.120   9.737
  935POPC   GL116741   4.232  11.041   9.275
  935POPC   GL216742   4.515  11.258   9.187
  935POPC   C1A16743   4.214  11.121   8.793
  935POPC   D2A16744   4.462  11.268   8.433
  935POPC   C3A16745   4.259  11.189   8.032
  935POPC   C4A16746   3.821  11.085   8.020
  935POPC   C1B16747   4.607  11.574   8.831
  935POPC   C2B16748   4.792  11.661   8.427
  935POPC   C3B16749   4.876  11.491   8.023
  935POPC   C4B16750   4.638  11.333   7.674
  936POPC   NC316751  34.100  29.513   9.516
  936POPC   PO416752  34.680  29.044   9.557
  936POPC   GL116753  34.556  29.312   9.214
  936POPC   GL216754  34.288  29.105   9.197
  936POPC   C1A16755  34.469  29.329   8.761
  936POPC   D2A16756  34.600  29.335   8.344
  936POPC   C3A16757  34.363  29.327   7.981
  936POPC   C4A16758  34.290  29.326   7.556
  936POPC   C1B16759  34.301  28.840   8.821
  936POPC   C2B16760  34.235  28.970   8.371
  936POPC   C3B16761  34.317  28.799   7.958
  936POPC   C4B16762  34.305  28.488   7.611
  937POPC   NC316763  35.567  24.817   9.440
  937POPC   PO416764  35.111  24.340   9.486
  937POPC   GL116765  35.353  24.340   9.127
  937POPC   GL216766  35.245  24.665   9.067
  937POPC   C1A16767  35.231  24.323   8.701
  937POPC   D2A16768  35.272  24.565   8.319
  937POPC   C3A16769  35.506  24.365   8.001
  937POPC   C4A16770  35.557  24.434   7.569
  937POPC   C1B16771  35.260  24.910   8.723
  937POPC   C2B16772  35.481  25.052   8.383
  937POPC   C3B16773  35.508  24.881   7.969
  937POPC   C4B16774  35.611  24.931   7.565
  938POPC   NC316775  33.422   3.318   9.601
  938POPC   PO416776  33.754   3.869   9.556
  938POPC   GL116777  33.878   3.546   9.256
  938POPC   GL216778  33.645   3.267   9.151
  938POPC   C1A16779  33.882   3.564   8.802
  938POPC   D2A16780  33.653   3.848   8.509
  938POPC   C3A16781  33.681   3.692   8.093
  938POPC   C4A16782  33.835   3.614   7.671
  938POPC   C1B16783  33.612   3.134   8.712
  938POPC   C2B16784  33.466   3.220   8.290
  938POPC   C3B16785  33.529   3.259   7.815
  938POPC   C4B16786  33.608   3.232   7.338
  939POPC   NC316787  25.547   8.787   9.742
  939POPC   PO416788  26.170   8.985   9.515
  939POPC   GL116789  26.286   8.893   9.128
  939POPC   GL216790  25.945   8.921   9.034
  939POPC   C1A16791  26.336   9.001   8.701
  939POPC   D2A16792  25.947   8.875   8.491
  939POPC   C3A16793  25.957   8.726   8.101
  939POPC   C4A16794  26.077   8.905   7.676
  939POPC   C1B16795  25.906   9.298   8.771
  939POPC   C2B16796  25.621   9.326   8.455
  939POPC   C3B16797  25.847   9.217   8.111
  939POPC   C4B16798  25.814   9.383   7.756
  940POPC   NC316799  23.187   2.614   9.612
  940POPC   PO416800  22.913   2.105   9.611
  940POPC   GL116801  22.824   2.186   9.160
  940POPC   GL216802  23.102   2.420   9.127
  940POPC   C1A16803  22.651   2.091   8.701
  940POPC   D2A16804  22.572   2.083   8.210
  940POPC   C3A16805  22.861   1.790   7.921
  940POPC   C4A16806  22.972   1.652   7.477
  940POPC   C1B16807  23.141   2.294   8.698
  940POPC   C2B16808  23.077   2.142   8.264
  940POPC   C3B16809  22.980   2.286   7.839
  940POPC   C4B16810  23.067   2.140   7.390
  941POPC   NC316811  31.527  12.316   9.548
  941POPC   PO416812  31.659  11.666   9.435
  941POPC   GL116813  31.365  11.974   9.150
  941POPC   GL216814  31.366  12.342   9.072
  941POPC   C1A16815  31.222  12.072   8.691
  941POPC   D2A16816  31.311  12.396   8.350
  941POPC   C3A16817  31.304  12.141   7.965
  941POPC   C4A16818  31.084  11.788   7.741
  941POPC   C1B16819  31.687  12.322   8.735
  941POPC   C2B16820  31.815  12.390   8.286
  941POPC   C3B16821  31.646  12.521   7.870
  941POPC   C4B16822  31.229  12.539   7.650
  942POPC   NC316823  43.749  21.279   9.510
  942POPC   PO416824  44.256  21.606   9.726
  942POPC   GL116825  44.186  21.441   9.305
  942POPC   GL216826  44.191  21.086   9.287
  942POPC   C1A16827  43.935  21.602   8.915
  942POPC   D2A16828  43.793  21.445   8.490
  942POPC   C3A16829  43.807  21.595   8.041
  942POPC   C4A16830  43.766  21.709   7.579
  942POPC   C1B16831  43.993  21.104   8.892
  942POPC   C2B16832  44.039  20.978   8.466
  942POPC   C3B16833  43.918  21.110   8.080
  942POPC   C4B16834  44.109  21.313   7.732
  943POPC   NC316835  12.994   1.662   9.470
  943POPC   PO416836  12.858   2.246   9.367
  943POPC   GL116837  12.851   1.909   9.047
  943POPC   GL216838  13.175   1.692   9.006
  943POPC   C1A16839  12.774   1.881   8.621
  943POPC   D2A16840  12.922   2.047   8.265
  943POPC   C3A16841  12.775   1.916   7.874
  943POPC   C4A16842  12.697   2.036   7.426
  943POPC   C1B16843  13.116   1.501   8.671
  943POPC   C2B16844  12.969   1.547   8.291
  943POPC   C3B16845  13.100   1.512   7.915
  943POPC   C4B16846  13.149   1.713   7.559
  944POPC   NC316847   5.271  18.872   9.638
  944POPC   PO416848   4.827  19.358   9.422
  944POPC   GL116849   5.181  19.207   9.245
  944POPC   GL216850   5.407  19.406   9.056
  944POPC   C1A16851   5.177  18.877   8.960
  944POPC   D2A16852   5.110  18.846   8.527
  944POPC   C3A16853   5.352  19.063   8.227
  944POPC   C4A16854   5.404  19.047   7.770
  944POPC   C1B16855   5.065  19.337   8.752
  944POPC   C2B16856   4.867  19.258   8.345
  944POPC   C3B16857   5.044  19.384   7.952
  944POPC   C4B16858   5.437  19.605   7.838
  945POPC   NC316859  43.557  31.684   9.489
  945POPC   PO416860  44.125  31.479   9.724
  945POPC   GL116861  44.079  31.496   9.248
  945POPC   GL216862  43.791  31.508   9.093
  945POPC   C1A16863  44.172  31.392   8.798
  945POPC   D2A16864  43.904  31.445   8.436
  945POPC   C3A16865  44.046  31.560   8.040
  945POPC   C4A16866  43.868  31.422   7.662
  945POPC   C1B16867  43.531  31.587   8.770
  945POPC   C2B16868  43.450  31.719   8.387
  945POPC   C3B16869  43.526  31.564   8.008
  945POPC   C4B16870  43.475  31.799   7.628
  946POPC   NC316871  14.070  23.421   9.511
  946POPC   PO416872  13.577  23.758   9.711
  946POPC   GL116873  13.563  23.713   9.221
  946POPC   GL216874  13.822  23.549   9.077
  946POPC   C1A16875  13.568  23.931   8.789
  946POPC   D2A16876  13.441  23.815   8.356
  946POPC   C3A16877  13.659  23.817   7.926
  946POPC   C4A16878  13.523  24.057   7.548
  946POPC   C1B16879  13.669  23.454   8.653
  946POPC   C2B16880  13.751  23.407   8.220
  946POPC   C3B16881  13.690  23.315   7.775
  946POPC   C4B16882  13.628  23.150   7.357
  947POPC   NC316883  25.220  35.732   9.755
  947POPC   PO416884  25.459  35.158   9.429
  947POPC   GL116885  25.291  35.466   9.145
  947POPC   GL216886  25.041  35.221   9.079
  947POPC   C1A16887  25.203  35.618   8.690
  947POPC   D2A16888  25.273  35.375   8.275
  947POPC   C3A16889  25.260  35.578   7.865
  947POPC   C4A16890  25.350  35.643   7.395
  947POPC   C1B16891  25.161  35.123   8.712
  947POPC   C2B16892  24.939  35.008   8.341
  947POPC   C3B16893  24.975  35.124   7.914
  947POPC   C4B16894  25.359  35.114   7.683
  948POPC   NC316895   5.262  36.962   9.641
  948POPC   PO416896   4.694  37.056   9.301
  948POPC   GL116897   5.002  36.820   9.107
  948POPC   GL216898   5.322  36.643   9.221
  948POPC   C1A16899   5.067  36.936   8.692
  948POPC   D2A16900   5.231  37.120   8.348
  948POPC   C3A16901   5.014  37.031   7.983
  948POPC   C4A16902   4.643  37.181   7.765
  948POPC   C1B16903   5.392  36.558   8.755
  948POPC   C2B16904   5.267  36.614   8.273
  948POPC   C3B16905   5.376  36.699   7.813
  948POPC   C4B16906   5.519  36.669   7.341
  949POPC   NC316907  35.042   5.320   9.103
  949POPC   PO416908  35.285   4.835   9.440
  949POPC   GL116909  35.458   5.004   9.052
  949POPC   GL216910  35.549   5.352   9.003
  949POPC   C1A16911  35.544   4.806   8.676
  949POPC   D2A16912  35.731   4.947   8.284
  949POPC   C3A16913  35.480   4.927   7.956
  949POPC   C4A16914  35.621   4.688   7.661
  949POPC   C1B16915  35.554   5.309   8.594
  949POPC   C2B16916  35.515   5.449   8.188
  949POPC   C3B16917  35.410   5.403   7.765
  949POPC   C4B16918  35.041   5.429   7.489
  950POPC   NC316919   6.234  13.248   9.705
  950POPC   PO416920   6.533  12.691   9.359
  950POPC   GL116921   6.601  12.947   9.029
  950POPC   GL216922   6.949  12.913   9.001
  950POPC   C1A16923   6.650  12.994   8.580
  950POPC   D2A16924   6.691  12.959   8.132
  950POPC   C3A16925   6.428  13.161   7.843
  950POPC   C4A16926   6.201  13.085   7.478
  950POPC   C1B16927   7.183  12.958   8.640
  950POPC   C2B16928   7.204  13.011   8.183
  950POPC   C3B16929   7.036  13.151   7.771
  950POPC   C4B16930   7.226  13.203   7.319
  951POPC   NC316931  30.304  44.634   9.564
  951POPC   PO416932  30.966  44.603   9.705
  951POPC   GL116933  30.769  44.757   9.288
  951POPC   GL216934  30.770  44.440   9.213
  951POPC   C1A16935  30.712  44.689   8.781
  951POPC   D2A16936  30.547  44.592   8.327
  951POPC   C3A16937  30.792  44.726   7.942
  951POPC   C4A16938  30.773  44.713   7.461
  951POPC   C1B16939  31.009  44.283   8.891
  951POPC   C2B16940  30.890  44.248   8.492
  951POPC   C3B16941  30.844  44.193   8.097
  951POPC   C4B16942  30.926  44.306   7.702
  952POPC   NC316943  17.823  10.327   9.582
  952POPC   PO416944  17.456  10.822   9.416
  952POPC   GL116945  17.594  10.819   9.027
  952POPC   GL216946  17.905  10.799   9.078
  952POPC   C1A16947  17.488  10.648   8.621
  952POPC   D2A16948  17.307  10.765   8.224
  952POPC   C3A16949  17.281  10.422   7.922
  952POPC   C4A16950  17.465  10.132   7.636
  952POPC   C1B16951  17.898  10.404   8.835
  952POPC   C2B16952  17.891  10.240   8.394
  952POPC   C3B16953  17.787  10.428   7.975
  952POPC   C4B16954  17.940  10.314   7.557
  953POPC   NC316955  24.482  39.218   9.531
  953POPC   PO416956  25.062  38.808   9.508
  953POPC   GL116957  24.785  38.979   9.172
  953POPC   GL216958  24.436  39.117   9.051
  953POPC   C1A16959  24.853  39.116   8.770
  953POPC   D2A16960  24.574  39.195   8.436
  953POPC   C3A16961  24.610  38.961   8.050
  953POPC   C4A16962  24.689  39.192   7.682
  953POPC   C1B16963  24.163  39.398   8.834
  953POPC   C2B16964  24.218  39.583   8.439
  953POPC   C3B16965  24.186  39.300   8.086
  953POPC   C4B16966  24.236  39.470   7.692
  954POPC   NC316967  10.987  29.901   9.358
  954POPC   PO416968  11.412  29.476   9.673
  954POPC   GL116969  11.441  29.724   9.197
  954POPC   GL216970  11.141  29.649   8.963
  954POPC   C1A16971  11.435  30.001   8.785
  954POPC   D2A16972  11.353  30.034   8.340
  954POPC   C3A16973  11.519  29.775   8.031
  954POPC   C4A16974  11.651  30.038   7.726
  954POPC   C1B16975  10.915  29.954   8.720
  954POPC   C2B16976  10.917  30.255   8.423
  954POPC   C3B16977  10.895  30.240   8.004
  954POPC   C4B16978  11.127  30.011   7.723
  955POPC   NC316979  17.372  13.998   9.392
  955POPC   PO416980  17.601  13.327   9.405
  955POPC   GL116981  17.374  13.550   9.107
  955POPC   GL216982  17.603  13.772   9.007
  955POPC   C1A16983  17.246  13.662   8.681
  955POPC   D2A16984  17.474  13.445   8.380
  955POPC   C3A16985  17.628  13.736   8.131
  955POPC   C4A16986  17.359  13.957   7.827
  955POPC   C1B16987  17.875  13.481   8.756
  955POPC   C2B16988  18.063  13.481   8.329
  955POPC   C3B16989  17.926  13.384   7.904
  955POPC   C4B16990  17.510  13.402   7.773
  956POPC   NC316991   6.204  15.247   9.485
  956POPC   PO416992   5.637  14.932   9.642
  956POPC   GL116993   5.844  14.966   9.215
  956POPC   GL216994   5.856  15.305   9.118
  956POPC   C1A16995   5.626  14.937   8.808
  956POPC   D2A16996   5.567  15.002   8.369
  956POPC   C3A16997   5.921  15.204   8.172
  956POPC   C4A16998   5.946  15.109   7.721
  956POPC   C1B16999   5.796  15.440   8.716
  956POPC   C2B17000   5.544  15.499   8.382
  956POPC   C3B17001   5.731  15.678   8.075
  956POPC   C4B17002   6.102  15.594   7.860
  957POPC   NC317003  28.127  37.406   9.781
  957POPC   PO417004  28.729  37.579   9.607
  957POPC   GL117005  28.487  37.623   9.227
  957POPC   GL217006  28.132  37.602   9.257
  957POPC   C1A17007  28.452  37.894   8.840
  957POPC   D2A17008  28.695  37.898   8.476
  957POPC   C3A17009  28.664  37.664   8.121
  957POPC   C4A17010  28.588  37.817   7.730
  957POPC   C1B17011  28.014  37.663   8.803
  957POPC   C2B17012  28.194  37.691   8.364
  957POPC   C3B17013  28.131  37.606   7.890
  957POPC   C4B17014  28.295  37.480   7.440
  958POPC   NC317015  30.083   6.820   9.502
  958POPC   PO417016  29.608   6.433   9.559
  958POPC   GL117017  29.702   6.718   9.192
  958POPC   GL217018  30.023   6.613   9.041
  958POPC   C1A17019  29.767   6.966   8.791
  958POPC   D2A17020  30.044   6.879   8.397
  958POPC   C3A17021  29.870   6.999   7.975
  958POPC   C4A17022  29.862   6.919   7.513
  958POPC   C1B17023  29.934   6.442   8.651
  958POPC   C2B17024  29.914   6.349   8.211
  958POPC   C3B17025  29.927   6.514   7.822
  958POPC   C4B17026  30.278   6.463   7.580
  959POPC   NC317027  35.142  41.437   9.608
  959POPC   PO417028  35.473  42.041   9.547
  959POPC   GL117029  35.377  41.820   9.170
  959POPC   GL217030  35.365  41.456   9.145
  959POPC   C1A17031  35.376  41.770   8.736
  959POPC   D2A17032  35.191  41.755   8.319
  959POPC   C3A17033  35.502  41.693   7.964
  959POPC   C4A17034  35.512  41.848   7.511
  959POPC   C1B17035  35.257  41.281   8.735
  959POPC   C2B17036  35.428  41.301   8.339
  959POPC   C3B17037  35.393  41.045   7.986
  959POPC   C4B17038  35.408  41.062   7.559
  960POPC   NC317039  11.218  39.326   9.442
  960POPC   PO417040  11.356  38.690   9.532
  960POPC   GL117041  11.213  38.912   9.141
  960POPC   GL217042  11.512  39.121   9.074
  960POPC   C1A17043  11.173  39.072   8.690
  960POPC   D2A17044  11.335  39.032   8.266
  960POPC   C3A17045  11.017  39.188   7.992
  960POPC   C4A17046  11.045  39.237   7.567
  960POPC   C1B17047  11.695  39.110   8.655
  960POPC   C2B17048  11.706  39.394   8.279
  960POPC   C3B17049  11.496  39.329   7.848
  960POPC   C4B17050  11.495  39.317   7.375
  961POPC   NC317051  24.810  35.592   9.323
  961POPC   PO417052  24.079  35.558   9.395
  961POPC   GL117053  24.415  35.366   9.098
  961POPC   GL217054  24.211  35.413   8.860
  961POPC   C1A17055  24.666  35.235   8.737
  961POPC   D2A17056  24.594  35.386   8.329
  961POPC   C3A17057  24.460  35.125   7.952
  961POPC   C4A17058  24.452  35.216   7.501
  961POPC   C1B17059  24.212  35.816   8.617
  961POPC   C2B17060  24.089  35.812   8.198
  961POPC   C3B17061  24.178  35.562   7.859
  961POPC   C4B17062  24.002  35.424   7.491
  962POPC   NC317063   7.713  26.996   9.456
  962POPC   PO417064   8.284  26.853   9.755
  962POPC   GL117065   8.181  26.681   9.308
  962POPC   GL217066   7.912  26.423   9.265
  962POPC   C1A17067   8.247  26.610   8.862
  962POPC   D2A17068   8.021  26.826   8.544
  962POPC   C3A17069   8.174  26.868   8.122
  962POPC   C4A17070   8.328  27.103   7.774
  962POPC   C1B17071   7.705  26.539   8.868
  962POPC   C2B17072   7.678  26.470   8.407
  962POPC   C3B17073   7.750  26.599   8.012
  962POPC   C4B17074   7.837  26.942   7.711
  963POPC   NC317075  11.091  12.657   9.637
  963POPC   PO417076  11.216  13.352   9.518
  963POPC   GL117077  11.220  13.126   9.165
  963POPC   GL217078  11.328  13.338   8.923
  963POPC   C1A17079  11.231  12.758   8.898
  963POPC   D2A17080  11.226  12.565   8.471
  963POPC   C3A17081  11.274  12.798   8.090
  963POPC   C4A17082  11.385  12.559   7.755
  963POPC   C1B17083  11.264  13.119   8.517
  963POPC   C2B17084  11.590  13.163   8.198
  963POPC   C3B17085  11.723  12.957   7.814
  963POPC   C4B17086  11.446  12.964   7.435
  964POPC   NC317087  37.290  34.386   9.530
  964POPC   PO417088  36.732  34.754   9.769
  964POPC   GL117089  36.648  34.810   9.310
  964POPC   GL217090  36.621  34.446   9.185
  964POPC   C1A17091  36.866  34.851   8.902
  964POPC   D2A17092  37.098  34.653   8.591
  964POPC   C3A17093  37.060  34.805   8.177
  964POPC   C4A17094  37.059  34.768   7.747
  964POPC   C1B17095  36.621  34.442   8.729
  964POPC   C2B17096  36.742  34.425   8.299
  964POPC   C3B17097  36.600  34.576   7.904
  964POPC   C4B17098  36.634  34.645   7.455
  965POPC   NC317099  20.362  27.400   9.706
  965POPC   PO417100  20.855  27.805   9.526
  965POPC   GL117101  20.594  27.755   9.165
  965POPC   GL217102  20.250  27.624   9.247
  965POPC   C1A17103  20.735  27.705   8.712
  965POPC   D2A17104  20.713  27.291   8.437
  965POPC   C3A17105  20.713  27.410   7.979
  965POPC   C4A17106  21.010  27.727   7.775
  965POPC   C1B17107  20.359  27.401   8.850
  965POPC   C2B17108  20.312  27.601   8.439
  965POPC   C3B17109  20.229  27.740   8.046
  965POPC   C4B17110  20.324  27.562   7.637
  966POPC   NC317111  10.712  26.620   9.488
  966POPC   PO417112  10.221  27.093   9.551
  966POPC   GL117113  10.426  26.920   9.219
  966POPC   GL217114  10.764  27.045   9.185
  966POPC   C1A17115  10.303  26.728   8.859
  966POPC   D2A17116  10.495  26.751   8.478
  966POPC   C3A17117  10.267  26.749   8.115
  966POPC   C4A17118  10.529  26.788   7.769
  966POPC   C1B17119  10.901  26.869   8.774
  966POPC   C2B17120  11.032  26.790   8.331
  966POPC   C3B17121  10.975  27.008   7.919
  966POPC   C4B17122  10.944  26.852   7.463
  967POPC   NC317123   2.954  36.861   9.405
  967POPC   PO417124   2.579  37.392   9.676
  967POPC   GL117125   2.543  37.134   9.287
  967POPC   GL217126   2.464  36.770   9.200
  967POPC   C1A17127   2.779  37.203   8.877
  967POPC   D2A17128   3.029  36.906   8.613
  967POPC   C3A17129   3.013  36.984   8.180
  967POPC   C4A17130   3.090  36.689   7.845
  967POPC   C1B17131   2.372  36.932   8.823
  967POPC   C2B17132   2.533  36.954   8.453
  967POPC   C3B17133   2.603  36.707   8.112
  967POPC   C4B17134   2.519  36.873   7.738
  968POPC   NC317135  25.680  12.731   9.319
  968POPC   PO417136  25.026  12.852   9.461
  968POPC   GL117137  25.238  12.914   9.070
  968POPC   GL217138  25.485  13.149   9.046
  968POPC   C1A17139  25.448  12.703   8.725
  968POPC   D2A17140  25.625  12.652   8.339
  968POPC   C3A17141  25.382  12.814   8.058
  968POPC   C4A17142  25.247  12.650   7.715
  968POPC   C1B17143  25.727  13.130   8.745
  968POPC   C2B17144  25.516  13.151   8.408
  968POPC   C3B17145  25.476  13.352   8.034
  968POPC   C4B17146  25.326  13.141   7.674
  969POPC   NC317147   8.573  39.244   9.488
  969POPC   PO417148   9.085  38.809   9.578
  969POPC   GL117149   8.993  39.098   9.255
  969POPC   GL217150   8.745  38.894   9.147
  969POPC   C1A17151   9.018  39.337   8.878
  969POPC   D2A17152   9.195  39.256   8.460
  969POPC   C3A17153   8.976  39.505   8.150
  969POPC   C4A17154   9.005  39.460   7.739
  969POPC   C1B17155   8.543  39.122   8.812
  969POPC   C2B17156   8.670  39.166   8.387
  969POPC   C3B17157   8.456  39.044   7.997
  969POPC   C4B17158   8.566  39.124   7.572
  970POPC   NC317159  22.997  24.882   9.386
  970POPC   PO417160  23.238  25.444   9.382
  970POPC   GL117161  22.966  25.314   9.113
  970POPC   GL217162  23.194  25.063   8.965
  970POPC   C1A17163  22.729  25.220   8.758
  970POPC   D2A17164  22.602  25.190   8.343
  970POPC   C3A17165  22.936  25.098   8.054
  970POPC   C4A17166  22.867  25.246   7.650
  970POPC   C1B17167  23.265  25.448   8.740
  970POPC   C2B17168  23.058  25.545   8.380
  970POPC   C3B17169  23.215  25.680   8.015
  970POPC   C4B17170  23.346  25.344   7.764
  971POPC   NC317171  37.840   9.107   9.516
  971POPC   PO417172  38.032   8.563   9.293
  971POPC   GL117173  37.823   8.723   9.004
  971POPC   GL217174  37.520   8.880   9.173
  971POPC   C1A17175  37.879   8.705   8.557
  971POPC   D2A17176  37.733   9.043   8.302
  971POPC   C3A17177  37.923   9.149   7.944
  971POPC   C4A17178  37.643   9.375   7.639
  971POPC   C1B17179  37.438   8.903   8.717
  971POPC   C2B17180  37.422   8.632   8.342
  971POPC   C3B17181  37.414   8.774   7.952
  971POPC   C4B17182  37.248   9.001   7.579
  972POPC   NC317183   5.182  11.581   9.618
  972POPC   PO417184   4.800  11.079   9.629
  972POPC   GL117185   4.999  11.097   9.181
  972POPC   GL217186   5.014  11.441   9.160
  972POPC   C1A17187   4.926  11.198   8.721
  972POPC   D2A17188   4.910  11.082   8.317
  972POPC   C3A17189   5.253  11.088   8.105
  972POPC   C4A17190   5.203  11.210   7.727
  972POPC   C1B17191   5.157  11.643   8.792
  972POPC   C2B17192   5.305  11.542   8.349
  972POPC   C3B17193   5.347  11.692   7.888
  972POPC   C4B17194   5.303  11.601   7.422
  973POPC   NC317195  10.632  29.545   9.728
  973POPC   PO417196  10.354  30.164   9.602
  973POPC   GL117197  10.481  30.024   9.207
  973POPC   GL217198  10.319  30.327   9.129
  973POPC   C1A17199  10.339  29.818   8.804
  973POPC   D2A17200  10.238  29.509   8.467
  973POPC   C3A17201  10.282  29.714   8.046
  973POPC   C4A17202  10.595  29.885   7.764
  973POPC   C1B17203  10.535  30.295   8.768
  973POPC   C2B17204  10.446  30.106   8.382
  973POPC   C3B17205  10.399  30.345   8.040
  973POPC   C4B17206  10.475  30.359   7.623
  974POPC   NC317207   5.332  38.826   9.494
  974POPC   PO417208   4.741  38.547   9.307
  974POPC   GL117209   5.003  38.725   9.068
  974POPC   GL217210   5.239  38.501   9.084
  974POPC   C1A17211   5.114  38.691   8.633
  974POPC   D2A17212   4.882  38.393   8.375
  974POPC   C3A17213   4.806  38.580   7.955
  974POPC   C4A17214   5.092  38.640   7.582
  974POPC   C1B17215   5.429  38.264   8.768
  974POPC   C2B17216   5.359  38.119   8.359
  974POPC   C3B17217   5.226  38.295   8.017
  974POPC   C4B17218   5.300  38.177   7.650
  975POPC   NC317219  30.070   0.469   9.585
  975POPC   PO417220  29.939  44.899   9.614
  975POPC   GL117221  30.249   0.041   9.220
  975POPC   GL217222  30.179   0.376   9.064
  975POPC   C1A17223  30.369   0.063   8.709
  975POPC   D2A17224  30.278   0.039   8.208
  975POPC   C3A17225  29.957   0.317   7.938
  975POPC   C4A17226  29.671   0.475   7.575
  975POPC   C1B17227  30.209   0.547   8.627
  975POPC   C2B17228  30.405   0.534   8.229
  975POPC   C3B17229  30.312   0.658   7.803
  975POPC   C4B17230  29.963   0.901   7.604
  976POPC   NC317231   8.497  28.716   9.492
  976POPC   PO417232   8.213  28.055   9.633
  976POPC   GL117233   8.125  28.260   9.186
  976POPC   GL217234   8.314  28.555   9.044
  976POPC   C1A17235   7.981  28.360   8.726
  976POPC   D2A17236   8.235  28.245   8.343
  976POPC   C3A17237   8.042  28.407   7.984
  976POPC   C4A17238   7.741  28.573   7.728
  976POPC   C1B17239   8.569  28.463   8.707
  976POPC   C2B17240   8.751  28.396   8.302
  976POPC   C3B17241   8.548  28.546   7.936
  976POPC   C4B17242   8.541  28.680   7.492
  977POPC   NC317243   3.105  13.822   9.417
  977POPC   PO417244   2.580  13.391   9.515
  977POPC   GL117245   2.803  13.457   9.161
  977POPC   GL217246   2.657  13.780   9.185
  977POPC   C1A17247   2.927  13.467   8.712
  977POPC   D2A17248   3.115  13.369   8.302
  977POPC   C3A17249   2.816  13.478   7.967
  977POPC   C4A17250   2.478  13.319   7.673
  977POPC   C1B17251   2.448  13.654   8.826
  977POPC   C2B17252   2.404  13.847   8.434
  977POPC   C3B17253   2.338  13.666   8.033
  977POPC   C4B17254   2.447  13.822   7.621
  978POPC   NC317255   5.690  28.170   9.613
  978POPC   PO417256   6.293  28.372   9.473
  978POPC   GL117257   6.084  28.535   9.113
  978POPC   GL217258   5.749  28.682   9.224
  978POPC   C1A17259   5.924  28.250   8.782
  978POPC   D2A17260   5.950  28.090   8.349
  978POPC   C3A17261   6.059  28.409   8.022
  978POPC   C4A17262   6.371  28.634   7.764
  978POPC   C1B17263   5.574  28.611   8.828
  978POPC   C2B17264   5.740  28.578   8.411
  978POPC   C3B17265   5.544  28.336   8.094
  978POPC   C4B17266   5.513  28.173   7.679
  979POPC   NC317267  42.825  42.727   9.463
  979POPC   PO417268  42.224  42.376   9.508
  979POPC   GL117269  42.366  42.205   9.113
  979POPC   GL217270  42.706  42.257   9.214
  979POPC   C1A17271  42.313  42.201   8.652
  979POPC   D2A17272  41.990  42.487   8.437
  979POPC   C3A17273  42.037  42.487   7.973
  979POPC   C4A17274  42.167  42.330   7.548
  979POPC   C1B17275  42.812  42.349   8.772
  979POPC   C2B17276  42.813  42.192   8.346
  979POPC   C3B17277  42.525  42.294   7.987
  979POPC   C4B17278  42.600  42.558   7.629
  980POPC   NC317279  29.911   7.801   9.521
  980POPC   PO417280  29.791   7.170   9.483
  980POPC   GL117281  29.642   7.466   9.191
  980POPC   GL217282  29.966   7.514   9.073
  980POPC   C1A17283  29.579   7.484   8.743
  980POPC   D2A17284  29.607   7.217   8.369
  980POPC   C3A17285  29.568   7.416   7.966
  980POPC   C4A17286  29.732   7.431   7.551
  980POPC   C1B17287  30.073   7.347   8.642
  980POPC   C2B17288  30.229   7.316   8.210
  980POPC   C3B17289  30.181   7.442   7.798
  980POPC   C4B17290  30.206   7.316   7.378
  981POPC   NC317291   3.097  36.217   9.322
  981POPC   PO417292   2.650  36.555   9.611
  981POPC   GL117293   2.593  36.251   9.209
  981POPC   GL217294   2.789  35.903   9.069
  981POPC   C1A17295   2.496  36.143   8.754
  981POPC   D2A17296   2.431  36.199   8.315
  981POPC   C3A17297   2.839  36.250   8.093
  981POPC   C4A17298   2.716  36.403   7.688
  981POPC   C1B17299   3.129  35.919   8.731
  981POPC   C2B17300   3.237  35.914   8.295
  981POPC   C3B17301   3.097  35.674   7.961
  981POPC   C4B17302   3.044  35.665   7.530
  982POPC   NC317303  42.625   9.123   9.538
  982POPC   PO417304  42.192   8.601   9.552
  982POPC   GL117305  42.459   8.692   9.177
  982POPC   GL217306  42.433   9.058   9.078
  982POPC   C1A17307  42.414   8.709   8.730
  982POPC   D2A17308  42.367   9.004   8.392
  982POPC   C3A17309  42.442   8.774   8.000
  982POPC   C4A17310  42.279   8.794   7.565
  982POPC   C1B17311  42.731   9.198   8.807
  982POPC   C2B17312  42.688   9.433   8.463
  982POPC   C3B17313  42.740   9.224   8.104
  982POPC   C4B17314  42.534   9.214   7.737
  983POPC   NC317315  35.861   1.312   9.681
  983POPC   PO417316  36.444   1.086   9.572
  983POPC   GL117317  36.208   1.341   9.240
  983POPC   GL217318  35.814   1.420   9.199
  983POPC   C1A17319  36.347   1.210   8.828
  983POPC   D2A17320  36.263   0.985   8.440
  983POPC   C3A17321  36.401   1.124   8.066
  983POPC   C4A17322  36.441   0.961   7.686
  983POPC   C1B17323  35.844   1.179   8.880
  983POPC   C2B17324  35.825   1.216   8.454
  983POPC   C3B17325  35.939   1.348   8.054
  983POPC   C4B17326  36.014   1.677   7.757
  984POPC   NC317327   6.403  28.827   9.405
  984POPC   PO417328   6.629  29.428   9.485
  984POPC   GL117329   6.676  29.187   9.091
  984POPC   GL217330   6.478  28.888   8.910
  984POPC   C1A17331   6.883  29.108   8.669
  984POPC   D2A17332   6.935  29.398   8.341
  984POPC   C3A17333   6.752  29.428   7.927
  984POPC   C4A17334   6.801  29.325   7.473
  984POPC   C1B17335   6.389  29.262   8.700
  984POPC   C2B17336   6.433  29.488   8.357
  984POPC   C3B17337   6.250  29.413   8.011
  984POPC   C4B17338   6.368  29.140   7.745
  985POPC   NC317339   6.039  34.347   9.440
  985POPC   PO417340   5.562  34.866   9.452
  985POPC   GL117341   5.706  34.633   9.078
  985POPC   GL217342   5.705  34.248   9.038
  985POPC   C1A17343   5.921  34.611   8.673
  985POPC   D2A17344   6.092  34.867   8.327
  985POPC   C3A17345   5.771  34.942   7.999
  985POPC   C4A17346   5.942  34.843   7.612
  985POPC   C1B17347   5.513  34.282   8.620
  985POPC   C2B17348   5.618  34.520   8.257
  985POPC   C3B17349   6.002  34.482   7.997
  985POPC   C4B17350   6.175  34.368   7.611
  986POPC   NC317351   4.211   1.034   9.389
  986POPC   PO417352   4.717   1.259   9.721
  986POPC   GL117353   4.698   1.279   9.206
  986POPC   GL217354   4.693   0.974   9.061
  986POPC   C1A17355   4.533   1.398   8.718
  986POPC   D2A17356   4.111   1.498   8.462
  986POPC   C3A17357   4.128   1.383   8.011
  986POPC   C4A17358   4.511   1.191   7.824
  986POPC   C1B17359   4.369   0.909   8.757
  986POPC   C2B17360   4.372   1.060   8.327
  986POPC   C3B17361   4.132   0.869   7.961
  986POPC   C4B17362   4.154   0.979   7.515
  987POPC   NC317363   3.496  35.367   9.501
  987POPC   PO417364   4.062  35.058   9.543
  987POPC   GL117365   3.764  35.116   9.145
  987POPC   GL217366   3.332  35.140   9.083
  987POPC   C1A17367   3.633  35.338   8.776
  987POPC   D2A17368   3.330  35.430   8.484
  987POPC   C3A17369   3.525  35.403   8.085
  987POPC   C4A17370   3.643  35.368   7.646
  987POPC   C1B17371   3.103  34.978   8.777
  987POPC   C2B17372   3.094  34.849   8.372
  987POPC   C3B17373   3.073  35.185   8.116
  987POPC   C4B17374   3.182  35.206   7.683
  988POPC   NC317375   6.314  32.875   9.710
  988POPC   PO417376   5.761  33.133   9.444
  988POPC   GL117377   5.799  32.896   9.100
  988POPC   GL217378   6.134  32.895   9.118
  988POPC   C1A17379   5.851  32.786   8.668
  988POPC   D2A17380   5.812  33.105   8.334
  988POPC   C3A17381   5.739  32.899   7.968
  988POPC   C4A17382   6.017  32.610   7.772
  988POPC   C1B17383   6.083  33.222   8.776
  988POPC   C2B17384   6.303  33.263   8.415
  988POPC   C3B17385   6.266  32.993   8.063
  988POPC   C4B17386   6.095  33.090   7.649
  989POPC   NC317387  31.326  44.745   9.945
  989POPC   PO417388  31.480   0.297   9.533
  989POPC   GL117389  31.510   0.482   9.138
  989POPC   GL217390  31.465   0.810   9.147
  989POPC   C1A17391  31.279   0.533   8.753
  989POPC   D2A17392  31.399   0.294   8.419
  989POPC   C3A17393  31.216   0.062   8.096
  989POPC   C4A17394  31.346   0.192   7.703
  989POPC   C1B17395  31.598   0.957   8.756
  989POPC   C2B17396  31.610   0.800   8.355
  989POPC   C3B17397  31.409   0.610   8.010
  989POPC   C4B17398  31.537   0.754   7.628
  990POPC   NC317399  38.984  43.387   9.530
  990POPC   PO417400  39.267  42.688   9.528
  990POPC   GL117401  39.241  42.951   9.114
  990POPC   GL217402  39.414  43.283   9.072
  990POPC   C1A17403  39.265  43.058   8.639
  990POPC   D2A17404  39.190  43.256   8.237
  990POPC   C3A17405  39.360  43.131   7.846
  990POPC   C4A17406  39.676  43.410   7.682
  990POPC   C1B17407  38.981  43.403   8.872
  990POPC   C2B17408  38.806  43.535   8.478
  990POPC   C3B17409  39.003  43.749   8.142
  990POPC   C4B17410  39.130  43.583   7.755
  991POPC   NC317411  36.281  25.500   9.286
  991POPC   PO417412  35.818  25.154   9.639
  991POPC   GL117413  36.023  25.055   9.240
  991POPC   GL217414  36.389  24.995   9.225
  991POPC   C1A17415  36.006  25.025   8.765
  991POPC   D2A17416  36.228  25.362   8.500
  991POPC   C3A17417  36.199  25.473   8.057
  991POPC   C4A17418  36.173  25.574   7.622
  991POPC   C1B17419  36.504  24.867   8.809
  991POPC   C2B17420  36.330  24.865   8.397
  991POPC   C3B17421  36.449  24.992   7.995
  991POPC   C4B17422  36.776  24.960   7.728
  992POPC   NC317423  12.508  19.858   9.367
  992POPC   PO417424  13.029  19.459   9.568
  992POPC   GL117425  12.907  19.632   9.152
  992POPC   GL217426  12.880  20.013   9.074
  992POPC   C1A17427  13.019  19.721   8.715
  992POPC   D2A17428  13.145  19.545   8.386
  992POPC   C3A17429  12.912  19.810   8.140
  992POPC   C4A17430  12.757  19.698   7.768
  992POPC   C1B17431  12.614  20.160   8.742
  992POPC   C2B17432  12.458  20.028   8.341
  992POPC   C3B17433  12.516  20.121   7.896
  992POPC   C4B17434  12.342  19.899   7.550
  993POPC   NC317435  34.365  37.133   9.557
  993POPC   PO417436  34.811  36.595   9.637
  993POPC   GL117437  34.690  36.945   9.251
  993POPC   GL217438  34.957  37.102   9.085
  993POPC   C1A17439  34.386  37.067   8.908
  993POPC   D2A17440  34.292  36.895   8.503
  993POPC   C3A17441  34.325  36.785   8.090
  993POPC   C4A17442  34.368  36.743   7.666
  993POPC   C1B17443  34.777  36.942   8.652
  993POPC   C2B17444  34.861  36.893   8.263
  993POPC   C3B17445  34.799  36.627   7.919
  993POPC   C4B17446  35.046  36.883   7.670
  994POPC   NC317447  27.331  14.473   9.319
  994POPC   PO417448  27.912  14.380   9.750
  994POPC   GL117449  27.802  14.205   9.277
  994POPC   GL217450  27.523  14.120   9.023
  994POPC   C1A17451  27.949  14.178   8.792
  994POPC   D2A17452  27.758  14.476   8.461
  994POPC   C3A17453  27.722  14.414   8.008
  994POPC   C4A17454  28.042  14.222   7.766
  994POPC   C1B17455  27.321  14.283   8.649
  994POPC   C2B17456  27.395  14.080   8.242
  994POPC   C3B17457  27.210  14.271   7.888
  994POPC   C4B17458  27.329  14.700   7.805
  995POPC   NC317459   3.344  14.601   9.671
  995POPC   PO417460   3.601  14.000   9.466
  995POPC   GL117461   3.582  14.402   9.259
  995POPC   GL217462   3.899  14.459   9.064
  995POPC   C1A17463   3.421  14.550   8.894
  995POPC   D2A17464   3.624  14.543   8.512
  995POPC   C3A17465   3.405  14.632   8.116
  995POPC   C4A17466   3.275  14.386   7.751
  995POPC   C1B17467   3.747  14.117   8.806
  995POPC   C2B17468   3.898  14.071   8.385
  995POPC   C3B17469   3.880  14.421   8.103
  995POPC   C4B17470   3.805  14.444   7.700
  996POPC   NC317471  20.209  43.656   9.537
  996POPC   PO417472  19.902  44.244   9.554
  996POPC   GL117473  20.154  44.080   9.211
  996POPC   GL217474  19.921  43.828   9.119
  996POPC   C1A17475  20.100  44.117   8.741
  996POPC   D2A17476  20.000  44.316   8.321
  996POPC   C3A17477  20.069  44.086   7.946
  996POPC   C4A17478  19.719  44.110   7.702
  996POPC   C1B17479  19.743  43.671   8.725
  996POPC   C2B17480  19.726  43.830   8.295
  996POPC   C3B17481  19.399  43.836   7.979
  996POPC   C4B17482  19.416  43.718   7.541
  997POPC   NC317483  29.195  26.790   9.490
  997POPC   PO417484  29.591  27.125   9.217
  997POPC   GL117485  29.323  26.785   9.003
  997POPC   GL217486  28.949  26.679   9.061
  997POPC   C1A17487  29.130  26.918   8.636
  997POPC   D2A17488  29.414  27.097   8.373
  997POPC   C3A17489  29.323  27.129   7.945
  997POPC   C4A17490  29.423  26.778   7.687
  997POPC   C1B17491  29.120  26.413   8.695
  997POPC   C2B17492  29.194  26.560   8.241
  997POPC   C3B17493  28.955  26.749   7.883
  997POPC   C4B17494  29.022  26.624   7.407
  998POPC   NC317495  17.882  12.002   9.570
  998POPC   PO417496  17.193  11.948   9.567
  998POPC   GL117497  17.424  12.167   9.220
  998POPC   GL217498  17.772  12.342   9.209
  998POPC   C1A17499  17.305  12.034   8.810
  998POPC   D2A17500  17.170  12.245   8.451
  998POPC   C3A17501  17.314  12.085   8.078
  998POPC   C4A17502  17.524  11.959   7.717
  998POPC   C1B17503  17.812  12.108   8.837
  998POPC   C2B17504  17.672  12.092   8.453
  998POPC   C3B17505  17.820  12.177   8.065
  998POPC   C4B17506  17.717  12.446   7.722
  999POPC   NC317507  12.032   6.411   9.342
  999POPC   PO417508  12.102   5.968   9.828
  999POPC   GL117509  11.892   5.923   9.395
  999POPC   GL217510  12.167   5.908   9.193
  999POPC   C1A17511  11.772   5.922   8.895
  999POPC   D2A17512  11.854   5.980   8.411
  999POPC   C3A17513  11.946   5.792   7.969
  999POPC   C4A17514  12.136   5.374   7.854
  999POPC   C1B17515  12.268   5.915   8.757
  999POPC   C2B17516  12.318   5.727   8.354
  999POPC   C3B17517  12.456   5.784   7.948
  999POPC   C4B17518  12.323   5.908   7.567
 1000POPC   NC317519  17.047  17.263   9.530
 1000POPC   PO417520  16.473  17.297   9.477
 1000POPC   GL117521  16.643  17.489   9.131
 1000POPC   GL217522  16.977  17.411   9.048
 1000POPC   C1A17523  16.514  17.642   8.742
 1000POPC   D2A17524  16.522  17.470   8.328
 1000POPC   C3A17525  16.551  17.762   7.988
 1000POPC   C4A17526  16.413  17.675   7.584
 1000POPC   C1B17527  17.004  17.549   8.622
 1000POPC   C2B17528  17.004  17.462   8.165
 1000POPC   C3B17529  16.886  17.454   7.709
 1000POPC   C4B17530  17.051  17.407   7.275
 1001POPC   NC317531  13.912  12.811   9.489
 1001POPC   PO417532  13.347  12.541   9.321
 1001POPC   GL117533  13.568  12.740   9.060
 1001POPC   GL217534  13.504  13.094   9.019
 1001POPC   C1A17535  13.500  12.776   8.626
 1001POPC   D2A17536  13.848  12.749   8.376
 1001POPC   C3A17537  13.761  12.681   7.963
 1001POPC   C4A17538  13.524  13.004   7.832
 1001POPC   C1B17539  13.939  13.032   8.843
 1001POPC   C2B17540  14.182  13.120   8.480
 1001POPC   C3B17541  13.930  13.167   8.124
 1001POPC   C4B17542  14.029  13.105   7.745
 1002POPC   NC317543  12.556   9.608   9.478
 1002POPC   PO417544  13.192   9.847   9.468
 1002POPC   GL117545  12.915   9.786   9.142
 1002POPC   GL217546  12.815   9.442   9.077
 1002POPC   C1A17547  12.844   9.763   8.710
 1002POPC   D2A17548  12.693   9.950   8.385
 1002POPC   C3A17549  12.925   9.933   8.060
 1002POPC   C4A17550  12.704  10.069   7.774
 1002POPC   C1B17551  12.473   9.345   8.819
 1002POPC   C2B17552  12.492   9.477   8.403
 1002POPC   C3B17553  12.756   9.451   8.066
 1002POPC   C4B17554  12.596   9.574   7.696
 1003POPC   NC317555  36.252  25.025   9.730
 1003POPC   PO417556  35.898  24.414   9.516
 1003POPC   GL117557  36.073  24.566   9.163
 1003POPC   GL217558  35.779  24.631   9.034
 1003POPC   C1A17559  36.157  24.506   8.719
 1003POPC   D2A17560  36.384  24.368   8.370
 1003POPC   C3A17561  36.229  24.513   8.022
 1003POPC   C4A17562  35.932  24.630   7.817
 1003POPC   C1B17563  35.653  24.608   8.666
 1003POPC   C2B17564  35.836  24.664   8.321
 1003POPC   C3B17565  35.946  25.046   8.131
 1003POPC   C4B17566  36.055  25.102   7.705
 1004POPC   NC317567   2.796   1.645   9.332
 1004POPC   PO417568   2.896   2.297   9.362
 1004POPC   GL117569   2.939   1.969   8.991
 1004POPC   GL217570   2.651   1.692   8.874
 1004POPC   C1A17571   3.038   1.819   8.605
 1004POPC   D2A17572   2.650   1.815   8.363
 1004POPC   C3A17573   2.699   2.024   7.999
 1004POPC   C4A17574   2.987   2.220   7.706
 1004POPC   C1B17575   2.256   1.735   8.772
 1004POPC   C2B17576   2.087   1.747   8.385
 1004POPC   C3B17577   2.317   1.562   8.055
 1004POPC   C4B17578   2.663   1.581   7.737
 1005POPC   NC317579  25.206  33.896   9.609
 1005POPC   PO417580  25.496  33.449   9.485
 1005POPC   GL117581  25.279  33.699   9.127
 1005POPC   GL217582  25.179  34.060   9.126
 1005POPC   C1A17583  25.048  33.762   8.715
 1005POPC   D2A17584  25.016  33.994   8.312
 1005POPC   C3A17585  25.021  33.789   7.925
 1005POPC   C4A17586  24.888  33.874   7.511
 1005POPC   C1B17587  25.173  34.264   8.718
 1005POPC   C2B17588  25.410  34.307   8.306
 1005POPC   C3B17589  25.317  34.202   7.878
 1005POPC   C4B17590  25.467  33.851   7.636
 1006POPC   NC317591  23.036  43.358   9.547
 1006POPC   PO417592  22.776  42.760   9.432
 1006POPC   GL117593  22.889  43.076   9.103
 1006POPC   GL217594  22.584  43.225   8.953
 1006POPC   C1A17595  22.893  43.037   8.631
 1006POPC   D2A17596  22.777  42.835   8.305
 1006POPC   C3A17597  22.864  43.030   7.978
 1006POPC   C4A17598  23.128  42.780   7.731
 1006POPC   C1B17599  22.436  42.823   8.711
 1006POPC   C2B17600  22.284  42.731   8.262
 1006POPC   C3B17601  22.553  42.673   7.858
 1006POPC   C4B17602  22.626  42.965   7.482
 1007POPC   NC317603   7.535  14.479   9.658
 1007POPC   PO417604   6.929  14.247   9.500
 1007POPC   GL117605   7.263  14.302   9.221
 1007POPC   GL217606   7.276  14.656   9.207
 1007POPC   C1A17607   7.428  14.313   8.801
 1007POPC   D2A17608   7.271  14.484   8.407
 1007POPC   C3A17609   7.448  14.363   7.997
 1007POPC   C4A17610   7.393  14.018   7.701
 1007POPC   C1B17611   7.021  14.749   8.826
 1007POPC   C2B17612   6.853  14.770   8.386
 1007POPC   C3B17613   6.983  14.601   7.976
 1007POPC   C4B17614   7.051  14.831   7.595
 1008POPC   NC317615   3.461  25.590   9.285
 1008POPC   PO417616   3.836  26.183   9.403
 1008POPC   GL117617   3.505  26.084   9.119
 1008POPC   GL217618   3.138  26.083   9.253
 1008POPC   C1A17619   3.643  26.041   8.702
 1008POPC   D2A17620   3.651  25.821   8.309
 1008POPC   C3A17621   3.619  26.090   7.963
 1008POPC   C4A17622   3.691  25.939   7.557
 1008POPC   C1B17623   3.106  25.989   8.807
 1008POPC   C2B17624   3.244  26.156   8.411
 1008POPC   C3B17625   3.163  25.863   8.118
 1008POPC   C4B17626   3.155  26.006   7.729
 1009POPC   NC317627   0.309  22.272   9.693
 1009POPC   PO417628   0.840  21.874   9.602
 1009POPC   GL117629   0.535  22.135   9.237
 1009POPC   GL217630   0.311  21.947   9.054
 1009POPC   C1A17631   0.415  22.306   8.741
 1009POPC   D2A17632   0.539  22.141   8.307
 1009POPC   C3A17633   0.347  22.369   7.977
 1009POPC   C4A17634   0.044  22.236   7.694
 1009POPC   C1B17635   0.414  21.803   8.675
 1009POPC   C2B17636   0.143  21.806   8.331
 1009POPC   C3B17637   0.257  21.856   7.930
 1009POPC   C4B17638   0.644  22.034   7.749
 1010POPC   NC317639   8.951  33.324   9.416
 1010POPC   PO417640   9.063  32.668   9.562
 1010POPC   GL117641   8.879  32.859   9.178
 1010POPC   GL217642   8.731  33.146   9.006
 1010POPC   C1A17643   8.714  32.674   8.825
 1010POPC   D2A17644   8.566  32.895   8.500
 1010POPC   C3A17645   8.914  32.912   8.192
 1010POPC   C4A17646   9.149  33.100   7.848
 1010POPC   C1B17647   8.991  33.154   8.650
 1010POPC   C2B17648   9.083  33.404   8.286
 1010POPC   C3B17649   9.356  33.574   7.954
 1010POPC   C4B17650   9.578  33.520   7.545
 1011POPC   NC317651   2.145  16.327   9.453
 1011POPC   PO417652   1.955  15.783   9.829
 1011POPC   GL117653   2.014  15.798   9.326
 1011POPC   GL217654   2.348  15.713   9.182
 1011POPC   C1A17655   1.982  16.006   8.879
 1011POPC   D2A17656   2.153  15.998   8.440
 1011POPC   C3A17657   1.897  16.076   8.086
 1011POPC   C4A17658   1.891  15.927   7.675
 1011POPC   C1B17659   2.481  15.729   8.729
 1011POPC   C2B17660   2.507  15.678   8.249
 1011POPC   C3B17661   2.362  15.812   7.821
 1011POPC   C4B17662   2.530  15.806   7.375
 1012POPC   NC317663  21.004   3.965   9.457
 1012POPC   PO417664  20.610   3.432   9.662
 1012POPC   GL117665  20.647   3.617   9.289
 1012POPC   GL217666  20.661   3.270   9.182
 1012POPC   C1A17667  20.538   3.645   8.850
 1012POPC   D2A17668  20.355   3.851   8.504
 1012POPC   C3A17669  20.432   3.692   8.100
 1012POPC   C4A17670  20.463   3.446   7.717
 1012POPC   C1B17671  20.654   3.146   8.783
 1012POPC   C2B17672  20.722   3.244   8.379
 1012POPC   C3B17673  20.543   3.068   8.059
 1012POPC   C4B17674  20.673   2.948   7.692
 1013POPC   NC317675  32.385  20.229   9.584
 1013POPC   PO417676  32.135  20.831   9.485
 1013POPC   GL117677  32.322  20.609   9.163
 1013POPC   GL217678  32.613  20.854   9.168
 1013POPC   C1A17679  32.136  20.406   8.790
 1013POPC   D2A17680  31.915  20.345   8.380
 1013POPC   C3A17681  32.195  20.292   8.029
 1013POPC   C4A17682  32.497  20.614   7.830
 1013POPC   C1B17683  32.493  20.862   8.742
 1013POPC   C2B17684  32.379  20.888   8.319
 1013POPC   C3B17685  32.066  20.783   8.043
 1013POPC   C4B17686  31.918  20.562   7.704
 1014POPC   NC317687  32.456  24.009   9.450
 1014POPC   PO417688  31.979  23.638   9.617
 1014POPC   GL117689  32.045  23.811   9.204
 1014POPC   GL217690  32.151  23.475   9.123
 1014POPC   C1A17691  32.219  23.847   8.761
 1014POPC   D2A17692  32.285  23.649   8.329
 1014POPC   C3A17693  32.290  23.957   7.967
 1014POPC   C4A17694  32.470  24.019   7.547
 1014POPC   C1B17695  31.768  23.528   8.860
 1014POPC   C2B17696  31.764  23.642   8.419
 1014POPC   C3B17697  31.909  23.582   7.969
 1014POPC   C4B17698  32.026  23.785   7.568
 1015POPC   NC317699  15.508  34.335   9.337
 1015POPC   PO417700  16.105  34.601   9.454
 1015POPC   GL117701  16.098  34.639   9.030
 1015POPC   GL217702  15.896  34.362   9.015
 1015POPC   C1A17703  16.227  34.477   8.628
 1015POPC   D2A17704  16.011  34.548   8.255
 1015POPC   C3A17705  16.110  34.723   7.862
 1015POPC   C4A17706  16.158  34.485   7.545
 1015POPC   C1B17707  15.676  34.567   8.685
 1015POPC   C2B17708  15.539  34.747   8.302
 1015POPC   C3B17709  15.631  34.573   7.912
 1015POPC   C4B17710  15.664  34.608   7.486
 1016POPC   NC317711  30.130   1.900   9.772
 1016POPC   PO417712  29.673   2.221   9.688
 1016POPC   GL117713  29.928   2.121   9.276
 1016POPC   GL217714  29.989   1.778   9.140
 1016POPC   C1A17715  30.106   2.157   8.808
 1016POPC   D2A17716  30.152   1.934   8.380
 1016POPC   C3A17717  30.054   2.054   7.929
 1016POPC   C4A17718  30.248   2.311   7.602
 1016POPC   C1B17719  29.757   1.798   8.698
 1016POPC   C2B17720  29.646   1.923   8.230
 1016POPC   C3B17721  29.570   1.980   7.749
 1016POPC   C4B17722  29.528   2.056   7.283
 1017POPC   NC317723  42.002  33.215   9.538
 1017POPC   PO417724  42.404  32.823   9.447
 1017POPC   GL117725  42.494  32.896   9.026
 1017POPC   GL217726  42.523  32.547   8.911
 1017POPC   C1A17727  42.369  32.951   8.587
 1017POPC   D2A17728  42.559  32.782   8.187
 1017POPC   C3A17729  42.267  32.900   7.891
 1017POPC   C4A17730  42.122  33.269   7.663
 1017POPC   C1B17731  42.829  32.770   8.647
 1017POPC   C2B17732  42.805  33.183   8.424
 1017POPC   C3B17733  42.648  33.251   7.993
 1017POPC   C4B17734  42.738  32.916   7.696
 1018POPC   NC317735  24.971  11.267   9.510
 1018POPC   PO417736  25.627  11.215   9.557
 1018POPC   GL117737  25.396  11.225   9.197
 1018POPC   GL217738  25.598  11.475   9.048
 1018POPC   C1A17739  25.102  11.387   8.882
 1018POPC   D2A17740  25.079  11.260   8.467
 1018POPC   C3A17741  24.991  11.460   8.082
 1018POPC   C4A17742  25.042  11.258   7.705
 1018POPC   C1B17743  25.537  11.165   8.706
 1018POPC   C2B17744  25.615  11.277   8.286
 1018POPC   C3B17745  25.526  11.350   7.859
 1018POPC   C4B17746  25.500  11.436   7.418
 1019POPC   NC317747   9.135  18.255   9.514
 1019POPC   PO417748   8.503  18.277   9.668
 1019POPC   GL117749   8.705  18.158   9.223
 1019POPC   GL217750   9.008  17.929   9.159
 1019POPC   C1A17751   8.949  18.293   8.813
 1019POPC   D2A17752   8.850  18.503   8.449
 1019POPC   C3A17753   9.017  18.395   8.055
 1019POPC   C4A17754   8.791  18.566   7.693
 1019POPC   C1B17755   8.756  17.836   8.788
 1019POPC   C2B17756   8.901  17.958   8.397
 1019POPC   C3B17757   8.722  17.983   8.004
 1019POPC   C4B17758   8.912  18.059   7.635
 1020POPC   NC317759  37.255  28.135   9.535
 1020POPC   PO417760  37.601  27.567   9.484
 1020POPC   GL117761  37.668  27.794   9.120
 1020POPC   GL217762  37.344  27.868   9.115
 1020POPC   C1A17763  37.843  27.701   8.689
 1020POPC   D2A17764  37.805  27.375   8.392
 1020POPC   C3A17765  37.753  27.434   7.966
 1020POPC   C4A17766  37.758  27.064   7.666
 1020POPC   C1B17767  37.345  27.666   8.723
 1020POPC   C2B17768  37.442  27.763   8.320
 1020POPC   C3B17769  37.249  27.573   7.966
 1020POPC   C4B17770  37.384  27.380   7.593
 1021POPC   NC317771  35.594  34.352   9.415
 1021POPC   PO417772  34.933  34.284   9.539
 1021POPC   GL117773  35.144  34.475   9.181
 1021POPC   GL217774  35.399  34.746   9.081
 1021POPC   C1A17775  35.180  34.406   8.742
 1021POPC   D2A17776  35.406  34.499   8.375
 1021POPC   C3A17777  35.211  34.511   8.017
 1021POPC   C4A17778  35.324  34.820   7.752
 1021POPC   C1B17779  35.703  34.495   8.798
 1021POPC   C2B17780  35.797  34.201   8.466
 1021POPC   C3B17781  35.842  34.327   8.048
 1021POPC   C4B17782  35.599  34.393   7.697
 1022POPC   NC317783  30.816   5.460   9.533
 1022POPC   PO417784  31.112   6.069   9.672
 1022POPC   GL117785  30.979   5.866   9.267
 1022POPC   GL217786  30.607   5.895   9.267
 1022POPC   C1A17787  30.891   5.700   8.838
 1022POPC   D2A17788  30.740   5.959   8.468
 1022POPC   C3A17789  30.894   5.980   8.053
 1022POPC   C4A17790  31.021   5.778   7.672
 1022POPC   C1B17791  30.426   5.897   8.850
 1022POPC   C2B17792  30.147   5.974   8.511
 1022POPC   C3B17793  30.352   6.071   8.141
 1022POPC   C4B17794  30.470   5.753   7.866
 1023POPC   NC317795  30.094  20.322   9.364
 1023POPC   PO417796  29.620  20.699   9.642
 1023POPC   GL117797  29.665  20.581   9.199
 1023POPC   GL217798  29.716  20.290   9.025
 1023POPC   C1A17799  29.842  20.719   8.781
 1023POPC   D2A17800  29.609  20.744   8.397
 1023POPC   C3A17801  29.830  20.833   8.059
 1023POPC   C4A17802  29.970  20.814   7.670
 1023POPC   C1B17803  30.065  20.272   8.745
 1023POPC   C2B17804  30.015  20.426   8.348
 1023POPC   C3B17805  29.915  20.301   7.952
 1023POPC   C4B17806  29.872  20.318   7.509
 1024POPC   NC317807  33.375  33.081   9.389
 1024POPC   PO417808  33.947  33.352   9.598
 1024POPC   GL117809  33.886  33.176   9.173
 1024POPC   GL217810  33.879  32.821   9.190
 1024POPC   C1A17811  33.626  33.106   8.770
 1024POPC   D2A17812  33.673  32.951   8.336
 1024POPC   C3A17813  33.972  33.105   8.012
 1024POPC   C4A17814  33.963  33.223   7.574
 1024POPC   C1B17815  34.011  32.731   8.753
 1024POPC   C2B17816  33.912  32.498   8.343
 1024POPC   C3B17817  33.800  32.621   7.932
 1024POPC   C4B17818  34.092  32.665   7.607
 1025POPC   NC317819  10.133  38.762  10.034
 1025POPC   PO417820  10.453  38.401   9.527
 1025POPC   GL117821  10.478  38.344   9.135
 1025POPC   GL217822  10.561  38.659   9.078
 1025POPC   C1A17823  10.731  38.206   8.803
 1025POPC   D2A17824  10.792  38.317   8.373
 1025POPC   C3A17825  10.473  38.317   8.066
 1025POPC   C4A17826  10.672  38.089   7.743
 1025POPC   C1B17827  10.639  38.716   8.655
 1025POPC   C2B17828  10.867  38.816   8.301
 1025POPC   C3B17829  10.715  38.703   7.887
 1025POPC   C4B17830  10.262  38.705   7.808
 1026POPC   NC317831  32.258  31.430   9.512
 1026POPC   PO417832  32.441  32.057   9.489
 1026POPC   GL117833  32.242  31.805   9.152
 1026POPC   GL217834  32.460  31.475   9.049
 1026POPC   C1A17835  32.199  31.759   8.706
 1026POPC   D2A17836  31.982  31.546   8.395
 1026POPC   C3A17837  31.963  31.772   8.018
 1026POPC   C4A17838  32.293  31.693   7.718
 1026POPC   C1B17839  32.367  31.268   8.634
 1026POPC   C2B17840  32.285  31.139   8.214
 1026POPC   C3B17841  32.028  31.281   7.888
 1026POPC   C4B17842  32.091  31.296   7.432
 1027POPC   NC317843  40.611  41.021   9.481
 1027POPC   PO417844  40.961  40.401   9.409
 1027POPC   GL117845  40.897  40.659   9.067
 1027POPC   GL217846  40.558  40.620   9.113
 1027POPC   C1A17847  40.935  40.848   8.631
 1027POPC   D2A17848  40.743  40.906   8.217
 1027POPC   C3A17849  41.010  40.888   7.857
 1027POPC   C4A17850  40.993  41.027   7.425
 1027POPC   C1B17851  40.457  40.766   8.727
 1027POPC   C2B17852  40.276  41.010   8.419
 1027POPC   C3B17853  40.266  40.889   8.000
 1027POPC   C4B17854  40.570  40.625   7.802
 1028POPC   NC317855  19.932  28.229   9.702
 1028POPC   PO417856  19.391  28.194   9.491
 1028POPC   GL117857  19.831  28.361   9.224
 1028POPC   GL217858  20.129  28.125   9.228
 1028POPC   C1A17859  20.069  28.441   8.789
 1028POPC   D2A17860  19.837  28.367   8.360
 1028POPC   C3A17861  19.735  28.413   7.897
 1028POPC   C4A17862  19.982  28.574   7.590
 1028POPC   C1B17863  20.252  27.947   8.821
 1028POPC   C2B17864  20.330  28.146   8.421
 1028POPC   C3B17865  20.209  28.271   7.997
 1028POPC   C4B17866  20.073  28.053   7.597
 1029POPC   NC317867   9.921   2.137   9.415
 1029POPC   PO417868   9.538   1.604   9.403
 1029POPC   GL117869   9.721   1.823   9.058
 1029POPC   GL217870   9.690   2.191   8.977
 1029POPC   C1A17871   9.617   1.745   8.661
 1029POPC   D2A17872   9.736   1.806   8.226
 1029POPC   C3A17873   9.528   1.795   7.818
 1029POPC   C4A17874   9.635   2.133   7.541
 1029POPC   C1B17875   9.935   2.116   8.618
 1029POPC   C2B17876  10.083   2.231   8.221
 1029POPC   C3B17877  10.063   2.191   7.790
 1029POPC   C4B17878  10.112   2.138   7.316
 1030POPC   NC317879  26.769  35.489   9.554
 1030POPC   PO417880  26.373  35.063   9.252
 1030POPC   GL117881  26.624  35.410   9.038
 1030POPC   GL217882  26.960  35.545   9.084
 1030POPC   C1A17883  26.821  35.417   8.617
 1030POPC   D2A17884  26.927  35.106   8.327
 1030POPC   C3A17885  27.027  35.342   8.011
 1030POPC   C4A17886  26.713  35.595   7.942
 1030POPC   C1B17887  27.087  35.838   8.763
 1030POPC   C2B17888  26.898  35.897   8.341
 1030POPC   C3B17889  27.153  35.845   7.924
 1030POPC   C4B17890  27.119  35.563   7.556
 1031POPC   NC317891  16.996  10.884   9.507
 1031POPC   PO417892  16.604  10.314   9.538
 1031POPC   GL117893  16.663  10.545   9.130
 1031POPC   GL217894  16.614  10.887   9.134
 1031POPC   C1A17895  16.503  10.640   8.688
 1031POPC   D2A17896  16.450  10.564   8.239
 1031POPC   C3A17897  16.754  10.436   7.907
 1031POPC   C4A17898  16.948  10.055   7.735
 1031POPC   C1B17899  16.933  10.909   8.806
 1031POPC   C2B17900  16.846  10.926   8.386
 1031POPC   C3B17901  16.730  10.933   7.979
 1031POPC   C4B17902  17.082  10.827   7.710
 1032POPC   NC317903  24.189  21.594   9.414
 1032POPC   PO417904  24.194  22.257   9.528
 1032POPC   GL117905  24.332  22.261   9.115
 1032POPC   GL217906  24.206  21.959   9.088
 1032POPC   C1A17907  24.551  22.127   8.750
 1032POPC   D2A17908  24.530  22.342   8.360
 1032POPC   C3A17909  24.718  22.202   7.979
 1032POPC   C4A17910  24.835  21.805   7.813
 1032POPC   C1B17911  24.038  21.960   8.743
 1032POPC   C2B17912  24.228  21.918   8.383
 1032POPC   C3B17913  24.195  22.125   8.022
 1032POPC   C4B17914  24.358  21.989   7.679
 1033POPC   NC317915   9.675  42.732   9.882
 1033POPC   PO417916  10.146  43.059   9.551
 1033POPC   GL117917   9.917  43.226   9.199
 1033POPC   GL217918   9.545  43.162   9.224
 1033POPC   C1A17919  10.023  43.257   8.765
 1033POPC   D2A17920   9.817  43.440   8.419
 1033POPC   C3A17921   9.836  43.294   8.016
 1033POPC   C4A17922   9.804  43.165   7.602
 1033POPC   C1B17923   9.491  43.228   8.763
 1033POPC   C2B17924   9.410  43.137   8.305
 1033POPC   C3B17925   9.360  43.329   7.886
 1033POPC   C4B17926   9.365  43.367   7.405
 1034POPC   NC317927   1.149  43.141   9.620
 1034POPC   PO417928   1.650  43.503   9.391
 1034POPC   GL117929   1.319  43.271   9.152
 1034POPC   GL217930   1.297  42.863   9.226
 1034POPC   C1A17931   1.201  43.363   8.736
 1034POPC   D2A17932   1.225  43.146   8.351
 1034POPC   C3A17933   1.376  43.315   7.972
 1034POPC   C4A17934   1.379  43.107   7.571
 1034POPC   C1B17935   1.077  42.830   8.861
 1034POPC   C2B17936   0.829  42.859   8.503
 1034POPC   C3B17937   0.901  42.839   8.049
 1034POPC   C4B17938   1.147  42.680   7.709
 1035POPC   NC317939  28.176  38.757   9.643
 1035POPC   PO417940  28.360  38.085   9.524
 1035POPC   GL117941  28.473  38.488   9.276
 1035POPC   GL217942  28.798  38.509   9.163
 1035POPC   C1A17943  28.487  38.599   8.797
 1035POPC   D2A17944  28.563  38.397   8.388
 1035POPC   C3A17945  28.396  38.472   7.976
 1035POPC   C4A17946  28.192  38.122   7.776
 1035POPC   C1B17947  28.894  38.275   8.781
 1035POPC   C2B17948  29.087  38.190   8.390
 1035POPC   C3B17949  28.851  38.184   7.999
 1035POPC   C4B17950  28.720  38.298   7.589
 1036POPC   NC317951  21.085   9.449   9.348
 1036POPC   PO417952  21.563   9.962   9.508
 1036POPC   GL117953  21.405   9.802   9.150
 1036POPC   GL217954  21.337  10.154   9.096
 1036POPC   C1A17955  21.394   9.523   8.761
 1036POPC   D2A17956  21.197   9.575   8.380
 1036POPC   C3A17957  21.441   9.717   8.022
 1036POPC   C4A17958  21.475   9.473   7.631
 1036POPC   C1B17959  21.432  10.048   8.706
 1036POPC   C2B17960  21.255  10.101   8.336
 1036POPC   C3B17961  21.419  10.234   7.981
 1036POPC   C4B17962  21.146  10.145   7.669
 1037POPC   NC317963  17.672  31.847   9.510
 1037POPC   PO417964  17.160  31.384   9.445
 1037POPC   GL117965  17.383  31.596   9.064
 1037POPC   GL217966  17.718  31.627   9.059
 1037POPC   C1A17967  17.510  31.721   8.608
 1037POPC   D2A17968  17.641  31.972   8.227
 1037POPC   C3A17969  17.603  31.692   7.856
 1037POPC   C4A17970  17.355  31.317   7.793
 1037POPC   C1B17971  17.894  31.389   8.712
 1037POPC   C2B17972  17.782  31.404   8.273
 1037POPC   C3B17973  17.878  31.268   7.860
 1037POPC   C4B17974  17.717  31.398   7.427
 1038POPC   NC317975  40.320   4.676   9.761
 1038POPC   PO417976  40.918   4.499   9.544
 1038POPC   GL117977  40.939   4.470   9.105
 1038POPC   GL217978  40.711   4.213   9.070
 1038POPC   C1A17979  40.913   4.638   8.659
 1038POPC   D2A17980  40.609   4.671   8.285
 1038POPC   C3A17981  40.648   4.482   7.841
 1038POPC   C4A17982  41.062   4.341   7.643
 1038POPC   C1B17983  40.620   4.056   8.663
 1038POPC   C2B17984  40.539   4.148   8.226
 1038POPC   C3B17985  40.755   4.002   7.862
 1038POPC   C4B17986  40.621   4.027   7.430
 1039POPC   NC317987  37.964  19.166   9.493
 1039POPC   PO417988  37.282  18.974   9.370
 1039POPC   GL117989  37.630  18.902   9.120
 1039POPC   GL217990  37.775  19.223   9.038
 1039POPC   C1A17991  37.669  18.889   8.675
 1039POPC   D2A17992  37.503  19.108   8.331
 1039POPC   C3A17993  37.502  18.870   7.965
 1039POPC   C4A17994  37.478  19.006   7.580
 1039POPC   C1B17995  37.719  19.449   8.669
 1039POPC   C2B17996  37.900  19.443   8.263
 1039POPC   C3B17997  37.771  19.310   7.878
 1039POPC   C4B17998  37.977  19.074   7.541
 1040POPC   NC317999  39.575   9.091   9.336
 1040POPC   PO418000  38.923   8.959   9.538
 1040POPC   GL118001  39.169   8.854   9.163
 1040POPC   GL218002  39.443   8.593   9.206
 1040POPC   C1A18003  39.044   9.009   8.752
 1040POPC   D2A18004  38.888   9.189   8.349
 1040POPC   C3A18005  39.196   9.160   8.018
 1040POPC   C4A18006  39.444   9.321   7.662
 1040POPC   C1B18007  39.574   8.743   8.773
 1040POPC   C2B18008  39.549   9.011   8.382
 1040POPC   C3B18009  39.622   8.895   7.929
 1040POPC   C4B18010  39.811   8.757   7.525
 1041POPC   NC318011  31.596   4.015   9.570
 1041POPC   PO418012  31.595   4.605   9.581
 1041POPC   GL118013  31.423   4.423   9.228
 1041POPC   GL218014  31.205   4.085   9.241
 1041POPC   C1A18015  31.507   4.588   8.835
 1041POPC   D2A18016  31.343   4.497   8.427
 1041POPC   C3A18017  31.525   4.514   8.014
 1041POPC   C4A18018  31.254   4.539   7.667
 1041POPC   C1B18019  31.388   4.089   8.822
 1041POPC   C2B18020  31.344   3.993   8.374
 1041POPC   C3B18021  31.215   4.102   7.979
 1041POPC   C4B18022  31.542   4.098   7.675
 1042POPC   NC318023  40.353  29.698   9.215
 1042POPC   PO418024  39.785  29.864   9.445
 1042POPC   GL118025  39.916  29.971   9.053
 1042POPC   GL218026  40.234  30.174   9.070
 1042POPC   C1A18027  39.905  29.860   8.624
 1042POPC   D2A18028  39.934  29.683   8.234
 1042POPC   C3A18029  39.915  29.886   7.884
 1042POPC   C4A18030  40.027  29.946   7.491
 1042POPC   C1B18031  40.395  30.038   8.652
 1042POPC   C2B18032  40.483  29.861   8.243
 1042POPC   C3B18033  40.428  29.975   7.829
 1042POPC   C4B18034  40.462  30.196   7.450
 1043POPC   NC318035   6.933  26.730   9.787
 1043POPC   PO418036   7.329  27.232   9.506
 1043POPC   GL118037   7.384  26.917   9.079
 1043POPC   GL218038   7.089  26.707   8.973
 1043POPC   C1A18039   7.506  26.950   8.628
 1043POPC   D2A18040   7.702  27.074   8.222
 1043POPC   C3A18041   7.396  26.990   7.922
 1043POPC   C4A18042   7.001  26.985   7.847
 1043POPC   C1B18043   7.229  26.520   8.612
 1043POPC   C2B18044   7.155  26.603   8.171
 1043POPC   C3B18045   7.319  26.508   7.763
 1043POPC   C4B18046   7.732  26.443   7.524
 1044POPC   NC318047  16.845  14.160   9.616
 1044POPC   PO418048  16.302  14.562   9.562
 1044POPC   GL118049  16.467  14.525   9.141
 1044POPC   GL218050  16.820  14.500   9.070
 1044POPC   C1A18051  16.455  14.381   8.701
 1044POPC   D2A18052  16.351  14.188   8.296
 1044POPC   C3A18053  16.583  14.303   7.942
 1044POPC   C4A18054  16.391  14.622   7.725
 1044POPC   C1B18055  16.939  14.602   8.638
 1044POPC   C2B18056  16.869  14.676   8.206
 1044POPC   C3B18057  17.059  14.564   7.812
 1044POPC   C4B18058  16.970  14.702   7.386
 1045POPC   NC318059   0.596   7.837   9.399
 1045POPC   PO418060   0.479   8.438   9.539
 1045POPC   GL118061   0.389   8.247   9.144
 1045POPC   GL218062   0.256   7.907   9.021
 1045POPC   C1A18063   0.265   8.425   8.780
 1045POPC   D2A18064   0.416   8.416   8.381
 1045POPC   C3A18065   0.157   8.640   8.138
 1045POPC   C4A18066   0.091   8.444   7.754
 1045POPC   C1B18067   0.599   8.026   8.712
 1045POPC   C2B18068   0.712   8.004   8.244
 1045POPC   C3B18069   0.519   8.103   7.842
 1045POPC   C4B18070   0.351   7.913   7.454
 1046POPC   NC318071   6.685  28.138   9.518
 1046POPC   PO418072   6.846  28.745   9.241
 1046POPC   GL118073   6.641  28.429   9.074
 1046POPC   GL218074   6.930  28.205   9.074
 1046POPC   C1A18075   6.406  28.401   8.686
 1046POPC   D2A18076   6.526  28.413   8.246
 1046POPC   C3A18077   6.718  28.818   8.120
 1046POPC   C4A18078   6.839  28.887   7.704
 1046POPC   C1B18079   6.849  28.119   8.651
 1046POPC   C2B18080   7.037  28.268   8.268
 1046POPC   C3B18081   6.920  28.390   7.867
 1046POPC   C4B18082   6.847  28.164   7.529
 1047POPC   NC318083  21.133  39.799   9.467
 1047POPC   PO418084  20.429  39.775   9.389
 1047POPC   GL118085  20.523  39.946   9.052
 1047POPC   GL218086  20.848  40.011   9.073
 1047POPC   C1A18087  20.592  39.797   8.650
 1047POPC   D2A18088  20.728  39.804   8.250
 1047POPC   C3A18089  20.518  39.693   7.869
 1047POPC   C4A18090  20.743  39.630   7.428
 1047POPC   C1B18091  20.757  40.280   8.717
 1047POPC   C2B18092  20.562  40.260   8.337
 1047POPC   C3B18093  20.672  40.189   7.919
 1047POPC   C4B18094  20.594  40.461   7.604
 1048POPC   NC318095   2.271  17.773   9.457
 1048POPC   PO418096   1.836  17.300   9.539
 1048POPC   GL118097   2.146  17.351   9.176
 1048POPC   GL218098   2.173  17.715   8.980
 1048POPC   C1A18099   2.121  17.283   8.739
 1048POPC   D2A18100   2.186  17.553   8.387
 1048POPC   C3A18101   2.218  17.333   8.023
 1048POPC   C4A18102   1.989  17.359   7.677
 1048POPC   C1B18103   1.756  17.595   8.910
 1048POPC   C2B18104   1.681  17.467   8.477
 1048POPC   C3B18105   1.781  17.614   8.079
 1048POPC   C4B18106   1.596  17.927   7.838
 1049POPC   NC318107  15.068  40.775   9.411
 1049POPC   PO418108  15.297  41.384   9.517
 1049POPC   GL118109  15.278  41.103   9.082
 1049POPC   GL218110  15.465  40.765   9.067
 1049POPC   C1A18111  15.013  40.798   8.771
 1049POPC   D2A18112  15.034  40.566   8.358
 1049POPC   C3A18113  14.863  40.772   8.013
 1049POPC   C4A18114  14.924  40.862   7.574
 1049POPC   C1B18115  15.478  40.718   8.597
 1049POPC   C2B18116  15.541  40.732   8.161
 1049POPC   C3B18117  15.333  40.621   7.797
 1049POPC   C4B18118  15.371  40.731   7.358
 1050POPC   NC318119  12.307  18.280   9.543
 1050POPC   PO418120  11.694  18.696   9.505
 1050POPC   GL118121  11.837  18.474   9.131
 1050POPC   GL218122  11.989  18.204   9.164
 1050POPC   C1A18123  12.085  18.582   8.735
 1050POPC   D2A18124  12.379  18.543   8.401
 1050POPC   C3A18125  12.272  18.448   7.986
 1050POPC   C4A18126  11.948  18.503   7.691
 1050POPC   C1B18127  11.882  18.087   8.786
 1050POPC   C2B18128  12.039  18.162   8.411
 1050POPC   C3B18129  12.128  17.955   8.058
 1050POPC   C4B18130  12.127  18.037   7.615
 1051POPC   NC318131  21.786   3.332   9.478
 1051POPC   PO418132  22.295   3.754   9.459
 1051POPC   GL118133  22.187   3.470   9.110
 1051POPC   GL218134  21.868   3.438   8.982
 1051POPC   C1A18135  22.308   3.406   8.686
 1051POPC   D2A18136  22.278   3.675   8.334
 1051POPC   C3A18137  22.258   3.538   7.932
 1051POPC   C4A18138  22.276   3.750   7.530
 1051POPC   C1B18139  21.817   3.548   8.545
 1051POPC   C2B18140  21.785   3.746   8.145
 1051POPC   C3B18141  21.827   3.614   7.717
 1051POPC   C4B18142  21.904   3.173   7.702
 1052POPC   NC318143  27.187   8.536   9.380
 1052POPC   PO418144  26.631   8.102   9.429
 1052POPC   GL118145  26.806   8.214   9.060
 1052POPC   GL218146  27.142   8.118   9.073
 1052POPC   C1A18147  26.589   8.168   8.654
 1052POPC   D2A18148  26.393   7.939   8.316
 1052POPC   C3A18149  26.468   8.066   7.901
 1052POPC   C4A18150  26.557   8.313   7.520
 1052POPC   C1B18151  27.132   8.306   8.670
 1052POPC   C2B18152  26.890   8.410   8.293
 1052POPC   C3B18153  26.940   8.285   7.865
 1052POPC   C4B18154  27.168   7.933   7.695
 1053POPC   NC318155   0.952  20.427   9.968
 1053POPC   PO418156   1.465  20.663   9.725
 1053POPC   GL118157   1.384  20.465   9.214
 1053POPC   GL218158   1.285  20.739   9.053
 1053POPC   C1A18159   1.228  20.331   8.752
 1053POPC   D2A18160   1.196  20.099   8.328
 1053POPC   C3A18161   0.999  20.270   7.938
 1053POPC   C4A18162   1.063  20.687   7.709
 1053POPC   C1B18163   1.308  20.851   8.665
 1053POPC   C2B18164   1.290  20.843   8.254
 1053POPC   C3B18165   1.409  21.053   7.923
 1053POPC   C4B18166   1.402  21.028   7.485
 1054POPC   NC318167  43.539  30.692   9.358
 1054POPC   PO418168  43.094  31.069   9.750
 1054POPC   GL118169  43.001  30.958   9.302
 1054POPC   GL218170  42.961  30.597   9.237
 1054POPC   C1A18171  43.184  30.908   8.853
 1054POPC   D2A18172  43.455  30.683   8.541
 1054POPC   C3A18173  43.302  30.528   8.119
 1054POPC   C4A18174  43.290  30.721   7.738
 1054POPC   C1B18175  42.797  30.597   8.774
 1054POPC   C2B18176  42.913  30.773   8.368
 1054POPC   C3B18177  42.801  30.640   7.938
 1054POPC   C4B18178  42.894  30.475   7.486
 1055POPC   NC318179   0.159  25.503   9.543
 1055POPC   PO418180   0.734  25.183   9.503
 1055POPC   GL118181   0.621  25.065   9.100
 1055POPC   GL218182   0.308  25.245   9.110
 1055POPC   C1A18183   0.652  25.258   8.675
 1055POPC   D2A18184   0.703  25.451   8.306
 1055POPC   C3A18185   0.732  25.257   7.902
 1055POPC   C4A18186   0.722  25.409   7.454
 1055POPC   C1B18187   0.235  24.986   8.740
 1055POPC   C2B18188   0.243  25.219   8.342
 1055POPC   C3B18189   0.268  25.456   7.955
 1055POPC   C4B18190   0.302  25.164   7.617
 1056POPC   NC318191  40.916  44.274   9.827
 1056POPC   PO418192  40.753  44.815   9.363
 1056POPC   GL118193  40.820  44.711   8.991
 1056POPC   GL218194  40.506  44.702   8.882
 1056POPC   C1A18195  40.870  44.437   8.668
 1056POPC   D2A18196  40.891  44.594   8.282
 1056POPC   C3A18197  40.970  44.300   8.019
 1056POPC   C4A18198  41.162  44.366   7.671
 1056POPC   C1B18199  40.393  44.624   8.513
 1056POPC   C2B18200  40.468  44.842   8.206
 1056POPC   C3B18201  40.561  44.668   7.860
 1056POPC   C4B18202  40.613  44.854   7.488
 1057POPC   NC318203  13.665  22.586   9.827
 1057POPC   PO418204  13.659  23.225   9.455
 1057POPC   GL118205  13.452  23.182   9.142
 1057POPC   GL218206  13.758  23.062   8.956
 1057POPC   C1A18207  13.297  23.061   8.799
 1057POPC   D2A18208  13.590  22.978   8.478
 1057POPC   C3A18209  13.453  22.994   8.098
 1057POPC   C4A18210  13.243  23.097   7.723
 1057POPC   C1B18211  14.000  22.775   8.718
 1057POPC   C2B18212  14.108  22.566   8.345
 1057POPC   C3B18213  13.946  22.488   7.925
 1057POPC   C4B18214  13.663  22.773   7.695
 1058POPC   NC318215   5.307  24.239   9.774
 1058POPC   PO418216   4.955  23.772   9.425
 1058POPC   GL118217   5.272  23.707   9.081
 1058POPC   GL218218   5.041  23.799   8.882
 1058POPC   C1A18219   5.260  23.372   8.721
 1058POPC   D2A18220   5.210  23.183   8.298
 1058POPC   C3A18221   5.026  23.407   7.978
 1058POPC   C4A18222   5.208  23.473   7.606
 1058POPC   C1B18223   5.411  23.866   8.616
 1058POPC   C2B18224   5.363  23.692   8.214
 1058POPC   C3B18225   5.174  23.893   7.876
 1058POPC   C4B18226   4.881  24.226   7.813
 1059POPC   NC318227   4.529  34.730   9.928
 1059POPC   PO418228   4.315  34.335   9.389
 1059POPC   GL118229   4.357  34.692   9.105
 1059POPC   GL218230   4.026  34.695   8.952
 1059POPC   C1A18231   4.434  34.736   8.654
 1059POPC   D2A18232   4.476  34.462   8.346
 1059POPC   C3A18233   4.374  34.616   7.977
 1059POPC   C4A18234   4.056  34.562   7.697
 1059POPC   C1B18235   4.047  35.042   8.693
 1059POPC   C2B18236   4.217  35.047   8.282
 1059POPC   C3B18237   3.981  35.013   7.916
 1059POPC   C4B18238   4.063  35.173   7.478
 1060POPC   NC318239  28.937   9.004   9.187
 1060POPC   PO418240  28.490   9.288   9.646
 1060POPC   GL118241  28.390   9.115   9.227
 1060POPC   GL218242  28.478   8.806   9.100
 1060POPC   C1A18243  28.176   9.110   8.805
 1060POPC   D2A18244  28.234   9.042   8.350
 1060POPC   C3A18245  28.122   9.154   7.943
 1060POPC   C4A18246  28.114   8.783   7.647
 1060POPC   C1B18247  28.606   8.842   8.647
 1060POPC   C2B18248  28.671   8.782   8.207
 1060POPC   C3B18249  28.628   8.994   7.806
 1060POPC   C4B18250  28.807   9.201   7.427
 1061POPC   NC318251  22.576  37.865   9.610
 1061POPC   PO418252  23.219  37.677   9.540
 1061POPC   GL118253  22.891  37.653   9.210
 1061POPC   GL218254  22.852  37.970   9.178
 1061POPC   C1A18255  22.703  37.672   8.769
 1061POPC   D2A18256  22.789  37.445   8.394
 1061POPC   C3A18257  22.805  37.605   7.975
 1061POPC   C4A18258  22.962  37.377   7.653
 1061POPC   C1B18259  23.153  37.920   8.846
 1061POPC   C2B18260  23.204  38.015   8.395
 1061POPC   C3B18261  23.209  37.971   7.948
 1061POPC   C4B18262  23.037  37.871   7.524
 1062POPC   NC318263  32.425  44.353   9.533
 1062POPC   PO418264  32.193  43.660   9.511
 1062POPC   GL118265  32.237  43.925   9.170
 1062POPC   GL218266  32.102  44.247   9.147
 1062POPC   C1A18267  32.397  43.934   8.758
 1062POPC   D2A18268  32.270  44.047   8.343
 1062POPC   C3A18269  32.458  43.783   8.029
 1062POPC   C4A18270  32.690  43.881   7.673
 1062POPC   C1B18271  31.920  44.089   8.772
 1062POPC   C2B18272  31.761  43.867   8.410
 1062POPC   C3B18273  31.885  43.904   7.991
 1062POPC   C4B18274  31.768  44.310   7.805
 1063POPC   NC318275   0.935  16.554   9.745
 1063POPC   PO418276   1.579  16.677   9.584
 1063POPC   GL118277   1.398  16.620   9.177
 1063POPC   GL218278   1.069  16.630   9.249
 1063POPC   C1A18279   1.437  16.491   8.753
 1063POPC   D2A18280   1.494  16.713   8.383
 1063POPC   C3A18281   1.404  16.646   7.961
 1063POPC   C4A18282   1.256  16.452   7.597
 1063POPC   C1B18283   0.914  16.506   8.858
 1063POPC   C2B18284   1.007  16.537   8.415
 1063POPC   C3B18285   0.886  16.593   7.958
 1063POPC   C4B18286   0.746  16.364   7.598
 1064POPC   NC318287  32.859  37.268   9.441
 1064POPC   PO418288  33.339  37.722   9.559
 1064POPC   GL118289  33.135  37.803   9.167
 1064POPC   GL218290  33.073  37.494   9.031
 1064POPC   C1A18291  33.260  37.951   8.787
 1064POPC   D2A18292  33.144  37.639   8.491
 1064POPC   C3A18293  33.019  37.817   8.111
 1064POPC   C4A18294  33.097  37.952   7.707
 1064POPC   C1B18295  32.702  37.370   8.800
 1064POPC   C2B18296  32.723  37.346   8.382
 1064POPC   C3B18297  33.011  37.322   8.042
 1064POPC   C4B18298  32.804  37.520   7.699
 1065POPC   NC318299   3.361  40.953   9.710
 1065POPC   PO418300   3.350  40.405   9.413
 1065POPC   GL118301   3.564  40.613   9.079
 1065POPC   GL218302   3.556  40.912   8.812
 1065POPC   C1A18303   3.686  40.438   8.713
 1065POPC   D2A18304   3.829  40.662   8.374
 1065POPC   C3A18305   3.676  40.486   7.994
 1065POPC   C4A18306   3.650  40.550   7.552
 1065POPC   C1B18307   3.228  41.189   8.594
 1065POPC   C2B18308   3.085  41.113   8.182
 1065POPC   C3B18309   3.316  40.838   7.894
 1065POPC   C4B18310   3.331  40.957   7.463
 1066POPC   NC318311  23.009  22.657   9.581
 1066POPC   PO418312  22.495  22.980   9.552
 1066POPC   GL118313  22.652  22.733   9.214
 1066POPC   GL218314  23.028  22.812   9.103
 1066POPC   C1A18315  22.657  22.710   8.772
 1066POPC   D2A18316  22.843  23.015   8.498
 1066POPC   C3A18317  22.781  22.929   8.077
 1066POPC   C4A18318  22.700  23.117   7.663
 1066POPC   C1B18319  23.210  23.139   8.839
 1066POPC   C2B18320  23.298  23.254   8.382
 1066POPC   C3B18321  23.184  23.150   7.924
 1066POPC   C4B18322  23.099  22.849   7.560
 1067POPC   NC318323  31.594   5.880   9.935
 1067POPC   PO418324  31.276   5.400   9.504
 1067POPC   GL118325  31.465   5.665   9.202
 1067POPC   GL218326  31.711   5.478   9.062
 1067POPC   C1A18327  31.365   5.881   8.809
 1067POPC   D2A18328  31.202   5.719   8.389
 1067POPC   C3A18329  31.404   5.848   7.987
 1067POPC   C4A18330  31.529   5.915   7.530
 1067POPC   C1B18331  31.541   5.424   8.657
 1067POPC   C2B18332  31.610   5.404   8.242
 1067POPC   C3B18333  31.700   5.466   7.822
 1067POPC   C4B18334  31.499   5.400   7.438
 1068POPC   NC318335  28.801  27.494   9.484
 1068POPC   PO418336  28.152  27.590   9.507
 1068POPC   GL118337  28.397  27.580   9.160
 1068POPC   GL218338  28.433  27.254   9.149
 1068POPC   C1A18339  28.514  27.732   8.749
 1068POPC   D2A18340  28.208  27.837   8.429
 1068POPC   C3A18341  28.377  27.921   8.011
 1068POPC   C4A18342  28.698  27.761   7.752
 1068POPC   C1B18343  28.217  27.322   8.750
 1068POPC   C2B18344  28.418  27.361   8.351
 1068POPC   C3B18345  28.322  27.418   7.924
 1068POPC   C4B18346  28.068  27.255   7.613
 1069POPC   NC318347  26.506  42.628   9.592
 1069POPC   PO418348  27.029  42.252   9.658
 1069POPC   GL118349  26.812  42.296   9.288
 1069POPC   GL218350  26.892  41.970   9.210
 1069POPC   C1A18351  26.731  42.311   8.845
 1069POPC   D2A18352  26.877  42.335   8.406
 1069POPC   C3A18353  26.727  42.515   8.000
 1069POPC   C4A18354  26.954  42.240   7.749
 1069POPC   C1B18355  27.016  41.870   8.796
 1069POPC   C2B18356  26.721  41.843   8.462
 1069POPC   C3B18357  26.564  42.045   8.106
 1069POPC   C4B18358  26.459  42.040   7.668
 1070POPC   NC318359  20.920  11.713   9.371
 1070POPC   PO418360  20.670  11.161   9.660
 1070POPC   GL118361  20.477  11.287   9.206
 1070POPC   GL218362  20.687  11.483   8.955
 1070POPC   C1A18363  20.341  11.111   8.825
 1070POPC   D2A18364  20.576  11.073   8.455
 1070POPC   C3A18365  20.398  11.181   8.076
 1070POPC   C4A18366  20.570  11.400   7.743
 1070POPC   C1B18367  20.246  11.611   8.821
 1070POPC   C2B18368  20.057  11.702   8.436
 1070POPC   C3B18369  20.206  11.656   8.054
 1070POPC   C4B18370  20.214  11.762   7.664
 1071POPC   NC318371   6.816  36.499   9.780
 1071POPC   PO418372   6.571  36.993   9.425
 1071POPC   GL118373   6.778  36.888   9.082
 1071POPC   GL218374   6.806  36.566   9.243
 1071POPC   C1A18375   6.880  37.072   8.683
 1071POPC   D2A18376   6.628  36.905   8.399
 1071POPC   C3A18377   6.504  37.094   8.045
 1071POPC   C4A18378   6.278  36.942   7.729
 1071POPC   C1B18379   6.679  36.478   8.810
 1071POPC   C2B18380   6.914  36.486   8.425
 1071POPC   C3B18381   6.732  36.536   8.057
 1071POPC   C4B18382   6.752  36.764   7.724
 1072POPC   NC318383  41.029  44.414   9.325
 1072POPC   PO418384  40.518  44.107   9.669
 1072POPC   GL118385  40.678  44.060   9.262
 1072POPC   GL218386  40.503  44.358   9.231
 1072POPC   C1A18387  40.814  43.925   8.854
 1072POPC   D2A18388  40.988  43.983   8.440
 1072POPC   C3A18389  40.815  43.770   8.112
 1072POPC   C4A18390  41.031  43.852   7.741
 1072POPC   C1B18391  40.363  44.217   8.824
 1072POPC   C2B18392  40.466  44.091   8.388
 1072POPC   C3B18393  40.493  44.134   7.923
 1072POPC   C4B18394  40.570  43.870   7.564
 1073POPC   NC318395  11.259  42.165   9.631
 1073POPC   PO418396  11.692  42.624   9.762
 1073POPC   GL118397  11.450  42.444   9.271
 1073POPC   GL218398  11.096  42.376   9.166
 1073POPC   C1A18399  11.425  42.586   8.822
 1073POPC   D2A18400  11.272  42.597   8.399
 1073POPC   C3A18401  11.488  42.391   8.038
 1073POPC   C4A18402  11.542  41.953   7.845
 1073POPC   C1B18403  10.954  42.196   8.804
 1073POPC   C2B18404  10.807  42.338   8.398
 1073POPC   C3B18405  10.949  42.459   8.004
 1073POPC   C4B18406  11.150  42.238   7.708
 1074POPC   NC318407  25.909  24.637   9.885
 1074POPC   PO418408  26.281  24.238   9.462
 1074POPC   GL118409  26.135  24.287   9.091
 1074POPC   GL218410  25.792  24.308   9.162
 1074POPC   C1A18411  26.205  24.509   8.746
 1074POPC   D2A18412  26.269  24.335   8.391
 1074POPC   C3A18413  26.060  24.466   8.041
 1074POPC   C4A18414  25.996  24.685   7.684
 1074POPC   C1B18415  25.708  24.601   8.826
 1074POPC   C2B18416  25.678  24.525   8.400
 1074POPC   C3B18417  25.617  24.776   8.040
 1074POPC   C4B18418  25.506  24.704   7.626
 1075POPC   NC318419  37.118  22.702   9.496
 1075POPC   PO418420  36.610  23.040   9.500
 1075POPC   GL118421  36.800  22.879   9.123
 1075POPC   GL218422  37.167  22.911   9.022
 1075POPC   C1A18423  36.748  23.024   8.697
 1075POPC   D2A18424  36.897  22.892   8.304
 1075POPC   C3A18425  36.853  23.134   7.942
 1075POPC   C4A18426  36.914  22.848   7.621
 1075POPC   C1B18427  37.202  23.265   8.693
 1075POPC   C2B18428  37.272  23.260   8.209
 1075POPC   C3B18429  37.337  23.120   7.740
 1075POPC   C4B18430  37.211  23.290   7.301
 1076POPC   NC318431  16.540  40.973   9.543
 1076POPC   PO418432  16.926  40.490   9.545
 1076POPC   GL118433  16.843  40.707   9.157
 1076POPC   GL218434  16.737  41.036   9.082
 1076POPC   C1A18435  16.640  40.652   8.749
 1076POPC   D2A18436  16.553  40.450   8.359
 1076POPC   C3A18437  16.735  40.689   8.027
 1076POPC   C4A18438  16.516  40.653   7.664
 1076POPC   C1B18439  16.907  41.205   8.733
 1076POPC   C2B18440  17.047  41.083   8.326
 1076POPC   C3B18441  16.840  41.214   7.953
 1076POPC   C4B18442  16.728  41.105   7.537
 1077POPC   NC318443   9.218  26.378   9.395
 1077POPC   PO418444   8.739  25.968   9.665
 1077POPC   GL118445   8.787  25.846   9.214
 1077POPC   GL218446   8.916  26.143   9.051
 1077POPC   C1A18447   8.813  25.712   8.779
 1077POPC   D2A18448   8.892  25.963   8.411
 1077POPC   C3A18449   8.964  25.775   8.023
 1077POPC   C4A18450   8.868  25.885   7.598
 1077POPC   C1B18451   8.947  26.416   8.682
 1077POPC   C2B18452   9.098  26.440   8.271
 1077POPC   C3B18453   8.999  26.292   7.883
 1077POPC   C4B18454   9.259  26.190   7.540
 1078POPC   NC318455  24.084  38.344   9.357
 1078POPC   PO418456  23.440  38.668   9.467
 1078POPC   GL118457  23.656  38.567   9.128
 1078POPC   GL218458  23.651  38.243   9.026
 1078POPC   C1A18459  23.913  38.630   8.770
 1078POPC   D2A18460  23.844  38.828   8.365
 1078POPC   C3A18461  24.107  38.751   8.023
 1078POPC   C4A18462  23.955  38.547   7.679
 1078POPC   C1B18463  23.439  38.354   8.698
 1078POPC   C2B18464  23.510  38.433   8.315
 1078POPC   C3B18465  23.599  38.291   7.938
 1078POPC   C4B18466  23.340  38.274   7.551
 1079POPC   NC318467  33.628   4.892   9.521
 1079POPC   PO418468  33.653   5.408   9.388
 1079POPC   GL118469  33.638   5.093   9.022
 1079POPC   GL218470  33.814   4.782   9.050
 1079POPC   C1A18471  33.537   4.874   8.611
 1079POPC   D2A18472  33.730   4.757   8.199
 1079POPC   C3A18473  33.636   4.995   7.811
 1079POPC   C4A18474  33.811   5.239   7.479
 1079POPC   C1B18475  34.038   4.933   8.665
 1079POPC   C2B18476  34.225   4.849   8.246
 1079POPC   C3B18477  34.151   4.926   7.802
 1079POPC   C4B18478  34.181   4.884   7.348
 1080POPC   NC318479   4.889   3.284   9.449
 1080POPC   PO418480   4.287   3.058   9.442
 1080POPC   GL118481   4.386   3.282   9.066
 1080POPC   GL218482   4.596   3.559   9.143
 1080POPC   C1A18483   4.325   3.237   8.617
 1080POPC   D2A18484   4.096   3.210   8.236
 1080POPC   C3A18485   4.292   3.370   7.901
 1080POPC   C4A18486   4.393   3.248   7.492
 1080POPC   C1B18487   4.466   3.721   8.761
 1080POPC   C2B18488   4.419   3.665   8.312
 1080POPC   C3B18489   4.261   3.872   7.915
 1080POPC   C4B18490   4.163   3.719   7.480
 1081POPC   NC318491  44.144   7.152   9.599
 1081POPC   PO418492  43.505   7.125   9.437
 1081POPC   GL118493  43.802   7.312   9.160
 1081POPC   GL218494  43.880   7.677   9.229
 1081POPC   C1A18495  43.958   7.220   8.751
 1081POPC   D2A18496  44.166   7.023   8.405
 1081POPC   C3A18497  44.034   7.186   8.055
 1081POPC   C4A18498  43.905   7.104   7.689
 1081POPC   C1B18499  43.994   7.736   8.793
 1081POPC   C2B18500  43.860   7.576   8.372
 1081POPC   C3B18501  43.992   7.666   7.914
 1081POPC   C4B18502  44.052   7.599   7.449
 1082POPC   NC318503  36.365  34.473   9.636
 1082POPC   PO418504  35.804  34.754   9.398
 1082POPC   GL118505  36.138  34.632   9.155
 1082POPC   GL218506  36.094  34.290   9.238
 1082POPC   C1A18507  36.154  34.746   8.717
 1082POPC   D2A18508  35.867  34.770   8.366
 1082POPC   C3A18509  36.114  34.757   8.018
 1082POPC   C4A18510  36.159  34.521   7.646
 1082POPC   C1B18511  36.168  34.240   8.809
 1082POPC   C2B18512  36.254  34.363   8.366
 1082POPC   C3B18513  36.327  34.140   7.981
 1082POPC   C4B18514  36.478  34.157   7.566
 1083POPC   NC318515  27.911  37.988   9.536
 1083POPC   PO418516  27.679  37.357   9.606
 1083POPC   GL118517  27.634  37.581   9.168
 1083POPC   GL218518  27.669  37.942   9.085
 1083POPC   C1A18519  27.503  37.584   8.718
 1083POPC   D2A18520  27.717  37.492   8.321
 1083POPC   C3A18521  27.461  37.485   7.959
 1083POPC   C4A18522  27.194  37.808   7.829
 1083POPC   C1B18523  27.723  38.054   8.633
 1083POPC   C2B18524  27.550  37.966   8.219
 1083POPC   C3B18525  27.692  37.981   7.800
 1083POPC   C4B18526  27.921  37.837   7.442
 1084POPC   NC318527  21.968  10.493   9.874
 1084POPC   PO418528  22.412  10.424   9.252
 1084POPC   GL118529  22.163  10.685   9.023
 1084POPC   GL218530  21.894  10.900   9.211
 1084POPC   C1A18531  22.285  10.650   8.634
 1084POPC   D2A18532  22.273  10.367   8.329
 1084POPC   C3A18533  22.314  10.649   8.014
 1084POPC   C4A18534  22.262  10.376   7.707
 1084POPC   C1B18535  21.830  10.968   8.760
 1084POPC   C2B18536  21.823  10.652   8.420
 1084POPC   C3B18537  21.835  10.530   8.007
 1084POPC   C4B18538  21.876  10.931   7.874
 1085POPC   NC318539  35.040  38.030   9.216
 1085POPC   PO418540  35.161  37.484   9.548
 1085POPC   GL118541  35.296  37.603   9.109
 1085POPC   GL218542  35.574  37.839   9.032
 1085POPC   C1A18543  35.444  37.512   8.690
 1085POPC   D2A18544  35.651  37.700   8.360
 1085POPC   C3A18545  35.547  37.590   7.954
 1085POPC   C4A18546  35.366  37.725   7.571
 1085POPC   C1B18547  35.411  38.004   8.676
 1085POPC   C2B18548  35.122  37.820   8.402
 1085POPC   C3B18549  35.131  37.915   7.996
 1085POPC   C4B18550  35.150  38.209   7.656
 1086POPC   NC318551   8.431  11.815   9.230
 1086POPC   PO418552   8.094  12.066   9.783
 1086POPC   GL118553   8.126  12.195   9.262
 1086POPC   GL218554   8.023  11.998   8.993
 1086POPC   C1A18555   8.367  12.393   8.867
 1086POPC   D2A18556   8.309  12.463   8.403
 1086POPC   C3A18557   8.529  12.253   8.084
 1086POPC   C4A18558   8.455  11.870   7.886
 1086POPC   C1B18559   7.891  12.320   8.708
 1086POPC   C2B18560   7.746  12.207   8.355
 1086POPC   C3B18561   8.027  12.128   8.086
 1086POPC   C4B18562   8.168  12.282   7.734
 1087POPC   NC318563  35.092  28.848   9.650
 1087POPC   PO418564  35.462  29.373   9.488
 1087POPC   GL118565  35.357  29.079   9.170
 1087POPC   GL218566  35.009  29.009   9.163
 1087POPC   C1A18567  35.366  28.917   8.731
 1087POPC   D2A18568  35.536  28.929   8.302
 1087POPC   C3A18569  35.325  29.116   7.978
 1087POPC   C4A18570  35.065  29.521   8.045
 1087POPC   C1B18571  34.992  29.262   8.789
 1087POPC   C2B18572  35.024  29.092   8.375
 1087POPC   C3B18573  34.816  29.088   7.939
 1087POPC   C4B18574  35.032  28.959   7.551
 1088POPC   NC318575   9.332  20.761   9.456
 1088POPC   PO418576   9.790  20.384   9.768
 1088POPC   GL118577   9.795  20.569   9.316
 1088POPC   GL218578  10.064  20.519   9.139
 1088POPC   C1A18579   9.644  20.651   8.862
 1088POPC   D2A18580   9.716  20.904   8.476
 1088POPC   C3A18581   9.628  20.728   8.063
 1088POPC   C4A18582   9.874  20.610   7.717
 1088POPC   C1B18583  10.139  20.656   8.754
 1088POPC   C2B18584  10.293  20.651   8.362
 1088POPC   C3B18585  10.228  20.850   8.002
 1088POPC   C4B18586  10.167  21.037   7.614
 1089POPC   NC318587   9.365   9.751   9.641
 1089POPC   PO418588   9.984   9.820   9.584
 1089POPC   GL118589   9.763   9.834   9.217
 1089POPC   GL218590   9.557  10.123   9.220
 1089POPC   C1A18591   9.879   9.679   8.820
 1089POPC   D2A18592   9.724   9.632   8.402
 1089POPC   C3A18593   9.828   9.448   8.013
 1089POPC   C4A18594   9.640   9.512   7.629
 1089POPC   C1B18595   9.796  10.210   8.828
 1089POPC   C2B18596  10.011  10.061   8.449
 1089POPC   C3B18597   9.863   9.974   8.025
 1089POPC   C4B18598   9.649  10.008   7.617
 1090POPC   NC318599  28.849   5.594   9.516
 1090POPC   PO418600  29.557   5.737   9.568
 1090POPC   GL118601  29.321   5.858   9.203
 1090POPC   GL218602  28.994   6.014   9.196
 1090POPC   C1A18603  29.360   5.737   8.768
 1090POPC   D2A18604  29.248   5.555   8.376
 1090POPC   C3A18605  29.103   5.752   8.002
 1090POPC   C4A18606  29.329   5.726   7.605
 1090POPC   C1B18607  29.120   6.186   8.822
 1090POPC   C2B18608  29.051   6.074   8.428
 1090POPC   C3B18609  29.164   6.262   8.075
 1090POPC   C4B18610  29.038   6.155   7.694
 1091POPC   NC318611   5.195  28.957   9.586
 1091POPC   PO418612   4.844  29.358   9.237
 1091POPC   GL118613   4.997  29.016   9.101
 1091POPC   GL218614   5.324  28.972   9.079
 1091POPC   C1A18615   4.995  29.034   8.670
 1091POPC   D2A18616   5.117  29.246   8.339
 1091POPC   C3A18617   5.006  28.965   8.038
 1091POPC   C4A18618   4.855  29.263   7.734
 1091POPC   C1B18619   5.509  29.084   8.651
 1091POPC   C2B18620   5.517  28.982   8.203
 1091POPC   C3B18621   5.391  29.175   7.789
 1091POPC   C4B18622   5.173  28.935   7.497
 1092POPC   NC318623  23.548   3.293   9.363
 1092POPC   PO418624  24.054   3.297   9.123
 1092POPC   GL118625  23.720   2.974   8.954
 1092POPC   GL218626  23.409   2.840   9.120
 1092POPC   C1A18627  23.641   2.621   8.649
 1092POPC   D2A18628  23.715   2.522   8.186
 1092POPC   C3A18629  23.719   2.876   7.886
 1092POPC   C4A18630  23.405   3.232   7.859
 1092POPC   C1B18631  23.162   2.814   8.724
 1092POPC   C2B18632  23.226   2.625   8.309
 1092POPC   C3B18633  23.241   2.726   7.878
 1092POPC   C4B18634  23.411   2.502   7.532
 1093POPC   NC318635   9.409  19.781   9.274
 1093POPC   PO418636   8.818  19.509   9.392
 1093POPC   GL118637   8.922  19.758   9.060
 1093POPC   GL218638   9.030  20.058   9.019
 1093POPC   C1A18639   8.837  19.729   8.626
 1093POPC   D2A18640   8.895  20.094   8.396
 1093POPC   C3A18641   9.011  20.000   7.995
 1093POPC   C4A18642   9.154  19.889   7.583
 1093POPC   C1B18643   9.329  19.982   8.673
 1093POPC   C2B18644   9.282  19.714   8.349
 1093POPC   C3B18645   9.464  19.779   7.988
 1093POPC   C4B18646   9.486  19.501   7.663
 1094POPC   NC318647  23.437   6.232   9.529
 1094POPC   PO418648  23.962   5.777   9.689
 1094POPC   GL118649  23.840   5.988   9.269
 1094POPC   GL218650  23.523   5.882   9.172
 1094POPC   C1A18651  23.865   6.110   8.794
 1094POPC   D2A18652  23.666   6.184   8.358
 1094POPC   C3A18653  23.774   5.885   8.005
 1094POPC   C4A18654  24.092   5.567   7.888
 1094POPC   C1B18655  23.413   5.861   8.753
 1094POPC   C2B18656  23.335   5.765   8.322
 1094POPC   C3B18657  23.458   5.511   7.932
 1094POPC   C4B18658  23.466   5.700   7.515
 1095POPC   NC318659   1.103   0.933   9.306
 1095POPC   PO418660   1.575   1.405   9.508
 1095POPC   GL118661   1.334   1.379   9.108
 1095POPC   GL218662   0.966   1.394   9.144
 1095POPC   C1A18663   1.286   1.158   8.691
 1095POPC   D2A18664   1.363   0.834   8.367
 1095POPC   C3A18665   1.497   1.007   7.986
 1095POPC   C4A18666   1.371   1.465   7.854
 1095POPC   C1B18667   0.850   1.462   8.738
 1095POPC   C2B18668   0.810   1.206   8.401
 1095POPC   C3B18669   1.008   1.136   8.035
 1095POPC   C4B18670   1.141   1.092   7.609
 1096POPC   NC318671  17.819   6.068   9.610
 1096POPC   PO418672  18.332   5.850   9.608
 1096POPC   GL118673  18.385   5.881   9.147
 1096POPC   GL218674  18.029   5.824   9.075
 1096POPC   C1A18675  18.286   6.077   8.704
 1096POPC   D2A18676  18.095   6.096   8.267
 1096POPC   C3A18677  18.379   5.918   7.931
 1096POPC   C4A18678  18.644   5.535   7.923
 1096POPC   C1B18679  17.794   5.890   8.656
 1096POPC   C2B18680  17.712   5.751   8.209
 1096POPC   C3B18681  17.876   5.891   7.805
 1096POPC   C4B18682  17.939   5.746   7.371
 1097POPC   NC318683  37.849  11.421   9.654
 1097POPC   PO418684  38.415  11.575   9.586
 1097POPC   GL118685  38.126  11.685   9.220
 1097POPC   GL218686  37.860  11.416   9.138
 1097POPC   C1A18687  38.117  11.591   8.760
 1097POPC   D2A18688  37.869  11.608   8.367
 1097POPC   C3A18689  37.996  11.394   7.979
 1097POPC   C4A18690  37.858  10.969   7.814
 1097POPC   C1B18691  37.870  11.161   8.700
 1097POPC   C2B18692  37.682  11.125   8.266
 1097POPC   C3B18693  37.504  11.336   7.842
 1097POPC   C4B18694  37.348  11.341   7.389
 1098POPC   NC318695  36.974   4.632   9.377
 1098POPC   PO418696  36.802   4.023   9.455
 1098POPC   GL118697  36.963   4.206   9.098
 1098POPC   GL218698  37.299   4.271   9.186
 1098POPC   C1A18699  37.075   4.321   8.673
 1098POPC   D2A18700  36.911   4.066   8.336
 1098POPC   C3A18701  36.943   4.317   7.973
 1098POPC   C4A18702  37.003   4.624   7.639
 1098POPC   C1B18703  37.295   3.911   8.871
 1098POPC   C2B18704  37.436   3.943   8.438
 1098POPC   C3B18705  37.300   3.948   7.982
 1098POPC   C4B18706  37.179   3.868   7.520
 1099POPC   NC318707  34.889  25.746   9.283
 1099POPC   PO418708  35.370  26.020   9.672
 1099POPC   GL118709  35.275  26.101   9.256
 1099POPC   GL218710  35.043  26.386   9.229
 1099POPC   C1A18711  35.406  25.899   8.859
 1099POPC   D2A18712  35.296  26.025   8.434
 1099POPC   C3A18713  35.437  25.866   8.033
 1099POPC   C4A18714  35.185  25.710   7.729
 1099POPC   C1B18715  35.266  26.394   8.826
 1099POPC   C2B18716  35.149  26.528   8.411
 1099POPC   C3B18717  35.042  26.380   8.009
 1099POPC   C4B18718  35.227  26.215   7.675
 1100POPC   NC318719  38.121  21.560   9.534
 1100POPC   PO418720  38.639  21.202   9.460
 1100POPC   GL118721  38.358  21.326   9.136
 1100POPC   GL218722  38.114  21.068   9.103
 1100POPC   C1A18723  38.328  21.557   8.759
 1100POPC   D2A18724  38.516  21.464   8.369
 1100POPC   C3A18725  38.388  21.594   7.968
 1100POPC   C4A18726  38.560  21.659   7.542
 1100POPC   C1B18727  38.227  21.066   8.618
 1100POPC   C2B18728  38.393  21.031   8.158
 1100POPC   C3B18729  38.407  21.059   7.676
 1100POPC   C4B18730  38.250  20.894   7.223
 1101POPC   NC318731  35.949  21.757   9.434
 1101POPC   PO418732  36.516  21.362   9.519
 1101POPC   GL118733  36.309  21.476   9.151
 1101POPC   GL218734  36.185  21.178   9.011
 1101POPC   C1A18735  36.061  21.635   8.785
 1101POPC   D2A18736  35.849  21.530   8.369
 1101POPC   C3A18737  35.906  21.159   8.084
 1101POPC   C4A18738  36.120  21.284   7.704
 1101POPC   C1B18739  36.383  21.267   8.597
 1101POPC   C2B18740  36.405  21.286   8.156
 1101POPC   C3B18741  36.655  20.982   7.932
 1101POPC   C4B18742  36.336  20.842   7.752
 1102POPC   NC318743  44.408   0.219   9.468
 1102POPC   PO418744  44.902   0.710   9.388
 1102POPC   GL118745  44.625   0.545   9.113
 1102POPC   GL218746  44.847   0.249   9.065
 1102POPC   C1A18747  44.571   0.475   8.674
 1102POPC   D2A18748  44.705   0.188   8.348
 1102POPC   C3A18749  44.407   0.176   8.004
 1102POPC   C4A18750  44.171   0.501   7.844
 1102POPC   C1B18751   0.089   0.519   8.741
 1102POPC   C2B18752  44.984   0.606   8.307
 1102POPC   C3B18753  44.818   0.505   7.909
 1102POPC   C4B18754  44.871   0.670   7.512
 1103POPC   NC318755  16.840  40.011   9.572
 1103POPC   PO418756  16.147  39.864   9.596
 1103POPC   GL118757  16.441  39.907   9.257
 1103POPC   GL218758  16.554  40.265   9.203
 1103POPC   C1A18759  16.594  39.792   8.844
 1103POPC   D2A18760  16.408  39.900   8.449
 1103POPC   C3A18761  16.572  39.799   8.031
 1103POPC   C4A18762  16.516  40.123   7.724
 1103POPC   C1B18763  16.890  40.227   8.881
 1103POPC   C2B18764  16.907  40.047   8.468
 1103POPC   C3B18765  16.916  40.185   8.047
 1103POPC   C4B18766  16.952  40.382   7.669
 1104POPC   NC318767  29.666  37.581   9.587
 1104POPC   PO418768  30.366  37.644   9.348
 1104POPC   GL118769  30.089  37.861   9.018
 1104POPC   GL218770  29.706  37.944   9.110
 1104POPC   C1A18771  30.184  37.865   8.533
 1104POPC   D2A18772  30.111  37.915   8.069
 1104POPC   C3A18773  29.898  37.536   7.904
 1104POPC   C4A18774  29.499  37.395   7.950
 1104POPC   C1B18775  29.670  37.831   8.676
 1104POPC   C2B18776  29.615  38.011   8.278
 1104POPC   C3B18777  29.628  37.966   7.829
 1104POPC   C4B18778  29.685  38.050   7.420
 1105POPC   NC318779   7.577  26.008   9.536
 1105POPC   PO418780   7.335  26.638   9.522
 1105POPC   GL118781   7.361  26.301   9.157
 1105POPC   GL218782   7.635  26.040   9.036
 1105POPC   C1A18783   7.099  26.090   8.831
 1105POPC   D2A18784   6.973  26.148   8.362
 1105POPC   C3A18785   7.347  26.133   8.140
 1105POPC   C4A18786   7.549  26.046   7.782
 1105POPC   C1B18787   7.548  25.997   8.586
 1105POPC   C2B18788   7.847  26.002   8.234
 1105POPC   C3B18789   7.963  25.762   7.861
 1105POPC   C4B18790   7.867  25.829   7.418
 1106POPC   NC318791  19.492  39.838   9.470
 1106POPC   PO418792  20.099  40.075   9.666
 1106POPC   GL118793  20.027  40.110   9.222
 1106POPC   GL218794  20.221  40.381   9.121
 1106POPC   C1A18795  19.809  39.907   8.857
 1106POPC   D2A18796  19.599  40.041   8.477
 1106POPC   C3A18797  19.664  39.758   8.156
 1106POPC   C4A18798  19.942  39.656   7.836
 1106POPC   C1B18799  20.231  40.151   8.715
 1106POPC   C2B18800  20.190  39.893   8.302
 1106POPC   C3B18801  20.161  40.123   7.895
 1106POPC   C4B18802  20.098  40.377   7.508
 1107POPC   NC318803  27.601   6.775   9.509
 1107POPC   PO418804  28.078   6.260   9.691
 1107POPC   GL118805  27.917   6.478   9.260
 1107POPC   GL218806  27.538   6.450   9.113
 1107POPC   C1A18807  27.894   6.786   8.898
 1107POPC   D2A18808  27.687   6.833   8.489
 1107POPC   C3A18809  27.803   6.583   8.125
 1107POPC   C4A18810  27.590   6.649   7.726
 1107POPC   C1B18811  27.242   6.482   8.746
 1107POPC   C2B18812  27.036   6.426   8.322
 1107POPC   C3B18813  27.108   6.409   7.860
 1107POPC   C4B18814  27.342   6.256   7.499
 1108POPC   NC318815   6.608  25.840   9.425
 1108POPC   PO418816   6.693  26.460   9.511
 1108POPC   GL118817   6.466  26.248   9.150
 1108POPC   GL218818   6.316  25.917   9.005
 1108POPC   C1A18819   6.588  26.189   8.681
 1108POPC   D2A18820   6.537  25.813   8.375
 1108POPC   C3A18821   6.588  25.966   7.979
 1108POPC   C4A18822   6.941  26.176   7.824
 1108POPC   C1B18823   6.746  25.736   8.830
 1108POPC   C2B18824   7.064  25.671   8.486
 1108POPC   C3B18825   7.037  25.716   8.029
 1108POPC   C4B18826   7.085  25.790   7.545
 1109POPC   NC318827  35.645  35.183   9.465
 1109POPC   PO418828  36.321  35.355   9.583
 1109POPC   GL118829  36.136  35.425   9.204
 1109POPC   GL218830  35.997  35.122   9.086
 1109POPC   C1A18831  36.107  35.516   8.767
 1109POPC   D2A18832  36.190  35.207   8.432
 1109POPC   C3A18833  36.181  35.265   7.993
 1109POPC   C4A18834  36.313  35.027   7.636
 1109POPC   C1B18835  35.748  35.135   8.717
 1109POPC   C2B18836  35.728  35.319   8.289
 1109POPC   C3B18837  35.713  35.169   7.843
 1109POPC   C4B18838  35.795  34.840   7.545
 1110POPC   NC318839  12.417  41.087   9.467
 1110POPC   PO418840  13.057  40.761   9.562
 1110POPC   GL118841  13.029  40.872   9.159
 1110POPC   GL218842  12.870  41.168   9.237
 1110POPC   C1A18843  12.980  40.787   8.723
 1110POPC   D2A18844  13.180  40.786   8.319
 1110POPC   C3A18845  13.115  40.452   8.028
 1110POPC   C4A18846  12.737  40.556   7.807
 1110POPC   C1B18847  12.647  41.182   8.865
 1110POPC   C2B18848  12.471  41.139   8.477
 1110POPC   C3B18849  12.649  40.942   8.142
 1110POPC   C4B18850  12.507  41.074   7.752
 1111POPC   NC318851  33.450  21.213   9.466
 1111POPC   PO418852  34.124  21.366   9.359
 1111POPC   GL118853  33.785  21.419   9.131
 1111POPC   GL218854  33.638  21.672   9.276
 1111POPC   C1A18855  33.624  21.267   8.765
 1111POPC   D2A18856  33.948  21.197   8.478
 1111POPC   C3A18857  33.892  21.173   8.045
 1111POPC   C4A18858  34.126  21.259   7.689
 1111POPC   C1B18859  33.608  21.796   8.852
 1111POPC   C2B18860  33.731  21.673   8.467
 1111POPC   C3B18861  33.649  21.741   8.078
 1111POPC   C4B18862  33.749  21.589   7.729
 1112POPC   NC318863  16.172  12.219   9.622
 1112POPC   PO418864  15.683  11.871   9.781
 1112POPC   GL118865  15.873  11.950   9.313
 1112POPC   GL218866  15.964  12.283   9.124
 1112POPC   C1A18867  16.104  11.841   8.928
 1112POPC   D2A18868  15.999  11.802   8.481
 1112POPC   C3A18869  16.366  11.807   8.242
 1112POPC   C4A18870  16.264  11.837   7.804
 1112POPC   C1B18871  15.713  12.489   8.784
 1112POPC   C2B18872  15.922  12.312   8.480
 1112POPC   C3B18873  16.192  12.275   8.159
 1112POPC   C4B18874  16.091  12.355   7.755
 1113POPC   NC318875   5.612  37.652   9.616
 1113POPC   PO418876   6.176  37.994   9.541
 1113POPC   GL118877   5.972  37.768   9.228
 1113POPC   GL218878   5.659  37.907   9.125
 1113POPC   C1A18879   6.001  37.547   8.851
 1113POPC   D2A18880   6.072  37.646   8.434
 1113POPC   C3A18881   5.745  37.735   8.124
 1113POPC   C4A18882   5.760  37.956   7.760
 1113POPC   C1B18883   5.619  37.795   8.668
 1113POPC   C2B18884   5.659  37.364   8.450
 1113POPC   C3B18885   5.503  37.305   7.960
 1113POPC   C4B18886   5.476  37.584   7.552
 1114POPC   NC318887  38.698  20.745   9.479
 1114POPC   PO418888  38.084  20.537   9.490
 1114POPC   GL118889  38.342  20.598   9.131
 1114POPC   GL218890  38.584  20.874   9.008
 1114POPC   C1A18891  38.423  20.463   8.726
 1114POPC   D2A18892  38.579  20.606   8.361
 1114POPC   C3A18893  38.433  20.402   7.992
 1114POPC   C4A18894  38.365  20.554   7.591
 1114POPC   C1B18895  38.739  21.105   8.661
 1114POPC   C2B18896  38.946  20.942   8.295
 1114POPC   C3B18897  38.775  20.772   7.887
 1114POPC   C4B18898  38.788  20.833   7.428
 1115POPC   NC318899  43.207  22.322   9.636
 1115POPC   PO418900  42.673  22.070   9.553
 1115POPC   GL118901  42.930  22.164   9.165
 1115POPC   GL218902  43.304  22.124   9.169
 1115POPC   C1A18903  43.010  22.065   8.695
 1115POPC   D2A18904  42.959  21.810   8.283
 1115POPC   C3A18905  42.886  21.998   7.864
 1115POPC   C4A18906  42.830  22.257   7.485
 1115POPC   C1B18907  43.465  21.843   8.836
 1115POPC   C2B18908  43.498  21.864   8.370
 1115POPC   C3B18909  43.365  21.815   7.904
 1115POPC   C4B18910  43.258  21.953   7.470
 1116POPC   NC318911  36.428  20.249   9.237
 1116POPC   PO418912  36.817  19.792   9.533
 1116POPC   GL118913  36.740  19.767   9.130
 1116POPC   GL218914  36.402  19.684   9.139
 1116POPC   C1A18915  36.894  19.857   8.728
 1116POPC   D2A18916  37.149  20.001   8.399
 1116POPC   C3A18917  37.019  19.856   8.011
 1116POPC   C4A18918  37.110  19.926   7.597
 1116POPC   C1B18919  36.392  19.733   8.695
 1116POPC   C2B18920  36.572  19.871   8.297
 1116POPC   C3B18921  36.549  19.959   7.869
 1116POPC   C4B18922  36.648  20.019   7.416
 1117POPC   NC318923  34.365  33.157   9.513
 1117POPC   PO418924  34.840  32.687   9.426
 1117POPC   GL118925  34.682  32.837   9.055
 1117POPC   GL218926  34.401  33.076   9.009
 1117POPC   C1A18927  34.647  32.816   8.593
 1117POPC   D2A18928  34.441  33.068   8.257
 1117POPC   C3A18929  34.458  32.952   7.803
 1117POPC   C4A18930  34.417  33.136   7.373
 1117POPC   C1B18931  34.808  33.253   8.810
 1117POPC   C2B18932  34.930  33.206   8.394
 1117POPC   C3B18933  34.844  33.231   7.972
 1117POPC   C4B18934  34.899  33.153   7.575
 1118POPC   NC318935  15.114  14.815   9.576
 1118POPC   PO418936  15.384  14.198   9.435
 1118POPC   GL118937  15.156  14.370   9.108
 1118POPC   GL218938  14.923  14.651   9.118
 1118POPC   C1A18939  15.317  14.292   8.718
 1118POPC   D2A18940  15.049  14.327   8.377
 1118POPC   C3A18941  15.291  14.241   8.024
 1118POPC   C4A18942  15.359  14.381   7.609
 1118POPC   C1B18943  15.265  14.778   8.822
 1118POPC   C2B18944  15.381  14.903   8.414
 1118POPC   C3B18945  15.355  14.766   7.981
 1118POPC   C4B18946  15.416  14.948   7.573
 1119POPC   NC318947  17.800  19.635   9.404
 1119POPC   PO418948  17.256  19.678   9.466
 1119POPC   GL118949  17.413  19.732   9.048
 1119POPC   GL218950  17.604  20.025   9.071
 1119POPC   C1A18951  17.368  19.591   8.607
 1119POPC   D2A18952  17.266  19.447   8.170
 1119POPC   C3A18953  17.304  19.738   7.825
 1119POPC   C4A18954  17.457  19.860   7.456
 1119POPC   C1B18955  17.648  20.018   8.610
 1119POPC   C2B18956  17.655  19.798   8.209
 1119POPC   C3B18957  17.769  19.981   7.823
 1119POPC   C4B18958  17.773  20.271   7.496
 1120POPC   NC318959  17.994  42.177   9.387
 1120POPC   PO418960  18.249  42.740   9.493
 1120POPC   GL118961  18.250  42.546   9.107
 1120POPC   GL218962  17.909  42.618   9.130
 1120POPC   C1A18963  18.365  42.205   8.799
 1120POPC   D2A18964  18.548  42.155   8.371
 1120POPC   C3A18965  18.445  42.393   8.001
 1120POPC   C4A18966  18.301  42.187   7.634
 1120POPC   C1B18967  17.861  42.366   8.769
 1120POPC   C2B18968  18.077  42.404   8.393
 1120POPC   C3B18969  17.930  42.384   8.005
 1120POPC   C4B18970  17.795  42.233   7.638
 1121POPC   NC318971  26.415  41.350   9.376
 1121POPC   PO418972  25.846  41.579   9.608
 1121POPC   GL118973  26.044  41.683   9.238
 1121POPC   GL218974  25.962  41.353   9.136
 1121POPC   C1A18975  26.023  41.745   8.787
 1121POPC   D2A18976  26.243  41.695   8.388
 1121POPC   C3A18977  26.122  41.839   7.991
 1121POPC   C4A18978  25.968  41.758   7.581
 1121POPC   C1B18979  25.895  41.134   8.786
 1121POPC   C2B18980  25.986  41.248   8.414
 1121POPC   C3B18981  26.085  41.348   8.042
 1121POPC   C4B18982  25.878  41.267   7.708
 1122POPC   NC318983   2.924  19.431   9.679
 1122POPC   PO418984   2.983  20.105   9.451
 1122POPC   GL118985   2.816  19.900   9.082
 1122POPC   GL218986   2.486  19.945   9.118
 1122POPC   C1A18987   2.903  19.715   8.654
 1122POPC   D2A18988   2.915  19.865   8.204
 1122POPC   C3A18989   3.166  19.666   7.851
 1122POPC   C4A18990   3.166  19.797   7.387
 1122POPC   C1B18991   2.397  19.805   8.714
 1122POPC   C2B18992   2.496  19.562   8.325
 1122POPC   C3B18993   2.545  19.755   7.894
 1122POPC   C4B18994   2.828  20.006   7.690
 1123POPC   NC318995  11.460  14.640   9.780
 1123POPC   PO418996  10.916  14.163   9.770
 1123POPC   GL118997  11.257  14.321   9.422
 1123POPC   GL218998  11.019  14.528   9.228
 1123POPC   C1A18999  11.457  14.557   8.985
 1123POPC   D2A19000  11.186  14.595   8.584
 1123POPC   C3A19001  11.308  14.606   8.118
 1123POPC   C4A19002  11.010  14.572   7.756
 1123POPC   C1B19003  11.147  14.157   8.947
 1123POPC   C2B19004  11.174  14.086   8.490
 1123POPC   C3B19005  11.092  14.132   8.059
 1123POPC   C4B19006  11.351  14.177   7.700
 1124POPC   NC319007  26.029  10.945   9.407
 1124POPC   PO419008  26.288  11.613   9.330
 1124POPC   GL119009  26.107  11.334   9.067
 1124POPC   GL219010  26.364  11.178   8.858
 1124POPC   C1A19011  25.969  11.418   8.666
 1124POPC   D2A19012  26.137  11.202   8.326
 1124POPC   C3A19013  26.028  11.469   8.025
 1124POPC   C4A19014  25.987  11.424   7.632
 1124POPC   C1B19015  25.988  10.904   8.732
 1124POPC   C2B19016  25.783  10.782   8.322
 1124POPC   C3B19017  25.873  10.963   7.894
 1124POPC   C4B19018  25.875  10.978   7.422
 1125POPC   NC319019  23.539  34.902   9.623
 1125POPC   PO419020  24.105  34.648   9.530
 1125POPC   GL119021  23.942  34.700   9.127
 1125POPC   GL219022  23.685  34.950   9.141
 1125POPC   C1A19023  23.939  34.554   8.704
 1125POPC   D2A19024  23.944  34.760   8.303
 1125POPC   C3A19025  23.907  34.454   7.955
 1125POPC   C4A19026  23.520  34.256   7.715
 1125POPC   C1B19027  23.825  35.054   8.738
 1125POPC   C2B19028  23.589  35.155   8.358
 1125POPC   C3B19029  23.381  34.899   8.101
 1125POPC   C4B19030  23.564  34.768   7.766
 1126POPC   NC319031  13.563   9.706   9.722
 1126POPC   PO419032  14.102  10.077   9.481
 1126POPC   GL119033  13.959   9.978   9.109
 1126POPC   GL219034  13.670   9.751   9.194
 1126POPC   C1A19035  14.022  10.021   8.678
 1126POPC   D2A19036  13.738   9.867   8.362
 1126POPC   C3A19037  13.828   9.782   7.945
 1126POPC   C4A19038  13.521  10.049   7.786
 1126POPC   C1B19039  13.432   9.801   8.794
 1126POPC   C2B19040  13.239   9.669   8.405
 1126POPC   C3B19041  13.327   9.620   7.982
 1126POPC   C4B19042  13.080   9.672   7.636
 1127POPC   NC319043  35.964  33.524   9.588
 1127POPC   PO419044  36.472  34.019   9.522
 1127POPC   GL119045  36.213  33.794   9.232
 1127POPC   GL219046  36.410  33.570   9.127
 1127POPC   C1A19047  35.974  33.774   8.833
 1127POPC   D2A19048  36.157  33.818   8.410
 1127POPC   C3A19049  35.921  33.812   8.034
 1127POPC   C4A19050  35.947  34.041   7.621
 1127POPC   C1B19051  36.326  33.416   8.759
 1127POPC   C2B19052  36.505  33.411   8.374
 1127POPC   C3B19053  36.416  33.605   7.975
 1127POPC   C4B19054  36.299  33.690   7.556
 1128POPC   NC319055  41.308   4.764   9.633
 1128POPC   PO419056  41.706   5.416   9.559
 1128POPC   GL119057  41.600   5.274   9.187
 1128POPC   GL219058  41.898   5.428   9.047
 1128POPC   C1A19059  41.685   4.942   8.882
 1128POPC   D2A19060  41.467   4.759   8.515
 1128POPC   C3A19061  41.515   4.945   8.090
 1128POPC   C4A19062  41.432   4.847   7.651
 1128POPC   C1B19063  41.637   5.477   8.721
 1128POPC   C2B19064  41.460   5.379   8.372
 1128POPC   C3B19065  41.618   5.454   7.991
 1128POPC   C4B19066  41.502   5.376   7.610
 1129POPC   NC319067  30.109  17.515   9.566
 1129POPC   PO419068  29.681  17.095   9.758
 1129POPC   GL119069  29.720  17.231   9.257
 1129POPC   GL219070  29.835  17.572   9.135
 1129POPC   C1A19071  29.673  17.246   8.757
 1129POPC   D2A19072  29.844  17.084   8.312
 1129POPC   C3A19073  29.694  17.253   7.894
 1129POPC   C4A19074  29.694  17.121   7.455
 1129POPC   C1B19075  30.121  17.462   8.804
 1129POPC   C2B19076  29.987  17.565   8.387
 1129POPC   C3B19077  29.953  17.713   7.965
 1129POPC   C4B19078  29.981  17.541   7.541
 1130POPC   NC319079   2.212  13.131   9.394
 1130POPC   PO419080   2.683  12.623   9.667
 1130POPC   GL119081   2.671  12.902   9.324
 1130POPC   GL219082   2.432  12.704   9.192
 1130POPC   C1A19083   2.841  12.990   8.900
 1130POPC   D2A19084   2.690  13.054   8.452
 1130POPC   C3A19085   2.827  12.779   8.113
 1130POPC   C4A19086   2.928  12.992   7.740
 1130POPC   C1B19087   2.359  12.822   8.775
 1130POPC   C2B19088   2.434  12.573   8.413
 1130POPC   C3B19089   2.451  12.404   8.014
 1130POPC   C4B19090   2.567  12.631   7.667
 1131POPC   NC319091  34.015  26.092   9.416
 1131POPC   PO419092  33.731  25.523   9.602
 1131POPC   GL119093  33.689  25.772   9.166
 1131POPC   GL219094  33.658  26.154   9.052
 1131POPC   C1A19095  33.739  25.792   8.715
 1131POPC   D2A19096  34.078  25.833   8.415
 1131POPC   C3A19097  33.899  26.075   8.118
 1131POPC   C4A19098  33.949  26.065   7.705
 1131POPC   C1B19099  33.377  26.391   8.750
 1131POPC   C2B19100  33.406  26.355   8.296
 1131POPC   C3B19101  33.391  26.015   8.001
 1131POPC   C4B19102  33.533  25.794   7.623
 1132POPC   NC319103  39.275  44.320   9.744
 1132POPC   PO419104  39.333  43.675   9.384
 1132POPC   GL119105  39.420  43.882   9.028
 1132POPC   GL219106  39.077  43.906   8.949
 1132POPC   C1A19107  39.366  43.827   8.559
 1132POPC   D2A19108  39.391  44.121   8.229
 1132POPC   C3A19109  39.511  43.881   7.881
 1132POPC   C4A19110  39.339  43.965   7.466
 1132POPC   C1B19111  38.820  44.036   8.597
 1132POPC   C2B19112  38.719  44.210   8.205
 1132POPC   C3B19113  38.959  44.174   7.837
 1132POPC   C4B19114  38.846  43.928   7.518
 1133POPC   NC319115  44.497  24.776   9.362
 1133POPC   PO419116  44.721  25.351   9.600
 1133POPC   GL119117  44.607  25.266   9.178
 1133POPC   GL219118  44.828  25.046   9.052
 1133POPC   C1A19119  44.432  25.253   8.743
 1133POPC   D2A19120  44.255  25.455   8.368
 1133POPC   C3A19121  44.323  25.442   7.928
 1133POPC   C4A19122  44.367  25.139   7.610
 1133POPC   C1B19123  44.920  25.383   8.727
 1133POPC   C2B19124  44.766  25.399   8.269
 1133POPC   C3B19125  44.815  25.245   7.828
 1133POPC   C4B19126  44.848  25.121   7.381
 1134POPC   NC319127  27.373  34.131   9.640
 1134POPC   PO419128  27.915  33.783   9.511
 1134POPC   GL119129  27.782  34.031   9.138
 1134POPC   GL219130  27.460  34.034   8.970
 1134POPC   C1A19131  27.897  34.053   8.700
 1134POPC   D2A19132  27.964  34.256   8.313
 1134POPC   C3A19133  27.822  34.027   7.955
 1134POPC   C4A19134  27.418  33.874   7.823
 1134POPC   C1B19135  27.427  33.766   8.569
 1134POPC   C2B19136  27.355  33.500   8.173
 1134POPC   C3B19137  27.074  33.476   7.761
 1134POPC   C4B19138  27.086  33.350   7.251
 1135POPC   NC319139  21.298   5.726   9.498
 1135POPC   PO419140  21.766   6.231   9.399
 1135POPC   GL119141  21.461   6.056   9.141
 1135POPC   GL219142  21.650   5.729   9.142
 1135POPC   C1A19143  21.225   5.887   8.781
 1135POPC   D2A19144  21.003   5.914   8.374
 1135POPC   C3A19145  21.210   6.068   8.053
 1135POPC   C4A19146  21.403   5.767   7.797
 1135POPC   C1B19147  21.753   5.885   8.766
 1135POPC   C2B19148  21.574   5.915   8.385
 1135POPC   C3B19149  21.808   5.723   8.078
 1135POPC   C4B19150  21.998   5.423   7.812
 1136POPC   NC319151  36.238  24.077   9.489
 1136POPC   PO419152  35.782  23.644   9.504
 1136POPC   GL119153  35.979  23.788   9.132
 1136POPC   GL219154  35.875  24.105   9.105
 1136POPC   C1A19155  35.979  23.617   8.716
 1136POPC   D2A19156  35.773  23.563   8.328
 1136POPC   C3A19157  36.032  23.600   7.971
 1136POPC   C4A19158  36.101  23.347   7.601
 1136POPC   C1B19159  35.816  24.131   8.696
 1136POPC   C2B19160  35.938  24.137   8.257
 1136POPC   C3B19161  35.891  24.067   7.815
 1136POPC   C4B19162  36.114  23.841   7.476
 1137POPC   NC319163  27.456  14.356   9.808
 1137POPC   PO419164  26.828  14.291   9.544
 1137POPC   GL119165  26.746  14.304   9.134
 1137POPC   GL219166  27.021  14.148   9.067
 1137POPC   C1A19167  26.836  14.495   8.735
 1137POPC   D2A19168  26.996  14.817   8.455
 1137POPC   C3A19169  26.874  14.636   8.062
 1137POPC   C4A19170  26.744  14.796   7.675
 1137POPC   C1B19171  26.787  13.939   8.761
 1137POPC   C2B19172  26.898  14.077   8.360
 1137POPC   C3B19173  26.659  14.046   7.999
 1137POPC   C4B19174  26.745  14.280   7.653
 1138POPC   NC319175  10.318  37.148   9.470
 1138POPC   PO419176  10.851  36.593   9.533
 1138POPC   GL119177  10.746  36.765   9.103
 1138POPC   GL219178  10.447  36.920   9.053
 1138POPC   C1A19179  10.763  36.866   8.642
 1138POPC   D2A19180  10.968  37.141   8.339
 1138POPC   C3A19181  10.820  37.167   7.908
 1138POPC   C4A19182  10.453  37.111   7.654
 1138POPC   C1B19183  10.305  37.182   8.747
 1138POPC   C2B19184  10.049  37.010   8.431
 1138POPC   C3B19185  10.033  36.746   8.072
 1138POPC   C4B19186  10.264  36.646   7.702
 1139POPC   NC319187  27.717  20.727   9.433
 1139POPC   PO419188  27.904  20.101   9.330
 1139POPC   GL119189  27.716  20.373   9.051
 1139POPC   GL219190  27.376  20.479   9.153
 1139POPC   C1A19191  27.759  20.567   8.658
 1139POPC   D2A19192  27.752  20.529   8.215
 1139POPC   C3A19193  27.626  20.883   8.005
 1139POPC   C4A19194  27.645  20.779   7.582
 1139POPC   C1B19195  27.272  20.389   8.737
 1139POPC   C2B19196  27.271  20.607   8.331
 1139POPC   C3B19197  27.294  20.476   7.902
 1139POPC   C4B19198  27.184  20.096   7.680
 1140POPC   NC319199  40.743  21.176   9.484
 1140POPC   PO419200  41.239  20.891   9.410
 1140POPC   GL119201  41.009  21.115   9.058
 1140POPC   GL219202  40.900  21.469   9.093
 1140POPC   C1A19203  40.823  21.219   8.651
 1140POPC   D2A19204  40.739  21.421   8.282
 1140POPC   C3A19205  40.787  21.211   7.899
 1140POPC   C4A19206  41.059  21.085   7.559
 1140POPC   C1B19207  40.830  21.730   8.716
 1140POPC   C2B19208  40.991  21.892   8.308
 1140POPC   C3B19209  40.804  21.783   7.918
 1140POPC   C4B19210  40.402  21.554   7.901
 1141POPC   NC319211  43.052  10.206   9.670
 1141POPC   PO419212  42.842   9.546   9.651
 1141POPC   GL119213  42.844   9.574   9.235
 1141POPC   GL219214  42.561   9.583   9.097
 1141POPC   C1A19215  43.063   9.607   8.840
 1141POPC   D2A19216  43.001   9.838   8.466
 1141POPC   C3A19217  43.121   9.775   8.064
 1141POPC   C4A19218  42.867   9.612   7.766
 1141POPC   C1B19219  42.700   9.971   8.860
 1141POPC   C2B19220  42.767  10.283   8.466
 1141POPC   C3B19221  42.921  10.393   8.026
 1141POPC   C4B19222  43.036  10.120   7.695
 1142POPC   NC319223  30.506  15.013   9.408
 1142POPC   PO419224  31.002  15.359   9.726
 1142POPC   GL119225  30.856  15.410   9.224
 1142POPC   GL219226  30.488  15.385   9.068
 1142POPC   C1A19227  30.864  15.217   8.794
 1142POPC   D2A19228  30.663  15.303   8.442
 1142POPC   C3A19229  30.701  15.062   8.112
 1142POPC   C4A19230  30.563  15.248   7.761
 1142POPC   C1B19231  30.400  15.002   8.763
 1142POPC   C2B19232  30.311  14.828   8.327
 1142POPC   C3B19233  30.251  14.865   7.855
 1142POPC   C4B19234  30.342  14.974   7.402
 1143POPC   NC319235   2.183  40.167   9.566
 1143POPC   PO419236   1.857  39.584   9.490
 1143POPC   GL119237   1.986  39.859   9.197
 1143POPC   GL219238   1.969  39.640   8.909
 1143POPC   C1A19239   2.078  40.146   8.892
 1143POPC   D2A19240   1.905  40.124   8.503
 1143POPC   C3A19241   2.019  40.223   8.089
 1143POPC   C4A19242   2.156  40.183   7.706
 1143POPC   C1B19243   2.064  39.609   8.471
 1143POPC   C2B19244   1.873  39.734   8.087
 1143POPC   C3B19245   1.996  39.713   7.650
 1143POPC   C4B19246   2.125  39.638   7.197
 1144POPC   NC319247  37.567   2.061   9.703
 1144POPC   PO419248  38.211   2.089   9.730
 1144POPC   GL119249  37.872   2.226   9.309
 1144POPC   GL219250  37.459   2.293   9.246
 1144POPC   C1A19251  37.667   2.044   8.863
 1144POPC   D2A19252  37.520   1.730   8.527
 1144POPC   C3A19253  37.413   1.834   8.094
 1144POPC   C4A19254  37.618   2.080   7.790
 1144POPC   C1B19255  37.292   2.415   8.823
 1144POPC   C2B19256  37.238   2.259   8.366
 1144POPC   C3B19257  37.230   2.376   7.904
 1144POPC   C4B19258  37.327   2.315   7.429
 1145POPC   NC319259   1.391   9.518   9.747
 1145POPC   PO419260   0.837   9.952   9.579
 1145POPC   GL119261   1.134   9.866   9.271
 1145POPC   GL219262   1.153   9.553   9.264
 1145POPC   C1A19263   1.126   9.975   8.834
 1145POPC   D2A19264   0.863   9.906   8.454
 1145POPC   C3A19265   1.056   9.884   8.031
 1145POPC   C4A19266   1.415  10.022   7.789
 1145POPC   C1B19267   1.250   9.478   8.781
 1145POPC   C2B19268   1.142   9.450   8.320
 1145POPC   C3B19269   1.406   9.485   7.926
 1145POPC   C4B19270   1.430   9.501   7.456
 1146POPC   NC319271  33.412  28.520   9.327
 1146POPC   PO419272  34.005  28.312   9.645
 1146POPC   GL119273  33.847  28.207   9.217
 1146POPC   GL219274  33.526  27.984   9.230
 1146POPC   C1A19275  33.896  28.453   8.808
 1146POPC   D2A19276  33.819  28.660   8.375
 1146POPC   C3A19277  33.892  28.480   7.938
 1146POPC   C4A19278  33.808  28.385   7.474
 1146POPC   C1B19279  33.656  27.991   8.787
 1146POPC   C2B19280  33.933  28.079   8.436
 1146POPC   C3B19281  33.823  27.940   8.044
 1146POPC   C4B19282  33.638  27.911   7.635
 1147POPC   NC319283   4.519   2.612   9.454
 1147POPC   PO419284   3.998   2.142   9.390
 1147POPC   GL119285   4.152   2.539   9.091
 1147POPC   GL219286   4.426   2.774   9.004
 1147POPC   C1A19287   3.975   2.837   8.757
 1147POPC   D2A19288   3.702   2.927   8.385
 1147POPC   C3A19289   3.903   2.773   8.027
 1147POPC   C4A19290   4.262   2.833   7.808
 1147POPC   C1B19291   4.639   2.831   8.665
 1147POPC   C2B19292   4.494   2.877   8.266
 1147POPC   C3B19293   4.698   3.099   7.946
 1147POPC   C4B19294   4.871   3.035   7.577
 1148POPC   NC319295   4.454  10.772   9.662
 1148POPC   PO419296   3.990  10.452   9.381
 1148POPC   GL119297   4.417  10.568   9.194
 1148POPC   GL219298   4.187  10.630   8.935
 1148POPC   C1A19299   4.652  10.784   8.836
 1148POPC   D2A19300   4.383  10.739   8.436
 1148POPC   C3A19301   4.553  10.759   7.995
 1148POPC   C4A19302   4.468  10.592   7.558
 1148POPC   C1B19303   4.037  10.332   8.655
 1148POPC   C2B19304   4.211  10.218   8.304
 1148POPC   C3B19305   4.204  10.384   7.919
 1148POPC   C4B19306   4.040  10.290   7.476
 1149POPC   NC319307  28.421  25.553   9.417
 1149POPC   PO419308  28.530  24.935   9.643
 1149POPC   GL119309  28.428  25.090   9.217
 1149POPC   GL219310  28.140  24.938   9.190
 1149POPC   C1A19311  28.546  25.358   8.837
 1149POPC   D2A19312  28.669  25.569   8.488
 1149POPC   C3A19313  28.803  25.296   8.146
 1149POPC   C4A19314  28.560  25.064   7.860
 1149POPC   C1B19315  28.125  25.047   8.781
 1149POPC   C2B19316  28.314  25.194   8.396
 1149POPC   C3B19317  28.157  25.368   8.026
 1149POPC   C4B19318  28.082  25.178   7.615
 1150POPC   NC319319  44.842  43.698   9.493
 1150POPC   PO419320  44.218  44.068   9.501
 1150POPC   GL119321  44.515  43.990   9.207
 1150POPC   GL219322  44.444  43.646   9.137
 1150POPC   C1A19323  44.814  43.979   8.866
 1150POPC   D2A19324   0.007  44.022   8.466
 1150POPC   C3A19325  44.798  43.908   8.101
 1150POPC   C4A19326  44.574  43.917   7.716
 1150POPC   C1B19327  44.555  43.562   8.685
 1150POPC   C2B19328  44.498  43.530   8.235
 1150POPC   C3B19329  44.551  43.430   7.781
 1150POPC   C4B19330  44.789  43.495   7.370
 1151POPC   NC319331   3.350  16.954   9.538
 1151POPC   PO419332   3.701  16.360   9.444
 1151POPC   GL119333   3.576  16.632   9.150
 1151POPC   GL219334   3.236  16.640   9.160
 1151POPC   C1A19335   3.747  16.533   8.755
 1151POPC   D2A19336   3.672  16.259   8.424
 1151POPC   C3A19337   3.621  16.584   8.135
 1151POPC   C4A19338   3.871  16.675   7.787
 1151POPC   C1B19339   3.291  16.828   8.781
 1151POPC   C2B19340   3.364  16.955   8.406
 1151POPC   C3B19341   3.185  16.841   8.045
 1151POPC   C4B19342   3.395  16.800   7.699
 1152POPC   NC319343  20.201  39.557   9.735
 1152POPC   PO419344  20.691  39.139   9.427
 1152POPC   GL119345  20.770  38.993   9.075
 1152POPC   GL219346  20.420  38.849   9.041
 1152POPC   C1A19347  20.806  39.330   8.750
 1152POPC   D2A19348  20.577  39.356   8.394
 1152POPC   C3A19349  20.828  39.351   8.061
 1152POPC   C4A19350  20.688  39.207   7.689
 1152POPC   C1B19351  20.593  38.889   8.611
 1152POPC   C2B19352  20.595  38.892   8.150
 1152POPC   C3B19353  20.627  38.697   7.773
 1152POPC   C4B19354  20.857  38.800   7.436
 1153POPC   NC319355  17.973  23.913   9.436
 1153POPC   PO419356  18.712  24.020   9.458
 1153POPC   GL119357  18.395  23.790   9.170
 1153POPC   GL219358  18.476  23.442   9.150
 1153POPC   C1A19359  18.095  23.973   8.801
 1153POPC   D2A19360  17.887  23.885   8.408
 1153POPC   C3A19361  18.072  23.602   8.091
 1153POPC   C4A19362  18.293  23.674   7.669
 1153POPC   C1B19363  18.345  23.537   8.724
 1153POPC   C2B19364  18.409  23.327   8.349
 1153POPC   C3B19365  18.607  23.458   7.981
 1153POPC   C4B19366  18.845  23.617   7.613
 1154POPC   NC319367  15.219  35.714   9.508
 1154POPC   PO419368  15.661  36.250   9.399
 1154POPC   GL119369  15.309  36.051   9.140
 1154POPC   GL219370  14.941  35.930   9.136
 1154POPC   C1A19371  15.201  36.085   8.718
 1154POPC   D2A19372  15.475  36.171   8.380
 1154POPC   C3A19373  15.209  36.265   8.035
 1154POPC   C4A19374  15.272  36.039   7.679
 1154POPC   C1B19375  14.898  35.662   8.752
 1154POPC   C2B19376  15.119  35.697   8.342
 1154POPC   C3B19377  14.949  35.740   7.940
 1154POPC   C4B19378  14.939  35.699   7.519
 1155POPC   NC319379   7.396  38.082   9.705
 1155POPC   PO419380   7.383  37.467   9.327
 1155POPC   GL119381   7.521  37.541   8.949
 1155POPC   GL219382   7.843  37.395   9.021
 1155POPC   C1A19383   7.327  37.790   8.590
 1155POPC   D2A19384   7.098  37.590   8.256
 1155POPC   C3A19385   7.175  37.739   7.815
 1155POPC   C4A19386   7.258  37.573   7.395
 1155POPC   C1B19387   7.800  37.616   8.549
 1155POPC   C2B19388   7.598  37.678   8.132
 1155POPC   C3B19389   7.644  37.445   7.720
 1155POPC   C4B19390   7.713  37.416   7.237
 1156POPC   NC319391   9.866  14.892   9.451
 1156POPC   PO419392   9.716  14.256   9.368
 1156POPC   GL119393   9.497  14.398   9.049
 1156POPC   GL219394   9.740  14.654   9.029
 1156POPC   C1A19395   9.490  14.396   8.607
 1156POPC   D2A19396   9.640  14.140   8.292
 1156POPC   C3A19397   9.715  14.320   7.902
 1156POPC   C4A19398   9.578  14.307   7.476
 1156POPC   C1B19399   9.938  14.862   8.730
 1156POPC   C2B19400   9.934  14.614   8.353
 1156POPC   C3B19401  10.020  14.755   7.955
 1156POPC   C4B19402   9.780  14.746   7.613
 1157POPC   NC319403   1.461  23.479   9.667
 1157POPC   PO419404   1.282  22.770   9.576
 1157POPC   GL119405   1.174  22.657   9.147
 1157POPC   GL219406   1.221  22.992   9.122
 1157POPC   C1A19407   1.305  22.747   8.677
 1157POPC   D2A19408   1.071  22.818   8.266
 1157POPC   C3A19409   1.322  22.736   7.856
 1157POPC   C4A19410   1.630  22.760   7.478
 1157POPC   C1B19411   0.990  23.144   8.819
 1157POPC   C2B19412   1.109  23.318   8.460
 1157POPC   C3B19413   1.333  23.234   8.112
 1157POPC   C4B19414   0.995  23.169   7.862
 1158POPC   NC319415   6.962  31.519   9.230
 1158POPC   PO419416   6.412  31.150   9.002
 1158POPC   GL119417   6.528  31.610   8.967
 1158POPC   GL219418   6.291  31.794   9.182
 1158POPC   C1A19419   6.699  31.694   8.558
 1158POPC   D2A19420   6.649  31.355   8.276
 1158POPC   C3A19421   6.912  31.208   7.938
 1158POPC   C4A19422   6.779  31.273   7.497
 1158POPC   C1B19423   6.084  31.778   8.759
 1158POPC   C2B19424   6.211  31.702   8.313
 1158POPC   C3B19425   6.417  31.628   7.896
 1158POPC   C4B19426   6.873  31.689   7.837
 1159POPC   NC319427  15.045  32.371   9.621
 1159POPC   PO419428  15.517  32.002   9.555
 1159POPC   GL119429  15.271  32.189   9.211
 1159POPC   GL219430  15.083  32.493   9.127
 1159POPC   C1A19431  15.333  32.139   8.794
 1159POPC   D2A19432  15.123  32.184   8.413
 1159POPC   C3A19433  15.278  32.223   8.009
 1159POPC   C4A19434  14.943  32.348   7.723
 1159POPC   C1B19435  15.202  32.629   8.694
 1159POPC   C2B19436  15.078  32.689   8.245
 1159POPC   C3B19437  15.262  32.708   7.827
 1159POPC   C4B19438  15.119  32.789   7.364
 1160POPC   NC319439  37.193  38.277   9.482
 1160POPC   PO419440  37.760  38.594   9.636
 1160POPC   GL119441  37.552  38.633   9.233
 1160POPC   GL219442  37.832  38.862   9.148
 1160POPC   C1A19443  37.425  38.420   8.838
 1160POPC   D2A19444  37.601  38.231   8.440
 1160POPC   C3A19445  37.743  38.319   8.001
 1160POPC   C4A19446  38.020  38.620   7.782
 1160POPC   C1B19447  37.585  38.902   8.755
 1160POPC   C2B19448  37.687  38.919   8.281
 1160POPC   C3B19449  37.549  38.767   7.866
 1160POPC   C4B19450  37.301  38.691   7.471
 1161POPC   NC319451  44.214   7.972   9.553
 1161POPC   PO419452  43.556   8.015   9.442
 1161POPC   GL119453  43.654   8.209   9.085
 1161POPC   GL219454  43.995   8.247   9.171
 1161POPC   C1A19455  43.790   8.206   8.654
 1161POPC   D2A19456  43.991   8.056   8.301
 1161POPC   C3A19457  43.746   8.139   7.978
 1161POPC   C4A19458  43.583   7.973   7.628
 1161POPC   C1B19459  44.270   8.172   8.836
 1161POPC   C2B19460  44.378   8.325   8.464
 1161POPC   C3B19461  44.241   8.450   8.047
 1161POPC   C4B19462  44.199   8.108   7.770
 1162POPC   NC319463  20.425   7.410   9.552
 1162POPC   PO419464  20.979   7.702   9.410
 1162POPC   GL119465  20.728   7.491   9.089
 1162POPC   GL219466  20.786   7.165   9.013
 1162POPC   C1A19467  20.889   7.466   8.636
 1162POPC   D2A19468  20.930   7.667   8.268
 1162POPC   C3A19469  20.700   7.513   7.917
 1162POPC   C4A19470  20.750   7.659   7.490
 1162POPC   C1B19471  20.470   7.185   8.694
 1162POPC   C2B19472  20.358   7.381   8.296
 1162POPC   C3B19473  20.199   7.335   7.870
 1162POPC   C4B19474  20.407   7.289   7.492
 1163POPC   NC319475  41.082  11.948   9.516
 1163POPC   PO419476  40.505  11.786   9.670
 1163POPC   GL119477  40.735  11.861   9.159
 1163POPC   GL219478  40.942  12.157   9.011
 1163POPC   C1A19479  40.901  11.685   8.786
 1163POPC   D2A19480  40.800  11.994   8.504
 1163POPC   C3A19481  40.744  11.959   8.088
 1163POPC   C4A19482  40.917  12.198   7.736
 1163POPC   C1B19483  41.065  12.439   8.665
 1163POPC   C2B19484  40.934  12.418   8.244
 1163POPC   C3B19485  40.523  12.409   8.082
 1163POPC   C4B19486  40.435  12.393   7.659
 1164POPC   NC319487   0.267  41.949   9.372
 1164POPC   PO419488   0.757  42.407   9.320
 1164POPC   GL119489   0.462  42.299   9.044
 1164POPC   GL219490   0.608  42.012   9.004
 1164POPC   C1A19491   0.507  42.293   8.607
 1164POPC   D2A19492   0.530  42.532   8.283
 1164POPC   C3A19493   0.400  42.394   7.940
 1164POPC   C4A19494   0.636  42.545   7.625
 1164POPC   C1B19495   0.756  41.834   8.653
 1164POPC   C2B19496   0.485  41.799   8.326
 1164POPC   C3B19497   0.412  41.876   7.927
 1164POPC   C4B19498   0.570  41.962   7.538
 1165POPC   NC319499  19.164  10.207   9.684
 1165POPC   PO419500  19.082  10.873   9.579
 1165POPC   GL119501  19.126  10.574   9.260
 1165POPC   GL219502  18.807  10.416   9.318
 1165POPC   C1A19503  19.257  10.689   8.828
 1165POPC   D2A19504  19.093  10.789   8.401
 1165POPC   C3A19505  19.232  10.539   8.014
 1165POPC   C4A19506  19.148  10.633   7.573
 1165POPC   C1B19507  18.786  10.465   8.840
 1165POPC   C2B19508  18.851  10.320   8.361
 1165POPC   C3B19509  18.785  10.295   7.887
 1165POPC   C4B19510  18.841  10.270   7.407
 1166POPC   NC319511  31.177  36.962   9.566
 1166POPC   PO419512  31.677  36.589   9.360
 1166POPC   GL119513  31.429  36.867   9.113
 1166POPC   GL219514  31.289  37.208   9.127
 1166POPC   C1A19515  31.594  37.036   8.739
 1166POPC   D2A19516  31.854  36.942   8.396
 1166POPC   C3A19517  31.700  37.052   8.002
 1166POPC   C4A19518  31.537  36.797   7.670
 1166POPC   C1B19519  31.250  37.415   8.741
 1166POPC   C2B19520  31.308  37.245   8.332
 1166POPC   C3B19521  31.262  37.309   7.897
 1166POPC   C4B19522  31.282  37.215   7.504
 1167POPC   NC319523   2.815  11.681   9.521
 1167POPC   PO419524   3.068  11.062   9.663
 1167POPC   GL119525   2.878  11.217   9.275
 1167POPC   GL219526   3.133  11.427   9.209
 1167POPC   C1A19527   2.779  11.193   8.817
 1167POPC   D2A19528   2.662  11.265   8.379
 1167POPC   C3A19529   2.573  11.389   7.970
 1167POPC   C4A19530   2.602  11.013   7.714
 1167POPC   C1B19531   3.171  11.514   8.780
 1167POPC   C2B19532   2.939  11.696   8.436
 1167POPC   C3B19533   3.040  11.728   8.015
 1167POPC   C4B19534   2.987  11.633   7.599
 1168POPC   NC319535  25.418  16.419   9.507
 1168POPC   PO419536  25.446  15.725   9.629
 1168POPC   GL119537  25.507  15.969   9.304
 1168POPC   GL219538  25.834  16.061   9.407
 1168POPC   C1A19539  25.317  16.039   8.894
 1168POPC   D2A19540  25.110  15.924   8.518
 1168POPC   C3A19541  25.265  15.984   8.110
 1168POPC   C4A19542  25.131  16.236   7.766
 1168POPC   C1B19543  25.824  16.040   8.936
 1168POPC   C2B19544  25.679  16.052   8.521
 1168POPC   C3B19545  25.785  16.094   8.098
 1168POPC   C4B19546  25.616  16.097   7.712
 1169POPC   NC319547  38.593   1.639   9.261
 1169POPC   PO419548  38.225   1.114   9.505
 1169POPC   GL119549  38.510   1.137   9.166
 1169POPC   GL219550  38.276   1.348   9.001
 1169POPC   C1A19551  38.686   1.116   8.728
 1169POPC   D2A19552  38.528   0.894   8.336
 1169POPC   C3A19553  38.567   1.138   7.966
 1169POPC   C4A19554  38.832   1.457   7.747
 1169POPC   C1B19555  38.183   1.031   8.689
 1169POPC   C2B19556  38.277   1.345   8.408
 1169POPC   C3B19557  38.340   1.601   8.095
 1169POPC   C4B19558  38.305   1.492   7.704
 1170POPC   NC319559  15.486  15.458   9.522
 1170POPC   PO419560  14.868  15.302   9.513
 1170POPC   GL119561  15.052  15.157   9.151
 1170POPC   GL219562  15.401  15.057   9.211
 1170POPC   C1A19563  14.961  15.149   8.699
 1170POPC   D2A19564  14.840  14.827   8.376
 1170POPC   C3A19565  14.835  15.037   7.957
 1170POPC   C4A19566  14.909  15.032   7.508
 1170POPC   C1B19567  15.390  15.399   8.864
 1170POPC   C2B19568  15.261  15.461   8.438
 1170POPC   C3B19569  15.292  15.274   8.055
 1170POPC   C4B19570  15.239  15.459   7.674
 1171POPC   NC319571  21.650  13.684   9.504
 1171POPC   PO419572  22.283  13.446   9.496
 1171POPC   GL119573  22.206  13.460   9.086
 1171POPC   GL219574  21.855  13.419   9.090
 1171POPC   C1A19575  22.196  13.335   8.659
 1171POPC   D2A19576  22.032  13.587   8.331
 1171POPC   C3A19577  22.257  13.657   7.942
 1171POPC   C4A19578  22.603  13.947   7.824
 1171POPC   C1B19579  21.637  13.350   8.697
 1171POPC   C2B19580  21.556  13.411   8.258
 1171POPC   C3B19581  21.873  13.314   7.937
 1171POPC   C4B19582  21.987  13.510   7.520
 1172POPC   NC319583  40.198   1.770   9.490
 1172POPC   PO419584  39.777   2.253   9.308
 1172POPC   GL119585  39.870   1.883   9.083
 1172POPC   GL219586  40.206   2.002   9.048
 1172POPC   C1A19587  40.001   1.822   8.628
 1172POPC   D2A19588  40.122   2.124   8.281
 1172POPC   C3A19589  39.934   2.117   7.893
 1172POPC   C4A19590  39.627   1.846   7.731
 1172POPC   C1B19591  40.417   2.179   8.704
 1172POPC   C2B19592  40.631   2.095   8.330
 1172POPC   C3B19593  40.485   1.943   7.952
 1172POPC   C4B19594  40.359   2.186   7.611
 1173POPC   NC319595  33.452  29.716   9.532
 1173POPC   PO419596  33.845  30.174   9.329
 1173POPC   GL119597  33.878  29.797   9.159
 1173POPC   GL219598  33.576  29.723   9.019
 1173POPC   C1A19599  34.089  29.666   8.802
 1173POPC   D2A19600  34.094  29.547   8.358
 1173POPC   C3A19601  33.985  29.923   8.122
 1173POPC   C4A19602  33.852  30.266   7.844
 1173POPC   C1B19603  33.713  30.014   8.667
 1173POPC   C2B19604  33.518  30.070   8.256
 1173POPC   C3B19605  33.532  29.853   7.824
 1173POPC   C4B19606  33.452  29.668   7.390
 1174POPC   NC319607   1.496   3.747   9.470
 1174POPC   PO419608   1.214   3.156   9.507
 1174POPC   GL119609   1.148   3.487   9.216
 1174POPC   GL219610   0.817   3.522   9.119
 1174POPC   C1A19611   1.225   3.713   8.833
 1174POPC   D2A19612   1.279   3.577   8.424
 1174POPC   C3A19613   1.200   3.823   8.037
 1174POPC   C4A19614   1.126   3.788   7.558
 1174POPC   C1B19615   1.025   3.243   8.787
 1174POPC   C2B19616   1.172   3.057   8.405
 1174POPC   C3B19617   1.143   3.288   8.039
 1174POPC   C4B19618   1.382   3.328   7.694
 1175POPC   NC319619  25.853  40.364   9.456
 1175POPC   PO419620  26.172  40.967   9.465
 1175POPC   GL119621  25.902  40.797   9.177
 1175POPC   GL219622  26.150  40.552   9.102
 1175POPC   C1A19623  25.729  40.639   8.799
 1175POPC   D2A19624  25.747  40.788   8.388
 1175POPC   C3A19625  25.694  40.522   8.038
 1175POPC   C4A19626  25.877  40.528   7.621
 1175POPC   C1B19627  26.291  40.799   8.770
 1175POPC   C2B19628  26.250  40.820   8.346
 1175POPC   C3B19629  26.078  40.858   7.950
 1175POPC   C4B19630  26.303  41.003   7.567
 1176POPC   NC319631  11.657  18.249   9.569
 1176POPC   PO419632  11.036  18.371   9.442
 1176POPC   GL119633  11.354  18.264   9.124
 1176POPC   GL219634  11.544  17.940   9.188
 1176POPC   C1A19635  11.159  18.253   8.709
 1176POPC   D2A19636  11.236  18.462   8.312
 1176POPC   C3A19637  11.190  18.197   7.972
 1176POPC   C4A19638  11.007  18.495   7.717
 1176POPC   C1B19639  11.455  17.837   8.762
 1176POPC   C2B19640  11.528  18.056   8.396
 1176POPC   C3B19641  11.699  18.217   8.040
 1176POPC   C4B19642  11.590  18.104   7.637
 1177POPC   NC319643  13.171  17.778   9.507
 1177POPC   PO419644  12.733  17.284   9.675
 1177POPC   GL119645  12.889  17.384   9.261
 1177POPC   GL219646  12.752  17.731   9.188
 1177POPC   C1A19647  12.825  17.387   8.805
 1177POPC   D2A19648  13.060  17.559   8.452
 1177POPC   C3A19649  12.908  17.395   8.047
 1177POPC   C4A19650  12.622  17.412   7.687
 1177POPC   C1B19651  12.859  17.922   8.787
 1177POPC   C2B19652  13.094  18.072   8.431
 1177POPC   C3B19653  13.079  17.901   8.044
 1177POPC   C4B19654  13.111  17.866   7.609
 1178POPC   NC319655  34.388  40.286   9.367
 1178POPC   PO419656  33.751  40.068   9.445
 1178POPC   GL119657  33.826  40.189   9.067
 1178POPC   GL219658  33.998  40.500   9.029
 1178POPC   C1A19659  33.577  40.115   8.725
 1178POPC   D2A19660  33.347  40.262   8.365
 1178POPC   C3A19661  33.551  40.036   8.050
 1178POPC   C4A19662  33.770  39.983   7.682
 1178POPC   C1B19663  34.184  40.265   8.716
 1178POPC   C2B19664  34.020  40.059   8.365
 1178POPC   C3B19665  34.062  40.265   7.986
 1178POPC   C4B19666  34.220  40.328   7.588
 1179POPC   NC319667   1.242  26.568   9.447
 1179POPC   PO419668   1.189  27.197   9.539
 1179POPC   GL119669   1.309  27.007   9.152
 1179POPC   GL219670   0.967  26.954   9.100
 1179POPC   C1A19671   1.521  26.955   8.719
 1179POPC   D2A19672   1.459  26.603   8.398
 1179POPC   C3A19673   1.334  26.586   7.948
 1179POPC   C4A19674   1.243  26.965   7.684
 1179POPC   C1B19675   1.039  26.834   8.662
 1179POPC   C2B19676   1.096  26.941   8.228
 1179POPC   C3B19677   0.830  26.771   7.901
 1179POPC   C4B19678   0.726  26.935   7.494
 1180POPC   NC319679  40.284   9.046   9.466
 1180POPC   PO419680  39.797   9.445   9.546
 1180POPC   GL119681  39.989   9.102   9.088
 1180POPC   GL219682  40.230   8.778   9.036
 1180POPC   C1A19683  40.001   9.035   8.658
 1180POPC   D2A19684  40.075   9.109   8.245
 1180POPC   C3A19685  39.793   9.373   8.066
 1180POPC   C4A19686  39.961   9.201   7.720
 1180POPC   C1B19687  40.049   8.540   8.660
 1180POPC   C2B19688  40.126   8.598   8.259
 1180POPC   C3B19689  40.194   8.755   7.876
 1180POPC   C4B19690  40.262   8.514   7.551
 1181POPC   NC319691   0.404   6.227   9.515
 1181POPC   PO419692   0.522   6.985   9.511
 1181POPC   GL119693   0.515   6.804   9.097
 1181POPC   GL219694   0.329   6.490   9.086
 1181POPC   C1A19695   0.581   6.615   8.664
 1181POPC   D2A19696   0.383   6.474   8.289
 1181POPC   C3A19697   0.170   6.831   8.092
 1181POPC   C4A19698   0.234   7.040   7.698
 1181POPC   C1B19699   0.108   6.259   8.740
 1181POPC   C2B19700   0.104   6.000   8.368
 1181POPC   C3B19701   0.020   6.204   7.997
 1181POPC   C4B19702   0.312   6.461   7.745
 1182POPC   NC319703   9.213  43.568   9.307
 1182POPC   PO419704   9.098  42.940   9.511
 1182POPC   GL119705   9.053  43.034   9.094
 1182POPC   GL219706   8.860  43.310   9.016
 1182POPC   C1A19707   9.142  42.853   8.684
 1182POPC   D2A19708   9.242  42.626   8.312
 1182POPC   C3A19709   9.069  42.880   8.011
 1182POPC   C4A19710   8.942  43.159   7.675
 1182POPC   C1B19711   8.700  43.272   8.581
 1182POPC   C2B19712   8.941  43.370   8.210
 1182POPC   C3B19713   8.759  43.582   7.871
 1182POPC   C4B19714   8.468  43.378   7.614
 1183POPC   NC319715  37.569  31.462   9.471
 1183POPC   PO419716  38.168  31.490   9.368
 1183POPC   GL119717  37.834  31.442   9.035
 1183POPC   GL219718  37.469  31.595   8.998
 1183POPC   C1A19719  37.845  31.490   8.613
 1183POPC   D2A19720  37.922  31.241   8.279
 1183POPC   C3A19721  37.865  31.462   7.909
 1183POPC   C4A19722  37.713  31.382   7.509
 1183POPC   C1B19723  37.346  31.435   8.595
 1183POPC   C2B19724  37.450  31.493   8.179
 1183POPC   C3B19725  37.271  31.357   7.781
 1183POPC   C4B19726  37.267  31.242   7.326
 1184POPC   NC319727  31.849   1.481   9.601
 1184POPC   PO419728  31.273   1.058   9.550
 1184POPC   GL119729  31.418   1.323   9.214
 1184POPC   GL219730  31.759   1.234   9.162
 1184POPC   C1A19731  31.218   1.319   8.794
 1184POPC   D2A19732  31.147   0.980   8.474
 1184POPC   C3A19733  31.167   1.065   8.022
 1184POPC   C4A19734  31.213   1.167   7.581
 1184POPC   C1B19735  31.698   1.467   8.775
 1184POPC   C2B19736  31.542   1.325   8.351
 1184POPC   C3B19737  31.669   1.136   7.928
 1184POPC   C4B19738  31.701   1.184   7.417
 1185POPC   NC319739  13.547  31.432   9.476
 1185POPC   PO419740  13.846  31.892   9.820
 1185POPC   GL119741  13.692  31.895   9.294
 1185POPC   GL219742  13.371  31.865   9.169
 1185POPC   C1A19743  13.797  31.833   8.856
 1185POPC   D2A19744  13.737  31.530   8.513
 1185POPC   C3A19745  13.706  31.659   8.103
 1185POPC   C4A19746  13.960  31.521   7.731
 1185POPC   C1B19747  13.315  31.577   8.789
 1185POPC   C2B19748  13.204  31.519   8.314
 1185POPC   C3B19749  13.297  31.408   7.859
 1185POPC   C4B19750  13.441  31.276   7.421
 1186POPC   NC319751  13.343  38.135   9.427
 1186POPC   PO419752  13.858  37.697   9.468
 1186POPC   GL119753  13.765  37.617   9.099
 1186POPC   GL219754  13.431  37.552   9.171
 1186POPC   C1A19755  13.880  37.741   8.722
 1186POPC   D2A19756  13.674  37.618   8.392
 1186POPC   C3A19757  13.760  37.756   8.001
 1186POPC   C4A19758  13.788  37.530   7.606
 1186POPC   C1B19759  13.350  37.774   8.796
 1186POPC   C2B19760  13.179  37.618   8.422
 1186POPC   C3B19761  13.269  37.453   8.044
 1186POPC   C4B19762  13.332  37.723   7.706
 1187POPC   NC319763   2.315  26.862   9.467
 1187POPC   PO419764   1.689  26.686   9.454
 1187POPC   GL119765   1.954  26.741   9.116
 1187POPC   GL219766   2.264  26.516   9.116
 1187POPC   C1A19767   1.964  26.665   8.704
 1187POPC   D2A19768   1.938  26.898   8.392
 1187POPC   C3A19769   1.640  27.001   8.114
 1187POPC   C4A19770   1.712  26.824   7.740
 1187POPC   C1B19771   2.403  26.868   8.820
 1187POPC   C2B19772   2.453  27.048   8.427
 1187POPC   C3B19773   2.253  27.072   8.060
 1187POPC   C4B19774   2.202  26.808   7.752
 1188POPC   NC319775  22.762  20.684   9.566
 1188POPC   PO419776  23.060  21.203   9.484
 1188POPC   GL119777  23.234  20.978   9.114
 1188POPC   GL219778  23.194  20.596   9.133
 1188POPC   C1A19779  23.290  20.850   8.653
 1188POPC   D2A19780  23.349  20.758   8.193
 1188POPC   C3A19781  22.964  20.755   7.956
 1188POPC   C4A19782  22.750  20.535   7.606
 1188POPC   C1B19783  23.242  20.336   8.720
 1188POPC   C2B19784  23.078  20.325   8.271
 1188POPC   C3B19785  23.168  20.302   7.810
 1188POPC   C4B19786  22.955  20.105   7.448
 1189POPC   NC319787   2.967   8.141   9.502
 1189POPC   PO419788   2.415   8.537   9.503
 1189POPC   GL119789   2.639   8.335   9.154
 1189POPC   GL219790   3.018   8.402   9.078
 1189POPC   C1A19791   2.624   8.257   8.722
 1189POPC   D2A19792   2.389   8.135   8.340
 1189POPC   C3A19793   2.642   8.306   8.044
 1189POPC   C4A19794   2.652   8.141   7.654
 1189POPC   C1B19795   3.057   8.022   8.821
 1189POPC   C2B19796   2.857   7.918   8.413
 1189POPC   C3B19797   2.805   7.814   7.997
 1189POPC   C4B19798   3.081   7.833   7.629
 1190POPC   NC319799  37.383  17.270   9.301
 1190POPC   PO419800  37.775  17.534   9.719
 1190POPC   GL119801  37.892  17.676   9.282
 1190POPC   GL219802  37.800  17.419   9.071
 1190POPC   C1A19803  37.784  17.854   8.811
 1190POPC   D2A19804  37.646  17.741   8.353
 1190POPC   C3A19805  37.900  17.568   8.028
 1190POPC   C4A19806  37.960  17.957   7.783
 1190POPC   C1B19807  37.525  17.409   8.709
 1190POPC   C2B19808  37.442  17.266   8.325
 1190POPC   C3B19809  37.330  17.472   7.997
 1190POPC   C4B19810  37.560  17.665   7.678
 1191POPC   NC319811  38.040  27.716   9.461
 1191POPC   PO419812  38.196  28.293   9.387
 1191POPC   GL119813  38.096  28.053   9.007
 1191POPC   GL219814  38.240  27.694   8.997
 1191POPC   C1A19815  38.268  27.976   8.583
 1191POPC   D2A19816  38.126  27.757   8.220
 1191POPC   C3A19817  38.380  27.525   7.983
 1191POPC   C4A19818  38.190  27.266   7.744
 1191POPC   C1B19819  38.282  27.436   8.594
 1191POPC   C2B19820  38.283  27.112   8.249
 1191POPC   C3B19821  38.552  26.976   7.873
 1191POPC   C4B19822  38.605  27.160   7.434
 1192POPC   NC319823   5.838  21.165   9.456
 1192POPC   PO419824   5.459  21.734   9.362
 1192POPC   GL119825   5.656  21.429   9.067
 1192POPC   GL219826   6.050  21.475   9.096
 1192POPC   C1A19827   5.842  21.141   8.752
 1192POPC   D2A19828   6.054  21.143   8.351
 1192POPC   C3A19829   5.766  21.090   8.002
 1192POPC   C4A19830   5.650  21.172   7.588
 1192POPC   C1B19831   5.886  21.722   8.720
 1192POPC   C2B19832   5.787  21.602   8.290
 1192POPC   C3B19833   6.000  21.609   7.885
 1192POPC   C4B19834   6.079  21.921   7.517
 1193POPC   NC319835  21.668  24.496   9.543
 1193POPC   PO419836  21.003  24.730   9.534
 1193POPC   GL119837  21.287  24.558   9.215
 1193POPC   GL219838  21.108  24.309   9.142
 1193POPC   C1A19839  21.329  24.641   8.747
 1193POPC   D2A19840  21.484  24.697   8.286
 1193POPC   C3A19841  21.262  24.527   7.910
 1193POPC   C4A19842  20.878  24.553   7.601
 1193POPC   C1B19843  21.221  24.139   8.750
 1193POPC   C2B19844  21.302  24.212   8.331
 1193POPC   C3B19845  21.406  24.043   7.925
 1193POPC   C4B19846  21.205  24.156   7.523
 1194POPC   NC319847   4.694  29.502   9.632
 1194POPC   PO419848   4.159  30.010   9.563
 1194POPC   GL119849   4.371  30.023   9.197
 1194POPC   GL219850   4.428  29.680   9.199
 1194POPC   C1A19851   4.204  30.095   8.763
 1194POPC   D2A19852   4.217  29.830   8.360
 1194POPC   C3A19853   4.201  30.038   7.959
 1194POPC   C4A19854   4.244  30.379   7.640
 1194POPC   C1B19855   4.560  29.729   8.769
 1194POPC   C2B19856   4.772  29.662   8.380
 1194POPC   C3B19857   4.589  29.656   7.967
 1194POPC   C4B19858   4.186  29.571   7.736
 1195POPC   NC319859  33.986  11.407   9.953
 1195POPC   PO419860  33.864  11.487   9.517
 1195POPC   GL119861  33.894  11.287   9.105
 1195POPC   GL219862  33.893  10.930   9.122
 1195POPC   C1A19863  33.790  11.336   8.651
 1195POPC   D2A19864  33.673  11.479   8.218
 1195POPC   C3A19865  33.981  11.424   7.886
 1195POPC   C4A19866  34.183  11.423   7.469
 1195POPC   C1B19867  33.711  10.837   8.696
 1195POPC   C2B19868  33.644  10.968   8.240
 1195POPC   C3B19869  33.531  11.177   7.810
 1195POPC   C4B19870  33.440  11.182   7.342
 1196POPC   NC319871   6.485  14.074   9.502
 1196POPC   PO419872   6.321  14.741   9.447
 1196POPC   GL119873   6.493  14.719   9.047
 1196POPC   GL219874   6.674  14.402   9.095
 1196POPC   C1A19875   6.475  14.549   8.647
 1196POPC   D2A19876   6.328  14.423   8.271
 1196POPC   C3A19877   6.469  14.641   7.968
 1196POPC   C4A19878   6.592  14.368   7.691
 1196POPC   C1B19879   6.918  14.259   8.757
 1196POPC   C2B19880   6.804  14.230   8.331
 1196POPC   C3B19881   6.941  14.062   7.953
 1196POPC   C4B19882   6.928  14.033   7.519
 1197POPC   NC319883   8.345  34.294   9.502
 1197POPC   PO419884   8.111  35.009   9.553
 1197POPC   GL119885   8.183  34.726   9.227
 1197POPC   GL219886   8.523  34.671   9.200
 1197POPC   C1A19887   8.132  34.481   8.849
 1197POPC   D2A19888   7.845  34.589   8.496
 1197POPC   C3A19889   8.015  34.638   8.094
 1197POPC   C4A19890   8.139  34.439   7.747
 1197POPC   C1B19891   8.561  34.790   8.801
 1197POPC   C2B19892   8.416  34.656   8.429
 1197POPC   C3B19893   8.510  34.782   8.022
 1197POPC   C4B19894   8.517  35.008   7.659
 1198POPC   NC319895  25.835  13.657   9.516
 1198POPC   PO419896  26.486  13.637   9.398
 1198POPC   GL119897  26.209  13.689   9.075
 1198POPC   GL219898  25.888  13.549   9.008
 1198POPC   C1A19899  26.267  13.687   8.641
 1198POPC   D2A19900  26.250  13.406   8.302
 1198POPC   C3A19901  26.234  13.696   8.012
 1198POPC   C4A19902  25.976  13.558   7.705
 1198POPC   C1B19903  25.827  13.944   8.782
 1198POPC   C2B19904  25.850  13.912   8.321
 1198POPC   C3B19905  25.711  13.942   7.871
 1198POPC   C4B19906  25.794  13.937   7.371
 1199POPC   NC319907  35.029  33.857   9.710
 1199POPC   PO419908  35.691  33.934   9.584
 1199POPC   GL119909  35.361  33.919   9.272
 1199POPC   GL219910  35.280  33.568   9.323
 1199POPC   C1A19911  35.483  33.986   8.833
 1199POPC   D2A19912  35.585  33.746   8.458
 1199POPC   C3A19913  35.443  34.016   8.105
 1199POPC   C4A19914  35.495  33.821   7.715
 1199POPC   C1B19915  35.246  33.539   8.878
 1199POPC   C2B19916  35.068  33.687   8.503
 1199POPC   C3B19917  35.186  33.583   8.095
 1199POPC   C4B19918  35.011  33.645   7.702
 1200POPC   NC319919  32.848  21.114   9.550
 1200POPC   PO419920  33.251  21.644   9.612
 1200POPC   GL119921  33.010  21.528   9.256
 1200POPC   GL219922  33.172  21.836   9.125
 1200POPC   C1A19923  32.726  21.383   8.872
 1200POPC   D2A19924  32.778  21.205   8.471
 1200POPC   C3A19925  32.836  21.426   8.086
 1200POPC   C4A19926  32.896  21.153   7.735
 1200POPC   C1B19927  33.175  21.573   8.766
 1200POPC   C2B19928  33.282  21.438   8.380
 1200POPC   C3B19929  33.363  21.305   7.980
 1200POPC   C4B19930  33.257  21.509   7.621
 1201POPC   NC319931  21.157  10.925   9.664
 1201POPC   PO419932  21.406  11.584   9.450
 1201POPC   GL119933  21.207  11.381   9.087
 1201POPC   GL219934  20.968  11.134   9.221
 1201POPC   C1A19935  21.406  11.315   8.669
 1201POPC   D2A19936  21.611  11.112   8.300
 1201POPC   C3A19937  21.439  11.268   7.898
 1201POPC   C4A19938  21.085  11.550   7.771
 1201POPC   C1B19939  20.995  10.977   8.778
 1201POPC   C2B19940  21.074  11.051   8.314
 1201POPC   C3B19941  20.953  11.049   7.873
 1201POPC   C4B19942  21.219  10.983   7.510
 1202POPC   NC319943  39.463  41.475   9.422
 1202POPC   PO419944  38.882  41.840   9.518
 1202POPC   GL119945  39.047  41.652   9.128
 1202POPC   GL219946  39.398  41.696   8.982
 1202POPC   C1A19947  39.063  41.425   8.728
 1202POPC   D2A19948  38.878  41.521   8.348
 1202POPC   C3A19949  39.146  41.709   8.067
 1202POPC   C4A19950  39.007  41.502   7.709
 1202POPC   C1B19951  39.579  41.468   8.661
 1202POPC   C2B19952  39.473  41.288   8.292
 1202POPC   C3B19953  39.507  41.381   7.883
 1202POPC   C4B19954  39.581  41.768   7.738
 1203POPC   NC319955  23.433  44.276   9.550
 1203POPC   PO419956  23.454  44.887   9.227
 1203POPC   GL119957  23.423  44.480   9.074
 1203POPC   GL219958  23.788  44.381   9.050
 1203POPC   C1A19959  23.443  44.470   8.652
 1203POPC   D2A19960  23.752  44.584   8.339
 1203POPC   C3A19961  23.595  44.880   7.989
 1203POPC   C4A19962  23.718   0.041   7.583
 1203POPC   C1B19963  23.770  44.101   8.659
 1203POPC   C2B19964  23.421  44.100   8.310
 1203POPC   C3B19965  23.421  44.411   8.005
 1203POPC   C4B19966  23.890  44.347   7.864
 1204POPC   NC319967   0.981  31.602   9.732
 1204POPC   PO419968   1.391  32.092   9.664
 1204POPC   GL119969   1.034  32.226   9.283
 1204POPC   GL219970   1.273  32.266   9.089
 1204POPC   C1A19971   0.890  32.387   8.807
 1204POPC   D2A19972   0.730  32.231   8.394
 1204POPC   C3A19973   0.910  32.363   7.975
 1204POPC   C4A19974   0.996  32.154   7.565
 1204POPC   C1B19975   1.385  32.183   8.677
 1204POPC   C2B19976   1.244  32.310   8.342
 1204POPC   C3B19977   1.376  32.131   7.952
 1204POPC   C4B19978   1.463  32.346   7.581
 1205POPC   NC319979  37.546  15.468   9.853
 1205POPC   PO419980  37.909  15.046   9.520
 1205POPC   GL119981  37.621  15.161   9.205
 1205POPC   GL219982  37.462  15.475   9.268
 1205POPC   C1A19983  37.656  15.005   8.789
 1205POPC   D2A19984  37.696  15.209   8.416
 1205POPC   C3A19985  37.795  15.022   8.048
 1205POPC   C4A19986  37.497  14.783   7.845
 1205POPC   C1B19987  37.615  15.539   8.820
 1205POPC   C2B19988  37.649  15.714   8.376
 1205POPC   C3B19989  37.540  15.498   8.005
 1205POPC   C4B19990  37.322  15.344   7.653
 1206POPC   NC319991   9.377  34.878   9.510
 1206POPC   PO419992   8.694  34.667   9.686
 1206POPC   GL119993   8.995  34.558   9.335
 1206POPC   GL219994   8.887  34.243   9.307
 1206POPC   C1A19995   9.041  34.568   8.869
 1206POPC   D2A19996   8.939  34.746   8.446
 1206POPC   C3A19997   8.989  34.547   8.080
 1206POPC   C4A19998   8.960  34.760   7.709
 1206POPC   C1B19999   8.653  34.244   8.923
 1206POPC   C2B20000   8.747  34.257   8.483
 1206POPC   C3B20001   8.517  34.274   8.098
 1206POPC   C4B20002   8.646  34.375   7.697
 1207POPC   NC320003  41.636   2.419   9.462
 1207POPC   PO420004  41.235   2.848   9.524
 1207POPC   GL120005  41.398   2.744   9.150
 1207POPC   GL220006  41.231   2.452   9.126
 1207POPC   C1A20007  41.646   2.860   8.795
 1207POPC   D2A20008  41.841   2.781   8.418
 1207POPC   C3A20009  41.624   2.831   8.079
 1207POPC   C4A20010  41.628   2.807   7.681
 1207POPC   C1B20011  41.458   2.397   8.756
 1207POPC   C2B20012  41.631   2.307   8.360
 1207POPC   C3B20013  41.504   2.342   7.963
 1207POPC   C4B20014  41.428   2.342   7.566
 1208POPC   NC320015  17.287  23.804   9.795
 1208POPC   PO420016  17.863  23.590   9.763
 1208POPC   GL120017  17.501  23.744   9.359
 1208POPC   GL220018  17.269  23.471   9.361
 1208POPC   C1A20019  17.506  23.866   8.882
 1208POPC   D2A20020  17.332  23.946   8.453
 1208POPC   C3A20021  17.564  24.054   8.058
 1208POPC   C4A20022  17.817  23.854   7.754
 1208POPC   C1B20023  17.250  23.430   8.924
 1208POPC   C2B20024  17.207  23.437   8.480
 1208POPC   C3B20025  17.499  23.554   8.155
 1208POPC   C4B20026  17.339  23.686   7.772
 1209POPC   NC320027   1.816  20.956   9.626
 1209POPC   PO420028   2.119  21.517   9.498
 1209POPC   GL120029   2.292  21.465   9.113
 1209POPC   GL220030   2.181  21.120   9.101
 1209POPC   C1A20031   2.162  21.484   8.701
 1209POPC   D2A20032   1.853  21.398   8.374
 1209POPC   C3A20033   2.076  21.361   8.012
 1209POPC   C4A20034   2.072  21.507   7.603
 1209POPC   C1B20035   1.822  21.112   8.817
 1209POPC   C2B20036   1.772  20.879   8.457
 1209POPC   C3B20037   1.862  20.851   8.057
 1209POPC   C4B20038   1.863  21.057   7.674
 1210POPC   NC320039  13.061   6.422   9.513
 1210POPC   PO420040  12.383   6.599   9.584
 1210POPC   GL120041  12.727   6.731   9.220
 1210POPC   GL220042  12.931   6.468   9.031
 1210POPC   C1A20043  12.749   6.803   8.713
 1210POPC   D2A20044  12.754   6.550   8.296
 1210POPC   C3A20045  12.732   6.706   7.889
 1210POPC   C4A20046  12.991   6.997   7.707
 1210POPC   C1B20047  13.089   6.260   8.629
 1210POPC   C2B20048  13.186   6.223   8.177
 1210POPC   C3B20049  13.184   6.488   7.839
 1210POPC   C4B20050  13.024   6.547   7.462
 1211POPC   NC320051   6.817  43.005   9.619
 1211POPC   PO420052   6.903  43.606   9.340
 1211POPC   GL120053   6.781  43.230   9.111
 1211POPC   GL220054   6.798  42.853   9.154
 1211POPC   C1A20055   6.520  43.356   8.786
 1211POPC   D2A20056   6.356  43.441   8.386
 1211POPC   C3A20057   6.316  43.075   8.164
 1211POPC   C4A20058   6.371  43.269   7.808
 1211POPC   C1B20059   6.633  42.853   8.776
 1211POPC   C2B20060   6.771  43.096   8.439
 1211POPC   C3B20061   6.823  43.187   8.040
 1211POPC   C4B20062   6.697  42.878   7.769
 1212POPC   NC320063  37.468   4.601   9.643
 1212POPC   PO420064  37.572   3.975   9.529
 1212POPC   GL120065  37.800   4.176   9.188
 1212POPC   GL220066  37.821   4.532   9.179
 1212POPC   C1A20067  37.620   4.307   8.766
 1212POPC   D2A20068  37.823   4.292   8.350
 1212POPC   C3A20069  37.549   4.417   8.025
 1212POPC   C4A20070  37.412   4.299   7.633
 1212POPC   C1B20071  38.091   4.473   8.774
 1212POPC   C2B20072  38.096   4.728   8.365
 1212POPC   C3B20073  38.080   4.525   7.951
 1212POPC   C4B20074  37.889   4.162   7.699
 1213POPC   NC320075   0.274  31.670   9.462
 1213POPC   PO420076   0.706  31.270   9.592
 1213POPC   GL120077   0.505  31.147   9.214
 1213POPC   GL220078   0.120  31.284   9.176
 1213POPC   C1A20079   0.744  31.110   8.823
 1213POPC   D2A20080   0.785  31.446   8.529
 1213POPC   C3A20081   0.605  31.518   8.154
 1213POPC   C4A20082   0.424  31.644   7.770
 1213POPC   C1B20083   0.245  31.177   8.765
 1213POPC   C2B20084   0.426  31.089   8.372
 1213POPC   C3B20085   0.247  31.200   7.968
 1213POPC   C4B20086  44.864  31.182   7.765
 1214POPC   NC320087  15.893  23.763   9.591
 1214POPC   PO420088  16.242  23.192   9.480
 1214POPC   GL120089  15.928  23.402   9.169
 1214POPC   GL220090  15.945  23.750   9.084
 1214POPC   C1A20091  15.677  23.470   8.770
 1214POPC   D2A20092  15.666  23.728   8.386
 1214POPC   C3A20093  15.813  23.705   7.956
 1214POPC   C4A20094  15.919  23.704   7.526
 1214POPC   C1B20095  16.055  23.906   8.667
 1214POPC   C2B20096  16.023  24.075   8.235
 1214POPC   C3B20097  16.049  24.157   7.784
 1214POPC   C4B20098  16.083  24.136   7.318
 1215POPC   NC320099  12.023   4.897   9.902
 1215POPC   PO420100  12.139   5.474   9.443
 1215POPC   GL120101  11.958   5.114   9.174
 1215POPC   GL220102  12.244   4.956   9.094
 1215POPC   C1A20103  11.867   4.980   8.701
 1215POPC   D2A20104  11.905   4.655   8.335
 1215POPC   C3A20105  11.990   4.850   7.907
 1215POPC   C4A20106  11.796   5.112   7.568
 1215POPC   C1B20107  12.373   4.884   8.670
 1215POPC   C2B20108  12.389   4.844   8.231
 1215POPC   C3B20109  12.546   4.831   7.829
 1215POPC   C4B20110  12.758   5.037   7.453
 1216POPC   NC320111  41.769  13.209   9.450
 1216POPC   PO420112  42.193  12.762   9.466
 1216POPC   GL120113  42.302  12.614   9.069
 1216POPC   GL220114  42.016  12.473   9.004
 1216POPC   C1A20115  42.482  12.797   8.701
 1216POPC   D2A20116  42.443  12.770   8.286
 1216POPC   C3A20117  42.545  13.046   7.947
 1216POPC   C4A20118  42.520  12.850   7.558
 1216POPC   C1B20119  41.948  12.826   8.710
 1216POPC   C2B20120  41.965  12.946   8.265
 1216POPC   C3B20121  42.115  12.722   7.886
 1216POPC   C4B20122  42.026  12.785   7.444
 1217POPC   NC320123  20.291   3.848   9.651
 1217POPC   PO420124  19.793   3.326   9.607
 1217POPC   GL120125  19.798   3.345   9.200
 1217POPC   GL220126  20.164   3.455   9.270
 1217POPC   C1A20127  19.689   3.331   8.738
 1217POPC   D2A20128  19.615   3.225   8.293
 1217POPC   C3A20129  19.661   3.544   7.963
 1217POPC   C4A20130  19.928   3.496   7.581
 1217POPC   C1B20131  20.180   3.203   8.912
 1217POPC   C2B20132  20.236   3.345   8.493
 1217POPC   C3B20133  20.094   3.304   8.060
 1217POPC   C4B20134  20.158   3.030   7.714
 1218POPC   NC320135  21.426  38.153   9.281
 1218POPC   PO420136  21.439  37.612   9.709
 1218POPC   GL120137  21.532  37.641   9.261
 1218POPC   GL220138  21.169  37.703   9.194
 1218POPC   C1A20139  21.676  37.785   8.824
 1218POPC   D2A20140  21.806  37.654   8.452
 1218POPC   C3A20141  21.837  37.885   8.095
 1218POPC   C4A20142  21.577  37.725   7.772
 1218POPC   C1B20143  21.283  37.465   8.821
 1218POPC   C2B20144  21.058  37.456   8.411
 1218POPC   C3B20145  21.172  37.368   7.971
 1218POPC   C4B20146  21.222  37.466   7.541
 1219POPC   NC320147   2.534  25.365   9.431
 1219POPC   PO420148   3.042  24.910   9.573
 1219POPC   GL120149   2.811  25.022   9.182
 1219POPC   GL220150   2.601  24.801   9.064
 1219POPC   C1A20151   2.605  25.209   8.773
 1219POPC   D2A20152   2.576  25.149   8.331
 1219POPC   C3A20153   2.629  25.517   8.110
 1219POPC   C4A20154   2.841  25.597   7.737
 1219POPC   C1B20155   2.939  24.787   8.695
 1219POPC   C2B20156   2.934  24.815   8.209
 1219POPC   C3B20157   2.788  25.050   7.819
 1219POPC   C4B20158   2.945  24.949   7.385
 1220POPC   NC320159  31.016  29.693   9.426
 1220POPC   PO420160  30.807  30.335   9.433
 1220POPC   GL120161  30.799  30.014   9.099
 1220POPC   GL220162  30.589  29.715   9.115
 1220POPC   C1A20163  30.983  29.816   8.751
 1220POPC   D2A20164  30.908  30.053   8.363
 1220POPC   C3A20165  30.889  29.954   7.913
 1220POPC   C4A20166  30.644  29.669   7.651
 1220POPC   C1B20167  30.490  29.838   8.648
 1220POPC   C2B20168  30.443  29.871   8.167
 1220POPC   C3B20169  30.255  30.017   7.756
 1220POPC   C4B20170  30.185  30.295   7.361
 1221POPC   NC320171  38.726   3.313   9.386
 1221POPC   PO420172  38.339   3.906   9.419
 1221POPC   GL120173  38.469   3.635   9.067
 1221POPC   GL220174  38.327   3.290   9.066
 1221POPC   C1A20175  38.768   3.505   8.723
 1221POPC   D2A20176  38.714   3.379   8.264
 1221POPC   C3A20177  38.584   3.660   7.943
 1221POPC   C4A20178  38.179   3.671   7.688
 1221POPC   C1B20179  38.281   3.418   8.626
 1221POPC   C2B20180  38.149   3.427   8.195
 1221POPC   C3B20181  38.349   3.223   7.879
 1221POPC   C4B20182  38.758   3.223   7.740
 1222POPC   NC320183  25.642  22.977   9.699
 1222POPC   PO420184  24.998  22.841   9.414
 1222POPC   GL120185  25.315  23.066   9.210
 1222POPC   GL220186  25.593  22.830   9.193
 1222POPC   C1A20187  25.260  23.286   8.801
 1222POPC   D2A20188  25.176  23.429   8.379
 1222POPC   C3A20189  25.433  23.268   8.024
 1222POPC   C4A20190  25.375  22.941   7.704
 1222POPC   C1B20191  25.446  22.777   8.787
 1222POPC   C2B20192  25.296  22.930   8.412
 1222POPC   C3B20193  25.020  22.960   8.085
 1222POPC   C4B20194  24.945  22.604   7.776
 1223POPC   NC320195  38.799  36.389   9.518
 1223POPC   PO420196  38.891  35.789   9.484
 1223POPC   GL120197  39.042  36.066   9.096
 1223POPC   GL220198  39.091  36.434   9.099
 1223POPC   C1A20199  39.262  36.112   8.647
 1223POPC   D2A20200  39.261  35.894   8.189
 1223POPC   C3A20201  39.375  35.977   7.738
 1223POPC   C4A20202  39.759  35.867   7.446
 1223POPC   C1B20203  38.820  36.380   8.741
 1223POPC   C2B20204  38.851  36.149   8.344
 1223POPC   C3B20205  39.013  36.323   7.940
 1223POPC   C4B20206  39.143  36.416   7.515
 1224POPC   NC320207  26.784  17.343   9.503
 1224POPC   PO420208  26.419  16.876   9.106
 1224POPC   GL120209  26.593  17.282   9.048
 1224POPC   GL220210  26.990  17.238   9.048
 1224POPC   C1A20211  26.737  17.620   8.794
 1224POPC   D2A20212  26.658  17.690   8.362
 1224POPC   C3A20213  26.647  17.456   7.957
 1224POPC   C4A20214  26.719  17.653   7.513
 1224POPC   C1B20215  27.402  17.230   8.819
 1224POPC   C2B20216  27.456  17.394   8.408
 1224POPC   C3B20217  27.142  17.540   8.133
 1224POPC   C4B20218  27.097  17.411   7.723
 1225POPC   NC320219  18.208  40.767   9.415
 1225POPC   PO420220  17.820  40.376   9.112
 1225POPC   GL120221  18.218  40.516   8.979
 1225POPC   GL220222  18.536  40.426   9.182
 1225POPC   C1A20223  18.371  40.852   8.728
 1225POPC   D2A20224  18.140  41.021   8.382
 1225POPC   C3A20225  18.293  41.116   8.002
 1225POPC   C4A20226  18.121  41.036   7.582
 1225POPC   C1B20227  18.614  40.384   8.714
 1225POPC   C2B20228  18.276  40.471   8.384
 1225POPC   C3B20229  18.197  40.616   7.960
 1225POPC   C4B20230  18.522  40.750   7.698
 1226POPC   NC320231  38.242   2.564   9.734
 1226POPC   PO420232  37.605   2.528   9.668
 1226POPC   GL120233  37.753   2.736   9.262
 1226POPC   GL220234  38.118   2.725   9.238
 1226POPC   C1A20235  37.593   2.873   8.845
 1226POPC   D2A20236  37.405   2.752   8.439
 1226POPC   C3A20237  37.635   2.574   8.112
 1226POPC   C4A20238  37.611   2.652   7.646
 1226POPC   C1B20239  38.124   2.902   8.808
 1226POPC   C2B20240  37.899   2.972   8.400
 1226POPC   C3B20241  37.984   2.897   7.960
 1226POPC   C4B20242  38.050   2.471   7.804
 1227POPC   NC320243  21.323  36.578   9.436
 1227POPC   PO420244  21.247  35.861   9.502
 1227POPC   GL120245  21.510  36.034   9.198
 1227POPC   GL220246  21.253  36.200   9.074
 1227POPC   C1A20247  21.679  36.127   8.766
 1227POPC   D2A20248  21.772  36.255   8.334
 1227POPC   C3A20249  21.694  36.101   7.899
 1227POPC   C4A20250  21.584  36.430   7.577
 1227POPC   C1B20251  21.213  35.986   8.685
 1227POPC   C2B20252  21.287  35.992   8.234
 1227POPC   C3B20253  21.197  36.116   7.807
 1227POPC   C4B20254  21.278  36.050   7.354
 1228POPC   NC320255  35.390  25.532   9.738
 1228POPC   PO420256  35.167  25.079   9.362
 1228POPC   GL120257  35.276  25.351   9.067
 1228POPC   GL220258  35.575  25.156   9.027
 1228POPC   C1A20259  35.236  25.467   8.625
 1228POPC   D2A20260  35.032  25.602   8.247
 1228POPC   C3A20261  35.178  25.281   8.019
 1228POPC   C4A20262  35.028  24.900   7.853
 1228POPC   C1B20263  35.742  25.474   8.742
 1228POPC   C2B20264  35.725  25.512   8.292
 1228POPC   C3B20265  35.671  25.430   7.844
 1228POPC   C4B20266  35.674  25.765   7.533
 1229POPC   NC320267  32.756   0.678   9.572
 1229POPC   PO420268  33.057   1.314   9.508
 1229POPC   GL120269  32.922   1.076   9.203
 1229POPC   GL220270  32.727   1.331   9.053
 1229POPC   C1A20271  32.957   0.956   8.789
 1229POPC   D2A20272  33.113   1.215   8.433
 1229POPC   C3A20273  33.131   1.005   8.051
 1229POPC   C4A20274  32.987   1.030   7.667
 1229POPC   C1B20275  32.686   1.415   8.640
 1229POPC   C2B20276  32.841   1.617   8.279
 1229POPC   C3B20277  32.996   1.497   7.923
 1229POPC   C4B20278  32.610   1.345   7.766
 1230POPC   NC320279   6.913  34.832   9.410
 1230POPC   PO420280   6.418  34.407   9.688
 1230POPC   GL120281   6.529  34.287   9.251
 1230POPC   GL220282   6.825  34.421   9.077
 1230POPC   C1A20283   6.404  34.194   8.808
 1230POPC   D2A20284   6.324  34.405   8.397
 1230POPC   C3A20285   6.561  34.446   8.000
 1230POPC   C4A20286   6.492  34.753   7.670
 1230POPC   C1B20287   6.847  34.750   8.724
 1230POPC   C2B20288   6.759  34.899   8.269
 1230POPC   C3B20289   6.991  34.818   7.869
 1230POPC   C4B20290   7.348  34.782   7.553
 1231POPC   NC320291  30.280  25.847   9.407
 1231POPC   PO420292  29.664  26.097   9.439
 1231POPC   GL120293  29.895  26.079   9.085
 1231POPC   GL220294  30.196  26.282   9.112
 1231POPC   C1A20295  29.851  25.817   8.722
 1231POPC   D2A20296  29.968  25.917   8.311
 1231POPC   C3A20297  29.697  25.822   7.995
 1231POPC   C4A20298  29.480  25.938   7.626
 1231POPC   C1B20299  30.298  26.059   8.756
 1231POPC   C2B20300  30.349  26.236   8.360
 1231POPC   C3B20301  30.195  26.229   7.940
 1231POPC   C4B20302  29.959  26.049   7.608
 1232POPC   NC320303  21.893  39.160   9.586
 1232POPC   PO420304  22.591  39.248   9.566
 1232POPC   GL120305  22.276  39.268   9.206
 1232POPC   GL220306  22.042  39.533   9.253
 1232POPC   C1A20307  22.146  39.037   8.804
 1232POPC   D2A20308  22.149  38.809   8.381
 1232POPC   C3A20309  22.190  38.996   7.952
 1232POPC   C4A20310  21.854  39.046   7.646
 1232POPC   C1B20311  21.970  39.526   8.804
 1232POPC   C2B20312  21.763  39.420   8.394
 1232POPC   C3B20313  21.897  39.472   7.949
 1232POPC   C4B20314  22.359  39.491   7.810
 1233POPC   NC320315   5.357  40.982   9.353
 1233POPC   PO420316   4.787  40.798   9.649
 1233POPC   GL120317   4.832  40.938   9.211
 1233POPC   GL220318   4.761  41.274   9.136
 1233POPC   C1A20319   4.998  40.785   8.829
 1233POPC   D2A20320   4.784  40.497   8.601
 1233POPC   C3A20321   4.742  40.527   8.189
 1233POPC   C4A20322   5.084  40.551   7.911
 1233POPC   C1B20323   4.908  41.277   8.674
 1233POPC   C2B20324   5.051  40.989   8.330
 1233POPC   C3B20325   5.213  41.037   7.890
 1233POPC   C4B20326   5.102  41.022   7.439
 1234POPC   NC320327  29.485  43.277   9.421
 1234POPC   PO420328  29.148  42.782   9.808
 1234POPC   GL120329  29.147  42.914   9.348
 1234POPC   GL220330  28.897  42.726   9.243
 1234POPC   C1A20331  29.173  42.996   8.890
 1234POPC   D2A20332  29.007  43.072   8.456
 1234POPC   C3A20333  29.209  43.044   8.040
 1234POPC   C4A20334  29.060  43.193   7.621
 1234POPC   C1B20335  28.731  42.749   8.805
 1234POPC   C2B20336  28.832  42.621   8.369
 1234POPC   C3B20337  28.743  42.831   7.995
 1234POPC   C4B20338  28.605  42.881   7.567
 1235POPC   NC320339  43.040   0.944   9.483
 1235POPC   PO420340  43.521   1.450   9.539
 1235POPC   GL120341  43.381   1.227   9.180
 1235POPC   GL220342  43.036   1.355   9.163
 1235POPC   C1A20343  43.497   1.004   8.799
 1235POPC   D2A20344  43.316   1.112   8.400
 1235POPC   C3A20345  43.480   1.118   7.993
 1235POPC   C4A20346  43.294   1.359   7.633
 1235POPC   C1B20347  42.969   1.125   8.783
 1235POPC   C2B20348  42.831   1.269   8.363
 1235POPC   C3B20349  42.963   1.132   7.957
 1235POPC   C4B20350  42.764   1.254   7.563
 1236POPC   NC320351   9.719   1.209   9.549
 1236POPC   PO420352  10.217   0.877   9.299
 1236POPC   GL120353   9.821   0.953   9.096
 1236POPC   GL220354   9.817   1.308   9.049
 1236POPC   C1A20355   9.750   0.944   8.653
 1236POPC   D2A20356   9.716   1.309   8.401
 1236POPC   C3A20357   9.692   1.309   7.959
 1236POPC   C4A20358   9.709   1.184   7.533
 1236POPC   C1B20359   9.404   1.301   8.838
 1236POPC   C2B20360   9.232   1.509   8.481
 1236POPC   C3B20361   9.219   1.445   8.068
 1236POPC   C4B20362   9.230   1.383   7.627
 1237POPC   NC320363  34.249  19.999   9.386
 1237POPC   PO420364  33.603  20.061   9.545
 1237POPC   GL120365  33.786  20.033   9.146
 1237POPC   GL220366  33.958  19.693   9.085
 1237POPC   C1A20367  33.615  19.931   8.757
 1237POPC   D2A20368  33.458  20.006   8.367
 1237POPC   C3A20369  33.553  19.755   7.989
 1237POPC   C4A20370  33.769  19.795   7.623
 1237POPC   C1B20371  34.123  19.943   8.739
 1237POPC   C2B20372  33.958  20.115   8.389
 1237POPC   C3B20373  34.064  19.891   8.023
 1237POPC   C4B20374  34.285  19.706   7.696
 1238POPC   NC320375  15.226  43.333   9.641
 1238POPC   PO420376  14.967  42.863   9.336
 1238POPC   GL120377  15.131  43.234   9.154
 1238POPC   GL220378  14.816  43.365   9.199
 1238POPC   C1A20379  15.412  43.323   8.804
 1238POPC   D2A20380  15.263  43.177   8.420
 1238POPC   C3A20381  15.357  43.402   8.064
 1238POPC   C4A20382  15.307  43.254   7.659
 1238POPC   C1B20383  14.769  43.203   8.776
 1238POPC   C2B20384  14.673  43.171   8.347
 1238POPC   C3B20385  14.867  43.172   7.935
 1238POPC   C4B20386  14.896  42.989   7.499
 1239POPC   NC320387   1.688  41.030   9.466
 1239POPC   PO420388   2.353  41.240   9.580
 1239POPC   GL120389   2.215  41.492   9.211
 1239POPC   GL220390   1.869  41.463   9.241
 1239POPC   C1A20391   2.044  41.647   8.793
 1239POPC   D2A20392   2.001  41.897   8.392
 1239POPC   C3A20393   2.036  41.618   8.035
 1239POPC   C4A20394   2.193  41.498   7.618
 1239POPC   C1B20395   1.716  41.240   8.861
 1239POPC   C2B20396   1.680  40.997   8.498
 1239POPC   C3B20397   1.629  41.135   8.057
 1239POPC   C4B20398   1.699  41.395   7.729
 1240POPC   NC320399   2.693   0.769   9.406
 1240POPC   PO420400   2.872   1.326   9.668
 1240POPC   GL120401   2.985   1.178   9.224
 1240POPC   GL220402   2.630   1.187   9.073
 1240POPC   C1A20403   3.020   1.351   8.799
 1240POPC   D2A20404   2.641   1.328   8.518
 1240POPC   C3A20405   2.701   1.194   8.094
 1240POPC   C4A20406   2.617   1.051   7.690
 1240POPC   C1B20407   2.830   0.898   8.763
 1240POPC   C2B20408   2.858   0.754   8.332
 1240POPC   C3B20409   2.935   0.729   7.904
 1240POPC   C4B20410   3.097   0.807   7.459
 1241POPC   NC320411  16.470  13.418   9.329
 1241POPC   PO420412  16.983  13.744   9.453
 1241POPC   GL120413  16.873  13.552   9.048
 1241POPC   GL220414  16.830  13.183   9.022
 1241POPC   C1A20415  16.702  13.734   8.677
 1241POPC   D2A20416  16.774  13.882   8.259
 1241POPC   C3A20417  16.611  13.587   7.969
 1241POPC   C4A20418  16.424  13.682   7.591
 1241POPC   C1B20419  17.090  13.195   8.720
 1241POPC   C2B20420  16.940  13.385   8.360
 1241POPC   C3B20421  17.109  13.561   8.023
 1241POPC   C4B20422  17.028  13.461   7.590
 1242POPC   NC320423  32.582   4.715   9.620
 1242POPC   PO420424  32.156   4.203   9.762
 1242POPC   GL120425  32.152   4.130   9.334
 1242POPC   GL220426  32.429   4.332   9.282
 1242POPC   C1A20427  31.876   4.202   8.967
 1242POPC   D2A20428  31.774   4.252   8.531
 1242POPC   C3A20429  31.988   4.453   8.223
 1242POPC   C4A20430  31.994   4.255   7.852
 1242POPC   C1B20431  32.581   4.124   8.920
 1242POPC   C2B20432  32.506   4.273   8.519
 1242POPC   C3B20433  32.621   4.120   8.104
 1242POPC   C4B20434  32.474   4.121   7.694
 1243POPC   NC320435  27.705  17.169   9.454
 1243POPC   PO420436  27.468  16.554   9.665
 1243POPC   GL120437  27.724  16.615   9.283
 1243POPC   GL220438  27.843  16.311   9.112
 1243POPC   C1A20439  27.739  16.796   8.865
 1243POPC   D2A20440  27.833  17.052   8.506
 1243POPC   C3A20441  27.830  16.791   8.137
 1243POPC   C4A20442  27.757  16.778   7.690
 1243POPC   C1B20443  27.996  16.381   8.680
 1243POPC   C2B20444  27.948  16.283   8.232
 1243POPC   C3B20445  28.113  16.448   7.841
 1243POPC   C4B20446  28.126  16.557   7.373
 1244POPC   NC320447   5.957  41.342   9.455
 1244POPC   PO420448   6.047  42.043   9.491
 1244POPC   GL120449   6.132  41.732   9.153
 1244POPC   GL220450   5.774  41.568   9.030
 1244POPC   C1A20451   6.081  41.888   8.743
 1244POPC   D2A20452   5.736  41.741   8.530
 1244POPC   C3A20453   5.746  41.744   8.130
 1244POPC   C4A20454   6.010  41.666   7.847
 1244POPC   C1B20455   5.554  41.293   8.684
 1244POPC   C2B20456   5.395  41.393   8.261
 1244POPC   C3B20457   5.612  41.334   7.833
 1244POPC   C4B20458   5.582  41.112   7.404
 1245POPC   NC320459  13.961   1.876   9.605
 1245POPC   PO420460  13.335   1.724   9.799
 1245POPC   GL120461  13.505   1.885   9.338
 1245POPC   GL220462  13.314   2.161   9.139
 1245POPC   C1A20463  13.691   1.942   8.873
 1245POPC   D2A20464  13.675   2.281   8.537
 1245POPC   C3A20465  13.775   2.175   8.113
 1245POPC   C4A20466  14.015   2.306   7.755
 1245POPC   C1B20467  13.225   2.086   8.711
 1245POPC   C2B20468  13.389   1.875   8.391
 1245POPC   C3B20469  13.337   1.950   8.000
 1245POPC   C4B20470  13.582   1.960   7.662
 1246POPC   NC320471   6.125  12.470   9.380
 1246POPC   PO420472   5.909  12.949   9.829
 1246POPC   GL120473   5.736  12.775   9.342
 1246POPC   GL220474   6.038  12.908   9.119
 1246POPC   C1A20475   5.709  12.598   8.879
 1246POPC   D2A20476   5.855  12.525   8.433
 1246POPC   C3A20477   5.679  12.778   8.106
 1246POPC   C4A20478   5.764  12.789   7.676
 1246POPC   C1B20479   6.232  12.711   8.751
 1246POPC   C2B20480   6.392  12.572   8.361
 1246POPC   C3B20481   6.216  12.696   7.975
 1246POPC   C4B20482   6.206  12.529   7.593
 1247POPC   NC320483  38.784  40.747   9.588
 1247POPC   PO420484  39.414  40.637   9.506
 1247POPC   GL120485  39.286  40.770   9.118
 1247POPC   GL220486  38.972  40.958   9.136
 1247POPC   C1A20487  39.308  40.981   8.726
 1247POPC   D2A20488  39.058  41.012   8.356
 1247POPC   C3A20489  39.339  40.855   8.034
 1247POPC   C4A20490  39.582  40.512   7.822
 1247POPC   C1B20491  38.867  40.703   8.757
 1247POPC   C2B20492  38.690  40.653   8.334
 1247POPC   C3B20493  38.839  40.835   7.905
 1247POPC   C4B20494  38.829  40.829   7.440
 1248POPC   NC320495   6.248  18.344   9.506
 1248POPC   PO420496   6.989  18.290   9.494
 1248POPC   GL120497   6.662  18.224   9.198
 1248POPC   GL220498   6.479  18.526   9.076
 1248POPC   C1A20499   6.647  18.177   8.755
 1248POPC   D2A20500   6.726  18.443   8.405
 1248POPC   C3A20501   6.586  18.207   8.061
 1248POPC   C4A20502   6.743  17.990   7.694
 1248POPC   C1B20503   6.241  18.613   8.687
 1248POPC   C2B20504   6.135  18.460   8.269
 1248POPC   C3B20505   6.269  18.632   7.896
 1248POPC   C4B20506   6.613  18.507   7.642
 1249POPC   NC320507  30.034  19.329   9.466
 1249POPC   PO420508  29.807  18.831   9.815
 1249POPC   GL120509  29.759  18.956   9.269
 1249POPC   GL220510  29.629  19.237   9.087
 1249POPC   C1A20511  29.889  18.798   8.830
 1249POPC   D2A20512  30.027  18.912   8.430
 1249POPC   C3A20513  29.828  18.847   8.078
 1249POPC   C4A20514  29.834  18.966   7.682
 1249POPC   C1B20515  29.909  19.335   8.746
 1249POPC   C2B20516  30.118  19.397   8.352
 1249POPC   C3B20517  29.981  19.401   7.948
 1249POPC   C4B20518  30.195  19.336   7.613
 1250POPC   NC320519  26.758  24.274   9.509
 1250POPC   PO420520  26.402  24.770   9.730
 1250POPC   GL120521  26.560  24.661   9.250
 1250POPC   GL220522  26.887  24.810   9.173
 1250POPC   C1A20523  26.698  24.416   8.853
 1250POPC   D2A20524  26.891  24.363   8.424
 1250POPC   C3A20525  26.601  24.301   8.034
 1250POPC   C4A20526  26.415  24.415   7.652
 1250POPC   C1B20527  27.046  24.785   8.732
 1250POPC   C2B20528  27.033  24.928   8.319
 1250POPC   C3B20529  26.958  24.653   7.992
 1250POPC   C4B20530  27.088  24.220   7.983
 1251POPC   NC320531  39.520  11.625   9.430
 1251POPC   PO420532  39.222  10.984   9.588
 1251POPC   GL120533  39.178  11.213   9.184
 1251POPC   GL220534  39.323  10.965   8.951
 1251POPC   C1A20535  39.271  11.411   8.751
 1251POPC   D2A20536  39.483  11.176   8.384
 1251POPC   C3A20537  39.463  11.452   8.029
 1251POPC   C4A20538  39.348  11.488   7.596
 1251POPC   C1B20539  38.881  11.030   8.797
 1251POPC   C2B20540  38.763  11.055   8.343
 1251POPC   C3B20541  38.999  11.229   7.970
 1251POPC   C4B20542  38.849  11.450   7.589
 1252POPC   NC320543   4.629  33.141   9.414
 1252POPC   PO420544   4.065  32.661   9.432
 1252POPC   GL120545   4.325  32.843   9.071
 1252POPC   GL220546   4.293  33.215   9.027
 1252POPC   C1A20547   4.546  32.688   8.671
 1252POPC   D2A20548   4.516  32.603   8.246
 1252POPC   C3A20549   4.269  32.873   8.033
 1252POPC   C4A20550   4.303  33.003   7.624
 1252POPC   C1B20551   4.673  33.173   8.746
 1252POPC   C2B20552   4.786  33.042   8.314
 1252POPC   C3B20553   4.614  33.250   7.965
 1252POPC   C4B20554   4.694  33.330   7.548
 1253POPC   NC320555   2.679  24.524   9.485
 1253POPC   PO420556   3.289  24.157   9.478
 1253POPC   GL120557   2.932  24.172   9.205
 1253POPC   GL220558   3.059  24.494   9.119
 1253POPC   C1A20559   2.668  24.360   8.843
 1253POPC   D2A20560   2.444  24.671   8.590
 1253POPC   C3A20561   2.414  24.677   8.130
 1253POPC   C4A20562   2.582  24.413   7.823
 1253POPC   C1B20563   3.129  24.205   8.750
 1253POPC   C2B20564   2.898  24.331   8.394
 1253POPC   C3B20565   3.045  24.323   8.025
 1253POPC   C4B20566   3.046  24.612   7.737
 1254POPC   NC320567  22.661   9.142   9.463
 1254POPC   PO420568  22.065   8.840   9.457
 1254POPC   GL120569  22.358   8.860   9.100
 1254POPC   GL220570  22.322   9.226   9.089
 1254POPC   C1A20571  22.416   8.973   8.626
 1254POPC   D2A20572  22.211   9.248   8.290
 1254POPC   C3A20573  22.028   9.061   7.900
 1254POPC   C4A20574  21.698   8.989   7.601
 1254POPC   C1B20575  22.492   9.458   8.745
 1254POPC   C2B20576  22.715   9.375   8.353
 1254POPC   C3B20577  22.621   9.162   7.982
 1254POPC   C4B20578  22.390   9.351   7.637
 1255POPC   NC320579  27.439  15.422   9.420
 1255POPC   PO420580  27.713  14.743   9.429
 1255POPC   GL120581  27.520  15.012   9.113
 1255POPC   GL220582  27.659  15.354   8.984
 1255POPC   C1A20583  27.506  14.985   8.657
 1255POPC   D2A20584  27.859  14.981   8.377
 1255POPC   C3A20585  27.743  14.957   7.981
 1255POPC   C4A20586  27.520  15.218   7.748
 1255POPC   C1B20587  27.465  15.507   8.636
 1255POPC   C2B20588  27.466  15.446   8.201
 1255POPC   C3B20589  27.178  15.592   7.876
 1255POPC   C4B20590  27.144  15.618   7.434
 1256POPC   NC320591   5.032   1.533   9.494
 1256POPC   PO420592   4.829   2.227   9.502
 1256POPC   GL120593   5.037   2.052   9.105
 1256POPC   GL220594   5.183   1.721   9.055
 1256POPC   C1A20595   4.845   1.870   8.703
 1256POPC   D2A20596   4.618   1.941   8.299
 1256POPC   C3A20597   4.833   2.066   7.917
 1256POPC   C4A20598   5.151   2.359   7.879
 1256POPC   C1B20599   5.341   1.913   8.703
 1256POPC   C2B20600   5.181   2.051   8.330
 1256POPC   C3B20601   5.316   1.883   7.961
 1256POPC   C4B20602   5.150   1.473   7.878
 1257POPC   NC320603   9.334  39.209   9.633
 1257POPC   PO420604  10.045  39.310   9.619
 1257POPC   GL120605   9.778  39.420   9.249
 1257POPC   GL220606   9.965  39.153   9.118
 1257POPC   C1A20607   9.504  39.527   8.835
 1257POPC   D2A20608   9.376  39.725   8.391
 1257POPC   C3A20609   9.488  39.436   8.029
 1257POPC   C4A20610   9.474  39.019   7.806
 1257POPC   C1B20611   9.789  39.091   8.718
 1257POPC   C2B20612   9.740  39.058   8.276
 1257POPC   C3B20613   9.972  39.121   7.887
 1257POPC   C4B20614   9.827  39.189   7.471
 1258POPC   NC320615   2.279   9.664   9.311
 1258POPC   PO420616   2.930   9.620   9.581
 1258POPC   GL120617   2.768   9.432   9.199
 1258POPC   GL220618   2.713   9.763   9.069
 1258POPC   C1A20619   2.831   9.384   8.739
 1258POPC   D2A20620   2.814   9.598   8.329
 1258POPC   C3A20621   2.921   9.449   7.916
 1258POPC   C4A20622   3.072   9.754   7.598
 1258POPC   C1B20623   2.702   9.969   8.681
 1258POPC   C2B20624   2.520  10.030   8.272
 1258POPC   C3B20625   2.733  10.028   7.861
 1258POPC   C4B20626   2.707  10.042   7.372
 1259POPC   NC320627  19.485  43.953   9.428
 1259POPC   PO420628  18.899  43.497   9.426
 1259POPC   GL120629  19.012  43.881   9.199
 1259POPC   GL220630  19.292  43.743   9.000
 1259POPC   C1A20631  19.036  44.145   8.803
 1259POPC   D2A20632  19.087  43.981   8.374
 1259POPC   C3A20633  19.055  44.249   7.992
 1259POPC   C4A20634  19.226  44.177   7.602
 1259POPC   C1B20635  18.883  43.644   8.763
 1259POPC   C2B20636  18.770  43.279   8.492
 1259POPC   C3B20637  18.834  43.373   8.058
 1259POPC   C4B20638  18.935  43.731   7.755
 1260POPC   NC320639  32.141  13.937   9.597
 1260POPC   PO420640  32.533  13.406   9.572
 1260POPC   GL120641  32.393  13.668   9.221
 1260POPC   GL220642  32.037  13.684   9.178
 1260POPC   C1A20643  32.302  13.905   8.816
 1260POPC   D2A20644  32.153  13.780   8.405
 1260POPC   C3A20645  32.269  13.531   8.048
 1260POPC   C4A20646  32.309  13.794   7.707
 1260POPC   C1B20647  31.947  13.505   8.806
 1260POPC   C2B20648  31.980  13.289   8.429
 1260POPC   C3B20649  31.724  13.321   8.066
 1260POPC   C4B20650  31.876  13.507   7.677
 1261POPC   NC320651   7.245  36.279   9.363
 1261POPC   PO420652   6.678  36.034   9.637
 1261POPC   GL120653   6.539  36.091   9.212
 1261POPC   GL220654   6.843  36.086   9.123
 1261POPC   C1A20655   6.532  35.953   8.755
 1261POPC   D2A20656   6.501  36.188   8.385
 1261POPC   C3A20657   6.528  36.056   7.969
 1261POPC   C4A20658   6.359  36.405   7.721
 1261POPC   C1B20659   7.022  36.106   8.749
 1261POPC   C2B20660   6.957  35.940   8.366
 1261POPC   C3B20661   7.039  36.122   8.000
 1261POPC   C4B20662   6.873  36.267   7.629
 1262POPC   NC320663  32.529  36.616   9.537
 1262POPC   PO420664  33.224  36.866   9.455
 1262POPC   GL120665  33.075  36.941   9.074
 1262POPC   GL220666  32.844  36.705   9.105
 1262POPC   C1A20667  33.130  37.122   8.688
 1262POPC   D2A20668  33.365  37.156   8.375
 1262POPC   C3A20669  33.338  36.870   8.042
 1262POPC   C4A20670  33.098  36.945   7.692
 1262POPC   C1B20671  32.694  36.854   8.688
 1262POPC   C2B20672  32.824  36.877   8.229
 1262POPC   C3B20673  32.628  37.056   7.828
 1262POPC   C4B20674  32.762  37.148   7.367
 1263POPC   NC320675  27.892  30.458   9.698
 1263POPC   PO420676  28.434  30.492   9.559
 1263POPC   GL120677  28.549  30.603   9.105
 1263POPC   GL220678  28.770  30.883   9.133
 1263POPC   C1A20679  28.378  30.663   8.652
 1263POPC   D2A20680  28.226  30.909   8.253
 1263POPC   C3A20681  28.058  30.710   7.865
 1263POPC   C4A20682  27.802  30.823   7.474
 1263POPC   C1B20683  28.752  31.008   8.710
 1263POPC   C2B20684  28.729  30.837   8.305
 1263POPC   C3B20685  28.600  30.787   7.903
 1263POPC   C4B20686  28.832  30.911   7.563
 1264POPC   NC320687  30.203  43.716   9.960
 1264POPC   PO420688  30.436  44.195   9.510
 1264POPC   GL120689  30.273  43.869   9.154
 1264POPC   GL220690  29.979  43.635   9.111
 1264POPC   C1A20691  30.124  43.879   8.664
 1264POPC   D2A20692  29.894  44.088   8.283
 1264POPC   C3A20693  29.895  43.821   7.893
 1264POPC   C4A20694  30.258  43.602   7.704
 1264POPC   C1B20695  29.860  43.430   8.714
 1264POPC   C2B20696  29.687  43.618   8.329
 1264POPC   C3B20697  29.435  43.945   8.109
 1264POPC   C4B20698  29.590  44.259   7.799
 1265POPC   NC320699  34.146  26.887   9.450
 1265POPC   PO420700  34.740  26.548   9.616
 1265POPC   GL120701  34.560  26.635   9.205
 1265POPC   GL220702  34.818  26.880   9.188
 1265POPC   C1A20703  34.298  26.744   8.807
 1265POPC   D2A20704  34.224  26.969   8.398
 1265POPC   C3A20705  34.222  26.762   8.007
 1265POPC   C4A20706  34.419  26.824   7.635
 1265POPC   C1B20707  34.868  26.726   8.809
 1265POPC   C2B20708  34.648  26.647   8.437
 1265POPC   C3B20709  34.731  26.790   8.034
 1265POPC   C4B20710  34.933  26.729   7.614
 1266POPC   NC320711  15.189  30.758   9.572
 1266POPC   PO420712  15.422  30.292   9.407
 1266POPC   GL120713  15.160  30.577   9.091
 1266POPC   GL220714  14.994  30.930   9.133
 1266POPC   C1A20715  15.282  30.819   8.722
 1266POPC   D2A20716  15.461  30.855   8.327
 1266POPC   C3A20717  15.372  30.619   7.967
 1266POPC   C4A20718  15.375  30.739   7.536
 1266POPC   C1B20719  14.784  30.931   8.729
 1266POPC   C2B20720  14.938  30.880   8.289
 1266POPC   C3B20721  14.996  30.934   7.852
 1266POPC   C4B20722  14.838  30.688   7.496
 1267POPC   NC320723   1.176  42.422   9.498
 1267POPC   PO420724   1.600  41.883   9.444
 1267POPC   GL120725   1.429  42.132   9.119
 1267POPC   GL220726   1.092  42.105   9.103
 1267POPC   C1A20727   1.476  42.469   8.802
 1267POPC   D2A20728   1.312  42.647   8.426
 1267POPC   C3A20729   1.419  42.403   8.074
 1267POPC   C4A20730   1.457  42.253   7.685
 1267POPC   C1B20731   1.003  42.312   8.744
 1267POPC   C2B20732   0.966  42.276   8.357
 1267POPC   C3B20733   0.914  42.299   7.975
 1267POPC   C4B20734   0.965  41.906   7.868
 1268POPC   NC320735  33.940  15.744   9.454
 1268POPC   PO420736  33.655  16.464   9.581
 1268POPC   GL120737  33.739  16.153   9.259
 1268POPC   GL220738  33.583  15.846   9.103
 1268POPC   C1A20739  33.869  16.173   8.834
 1268POPC   D2A20740  34.134  16.027   8.520
 1268POPC   C3A20741  33.987  16.110   8.102
 1268POPC   C4A20742  34.131  16.040   7.705
 1268POPC   C1B20743  33.839  15.674   8.751
 1268POPC   C2B20744  33.939  15.624   8.268
 1268POPC   C3B20745  33.788  15.685   7.835
 1268POPC   C4B20746  33.758  15.559   7.385
 1269POPC   NC320747  23.526  24.651   9.632
 1269POPC   PO420748  23.942  24.084   9.568
 1269POPC   GL120749  23.970  24.501   9.278
 1269POPC   GL220750  23.670  24.623   9.110
 1269POPC   C1A20751  24.111  24.775   8.885
 1269POPC   D2A20752  24.188  24.600   8.426
 1269POPC   C3A20753  23.889  24.631   8.099
 1269POPC   C4A20754  23.757  24.345   7.795
 1269POPC   C1B20755  23.713  24.597   8.640
 1269POPC   C2B20756  23.431  24.753   8.313
 1269POPC   C3B20757  23.315  24.707   7.877
 1269POPC   C4B20758  23.447  24.543   7.468
 1270POPC   NC320759  11.357  16.122   9.562
 1270POPC   PO420760  10.994  15.596   9.502
 1270POPC   GL120761  11.148  15.822   9.154
 1270POPC   GL220762  11.485  15.933   9.123
 1270POPC   C1A20763  11.104  15.810   8.722
 1270POPC   D2A20764  11.377  15.747   8.368
 1270POPC   C3A20765  11.277  15.903   7.963
 1270POPC   C4A20766  11.215  15.726   7.571
 1270POPC   C1B20767  11.658  16.003   8.747
 1270POPC   C2B20768  11.862  15.939   8.386
 1270POPC   C3B20769  11.787  15.793   8.008
 1270POPC   C4B20770  11.691  15.887   7.601
 1271POPC   NC320771  13.173  42.137   9.519
 1271POPC   PO420772  12.582  42.532   9.573
 1271POPC   GL120773  12.865  42.458   9.204
 1271POPC   GL220774  13.199  42.565   9.185
 1271POPC   C1A20775  12.744  42.433   8.764
 1271POPC   D2A20776  12.806  42.149   8.398
 1271POPC   C3A20777  12.886  42.352   8.004
 1271POPC   C4A20778  12.880  42.197   7.588
 1271POPC   C1B20779  13.207  42.263   8.832
 1271POPC   C2B20780  13.279  42.353   8.412
 1271POPC   C3B20781  13.356  42.563   8.039
 1271POPC   C4B20782  13.354  42.267   7.703
 1272POPC   NC320783  19.179  38.035   9.534
 1272POPC   PO420784  19.294  38.666   9.503
 1272POPC   GL120785  19.136  38.624   9.106
 1272POPC   GL220786  19.229  38.258   9.061
 1272POPC   C1A20787  18.927  38.736   8.712
 1272POPC   D2A20788  18.935  38.470   8.333
 1272POPC   C3A20789  18.908  38.490   7.880
 1272POPC   C4A20790  18.697  38.190   7.590
 1272POPC   C1B20791  19.354  38.426   8.660
 1272POPC   C2B20792  19.427  38.310   8.251
 1272POPC   C3B20793  19.421  38.454   7.844
 1272POPC   C4B20794  19.200  38.272   7.492
 1273POPC   NC320795  13.257  36.395   9.440
 1273POPC   PO420796  13.194  35.803   9.320
 1273POPC   GL120797  13.374  36.066   9.053
 1273POPC   GL220798  13.749  36.084   9.037
 1273POPC   C1A20799  13.383  36.166   8.649
 1273POPC   D2A20800  13.674  36.163   8.370
 1273POPC   C3A20801  13.560  36.029   7.995
 1273POPC   C4A20802  13.624  36.189   7.595
 1273POPC   C1B20803  13.999  35.853   8.709
 1273POPC   C2B20804  14.135  35.998   8.284
 1273POPC   C3B20805  14.020  35.868   7.845
 1273POPC   C4B20806  13.960  35.909   7.354
 1274POPC   NC320807   3.813  40.286   9.410
 1274POPC   PO420808   3.478  39.739   9.445
 1274POPC   GL120809   3.668  39.847   9.063
 1274POPC   GL220810   3.454  40.085   9.048
 1274POPC   C1A20811   3.592  39.968   8.585
 1274POPC   D2A20812   3.858  40.143   8.311
 1274POPC   C3A20813   3.872  39.874   8.000
 1274POPC   C4A20814   3.625  39.975   7.663
 1274POPC   C1B20815   3.126  40.214   8.810
 1274POPC   C2B20816   3.256  40.354   8.425
 1274POPC   C3B20817   3.372  40.089   8.106
 1274POPC   C4B20818   3.233  40.330   7.784
 1275POPC   NC320819   5.363   2.281   9.466
 1275POPC   PO420820   5.262   3.014   9.448
 1275POPC   GL120821   4.963   2.906   9.108
 1275POPC   GL220822   4.905   2.561   9.102
 1275POPC   C1A20823   5.146   2.857   8.703
 1275POPC   D2A20824   5.008   2.901   8.292
 1275POPC   C3A20825   5.243   2.892   7.911
 1275POPC   C4A20826   5.358   3.181   7.546
 1275POPC   C1B20827   4.883   2.377   8.700
 1275POPC   C2B20828   4.800   2.440   8.278
 1275POPC   C3B20829   4.728   2.603   7.854
 1275POPC   C4B20830   4.831   2.353   7.452
 1276POPC   NC320831  32.076   5.355   9.410
 1276POPC   PO420832  32.042   5.877   9.792
 1276POPC   GL120833  31.972   5.857   9.300
 1276POPC   GL220834  32.209   5.676   9.053
 1276POPC   C1A20835  31.865   5.991   8.846
 1276POPC   D2A20836  31.704   5.885   8.403
 1276POPC   C3A20837  31.897   5.988   7.961
 1276POPC   C4A20838  32.362   6.043   7.871
 1276POPC   C1B20839  32.032   5.549   8.653
 1276POPC   C2B20840  32.112   5.610   8.207
 1276POPC   C3B20841  32.175   5.582   7.775
 1276POPC   C4B20842  31.955   5.669   7.399
 1277POPC   NC320843   0.547  35.749   9.508
 1277POPC   PO420844   0.274  35.135   9.739
 1277POPC   GL120845   0.556  35.184   9.357
 1277POPC   GL220846   0.358  35.395   9.204
 1277POPC   C1A20847   0.760  35.286   8.921
 1277POPC   D2A20848   0.771  35.473   8.487
 1277POPC   C3A20849   0.528  35.529   8.050
 1277POPC   C4A20850   0.589  35.172   7.762
 1277POPC   C1B20851   0.350  35.574   8.823
 1277POPC   C2B20852   0.263  35.411   8.463
 1277POPC   C3B20853   0.000  35.369   8.134
 1277POPC   C4B20854   0.126  35.376   7.734
 1278POPC   NC320855  25.369  37.092   9.425
 1278POPC   PO420856  24.894  36.659   9.221
 1278POPC   GL120857  25.012  37.014   9.056
 1278POPC   GL220858  25.349  36.870   8.963
 1278POPC   C1A20859  25.020  37.128   8.653
 1278POPC   D2A20860  25.325  36.926   8.417
 1278POPC   C3A20861  25.207  36.992   8.028
 1278POPC   C4A20862  25.016  36.669   7.832
 1278POPC   C1B20863  25.517  37.239   8.771
 1278POPC   C2B20864  25.677  37.318   8.388
 1278POPC   C3B20865  25.743  36.960   8.114
 1278POPC   C4B20866  25.591  37.025   7.706
 1279POPC   NC320867  26.455  21.386   9.360
 1279POPC   PO420868  27.083  21.175   9.479
 1279POPC   GL120869  26.978  21.485   9.172
 1279POPC   GL220870  26.780  21.259   8.981
 1279POPC   C1A20871  26.837  21.725   8.773
 1279POPC   D2A20872  26.502  21.720   8.428
 1279POPC   C3A20873  26.692  21.576   8.061
 1279POPC   C4A20874  27.096  21.596   7.875
 1279POPC   C1B20875  26.498  21.041   8.693
 1279POPC   C2B20876  26.376  21.014   8.245
 1279POPC   C3B20877  26.537  21.147   7.855
 1279POPC   C4B20878  26.478  21.550   7.607
 1280POPC   NC320879  12.201  32.782   9.379
 1280POPC   PO420880  11.871  33.376   9.452
 1280POPC   GL120881  11.958  33.112   9.094
 1280POPC   GL220882  12.278  33.042   8.948
 1280POPC   C1A20883  11.781  33.081   8.698
 1280POPC   D2A20884  11.685  33.350   8.361
 1280POPC   C3A20885  11.689  33.075   8.014
 1280POPC   C4A20886  11.925  32.887   7.705
 1280POPC   C1B20887  12.193  32.786   8.603
 1280POPC   C2B20888  12.114  33.027   8.286
 1280POPC   C3B20889  12.357  33.026   7.957
 1280POPC   C4B20890  12.407  32.689   7.708
 1281POPC   NC320891   9.397  37.422   9.748
 1281POPC   PO420892   9.231  36.847   9.466
 1281POPC   GL120893   9.620  37.015   9.238
 1281POPC   GL220894   9.940  37.146   9.116
 1281POPC   C1A20895   9.764  36.769   8.823
 1281POPC   D2A20896   9.586  36.789   8.440
 1281POPC   C3A20897   9.442  36.579   8.064
 1281POPC   C4A20898   9.723  36.580   7.701
 1281POPC   C1B20899   9.566  37.252   8.813
 1281POPC   C2B20900   9.623  37.308   8.403
 1281POPC   C3B20901   9.636  37.084   8.018
 1281POPC   C4B20902   9.892  37.107   7.680
 1282POPC   NC320903   0.738   2.202   9.437
 1282POPC   PO420904   0.258   1.788   9.487
 1282POPC   GL120905   0.381   2.001   9.153
 1282POPC   GL220906   0.529   1.705   9.070
 1282POPC   C1A20907   0.133   2.280   8.901
 1282POPC   D2A20908   0.242   2.322   8.470
 1282POPC   C3A20909   0.221   2.029   8.117
 1282POPC   C4A20910   0.332   2.196   7.708
 1282POPC   C1B20911   0.586   1.935   8.696
 1282POPC   C2B20912   0.918   1.847   8.400
 1282POPC   C3B20913   0.860   1.630   8.017
 1282POPC   C4B20914   0.479   1.711   7.749
 1283POPC   NC320915   8.850  24.791   9.555
 1283POPC   PO420916   9.317  24.275   9.542
 1283POPC   GL120917   9.023  24.467   9.188
 1283POPC   GL220918   8.688  24.714   9.093
 1283POPC   C1A20919   9.017  24.537   8.774
 1283POPC   D2A20920   8.967  24.581   8.367
 1283POPC   C3A20921   9.088  24.315   8.052
 1283POPC   C4A20922   8.991  24.369   7.598
 1283POPC   C1B20923   8.520  24.533   8.709
 1283POPC   C2B20924   8.529  24.342   8.306
 1283POPC   C3B20925   8.659  24.583   7.953
 1283POPC   C4B20926   8.532  24.680   7.553
 1284POPC   NC320927   0.939  37.404   9.517
 1284POPC   PO420928   0.436  37.693   9.618
 1284POPC   GL120929   0.450  37.991   9.246
 1284POPC   GL220930   0.796  38.087   9.278
 1284POPC   C1A20931   0.269  38.064   8.807
 1284POPC   D2A20932   0.222  37.874   8.389
 1284POPC   C3A20933   0.147  37.822   7.948
 1284POPC   C4A20934   0.400  37.653   7.585
 1284POPC   C1B20935   0.765  37.774   8.924
 1284POPC   C2B20936   0.729  37.849   8.487
 1284POPC   C3B20937   0.670  37.820   8.018
 1284POPC   C4B20938   0.813  37.425   7.788
 1285POPC   NC320939  25.655  27.169   9.798
 1285POPC   PO420940  25.318  26.614   9.543
 1285POPC   GL120941  25.204  26.657   9.114
 1285POPC   GL220942  25.548  26.683   9.055
 1285POPC   C1A20943  24.989  26.766   8.721
 1285POPC   D2A20944  25.113  27.028   8.350
 1285POPC   C3A20945  25.219  26.831   7.942
 1285POPC   C4A20946  25.031  26.550   7.633
 1285POPC   C1B20947  25.504  26.752   8.601
 1285POPC   C2B20948  25.634  27.013   8.265
 1285POPC   C3B20949  25.666  27.084   7.821
 1285POPC   C4B20950  25.755  27.177   7.365
 1286POPC   NC320951  25.290  22.471   9.393
 1286POPC   PO420952  25.089  21.848   9.348
 1286POPC   GL120953  25.119  22.144   9.041
 1286POPC   GL220954  24.857  22.416   9.101
 1286POPC   C1A20955  25.477  22.263   8.789
 1286POPC   D2A20956  25.583  22.220   8.366
 1286POPC   C3A20957  25.261  22.055   8.098
 1286POPC   C4A20958  25.219  22.163   7.680
 1286POPC   C1B20959  24.998  22.505   8.692
 1286POPC   C2B20960  25.035  22.487   8.278
 1286POPC   C3B20961  25.385  22.565   8.040
 1286POPC   C4B20962  25.655  22.451   7.731
 1287POPC   NC320963  28.800  18.745   9.394
 1287POPC   PO420964  28.097  18.700   9.480
 1287POPC   GL120965  28.350  19.008   9.222
 1287POPC   GL220966  28.424  18.747   9.057
 1287POPC   C1A20967  28.462  19.236   8.810
 1287POPC   D2A20968  28.318  19.381   8.366
 1287POPC   C3A20969  28.353  19.287   7.890
 1287POPC   C4A20970  28.130  19.358   7.461
 1287POPC   C1B20971  28.636  18.748   8.692
 1287POPC   C2B20972  28.658  18.941   8.292
 1287POPC   C3B20973  28.534  18.781   7.890
 1287POPC   C4B20974  28.193  18.809   7.636
 1288POPC   NC320975  34.001  34.821   9.451
 1288POPC   PO420976  33.492  34.334   9.462
 1288POPC   GL120977  33.777  34.454   9.164
 1288POPC   GL220978  33.637  34.763   9.085
 1288POPC   C1A20979  33.960  34.477   8.767
 1288POPC   D2A20980  34.002  34.684   8.376
 1288POPC   C3A20981  33.991  34.434   8.067
 1288POPC   C4A20982  33.724  34.414   7.790
 1288POPC   C1B20983  33.781  34.963   8.745
 1288POPC   C2B20984  33.606  35.038   8.374
 1288POPC   C3B20985  33.719  34.907   7.992
 1288POPC   C4B20986  34.134  34.866   7.846
 1289POPC   NC320987   4.609  42.184   9.600
 1289POPC   PO420988   3.973  42.550   9.568
 1289POPC   GL120989   4.291  42.406   9.281
 1289POPC   GL220990   4.222  42.079   9.261
 1289POPC   C1A20991   4.483  42.523   8.892
 1289POPC   D2A20992   4.526  42.679   8.469
 1289POPC   C3A20993   4.582  42.472   8.050
 1289POPC   C4A20994   4.289  42.441   7.680
 1289POPC   C1B20995   4.396  41.995   8.838
 1289POPC   C2B20996   4.453  42.125   8.395
 1289POPC   C3B20997   4.411  41.955   7.928
 1289POPC   C4B20998   4.345  41.987   7.443
 1290POPC   NC320999  26.701  41.931   9.688
 1290POPC   PO421000  26.868  41.313   9.472
 1290POPC   GL121001  26.797  41.472   9.059
 1290POPC   GL221002  26.511  41.697   8.981
 1290POPC   C1A21003  26.867  41.390   8.653
 1290POPC   D2A21004  27.137  41.570   8.376
 1290POPC   C3A21005  27.040  41.808   8.021
 1290POPC   C4A21006  26.871  41.743   7.603
 1290POPC   C1B21007  26.370  41.332   8.738
 1290POPC   C2B21008  26.508  41.254   8.329
 1290POPC   C3B21009  26.599  41.532   8.030
 1290POPC   C4B21010  26.404  41.509   7.670
 1291POPC   NC321011  25.662  18.914   9.545
 1291POPC   PO421012  25.053  18.828   9.300
 1291POPC   GL121013  25.272  19.117   9.035
 1291POPC   GL221014  25.618  19.155   9.099
 1291POPC   C1A21015  25.408  19.241   8.635
 1291POPC   D2A21016  25.389  19.496   8.259
 1291POPC   C3A21017  25.323  19.316   7.863
 1291POPC   C4A21018  25.111  19.355   7.448
 1291POPC   C1B21019  25.556  18.716   8.926
 1291POPC   C2B21020  25.310  18.713   8.554
 1291POPC   C3B21021  25.293  18.631   8.116
 1291POPC   C4B21022  25.355  18.837   7.715
 1292POPC   NC321023   9.202  28.920   9.324
 1292POPC   PO421024   8.621  29.271   9.488
 1292POPC   GL121025   8.736  29.246   9.071
 1292POPC   GL221026   8.751  28.883   9.080
 1292POPC   C1A21027   9.069  29.360   8.766
 1292POPC   D2A21028   9.243  29.302   8.346
 1292POPC   C3A21029   9.159  28.921   8.126
 1292POPC   C4A21030   9.138  29.100   7.735
 1292POPC   C1B21031   8.888  28.881   8.662
 1292POPC   C2B21032   8.674  28.972   8.299
 1292POPC   C3B21033   8.655  29.051   7.877
 1292POPC   C4B21034   8.430  29.312   7.632
 1293POPC   NC321035  43.396  42.885   9.771
 1293POPC   PO421036  43.222  42.309   9.517
 1293POPC   GL121037  43.197  42.187   9.108
 1293POPC   GL221038  43.159  42.560   9.083
 1293POPC   C1A21039  43.314  42.158   8.685
 1293POPC   D2A21040  43.491  42.119   8.282
 1293POPC   C3A21041  43.241  42.220   7.980
 1293POPC   C4A21042  42.934  42.178   7.718
 1293POPC   C1B21043  43.397  42.659   8.749
 1293POPC   C2B21044  43.236  42.562   8.364
 1293POPC   C3B21045  42.918  42.624   8.079
 1293POPC   C4B21046  43.080  42.670   7.715
 1294POPC   NC321047   6.971  37.241   9.375
 1294POPC   PO421048   6.970  37.915   9.563
 1294POPC   GL121049   6.829  37.733   9.188
 1294POPC   GL221050   6.488  37.668   9.232
 1294POPC   C1A21051   6.841  37.600   8.759
 1294POPC   D2A21052   6.573  37.520   8.395
 1294POPC   C3A21053   6.702  37.544   7.953
 1294POPC   C4A21054   6.463  37.422   7.602
 1294POPC   C1B21055   6.395  37.884   8.830
 1294POPC   C2B21056   6.375  38.043   8.391
 1294POPC   C3B21057   6.273  37.795   7.994
 1294POPC   C4B21058   6.277  37.891   7.558
 1295POPC   NC321059   5.379  39.589   9.691
 1295POPC   PO421060   5.004  39.020   9.785
 1295POPC   GL121061   5.000  39.190   9.319
 1295POPC   GL221062   5.236  39.458   9.203
 1295POPC   C1A21063   4.966  39.192   8.829
 1295POPC   D2A21064   5.042  39.334   8.377
 1295POPC   C3A21065   4.890  39.104   7.994
 1295POPC   C4A21066   4.992  39.143   7.548
 1295POPC   C1B21067   5.373  39.561   8.749
 1295POPC   C2B21068   5.531  39.495   8.276
 1295POPC   C3B21069   5.306  39.436   7.873
 1295POPC   C4B21070   4.884  39.603   7.795
 1296POPC   NC321071  29.040  38.953   9.644
 1296POPC   PO421072  29.408  39.425   9.355
 1296POPC   GL121073  29.148  39.208   9.056
 1296POPC   GL221074  28.833  39.023   9.176
 1296POPC   C1A21075  29.225  39.179   8.617
 1296POPC   D2A21076  29.316  38.991   8.219
 1296POPC   C3A21077  29.098  39.170   7.880
 1296POPC   C4A21078  29.115  39.129   7.435
 1296POPC   C1B21079  28.712  39.059   8.740
 1296POPC   C2B21080  28.818  39.185   8.323
 1296POPC   C3B21081  28.597  39.208   7.974
 1296POPC   C4B21082  28.645  39.319   7.554
 1297POPC   NC321083   1.281  15.866   9.586
 1297POPC   PO421084   0.734  16.184   9.568
 1297POPC   GL121085   1.041  16.097   9.173
 1297POPC   GL221086   1.162  15.718   9.110
 1297POPC   C1A21087   1.156  16.073   8.692
 1297POPC   D2A21088   1.361  16.198   8.269
 1297POPC   C3A21089   1.063  16.085   7.896
 1297POPC   C4A21090   0.898  15.891   7.477
 1297POPC   C1B21091   1.532  15.752   8.844
 1297POPC   C2B21092   1.665  15.772   8.413
 1297POPC   C3B21093   1.485  15.807   7.954
 1297POPC   C4B21094   1.415  15.948   7.493
 1298POPC   NC321095  29.941   6.096   9.547
 1298POPC   PO421096  30.279   5.462   9.553
 1298POPC   GL121097  30.103   5.729   9.206
 1298POPC   GL221098  30.052   6.100   9.071
 1298POPC   C1A21099  29.901   5.660   8.833
 1298POPC   D2A21100  29.754   5.661   8.438
 1298POPC   C3A21101  30.003   5.683   8.086
 1298POPC   C4A21102  30.013   6.013   7.787
 1298POPC   C1B21103  29.647   6.134   8.930
 1298POPC   C2B21104  29.541   6.144   8.497
 1298POPC   C3B21105  29.569   5.964   8.084
 1298POPC   C4B21106  29.544   6.185   7.727
 1299POPC   NC321107  24.532  22.575   9.464
 1299POPC   PO421108  24.287  23.237   9.350
 1299POPC   GL121109  24.536  22.912   9.095
 1299POPC   GL221110  24.882  22.946   8.932
 1299POPC   C1A21111  24.514  22.641   8.776
 1299POPC   D2A21112  24.665  22.837   8.425
 1299POPC   C3A21113  24.520  22.729   8.031
 1299POPC   C4A21114  24.384  22.543   7.677
 1299POPC   C1B21115  24.664  23.271   8.701
 1299POPC   C2B21116  24.681  23.349   8.292
 1299POPC   C3B21117  24.592  23.208   7.897
 1299POPC   C4B21118  24.877  23.076   7.626
 1300POPC   NC321119  29.163  33.271   9.789
 1300POPC   PO421120  29.343  33.893   9.677
 1300POPC   GL121121  29.255  33.924   9.236
 1300POPC   GL221122  29.286  33.587   9.120
 1300POPC   C1A21123  29.392  33.944   8.777
 1300POPC   D2A21124  29.492  33.670   8.418
 1300POPC   C3A21125  29.415  33.871   8.023
 1300POPC   C4A21126  29.043  34.096   7.803
 1300POPC   C1B21127  29.013  33.607   8.727
 1300POPC   C2B21128  28.987  33.711   8.258
 1300POPC   C3B21129  29.063  33.560   7.806
 1300POPC   C4B21130  29.237  33.371   7.391
 1301POPC   NC321131  37.969   0.699   9.463
 1301POPC   PO421132  37.637   0.102   9.506
 1301POPC   GL121133  37.611   0.427   9.188
 1301POPC   GL221134  37.301   0.607   9.061
 1301POPC   C1A21135  37.768   0.620   8.808
 1301POPC   D2A21136  37.978   0.572   8.424
 1301POPC   C3A21137  37.739   0.390   8.076
 1301POPC   C4A21138  37.667   0.586   7.676
 1301POPC   C1B21139  37.376   0.263   8.774
 1301POPC   C2B21140  37.240   0.339   8.366
 1301POPC   C3B21141  37.229   0.557   7.967
 1301POPC   C4B21142  37.219   0.322   7.599
 1302POPC   NC321143  21.723  28.644   9.475
 1302POPC   PO421144  21.249  28.260   9.747
 1302POPC   GL121145  21.190  28.212   9.269
 1302POPC   GL221146  21.347  28.502   9.155
 1302POPC   C1A21147  21.299  28.120   8.818
 1302POPC   D2A21148  21.685  28.142   8.508
 1302POPC   C3A21149  21.611  28.245   8.057
 1302POPC   C4A21150  21.355  28.129   7.719
 1302POPC   C1B21151  21.526  28.580   8.753
 1302POPC   C2B21152  21.711  28.648   8.330
 1302POPC   C3B21153  21.566  28.786   7.925
 1302POPC   C4B21154  21.542  28.940   7.478
 1303POPC   NC321155  33.490  25.250   9.292
 1303POPC   PO421156  34.196  24.939   9.487
 1303POPC   GL121157  33.931  24.981   9.139
 1303POPC   GL221158  33.981  25.342   9.163
 1303POPC   C1A21159  33.794  24.977   8.686
 1303POPC   D2A21160  33.389  25.089   8.430
 1303POPC   C3A21161  33.476  25.203   7.997
 1303POPC   C4A21162  33.793  25.087   7.729
 1303POPC   C1B21163  34.064  25.410   8.742
 1303POPC   C2B21164  33.803  25.403   8.355
 1303POPC   C3B21165  33.890  25.564   7.930
 1303POPC   C4B21166  34.270  25.655   7.666
 1304POPC   NC321167  24.427  14.677   9.476
 1304POPC   PO421168  24.616  15.395   9.549
 1304POPC   GL121169  24.653  15.154   9.191
 1304POPC   GL221170  24.299  15.137   9.175
 1304POPC   C1A21171  24.635  15.223   8.749
 1304POPC   D2A21172  24.675  15.055   8.346
 1304POPC   C3A21173  24.606  15.287   7.997
 1304POPC   C4A21174  24.674  15.038   7.675
 1304POPC   C1B21175  24.181  14.951   8.790
 1304POPC   C2B21176  24.265  14.758   8.402
 1304POPC   C3B21177  24.251  14.910   7.998
 1304POPC   C4B21178  24.142  14.992   7.573
 1305POPC   NC321179   3.486  41.210   9.208
 1305POPC   PO421180   3.463  41.767   9.576
 1305POPC   GL121181   3.511  41.777   9.146
 1305POPC   GL221182   3.803  41.926   9.036
 1305POPC   C1A21183   3.459  41.650   8.730
 1305POPC   D2A21184   3.480  41.822   8.349
 1305POPC   C3A21185   3.380  41.570   8.051
 1305POPC   C4A21186   3.535  41.273   7.803
 1305POPC   C1B21187   3.944  41.813   8.623
 1305POPC   C2B21188   3.983  42.002   8.219
 1305POPC   C3B21189   3.925  42.036   7.772
 1305POPC   C4B21190   3.628  41.766   7.634
 1306POPC   NC321191   5.456  24.878   9.469
 1306POPC   PO421192   4.935  24.509   9.742
 1306POPC   GL121193   5.120  24.563   9.285
 1306POPC   GL221194   5.216  24.233   9.131
 1306POPC   C1A21195   5.128  24.720   8.859
 1306POPC   D2A21196   4.841  24.690   8.488
 1306POPC   C3A21197   4.987  24.656   8.051
 1306POPC   C4A21198   4.871  24.739   7.613
 1306POPC   C1B21199   5.003  24.252   8.705
 1306POPC   C2B21200   5.160  24.202   8.283
 1306POPC   C3B21201   5.396  24.350   7.903
 1306POPC   C4B21202   5.236  24.406   7.465
 1307POPC   NC321203  38.272  31.138   9.648
 1307POPC   PO421204  38.687  31.717   9.622
 1307POPC   GL121205  38.608  31.612   9.193
 1307POPC   GL221206  38.594  31.246   9.101
 1307POPC   C1A21207  38.336  31.615   8.773
 1307POPC   D2A21208  38.239  31.675   8.330
 1307POPC   C3A21209  38.361  31.376   8.005
 1307POPC   C4A21210  38.240  31.497   7.580
 1307POPC   C1B21211  38.825  31.502   8.781
 1307POPC   C2B21212  38.745  31.677   8.445
 1307POPC   C3B21213  38.840  31.546   8.083
 1307POPC   C4B21214  38.722  31.614   7.690
 1308POPC   NC321215  28.079  42.663   9.476
 1308POPC   PO421216  28.481  42.160   9.457
 1308POPC   GL121217  28.427  42.210   9.033
 1308POPC   GL221218  28.350  42.554   9.068
 1308POPC   C1A21219  28.677  42.244   8.664
 1308POPC   D2A21220  28.883  42.128   8.275
 1308POPC   C3A21221  28.756  42.324   7.874
 1308POPC   C4A21222  28.468  42.192   7.510
 1308POPC   C1B21223  28.270  42.560   8.641
 1308POPC   C2B21224  28.387  42.422   8.236
 1308POPC   C3B21225  28.300  42.587   7.847
 1308POPC   C4B21226  28.132  42.586   7.444
 1309POPC   NC321227   6.748   1.158   9.490
 1309POPC   PO421228   7.392   1.445   9.504
 1309POPC   GL121229   7.301   1.131   9.153
 1309POPC   GL221230   6.985   1.245   9.027
 1309POPC   C1A21231   7.579   1.107   8.762
 1309POPC   D2A21232   7.812   1.422   8.516
 1309POPC   C3A21233   7.650   1.431   8.133
 1309POPC   C4A21234   7.582   1.092   7.855
 1309POPC   C1B21235   7.082   1.024   8.654
 1309POPC   C2B21236   7.119   0.981   8.215
 1309POPC   C3B21237   7.154   1.352   7.959
 1309POPC   C4B21238   7.438   1.583   7.673
 1310POPC   NC321239   4.739  44.677   9.543
 1310POPC   PO421240   5.323  44.363   9.594
 1310POPC   GL121241   5.321  44.510   9.175
 1310POPC   GL221242   5.012  44.723   9.107
 1310POPC   C1A21243   5.396  44.645   8.758
 1310POPC   D2A21244   5.214  44.410   8.441
 1310POPC   C3A21245   5.305  44.526   8.045
 1310POPC   C4A21246   5.265  44.348   7.651
 1310POPC   C1B21247   4.818  44.561   8.713
 1310POPC   C2B21248   4.874  44.758   8.277
 1310POPC   C3B21249   4.882  44.718   7.827
 1310POPC   C4B21250   4.582  44.480   7.629
 1311POPC   NC321251   9.304  38.370   9.547
 1311POPC   PO421252   9.952  38.525   9.695
 1311POPC   GL121253   9.961  38.366   9.234
 1311POPC   GL221254   9.803  38.656   9.095
 1311POPC   C1A21255   9.770  38.258   8.771
 1311POPC   D2A21256   9.543  38.222   8.374
 1311POPC   C3A21257   9.774  38.100   8.000
 1311POPC   C4A21258   9.588  38.244   7.631
 1311POPC   C1B21259  10.142  38.607   8.777
 1311POPC   C2B21260  10.154  38.683   8.324
 1311POPC   C3B21261   9.793  38.620   8.012
 1311POPC   C4B21262   9.333  38.532   7.973
 1312POPC   NC321263  38.935  29.552   9.441
 1312POPC   PO421264  39.155  30.240   9.615
 1312POPC   GL121265  39.207  30.000   9.194
 1312POPC   GL221266  39.365  29.708   9.230
 1312POPC   C1A21267  39.048  30.066   8.736
 1312POPC   D2A21268  39.060  30.255   8.310
 1312POPC   C3A21269  39.233  30.088   7.954
 1312POPC   C4A21270  39.074  29.760   7.693
 1312POPC   C1B21271  39.484  29.659   8.831
 1312POPC   C2B21272  39.437  29.826   8.409
 1312POPC   C3B21273  39.470  29.647   7.981
 1312POPC   C4B21274  39.546  29.736   7.529
 1313POPC   NC321275   7.394  23.355   9.458
 1313POPC   PO421276   7.758  23.932   9.549
 1313POPC   GL121277   7.682  23.697   9.188
 1313POPC   GL221278   7.338  23.769   9.171
 1313POPC   C1A21279   7.579  23.496   8.802
 1313POPC   D2A21280   7.408  23.701   8.453
 1313POPC   C3A21281   7.311  23.529   8.085
 1313POPC   C4A21282   7.532  23.638   7.720
 1313POPC   C1B21283   7.228  23.994   8.826
 1313POPC   C2B21284   6.930  23.854   8.502
 1313POPC   C3B21285   6.825  23.722   8.092
 1313POPC   C4B21286   7.031  23.810   7.695
 1314POPC   NC321287   7.847  35.496   9.570
 1314POPC   PO421288   7.222  35.208   9.484
 1314POPC   GL121289   7.341  35.242   9.066
 1314POPC   GL221290   7.601  35.448   9.129
 1314POPC   C1A21291   7.539  35.244   8.660
 1314POPC   D2A21292   7.235  35.263   8.350
 1314POPC   C3A21293   7.361  35.156   7.973
 1314POPC   C4A21294   7.227  35.265   7.606
 1314POPC   C1B21295   7.787  35.685   8.795
 1314POPC   C2B21296   7.886  35.530   8.414
 1314POPC   C3B21297   7.858  35.666   8.014
 1314POPC   C4B21298   7.676  35.465   7.695
 1315POPC   NC321299  36.681  38.979   9.979
 1315POPC   PO421300  37.097  39.341   9.584
 1315POPC   GL121301  37.035  39.177   9.195
 1315POPC   GL221302  36.758  39.436   9.186
 1315POPC   C1A21303  36.824  39.128   8.783
 1315POPC   D2A21304  36.575  38.885   8.509
 1315POPC   C3A21305  36.775  39.061   8.175
 1315POPC   C4A21306  36.858  39.050   7.759
 1315POPC   C1B21307  36.730  39.636   8.793
 1315POPC   C2B21308  36.899  39.540   8.415
 1315POPC   C3B21309  36.797  39.614   8.010
 1315POPC   C4B21310  37.071  39.561   7.678
 1316POPC   NC321311  38.454  35.710   9.498
 1316POPC   PO421312  38.341  36.395   9.502
 1316POPC   GL121313  38.516  36.131   9.176
 1316POPC   GL221314  38.181  36.011   9.145
 1316POPC   C1A21315  38.491  36.003   8.734
 1316POPC   D2A21316  38.358  36.264   8.386
 1316POPC   C3A21317  38.496  36.163   7.982
 1316POPC   C4A21318  38.833  35.865   7.865
 1316POPC   C1B21319  38.114  36.357   8.836
 1316POPC   C2B21320  37.894  36.445   8.440
 1316POPC   C3B21321  38.016  36.386   8.012
 1316POPC   C4B21322  38.160  36.355   7.587
 1317POPC   NC321323  11.555  39.988   9.538
 1317POPC   PO421324  10.928  39.769   9.524
 1317POPC   GL121325  11.189  40.076   9.219
 1317POPC   GL221326  11.487  39.923   9.035
 1317POPC   C1A21327  11.198  40.274   8.838
 1317POPC   D2A21328  11.330  40.011   8.494
 1317POPC   C3A21329  11.380  40.139   8.084
 1317POPC   C4A21330  11.243  40.242   7.689
 1317POPC   C1B21331  11.465  39.568   8.742
 1317POPC   C2B21332  11.207  39.509   8.389
 1317POPC   C3B21333  11.149  39.691   8.002
 1317POPC   C4B21334  11.297  39.740   7.588
 1318POPC   NC321335  21.819   2.576   9.443
 1318POPC   PO421336  22.190   3.094   9.454
 1318POPC   GL121337  22.073   2.945   9.078
 1318POPC   GL221338  21.750   2.932   9.057
 1318POPC   C1A21339  22.129   2.940   8.637
 1318POPC   D2A21340  22.054   3.168   8.246
 1318POPC   C3A21341  22.335   2.996   7.930
 1318POPC   C4A21342  22.489   2.788   7.556
 1318POPC   C1B21343  21.916   2.503   8.813
 1318POPC   C2B21344  22.202   2.456   8.440
 1318POPC   C3B21345  22.001   2.659   8.108
 1318POPC   C4B21346  22.001   2.682   7.678
 1319POPC   NC321347  34.548   0.785   9.349
 1319POPC   PO421348  34.960   0.235   9.428
 1319POPC   GL121349  34.761   0.403   9.080
 1319POPC   GL221350  34.444   0.332   9.142
 1319POPC   C1A21351  34.672   0.667   8.694
 1319POPC   D2A21352  34.607   0.940   8.329
 1319POPC   C3A21353  34.415   0.803   7.951
 1319POPC   C4A21354  34.627   0.619   7.619
 1319POPC   C1B21355  34.211   0.476   8.765
 1319POPC   C2B21356  34.195   0.455   8.288
 1319POPC   C3B21357  34.225   0.312   7.841
 1319POPC   C4B21358  34.158   0.566   7.471
 1320POPC   NC321359  31.223  38.534   9.606
 1320POPC   PO421360  31.875  38.203   9.596
 1320POPC   GL121361  31.654  38.250   9.216
 1320POPC   GL221362  31.550  38.608   9.202
 1320POPC   C1A21363  31.716  38.241   8.776
 1320POPC   D2A21364  31.393  38.289   8.409
 1320POPC   C3A21365  31.480  38.528   8.051
 1320POPC   C4A21366  31.777  38.348   7.830
 1320POPC   C1B21367  31.375  38.609   8.796
 1320POPC   C2B21368  31.270  38.821   8.411
 1320POPC   C3B21369  30.952  38.672   8.096
 1320POPC   C4B21370  30.907  38.289   7.789
 1321POPC   NC321371  37.505  17.916   9.730
 1321POPC   PO421372  37.674  18.514   9.886
 1321POPC   GL121373  37.554  18.431   9.373
 1321POPC   GL221374  37.480  18.082   9.228
 1321POPC   C1A21375  37.672  18.387   8.867
 1321POPC   D2A21376  37.848  18.239   8.429
 1321POPC   C3A21377  37.654  18.347   7.994
 1321POPC   C4A21378  37.711  18.352   7.511
 1321POPC   C1B21379  37.243  18.073   8.820
 1321POPC   C2B21380  37.346  18.144   8.377
 1321POPC   C3B21381  37.274  17.993   7.943
 1321POPC   C4B21382  37.291  18.019   7.457
 1322POPC   NC321383  35.757  13.186   9.458
 1322POPC   PO421384  35.987  12.464   9.608
 1322POPC   GL121385  36.134  12.754   9.231
 1322POPC   GL221386  35.886  12.945   9.031
 1322POPC   C1A21387  36.345  12.836   8.795
 1322POPC   D2A21388  36.231  12.916   8.342
 1322POPC   C3A21389  36.334  13.235   8.042
 1322POPC   C4A21390  36.326  13.074   7.640
 1322POPC   C1B21391  35.979  13.202   8.670
 1322POPC   C2B21392  35.836  13.226   8.236
 1322POPC   C3B21393  35.922  12.919   7.908
 1322POPC   C4B21394  35.640  12.776   7.600
 1323POPC   NC321395   0.384  42.500   9.555
 1323POPC   PO421396   0.957  42.754   9.762
 1323POPC   GL121397   0.789  42.933   9.302
 1323POPC   GL221398   0.466  42.805   9.129
 1323POPC   C1A21399   0.699  43.188   8.883
 1323POPC   D2A21400   0.405  43.207   8.500
 1323POPC   C3A21401   0.522  43.372   8.082
 1323POPC   C4A21402   0.904  43.391   7.861
 1323POPC   C1B21403   0.230  42.729   8.724
 1323POPC   C2B21404   0.123  42.820   8.279
 1323POPC   C3B21405   0.404  42.910   7.913
 1323POPC   C4B21406   0.683  43.055   7.553
 1324POPC   NC321407  11.517  11.693   9.539
 1324POPC   PO421408  11.018  12.179   9.589
 1324POPC   GL121409  11.267  12.333   9.255
 1324POPC   GL221410  11.496  12.052   9.170
 1324POPC   C1A21411  11.140  12.243   8.856
 1324POPC   D2A21412  11.242  12.004   8.497
 1324POPC   C3A21413  11.243  12.151   8.072
 1324POPC   C4A21414  11.036  11.865   7.766
 1324POPC   C1B21415  11.679  11.819   8.808
 1324POPC   C2B21416  11.571  11.617   8.408
 1324POPC   C3B21417  11.482  11.665   7.964
 1324POPC   C4B21418  11.872  11.620   7.675
 1325POPC   NC321419  33.885  20.389   9.748
 1325POPC   PO421420  33.377  20.770   9.652
 1325POPC   GL121421  33.614  20.594   9.237
 1325POPC   GL221422  33.973  20.516   9.227
 1325POPC   C1A21423  33.715  20.450   8.785
 1325POPC   D2A21424  33.924  20.684   8.436
 1325POPC   C3A21425  33.784  20.649   8.022
 1325POPC   C4A21426  33.704  20.235   7.906
 1325POPC   C1B21427  34.074  20.867   8.917
 1325POPC   C2B21428  34.376  20.918   8.567
 1325POPC   C3B21429  34.394  20.889   8.099
 1325POPC   C4B21430  34.177  20.765   7.712
 1326POPC   NC321431  15.146   9.262   9.551
 1326POPC   PO421432  15.582   8.840   9.434
 1326POPC   GL121433  15.435   9.177   9.120
 1326POPC   GL221434  15.095   9.120   9.064
 1326POPC   C1A21435  15.324   9.294   8.662
 1326POPC   D2A21436  15.519   9.013   8.333
 1326POPC   C3A21437  15.327   9.002   7.906
 1326POPC   C4A21438  14.914   8.927   7.685
 1326POPC   C1B21439  15.219   8.801   8.725
 1326POPC   C2B21440  15.073   8.754   8.288
 1326POPC   C3B21441  15.124   8.501   7.912
 1326POPC   C4B21442  14.936   8.356   7.506
 1327POPC   NC321443  32.231  38.604   9.566
 1327POPC   PO421444  32.647  38.051   9.542
 1327POPC   GL121445  32.442  38.238   9.197
 1327POPC   GL221446  32.417  38.618   9.092
 1327POPC   C1A21447  32.245  38.173   8.817
 1327POPC   D2A21448  32.046  38.081   8.427
 1327POPC   C3A21449  32.237  38.307   8.103
 1327POPC   C4A21450  32.225  38.194   7.704
 1327POPC   C1B21451  31.992  38.679   8.880
 1327POPC   C2B21452  31.826  38.621   8.449
 1327POPC   C3B21453  31.948  38.782   8.046
 1327POPC   C4B21454  32.148  38.684   7.662
 1328POPC   NC321455   0.583  33.198   9.645
 1328POPC   PO421456   0.180  32.745   9.352
 1328POPC   GL121457   0.406  32.955   9.029
 1328POPC   GL221458   0.725  33.120   9.162
 1328POPC   C1A21459   0.274  32.873   8.598
 1328POPC   D2A21460  44.987  32.870   8.243
 1328POPC   C3A21461   0.279  32.980   7.922
 1328POPC   C4A21462   0.721  32.846   7.894
 1328POPC   C1B21463   0.715  33.304   8.766
 1328POPC   C2B21464   0.642  33.158   8.352
 1328POPC   C3B21465   0.660  33.336   7.968
 1328POPC   C4B21466   0.522  33.343   7.596
 1329POPC   NC321467  31.607   2.376   9.594
 1329POPC   PO421468  31.465   1.753   9.589
 1329POPC   GL121469  31.636   1.787   9.192
 1329POPC   GL221470  31.964   1.703   9.159
 1329POPC   C1A21471  31.519   1.973   8.808
 1329POPC   D2A21472  31.540   2.237   8.424
 1329POPC   C3A21473  31.580   2.010   8.026
 1329POPC   C4A21474  31.376   2.030   7.602
 1329POPC   C1B21475  32.032   1.944   8.815
 1329POPC   C2B21476  31.850   1.815   8.439
 1329POPC   C3B21477  31.920   1.567   8.099
 1329POPC   C4B21478  31.678   1.605   7.731
 1330POPC   NC321479  13.998  16.077   9.506
 1330POPC   PO421480  13.398  15.858   9.348
 1330POPC   GL121481  13.653  16.084   9.132
 1330POPC   GL221482  13.843  15.810   9.082
 1330POPC   C1A21483  13.627  16.229   8.732
 1330POPC   D2A21484  13.322  16.003   8.486
 1330POPC   C3A21485  13.512  15.952   8.106
 1330POPC   C4A21486  13.409  16.023   7.712
 1330POPC   C1B21487  13.958  15.836   8.655
 1330POPC   C2B21488  14.031  15.709   8.209
 1330POPC   C3B21489  13.910  15.911   7.808
 1330POPC   C4B21490  13.931  15.819   7.362
 1331POPC   NC321491  31.475   8.944   9.547
 1331POPC   PO421492  31.955   8.914   9.264
 1331POPC   GL121493  31.530   8.915   9.026
 1331POPC   GL221494  31.258   9.149   9.122
 1331POPC   C1A21495  31.251   8.852   8.636
 1331POPC   D2A21496  31.153   8.793   8.172
 1331POPC   C3A21497  31.519   8.862   7.884
 1331POPC   C4A21498  31.642   9.143   7.543
 1331POPC   C1B21499  31.423   9.327   8.715
 1331POPC   C2B21500  31.393   9.250   8.249
 1331POPC   C3B21501  31.190   9.251   7.825
 1331POPC   C4B21502  31.225   9.489   7.423
 1332POPC   NC321503  18.392   8.502   9.737
 1332POPC   PO421504  18.358   9.043   9.685
 1332POPC   GL121505  18.331   9.005   9.223
 1332POPC   GL221506  18.233   8.649   9.233
 1332POPC   C1A21507  18.346   9.217   8.770
 1332POPC   D2A21508  18.409   9.386   8.312
 1332POPC   C3A21509  18.130   9.197   8.004
 1332POPC   C4A21510  17.854   9.309   7.642
 1332POPC   C1B21511  18.391   8.694   8.786
 1332POPC   C2B21512  18.418   8.870   8.337
 1332POPC   C3B21513  18.544   8.885   7.876
 1332POPC   C4B21514  18.517   8.725   7.421
 1333POPC   NC321515  39.602  30.295   9.497
 1333POPC   PO421516  39.935  30.852   9.487
 1333POPC   GL121517  39.741  30.825   9.089
 1333POPC   GL221518  39.846  30.507   9.068
 1333POPC   C1A21519  39.684  30.781   8.628
 1333POPC   D2A21520  40.025  30.686   8.320
 1333POPC   C3A21521  40.197  30.855   7.966
 1333POPC   C4A21522  39.999  30.864   7.567
 1333POPC   C1B21523  39.975  30.347   8.678
 1333POPC   C2B21524  40.092  30.200   8.241
 1333POPC   C3B21525  40.108  30.377   7.797
 1333POPC   C4B21526  40.014  30.424   7.328
 1334POPC   NC321527  31.521  37.900   9.595
 1334POPC   PO421528  31.537  37.259   9.563
 1334POPC   GL121529  31.670  37.552   9.244
 1334POPC   GL221530  31.346  37.728   9.158
 1334POPC   C1A21531  31.775  37.701   8.836
 1334POPC   D2A21532  31.778  37.458   8.463
 1334POPC   C3A21533  31.602  37.607   8.083
 1334POPC   C4A21534  31.720  37.448   7.656
 1334POPC   C1B21535  31.324  37.942   8.788
 1334POPC   C2B21536  31.217  37.800   8.398
 1334POPC   C3B21537  31.163  37.885   7.972
 1334POPC   C4B21538  31.304  37.734   7.586
 1335POPC   NC321539   9.984  23.118   9.755
 1335POPC   PO421540   9.400  22.937   9.446
 1335POPC   GL121541   9.681  22.789   9.108
 1335POPC   GL221542   9.705  23.052   8.865
 1335POPC   C1A21543   9.693  22.571   8.747
 1335POPC   D2A21544   9.445  22.627   8.446
 1335POPC   C3A21545   9.594  22.785   8.081
 1335POPC   C4A21546   9.562  22.574   7.681
 1335POPC   C1B21547  10.003  22.982   8.585
 1335POPC   C2B21548  10.215  23.134   8.254
 1335POPC   C3B21549   9.994  23.316   7.945
 1335POPC   C4B21550   9.895  22.965   7.721
 1336POPC   NC321551  19.376  42.280   9.501
 1336POPC   PO421552  20.027  42.522   9.589
 1336POPC   GL121553  20.055  42.374   9.146
 1336POPC   GL221554  19.701  42.282   9.078
 1336POPC   C1A21555  20.097  42.514   8.685
 1336POPC   D2A21556  19.910  42.392   8.277
 1336POPC   C3A21557  19.978  42.660   7.926
 1336POPC   C4A21558  19.913  42.575   7.501
 1336POPC   C1B21559  19.807  42.092   8.690
 1336POPC   C2B21560  19.861  41.888   8.306
 1336POPC   C3B21561  19.758  42.008   7.906
 1336POPC   C4B21562  19.379  42.018   7.748
 1337POPC   NC321563   4.160  25.835   9.479
 1337POPC   PO421564   4.679  26.275   9.544
 1337POPC   GL121565   4.522  26.127   9.174
 1337POPC   GL221566   4.564  25.784   9.126
 1337POPC   C1A21567   4.425  26.120   8.730
 1337POPC   D2A21568   4.092  26.089   8.432
 1337POPC   C3A21569   4.109  25.915   8.034
 1337POPC   C4A21570   4.169  26.126   7.669
 1337POPC   C1B21571   4.876  25.902   8.856
 1337POPC   C2B21572   4.867  26.088   8.458
 1337POPC   C3B21573   4.607  26.048   8.105
 1337POPC   C4B21574   4.677  26.006   7.674
 1338POPC   NC321575  38.176  29.245  10.190
 1338POPC   PO421576  38.480  29.386   9.602
 1338POPC   GL121577  38.505  29.443   9.165
 1338POPC   GL221578  38.187  29.381   9.060
 1338POPC   C1A21579  38.538  29.366   8.699
 1338POPC   D2A21580  38.517  29.493   8.255
 1338POPC   C3A21581  38.470  29.167   7.938
 1338POPC   C4A21582  38.231  28.788   7.784
 1338POPC   C1B21583  38.098  29.669   8.713
 1338POPC   C2B21584  38.099  29.797   8.280
 1338POPC   C3B21585  38.165  29.567   7.875
 1338POPC   C4B21586  38.244  29.701   7.429
 1339POPC   NC321587   0.992  44.983   9.363
 1339POPC   PO421588   1.171  44.275   9.447
 1339POPC   GL121589   1.176  44.324   9.047
 1339POPC   GL221590   1.316  44.686   9.091
 1339POPC   C1A21591   1.150  44.490   8.628
 1339POPC   D2A21592   0.952  44.790   8.372
 1339POPC   C3A21593   1.139  44.714   7.981
 1339POPC   C4A21594   1.165  44.345   7.706
 1339POPC   C1B21595   1.618  44.452   8.857
 1339POPC   C2B21596   1.609  44.253   8.450
 1339POPC   C3B21597   1.592  44.421   8.045
 1339POPC   C4B21598   1.671  44.412   7.616
 1340POPC   NC321599  32.601  34.964   9.528
 1340POPC   PO421600  32.098  35.434   9.378
 1340POPC   GL121601  32.342  35.364   9.047
 1340POPC   GL221602  32.457  35.073   9.067
 1340POPC   C1A21603  32.237  35.339   8.650
 1340POPC   D2A21604  31.960  35.158   8.400
 1340POPC   C3A21605  32.005  35.354   8.024
 1340POPC   C4A21606  31.920  35.108   7.689
 1340POPC   C1B21607  32.695  35.103   8.682
 1340POPC   C2B21608  32.486  35.050   8.276
 1340POPC   C3B21609  32.406  35.098   7.832
 1340POPC   C4B21610  32.330  35.013   7.371
 1341POPC   NC321611   9.912  29.018   9.598
 1341POPC   PO421612   9.365  29.355   9.386
 1341POPC   GL121613   9.653  29.146   9.115
 1341POPC   GL221614   9.992  29.310   9.159
 1341POPC   C1A21615   9.609  29.110   8.663
 1341POPC   D2A21616   9.829  29.234   8.268
 1341POPC   C3A21617   9.606  29.250   7.872
 1341POPC   C4A21618   9.563  28.966   7.510
 1341POPC   C1B21619  10.087  28.991   8.839
 1341POPC   C2B21620  10.274  28.959   8.424
 1341POPC   C3B21621  10.124  28.903   7.988
 1341POPC   C4B21622  10.111  29.306   7.791
 1342POPC   NC321623  29.816  24.624   9.572
 1342POPC   PO421624  30.511  24.580   9.611
 1342POPC   GL121625  30.197  24.397   9.312
 1342POPC   GL221626  30.129  24.714   9.147
 1342POPC   C1A21627  30.052  24.307   8.856
 1342POPC   D2A21628  30.163  24.499   8.452
 1342POPC   C3A21629  30.020  24.425   8.008
 1342POPC   C4A21630  30.269  24.410   7.587
 1342POPC   C1B21631  29.818  24.753   8.784
 1342POPC   C2B21632  29.770  24.846   8.324
 1342POPC   C3B21633  29.727  24.829   7.854
 1342POPC   C4B21634  29.918  24.754   7.450
 1343POPC   NC321635  35.951  38.208   9.546
 1343POPC   PO421636  36.494  38.525   9.551
 1343POPC   GL121637  36.377  38.276   9.178
 1343POPC   GL221638  36.071  38.302   9.054
 1343POPC   C1A21639  36.470  38.395   8.747
 1343POPC   D2A21640  36.187  38.503   8.392
 1343POPC   C3A21641  36.173  38.295   7.979
 1343POPC   C4A21642  36.016  38.252   7.550
 1343POPC   C1B21643  35.798  38.322   8.731
 1343POPC   C2B21644  35.780  38.180   8.302
 1343POPC   C3B21645  35.614  38.109   7.859
 1343POPC   C4B21646  35.567  38.129   7.348
 1344POPC   NC321647  23.463  16.120   9.793
 1344POPC   PO421648  24.134  16.014   9.631
 1344POPC   GL121649  23.775  15.902   9.296
 1344POPC   GL221650  23.662  16.156   9.069
 1344POPC   C1A21651  23.747  15.780   8.778
 1344POPC   D2A21652  23.850  15.645   8.348
 1344POPC   C3A21653  23.995  15.882   7.962
 1344POPC   C4A21654  24.003  15.921   7.467
 1344POPC   C1B21655  23.829  16.279   8.682
 1344POPC   C2B21656  23.655  16.150   8.298
 1344POPC   C3B21657  23.461  15.822   8.030
 1344POPC   C4B21658  23.570  15.695   7.624
 1345POPC   NC321659  33.417  14.075   9.518
 1345POPC   PO421660  34.044  14.137   9.741
 1345POPC   GL121661  33.782  14.271   9.275
 1345POPC   GL221662  33.731  14.552   9.127
 1345POPC   C1A21663  33.645  14.269   8.742
 1345POPC   D2A21664  33.832  14.138   8.351
 1345POPC   C3A21665  33.684  14.222   7.944
 1345POPC   C4A21666  34.027  14.166   7.634
 1345POPC   C1B21667  33.919  14.721   8.754
 1345POPC   C2B21668  33.735  14.671   8.341
 1345POPC   C3B21669  33.850  14.699   7.911
 1345POPC   C4B21670  33.524  14.749   7.605
 1346POPC   NC321671  19.328  14.256   9.492
 1346POPC   PO421672  18.798  14.656   9.619
 1346POPC   GL121673  18.938  14.399   9.216
 1346POPC   GL221674  19.297  14.406   9.014
 1346POPC   C1A21675  18.882  14.256   8.797
 1346POPC   D2A21676  19.001  14.502   8.454
 1346POPC   C3A21677  18.813  14.524   8.045
 1346POPC   C4A21678  19.032  14.254   7.825
 1346POPC   C1B21679  19.493  14.406   8.610
 1346POPC   C2B21680  19.427  14.471   8.163
 1346POPC   C3B21681  19.248  14.714   7.818
 1346POPC   C4B21682  19.298  14.656   7.386
 1347POPC   NC321683   7.311  37.910   9.227
 1347POPC   PO421684   7.412  38.530   9.608
 1347POPC   GL121685   7.412  38.415   9.168
 1347POPC   GL221686   7.084  38.373   9.242
 1347POPC   C1A21687   7.314  38.342   8.739
 1347POPC   D2A21688   7.327  38.256   8.306
 1347POPC   C3A21689   7.566  38.503   8.013
 1347POPC   C4A21690   7.464  38.215   7.705
 1347POPC   C1B21691   6.991  38.683   8.919
 1347POPC   C2B21692   6.905  38.527   8.500
 1347POPC   C3B21693   6.871  38.552   8.074
 1347POPC   C4B21694   7.124  38.688   7.762
 1348POPC   NC321695  37.598  26.125   9.708
 1348POPC   PO421696  37.947  25.615   9.471
 1348POPC   GL121697  37.666  25.939   9.220
 1348POPC   GL221698  37.753  26.282   9.090
 1348POPC   C1A21699  37.363  26.059   8.855
 1348POPC   D2A21700  37.362  25.946   8.401
 1348POPC   C3A21701  37.793  25.948   8.199
 1348POPC   C4A21702  37.913  26.018   7.771
 1348POPC   C1B21703  37.750  26.294   8.596
 1348POPC   C2B21704  37.565  26.401   8.169
 1348POPC   C3B21705  37.715  26.569   7.770
 1348POPC   C4B21706  37.694  26.708   7.307
 1349POPC   NC321707  32.015   4.651   9.745
 1349POPC   PO421708  32.451   5.103   9.440
 1349POPC   GL121709  32.205   4.920   9.142
 1349POPC   GL221710  31.992   4.629   9.205
 1349POPC   C1A21711  32.276   5.092   8.733
 1349POPC   D2A21712  32.071   5.142   8.357
 1349POPC   C3A21713  32.257   5.102   7.945
 1349POPC   C4A21714  32.587   5.299   7.676
 1349POPC   C1B21715  32.106   4.607   8.729
 1349POPC   C2B21716  32.384   4.737   8.356
 1349POPC   C3B21717  32.383   4.594   7.921
 1349POPC   C4B21718  32.020   4.718   7.671
 1350POPC   NC321719   4.953  44.132   9.742
 1350POPC   PO421720   5.255  43.554   9.529
 1350POPC   GL121721   5.226  43.717   9.159
 1350POPC   GL221722   4.911  43.907   9.253
 1350POPC   C1A21723   5.377  43.649   8.740
 1350POPC   D2A21724   5.351  43.919   8.384
 1350POPC   C3A21725   5.164  43.846   8.006
 1350POPC   C4A21726   5.284  43.831   7.567
 1350POPC   C1B21727   5.042  44.077   8.843
 1350POPC   C2B21728   4.847  44.066   8.448
 1350POPC   C3B21729   4.848  44.267   8.070
 1350POPC   C4B21730   4.849  44.067   7.690
 1351POPC   NC321731  42.519   7.613   9.408
 1351POPC   PO421732  41.962   7.231   9.324
 1351POPC   GL121733  42.238   7.408   9.029
 1351POPC   GL221734  42.100   7.726   9.024
 1351POPC   C1A21735  42.574   7.330   8.722
 1351POPC   D2A21736  42.725   7.184   8.319
 1351POPC   C3A21737  42.456   7.334   7.982
 1351POPC   C4A21738  41.984   7.269   7.945
 1351POPC   C1B21739  42.092   7.757   8.635
 1351POPC   C2B21740  42.141   7.519   8.343
 1351POPC   C3B21741  42.104   7.763   7.969
 1351POPC   C4B21742  42.323   7.741   7.595
 1352POPC   NC321743   8.812  36.761   9.279
 1352POPC   PO421744   8.965  37.373   9.548
 1352POPC   GL121745   9.119  37.176   9.102
 1352POPC   GL221746   9.249  36.782   8.971
 1352POPC   C1A21747   8.993  37.089   8.674
 1352POPC   D2A21748   9.193  37.038   8.276
 1352POPC   C3A21749   9.040  36.995   7.872
 1352POPC   C4A21750   8.816  37.234   7.577
 1352POPC   C1B21751   9.126  36.600   8.560
 1352POPC   C2B21752   8.883  36.606   8.196
 1352POPC   C3B21753   8.966  36.499   7.780
 1352POPC   C4B21754   9.287  36.544   7.446
 1353POPC   NC321755  18.574  41.499   9.490
 1353POPC   PO421756  19.121  41.887   9.658
 1353POPC   GL121757  18.980  41.613   9.251
 1353POPC   GL221758  18.756  41.875   9.163
 1353POPC   C1A21759  18.863  41.409   8.835
 1353POPC   D2A21760  18.607  41.248   8.468
 1353POPC   C3A21761  18.776  41.329   8.051
 1353POPC   C4A21762  19.158  41.297   7.797
 1353POPC   C1B21763  18.817  41.923   8.761
 1353POPC   C2B21764  18.817  41.718   8.397
 1353POPC   C3B21765  19.073  41.783   8.064
 1353POPC   C4B21766  18.985  41.746   7.626
 1354POPC   NC321767  29.143  19.650   9.482
 1354POPC   PO421768  29.668  20.133   9.506
 1354POPC   GL121769  29.310  20.028   9.167
 1354POPC   GL221770  29.290  19.681   9.011
 1354POPC   C1A21771  29.087  20.043   8.726
 1354POPC   D2A21772  28.908  19.707   8.420
 1354POPC   C3A21773  28.998  19.717   7.978
 1354POPC   C4A21774  29.319  19.983   7.775
 1354POPC   C1B21775  29.405  19.459   8.655
 1354POPC   C2B21776  29.615  19.293   8.298
 1354POPC   C3B21777  29.476  19.463   7.904
 1354POPC   C4B21778  29.205  19.497   7.572
 1355POPC   NC321779  22.179  33.275   9.416
 1355POPC   PO421780  21.542  33.124   9.586
 1355POPC   GL121781  21.737  33.198   9.169
 1355POPC   GL221782  21.947  32.935   9.046
 1355POPC   C1A21783  21.970  33.327   8.749
 1355POPC   D2A21784  21.935  33.323   8.289
 1355POPC   C3A21785  22.120  33.252   7.860
 1355POPC   C4A21786  22.078  33.404   7.436
 1355POPC   C1B21787  22.217  32.805   8.706
 1355POPC   C2B21788  22.289  32.902   8.259
 1355POPC   C3B21789  22.237  32.731   7.838
 1355POPC   C4B21790  22.204  32.909   7.416
 1356POPC   NC321791  11.079  20.590   9.434
 1356POPC   PO421792  11.674  20.879   9.391
 1356POPC   GL121793  11.368  20.763   9.032
 1356POPC   GL221794  10.994  20.879   9.013
 1356POPC   C1A21795  11.289  20.553   8.636
 1356POPC   D2A21796  11.263  20.645   8.179
 1356POPC   C3A21797  11.523  20.460   7.875
 1356POPC   C4A21798  11.117  20.330   7.739
 1356POPC   C1B21799  10.925  20.909   8.550
 1356POPC   C2B21800  11.018  21.088   8.157
 1356POPC   C3B21801  11.078  20.869   7.743
 1356POPC   C4B21802  11.430  20.839   7.467
 1357POPC   NC321803  26.962   6.074   9.573
 1357POPC   PO421804  26.293   6.046   9.449
 1357POPC   GL121805  26.692   6.062   9.142
 1357POPC   GL221806  27.103   6.079   9.080
 1357POPC   C1A21807  26.769   6.224   8.742
 1357POPC   D2A21808  26.785   5.986   8.386
 1357POPC   C3A21809  26.576   6.149   8.078
 1357POPC   C4A21810  26.326   5.867   7.810
 1357POPC   C1B21811  27.242   5.990   8.614
 1357POPC   C2B21812  27.247   5.983   8.130
 1357POPC   C3B21813  27.021   5.903   7.714
 1357POPC   C4B21814  27.028   5.972   7.232
 1358POPC   NC321815  27.613  16.148   9.546
 1358POPC   PO421816  27.862  15.514   9.587
 1358POPC   GL121817  27.797  15.795   9.215
 1358POPC   GL221818  27.423  15.847   9.134
 1358POPC   C1A21819  27.742  15.934   8.767
 1358POPC   D2A21820  27.844  15.793   8.385
 1358POPC   C3A21821  27.659  15.903   8.039
 1358POPC   C4A21822  27.649  15.694   7.694
 1358POPC   C1B21823  27.362  16.246   8.900
 1358POPC   C2B21824  27.505  16.415   8.503
 1358POPC   C3B21825  27.448  16.378   8.050
 1358POPC   C4B21826  27.299  16.067   7.723
 1359POPC   NC321827  15.652   2.181   9.556
 1359POPC   PO421828  15.230   1.724   9.507
 1359POPC   GL121829  15.015   1.862   9.121
 1359POPC   GL221830  14.766   1.641   9.045
 1359POPC   C1A21831  15.084   1.982   8.650
 1359POPC   D2A21832  15.393   1.793   8.320
 1359POPC   C3A21833  15.429   2.088   7.967
 1359POPC   C4A21834  15.138   2.199   7.583
 1359POPC   C1B21835  15.082   1.503   8.759
 1359POPC   C2B21836  14.957   1.547   8.386
 1359POPC   C3B21837  14.918   1.877   8.135
 1359POPC   C4B21838  15.114   1.715   7.796
 1360POPC   NC321839  17.075  37.050   9.618
 1360POPC   PO421840  16.464  37.258   9.465
 1360POPC   GL121841  16.721  37.100   9.135
 1360POPC   GL221842  16.534  36.811   9.105
 1360POPC   C1A21843  16.872  37.216   8.693
 1360POPC   D2A21844  17.034  37.244   8.278
 1360POPC   C3A21845  16.824  37.010   7.980
 1360POPC   C4A21846  17.084  36.775   7.703
 1360POPC   C1B21847  16.653  36.768   8.699
 1360POPC   C2B21848  16.821  36.624   8.331
 1360POPC   C3B21849  16.701  36.488   7.923
 1360POPC   C4B21850  16.352  36.556   7.639
 1361POPC   NC321851  30.900  10.520   9.769
 1361POPC   PO421852  30.231  10.535   9.729
 1361POPC   GL121853  30.347  10.646   9.275
 1361POPC   GL221854  30.735  10.652   9.253
 1361POPC   C1A21855  30.264  10.603   8.799
 1361POPC   D2A21856  30.310  10.698   8.312
 1361POPC   C3A21857  30.588  10.476   7.996
 1361POPC   C4A21858  30.559  10.023   7.860
 1361POPC   C1B21859  30.787  10.631   8.782
 1361POPC   C2B21860  30.913  10.669   8.329
 1361POPC   C3B21861  31.091  10.508   7.925
 1361POPC   C4B21862  30.902  10.276   7.582
 1362POPC   NC321863  26.942  28.298   9.898
 1362POPC   PO421864  27.408  28.108   9.664
 1362POPC   GL121865  27.309  28.166   9.203
 1362POPC   GL221866  27.211  28.518   9.143
 1362POPC   C1A21867  27.181  28.121   8.737
 1362POPC   D2A21868  26.953  28.267   8.337
 1362POPC   C3A21869  26.891  28.092   7.913
 1362POPC   C4A21870  26.554  28.168   7.609
 1362POPC   C1B21871  27.069  28.628   8.717
 1362POPC   C2B21872  26.858  28.777   8.333
 1362POPC   C3B21873  26.848  28.606   7.906
 1362POPC   C4B21874  27.201  28.434   7.659
 1363POPC   NC321875   4.339  24.230   9.768
 1363POPC   PO421876   4.628  24.716   9.383
 1363POPC   GL121877   4.321  24.507   9.151
 1363POPC   GL221878   4.265  24.176   9.224
 1363POPC   C1A21879   4.441  24.426   8.744
 1363POPC   D2A21880   4.344  24.673   8.389
 1363POPC   C3A21881   4.488  24.476   8.062
 1363POPC   C4A21882   4.400  24.574   7.672
 1363POPC   C1B21883   4.109  24.035   8.853
 1363POPC   C2B21884   4.024  24.253   8.462
 1363POPC   C3B21885   3.868  24.302   8.053
 1363POPC   C4B21886   3.882  24.129   7.668
 1364POPC   NC321887  41.732  42.184   9.521
 1364POPC   PO421888  41.253  42.619   9.530
 1364POPC   GL121889  41.432  42.409   9.136
 1364POPC   GL221890  41.819  42.416   9.071
 1364POPC   C1A21891  41.481  42.467   8.668
 1364POPC   D2A21892  41.296  42.308   8.279
 1364POPC   C3A21893  41.399  42.465   7.870
 1364POPC   C4A21894  41.226  42.326   7.486
 1364POPC   C1B21895  41.824  42.079   8.723
 1364POPC   C2B21896  41.930  42.010   8.228
 1364POPC   C3B21897  41.756  42.074   7.763
 1364POPC   C4B21898  41.714  42.264   7.320
 1365POPC   NC321899  25.384  14.391   9.537
 1365POPC   PO421900  24.676  14.318   9.630
 1365POPC   GL121901  25.049  14.135   9.253
 1365POPC   GL221902  25.274  14.439   9.061
 1365POPC   C1A21903  25.251  14.032   8.804
 1365POPC   D2A21904  25.215  14.359   8.502
 1365POPC   C3A21905  25.017  14.229   8.109
 1365POPC   C4A21906  25.313  14.233   7.797
 1365POPC   C1B21907  25.139  14.800   8.812
 1365POPC   C2B21908  25.169  14.988   8.431
 1365POPC   C3B21909  25.238  14.707   8.113
 1365POPC   C4B21910  25.087  14.687   7.728
 1366POPC   NC321911  21.094  33.052   9.564
 1366POPC   PO421912  21.333  32.506   9.379
 1366POPC   GL121913  21.305  32.898   9.123
 1366POPC   GL221914  20.942  32.988   9.084
 1366POPC   C1A21915  21.493  33.074   8.752
 1366POPC   D2A21916  21.777  32.861   8.482
 1366POPC   C3A21917  21.785  32.894   8.040
 1366POPC   C4A21918  21.730  32.984   7.586
 1366POPC   C1B21919  21.019  32.894   8.649
 1366POPC   C2B21920  21.302  32.932   8.280
 1366POPC   C3B21921  21.403  33.212   7.923
 1366POPC   C4B21922  21.224  33.150   7.520
 1367POPC   NC321923  27.187   8.668   9.921
 1367POPC   PO421924  27.430   8.142   9.528
 1367POPC   GL121925  27.629   8.310   9.152
 1367POPC   GL221926  27.627   7.999   9.008
 1367POPC   C1A21927  27.678   8.389   8.672
 1367POPC   D2A21928  27.844   8.205   8.258
 1367POPC   C3A21929  27.517   8.122   8.010
 1367POPC   C4A21930  27.398   8.525   7.834
 1367POPC   C1B21931  27.554   7.886   8.577
 1367POPC   C2B21932  27.872   7.677   8.331
 1367POPC   C3B21933  27.910   7.726   7.902
 1367POPC   C4B21934  27.665   7.839   7.573
 1368POPC   NC321935  14.134   0.208   9.402
 1368POPC   PO421936  14.756   0.295   9.479
 1368POPC   GL121937  14.522   0.476   9.133
 1368POPC   GL221938  14.812   0.722   9.097
 1368POPC   C1A21939  14.190   0.504   8.794
 1368POPC   D2A21940  14.291   0.300   8.425
 1368POPC   C3A21941  14.227   0.403   8.003
 1368POPC   C4A21942  14.574   0.368   7.744
 1368POPC   C1B21943  14.643   0.717   8.683
 1368POPC   C2B21944  14.742   0.538   8.276
 1368POPC   C3B21945  14.755   0.781   7.917
 1368POPC   C4B21946  14.728   0.828   7.455
 1369POPC   NC321947   2.717  36.981   9.843
 1369POPC   PO421948   2.128  36.921   9.545
 1369POPC   GL121949   1.994  36.997   9.129
 1369POPC   GL221950   1.945  36.661   9.081
 1369POPC   C1A21951   1.900  36.984   8.670
 1369POPC   D2A21952   1.900  37.140   8.228
 1369POPC   C3A21953   2.008  36.889   7.890
 1369POPC   C4A21954   1.787  36.818   7.528
 1369POPC   C1B21955   2.137  36.499   8.716
 1369POPC   C2B21956   2.138  36.633   8.297
 1369POPC   C3B21957   2.237  36.444   7.861
 1369POPC   C4B21958   2.267  36.559   7.401
 1370POPC   NC321959   9.349  10.416   9.604
 1370POPC   PO421960   8.784  10.800   9.519
 1370POPC   GL121961   8.844  10.516   9.170
 1370POPC   GL221962   9.170  10.465   9.134
 1370POPC   C1A21963   8.806  10.411   8.729
 1370POPC   D2A21964   8.942  10.207   8.333
 1370POPC   C3A21965   8.807  10.500   8.021
 1370POPC   C4A21966   8.989  10.629   7.651
 1370POPC   C1B21967   9.294  10.280   8.734
 1370POPC   C2B21968   9.487  10.202   8.326
 1370POPC   C3B21969   9.279  10.243   7.902
 1370POPC   C4B21970   9.259  10.256   7.434
 1371POPC   NC321971   2.348   4.081   9.470
 1371POPC   PO421972   1.911   4.585   9.346
 1371POPC   GL121973   1.983   4.187   9.113
 1371POPC   GL221974   2.180   3.870   9.020
 1371POPC   C1A21975   1.935   4.233   8.703
 1371POPC   D2A21976   2.059   4.590   8.470
 1371POPC   C3A21977   1.941   4.440   8.074
 1371POPC   C4A21978   1.919   4.194   7.712
 1371POPC   C1B21979   1.742   3.788   8.863
 1371POPC   C2B21980   1.538   3.989   8.522
 1371POPC   C3B21981   1.670   4.008   8.125
 1371POPC   C4B21982   1.610   3.801   7.737
 1372POPC   NC321983  44.270   4.245   9.512
 1372POPC   PO421984  43.603   4.433   9.695
 1372POPC   GL121985  43.868   4.506   9.259
 1372POPC   GL221986  44.036   4.220   9.056
 1372POPC   C1A21987  44.068   4.660   8.832
 1372POPC   D2A21988  44.205   4.398   8.484
 1372POPC   C3A21989  44.149   4.481   8.045
 1372POPC   C4A21990  44.017   4.534   7.613
 1372POPC   C1B21991  44.023   3.938   8.655
 1372POPC   C2B21992  44.101   3.958   8.209
 1372POPC   C3B21993  44.097   4.048   7.777
 1372POPC   C4B21994  43.773   4.015   7.476
 1373POPC   NC321995  22.716  39.680   9.812
 1373POPC   PO421996  22.172  39.964   9.473
 1373POPC   GL121997  22.312  40.183   9.147
 1373POPC   GL221998  22.537  40.487   9.281
 1373POPC   C1A21999  22.287  40.002   8.719
 1373POPC   D2A22000  22.081  39.822   8.319
 1373POPC   C3A22001  22.127  39.932   7.858
 1373POPC   C4A22002  21.921  40.164   7.506
 1373POPC   C1B22003  22.539  40.481   8.826
 1373POPC   C2B22004  22.606  40.258   8.417
 1373POPC   C3B22005  22.510  40.205   8.003
 1373POPC   C4B22006  22.349  40.453   7.673
 1374POPC   NC322007  11.782  37.016   9.292
 1374POPC   PO422008  11.978  37.685   9.519
 1374POPC   GL122009  12.082  37.657   9.101
 1374POPC   GL222010  11.954  37.376   8.985
 1374POPC   C1A22011  12.361  37.561   8.752
 1374POPC   D2A22012  12.346  37.465   8.340
 1374POPC   C3A22013  12.378  37.707   7.982
 1374POPC   C4A22014  12.105  37.468   7.772
 1374POPC   C1B22015  11.862  37.668   8.643
 1374POPC   C2B22016  11.866  37.644   8.208
 1374POPC   C3B22017  11.656  37.766   7.864
 1374POPC   C4B22018  11.613  37.361   7.754
 1375POPC   NC322019  16.087  14.973   9.704
 1375POPC   PO422020  15.941  15.632   9.498
 1375POPC   GL122021  15.897  15.259   9.221
 1375POPC   GL222022  16.228  15.072   9.220
 1375POPC   C1A22023  15.723  15.036   8.817
 1375POPC   D2A22024  15.889  15.037   8.387
 1375POPC   C3A22025  15.765  15.095   7.965
 1375POPC   C4A22026  15.980  15.444   7.830
 1375POPC   C1B22027  16.218  15.155   8.771
 1375POPC   C2B22028  16.375  14.896   8.404
 1375POPC   C3B22029  16.281  15.050   7.954
 1375POPC   C4B22030  16.414  15.287   7.557
 1376POPC   NC322031  16.773  25.294   9.574
 1376POPC   PO422032  17.142  24.844   9.387
 1376POPC   GL122033  17.020  25.171   9.075
 1376POPC   GL222034  16.892  25.517   9.134
 1376POPC   C1A22035  16.897  25.206   8.635
 1376POPC   D2A22036  16.629  24.946   8.351
 1376POPC   C3A22037  16.670  24.965   7.895
 1376POPC   C4A22038  16.930  25.136   7.574
 1376POPC   C1B22039  16.705  25.674   8.737
 1376POPC   C2B22040  16.561  25.476   8.319
 1376POPC   C3B22041  16.514  25.450   7.854
 1376POPC   C4B22042  16.439  25.247   7.438
 1377POPC   NC322043  43.905   9.696   9.558
 1377POPC   PO422044  44.232  10.288   9.642
 1377POPC   GL122045  43.992  10.010   9.173
 1377POPC   GL222046  43.961   9.625   9.066
 1377POPC   C1A22047  44.069   9.939   8.685
 1377POPC   D2A22048  44.050   9.709   8.287
 1377POPC   C3A22049  43.909   9.957   7.936
 1377POPC   C4A22050  44.026   9.873   7.494
 1377POPC   C1B22051  43.605   9.649   8.768
 1377POPC   C2B22052  43.541   9.772   8.335
 1377POPC   C3B22053  43.648   9.536   7.931
 1377POPC   C4B22054  43.617   9.507   7.468
 1378POPC   NC322055  27.381  26.740   9.538
 1378POPC   PO422056  28.088  26.599   9.556
 1378POPC   GL122057  27.829  26.747   9.232
 1378POPC   GL222058  27.741  26.458   9.090
 1378POPC   C1A22059  27.892  26.874   8.812
 1378POPC   D2A22060  27.758  26.783   8.388
 1378POPC   C3A22061  27.964  26.992   8.055
 1378POPC   C4A22062  27.546  27.051   7.919
 1378POPC   C1B22063  27.528  26.491   8.738
 1378POPC   C2B22064  27.306  26.350   8.428
 1378POPC   C3B22065  27.369  26.518   8.024
 1378POPC   C4B22066  27.754  26.568   7.885
 1379POPC   NC322067  15.887  15.943   9.837
 1379POPC   PO422068  16.219  16.330   9.449
 1379POPC   GL122069  16.113  16.035   9.117
 1379POPC   GL222070  15.765  15.880   9.097
 1379POPC   C1A22071  16.030  15.998   8.671
 1379POPC   D2A22072  16.164  15.878   8.261
 1379POPC   C3A22073  15.980  15.961   7.837
 1379POPC   C4A22074  16.141  15.725   7.449
 1379POPC   C1B22075  15.872  15.538   8.779
 1379POPC   C2B22076  15.771  15.523   8.327
 1379POPC   C3B22077  15.566  15.704   7.980
 1379POPC   C4B22078  15.598  15.838   7.522
 1380POPC   NC322079  12.352  11.657   9.447
 1380POPC   PO422080  11.830  11.461   9.784
 1380POPC   GL122081  11.900  11.460   9.210
 1380POPC   GL222082  12.140  11.725   9.007
 1380POPC   C1A22083  12.023  11.375   8.689
 1380POPC   D2A22084  12.001  11.429   8.211
 1380POPC   C3A22085  12.001  11.152   7.825
 1380POPC   C4A22086  12.220  11.205   7.423
 1380POPC   C1B22087  12.521  11.604   8.751
 1380POPC   C2B22088  12.547  11.490   8.283
 1380POPC   C3B22089  12.335  11.543   7.851
 1380POPC   C4B22090  12.366  11.694   7.394
 1381POPC   NC322091  28.026  18.111   9.389
 1381POPC   PO422092  27.605  18.130   9.986
 1381POPC   GL122093  27.540  18.161   9.432
 1381POPC   GL222094  27.768  18.455   9.165
 1381POPC   C1A22095  27.408  18.202   8.911
 1381POPC   D2A22096  27.328  18.427   8.461
 1381POPC   C3A22097  27.491  18.264   8.016
 1381POPC   C4A22098  27.277  18.424   7.605
 1381POPC   C1B22099  27.715  18.588   8.761
 1381POPC   C2B22100  27.836  18.437   8.385
 1381POPC   C3B22101  27.944  18.522   7.976
 1381POPC   C4B22102  27.781  18.511   7.565
 1382POPC   NC322103  30.306  27.313   9.509
 1382POPC   PO422104  29.965  27.899   9.655
 1382POPC   GL122105  29.895  27.733   9.130
 1382POPC   GL222106  30.044  27.413   9.076
 1382POPC   C1A22107  29.754  27.552   8.688
 1382POPC   D2A22108  29.539  27.560   8.259
 1382POPC   C3A22109  29.729  27.440   7.871
 1382POPC   C4A22110  29.925  27.558   7.467
 1382POPC   C1B22111  30.287  27.454   8.700
 1382POPC   C2B22112  30.419  27.318   8.281
 1382POPC   C3B22113  30.239  27.463   7.895
 1382POPC   C4B22114  30.383  27.748   7.582
 1383POPC   NC322115  29.331  28.190   9.872
 1383POPC   PO422116  29.895  28.467   9.517
 1383POPC   GL122117  29.620  28.126   9.319
 1383POPC   GL222118  29.253  28.120   9.227
 1383POPC   C1A22119  29.578  28.000   8.867
 1383POPC   D2A22120  29.574  28.019   8.431
 1383POPC   C3A22121  29.532  28.324   8.099
 1383POPC   C4A22122  29.259  28.474   7.791
 1383POPC   C1B22123  29.089  28.074   8.770
 1383POPC   C2B22124  29.073  28.288   8.340
 1383POPC   C3B22125  28.829  28.222   7.949
 1383POPC   C4B22126  28.536  28.209   7.576
 1384POPC   NC322127  15.389  11.854   9.426
 1384POPC   PO422128  14.812  12.123   9.610
 1384POPC   GL122129  15.055  12.193   9.230
 1384POPC   GL222130  15.423  12.304   9.165
 1384POPC   C1A22131  15.119  12.022   8.838
 1384POPC   D2A22132  14.992  11.857   8.472
 1384POPC   C3A22133  15.174  11.849   8.052
 1384POPC   C4A22134  15.136  11.962   7.631
 1384POPC   C1B22135  15.623  11.995   8.845
 1384POPC   C2B22136  15.493  12.012   8.438
 1384POPC   C3B22137  15.579  12.273   8.094
 1384POPC   C4B22138  15.612  12.183   7.686
 1385POPC   NC322139  36.946  43.008   9.819
 1385POPC   PO422140  36.440  43.439   9.558
 1385POPC   GL122141  36.839  43.338   9.300
 1385POPC   GL222142  36.852  43.002   9.281
 1385POPC   C1A22143  37.007  43.288   8.867
 1385POPC   D2A22144  36.864  43.168   8.442
 1385POPC   C3A22145  37.101  43.321   8.088
 1385POPC   C4A22146  37.147  43.412   7.672
 1385POPC   C1B22147  36.725  42.853   8.889
 1385POPC   C2B22148  36.584  42.657   8.543
 1385POPC   C3B22149  36.572  42.802   8.111
 1385POPC   C4B22150  36.910  42.920   7.824
 1386POPC   NC322151  14.751   1.642   9.542
 1386POPC   PO422152  14.337   2.116   9.728
 1386POPC   GL122153  14.366   1.912   9.286
 1386POPC   GL222154  14.064   1.706   9.137
 1386POPC   C1A22155  14.396   1.966   8.837
 1386POPC   D2A22156  14.156   2.064   8.457
 1386POPC   C3A22157  14.415   2.120   8.063
 1386POPC   C4A22158  14.675   1.970   7.693
 1386POPC   C1B22159  14.106   1.539   8.722
 1386POPC   C2B22160  13.956   1.642   8.281
 1386POPC   C3B22161  14.058   1.808   7.878
 1386POPC   C4B22162  14.010   1.834   7.441
 1387POPC   NC322163  28.185   5.813   9.685
 1387POPC   PO422164  28.776   6.038   9.652
 1387POPC   GL122165  28.491   5.894   9.267
 1387POPC   GL222166  28.139   6.006   9.208
 1387POPC   C1A22167  28.412   5.819   8.794
 1387POPC   D2A22168  28.189   5.630   8.432
 1387POPC   C3A22169  28.334   5.592   7.989
 1387POPC   C4A22170  28.548   5.851   7.675
 1387POPC   C1B22171  28.119   6.275   8.822
 1387POPC   C2B22172  28.186   6.212   8.379
 1387POPC   C3B22173  28.141   6.108   7.961
 1387POPC   C4B22174  27.722   6.135   7.809
 1388POPC   NC322175  15.359  22.380   9.441
 1388POPC   PO422176  14.867  21.975   9.665
 1388POPC   GL122177  14.917  21.942   9.193
 1388POPC   GL222178  14.740  22.248   9.109
 1388POPC   C1A22179  15.105  22.107   8.770
 1388POPC   D2A22180  15.151  22.259   8.363
 1388POPC   C3A22181  15.480  22.202   8.087
 1388POPC   C4A22182  15.404  22.064   7.690
 1388POPC   C1B22183  14.907  22.571   8.788
 1388POPC   C2B22184  15.079  22.740   8.371
 1388POPC   C3B22185  14.865  22.541   8.027
 1388POPC   C4B22186  14.913  22.225   7.718
 1389POPC   NC322187  21.036  43.434   9.653
 1389POPC   PO422188  20.574  43.971   9.575
 1389POPC   GL122189  20.635  43.836   9.170
 1389POPC   GL222190  20.425  43.648   9.096
 1389POPC   C1A22191  20.660  43.935   8.735
 1389POPC   D2A22192  20.872  43.840   8.343
 1389POPC   C3A22193  20.795  44.061   7.947
 1389POPC   C4A22194  21.071  44.094   7.568
 1389POPC   C1B22195  20.250  43.616   8.737
 1389POPC   C2B22196  20.272  43.813   8.358
 1389POPC   C3B22197  20.428  43.699   7.988
 1389POPC   C4B22198  20.272  43.491   7.669
 1390POPC   NC322199  18.122   2.060   9.513
 1390POPC   PO422200  18.774   1.692   9.547
 1390POPC   GL122201  18.568   1.716   9.105
 1390POPC   GL222202  18.305   1.976   9.064
 1390POPC   C1A22203  18.241   1.571   8.773
 1390POPC   D2A22204  17.972   1.583   8.398
 1390POPC   C3A22205  18.162   1.702   8.011
 1390POPC   C4A22206  18.487   1.806   7.724
 1390POPC   C1B22207  18.271   2.188   8.684
 1390POPC   C2B22208  18.320   2.370   8.270
 1390POPC   C3B22209  18.164   2.227   7.883
 1390POPC   C4B22210  18.064   2.422   7.511
 1391POPC   NC322211  11.741  38.448   9.462
 1391POPC   PO422212  12.329  38.854   9.478
 1391POPC   GL122213  12.196  38.537   9.191
 1391POPC   GL222214  12.102  38.167   9.227
 1391POPC   C1A22215  12.213  38.580   8.779
 1391POPC   D2A22216  12.045  38.461   8.399
 1391POPC   C3A22217  12.284  38.563   8.067
 1391POPC   C4A22218  11.997  38.533   7.751
 1391POPC   C1B22219  12.288  38.064   8.829
 1391POPC   C2B22220  12.204  37.975   8.403
 1391POPC   C3B22221  12.056  38.087   7.994
 1391POPC   C4B22222  11.899  38.086   7.545
 1392POPC   NC322223  15.680  18.297   9.552
 1392POPC   PO422224  16.350  18.372   9.609
 1392POPC   GL122225  16.056  18.335   9.214
 1392POPC   GL222226  15.755  18.586   9.131
 1392POPC   C1A22227  15.956  18.167   8.789
 1392POPC   D2A22228  16.135  18.105   8.344
 1392POPC   C3A22229  16.073  18.458   8.048
 1392POPC   C4A22230  16.012  18.466   7.589
 1392POPC   C1B22231  15.685  18.601   8.675
 1392POPC   C2B22232  15.633  18.248   8.382
 1392POPC   C3B22233  15.630  18.227   7.948
 1392POPC   C4B22234  15.511  18.574   7.691
 1393POPC   NC322235   0.652   5.028   9.537
 1393POPC   PO422236  44.922   5.201   9.510
 1393POPC   GL122237   0.258   5.203   9.248
 1393POPC   GL222238   0.228   4.878   9.092
 1393POPC   C1A22239   0.560   5.250   8.888
 1393POPC   D2A22240   0.538   5.025   8.486
 1393POPC   C3A22241   0.582   5.159   8.040
 1393POPC   C4A22242   0.576   5.399   7.643
 1393POPC   C1B22243   0.666   4.754   8.935
 1393POPC   C2B22244   0.874   4.635   8.550
 1393POPC   C3B22245   0.788   4.692   8.126
 1393POPC   C4B22246   0.750   4.709   7.681
 1394POPC   NC322247  34.927  26.126   9.761
 1394POPC   PO422248  34.433  25.814   9.391
 1394POPC   GL122249  34.461  26.108   9.108
 1394POPC   GL222250  34.181  25.927   8.939
 1394POPC   C1A22251  34.755  26.230   8.801
 1394POPC   D2A22252  34.798  26.130   8.373
 1394POPC   C3A22253  34.598  25.890   8.036
 1394POPC   C4A22254  34.730  25.940   7.606
 1394POPC   C1B22255  34.265  26.263   8.626
 1394POPC   C2B22256  34.345  26.315   8.189
 1394POPC   C3B22257  34.423  26.318   7.742
 1394POPC   C4B22258  34.298  26.084   7.336
 1395POPC   NC322259  13.819  28.184   9.559
 1395POPC   PO422260  13.276  28.309   9.625
 1395POPC   GL122261  13.466  28.265   9.183
 1395POPC   GL222262  13.339  28.560   9.031
 1395POPC   C1A22263  13.699  28.166   8.757
 1395POPC   D2A22264  13.804  27.963   8.335
 1395POPC   C3A22265  13.514  27.990   7.963
 1395POPC   C4A22266  13.604  28.183   7.553
 1395POPC   C1B22267  13.523  28.617   8.609
 1395POPC   C2B22268  13.607  28.441   8.213
 1395POPC   C3B22269  13.697  28.653   7.844
 1395POPC   C4B22270  13.898  28.975   7.543
 1396POPC   NC322271  42.672  14.462   9.547
 1396POPC   PO422272  43.305  14.348   9.559
 1396POPC   GL122273  43.078  14.311   9.161
 1396POPC   GL222274  42.817  14.562   9.058
 1396POPC   C1A22275  43.175  14.405   8.713
 1396POPC   D2A22276  43.090  14.195   8.318
 1396POPC   C3A22277  43.230  14.271   7.885
 1396POPC   C4A22278  43.562  14.218   7.556
 1396POPC   C1B22279  42.733  14.163   8.777
 1396POPC   C2B22280  42.651  13.957   8.355
 1396POPC   C3B22281  42.698  14.210   7.964
 1396POPC   C4B22282  42.661  14.629   7.734
 1397POPC   NC322283   8.874   9.437   9.378
 1397POPC   PO422284   9.016  10.073   9.589
 1397POPC   GL122285   9.061   9.966   9.171
 1397POPC   GL222286   9.248   9.678   9.150
 1397POPC   C1A22287   8.885   9.891   8.761
 1397POPC   D2A22288   8.742   9.622   8.403
 1397POPC   C3A22289   8.888   9.750   8.016
 1397POPC   C4A22290   8.826  10.086   7.730
 1397POPC   C1B22291   9.394   9.788   8.794
 1397POPC   C2B22292   9.237   9.775   8.408
 1397POPC   C3B22293   9.397   9.762   8.013
 1397POPC   C4B22294   9.206   9.782   7.600
 1398POPC   NC322295  44.901   4.709   9.497
 1398POPC   PO422296  44.680   4.077   9.659
 1398POPC   GL122297  44.644   4.236   9.188
 1398POPC   GL222298  44.850   4.496   9.042
 1398POPC   C1A22299  44.554   4.145   8.756
 1398POPC   D2A22300  44.713   4.325   8.370
 1398POPC   C3A22301  44.587   4.191   7.972
 1398POPC   C4A22302  44.919   4.081   7.636
 1398POPC   C1B22303  44.581   4.672   8.723
 1398POPC   C2B22304  44.472   4.808   8.294
 1398POPC   C3B22305  44.608   4.703   7.854
 1398POPC   C4B22306  44.440   4.784   7.433
 1399POPC   NC322307  30.906   3.646   9.545
 1399POPC   PO422308  30.488   3.167   9.559
 1399POPC   GL122309  30.569   3.474   9.167
 1399POPC   GL222310  30.787   3.790   9.084
 1399POPC   C1A22311  30.648   3.435   8.692
 1399POPC   D2A22312  30.846   3.265   8.282
 1399POPC   C3A22313  30.709   3.333   7.846
 1399POPC   C4A22314  30.632   3.219   7.389
 1399POPC   C1B22315  31.023   3.768   8.712
 1399POPC   C2B22316  30.871   3.786   8.288
 1399POPC   C3B22317  30.743   3.898   7.882
 1399POPC   C4B22318  30.791   3.690   7.495
 1400POPC   NC322319  33.342  27.036   9.408
 1400POPC   PO422320  33.759  26.507   9.429
 1400POPC   GL122321  33.611  26.735   9.076
 1400POPC   GL222322  33.822  27.020   9.086
 1400POPC   C1A22323  33.646  26.835   8.620
 1400POPC   D2A22324  33.883  26.565   8.336
 1400POPC   C3A22325  33.780  26.527   7.885
 1400POPC   C4A22326  34.025  26.519   7.492
 1400POPC   C1B22327  34.010  27.254   8.770
 1400POPC   C2B22328  33.805  27.278   8.391
 1400POPC   C3B22329  33.769  27.022   8.053
 1400POPC   C4B22330  33.926  27.002   7.661
 1401POPC   NC322331   1.919  25.396   9.509
 1401POPC   PO422332   1.271  25.228   9.643
 1401POPC   GL122333   1.586  25.144   9.221
 1401POPC   GL222334   1.741  25.470   9.060
 1401POPC   C1A22335   1.814  25.065   8.781
 1401POPC   D2A22336   2.099  25.006   8.419
 1401POPC   C3A22337   1.980  24.953   7.965
 1401POPC   C4A22338   1.749  25.280   7.711
 1401POPC   C1B22339   2.151  25.457   8.880
 1401POPC   C2B22340   2.234  25.514   8.468
 1401POPC   C3B22341   2.095  25.467   8.071
 1401POPC   C4B22342   2.303  25.334   7.735
 1402POPC   NC322343  11.345   0.650   9.347
 1402POPC   PO422344  11.436  44.968   9.451
 1402POPC   GL122345  11.176   0.201   9.110
 1402POPC   GL222346  10.916   0.476   9.102
 1402POPC   C1A22347  11.300   0.379   8.692
 1402POPC   D2A22348  11.175   0.572   8.292
 1402POPC   C3A22349  11.435   0.548   7.916
 1402POPC   C4A22350  11.418   0.508   7.471
 1402POPC   C1B22351  10.973   0.801   8.754
 1402POPC   C2B22352  10.754   0.878   8.332
 1402POPC   C3B22353  10.932   0.836   7.888
 1402POPC   C4B22354  10.964   0.717   7.411
 1403POPC   NC322355  10.048  39.770   9.567
 1403POPC   PO422356   9.598  40.212   9.459
 1403POPC   GL122357   9.603  39.918   9.164
 1403POPC   GL222358   9.943  39.925   9.100
 1403POPC   C1A22359   9.600  40.026   8.734
 1403POPC   D2A22360   9.916  40.058   8.438
 1403POPC   C3A22361   9.745  40.052   8.038
 1403POPC   C4A22362   9.854  40.192   7.641
 1403POPC   C1B22363  10.016  39.579   8.827
 1403POPC   C2B22364   9.844  39.546   8.431
 1403POPC   C3B22365  10.015  39.605   8.037
 1403POPC   C4B22366   9.785  39.663   7.663
 1404POPC   NC322367   2.648  40.988   9.318
 1404POPC   PO422368   2.538  40.463   9.712
 1404POPC   GL122369   2.738  40.459   9.264
 1404POPC   GL222370   2.382  40.504   9.170
 1404POPC   C1A22371   2.908  40.692   8.825
 1404POPC   D2A22372   2.685  41.025   8.531
 1404POPC   C3A22373   2.598  40.890   8.102
 1404POPC   C4A22374   2.859  40.770   7.710
 1404POPC   C1B22375   2.557  40.327   8.788
 1404POPC   C2B22376   2.700  40.463   8.392
 1404POPC   C3B22377   2.523  40.393   7.992
 1404POPC   C4B22378   2.696  40.305   7.587
 1405POPC   NC322379  39.726  14.090   9.571
 1405POPC   PO422380  40.228  14.322   9.368
 1405POPC   GL122381  39.924  14.083   9.071
 1405POPC   GL222382  39.562  13.886   9.125
 1405POPC   C1A22383  40.083  14.103   8.614
 1405POPC   D2A22384  40.296  14.342   8.269
 1405POPC   C3A22385  40.387  14.260   7.818
 1405POPC   C4A22386  40.314  14.457   7.395
 1405POPC   C1B22387  39.554  14.150   8.743
 1405POPC   C2B22388  39.683  14.096   8.297
 1405POPC   C3B22389  39.884  14.324   7.936
 1405POPC   C4B22390  39.840  14.295   7.465
 1406POPC   NC322391   4.402  21.572   9.519
 1406POPC   PO422392   3.890  21.132   9.405
 1406POPC   GL122393   4.246  21.244   9.118
 1406POPC   GL222394   4.287  21.634   9.030
 1406POPC   C1A22395   4.120  21.283   8.685
 1406POPC   D2A22396   3.951  21.086   8.311
 1406POPC   C3A22397   4.159  21.196   7.934
 1406POPC   C4A22398   4.404  21.060   7.554
 1406POPC   C1B22399   4.544  21.893   8.747
 1406POPC   C2B22400   4.715  21.739   8.362
 1406POPC   C3B22401   4.475  21.650   7.982
 1406POPC   C4B22402   4.253  21.569   7.605
 1407POPC   NC322403  41.609   6.646   9.536
 1407POPC   PO422404  41.045   6.421   9.764
 1407POPC   GL122405  41.096   6.485   9.282
 1407POPC   GL222406  41.288   6.780   9.159
 1407POPC   C1A22407  41.194   6.393   8.833
 1407POPC   D2A22408  41.368   6.694   8.537
 1407POPC   C3A22409  41.304   6.675   8.125
 1407POPC   C4A22410  41.526   6.526   7.770
 1407POPC   C1B22411  41.664   6.872   8.903
 1407POPC   C2B22412  41.898   6.850   8.518
 1407POPC   C3B22413  41.798   6.811   8.094
 1407POPC   C4B22414  41.873   6.882   7.670
 1408POPC   NC322415  34.278  30.318   9.282
 1408POPC   PO422416  34.846  30.747   9.420
 1408POPC   GL122417  34.915  30.755   9.012
 1408POPC   GL222418  34.547  30.650   8.962
 1408POPC   C1A22419  34.765  30.999   8.669
 1408POPC   D2A22420  34.459  30.781   8.429
 1408POPC   C3A22421  34.643  30.712   8.010
 1408POPC   C4A22422  34.794  31.033   7.682
 1408POPC   C1B22423  34.511  30.322   8.692
 1408POPC   C2B22424  34.282  30.230   8.415
 1408POPC   C3B22425  34.390  30.227   8.057
 1408POPC   C4B22426  34.347  30.378   7.718
 1409POPC   NC322427  14.247  19.264   9.519
 1409POPC   PO422428  14.533  18.831   9.158
 1409POPC   GL122429  14.252  18.868   8.886
 1409POPC   GL222430  14.161  19.212   8.990
 1409POPC   C1A22431  14.349  18.708   8.498
 1409POPC   D2A22432  14.786  18.828   8.395
 1409POPC   C3A22433  14.713  19.049   8.029
 1409POPC   C4A22434  14.413  18.980   7.685
 1409POPC   C1B22435  14.353  19.217   8.546
 1409POPC   C2B22436  14.119  19.058   8.184
 1409POPC   C3B22437  14.013  19.411   7.972
 1409POPC   C4B22438  14.428  19.446   7.849
 1410POPC   NC322439   9.994   2.863   9.606
 1410POPC   PO422440  10.524   2.499   9.566
 1410POPC   GL122441  10.507   2.483   9.106
 1410POPC   GL222442  10.144   2.455   9.073
 1410POPC   C1A22443  10.762   2.654   8.700
 1410POPC   D2A22444  10.514   2.834   8.309
 1410POPC   C3A22445  10.488   2.934   7.840
 1410POPC   C4A22446  10.227   3.069   7.435
 1410POPC   C1B22447  10.316   2.433   8.641
 1410POPC   C2B22448  10.601   2.340   8.304
 1410POPC   C3B22449  10.549   2.385   7.872
 1410POPC   C4B22450  10.341   2.560   7.510
 1411POPC   NC322451  19.921  11.701   9.422
 1411POPC   PO422452  19.976  12.368   9.520
 1411POPC   GL122453  20.040  12.160   9.161
 1411POPC   GL222454  19.699  12.056   9.128
 1411POPC   C1A22455  20.042  12.106   8.731
 1411POPC   D2A22456  19.760  12.117   8.355
 1411POPC   C3A22457  19.944  12.128   7.923
 1411POPC   C4A22458  19.940  12.156   7.455
 1411POPC   C1B22459  19.669  12.436   8.858
 1411POPC   C2B22460  19.524  12.576   8.450
 1411POPC   C3B22461  19.591  12.501   8.023
 1411POPC   C4B22462  19.526  12.434   7.596
 1412POPC   NC322463   0.121  27.972   9.673
 1412POPC   PO422464   0.558  27.645   9.861
 1412POPC   GL122465   0.552  27.688   9.365
 1412POPC   GL222466   0.817  27.465   9.176
 1412POPC   C1A22467   0.549  27.830   8.900
 1412POPC   D2A22468   0.296  28.098   8.579
 1412POPC   C3A22469   0.284  27.892   8.170
 1412POPC   C4A22470   0.575  27.712   7.882
 1412POPC   C1B22471   0.841  27.326   8.717
 1412POPC   C2B22472   0.782  27.354   8.252
 1412POPC   C3B22473   0.502  27.190   7.917
 1412POPC   C4B22474   0.179  27.096   7.582
 1413POPC   NC322475  32.452  24.885   9.509
 1413POPC   PO422476  31.967  24.322   9.391
 1413POPC   GL122477  32.292  24.329   9.064
 1413POPC   GL222478  32.427  24.675   9.049
 1413POPC   C1A22479  32.462  24.415   8.625
 1413POPC   D2A22480  32.330  24.597   8.223
 1413POPC   C3A22481  32.005  24.389   7.988
 1413POPC   C4A22482  32.055  24.320   7.558
 1413POPC   C1B22483  32.030  24.728   8.825
 1413POPC   C2B22484  31.829  24.697   8.421
 1413POPC   C3B22485  31.894  24.893   8.033
 1413POPC   C4B22486  32.154  24.820   7.695
 1414POPC   NC322487   4.205   7.151   9.696
 1414POPC   PO422488   3.739   6.937   9.530
 1414POPC   GL122489   4.016   7.028   9.176
 1414POPC   GL222490   4.155   7.376   9.191
 1414POPC   C1A22491   4.093   7.165   8.722
 1414POPC   D2A22492   4.292   7.427   8.370
 1414POPC   C3A22493   4.224   7.300   7.932
 1414POPC   C4A22494   4.276   7.093   7.532
 1414POPC   C1B22495   4.126   7.687   8.816
 1414POPC   C2B22496   4.079   7.920   8.403
 1414POPC   C3B22497   4.247   7.805   7.993
 1414POPC   C4B22498   4.659   7.585   7.898
 1415POPC   NC322499  28.492  40.406   9.418
 1415POPC   PO422500  28.024  40.030   9.696
 1415POPC   GL122501  28.289  39.939   9.287
 1415POPC   GL222502  28.064  39.864   9.015
 1415POPC   C1A22503  28.535  39.917   8.857
 1415POPC   D2A22504  28.200  39.866   8.517
 1415POPC   C3A22505  28.208  40.075   8.112
 1415POPC   C4A22506  28.492  39.905   7.791
 1415POPC   C1B22507  28.215  40.292   8.829
 1415POPC   C2B22508  28.509  40.290   8.478
 1415POPC   C3B22509  28.671  40.307   8.057
 1415POPC   C4B22510  28.371  40.395   7.718
 1416POPC   NC322511  11.091  10.316   9.597
 1416POPC   PO422512  11.676  10.606   9.703
 1416POPC   GL122513  11.468  10.533   9.298
 1416POPC   GL222514  11.119  10.670   9.232
 1416POPC   C1A22515  11.366  10.298   8.914
 1416POPC   D2A22516  11.220  10.405   8.481
 1416POPC   C3A22517  11.389  10.380   8.091
 1416POPC   C4A22518  11.227  10.378   7.674
 1416POPC   C1B22519  11.287  10.812   8.803
 1416POPC   C2B22520  11.218  10.900   8.322
 1416POPC   C3B22521  11.316  10.833   7.853
 1416POPC   C4B22522  11.354  10.774   7.375
 1417POPC   NC322523  41.146   0.068   9.333
 1417POPC   PO422524  40.860   0.626   9.415
 1417POPC   GL122525  40.781   0.484   9.005
 1417POPC   GL222526  40.623   0.185   9.000
 1417POPC   C1A22527  40.651   0.502   8.563
 1417POPC   D2A22528  40.326   0.330   8.264
 1417POPC   C3A22529  40.507   0.242   7.846
 1417POPC   C4A22530  40.738   0.548   7.650
 1417POPC   C1B22531  40.784   0.019   8.601
 1417POPC   C2B22532  40.856   0.176   8.206
 1417POPC   C3B22533  40.968  44.968   7.840
 1417POPC   C4B22534  41.022   0.172   7.443
 1418POPC   NC322535   7.436  29.620   9.762
 1418POPC   PO422536   7.110  30.070   9.438
 1418POPC   GL122537   7.409  29.972   9.163
 1418POPC   GL222538   7.501  29.641   9.217
 1418POPC   C1A22539   7.304  29.961   8.756
 1418POPC   D2A22540   7.312  29.713   8.421
 1418POPC   C3A22541   7.249  29.941   8.054
 1418POPC   C4A22542   7.334  30.091   7.647
 1418POPC   C1B22543   7.757  29.662   8.850
 1418POPC   C2B22544   7.809  29.565   8.412
 1418POPC   C3B22545   7.598  29.570   7.995
 1418POPC   C4B22546   7.775  29.849   7.695
 1419POPC   NC322547  22.786  25.627   9.492
 1419POPC   PO422548  22.793  26.337   9.450
 1419POPC   GL122549  23.030  26.214   9.103
 1419POPC   GL222550  23.060  25.856   9.117
 1419POPC   C1A22551  23.003  26.186   8.655
 1419POPC   D2A22552  22.906  26.019   8.267
 1419POPC   C3A22553  23.017  26.226   7.879
 1419POPC   C4A22554  23.034  26.474   7.475
 1419POPC   C1B22555  22.807  25.728   8.781
 1419POPC   C2B22556  22.539  25.703   8.399
 1419POPC   C3B22557  22.700  25.578   8.007
 1419POPC   C4B22558  22.863  25.762   7.664
 1420POPC   NC322559  24.852  26.671   9.471
 1420POPC   PO422560  24.323  27.155   9.489
 1420POPC   GL122561  24.374  26.892   9.102
 1420POPC   GL222562  24.600  26.606   9.054
 1420POPC   C1A22563  24.365  26.838   8.639
 1420POPC   D2A22564  24.696  26.735   8.289
 1420POPC   C3A22565  24.640  26.805   7.832
 1420POPC   C4A22566  24.221  26.771   7.644
 1420POPC   C1B22567  24.465  26.343   8.738
 1420POPC   C2B22568  24.270  26.443   8.320
 1420POPC   C3B22569  24.436  26.345   7.937
 1420POPC   C4B22570  24.248  26.252   7.578
 1421POPC   NC322571  11.316  26.293   9.542
 1421POPC   PO422572  11.940  26.114   9.611
 1421POPC   GL122573  11.642  25.962   9.300
 1421POPC   GL222574  11.525  26.242   9.083
 1421POPC   C1A22575  11.622  25.809   8.858
 1421POPC   D2A22576  11.475  25.997   8.466
 1421POPC   C3A22577  11.489  25.737   8.134
 1421POPC   C4A22578  11.370  25.796   7.716
 1421POPC   C1B22579  11.160  26.063   8.847
 1421POPC   C2B22580  11.012  26.212   8.441
 1421POPC   C3B22581  11.058  26.044   8.026
 1421POPC   C4B22582  10.979  26.143   7.559
 1422POPC   NC322583  36.223  20.977   9.526
 1422POPC   PO422584  35.978  20.321   9.408
 1422POPC   GL122585  36.088  20.647   9.135
 1422POPC   GL222586  35.824  20.846   9.139
 1422POPC   C1A22587  36.261  20.745   8.723
 1422POPC   D2A22588  36.286  20.810   8.293
 1422POPC   C3A22589  36.399  20.454   8.058
 1422POPC   C4A22590  36.343  20.368   7.615
 1422POPC   C1B22591  35.759  20.586   8.756
 1422POPC   C2B22592  35.762  20.716   8.360
 1422POPC   C3B22593  35.916  20.630   7.985
 1422POPC   C4B22594  35.849  20.847   7.626
 1423POPC   NC322595   1.960  32.493   9.422
 1423POPC   PO422596   1.652  31.988   9.211
 1423POPC   GL122597   1.954  32.187   9.006
 1423POPC   GL222598   2.283  32.224   9.147
 1423POPC   C1A22599   1.930  32.414   8.661
 1423POPC   D2A22600   1.744  32.338   8.295
 1423POPC   C3A22601   1.888  32.236   7.923
 1423POPC   C4A22602   1.898  32.587   7.684
 1423POPC   C1B22603   2.378  32.146   8.736
 1423POPC   C2B22604   2.192  32.057   8.358
 1423POPC   C3B22605   2.383  32.139   8.000
 1423POPC   C4B22606   2.277  32.271   7.564
 1424POPC   NC322607  29.569  38.576   9.555
 1424POPC   PO422608  29.985  38.036   9.541
 1424POPC   GL122609  29.985  38.358   9.182
 1424POPC   GL222610  29.756  38.590   9.042
 1424POPC   C1A22611  29.949  38.282   8.714
 1424POPC   D2A22612  30.025  38.540   8.369
 1424POPC   C3A22613  29.864  38.395   7.999
 1424POPC   C4A22614  30.087  38.248   7.654
 1424POPC   C1B22615  29.708  38.875   8.626
 1424POPC   C2B22616  29.811  38.937   8.130
 1424POPC   C3B22617  30.068  38.792   7.751
 1424POPC   C4B22618  30.114  38.669   7.317
 1425POPC   NC322619   1.062  20.692   9.500
 1425POPC   PO422620   0.497  20.483   9.897
 1425POPC   GL122621   0.583  20.598   9.404
 1425POPC   GL222622   0.349  20.599   9.163
 1425POPC   C1A22623   0.799  20.526   8.923
 1425POPC   D2A22624   0.894  20.553   8.411
 1425POPC   C3A22625   0.617  20.612   7.975
 1425POPC   C4A22626   0.205  20.706   7.738
 1425POPC   C1B22627   0.412  20.817   8.795
 1425POPC   C2B22628   0.499  20.876   8.380
 1425POPC   C3B22629   0.371  21.105   8.021
 1425POPC   C4B22630   0.597  21.034   7.663
 1426POPC   NC322631  31.031  35.714   9.831
 1426POPC   PO422632  30.439  35.384   9.576
 1426POPC   GL122633  30.750  35.400   9.232
 1426POPC   GL222634  30.961  35.694   9.184
 1426POPC   C1A22635  30.841  35.149   8.844
 1426POPC   D2A22636  30.553  35.085   8.513
 1426POPC   C3A22637  30.671  35.151   8.111
 1426POPC   C4A22638  30.718  35.161   7.720
 1426POPC   C1B22639  30.727  35.640   8.793
 1426POPC   C2B22640  30.899  35.476   8.424
 1426POPC   C3B22641  30.994  35.564   8.012
 1426POPC   C4B22642  30.821  35.641   7.612
 1427POPC   NC322643  30.196  39.198   9.869
 1427POPC   PO422644  29.535  39.006   9.714
 1427POPC   GL122645  29.657  39.058   9.161
 1427POPC   GL222646  29.979  39.089   8.988
 1427POPC   C1A22647  29.671  39.378   8.739
 1427POPC   D2A22648  29.902  39.459   8.330
 1427POPC   C3A22649  29.609  39.419   8.004
 1427POPC   C4A22650  29.579  39.134   7.658
 1427POPC   C1B22651  30.201  39.417   8.750
 1427POPC   C2B22652  30.451  39.522   8.354
 1427POPC   C3B22653  30.406  39.516   7.921
 1427POPC   C4B22654  30.064  39.294   7.803
 1428POPC   NC322655  38.700  11.926   9.509
 1428POPC   PO422656  38.699  12.586   9.642
 1428POPC   GL122657  38.882  12.390   9.168
 1428POPC   GL222658  38.727  12.063   9.043
 1428POPC   C1A22659  38.724  12.384   8.678
 1428POPC   D2A22660  38.413  12.301   8.339
 1428POPC   C3A22661  38.653  12.180   8.030
 1428POPC   C4A22662  38.568  12.190   7.650
 1428POPC   C1B22663  38.392  11.999   8.751
 1428POPC   C2B22664  38.344  11.799   8.336
 1428POPC   C3B22665  38.255  11.857   7.910
 1428POPC   C4B22666  38.047  11.869   7.517
 1429POPC   NC322667   8.223  37.623   9.381
 1429POPC   PO422668   7.718  38.083   9.364
 1429POPC   GL122669   7.941  37.876   9.011
 1429POPC   GL222670   8.235  37.958   8.992
 1429POPC   C1A22671   8.249  37.550   8.735
 1429POPC   D2A22672   8.197  37.360   8.323
 1429POPC   C3A22673   8.076  37.630   7.957
 1429POPC   C4A22674   8.139  37.446   7.542
 1429POPC   C1B22675   8.259  38.209   8.610
 1429POPC   C2B22676   8.501  38.169   8.239
 1429POPC   C3B22677   8.446  38.019   7.845
 1429POPC   C4B22678   8.254  37.929   7.461
 1430POPC   NC322679  29.882  39.434   9.402
 1430POPC   PO422680  29.657  40.180   9.428
 1430POPC   GL122681  29.932  39.991   9.157
 1430POPC   GL222682  29.687  39.758   9.067
 1430POPC   C1A22683  30.142  40.207   8.807
 1430POPC   D2A22684  30.348  40.226   8.396
 1430POPC   C3A22685  30.168  39.910   8.143
 1430POPC   C4A22686  29.988  39.797   7.746
 1430POPC   C1B22687  29.559  40.030   8.750
 1430POPC   C2B22688  29.779  40.187   8.409
 1430POPC   C3B22689  29.767  40.203   7.979
 1430POPC   C4B22690  29.579  40.074   7.571
 1431POPC   NC322691  16.116  39.491   9.299
 1431POPC   PO422692  16.681  39.569   9.675
 1431POPC   GL122693  16.644  39.418   9.243
 1431POPC   GL222694  16.794  39.094   9.184
 1431POPC   C1A22695  16.524  39.281   8.809
 1431POPC   D2A22696  16.570  39.412   8.392
 1431POPC   C3A22697  16.627  39.042   8.149
 1431POPC   C4A22698  16.764  38.943   7.757
 1431POPC   C1B22699  17.024  39.332   8.870
 1431POPC   C2B22700  17.044  39.257   8.412
 1431POPC   C3B22701  16.952  39.410   7.969
 1431POPC   C4B22702  16.970  39.352   7.502
 1432POPC   NC322703  11.224  30.820   9.562
 1432POPC   PO422704  11.338  30.197   9.430
 1432POPC   GL122705  11.225  30.353   9.074
 1432POPC   GL222706  11.389  30.656   9.121
 1432POPC   C1A22707  11.295  30.490   8.663
 1432POPC   D2A22708  11.518  30.550   8.348
 1432POPC   C3A22709  11.375  30.422   7.949
 1432POPC   C4A22710  11.369  30.410   7.489
 1432POPC   C1B22711  11.493  30.979   8.839
 1432POPC   C2B22712  11.398  31.066   8.424
 1432POPC   C3B22713  11.540  30.946   8.035
 1432POPC   C4B22714  11.326  30.862   7.685
 1433POPC   NC322715  19.241   1.472   9.594
 1433POPC   PO422716  19.191   0.772   9.653
 1433POPC   GL122717  19.112   1.068   9.301
 1433POPC   GL222718  18.980   1.396   9.164
 1433POPC   C1A22719  19.097   1.002   8.874
 1433POPC   D2A22720  19.066   0.976   8.442
 1433POPC   C3A22721  19.039   1.173   8.034
 1433POPC   C4A22722  19.207   0.827   7.761
 1433POPC   C1B22723  19.106   1.492   8.722
 1433POPC   C2B22724  19.078   1.658   8.342
 1433POPC   C3B22725  18.914   1.701   7.991
 1433POPC   C4B22726  18.942   1.506   7.620
 1434POPC   NC322727  41.234   5.561   9.511
 1434POPC   PO422728  41.534   6.208   9.387
 1434POPC   GL122729  41.605   5.895   9.070
 1434POPC   GL222730  41.293   5.684   9.040
 1434POPC   C1A22731  41.439   5.956   8.642
 1434POPC   D2A22732  41.274   6.207   8.346
 1434POPC   C3A22733  41.511   6.079   8.024
 1434POPC   C4A22734  41.809   5.892   7.792
 1434POPC   C1B22735  41.081   5.588   8.678
 1434POPC   C2B22736  41.117   5.739   8.255
 1434POPC   C3B22737  41.190   5.735   7.825
 1434POPC   C4B22738  41.057   5.606   7.445
 1435POPC   NC322739  17.119  34.493   9.776
 1435POPC   PO422740  17.743  34.656   9.592
 1435POPC   GL122741  17.704  34.718   9.146
 1435POPC   GL222742  17.378  34.820   8.968
 1435POPC   C1A22743  17.689  34.486   8.766
 1435POPC   D2A22744  17.575  34.660   8.391
 1435POPC   C3A22745  17.713  34.499   8.024
 1435POPC   C4A22746  18.006  34.793   7.855
 1435POPC   C1B22747  17.160  34.588   8.667
 1435POPC   C2B22748  17.069  34.756   8.276
 1435POPC   C3B22749  17.388  34.919   7.988
 1435POPC   C4B22750  17.353  34.903   7.575
 1436POPC   NC322751  18.713  33.985   9.546
 1436POPC   PO422752  19.140  33.517   9.343
 1436POPC   GL122753  19.171  33.945   9.139
 1436POPC   GL222754  18.831  33.966   9.043
 1436POPC   C1A22755  19.326  33.970   8.690
 1436POPC   D2A22756  19.460  33.715   8.316
 1436POPC   C3A22757  19.449  33.916   7.911
 1436POPC   C4A22758  19.355  33.842   7.474
 1436POPC   C1B22759  18.819  33.887   8.596
 1436POPC   C2B22760  18.997  33.920   8.196
 1436POPC   C3B22761  18.936  33.797   7.776
 1436POPC   C4B22762  18.858  33.945   7.368
 1437POPC   NC322763  14.963  44.911   9.290
 1437POPC   PO422764  15.376   0.398   9.583
 1437POPC   GL122765  15.282   0.314   9.156
 1437POPC   GL222766  15.462  44.961   9.182
 1437POPC   C1A22767  15.138   0.490   8.722
 1437POPC   D2A22768  15.217   0.748   8.313
 1437POPC   C3A22769  15.183   0.481   7.962
 1437POPC   C4A22770  15.069   0.490   7.524
 1437POPC   C1B22771  15.575   0.142   8.770
 1437POPC   C2B22772  15.564   0.379   8.400
 1437POPC   C3B22773  15.639   0.234   7.995
 1437POPC   C4B22774  15.423   0.150   7.624
 1438POPC   NC322775  11.864  42.681   9.340
 1438POPC   PO422776  12.215  43.311   9.257
 1438POPC   GL122777  12.152  42.965   9.052
 1438POPC   GL222778  12.389  42.695   9.118
 1438POPC   C1A22779  11.840  42.947   8.739
 1438POPC   D2A22780  11.998  42.986   8.352
 1438POPC   C3A22781  11.828  43.179   8.021
 1438POPC   C4A22782  12.019  43.347   7.672
 1438POPC   C1B22783  12.537  42.890   8.732
 1438POPC   C2B22784  12.503  43.045   8.329
 1438POPC   C3B22785  12.318  42.941   7.931
 1438POPC   C4B22786  12.483  43.113   7.580
 1439POPC   NC322787  24.322  20.881   9.451
 1439POPC   PO422788  24.856  20.445   9.545
 1439POPC   GL122789  24.827  20.450   9.136
 1439POPC   GL222790  24.758  20.813   9.143
 1439POPC   C1A22791  24.724  20.237   8.763
 1439POPC   D2A22792  24.484  20.402   8.436
 1439POPC   C3A22793  24.618  20.429   8.024
 1439POPC   C4A22794  24.481  20.710   7.708
 1439POPC   C1B22795  24.918  20.745   8.727
 1439POPC   C2B22796  24.767  20.846   8.317
 1439POPC   C3B22797  24.964  20.833   7.926
 1439POPC   C4B22798  24.919  20.879   7.487
 1440POPC   NC322799  34.240  31.215   9.550
 1440POPC   PO422800  33.644  31.515   9.657
 1440POPC   GL122801  33.693  31.456   9.235
 1440POPC   GL222802  33.504  31.166   9.168
 1440POPC   C1A22803  33.898  31.581   8.846
 1440POPC   D2A22804  33.835  31.512   8.412
 1440POPC   C3A22805  34.104  31.590   8.046
 1440POPC   C4A22806  33.919  31.501   7.623
 1440POPC   C1B22807  33.747  31.044   8.818
 1440POPC   C2B22808  33.942  30.997   8.415
 1440POPC   C3B22809  33.819  31.167   8.017
 1440POPC   C4B22810  33.523  31.153   7.689
 1441POPC   NC322811  24.156  39.894   9.523
 1441POPC   PO422812  24.703  40.308   9.474
 1441POPC   GL122813  24.602  39.971   9.195
 1441POPC   GL222814  24.465  39.629   9.211
 1441POPC   C1A22815  24.397  40.011   8.821
 1441POPC   D2A22816  24.486  40.147   8.428
 1441POPC   C3A22817  24.303  39.970   8.068
 1441POPC   C4A22818  24.372  40.159   7.680
 1441POPC   C1B22819  24.640  39.574   8.815
 1441POPC   C2B22820  24.766  39.688   8.422
 1441POPC   C3B22821  24.623  39.572   8.033
 1441POPC   C4B22822  24.658  39.749   7.631
 1442POPC   NC322823  34.990  29.441   9.457
 1442POPC   PO422824  35.069  30.137   9.565
 1442POPC   GL122825  35.278  30.057   9.162
 1442POPC   GL222826  35.268  29.708   9.136
 1442POPC   C1A22827  35.355  29.947   8.702
 1442POPC   D2A22828  35.560  29.986   8.300
 1442POPC   C3A22829  35.313  29.959   7.909
 1442POPC   C4A22830  35.236  30.313   7.629
 1442POPC   C1B22831  35.484  29.460   8.838
 1442POPC   C2B22832  35.390  29.443   8.433
 1442POPC   C3B22833  35.599  29.533   8.066
 1442POPC   C4B22834  35.745  29.723   7.717
 1443POPC   NC322835  28.311   3.880   9.520
 1443POPC   PO422836  28.232   4.437   9.505
 1443POPC   GL122837  28.220   4.459   9.059
 1443POPC   GL222838  28.255   4.117   9.002
 1443POPC   C1A22839  28.174   4.695   8.653
 1443POPC   D2A22840  28.320   4.621   8.221
 1443POPC   C3A22841  28.119   4.569   7.840
 1443POPC   C4A22842  28.355   4.543   7.439
 1443POPC   C1B22843  28.507   4.307   8.650
 1443POPC   C2B22844  28.740   4.338   8.268
 1443POPC   C3B22845  28.555   4.292   7.853
 1443POPC   C4B22846  28.189   4.091   7.633
 1444POPC   NC322847  41.831   3.399   9.418
 1444POPC   PO422848  41.155   3.574   9.440
 1444POPC   GL122849  41.432   3.601   9.129
 1444POPC   GL222850  41.438   3.253   9.070
 1444POPC   C1A22851  41.577   3.845   8.790
 1444POPC   D2A22852  41.428   3.787   8.380
 1444POPC   C3A22853  41.513   3.542   7.983
 1444POPC   C4A22854  41.294   3.159   7.852
 1444POPC   C1B22855  41.790   3.354   8.773
 1444POPC   C2B22856  41.947   3.293   8.354
 1444POPC   C3B22857  41.933   3.199   7.936
 1444POPC   C4B22858  41.764   3.300   7.554
 1445POPC   NC322859   5.433  18.215   9.497
 1445POPC   PO422860   6.061  18.013   9.234
 1445POPC   GL122861   6.016  18.243   8.926
 1445POPC   GL222862   5.957  18.535   9.120
 1445POPC   C1A22863   5.800  18.162   8.531
 1445POPC   D2A22864   5.581  18.130   8.109
 1445POPC   C3A22865   5.886  18.249   7.823
 1445POPC   C4A22866   6.243  18.103   7.691
 1445POPC   C1B22867   5.568  18.523   8.861
 1445POPC   C2B22868   5.488  18.547   8.416
 1445POPC   C3B22869   5.627  18.648   8.010
 1445POPC   C4B22870   5.611  18.583   7.564
 1446POPC   NC322871  26.045  36.006   9.561
 1446POPC   PO422872  26.467  36.529   9.428
 1446POPC   GL122873  26.184  36.325   9.190
 1446POPC   GL222874  26.373  36.311   8.916
 1446POPC   C1A22875  25.837  36.413   8.875
 1446POPC   D2A22876  25.611  36.480   8.470
 1446POPC   C3A22877  25.833  36.256   8.180
 1446POPC   C4A22878  25.974  36.211   7.759
 1446POPC   C1B22879  26.078  35.961   8.864
 1446POPC   C2B22880  25.952  35.854   8.492
 1446POPC   C3B22881  25.981  35.780   8.083
 1446POPC   C4B22882  26.283  35.806   7.798
 1447POPC   NC322883  33.362   1.687   9.561
 1447POPC   PO422884  32.824   2.021   9.493
 1447POPC   GL122885  32.934   2.034   9.116
 1447POPC   GL222886  33.065   1.699   9.137
 1447POPC   C1A22887  33.291   2.173   8.901
 1447POPC   D2A22888  33.352   2.244   8.461
 1447POPC   C3A22889  33.250   1.935   8.154
 1447POPC   C4A22890  33.116   2.129   7.787
 1447POPC   C1B22891  33.088   1.750   8.704
 1447POPC   C2B22892  32.872   2.082   8.487
 1447POPC   C3B22893  32.695   2.067   8.076
 1447POPC   C4B22894  32.728   1.857   7.648
 1448POPC   NC322895  27.872  44.289   9.462
 1448POPC   PO422896  27.546  43.706   9.529
 1448POPC   GL122897  27.459  43.712   9.093
 1448POPC   GL222898  27.594  44.056   9.074
 1448POPC   C1A22899  27.656  43.650   8.662
 1448POPC   D2A22900  27.924  43.716   8.277
 1448POPC   C3A22901  27.718  43.823   7.873
 1448POPC   C4A22902  27.735  43.856   7.420
 1448POPC   C1B22903  27.320  44.037   8.711
 1448POPC   C2B22904  27.447  43.993   8.300
 1448POPC   C3B22905  27.223  43.913   7.927
 1448POPC   C4B22906  27.252  43.696   7.527
 1449POPC   NC322907  20.508  16.516  10.243
 1449POPC   PO422908  20.613  16.176   9.664
 1449POPC   GL122909  20.710  16.353   9.230
 1449POPC   GL222910  20.632  16.737   9.179
 1449POPC   C1A22911  20.729  16.450   8.762
 1449POPC   D2A22912  20.446  16.507   8.393
 1449POPC   C3A22913  20.690  16.592   8.032
 1449POPC   C4A22914  21.052  16.287   7.989
 1449POPC   C1B22915  20.451  16.888   8.753
 1449POPC   C2B22916  20.401  17.017   8.294
 1449POPC   C3B22917  20.338  16.960   7.831
 1449POPC   C4B22918  20.207  16.832   7.395
 1450POPC   NC322919   2.423  34.735   9.478
 1450POPC   PO422920   1.928  34.472   9.792
 1450POPC   GL122921   2.005  34.524   9.283
 1450POPC   GL222922   1.748  34.636   9.078
 1450POPC   C1A22923   2.131  34.382   8.849
 1450POPC   D2A22924   2.049  34.640   8.488
 1450POPC   C3A22925   2.084  34.520   8.059
 1450POPC   C4A22926   2.376  34.722   7.789
 1450POPC   C1B22927   1.636  34.466   8.720
 1450POPC   C2B22928   1.684  34.274   8.347
 1450POPC   C3B22929   1.556  34.459   7.975
 1450POPC   C4B22930   1.734  34.437   7.612
 1451POPC   NC322931  24.354   5.937   9.453
 1451POPC   PO422932  24.792   6.420   9.217
 1451POPC   GL122933  24.649   6.035   9.028
 1451POPC   GL222934  24.745   5.685   9.145
 1451POPC   C1A22935  24.406   5.991   8.650
 1451POPC   D2A22936  24.172   6.041   8.281
 1451POPC   C3A22937  24.353   6.012   7.872
 1451POPC   C4A22938  24.341   6.212   7.469
 1451POPC   C1B22939  24.822   5.676   8.677
 1451POPC   C2B22940  24.632   5.712   8.239
 1451POPC   C3B22941  24.637   5.548   7.798
 1451POPC   C4B22942  24.813   5.538   7.358
 1452POPC   NC322943  18.194  23.330   9.557
 1452POPC   PO422944  17.982  22.703   9.635
 1452POPC   GL122945  18.149  22.927   9.256
 1452POPC   GL222946  17.948  22.726   9.086
 1452POPC   C1A22947  18.310  23.029   8.816
 1452POPC   D2A22948  18.579  22.854   8.444
 1452POPC   C3A22949  18.481  22.955   7.994
 1452POPC   C4A22950  18.141  23.192   7.790
 1452POPC   C1B22951  18.090  22.597   8.688
 1452POPC   C2B22952  18.088  22.758   8.260
 1452POPC   C3B22953  18.284  22.492   7.928
 1452POPC   C4B22954  18.268  22.244   7.544
 1453POPC   NC322955  29.569   8.741   9.534
 1453POPC   PO422956  29.546   8.071   9.526
 1453POPC   GL122957  29.702   8.326   9.190
 1453POPC   GL222958  29.873   8.035   9.080
 1453POPC   C1A22959  29.839   8.401   8.755
 1453POPC   D2A22960  29.824   8.205   8.349
 1453POPC   C3A22961  29.618   8.333   7.992
 1453POPC   C4A22962  29.911   8.328   7.665
 1453POPC   C1B22963  29.980   7.857   8.699
 1453POPC   C2B22964  29.823   7.690   8.325
 1453POPC   C3B22965  29.918   7.859   7.940
 1453POPC   C4B22966  30.075   7.845   7.492
 1454POPC   NC322967  10.840  28.041   9.223
 1454POPC   PO422968  11.034  27.532   9.654
 1454POPC   GL122969  11.051  27.485   9.223
 1454POPC   GL222970  11.362  27.521   9.106
 1454POPC   C1A22971  10.993  27.431   8.766
 1454POPC   D2A22972  10.939  27.656   8.359
 1454POPC   C3A22973  11.119  27.485   7.968
 1454POPC   C4A22974  10.967  27.352   7.534
 1454POPC   C1B22975  11.481  27.627   8.711
 1454POPC   C2B22976  11.426  27.797   8.314
 1454POPC   C3B22977  11.533  27.885   7.920
 1454POPC   C4B22978  11.600  27.527   7.726
 1455POPC   NC322979   8.664  36.743   9.756
 1455POPC   PO422980   8.262  37.300   9.705
 1455POPC   GL122981   8.319  37.156   9.205
 1455POPC   GL222982   8.072  36.928   9.047
 1455POPC   C1A22983   8.461  37.085   8.727
 1455POPC   D2A22984   8.672  37.127   8.281
 1455POPC   C3A22985   8.535  36.894   7.905
 1455POPC   C4A22986   8.370  36.990   7.506
 1455POPC   C1B22987   7.887  37.085   8.645
 1455POPC   C2B22988   7.724  37.179   8.238
 1455POPC   C3B22989   8.024  37.073   7.933
 1455POPC   C4B22990   8.076  36.640   7.777
 1456POPC   NC322991  15.851  42.894   9.541
 1456POPC   PO422992  15.637  43.563   9.582
 1456POPC   GL122993  15.750  43.313   9.198
 1456POPC   GL222994  15.573  42.987   9.137
 1456POPC   C1A22995  15.965  43.146   8.794
 1456POPC   D2A22996  16.219  43.293   8.406
 1456POPC   C3A22997  16.202  43.097   7.986
 1456POPC   C4A22998  16.244  43.293   7.579
 1456POPC   C1B22999  15.566  42.835   8.696
 1456POPC   C2B23000  15.764  43.010   8.323
 1456POPC   C3B23001  15.688  43.024   7.903
 1456POPC   C4B23002  15.597  42.768   7.561
 1457POPC   NC323003  43.938  10.654   9.735
 1457POPC   PO423004  43.561  10.145   9.503
 1457POPC   GL123005  43.913  10.480   9.263
 1457POPC   GL223006  43.845  10.815   9.175
 1457POPC   C1A23007  43.930  10.434   8.799
 1457POPC   D2A23008  43.776  10.242   8.405
 1457POPC   C3A23009  43.878  10.473   8.035
 1457POPC   C4A23010  43.927  10.358   7.618
 1457POPC   C1B23011  44.257  10.824   8.872
 1457POPC   C2B23012  44.187  10.880   8.398
 1457POPC   C3B23013  43.830  10.978   8.066
 1457POPC   C4B23014  43.761  10.894   7.619
 1458POPC   NC323015   9.027  23.262   9.475
 1458POPC   PO423016   8.744  22.676   9.560
 1458POPC   GL123017   8.972  22.864   9.148
 1458POPC   GL223018   9.234  23.156   9.035
 1458POPC   C1A23019   8.852  22.862   8.709
 1458POPC   D2A23020   8.768  22.552   8.363
 1458POPC   C3A23021   8.747  22.761   7.947
 1458POPC   C4A23022   8.843  22.860   7.476
 1458POPC   C1B23023   9.283  23.125   8.605
 1458POPC   C2B23024   9.116  22.958   8.237
 1458POPC   C3B23025   9.214  22.982   7.795
 1458POPC   C4B23026   9.263  23.129   7.358
 1459POPC   NC323027  20.228  36.114   9.628
 1459POPC   PO423028  19.795  36.494   9.419
 1459POPC   GL123029  19.897  36.290   9.072
 1459POPC   GL223030  19.915  35.969   9.160
 1459POPC   C1A23031  19.894  36.170   8.644
 1459POPC   D2A23032  19.757  35.842   8.374
 1459POPC   C3A23033  19.685  36.074   8.013
 1459POPC   C4A23034  19.836  36.050   7.605
 1459POPC   C1B23035  19.580  35.815   8.876
 1459POPC   C2B23036  19.268  35.866   8.552
 1459POPC   C3B23037  19.299  35.724   8.121
 1459POPC   C4B23038  19.251  35.998   7.764
 1460POPC   NC323039  39.581   3.859   9.515
 1460POPC   PO423040  39.119   3.421   9.597
 1460POPC   GL123041  39.384   3.440   9.219
 1460POPC   GL223042  39.522   3.096   9.178
 1460POPC   C1A23043  39.299   3.614   8.789
 1460POPC   D2A23044  39.040   3.855   8.473
 1460POPC   C3A23045  39.093   3.697   8.073
 1460POPC   C4A23046  39.104   3.568   7.643
 1460POPC   C1B23047  39.160   3.087   8.888
 1460POPC   C2B23048  39.150   3.211   8.447
 1460POPC   C3B23049  39.214   3.206   7.987
 1460POPC   C4B23050  39.517   3.283   7.617
 1461POPC   NC323051  31.182  21.676   9.520
 1461POPC   PO423052  31.569  21.125   9.537
 1461POPC   GL123053  31.617  21.286   9.120
 1461POPC   GL223054  31.542  21.622   9.158
 1461POPC   C1A23055  31.562  21.144   8.676
 1461POPC   D2A23056  31.229  20.903   8.403
 1461POPC   C3A23057  31.223  20.965   7.944
 1461POPC   C4A23058  31.241  21.356   7.702
 1461POPC   C1B23059  31.793  21.628   8.773
 1461POPC   C2B23060  31.837  21.516   8.341
 1461POPC   C3B23061  31.701  21.505   7.918
 1461POPC   C4B23062  31.640  21.609   7.487
 1462POPC   NC323063  34.728  34.790   9.526
 1462POPC   PO423064  34.243  34.282   9.379
 1462POPC   GL123065  34.325  34.641   9.119
 1462POPC   GL223066  34.649  34.581   9.077
 1462POPC   C1A23067  34.364  34.821   8.710
 1462POPC   D2A23068  34.445  34.922   8.259
 1462POPC   C3A23069  34.510  34.535   7.988
 1462POPC   C4A23070  34.808  34.173   8.022
 1462POPC   C1B23071  34.913  34.835   8.848
 1462POPC   C2B23072  34.931  34.777   8.409
 1462POPC   C3B23073  34.880  34.904   7.981
 1462POPC   C4B23074  34.927  35.091   7.567
 1463POPC   NC323075   6.587  40.057   9.571
 1463POPC   PO423076   7.262  40.161   9.642
 1463POPC   GL123077   6.985  40.027   9.262
 1463POPC   GL223078   6.782  39.689   9.251
 1463POPC   C1A23079   6.775  40.063   8.862
 1463POPC   D2A23080   6.666  40.302   8.486
 1463POPC   C3A23081   6.752  40.095   8.108
 1463POPC   C4A23082   6.584  40.008   7.699
 1463POPC   C1B23083   6.527  39.611   8.860
 1463POPC   C2B23084   6.551  39.767   8.452
 1463POPC   C3B23085   6.515  39.630   8.040
 1463POPC   C4B23086   6.255  39.606   7.654
 1464POPC   NC323087  23.367  38.143   9.454
 1464POPC   PO423088  22.690  38.332   9.501
 1464POPC   GL123089  22.789  38.473   9.121
 1464POPC   GL223090  23.135  38.428   9.096
 1464POPC   C1A23091  22.746  38.200   8.733
 1464POPC   D2A23092  22.697  37.967   8.322
 1464POPC   C3A23093  22.745  38.151   7.895
 1464POPC   C4A23094  22.782  38.307   7.454
 1464POPC   C1B23095  23.012  38.656   8.711
 1464POPC   C2B23096  22.932  38.461   8.336
 1464POPC   C3B23097  23.114  38.489   7.971
 1464POPC   C4B23098  23.028  38.737   7.659
 1465POPC   NC323099  42.475  41.839   9.484
 1465POPC   PO423100  41.849  41.744   9.492
 1465POPC   GL123101  42.103  41.740   9.126
 1465POPC   GL223102  42.305  41.419   9.221
 1465POPC   C1A23103  42.488  41.718   8.837
 1465POPC   D2A23104  42.680  41.530   8.468
 1465POPC   C3A23105  42.492  41.813   8.176
 1465POPC   C4A23106  42.248  41.898   7.809
 1465POPC   C1B23107  42.122  41.339   8.814
 1465POPC   C2B23108  42.125  41.574   8.454
 1465POPC   C3B23109  42.169  41.426   8.043
 1465POPC   C4B23110  42.110  41.449   7.613
 1466POPC   NC323111  20.382   1.776   9.956
 1466POPC   PO423112  19.761   1.754   9.695
 1466POPC   GL123113  19.796   2.001   9.199
 1466POPC   GL223114  19.563   2.060   8.981
 1466POPC   C1A23115  20.005   2.075   8.766
 1466POPC   D2A23116  19.956   2.417   8.498
 1466POPC   C3A23117  19.759   2.284   8.097
 1466POPC   C4A23118  19.720   2.109   7.658
 1466POPC   C1B23119  19.581   1.799   8.601
 1466POPC   C2B23120  19.857   1.812   8.268
 1466POPC   C3B23121  19.897   1.674   7.847
 1466POPC   C4B23122  19.783   1.553   7.429
 1467POPC   NC323123  44.078  41.073   9.774
 1467POPC   PO423124  44.697  40.775   9.667
 1467POPC   GL123125  44.658  40.601   9.225
 1467POPC   GL223126  44.906  40.799   9.067
 1467POPC   C1A23127  44.562  40.667   8.745
 1467POPC   D2A23128  44.330  40.627   8.356
 1467POPC   C3A23129  44.394  40.945   8.052
 1467POPC   C4A23130  44.356  40.670   7.696
 1467POPC   C1B23131   0.060  40.900   8.672
 1467POPC   C2B23132  44.843  40.802   8.311
 1467POPC   C3B23133  44.833  40.735   7.891
 1467POPC   C4B23134  44.976  41.096   7.673
 1468POPC   NC323135   2.879  32.115   9.534
 1468POPC   PO423136   2.399  32.630   9.457
 1468POPC   GL123137   2.733  32.463   9.174
 1468POPC   GL223138   2.763  32.071   9.062
 1468POPC   C1A23139   2.818  32.458   8.754
 1468POPC   D2A23140   2.788  32.145   8.435
 1468POPC   C3A23141   2.840  32.347   8.091
 1468POPC   C4A23142   2.738  32.406   7.693
 1468POPC   C1B23143   2.770  31.757   8.773
 1468POPC   C2B23144   2.561  31.674   8.395
 1468POPC   C3B23145   2.751  31.807   8.015
 1468POPC   C4B23146   2.569  31.855   7.624
 1469POPC   NC323147   4.064  44.432   9.460
 1469POPC   PO423148   4.393  44.811   9.802
 1469POPC   GL123149   4.341  44.802   9.274
 1469POPC   GL223150   4.430  44.467   9.094
 1469POPC   C1A23151   4.439  44.890   8.812
 1469POPC   D2A23152   4.384  44.665   8.404
 1469POPC   C3A23153   4.405  44.832   7.987
 1469POPC   C4A23154   4.151  44.776   7.604
 1469POPC   C1B23155   4.035  44.536   8.814
 1469POPC   C2B23156   3.861  44.667   8.403
 1469POPC   C3B23157   3.991  44.504   8.024
 1469POPC   C4B23158   3.830  44.357   7.661
 1470POPC   NC323159  21.043   3.196   9.557
 1470POPC   PO423160  21.436   3.747   9.518
 1470POPC   GL123161  21.394   3.415   9.195
 1470POPC   GL223162  21.118   3.521   9.161
 1470POPC   C1A23163  21.459   3.242   8.749
 1470POPC   D2A23164  21.244   3.297   8.314
 1470POPC   C3A23165  21.422   3.456   7.941
 1470POPC   C4A23166  21.470   3.335   7.469
 1470POPC   C1B23167  21.019   3.494   8.740
 1470POPC   C2B23168  20.865   3.728   8.383
 1470POPC   C3B23169  20.900   3.535   7.967
 1470POPC   C4B23170  21.085   3.663   7.580
 1471POPC   NC323171   6.576   8.856   9.528
 1471POPC   PO423172   7.066   9.313   9.392
 1471POPC   GL123173   6.695   9.172   9.088
 1471POPC   GL223174   6.419   8.911   9.052
 1471POPC   C1A23175   6.532   9.274   8.659
 1471POPC   D2A23176   6.754   9.517   8.341
 1471POPC   C3A23177   6.707   9.367   7.936
 1471POPC   C4A23178   6.403   9.114   7.819
 1471POPC   C1B23179   6.681   8.798   8.697
 1471POPC   C2B23180   6.756   8.955   8.281
 1471POPC   C3B23181   6.739   8.738   7.881
 1471POPC   C4B23182   6.853   8.527   7.477
 1472POPC   NC323183  13.883  41.836   9.429
 1472POPC   PO423184  13.573  42.456   9.519
 1472POPC   GL123185  13.649  42.312   9.130
 1472POPC   GL223186  13.509  41.983   9.118
 1472POPC   C1A23187  13.628  42.535   8.732
 1472POPC   D2A23188  13.865  42.624   8.336
 1472POPC   C3A23189  13.816  42.350   7.941
 1472POPC   C4A23190  13.822  42.212   7.471
 1472POPC   C1B23191  13.848  41.983   8.799
 1472POPC   C2B23192  13.769  42.135   8.422
 1472POPC   C3B23193  13.512  42.009   8.120
 1472POPC   C4B23194  13.619  41.851   7.764
 1473POPC   NC323195  13.828   8.742   9.730
 1473POPC   PO423196  13.695   9.324   9.499
 1473POPC   GL123197  13.612   9.120   9.100
 1473POPC   GL223198  13.411   8.861   9.253
 1473POPC   C1A23199  13.440   9.256   8.679
 1473POPC   D2A23200  13.652   9.371   8.286
 1473POPC   C3A23201  13.740   9.254   7.855
 1473POPC   C4A23202  14.133   9.385   7.676
 1473POPC   C1B23203  13.405   8.756   8.791
 1473POPC   C2B23204  13.539   8.853   8.349
 1473POPC   C3B23205  13.561   8.749   7.900
 1473POPC   C4B23206  13.513   8.852   7.472
 1474POPC   NC323207   9.290  30.715   9.865
 1474POPC   PO423208   9.835  30.823   9.498
 1474POPC   GL123209   9.675  30.871   9.104
 1474POPC   GL223210   9.407  30.672   9.009
 1474POPC   C1A23211   9.789  30.776   8.681
 1474POPC   D2A23212   9.728  31.061   8.322
 1474POPC   C3A23213   9.781  30.909   7.936
 1474POPC   C4A23214  10.038  30.598   7.774
 1474POPC   C1B23215   9.525  30.332   8.717
 1474POPC   C2B23216   9.727  30.411   8.309
 1474POPC   C3B23217   9.572  30.440   7.904
 1474POPC   C4B23218   9.548  30.223   7.524
 1475POPC   NC323219  25.414  17.057   9.745
 1475POPC   PO423220  24.985  16.539   9.601
 1475POPC   GL123221  25.000  16.841   9.286
 1475POPC   GL223222  25.347  16.829   9.157
 1475POPC   C1A23223  24.790  16.867   8.876
 1475POPC   D2A23224  24.984  16.956   8.486
 1475POPC   C3A23225  24.945  16.778   8.070
 1475POPC   C4A23226  25.194  16.856   7.724
 1475POPC   C1B23227  25.519  16.528   8.805
 1475POPC   C2B23228  25.375  16.436   8.358
 1475POPC   C3B23229  25.537  16.544   7.940
 1475POPC   C4B23230  25.470  16.520   7.467
 1476POPC   NC323231   0.922  14.979   9.581
 1476POPC   PO423232   1.380  15.423   9.523
 1476POPC   GL123233   1.290  15.136   9.154
 1476POPC   GL223234   1.006  14.891   9.091
 1476POPC   C1A23235   1.423  15.254   8.734
 1476POPC   D2A23236   1.267  15.455   8.388
 1476POPC   C3A23237   1.388  15.322   7.992
 1476POPC   C4A23238   1.153  15.478   7.639
 1476POPC   C1B23239   0.949  14.957   8.655
 1476POPC   C2B23240   1.111  14.943   8.246
 1476POPC   C3B23241   1.041  14.986   7.817
 1476POPC   C4B23242   0.875  15.082   7.427
 1477POPC   NC323243   2.525   2.559   9.257
 1477POPC   PO423244   2.551   3.032   9.748
 1477POPC   GL123245   2.840   3.045   9.283
 1477POPC   GL223246   3.050   2.770   9.174
 1477POPC   C1A23247   2.862   3.112   8.813
 1477POPC   D2A23248   2.628   2.988   8.438
 1477POPC   C3A23249   2.826   3.015   8.034
 1477POPC   C4A23250   2.896   2.728   7.720
 1477POPC   C1B23251   2.911   2.607   8.736
 1477POPC   C2B23252   2.876   2.546   8.283
 1477POPC   C3B23253   2.518   2.556   8.009
 1477POPC   C4B23254   2.496   2.314   7.650
 1478POPC   NC323255  27.672  11.783   9.467
 1478POPC   PO423256  27.321  12.354   9.575
 1478POPC   GL123257  27.334  12.086   9.194
 1478POPC   GL223258  27.698  12.101   9.071
 1478POPC   C1A23259  27.329  12.110   8.734
 1478POPC   D2A23260  27.535  12.315   8.422
 1478POPC   C3A23261  27.344  12.199   8.079
 1478POPC   C4A23262  27.454  12.098   7.696
 1478POPC   C1B23263  27.936  12.112   8.677
 1478POPC   C2B23264  28.028  12.275   8.266
 1478POPC   C3B23265  27.890  12.361   7.836
 1478POPC   C4B23266  27.901  12.078   7.455
 1479POPC   NC323267  33.715  13.973  10.026
 1479POPC   PO423268  33.521  13.556   9.549
 1479POPC   GL123269  33.701  13.759   9.181
 1479POPC   GL223270  33.927  13.479   9.103
 1479POPC   C1A23271  33.784  13.780   8.728
 1479POPC   D2A23272  33.727  13.604   8.335
 1479POPC   C3A23273  33.908  13.749   7.959
 1479POPC   C4A23274  33.604  13.808   7.640
 1479POPC   C1B23275  33.709  13.253   8.720
 1479POPC   C2B23276  33.542  13.138   8.271
 1479POPC   C3B23277  33.697  13.285   7.829
 1479POPC   C4B23278  33.649  13.374   7.355
 1480POPC   NC323279   0.968  27.600   9.644
 1480POPC   PO423280   1.659  27.688   9.511
 1480POPC   GL123281   1.335  27.590   9.229
 1480POPC   GL223282   1.576  27.422   9.044
 1480POPC   C1A23283   1.145  27.712   8.826
 1480POPC   D2A23284   0.862  27.830   8.466
 1480POPC   C3A23285   1.044  27.754   8.050
 1480POPC   C4A23286   0.964  27.384   7.764
 1480POPC   C1B23287   1.581  27.497   8.615
 1480POPC   C2B23288   1.345  27.407   8.262
 1480POPC   C3B23289   1.459  27.423   7.835
 1480POPC   C4B23290   1.741  27.690   7.591
 1481POPC   NC323291   0.424  36.590  10.014
 1481POPC   PO423292   0.735  36.168   9.707
 1481POPC   GL123293   0.755  36.110   9.219
 1481POPC   GL223294   0.395  36.029   9.107
 1481POPC   C1A23295   0.770  35.905   8.792
 1481POPC   D2A23296   0.475  35.889   8.427
 1481POPC   C3A23297   0.471  36.164   8.089
 1481POPC   C4A23298   0.493  36.014   7.701
 1481POPC   C1B23299   0.079  35.999   8.757
 1481POPC   C2B23300  44.957  35.814   8.367
 1481POPC   C3B23301   0.078  35.850   7.942
 1481POPC   C4B23302   0.048  36.252   7.658
 1482POPC   NC323303  34.673  30.369   9.649
 1482POPC   PO423304  34.362  29.872   9.401
 1482POPC   GL123305  34.765  29.892   9.229
 1482POPC   GL223306  34.784  30.251   9.170
 1482POPC   C1A23307  34.850  29.765   8.823
 1482POPC   D2A23308  34.524  29.802   8.524
 1482POPC   C3A23309  34.615  29.778   8.089
 1482POPC   C4A23310  34.325  29.814   7.757
 1482POPC   C1B23311  34.982  30.264   8.817
 1482POPC   C2B23312  34.947  30.078   8.403
 1482POPC   C3B23313  34.885  30.235   8.003
 1482POPC   C4B23314  34.765  30.037   7.647
 1483POPC   NC323315   3.069  33.774   9.545
 1483POPC   PO423316   3.631  34.159   9.469
 1483POPC   GL123317   3.408  33.942   9.147
 1483POPC   GL223318   3.443  33.594   9.213
 1483POPC   C1A23319   3.574  33.809   8.740
 1483POPC   D2A23320   3.714  34.045   8.373
 1483POPC   C3A23321   3.535  33.958   7.981
 1483POPC   C4A23322   3.718  33.586   7.775
 1483POPC   C1B23323   3.210  33.464   8.840
 1483POPC   C2B23324   3.182  33.680   8.423
 1483POPC   C3B23325   3.267  33.526   8.012
 1483POPC   C4B23326   3.269  33.686   7.578
 1484POPC   NC323327   4.820  28.027   9.585
 1484POPC   PO423328   5.303  28.489   9.593
 1484POPC   GL123329   5.098  28.346   9.221
 1484POPC   GL223330   4.776  28.211   9.120
 1484POPC   C1A23331   5.056  28.551   8.842
 1484POPC   D2A23332   5.214  28.630   8.440
 1484POPC   C3A23333   5.001  28.415   8.134
 1484POPC   C4A23334   5.157  28.520   7.761
 1484POPC   C1B23335   4.946  28.042   8.756
 1484POPC   C2B23336   5.266  28.071   8.455
 1484POPC   C3B23337   5.232  27.922   8.036
 1484POPC   C4B23338   4.934  28.068   7.737
 1485POPC   NC323339  32.256  34.323   9.377
 1485POPC   PO423340  32.864  34.550   9.512
 1485POPC   GL123341  32.854  34.373   9.138
 1485POPC   GL223342  32.549  34.573   9.064
 1485POPC   C1A23343  33.211  34.410   8.836
 1485POPC   D2A23344  33.496  34.531   8.493
 1485POPC   C3A23345  33.300  34.484   8.065
 1485POPC   C4A23346  33.089  34.623   7.659
 1485POPC   C1B23347  32.762  34.602   8.701
 1485POPC   C2B23348  32.890  34.397   8.362
 1485POPC   C3B23349  32.765  34.693   8.046
 1485POPC   C4B23350  32.580  34.666   7.647
 1486POPC   NC323351  39.375  25.878   9.536
 1486POPC   PO423352  38.786  25.929   9.582
 1486POPC   GL123353  39.037  26.113   9.206
 1486POPC   GL223354  39.354  25.956   9.034
 1486POPC   C1A23355  39.067  26.279   8.769
 1486POPC   D2A23356  39.092  26.072   8.392
 1486POPC   C3A23357  38.814  26.215   8.094
 1486POPC   C4A23358  38.843  26.578   7.864
 1486POPC   C1B23359  39.581  25.941   8.634
 1486POPC   C2B23360  39.535  25.944   8.208
 1486POPC   C3B23361  39.301  25.722   8.018
 1486POPC   C4B23362  38.981  25.850   7.755
 1487POPC   NC323363  22.835  38.828   9.546
 1487POPC   PO423364  23.070  39.533   9.501
 1487POPC   GL123365  23.139  39.301   9.126
 1487POPC   GL223366  23.138  38.942   9.139
 1487POPC   C1A23367  23.117  39.232   8.690
 1487POPC   D2A23368  23.292  39.438   8.363
 1487POPC   C3A23369  23.094  39.231   8.028
 1487POPC   C4A23370  23.306  39.171   7.711
 1487POPC   C1B23371  22.724  39.030   8.937
 1487POPC   C2B23372  22.653  39.011   8.496
 1487POPC   C3B23373  22.722  38.864   8.085
 1487POPC   C4B23374  22.686  39.109   7.715
 1488POPC   NC323375   6.337  40.746   9.324
 1488POPC   PO423376   5.694  40.665   9.318
 1488POPC   GL123377   5.859  41.013   9.051
 1488POPC   GL223378   6.209  41.166   9.026
 1488POPC   C1A23379   5.878  40.892   8.612
 1488POPC   D2A23380   5.561  40.913   8.275
 1488POPC   C3A23381   5.714  40.848   7.872
 1488POPC   C4A23382   5.858  40.480   7.746
 1488POPC   C1B23383   6.066  41.359   8.679
 1488POPC   C2B23384   5.905  41.294   8.286
 1488POPC   C3B23385   6.106  41.176   7.959
 1488POPC   C4B23386   6.252  40.814   7.787
 1489POPC   NC323387  40.859   1.006   9.142
 1489POPC   PO423388  40.527   1.434   9.471
 1489POPC   GL123389  40.615   1.478   9.055
 1489POPC   GL223390  40.963   1.492   9.035
 1489POPC   C1A23391  40.694   1.334   8.614
 1489POPC   D2A23392  40.540   0.981   8.388
 1489POPC   C3A23393  40.850   0.756   8.141
 1489POPC   C4A23394  40.959   1.000   7.797
 1489POPC   C1B23395  41.205   1.395   8.701
 1489POPC   C2B23396  41.120   1.157   8.361
 1489POPC   C3B23397  41.280   1.359   8.043
 1489POPC   C4B23398  41.109   1.486   7.679
 1490POPC   NC323399  29.534  11.838   9.559
 1490POPC   PO423400  30.041  12.322   9.585
 1490POPC   GL123401  29.748  12.227   9.220
 1490POPC   GL223402  29.670  11.874   9.093
 1490POPC   C1A23403  29.957  12.159   8.801
 1490POPC   D2A23404  29.804  11.993   8.438
 1490POPC   C3A23405  29.958  12.261   8.109
 1490POPC   C4A23406  29.814  12.306   7.707
 1490POPC   C1B23407  29.884  11.618   8.851
 1490POPC   C2B23408  30.093  11.557   8.497
 1490POPC   C3B23409  30.063  11.671   8.102
 1490POPC   C4B23410  29.826  11.825   7.790
 1491POPC   NC323411  16.243   0.544   9.333
 1491POPC   PO423412  16.865   0.410   9.578
 1491POPC   GL123413  16.841   0.305   9.159
 1491POPC   GL223414  16.526   0.156   9.129
 1491POPC   C1A23415  16.675   0.536   8.781
 1491POPC   D2A23416  16.581   0.725   8.374
 1491POPC   C3A23417  16.704   0.533   7.947
 1491POPC   C4A23418  16.937   0.620   7.555
 1491POPC   C1B23419  16.678   0.029   8.751
 1491POPC   C2B23420  16.714   0.203   8.357
 1491POPC   C3B23421  16.708   0.001   7.972
 1491POPC   C4B23422  16.819   0.111   7.586
 1492POPC   NC323423  10.780  15.258   9.277
 1492POPC   PO423424  11.310  15.082   9.753
 1492POPC   GL123425  11.335  14.986   9.315
 1492POPC   GL223426  11.366  15.352   9.238
 1492POPC   C1A23427  11.260  15.031   8.861
 1492POPC   D2A23428  11.154  15.301   8.523
 1492POPC   C3A23429  11.323  15.137   8.155
 1492POPC   C4A23430  11.149  15.065   7.764
 1492POPC   C1B23431  11.501  15.508   8.838
 1492POPC   C2B23432  11.691  15.362   8.465
 1492POPC   C3B23433  11.807  15.279   8.074
 1492POPC   C4B23434  11.609  15.394   7.703
 1493POPC   NC323435  27.513  19.966   9.500
 1493POPC   PO423436  27.942  19.460   9.459
 1493POPC   GL123437  27.643  19.593   9.146
 1493POPC   GL223438  27.302  19.437   9.166
 1493POPC   C1A23439  27.542  19.916   8.826
 1493POPC   D2A23440  27.766  20.074   8.474
 1493POPC   C3A23441  27.557  20.066   8.094
 1493POPC   C4A23442  27.697  19.988   7.724
 1493POPC   C1B23443  27.366  19.436   8.735
 1493POPC   C2B23444  27.728  19.472   8.459
 1493POPC   C3B23445  27.874  19.608   8.058
 1493POPC   C4B23446  27.676  19.492   7.648
 1494POPC   NC323447   0.728   9.489   9.599
 1494POPC   PO423448   0.111   9.858   9.438
 1494POPC   GL123449   0.506   9.764   9.218
 1494POPC   GL223450   0.689  10.048   9.095
 1494POPC   C1A23451   0.760   9.577   8.892
 1494POPC   D2A23452   0.654   9.416   8.486
 1494POPC   C3A23453   0.600   9.615   8.092
 1494POPC   C4A23454   0.308   9.480   7.786
 1494POPC   C1B23455   0.445   9.960   8.742
 1494POPC   C2B23456   0.345  10.045   8.305
 1494POPC   C3B23457   0.325  10.007   7.861
 1494POPC   C4B23458   0.729  10.143   7.721
 1495POPC   NC323459  20.526  12.298   9.582
 1495POPC   PO423460  20.383  11.668   9.503
 1495POPC   GL123461  20.508  11.940   9.105
 1495POPC   GL223462  20.825  12.020   8.960
 1495POPC   C1A23463  20.550  11.915   8.580
 1495POPC   D2A23464  20.326  12.122   8.294
 1495POPC   C3A23465  20.563  12.304   8.022
 1495POPC   C4A23466  20.405  12.228   7.664
 1495POPC   C1B23467  21.086  11.758   8.699
 1495POPC   C2B23468  20.906  11.556   8.331
 1495POPC   C3B23469  20.692  11.807   8.012
 1495POPC   C4B23470  20.712  11.826   7.538
 1496POPC   NC323471  27.964  18.401   9.822
 1496POPC   PO423472  28.488  18.100   9.518
 1496POPC   GL123473  28.494  18.213   9.122
 1496POPC   GL223474  28.582  17.854   9.073
 1496POPC   C1A23475  28.230  18.408   8.765
 1496POPC   D2A23476  28.340  18.488   8.343
 1496POPC   C3A23477  28.485  18.155   8.076
 1496POPC   C4A23478  28.352  18.326   7.709
 1496POPC   C1B23479  28.229  17.910   8.813
 1496POPC   C2B23480  28.138  18.016   8.453
 1496POPC   C3B23481  27.974  18.021   8.116
 1496POPC   C4B23482  27.941  18.048   7.754
 1497POPC   NC323483   2.419   3.366   9.444
 1497POPC   PO423484   1.947   3.837   9.498
 1497POPC   GL123485   1.956   3.456   9.218
 1497POPC   GL223486   1.679   3.266   9.311
 1497POPC   C1A23487   2.072   3.406   8.767
 1497POPC   D2A23488   1.994   3.726   8.429
 1497POPC   C3A23489   2.119   3.762   7.980
 1497POPC   C4A23490   2.385   3.563   7.667
 1497POPC   C1B23491   1.545   3.305   8.885
 1497POPC   C2B23492   1.669   3.254   8.465
 1497POPC   C3B23493   1.680   3.473   8.101
 1497POPC   C4B23494   1.889   3.386   7.697
 1498POPC   NC323495  22.659  10.747   9.468
 1498POPC   PO423496  22.997  11.346   9.502
 1498POPC   GL123497  22.820  11.353   9.129
 1498POPC   GL223498  23.148  11.487   9.025
 1498POPC   C1A23499  22.866  11.154   8.751
 1498POPC   D2A23500  23.120  11.220   8.418
 1498POPC   C3A23501  22.870  11.428   8.125
 1498POPC   C4A23502  22.844  11.336   7.705
 1498POPC   C1B23503  23.386  11.563   8.658
 1498POPC   C2B23504  23.220  11.785   8.281
 1498POPC   C3B23505  23.145  11.750   7.825
 1498POPC   C4B23506  22.908  11.719   7.377
 1499POPC   NC323507  44.690  21.664   9.592
 1499POPC   PO423508  44.784  21.018   9.857
 1499POPC   GL123509  44.644  21.188   9.459
 1499POPC   GL223510  44.754  20.983   9.258
 1499POPC   C1A23511  44.563  21.385   8.992
 1499POPC   D2A23512  44.297  21.412   8.598
 1499POPC   C3A23513  44.418  21.453   8.148
 1499POPC   C4A23514  44.578  21.482   7.719
 1499POPC   C1B23515  44.969  21.047   8.897
 1499POPC   C2B23516   0.027  20.958   8.484
 1499POPC   C3B23517  44.913  20.862   8.110
 1499POPC   C4B23518  44.818  21.038   7.734
 1500POPC   NC323519  16.159  35.997   9.480
 1500POPC   PO423520  16.491  36.630   9.574
 1500POPC   GL123521  16.167  36.482   9.252
 1500POPC   GL223522  16.027  36.182   9.043
 1500POPC   C1A23523  16.193  36.568   8.796
 1500POPC   D2A23524  16.013  36.303   8.483
 1500POPC   C3A23525  15.995  36.413   8.046
 1500POPC   C4A23526  15.624  36.403   7.760
 1500POPC   C1B23527  15.867  35.844   8.801
 1500POPC   C2B23528  16.007  35.803   8.389
 1500POPC   C3B23529  15.778  35.946   8.019
 1500POPC   C4B23530  15.758  35.908   7.568
 1501POPC   NC323531   9.048  27.174   9.602
 1501POPC   PO423532   8.798  26.572   9.315
 1501POPC   GL123533   8.814  26.950   9.190
 1501POPC   GL223534   9.136  26.963   9.135
 1501POPC   C1A23535   8.702  26.966   8.778
 1501POPC   D2A23536   8.574  26.712   8.449
 1501POPC   C3A23537   8.689  26.940   8.091
 1501POPC   C4A23538   8.806  26.757   7.738
 1501POPC   C1B23539   9.234  26.818   8.767
 1501POPC   C2B23540   9.076  26.923   8.420
 1501POPC   C3B23541   9.210  26.950   8.030
 1501POPC   C4B23542   9.310  26.676   7.714
 1502POPC   NC323543   2.229  21.971   9.400
 1502POPC   PO423544   2.721  22.312   9.608
 1502POPC   GL123545   2.813  22.344   9.153
 1502POPC   GL223546   2.497  22.280   9.020
 1502POPC   C1A23547   2.916  22.205   8.721
 1502POPC   D2A23548   2.677  22.095   8.349
 1502POPC   C3A23549   2.930  21.946   8.000
 1502POPC   C4A23550   2.803  21.909   7.583
 1502POPC   C1B23551   2.418  22.487   8.629
 1502POPC   C2B23552   2.505  22.566   8.207
 1502POPC   C3B23553   2.520  22.264   7.865
 1502POPC   C4B23554   2.307  22.303   7.465
 1503POPC   NC323555  11.001  40.988   9.486
 1503POPC   PO423556  11.387  40.439   9.546
 1503POPC   GL123557  11.290  40.694   9.186
 1503POPC   GL223558  11.472  41.017   9.136
 1503POPC   C1A23559  11.173  40.804   8.761
 1503POPC   D2A23560  11.292  40.540   8.424
 1503POPC   C3A23561  11.248  40.626   8.033
 1503POPC   C4A23562  11.283  40.731   7.637
 1503POPC   C1B23563  11.504  41.196   8.716
 1503POPC   C2B23564  11.345  41.086   8.311
 1503POPC   C3B23565  11.626  40.938   7.984
 1503POPC   C4B23566  11.811  40.892   7.617
 1504POPC   NC323567   2.289  12.832   9.820
 1504POPC   PO423568   1.755  13.082   9.390
 1504POPC   GL123569   1.823  13.078   9.027
 1504POPC   GL223570   1.938  12.747   9.055
 1504POPC   C1A23571   1.953  13.150   8.636
 1504POPC   D2A23572   2.040  12.868   8.318
 1504POPC   C3A23573   2.327  12.947   8.018
 1504POPC   C4A23574   2.168  12.917   7.616
 1504POPC   C1B23575   1.976  12.497   8.682
 1504POPC   C2B23576   1.726  12.471   8.296
 1504POPC   C3B23577   1.954  12.511   7.881
 1504POPC   C4B23578   1.923  12.519   7.418
 1505POPC   NC323579  31.963  43.230   9.478
 1505POPC   PO423580  32.518  42.941   9.394
 1505POPC   GL123581  32.249  43.037   9.073
 1505POPC   GL223582  32.232  43.398   9.076
 1505POPC   C1A23583  32.379  43.127   8.655
 1505POPC   D2A23584  32.580  43.301   8.299
 1505POPC   C3A23585  32.389  43.024   8.038
 1505POPC   C4A23586  32.075  42.799   7.831
 1505POPC   C1B23587  32.051  43.554   8.726
 1505POPC   C2B23588  32.107  43.518   8.299
 1505POPC   C3B23589  32.096  43.417   7.876
 1505POPC   C4B23590  32.156  43.526   7.443
 1506POPC   NC323591  24.026  42.875   9.395
 1506POPC   PO423592  23.419  43.112   9.561
 1506POPC   GL123593  23.621  43.131   9.187
 1506POPC   GL223594  23.376  43.352   9.069
 1506POPC   C1A23595  23.847  43.170   8.796
 1506POPC   D2A23596  23.755  43.075   8.410
 1506POPC   C3A23597  23.788  43.252   8.005
 1506POPC   C4A23598  23.791  42.828   7.863
 1506POPC   C1B23599  23.370  42.998   8.758
 1506POPC   C2B23600  23.270  43.077   8.296
 1506POPC   C3B23601  23.304  43.232   7.883
 1506POPC   C4B23602  23.524  43.098   7.517
 1507POPC   NC323603  44.135  40.391   9.462
 1507POPC   PO423604  43.670  39.911   9.700
 1507POPC   GL123605  43.744  40.093   9.284
 1507POPC   GL223606  43.616  40.416   9.278
 1507POPC   C1A23607  43.965  40.088   8.877
 1507POPC   D2A23608  43.835  39.925   8.492
 1507POPC   C3A23609  44.091  39.862   8.104
 1507POPC   C4A23610  43.900  39.730   7.717
 1507POPC   C1B23611  43.560  40.422   8.866
 1507POPC   C2B23612  43.861  40.476   8.546
 1507POPC   C3B23613  43.838  40.301   8.159
 1507POPC   C4B23614  43.978  40.237   7.774
 1508POPC   NC323615  15.854  44.633   9.470
 1508POPC   PO423616  16.488  44.531   9.644
 1508POPC   GL123617  16.238  44.439   9.206
 1508POPC   GL223618  16.189  44.775   9.132
 1508POPC   C1A23619  15.927  44.518   8.792
 1508POPC   D2A23620  15.994  44.466   8.336
 1508POPC   C3A23621  15.669  44.452   8.007
 1508POPC   C4A23622  15.648  44.283   7.610
 1508POPC   C1B23623  16.146   0.003   8.769
 1508POPC   C2B23624  15.971   0.065   8.373
 1508POPC   C3B23625  15.976  44.864   7.980
 1508POPC   C4B23626  15.758  44.789   7.610
 1509POPC   NC323627   2.054  43.566   9.633
 1509POPC   PO423628   1.883  44.198   9.546
 1509POPC   GL123629   2.084  44.059   9.192
 1509POPC   GL223630   2.051  43.700   9.149
 1509POPC   C1A23631   1.896  44.026   8.809
 1509POPC   D2A23632   1.957  43.842   8.456
 1509POPC   C3A23633   2.007  44.099   8.137
 1509POPC   C4A23634   1.904  43.995   7.728
 1509POPC   C1B23635   2.246  43.561   8.791
 1509POPC   C2B23636   2.158  43.374   8.396
 1509POPC   C3B23637   2.017  43.543   8.011
 1509POPC   C4B23638   2.148  43.574   7.600
 1510POPC   NC323639  15.340  10.917   9.548
 1510POPC   PO423640  14.962  10.358   9.575
 1510POPC   GL123641  14.999  10.547   9.171
 1510POPC   GL223642  15.300  10.760   9.078
 1510POPC   C1A23643  15.094  10.425   8.758
 1510POPC   D2A23644  15.372  10.587   8.479
 1510POPC   C3A23645  15.254  10.352   8.170
 1510POPC   C4A23646  15.226  10.334   7.784
 1510POPC   C1B23647  15.312  11.042   8.730
 1510POPC   C2B23648  15.051  10.982   8.367
 1510POPC   C3B23649  15.024  10.802   7.969
 1510POPC   C4B23650  15.393  10.815   7.763
 1511POPC   NC323651  32.616  17.158   9.526
 1511POPC   PO423652  33.150  17.618   9.591
 1511POPC   GL123653  32.875  17.530   9.248
 1511POPC   GL223654  32.977  17.175   9.171
 1511POPC   C1A23655  32.883  17.527   8.802
 1511POPC   D2A23656  33.238  17.677   8.558
 1511POPC   C3A23657  33.182  17.648   8.123
 1511POPC   C4A23658  32.947  17.380   7.866
 1511POPC   C1B23659  33.336  17.319   8.926
 1511POPC   C2B23660  33.567  17.252   8.520
 1511POPC   C3B23661  33.476  17.225   8.071
 1511POPC   C4B23662  33.327  17.114   7.641
 1512POPC   NC323663  10.212  28.283   9.471
 1512POPC   PO423664  10.883  28.455   9.413
 1512POPC   GL123665  10.635  28.493   9.062
 1512POPC   GL223666  10.403  28.181   8.992
 1512POPC   C1A23667  10.736  28.399   8.643
 1512POPC   D2A23668  10.619  28.106   8.332
 1512POPC   C3A23669  10.739  28.392   8.016
 1512POPC   C4A23670  10.626  28.546   7.648
 1512POPC   C1B23671  10.222  28.494   8.717
 1512POPC   C2B23672  10.255  28.473   8.268
 1512POPC   C3B23673  10.243  28.282   7.884
 1512POPC   C4B23674  10.197  28.336   7.446
 1513POPC   NC323675  30.829  20.922   9.364
 1513POPC   PO423676  30.712  21.639   9.488
 1513POPC   GL123677  30.687  21.565   9.087
 1513POPC   GL223678  31.037  21.525   9.062
 1513POPC   C1A23679  30.721  21.384   8.673
 1513POPC   D2A23680  30.706  21.014   8.421
 1513POPC   C3A23681  30.734  21.107   7.993
 1513POPC   C4A23682  30.552  21.462   7.764
 1513POPC   C1B23683  31.252  21.525   8.695
 1513POPC   C2B23684  31.293  21.414   8.268
 1513POPC   C3B23685  30.953  21.590   8.044
 1513POPC   C4B23686  30.935  21.791   7.626
 1514POPC   NC323687  40.939  40.119   9.764
 1514POPC   PO423688  40.566  39.753   9.488
 1514POPC   GL123689  40.772  39.952   9.125
 1514POPC   GL223690  41.062  39.902   9.271
 1514POPC   C1A23691  40.735  40.267   8.775
 1514POPC   D2A23692  40.608  40.440   8.391
 1514POPC   C3A23693  40.551  40.186   8.109
 1514POPC   C4A23694  40.899  40.246   7.871
 1514POPC   C1B23695  41.128  39.923   8.779
 1514POPC   C2B23696  40.979  40.000   8.325
 1514POPC   C3B23697  40.791  39.765   7.910
 1514POPC   C4B23698  40.982  39.522   7.573
 1515POPC   NC323699  32.468  29.636   9.376
 1515POPC   PO423700  32.331  30.310   9.486
 1515POPC   GL123701  32.315  30.067   9.129
 1515POPC   GL223702  32.016  29.839   9.150
 1515POPC   C1A23703  32.365  29.922   8.718
 1515POPC   D2A23704  32.195  30.137   8.377
 1515POPC   C3A23705  32.352  30.006   7.988
 1515POPC   C4A23706  32.651  29.788   7.746
 1515POPC   C1B23707  31.843  30.021   8.754
 1515POPC   C2B23708  31.749  29.887   8.336
 1515POPC   C3B23709  31.838  30.040   7.942
 1515POPC   C4B23710  31.775  29.932   7.524
 1516POPC   NC323711   1.853  18.878   9.572
 1516POPC   PO423712   2.429  19.040   9.412
 1516POPC   GL123713   2.081  19.150   9.126
 1516POPC   GL223714   1.778  18.956   9.089
 1516POPC   C1A23715   2.006  19.114   8.682
 1516POPC   D2A23716   2.283  19.067   8.381
 1516POPC   C3A23717   2.060  19.075   8.037
 1516POPC   C4A23718   2.140  18.854   7.686
 1516POPC   C1B23719   1.696  18.672   8.749
 1516POPC   C2B23720   1.752  18.772   8.303
 1516POPC   C3B23721   1.654  18.845   7.827
 1516POPC   C4B23722   1.765  18.756   7.341
 1517POPC   NC323723  17.647  35.975   9.710
 1517POPC   PO423724  17.332  36.609   9.582
 1517POPC   GL123725  17.388  36.310   9.234
 1517POPC   GL223726  17.719  36.099   9.191
 1517POPC   C1A23727  17.438  36.342   8.796
 1517POPC   D2A23728  17.231  36.306   8.426
 1517POPC   C3A23729  17.448  36.294   8.051
 1517POPC   C4A23730  17.208  36.240   7.695
 1517POPC   C1B23731  17.747  35.937   8.748
 1517POPC   C2B23732  17.532  35.878   8.338
 1517POPC   C3B23733  17.650  35.851   7.877
 1517POPC   C4B23734  17.728  36.155   7.477
 1518POPC   NC323735  38.763   9.261   9.869
 1518POPC   PO423736  38.220   9.531   9.456
 1518POPC   GL123737  38.468   9.630   9.062
 1518POPC   GL223738  38.542   9.977   8.966
 1518POPC   C1A23739  38.510   9.393   8.672
 1518POPC   D2A23740  38.645   9.651   8.370
 1518POPC   C3A23741  38.533   9.778   7.973
 1518POPC   C4A23742  38.851  10.070   7.874
 1518POPC   C1B23743  38.196   9.799   8.675
 1518POPC   C2B23744  38.109   9.536   8.313
 1518POPC   C3B23745  38.064   9.630   7.858
 1518POPC   C4B23746  38.138  10.043   7.690
 1519POPC   NC323747  24.351  24.278   9.556
 1519POPC   PO423748  24.717  24.807   9.520
 1519POPC   GL123749  24.804  24.479   9.219
 1519POPC   GL223750  24.463  24.476   9.102
 1519POPC   C1A23751  24.793  24.205   8.844
 1519POPC   D2A23752  24.510  24.186   8.487
 1519POPC   C3A23753  24.648  24.260   8.076
 1519POPC   C4A23754  24.678  24.273   7.649
 1519POPC   C1B23755  24.596  24.649   8.711
 1519POPC   C2B23756  24.709  24.773   8.297
 1519POPC   C3B23757  24.605  24.743   7.879
 1519POPC   C4B23758  24.248  24.515   7.749
 1520POPC   NC323759  38.404   2.232   9.333
 1520POPC   PO423760  38.513   2.930   9.550
 1520POPC   GL123761  38.640   2.867   9.128
 1520POPC   GL223762  38.541   2.571   8.983
 1520POPC   C1A23763  38.654   3.005   8.708
 1520POPC   D2A23764  38.402   2.991   8.364
 1520POPC   C3A23765  38.601   2.779   8.079
 1520POPC   C4A23766  38.467   2.768   7.679
 1520POPC   C1B23767  38.424   2.511   8.564
 1520POPC   C2B23768  38.336   2.177   8.251
 1520POPC   C3B23769  38.521   2.304   7.871
 1520POPC   C4B23770  38.800   2.350   7.510
 1521POPC   NC323771  12.358   8.870   9.530
 1521POPC   PO423772  11.820   9.237   9.461
 1521POPC   GL123773  12.120   9.128   9.141
 1521POPC   GL223774  12.062   8.784   9.127
 1521POPC   C1A23775  12.016   9.070   8.695
 1521POPC   D2A23776  11.655   9.064   8.434
 1521POPC   C3A23777  11.748   9.277   8.076
 1521POPC   C4A23778  12.217   9.342   7.962
 1521POPC   C1B23779  11.889   8.567   8.795
 1521POPC   C2B23780  11.955   8.639   8.369
 1521POPC   C3B23781  12.021   8.857   8.024
 1521POPC   C4B23782  12.340   8.888   7.774
 1522POPC   NC323783  35.530  12.512   9.713
 1522POPC   PO423784  35.311  13.042   9.635
 1522POPC   GL123785  35.312  13.242   9.233
 1522POPC   GL223786  35.001  13.166   9.150
 1522POPC   C1A23787  35.494  13.238   8.831
 1522POPC   D2A23788  35.547  12.903   8.505
 1522POPC   C3A23789  35.434  12.952   8.056
 1522POPC   C4A23790  35.187  12.987   7.667
 1522POPC   C1B23791  35.059  12.973   8.716
 1522POPC   C2B23792  34.984  12.885   8.262
 1522POPC   C3B23793  35.110  12.563   7.933
 1522POPC   C4B23794  35.245  12.481   7.482
 1523POPC   NC323795  23.666   5.463   9.491
 1523POPC   PO423796  24.193   5.623   9.147
 1523POPC   GL123797  23.828   5.576   8.918
 1523POPC   GL223798  23.655   5.280   9.014
 1523POPC   C1A23799  23.700   5.474   8.505
 1523POPC   D2A23800  23.698   5.097   8.258
 1523POPC   C3A23801  23.803   5.128   7.836
 1523POPC   C4A23802  23.920   4.899   7.479
 1523POPC   C1B23803  23.349   5.147   8.711
 1523POPC   C2B23804  23.234   5.261   8.320
 1523POPC   C3B23805  23.256   5.043   7.934
 1523POPC   C4B23806  23.410   5.176   7.508
 1524POPC   NC323807  37.297  29.043   9.468
 1524POPC   PO423808  37.907  29.271   9.768
 1524POPC   GL123809  37.747  29.251   9.288
 1524POPC   GL223810  37.675  28.900   9.170
 1524POPC   C1A23811  37.780  29.239   8.789
 1524POPC   D2A23812  38.064  29.251   8.385
 1524POPC   C3A23813  37.823  29.166   7.994
 1524POPC   C4A23814  37.377  29.284   7.869
 1524POPC   C1B23815  37.409  28.860   8.818
 1524POPC   C2B23816  37.343  29.050   8.419
 1524POPC   C3B23817  37.436  28.812   8.060
 1524POPC   C4B23818  37.385  28.737   7.657
 1525POPC   NC323819  14.522  12.338   9.308
 1525POPC   PO423820  14.347  12.986   9.412
 1525POPC   GL123821  14.408  12.800   9.071
 1525POPC   GL223822  14.121  12.568   9.069
 1525POPC   C1A23823  14.640  12.964   8.714
 1525POPC   D2A23824  14.768  12.833   8.302
 1525POPC   C3A23825  14.470  13.015   7.999
 1525POPC   C4A23826  14.506  13.169   7.567
 1525POPC   C1B23827  14.272  12.598   8.638
 1525POPC   C2B23828  14.278  12.515   8.210
 1525POPC   C3B23829  14.246  12.593   7.791
 1525POPC   C4B23830  13.974  12.690   7.483
 1526POPC   NC323831  32.747  22.669   9.377
 1526POPC   PO423832  32.829  23.302   9.295
 1526POPC   GL123833  33.185  23.091   9.118
 1526POPC   GL223834  33.335  22.790   9.260
 1526POPC   C1A23835  33.092  22.894   8.720
 1526POPC   D2A23836  32.920  22.682   8.370
 1526POPC   C3A23837  33.085  22.889   7.998
 1526POPC   C4A23838  32.823  23.165   7.770
 1526POPC   C1B23839  33.536  22.718   8.850
 1526POPC   C2B23840  33.418  22.521   8.429
 1526POPC   C3B23841  33.199  22.389   8.057
 1526POPC   C4B23842  33.225  22.536   7.634
 1527POPC   NC323843  14.733  40.080   9.614
 1527POPC   PO423844  14.110  40.376   9.460
 1527POPC   GL123845  14.404  40.098   9.200
 1527POPC   GL223846  14.158  40.008   8.946
 1527POPC   C1A23847  14.647  39.965   8.812
 1527POPC   D2A23848  14.481  39.961   8.420
 1527POPC   C3A23849  14.683  39.830   8.050
 1527POPC   C4A23850  14.521  39.813   7.661
 1527POPC   C1B23851  14.094  40.304   8.620
 1527POPC   C2B23852  14.100  40.312   8.165
 1527POPC   C3B23853  14.128  40.174   7.712
 1527POPC   C4B23854  13.970  40.237   7.271
 1528POPC   NC323855  34.370  28.658   9.505
 1528POPC   PO423856  34.433  28.005   9.730
 1528POPC   GL123857  34.512  28.201   9.298
 1528POPC   GL223858  34.756  28.523   9.181
 1528POPC   C1A23859  34.387  28.223   8.860
 1528POPC   D2A23860  34.288  28.454   8.481
 1528POPC   C3A23861  34.331  28.272   8.099
 1528POPC   C4A23862  34.621  28.141   7.814
 1528POPC   C1B23863  34.817  28.752   8.760
 1528POPC   C2B23864  34.679  28.725   8.316
 1528POPC   C3B23865  34.824  28.592   7.907
 1528POPC   C4B23866  34.818  28.489   7.465
 1529POPC   NC323867  43.855  35.146   9.631
 1529POPC   PO423868  43.725  35.750   9.634
 1529POPC   GL123869  43.832  35.507   9.224
 1529POPC   GL223870  43.870  35.145   9.106
 1529POPC   C1A23871  43.890  35.507   8.745
 1529POPC   D2A23872  43.696  35.423   8.326
 1529POPC   C3A23873  43.878  35.366   7.949
 1529POPC   C4A23874  44.184  35.383   7.679
 1529POPC   C1B23875  43.813  35.013   8.637
 1529POPC   C2B23876  44.015  34.950   8.202
 1529POPC   C3B23877  44.060  34.895   7.732
 1529POPC   C4B23878  43.860  35.000   7.336
 1530POPC   NC323879  44.763  38.965   9.635
 1530POPC   PO423880  44.871  38.351   9.789
 1530POPC   GL123881  44.783  38.542   9.357
 1530POPC   GL223882  44.479  38.776   9.228
 1530POPC   C1A23883  44.884  38.458   8.945
 1530POPC   D2A23884  44.805  38.398   8.518
 1530POPC   C3A23885   0.063  38.407   8.159
 1530POPC   C4A23886  44.846  38.262   7.795
 1530POPC   C1B23887  44.604  38.853   8.755
 1530POPC   C2B23888  44.562  38.781   8.270
 1530POPC   C3B23889  44.495  38.739   7.814
 1530POPC   C4B23890  44.239  38.825   7.410
 1531POPC   NC323891   7.916  24.440   9.488
 1531POPC   PO423892   8.577  24.386   9.456
 1531POPC   GL123893   8.260  24.385   9.132
 1531POPC   GL223894   8.086  24.058   9.159
 1531POPC   C1A23895   8.012  24.573   8.771
 1531POPC   D2A23896   8.185  24.742   8.356
 1531POPC   C3A23897   8.157  24.506   7.967
 1531POPC   C4A23898   7.934  24.675   7.653
 1531POPC   C1B23899   8.216  24.110   8.724
 1531POPC   C2B23900   8.011  24.239   8.372
 1531POPC   C3B23901   7.805  24.081   8.030
 1531POPC   C4B23902   7.945  24.176   7.628
 1532POPC   NC323903  14.599  37.474   9.554
 1532POPC   PO423904  14.564  38.059   9.254
 1532POPC   GL123905  14.273  37.817   9.060
 1532POPC   GL223906  14.265  37.495   9.173
 1532POPC   C1A23907  14.418  37.685   8.694
 1532POPC   D2A23908  14.704  37.571   8.383
 1532POPC   C3A23909  14.654  37.882   8.081
 1532POPC   C4A23910  14.612  37.995   7.681
 1532POPC   C1B23911  14.102  37.295   8.826
 1532POPC   C2B23912  14.144  37.401   8.395
 1532POPC   C3B23913  14.369  37.377   8.067
 1532POPC   C4B23914  14.241  37.676   7.844
 1533POPC   NC323915  31.686  39.437   9.476
 1533POPC   PO423916  31.209  38.999   9.662
 1533POPC   GL123917  31.261  39.083   9.189
 1533POPC   GL223918  31.336  39.459   9.060
 1533POPC   C1A23919  31.576  39.066   8.825
 1533POPC   D2A23920  31.726  39.120   8.383
 1533POPC   C3A23921  31.478  39.080   8.017
 1533POPC   C4A23922  31.332  39.234   7.634
 1533POPC   C1B23923  31.676  39.591   8.748
 1533POPC   C2B23924  31.832  39.623   8.306
 1533POPC   C3B23925  31.714  39.555   7.844
 1533POPC   C4B23926  31.734  39.505   7.365
 1534POPC   NC323927  43.282   7.631   9.436
 1534POPC   PO423928  42.778   7.136   9.351
 1534POPC   GL123929  42.924   7.513   9.085
 1534POPC   GL223930  43.294   7.402   8.986
 1534POPC   C1A23931  43.016   7.716   8.680
 1534POPC   D2A23932  43.213   7.467   8.383
 1534POPC   C3A23933  43.035   7.387   7.963
 1534POPC   C4A23934  42.827   6.974   7.825
 1534POPC   C1B23935  43.492   7.790   8.799
 1534POPC   C2B23936  43.446   7.941   8.361
 1534POPC   C3B23937  43.501   7.640   8.014
 1534POPC   C4B23938  43.577   7.469   7.632
 1535POPC   NC323939  30.685  34.979   9.509
 1535POPC   PO423940  30.817  34.354   9.388
 1535POPC   GL123941  30.674  34.636   9.119
 1535POPC   GL223942  30.998  34.782   9.149
 1535POPC   C1A23943  30.579  34.613   8.705
 1535POPC   D2A23944  30.746  34.413   8.365
 1535POPC   C3A23945  30.503  34.427   8.026
 1535POPC   C4A23946  30.377  34.768   7.809
 1535POPC   C1B23947  31.084  34.680   8.739
 1535POPC   C2B23948  30.996  34.849   8.360
 1535POPC   C3B23949  30.908  34.724   7.940
 1535POPC   C4B23950  31.048  34.796   7.512
 1536POPC   NC323951  27.480  35.668   9.642
 1536POPC   PO423952  27.953  36.166   9.626
 1536POPC   GL123953  27.556  36.154   9.330
 1536POPC   GL223954  27.433  35.843   9.147
 1536POPC   C1A23955  27.411  36.304   8.907
 1536POPC   D2A23956  27.676  36.306   8.530
 1536POPC   C3A23957  27.529  36.128   8.150
 1536POPC   C4A23958  27.396  36.282   7.768
 1536POPC   C1B23959  27.629  35.854   8.772
 1536POPC   C2B23960  27.798  35.764   8.390
 1536POPC   C3B23961  27.919  35.801   7.968
 1536POPC   C4B23962  27.900  36.185   7.768
 1537POPC   NC323963  44.124  29.190   9.640
 1537POPC   PO423964  43.485  29.358   9.605
 1537POPC   GL123965  43.822  29.271   9.234
 1537POPC   GL223966  44.206  29.424   9.209
 1537POPC   C1A23967  43.747  28.968   8.881
 1537POPC   D2A23968  43.900  28.912   8.452
 1537POPC   C3A23969  43.722  29.075   8.059
 1537POPC   C4A23970  43.872  28.960   7.639
 1537POPC   C1B23971  44.152  29.262   8.784
 1537POPC   C2B23972  44.021  29.404   8.374
 1537POPC   C3B23973  44.187  29.250   7.981
 1537POPC   C4B23974  44.348  29.366   7.604
 1538POPC   NC323975  42.969  41.024   9.470
 1538POPC   PO423976  43.659  40.898   9.536
 1538POPC   GL123977  43.345  40.859   9.172
 1538POPC   GL223978  43.116  40.582   9.168
 1538POPC   C1A23979  43.077  40.995   8.822
 1538POPC   D2A23980  43.128  41.210   8.440
 1538POPC   C3A23981  43.060  40.926   8.128
 1538POPC   C4A23982  42.989  40.846   7.753
 1538POPC   C1B23983  42.814  40.546   8.813
 1538POPC   C2B23984  43.037  40.552   8.456
 1538POPC   C3B23985  43.078  40.385   8.033
 1538POPC   C4B23986  42.966  40.372   7.584
 1539POPC   NC323987   4.700  40.364   9.866
 1539POPC   PO423988   5.159  39.933   9.454
 1539POPC   GL123989   4.961  40.183   9.137
 1539POPC   GL223990   4.656  40.425   9.137
 1539POPC   C1A23991   5.097  40.097   8.725
 1539POPC   D2A23992   5.179  40.254   8.333
 1539POPC   C3A23993   5.216  39.916   8.067
 1539POPC   C4A23994   5.305  40.127   7.698
 1539POPC   C1B23995   4.578  40.083   8.792
 1539POPC   C2B23996   4.728  40.005   8.340
 1539POPC   C3B23997   4.790  40.120   7.870
 1539POPC   C4B23998   4.886  39.991   7.444
 1540POPC   NC323999  35.877  26.380   9.535
 1540POPC   PO424000  36.336  25.926   9.432
 1540POPC   GL124001  36.083  26.091   9.077
 1540POPC   GL224002  35.740  26.291   9.064
 1540POPC   C1A24003  36.113  25.881   8.680
 1540POPC   D2A24004  36.265  25.955   8.278
 1540POPC   C3A24005  35.965  25.922   7.952
 1540POPC   C4A24006  36.107  26.065   7.564
 1540POPC   C1B24007  35.738  26.230   8.627
 1540POPC   C2B24008  35.680  26.280   8.203
 1540POPC   C3B24009  35.699  26.344   7.797
 1540POPC   C4B24010  35.680  26.253   7.375
 1541POPC   NC324011  20.194  37.784   9.502
 1541POPC   PO424012  19.616  37.921   9.547
 1541POPC   GL124013  19.538  37.837   9.107
 1541POPC   GL224014  19.835  37.631   9.065
 1541POPC   C1A24015  19.488  37.699   8.664
 1541POPC   D2A24016  19.742  37.820   8.304
 1541POPC   C3A24017  19.798  37.575   7.947
 1541POPC   C4A24018  19.730  37.464   7.552
 1541POPC   C1B24019  19.991  37.518   8.681
 1541POPC   C2B24020  20.111  37.420   8.311
 1541POPC   C3B24021  20.198  37.247   7.934
 1541POPC   C4B24022  20.216  37.494   7.603
 1542POPC   NC324023  38.110   8.516   9.737
 1542POPC   PO424024  38.251   7.894   9.545
 1542POPC   GL124025  38.557   8.011   9.223
 1542POPC   GL224026  38.444   8.346   9.141
 1542POPC   C1A24027  38.623   8.090   8.767
 1542POPC   D2A24028  38.792   8.249   8.410
 1542POPC   C3A24029  38.606   8.026   8.091
 1542POPC   C4A24030  38.516   7.916   7.682
 1542POPC   C1B24031  38.208   8.356   8.711
 1542POPC   C2B24032  38.307   8.416   8.298
 1542POPC   C3B24033  38.454   8.464   7.889
 1542POPC   C4B24034  38.222   8.730   7.675
 1543POPC   NC324035  41.732  43.751   9.582
 1543POPC   PO424036  41.087  43.899   9.583
 1543POPC   GL124037  41.314  43.791   9.215
 1543POPC   GL224038  41.458  43.448   9.245
 1543POPC   C1A24039  41.347  43.989   8.812
 1543POPC   D2A24040  41.516  43.901   8.410
 1543POPC   C3A24041  41.431  44.043   7.997
 1543POPC   C4A24042  41.471  43.985   7.541
 1543POPC   C1B24043  41.679  43.384   8.858
 1543POPC   C2B24044  41.845  43.515   8.456
 1543POPC   C3B24045  41.800  43.673   8.022
 1543POPC   C4B24046  41.874  43.693   7.552
 1544POPC   NC324047  40.045  44.476   9.495
 1544POPC   PO424048  40.022   0.123   9.626
 1544POPC   GL124049  39.853  44.882   9.260
 1544POPC   GL224050  40.163  44.919   9.159
 1544POPC   C1A24051  39.938  44.624   8.819
 1544POPC   D2A24052  39.985  44.307   8.462
 1544POPC   C3A24053  40.118  44.472   8.068
 1544POPC   C4A24054  40.124  44.556   7.608
 1544POPC   C1B24055  40.199   0.073   8.720
 1544POPC   C2B24056  39.986  44.922   8.353
 1544POPC   C3B24057  40.079  44.962   7.917
 1544POPC   C4B24058  40.167   0.076   7.484
 1545POPC   NC324059  27.469  25.253   9.481
 1545POPC   PO424060  27.973  25.658   9.236
 1545POPC   GL124061  27.722  25.225   9.054
 1545POPC   GL224062  27.322  25.137   9.025
 1545POPC   C1A24063  27.619  24.938   8.671
 1545POPC   D2A24064  27.806  25.139   8.358
 1545POPC   C3A24065  27.715  25.123   7.980
 1545POPC   C4A24066  27.585  25.504   7.868
 1545POPC   C1B24067  27.414  25.415   8.684
 1545POPC   C2B24068  27.299  25.363   8.278
 1545POPC   C3B24069  27.100  25.548   7.937
 1545POPC   C4B24070  27.155  25.401   7.526
 1546POPC   NC324071  30.382  37.125   9.326
 1546POPC   PO424072  29.692  37.079   9.537
 1546POPC   GL124073  29.626  36.909   9.133
 1546POPC   GL224074  29.976  36.921   9.093
 1546POPC   C1A24075  29.655  36.932   8.690
 1546POPC   D2A24076  29.816  37.221   8.351
 1546POPC   C3A24077  29.942  36.976   8.012
 1546POPC   C4A24078  29.801  36.608   7.751
 1546POPC   C1B24079  30.151  37.053   8.717
 1546POPC   C2B24080  30.351  36.850   8.397
 1546POPC   C3B24081  30.466  36.943   8.005
 1546POPC   C4B24082  30.275  36.792   7.656
 1547POPC   NC324083  25.787   9.311   9.408
 1547POPC   PO424084  26.319   9.779   9.480
 1547POPC   GL124085  26.105   9.639   9.122
 1547POPC   GL224086  26.339   9.402   9.025
 1547POPC   C1A24087  25.979   9.831   8.715
 1547POPC   D2A24088  25.943   9.680   8.293
 1547POPC   C3A24089  25.795   9.890   7.896
 1547POPC   C4A24090  25.667   9.995   7.445
 1547POPC   C1B24091  26.478   9.778   8.777
 1547POPC   C2B24092  26.415   9.892   8.331
 1547POPC   C3B24093  26.264   9.708   7.903
 1547POPC   C4B24094  26.070   9.705   7.454
 1548POPC   NC324095  16.394  38.560   9.435
 1548POPC   PO424096  16.972  38.826   9.568
 1548POPC   GL124097  17.018  38.623   9.176
 1548POPC   GL224098  16.716  38.465   9.059
 1548POPC   C1A24099  16.965  38.831   8.771
 1548POPC   D2A24100  17.046  38.734   8.352
 1548POPC   C3A24101  16.753  38.500   8.092
 1548POPC   C4A24102  16.534  38.482   7.692
 1548POPC   C1B24103  17.024  38.174   8.915
 1548POPC   C2B24104  17.137  38.143   8.493
 1548POPC   C3B24105  16.976  37.977   8.136
 1548POPC   C4B24106  16.922  38.159   7.749
 1549POPC   NC324107  13.861  21.810   9.635
 1549POPC   PO424108  13.354  22.262   9.729
 1549POPC   GL124109  13.514  22.345   9.273
 1549POPC   GL224110  13.717  22.078   9.164
 1549POPC   C1A24111  13.443  22.555   8.833
 1549POPC   D2A24112  13.609  22.482   8.401
 1549POPC   C3A24113  13.408  22.447   8.014
 1549POPC   C4A24114  13.520  22.292   7.644
 1549POPC   C1B24115  13.879  22.268   8.792
 1549POPC   C2B24116  14.153  22.063   8.494
 1549POPC   C3B24117  14.029  22.007   8.082
 1549POPC   C4B24118  13.901  21.952   7.676
 1550POPC   NC324119  30.788  18.835   9.398
 1550POPC   PO424120  30.451  19.512   9.466
 1550POPC   GL124121  30.562  19.244   9.142
 1550POPC   GL224122  30.244  19.111   9.054
 1550POPC   C1A24123  30.843  19.178   8.791
 1550POPC   D2A24124  30.990  19.341   8.394
 1550POPC   C3A24125  30.980  19.000   8.095
 1550POPC   C4A24126  30.753  19.042   7.739
 1550POPC   C1B24127  30.437  18.886   8.721
 1550POPC   C2B24128  30.528  19.075   8.334
 1550POPC   C3B24129  30.300  18.989   7.963
 1550POPC   C4B24130  30.311  18.867   7.514
 1551POPC   NC324131  35.144   1.374   9.427
 1551POPC   PO424132  35.662   0.942   9.509
 1551POPC   GL124133  35.506   0.895   9.115
 1551POPC   GL224134  35.332   1.198   9.013
 1551POPC   C1A24135  35.458   0.882   8.660
 1551POPC   D2A24136  35.338   1.165   8.346
 1551POPC   C3A24137  35.488   1.036   8.022
 1551POPC   C4A24138  35.408   0.891   7.645
 1551POPC   C1B24139  35.463   1.484   8.729
 1551POPC   C2B24140  35.594   1.658   8.356
 1551POPC   C3B24141  35.459   1.549   7.986
 1551POPC   C4B24142  35.605   1.365   7.653
 1552POPC   NC324143  12.957  25.567   9.452
 1552POPC   PO424144  12.855  24.924   9.494
 1552POPC   GL124145  12.643  25.077   9.163
 1552POPC   GL224146  12.470  25.396   9.219
 1552POPC   C1A24147  12.821  25.104   8.794
 1552POPC   D2A24148  13.062  25.037   8.464
 1552POPC   C3A24149  12.851  25.128   8.089
 1552POPC   C4A24150  13.016  25.358   7.745
 1552POPC   C1B24151  12.646  25.574   8.838
 1552POPC   C2B24152  12.733  25.504   8.409
 1552POPC   C3B24153  12.752  25.718   7.995
 1552POPC   C4B24154  12.708  25.807   7.536
 1553POPC   NC324155  24.913  12.381   9.535
 1553POPC   PO424156  25.611  12.317   9.547
 1553POPC   GL124157  25.263  12.394   9.166
 1553POPC   GL224158  24.888  12.534   9.059
 1553POPC   C1A24159  25.247  11.977   8.913
 1553POPC   D2A24160  25.443  11.671   8.598
 1553POPC   C3A24161  25.403  11.765   8.154
 1553POPC   C4A24162  25.278  11.791   7.711
 1553POPC   C1B24163  25.063  12.390   8.666
 1553POPC   C2B24164  25.190  12.350   8.217
 1553POPC   C3B24165  25.023  12.220   7.793
 1553POPC   C4B24166  25.007  12.428   7.338
 1554POPC   NC324167  31.031  30.663   9.667
 1554POPC   PO424168  31.690  30.695   9.539
 1554POPC   GL124169  31.396  30.697   9.181
 1554POPC   GL224170  31.375  31.034   8.999
 1554POPC   C1A24171  31.540  30.633   8.742
 1554POPC   D2A24172  31.800  30.452   8.439
 1554POPC   C3A24173  31.691  30.557   8.043
 1554POPC   C4A24174  31.736  30.903   7.741
 1554POPC   C1B24175  31.292  31.076   8.601
 1554POPC   C2B24176  31.256  30.703   8.293
 1554POPC   C3B24177  31.276  30.775   7.826
 1554POPC   C4B24178  31.117  30.952   7.409
 1555POPC   NC324179  13.500  18.607   9.418
 1555POPC   PO424180  13.966  18.130   9.358
 1555POPC   GL124181  13.722  18.278   9.071
 1555POPC   GL224182  13.419  18.120   9.224
 1555POPC   C1A24183  13.810  18.446   8.666
 1555POPC   D2A24184  13.791  18.618   8.221
 1555POPC   C3A24185  13.844  18.305   7.888
 1555POPC   C4A24186  13.681  18.083   7.522
 1555POPC   C1B24187  13.261  18.325   8.859
 1555POPC   C2B24188  13.349  18.531   8.469
 1555POPC   C3B24189  13.318  18.387   8.036
 1555POPC   C4B24190  13.466  18.587   7.680
 1556POPC   NC324191  29.236   6.166   9.623
 1556POPC   PO424192  28.874   6.790   9.600
 1556POPC   GL124193  28.911   6.542   9.259
 1556POPC   GL224194  29.240   6.495   9.204
 1556POPC   C1A24195  28.916   6.670   8.829
 1556POPC   D2A24196  29.085   6.632   8.430
 1556POPC   C3A24197  28.849   6.646   8.085
 1556POPC   C4A24198  28.996   6.667   7.704
 1556POPC   C1B24199  29.436   6.583   8.792
 1556POPC   C2B24200  29.572   6.698   8.369
 1556POPC   C3B24201  29.456   6.663   7.944
 1556POPC   C4B24202  29.453   6.606   7.476
 1557POPC   NC324203  28.628  11.494   9.507
 1557POPC   PO424204  28.044  11.721   9.766
 1557POPC   GL124205  28.205  11.325   9.323
 1557POPC   GL224206  28.008  11.069   9.143
 1557POPC   C1A24207  28.475  11.196   8.944
 1557POPC   D2A24208  28.673  11.139   8.539
 1557POPC   C3A24209  28.491  11.354   8.206
 1557POPC   C4A24210  28.684  11.570   7.880
 1557POPC   C1B24211  28.017  11.364   8.761
 1557POPC   C2B24212  28.130  11.691   8.447
 1557POPC   C3B24213  28.018  11.662   8.019
 1557POPC   C4B24214  28.205  11.331   7.760
 1558POPC   NC324215   6.975  38.978   9.567
 1558POPC   PO424216   7.536  39.331   9.498
 1558POPC   GL124217   7.309  39.207   9.171
 1558POPC   GL224218   7.362  38.896   9.257
 1558POPC   C1A24219   7.506  39.349   8.801
 1558POPC   D2A24220   7.662  39.254   8.430
 1558POPC   C3A24221   7.499  39.481   8.085
 1558POPC   C4A24222   7.659  39.388   7.715
 1558POPC   C1B24223   7.498  38.826   8.848
 1558POPC   C2B24224   7.238  38.938   8.513
 1558POPC   C3B24225   7.335  38.992   8.101
 1558POPC   C4B24226   7.181  39.235   7.774
 1559POPC   NC324227  27.780   7.410   9.973
 1559POPC   PO424228  27.290   7.152   9.519
 1559POPC   GL124229  27.358   7.523   9.258
 1559POPC   GL224230  27.694   7.633   9.357
 1559POPC   C1A24231  27.342   7.496   8.823
 1559POPC   D2A24232  27.523   7.321   8.441
 1559POPC   C3A24233  27.419   7.558   8.065
 1559POPC   C4A24234  27.321   7.459   7.646
 1559POPC   C1B24235  27.842   7.559   8.898
 1559POPC   C2B24236  28.020   7.245   8.615
 1559POPC   C3B24237  27.982   7.167   8.177
 1559POPC   C4B24238  27.723   7.158   7.791
 1560POPC   NC324239   4.528  23.382   9.496
 1560POPC   PO424240   4.094  22.849   9.493
 1560POPC   GL124241   4.110  23.115   9.149
 1560POPC   GL224242   4.421  23.153   9.062
 1560POPC   C1A24243   4.042  23.015   8.728
 1560POPC   D2A24244   3.893  22.800   8.384
 1560POPC   C3A24245   4.104  23.034   8.089
 1560POPC   C4A24246   4.375  23.311   7.858
 1560POPC   C1B24247   4.542  22.887   8.751
 1560POPC   C2B24248   4.407  22.728   8.368
 1560POPC   C3B24249   4.429  22.667   7.943
 1560POPC   C4B24250   4.796  22.490   7.746
 1561POPC   NC324251  44.809  28.744   9.343
 1561POPC   PO424252  44.563  29.212   9.787
 1561POPC   GL124253  44.716  29.248   9.262
 1561POPC   GL224254  44.630  29.030   8.965
 1561POPC   C1A24255  44.606  29.502   8.862
 1561POPC   D2A24256  44.527  29.305   8.411
 1561POPC   C3A24257  44.707  29.405   7.975
 1561POPC   C4A24258  44.822  29.157   7.572
 1561POPC   C1B24259  44.948  29.111   8.684
 1561POPC   C2B24260   0.051  29.168   8.277
 1561POPC   C3B24261  44.890  28.874   8.003
 1561POPC   C4B24262  44.960  28.490   7.844
 1562POPC   NC324263  38.120   5.966   9.365
 1562POPC   PO424264  38.688   5.583   9.453
 1562POPC   GL124265  38.816   5.917   9.177
 1562POPC   GL224266  38.504   6.009   9.006
 1562POPC   C1A24267  38.956   6.054   8.776
 1562POPC   D2A24268  38.703   6.027   8.388
 1562POPC   C3A24269  38.939   6.126   7.998
 1562POPC   C4A24270  38.750   6.219   7.585
 1562POPC   C1B24271  38.558   5.614   8.718
 1562POPC   C2B24272  38.640   5.531   8.264
 1562POPC   C3B24273  38.536   5.815   7.916
 1562POPC   C4B24274  38.174   5.663   7.722
 1563POPC   NC324275  43.183  28.989   9.566
 1563POPC   PO424276  42.773  29.445   9.606
 1563POPC   GL124277  43.068  29.359   9.222
 1563POPC   GL224278  43.383  29.516   9.144
 1563POPC   C1A24279  43.258  29.124   8.850
 1563POPC   D2A24280  43.380  28.959   8.420
 1563POPC   C3A24281  43.192  29.170   8.047
 1563POPC   C4A24282  42.941  29.168   7.667
 1563POPC   C1B24283  43.662  29.463   8.772
 1563POPC   C2B24284  43.507  29.468   8.348
 1563POPC   C3B24285  43.536  29.527   7.910
 1563POPC   C4B24286  43.455  29.250   7.553
 1564POPC   NC324287  20.686  35.289   9.298
 1564POPC   PO424288  20.222  35.692   9.458
 1564POPC   GL124289  20.490  35.688   9.065
 1564POPC   GL224290  20.844  35.792   9.181
 1564POPC   C1A24291  20.484  35.412   8.660
 1564POPC   D2A24292  20.654  35.206   8.299
 1564POPC   C3A24293  20.386  35.249   7.967
 1564POPC   C4A24294  20.550  35.640   7.916
 1564POPC   C1B24295  20.948  35.577   8.794
 1564POPC   C2B24296  20.860  35.699   8.372
 1564POPC   C3B24297  21.040  35.533   7.993
 1564POPC   C4B24298  20.868  35.120   7.825
 1565POPC   NC324299   8.462  35.020   9.889
 1565POPC   PO424300   8.292  35.560   9.488
 1565POPC   GL124301   8.135  35.556   9.131
 1565POPC   GL224302   8.052  35.238   9.112
 1565POPC   C1A24303   8.315  35.563   8.733
 1565POPC   D2A24304   8.324  35.752   8.340
 1565POPC   C3A24305   8.347  35.409   8.073
 1565POPC   C4A24306   8.151  35.331   7.724
 1565POPC   C1B24307   8.030  34.989   8.790
 1565POPC   C2B24308   8.111  35.064   8.391
 1565POPC   C3B24309   7.852  35.130   8.076
 1565POPC   C4B24310   7.818  34.924   7.686
 1566POPC   NC324311   6.897  41.199   9.544
 1566POPC   PO424312   6.747  40.517   9.369
 1566POPC   GL124313   6.754  40.938   9.136
 1566POPC   GL224314   7.081  41.042   9.073
 1566POPC   C1A24315   6.686  41.147   8.736
 1566POPC   D2A24316   6.495  41.212   8.331
 1566POPC   C3A24317   6.697  40.950   8.003
 1566POPC   C4A24318   6.668  40.524   7.789
 1566POPC   C1B24319   6.962  40.698   8.756
 1566POPC   C2B24320   6.986  40.699   8.354
 1566POPC   C3B24321   7.103  40.463   8.029
 1566POPC   C4B24322   7.049  40.184   7.702
 1567POPC   NC324323   3.332  17.692   9.302
 1567POPC   PO424324   2.700  17.588   9.539
 1567POPC   GL124325   2.647  17.511   9.140
 1567POPC   GL224326   2.665  17.876   9.106
 1567POPC   C1A24327   2.563  17.540   8.724
 1567POPC   D2A24328   2.687  17.429   8.354
 1567POPC   C3A24329   2.646  17.649   7.983
 1567POPC   C4A24330   2.864  17.435   7.669
 1567POPC   C1B24331   2.962  17.834   8.770
 1567POPC   C2B24332   2.929  17.904   8.356
 1567POPC   C3B24333   3.269  17.898   8.100
 1567POPC   C4B24334   3.263  17.757   7.693
 1568POPC   NC324335  18.570  24.513   9.470
 1568POPC   PO424336  17.961  24.485   9.328
 1568POPC   GL124337  18.278  24.601   9.062
 1568POPC   GL224338  18.422  24.277   9.056
 1568POPC   C1A24339  18.481  24.592   8.676
 1568POPC   D2A24340  18.287  24.351   8.363
 1568POPC   C3A24341  18.263  24.585   7.960
 1568POPC   C4A24342  18.550  24.917   7.883
 1568POPC   C1B24343  18.595  24.036   8.718
 1568POPC   C2B24344  18.451  23.866   8.313
 1568POPC   C3B24345  18.258  24.078   7.942
 1568POPC   C4B24346  18.270  24.181   7.487
 1569POPC   NC324347  39.296   6.763   9.434
 1569POPC   PO424348  38.854   6.273   9.683
 1569POPC   GL124349  38.907   6.429   9.293
 1569POPC   GL224350  39.193   6.282   9.214
 1569POPC   C1A24351  38.964   6.582   8.859
 1569POPC   D2A24352  39.136   6.845   8.561
 1569POPC   C3A24353  39.121   6.733   8.165
 1569POPC   C4A24354  39.123   6.824   7.770
 1569POPC   C1B24355  39.401   6.349   8.818
 1569POPC   C2B24356  39.252   6.274   8.403
 1569POPC   C3B24357  39.440   6.374   8.007
 1569POPC   C4B24358  39.272   6.304   7.625
 1570POPC   NC324359  15.314  12.460   9.666
 1570POPC   PO424360  15.122  13.035   9.383
 1570POPC   GL124361  15.202  12.781   9.066
 1570POPC   GL224362  14.897  12.603   8.980
 1570POPC   C1A24363  15.167  12.956   8.672
 1570POPC   D2A24364  15.445  12.811   8.363
 1570POPC   C3A24365  15.239  12.847   8.011
 1570POPC   C4A24366  14.954  13.079   7.797
 1570POPC   C1B24367  15.183  12.459   8.631
 1570POPC   C2B24368  15.081  12.345   8.210
 1570POPC   C3B24369  15.166  12.428   7.766
 1570POPC   C4B24370  15.394  12.507   7.365
 1571POPC   NC324371  28.872  30.572   9.536
 1571POPC   PO424372  29.385  30.794   9.625
 1571POPC   GL124373  29.261  30.723   9.180
 1571POPC   GL224374  29.054  30.444   9.076
 1571POPC   C1A24375  29.236  30.842   8.731
 1571POPC   D2A24376  29.154  31.113   8.360
 1571POPC   C3A24377  29.145  30.894   7.971
 1571POPC   C4A24378  29.363  30.551   7.809
 1571POPC   C1B24379  28.879  30.488   8.656
 1571POPC   C2B24380  29.043  30.441   8.208
 1571POPC   C3B24381  28.886  30.387   7.769
 1571POPC   C4B24382  28.785  30.100   7.429
 1572POPC   NC324383  19.226  27.789   9.401
 1572POPC   PO424384  19.857  27.737   9.792
 1572POPC   GL124385  19.746  27.580   9.370
 1572POPC   GL224386  19.692  27.863   9.221
 1572POPC   C1A24387  19.879  27.549   8.873
 1572POPC   D2A24388  19.850  27.349   8.425
 1572POPC   C3A24389  19.843  27.426   7.946
 1572POPC   C4A24390  19.929  27.244   7.520
 1572POPC   C1B24391  19.745  28.042   8.816
 1572POPC   C2B24392  19.879  27.869   8.426
 1572POPC   C3B24393  19.750  27.922   7.991
 1572POPC   C4B24394  19.683  27.749   7.571
 1573POPC   NC324395  30.145  28.149   9.292
 1573POPC   PO424396  30.465  28.696   9.565
 1573POPC   GL124397  30.141  28.709   9.117
 1573POPC   GL224398  29.914  28.379   8.944
 1573POPC   C1A24399  29.959  28.728   8.629
 1573POPC   D2A24400  29.974  28.351   8.372
 1573POPC   C3A24401  30.015  28.431   7.958
 1573POPC   C4A24402  29.728  28.650   7.703
 1573POPC   C1B24403  30.095  27.973   8.691
 1573POPC   C2B24404  30.040  27.744   8.313
 1573POPC   C3B24405  29.836  27.920   7.980
 1573POPC   C4B24406  29.945  28.078   7.600
 1574POPC   NC324407  38.186   4.359   9.493
 1574POPC   PO424408  38.846   4.606   9.548
 1574POPC   GL124409  38.613   4.620   9.150
 1574POPC   GL224410  38.460   4.323   9.079
 1574POPC   C1A24411  38.667   4.550   8.682
 1574POPC   D2A24412  38.476   4.387   8.317
 1574POPC   C3A24413  38.652   4.466   7.877
 1574POPC   C4A24414  38.577   4.571   7.416
 1574POPC   C1B24415  38.403   4.040   8.760
 1574POPC   C2B24416  38.498   3.852   8.397
 1574POPC   C3B24417  38.263   4.029   8.044
 1574POPC   C4B24418  38.381   4.130   7.621
 1575POPC   NC324419  12.593  29.762   9.673
 1575POPC   PO424420  13.132  29.640   9.540
 1575POPC   GL124421  12.835  29.924   9.230
 1575POPC   GL224422  12.455  29.916   9.186
 1575POPC   C1A24423  12.712  30.235   8.867
 1575POPC   D2A24424  12.832  30.299   8.414
 1575POPC   C3A24425  13.042  29.946   8.243
 1575POPC   C4A24426  13.021  29.737   7.848
 1575POPC   C1B24427  12.416  29.832   8.724
 1575POPC   C2B24428  12.534  29.867   8.260
 1575POPC   C3B24429  12.510  29.851   7.799
 1575POPC   C4B24430  12.272  29.784   7.364
 1576POPC   NC324431  12.361  23.831   9.521
 1576POPC   PO424432  11.778  23.502   9.348
 1576POPC   GL124433  12.091  23.445   9.062
 1576POPC   GL224434  12.433  23.551   9.100
 1576POPC   C1A24435  12.262  23.316   8.667
 1576POPC   D2A24436  12.110  23.316   8.253
 1576POPC   C3A24437  12.253  23.594   7.928
 1576POPC   C4A24438  11.962  23.927   7.854
 1576POPC   C1B24439  12.250  23.842   8.770
 1576POPC   C2B24440  12.418  23.916   8.348
 1576POPC   C3B24441  12.423  24.169   7.982
 1576POPC   C4B24442  12.401  23.995   7.596
 1577POPC   NC324443  31.089  13.868   9.549
 1577POPC   PO424444  31.764  13.601   9.610
 1577POPC   GL124445  31.545  13.814   9.281
 1577POPC   GL224446  31.774  14.123   9.268
 1577POPC   C1A24447  31.372  13.630   8.883
 1577POPC   D2A24448  31.217  13.470   8.473
 1577POPC   C3A24449  31.265  13.697   8.109
 1577POPC   C4A24450  31.367  13.521   7.728
 1577POPC   C1B24451  31.770  13.976   8.847
 1577POPC   C2B24452  31.647  13.750   8.459
 1577POPC   C3B24453  31.764  13.832   8.039
 1577POPC   C4B24454  31.873  14.026   7.631
 1578POPC   NC324455  17.603  24.761   9.409
 1578POPC   PO424456  17.422  24.229   9.714
 1578POPC   GL124457  17.531  24.252   9.214
 1578POPC   GL224458  17.348  24.530   9.024
 1578POPC   C1A24459  17.688  24.317   8.726
 1578POPC   D2A24460  17.412  24.448   8.360
 1578POPC   C3A24461  17.515  24.542   7.923
 1578POPC   C4A24462  17.854  24.353   7.726
 1578POPC   C1B24463  17.202  24.796   8.660
 1578POPC   C2B24464  17.112  24.831   8.168
 1578POPC   C3B24465  17.035  24.628   7.729
 1578POPC   C4B24466  17.035  24.471   7.290
 1579POPC   NC324467  10.209  37.944   9.541
 1579POPC   PO424468  10.718  37.439   9.463
 1579POPC   GL124469  10.575  37.757   9.180
 1579POPC   GL224470  10.272  37.588   9.144
 1579POPC   C1A24471  10.542  37.716   8.716
 1579POPC   D2A24472  10.568  37.447   8.372
 1579POPC   C3A24473  10.779  37.664   8.035
 1579POPC   C4A24474  10.625  37.580   7.628
 1579POPC   C1B24475  10.178  38.003   8.915
 1579POPC   C2B24476  10.287  38.162   8.526
 1579POPC   C3B24477  10.343  37.861   8.180
 1579POPC   C4B24478  10.215  37.862   7.766
 1580POPC   NC324479  11.764  11.056   9.584
 1580POPC   PO424480  11.083  11.391   9.528
 1580POPC   GL124481  11.082  11.183   9.140
 1580POPC   GL224482  11.416  11.100   9.213
 1580POPC   C1A24483  10.988  11.206   8.697
 1580POPC   D2A24484  11.063  11.494   8.353
 1580POPC   C3A24485  11.080  11.292   7.951
 1580POPC   C4A24486  11.009  11.410   7.539
 1580POPC   C1B24487  11.496  11.306   8.821
 1580POPC   C2B24488  11.671  11.082   8.471
 1580POPC   C3B24489  11.571  11.191   8.076
 1580POPC   C4B24490  11.517  11.237   7.614
 1581POPC   NC324491  23.593  35.798   9.441
 1581POPC   PO424492  24.035  36.317   9.602
 1581POPC   GL124493  23.723  36.281   9.275
 1581POPC   GL224494  23.819  36.558   9.113
 1581POPC   C1A24495  23.533  36.244   8.835
 1581POPC   D2A24496  23.738  36.032   8.498
 1581POPC   C3A24497  23.669  36.151   8.050
 1581POPC   C4A24498  23.829  35.918   7.687
 1581POPC   C1B24499  24.027  36.411   8.719
 1581POPC   C2B24500  24.127  36.329   8.262
 1581POPC   C3B24501  24.048  36.392   7.795
 1581POPC   C4B24502  23.879  36.338   7.372
 1582POPC   NC324503  44.290  42.020   9.573
 1582POPC   PO424504  44.917  42.387   9.470
 1582POPC   GL124505  44.945  42.432   9.059
 1582POPC   GL224506  44.710  42.132   9.035
 1582POPC   C1A24507  44.726  42.586   8.669
 1582POPC   D2A24508  44.311  42.679   8.444
 1582POPC   C3A24509  44.362  42.507   7.995
 1582POPC   C4A24510  44.692  42.545   7.653
 1582POPC   C1B24511   0.061  42.088   8.735
 1582POPC   C2B24512   0.064  42.303   8.361
 1582POPC   C3B24513  44.892  42.218   7.987
 1582POPC   C4B24514   0.102  42.153   7.617
 1583POPC   NC324515  21.150  40.757   9.491
 1583POPC   PO424516  21.644  40.367   9.621
 1583POPC   GL124517  21.604  40.692   9.274
 1583POPC   GL224518  21.329  40.598   9.045
 1583POPC   C1A24519  21.732  40.883   8.854
 1583POPC   D2A24520  21.835  40.793   8.406
 1583POPC   C3A24521  21.468  40.895   8.166
 1583POPC   C4A24522  21.277  40.888   7.769
 1583POPC   C1B24523  21.528  40.432   8.681
 1583POPC   C2B24524  21.525  40.392   8.239
 1583POPC   C3B24525  21.383  40.361   7.806
 1583POPC   C4B24526  21.067  40.520   7.482
 1584POPC   NC324527   3.140  16.222   9.451
 1584POPC   PO424528   3.611  15.756   9.579
 1584POPC   GL124529   3.535  15.759   9.106
 1584POPC   GL224530   3.581  16.100   9.032
 1584POPC   C1A24531   3.776  15.779   8.685
 1584POPC   D2A24532   3.952  15.726   8.278
 1584POPC   C3A24533   3.642  15.887   8.018
 1584POPC   C4A24534   3.377  15.709   7.709
 1584POPC   C1B24535   3.283  16.299   8.797
 1584POPC   C2B24536   3.165  16.439   8.414
 1584POPC   C3B24537   3.247  16.250   8.042
 1584POPC   C4B24538   3.525  16.289   7.727
 1585POPC   NC324539  26.783  40.041   9.630
 1585POPC   PO424540  26.477  39.471   9.471
 1585POPC   GL124541  26.813  39.775   9.203
 1585POPC   GL224542  26.681  40.106   9.145
 1585POPC   C1A24543  27.040  40.006   8.789
 1585POPC   D2A24544  27.241  40.041   8.331
 1585POPC   C3A24545  27.010  39.988   7.922
 1585POPC   C4A24546  26.573  39.997   7.808
 1585POPC   C1B24547  26.506  40.069   8.754
 1585POPC   C2B24548  26.689  40.046   8.373
 1585POPC   C3B24549  26.751  40.373   8.137
 1585POPC   C4B24550  26.913  40.485   7.762
 1586POPC   NC324551  21.871  43.353   9.633
 1586POPC   PO424552  21.242  42.999   9.652
 1586POPC   GL124553  21.415  43.160   9.329
 1586POPC   GL224554  21.403  42.841   9.175
 1586POPC   C1A24555  21.443  43.251   8.881
 1586POPC   D2A24556  21.174  43.222   8.519
 1586POPC   C3A24557  21.384  43.220   8.125
 1586POPC   C4A24558  21.299  43.138   7.709
 1586POPC   C1B24559  21.244  42.726   8.780
 1586POPC   C2B24560  21.417  42.740   8.376
 1586POPC   C3B24561  21.300  42.702   7.952
 1586POPC   C4B24562  21.247  42.597   7.497
 1587POPC   NC324563  30.899  19.588   9.414
 1587POPC   PO424564  30.410  20.087   9.596
 1587POPC   GL124565  30.551  19.997   9.169
 1587POPC   GL224566  30.906  19.977   9.072
 1587POPC   C1A24567  30.568  20.140   8.724
 1587POPC   D2A24568  30.466  20.205   8.298
 1587POPC   C3A24569  30.656  19.996   7.992
 1587POPC   C4A24570  30.743  20.091   7.601
 1587POPC   C1B24571  30.782  19.683   8.769
 1587POPC   C2B24572  30.554  19.664   8.396
 1587POPC   C3B24573  30.528  19.473   7.995
 1587POPC   C4B24574  30.818  19.566   7.669
 1588POPC   NC324575  34.823  20.127   9.517
 1588POPC   PO424576  34.448  19.624   9.237
 1588POPC   GL124577  34.560  19.729   8.939
 1588POPC   GL224578  34.604  20.072   9.013
 1588POPC   C1A24579  34.482  19.616   8.564
 1588POPC   D2A24580  34.486  19.964   8.296
 1588POPC   C3A24581  34.681  19.922   7.918
 1588POPC   C4A24582  34.799  19.520   7.756
 1588POPC   C1B24583  34.869  20.036   8.664
 1588POPC   C2B24584  35.071  20.137   8.293
 1588POPC   C3B24585  35.053  20.278   7.844
 1588POPC   C4B24586  34.906  20.395   7.429
 1589POPC   NC324587   2.046  42.724   9.480
 1589POPC   PO424588   1.819  43.252   9.863
 1589POPC   GL124589   2.026  43.191   9.315
 1589POPC   GL224590   1.767  43.026   9.189
 1589POPC   C1A24591   2.098  43.066   8.820
 1589POPC   D2A24592   2.278  42.878   8.423
 1589POPC   C3A24593   2.098  43.007   8.025
 1589POPC   C4A24594   1.875  43.157   7.666
 1589POPC   C1B24595   1.576  42.976   8.797
 1589POPC   C2B24596   1.754  42.936   8.418
 1589POPC   C3B24597   1.595  42.875   8.031
 1589POPC   C4B24598   1.675  42.691   7.668
 1590POPC   NC324599  21.792   1.679   9.408
 1590POPC   PO424600  21.208   2.009   9.300
 1590POPC   GL124601  21.460   2.258   9.094
 1590POPC   GL224602  21.720   2.040   9.012
 1590POPC   C1A24603  21.438   2.214   8.639
 1590POPC   D2A24604  21.729   2.280   8.361
 1590POPC   C3A24605  21.562   2.416   8.005
 1590POPC   C4A24606  21.332   2.255   7.687
 1590POPC   C1B24607  21.666   1.763   8.685
 1590POPC   C2B24608  21.439   1.823   8.314
 1590POPC   C3B24609  21.590   1.893   7.947
 1590POPC   C4B24610  21.872   1.583   7.798
 1591POPC   NC324611  39.166  17.373   9.666
 1591POPC   PO424612  39.656  17.328   9.391
 1591POPC   GL124613  39.240  17.428   9.134
 1591POPC   GL224614  38.954  17.641   9.251
 1591POPC   C1A24615  38.922  17.415   8.755
 1591POPC   D2A24616  38.694  17.505   8.338
 1591POPC   C3A24617  38.931  17.507   7.916
 1591POPC   C4A24618  39.236  17.739   7.654
 1591POPC   C1B24619  39.109  17.876   8.856
 1591POPC   C2B24620  39.073  17.890   8.379
 1591POPC   C3B24621  38.855  18.005   7.988
 1591POPC   C4B24622  38.827  18.042   7.533
 1592POPC   NC324623  15.868  35.041   9.512
 1592POPC   PO424624  16.249  35.571   9.649
 1592POPC   GL124625  16.057  35.544   9.243
 1592POPC   GL224626  16.297  35.719   9.046
 1592POPC   C1A24627  15.836  35.329   8.909
 1592POPC   D2A24628  15.962  34.999   8.569
 1592POPC   C3A24629  15.878  35.094   8.123
 1592POPC   C4A24630  15.686  35.055   7.722
 1592POPC   C1B24631  16.293  35.397   8.749
 1592POPC   C2B24632  16.267  35.367   8.323
 1592POPC   C3B24633  16.112  35.552   7.948
 1592POPC   C4B24634  16.144  35.243   7.661
 1593POPC   NC324635  18.857  33.146   9.339
 1593POPC   PO424636  18.189  33.010   9.613
 1593POPC   GL124637  18.369  32.978   9.232
 1593POPC   GL224638  18.365  33.303   9.215
 1593POPC   C1A24639  18.407  32.910   8.765
 1593POPC   D2A24640  18.174  32.860   8.354
 1593POPC   C3A24641  18.461  32.949   8.022
 1593POPC   C4A24642  18.585  32.743   7.653
 1593POPC   C1B24643  18.178  33.363   8.838
 1593POPC   C2B24644  18.371  33.340   8.469
 1593POPC   C3B24645  18.146  33.349   8.135
 1593POPC   C4B24646  18.183  33.274   7.732
 1594POPC   NC324647   5.716   2.952   9.446
 1594POPC   PO424648   5.837   2.322   9.446
 1594POPC   GL124649   5.734   2.578   9.105
 1594POPC   GL224650   5.413   2.648   9.121
 1594POPC   C1A24651   5.683   2.805   8.702
 1594POPC   D2A24652   5.665   2.928   8.258
 1594POPC   C3A24653   6.041   2.827   8.005
 1594POPC   C4A24654   6.230   2.898   7.583
 1594POPC   C1B24655   5.374   2.408   8.758
 1594POPC   C2B24656   5.351   2.522   8.328
 1594POPC   C3B24657   5.609   2.536   7.938
 1594POPC   C4B24658   5.706   2.831   7.623
 1595POPC   NC324659   0.248   1.349   9.616
 1595POPC   PO424660   0.762   0.952   9.618
 1595POPC   GL124661   0.502   1.182   9.193
 1595POPC   GL224662   0.154   1.059   9.090
 1595POPC   C1A24663   0.339   1.388   8.748
 1595POPC   D2A24664   0.466   1.592   8.357
 1595POPC   C3A24665   0.428   1.310   8.051
 1595POPC   C4A24666   0.629   1.157   7.700
 1595POPC   C1B24667  44.986   1.030   8.641
 1595POPC   C2B24668  44.928   1.102   8.197
 1595POPC   C3B24669   0.146   0.930   7.855
 1595POPC   C4B24670   0.188   1.056   7.437
 1596POPC   NC324671   4.171  18.039   9.509
 1596POPC   PO424672   4.082  18.722   9.507
 1596POPC   GL124673   4.353  18.530   9.148
 1596POPC   GL224674   4.348  18.152   9.067
 1596POPC   C1A24675   4.365  18.500   8.685
 1596POPC   D2A24676   4.115  18.469   8.309
 1596POPC   C3A24677   4.289  18.657   7.966
 1596POPC   C4A24678   4.571  18.557   7.645
 1596POPC   C1B24679   4.613  18.027   8.771
 1596POPC   C2B24680   4.537  18.124   8.363
 1596POPC   C3B24681   4.573  17.880   8.031
 1596POPC   C4B24682   4.637  17.978   7.634
 1597POPC   NC324683   7.429  36.261  10.058
 1597POPC   PO424684   7.661  35.911   9.498
 1597POPC   GL124685   7.462  35.922   9.109
 1597POPC   GL224686   7.170  35.715   9.175
 1597POPC   C1A24687   7.522  36.140   8.735
 1597POPC   D2A24688   7.388  36.331   8.359
 1597POPC   C3A24689   7.549  36.195   7.981
 1597POPC   C4A24690   7.630  35.973   7.622
 1597POPC   C1B24691   7.263  35.663   8.726
 1597POPC   C2B24692   7.441  35.775   8.326
 1597POPC   C3B24693   7.283  35.691   7.911
 1597POPC   C4B24694   6.926  35.732   7.608
 1598POPC   NC324695  21.642  22.795   9.432
 1598POPC   PO424696  21.225  23.194   9.303
 1598POPC   GL124697  21.463  23.290   8.946
 1598POPC   GL224698  21.711  23.046   8.972
 1598POPC   C1A24699  21.434  23.343   8.513
 1598POPC   D2A24700  21.442  23.036   8.204
 1598POPC   C3A24701  21.375  23.158   7.764
 1598POPC   C4A24702  21.102  23.301   7.427
 1598POPC   C1B24703  21.493  22.805   8.665
 1598POPC   C2B24704  21.417  22.510   8.310
 1598POPC   C3B24705  21.389  22.647   7.892
 1598POPC   C4B24706  21.249  22.746   7.494
 1599POPC   NC324707   0.531  23.799   9.843
 1599POPC   PO424708   0.067  23.492   9.680
 1599POPC   GL124709   0.445  23.617   9.363
 1599POPC   GL224710   0.587  23.378   9.120
 1599POPC   C1A24711   0.515  23.884   8.957
 1599POPC   D2A24712   0.360  23.886   8.486
 1599POPC   C3A24713   0.495  24.035   8.036
 1599POPC   C4A24714   0.511  24.194   7.577
 1599POPC   C1B24715   0.656  23.492   8.673
 1599POPC   C2B24716   0.776  23.658   8.286
 1599POPC   C3B24717   0.743  23.619   7.872
 1599POPC   C4B24718   0.386  23.699   7.564
 1600POPC   NC324719  20.543  40.205   9.498
 1600POPC   PO424720  20.417  40.812   9.556
 1600POPC   GL124721  20.533  40.800   9.155
 1600POPC   GL224722  20.737  40.527   9.154
 1600POPC   C1A24723  20.385  40.673   8.744
 1600POPC   D2A24724  20.596  40.756   8.370
 1600POPC   C3A24725  20.352  40.612   8.041
 1600POPC   C4A24726  20.258  40.829   7.703
 1600POPC   C1B24727  20.905  40.763   8.811
 1600POPC   C2B24728  21.109  40.629   8.456
 1600POPC   C3B24729  20.982  40.567   8.051
 1600POPC   C4B24730  20.751  40.886   7.867
 1601POPC   NC324731  22.967  35.436   9.515
 1601POPC   PO424732  23.114  34.736   9.633
 1601POPC   GL124733  23.154  35.038   9.237
 1601POPC   GL224734  22.865  35.276   9.054
 1601POPC   C1A24735  23.321  35.210   8.837
 1601POPC   D2A24736  23.083  35.144   8.469
 1601POPC   C3A24737  23.158  35.356   8.100
 1601POPC   C4A24738  22.944  35.432   7.779
 1601POPC   C1B24739  22.851  35.560   8.678
 1601POPC   C2B24740  22.877  35.767   8.245
 1601POPC   C3B24741  22.561  35.718   7.926
 1601POPC   C4B24742  22.460  35.458   7.562
 1602POPC   NC324743  20.967  25.871   9.483
 1602POPC   PO424744  20.314  25.985   9.731
 1602POPC   GL124745  20.494  26.071   9.274
 1602POPC   GL224746  20.626  25.820   9.055
 1602POPC   C1A24747  20.561  26.275   8.847
 1602POPC   D2A24748  20.616  26.107   8.433
 1602POPC   C3A24749  20.648  26.384   8.094
 1602POPC   C4A24750  20.433  26.271   7.705
 1602POPC   C1B24751  20.953  25.851   8.714
 1602POPC   C2B24752  21.061  25.921   8.255
 1602POPC   C3B24753  20.764  25.927   7.873
 1602POPC   C4B24754  20.823  26.090   7.363
 1603POPC   NC324755   4.190  24.923   9.432
 1603POPC   PO424756   4.548  25.496   9.552
 1603POPC   GL124757   4.245  25.395   9.196
 1603POPC   GL224758   4.058  25.142   8.993
 1603POPC   C1A24759   4.182  25.628   8.805
 1603POPC   D2A24760   4.425  25.675   8.428
 1603POPC   C3A24761   4.270  25.421   8.082
 1603POPC   C4A24762   4.356  25.594   7.692
 1603POPC   C1B24763   4.429  24.998   8.797
 1603POPC   C2B24764   4.565  25.154   8.413
 1603POPC   C3B24765   4.605  24.991   8.028
 1603POPC   C4B24766   4.430  25.088   7.674
 1604POPC   NC324767   6.043  35.032   9.480
 1604POPC   PO424768   5.752  35.675   9.519
 1604POPC   GL124769   5.892  35.414   9.184
 1604POPC   GL224770   5.579  35.295   9.061
 1604POPC   C1A24771   5.974  35.107   8.831
 1604POPC   D2A24772   5.698  35.113   8.502
 1604POPC   C3A24773   5.764  35.433   8.160
 1604POPC   C4A24774   5.960  35.374   7.767
 1604POPC   C1B24775   5.722  35.584   8.721
 1604POPC   C2B24776   5.560  35.862   8.391
 1604POPC   C3B24777   5.309  35.817   8.053
 1604POPC   C4B24778   5.609  35.756   7.769
 1605POPC   NC324779  38.654  39.767   9.745
 1605POPC   PO424780  38.315  40.380   9.581
 1605POPC   GL124781  38.528  40.126   9.290
 1605POPC   GL224782  38.451  39.860   9.102
 1605POPC   C1A24783  38.694  40.208   8.848
 1605POPC   D2A24784  38.535  40.077   8.436
 1605POPC   C3A24785  38.753  39.937   8.059
 1605POPC   C4A24786  38.683  39.755   7.626
 1605POPC   C1B24787  38.162  39.914   8.768
 1605POPC   C2B24788  37.993  39.817   8.395
 1605POPC   C3B24789  38.250  39.786   8.053
 1605POPC   C4B24790  38.086  39.781   7.642
 1606POPC   NC324791  36.654  38.082   9.547
 1606POPC   PO424792  37.001  38.701   9.493
 1606POPC   GL124793  36.845  38.500   9.130
 1606POPC   GL224794  36.875  38.122   9.093
 1606POPC   C1A24795  36.978  38.651   8.735
 1606POPC   D2A24796  37.262  38.650   8.386
 1606POPC   C3A24797  37.083  38.651   7.983
 1606POPC   C4A24798  37.143  38.280   7.726
 1606POPC   C1B24799  36.963  38.151   8.655
 1606POPC   C2B24800  36.771  38.408   8.318
 1606POPC   C3B24801  36.653  38.402   7.878
 1606POPC   C4B24802  36.531  38.164   7.523
 1607POPC   NC324803  38.843  30.397   9.295
 1607POPC   PO424804  38.593  30.827   9.812
 1607POPC   GL124805  38.435  30.771   9.329
 1607POPC   GL224806  38.061  30.734   9.313
 1607POPC   C1A24807  38.514  30.789   8.846
 1607POPC   D2A24808  38.748  30.642   8.456
 1607POPC   C3A24809  38.592  30.653   8.050
 1607POPC   C4A24810  38.478  30.362   7.764
 1607POPC   C1B24811  38.002  30.669   8.854
 1607POPC   C2B24812  38.201  30.772   8.439
 1607POPC   C3B24813  38.120  30.843   8.013
 1607POPC   C4B24814  38.072  31.036   7.629
 1608POPC   NC324815  25.532   8.005   9.512
 1608POPC   PO424816  24.892   8.306   9.620
 1608POPC   GL124817  25.045   8.094   9.247
 1608POPC   GL224818  25.334   8.310   9.136
 1608POPC   C1A24819  25.044   8.036   8.795
 1608POPC   D2A24820  25.298   8.144   8.465
 1608POPC   C3A24821  25.137   8.114   8.066
 1608POPC   C4A24822  25.030   8.143   7.655
 1608POPC   C1B24823  25.625   8.437   8.785
 1608POPC   C2B24824  25.527   8.593   8.374
 1608POPC   C3B24825  25.575   8.377   8.009
 1608POPC   C4B24826  25.456   8.422   7.584
 1609POPC   NC324827  32.599   1.604   9.484
 1609POPC   PO424828  32.097   1.076   9.566
 1609POPC   GL124829  32.266   1.261   9.243
 1609POPC   GL224830  32.437   0.932   9.212
 1609POPC   C1A24831  32.205   1.413   8.822
 1609POPC   D2A24832  32.017   1.148   8.489
 1609POPC   C3A24833  32.218   1.120   8.087
 1609POPC   C4A24834  32.104   1.282   7.704
 1609POPC   C1B24835  32.445   0.963   8.771
 1609POPC   C2B24836  32.671   0.979   8.362
 1609POPC   C3B24837  32.643   0.813   7.963
 1609POPC   C4B24838  32.418   0.890   7.627
 1610POPC   NC324839  23.793  23.240   9.349
 1610POPC   PO424840  23.466  22.692   9.530
 1610POPC   GL124841  23.643  22.816   9.096
 1610POPC   GL224842  24.027  22.811   9.111
 1610POPC   C1A24843  23.700  23.118   8.718
 1610POPC   D2A24844  23.749  23.032   8.286
 1610POPC   C3A24845  23.466  22.760   8.124
 1610POPC   C4A24846  23.566  22.828   7.728
 1610POPC   C1B24847  24.193  23.016   8.700
 1610POPC   C2B24848  24.238  23.119   8.257
 1610POPC   C3B24849  24.091  22.992   7.828
 1610POPC   C4B24850  23.963  22.764   7.420
 1611POPC   NC324851  44.777  32.867   9.553
 1611POPC   PO424852   0.138  33.398   9.631
 1611POPC   GL124853  44.934  33.167   9.164
 1611POPC   GL224854  44.595  32.950   9.093
 1611POPC   C1A24855  44.812  33.110   8.675
 1611POPC   D2A24856  44.661  33.333   8.312
 1611POPC   C3A24857  44.782  33.230   7.893
 1611POPC   C4A24858  44.788  32.840   7.761
 1611POPC   C1B24859  44.383  32.829   8.681
 1611POPC   C2B24860  44.463  32.847   8.214
 1611POPC   C3B24861  44.272  32.862   7.810
 1611POPC   C4B24862  44.248  32.765   7.370
 1612POPC   NC324863   0.648  28.480   9.581
 1612POPC   PO424864  44.932  28.390   9.661
 1612POPC   GL124865   0.208  28.320   9.255
 1612POPC   GL224866   0.586  28.276   9.131
 1612POPC   C1A24867   0.255  28.554   8.852
 1612POPC   D2A24868   0.229  28.718   8.440
 1612POPC   C3A24869   0.350  28.415   8.164
 1612POPC   C4A24870   0.369  28.212   7.788
 1612POPC   C1B24871   0.791  28.612   8.855
 1612POPC   C2B24872   0.758  28.653   8.390
 1612POPC   C3B24873   0.836  28.246   8.149
 1612POPC   C4B24874   0.845  28.110   7.719
 1613POPC   NC324875   7.849  28.363   9.616
 1613POPC   PO424876   7.174  28.239   9.531
 1613POPC   GL124877   7.459  28.244   9.173
 1613POPC   GL224878   7.682  28.533   9.122
 1613POPC   C1A24879   7.419  28.239   8.716
 1613POPC   D2A24880   7.619  28.379   8.339
 1613POPC   C3A24881   7.507  28.196   7.951
 1613POPC   C4A24882   7.350  28.186   7.532
 1613POPC   C1B24883   7.496  28.764   8.775
 1613POPC   C2B24884   7.219  28.748   8.431
 1613POPC   C3B24885   7.313  28.684   8.012
 1613POPC   C4B24886   7.277  28.684   7.564
 1614POPC   NC324887  24.001  18.999   9.608
 1614POPC   PO424888  24.079  19.583   9.563
 1614POPC   GL124889  23.861  19.292   9.207
 1614POPC   GL224890  23.731  18.943   9.182
 1614POPC   C1A24891  23.602  19.385   8.833
 1614POPC   D2A24892  23.449  19.161   8.441
 1614POPC   C3A24893  23.601  19.119   8.038
 1614POPC   C4A24894  23.832  19.249   7.736
 1614POPC   C1B24895  23.885  18.979   8.762
 1614POPC   C2B24896  23.999  19.057   8.331
 1614POPC   C3B24897  23.993  18.789   7.973
 1614POPC   C4B24898  23.627  18.701   7.732
 1615POPC   NC324899  33.258  24.294   9.474
 1615POPC   PO424900  32.557  24.448   9.514
 1615POPC   GL124901  32.890  24.567   9.243
 1615POPC   GL224902  32.807  24.288   9.079
 1615POPC   C1A24903  33.132  24.571   8.824
 1615POPC   D2A24904  33.074  24.322   8.440
 1615POPC   C3A24905  33.361  24.311   8.095
 1615POPC   C4A24906  33.135  24.538   7.804
 1615POPC   C1B24907  32.780  24.009   8.745
 1615POPC   C2B24908  32.662  24.049   8.303
 1615POPC   C3B24909  32.704  24.293   7.908
 1615POPC   C4B24910  32.933  24.205   7.476
 1616POPC   NC324911  21.142  12.859   9.527
 1616POPC   PO424912  21.833  12.551   9.514
 1616POPC   GL124913  21.538  12.751   9.232
 1616POPC   GL224914  21.251  12.524   9.156
 1616POPC   C1A24915  21.316  12.924   8.861
 1616POPC   D2A24916  21.409  12.673   8.507
 1616POPC   C3A24917  21.387  12.935   8.167
 1616POPC   C4A24918  21.438  13.080   7.749
 1616POPC   C1B24919  20.989  12.491   8.799
 1616POPC   C2B24920  21.030  12.296   8.398
 1616POPC   C3B24921  21.294  12.443   8.053
 1616POPC   C4B24922  21.041  12.731   7.810
 1617POPC   NC324923   6.387  32.450   9.316
 1617POPC   PO424924   6.772  31.910   9.378
 1617POPC   GL124925   6.688  32.119   9.079
 1617POPC   GL224926   6.872  32.397   9.115
 1617POPC   C1A24927   6.482  32.126   8.732
 1617POPC   D2A24928   6.689  32.213   8.397
 1617POPC   C3A24929   6.608  32.038   8.098
 1617POPC   C4A24930   6.662  32.112   7.687
 1617POPC   C1B24931   6.867  32.571   8.691
 1617POPC   C2B24932   6.720  32.688   8.249
 1617POPC   C3B24933   6.478  32.520   7.931
 1617POPC   C4B24934   6.442  32.549   7.460
 1618POPC   NC324935  21.001  34.540   9.764
 1618POPC   PO424936  21.592  34.925   9.577
 1618POPC   GL124937  21.270  34.816   9.263
 1618POPC   GL224938  21.201  34.452   9.211
 1618POPC   C1A24939  21.250  34.745   8.815
 1618POPC   D2A24940  21.568  34.575   8.613
 1618POPC   C3A24941  21.469  34.630   8.223
 1618POPC   C4A24942  21.536  34.739   7.825
 1618POPC   C1B24943  21.289  34.201   8.831
 1618POPC   C2B24944  21.105  34.240   8.439
 1618POPC   C3B24945  21.250  34.223   8.030
 1618POPC   C4B24946  21.386  34.323   7.613
 1619POPC   NC324947   8.109  16.370   9.254
 1619POPC   PO424948   8.636  16.769   9.258
 1619POPC   GL124949   8.330  17.047   9.042
 1619POPC   GL224950   7.963  17.022   9.148
 1619POPC   C1A24951   8.279  17.059   8.636
 1619POPC   D2A24952   8.291  16.715   8.404
 1619POPC   C3A24953   8.418  16.707   8.012
 1619POPC   C4A24954   8.198  16.537   7.664
 1619POPC   C1B24955   7.839  16.801   8.742
 1619POPC   C2B24956   7.808  16.849   8.320
 1619POPC   C3B24957   7.973  16.911   7.934
 1619POPC   C4B24958   8.010  16.990   7.501
 1620POPC   NC324959   5.504  20.380   9.390
 1620POPC   PO424960   6.151  20.361   9.499
 1620POPC   GL124961   5.995  20.639   9.175
 1620POPC   GL224962   6.163  20.944   9.126
 1620POPC   C1A24963   5.778  20.602   8.760
 1620POPC   D2A24964   5.719  20.343   8.407
 1620POPC   C3A24965   5.757  20.516   8.006
 1620POPC   C4A24966   5.991  20.402   7.659
 1620POPC   C1B24967   6.247  20.803   8.736
 1620POPC   C2B24968   6.149  20.637   8.351
 1620POPC   C3B24969   6.189  20.785   7.938
 1620POPC   C4B24970   6.156  20.879   7.489
 1621POPC   NC324971  23.393  11.675   9.487
 1621POPC   PO424972  23.776  11.058   9.502
 1621POPC   GL124973  23.766  11.094   9.114
 1621POPC   GL224974  23.647  11.407   9.116
 1621POPC   C1A24975  23.614  11.049   8.706
 1621POPC   D2A24976  23.781  11.290   8.393
 1621POPC   C3A24977  23.730  11.186   7.983
 1621POPC   C4A24978  23.343  11.282   7.800
 1621POPC   C1B24979  23.893  11.611   8.818
 1621POPC   C2B24980  23.923  11.764   8.428
 1621POPC   C3B24981  23.669  11.708   8.069
 1621POPC   C4B24982  23.703  11.617   7.656
 1622POPC   NC324983  36.360  29.369   9.528
 1622POPC   PO424984  36.978  29.230   9.749
 1622POPC   GL124985  36.820  29.146   9.278
 1622POPC   GL224986  36.633  29.397   9.111
 1622POPC   C1A24987  36.946  29.126   8.819
 1622POPC   D2A24988  36.788  29.147   8.416
 1622POPC   C3A24989  36.953  28.934   8.087
 1622POPC   C4A24990  36.964  29.005   7.675
 1622POPC   C1B24991  36.723  29.580   8.714
 1622POPC   C2B24992  36.815  29.654   8.326
 1622POPC   C3B24993  36.742  29.393   7.951
 1622POPC   C4B24994  36.567  29.291   7.531
 1623POPC   NC324995   6.940  10.909   9.452
 1623POPC   PO424996   6.549  11.469   9.560
 1623POPC   GL124997   6.626  11.253   9.179
 1623POPC   GL224998   6.389  11.501   9.064
 1623POPC   C1A24999   6.627  10.941   8.842
 1623POPC   D2A25000   6.511  10.886   8.406
 1623POPC   C3A25001   6.619  11.177   8.074
 1623POPC   C4A25002   6.900  11.260   7.741
 1623POPC   C1B25003   6.585  11.414   8.677
 1623POPC   C2B25004   6.562  11.633   8.337
 1623POPC   C3B25005   6.345  11.674   7.990
 1623POPC   C4B25006   6.570  11.642   7.597
 1624POPC   NC325007   6.561  16.666   9.597
 1624POPC   PO425008   6.202  17.157   9.439
 1624POPC   GL125009   6.367  16.841   9.158
 1624POPC   GL225010   6.759  16.750   9.143
 1624POPC   C1A25011   6.434  16.620   8.782
 1624POPC   D2A25012   6.681  16.448   8.484
 1624POPC   C3A25013   6.491  16.565   8.123
 1624POPC   C4A25014   6.638  16.650   7.740
 1624POPC   C1B25015   6.895  16.932   8.757
 1624POPC   C2B25016   6.791  16.931   8.339
 1624POPC   C3B25017   7.002  16.632   8.082
 1624POPC   C4B25018   7.155  16.724   7.685
 1625POPC   NC325019  28.942   9.519   9.567
 1625POPC   PO425020  28.795  10.181   9.666
 1625POPC   GL125021  28.774   9.932   9.263
 1625POPC   GL225022  29.111   9.858   9.156
 1625POPC   C1A25023  28.782   9.941   8.755
 1625POPC   D2A25024  28.714   9.833   8.327
 1625POPC   C3A25025  28.993   9.864   8.007
 1625POPC   C4A25026  29.028   9.514   7.742
 1625POPC   C1B25027  29.285   9.830   8.715
 1625POPC   C2B25028  29.293   9.582   8.365
 1625POPC   C3B25029  29.442   9.646   7.989
 1625POPC   C4B25030  29.399   9.904   7.652
 1626POPC   NC325031   2.042  31.852   9.405
 1626POPC   PO425032   2.044  31.243   9.476
 1626POPC   GL125033   2.179  31.378   9.081
 1626POPC   GL225034   2.281  31.718   8.975
 1626POPC   C1A25035   2.037  31.222   8.678
 1626POPC   D2A25036   1.758  31.325   8.329
 1626POPC   C3A25037   2.037  31.342   7.987
 1626POPC   C4A25038   2.126  31.745   7.838
 1626POPC   C1B25039   1.936  31.748   8.680
 1626POPC   C2B25040   1.638  31.840   8.347
 1626POPC   C3B25041   1.622  31.669   7.946
 1626POPC   C4B25042   1.707  31.883   7.581
 1627POPC   NC325043  14.733  13.273   9.466
 1627POPC   PO425044  14.375  13.924   9.580
 1627POPC   GL125045  14.377  13.620   9.241
 1627POPC   GL225046  14.660  13.762   9.158
 1627POPC   C1A25047  14.204  13.529   8.808
 1627POPC   D2A25048  13.974  13.605   8.397
 1627POPC   C3A25049  14.222  13.558   8.031
 1627POPC   C4A25050  14.388  13.852   7.797
 1627POPC   C1B25051  14.715  13.492   8.777
 1627POPC   C2B25052  14.629  13.365   8.339
 1627POPC   C3B25053  14.723  13.504   7.900
 1627POPC   C4B25054  14.688  13.650   7.433
 1628POPC   NC325055   3.017   3.148   9.727
 1628POPC   PO425056   2.710   3.751   9.490
 1628POPC   GL125057   2.874   3.543   9.160
 1628POPC   GL225058   2.561   3.492   8.976
 1628POPC   C1A25059   3.026   3.605   8.739
 1628POPC   D2A25060   2.966   3.443   8.316
 1628POPC   C3A25061   2.530   3.426   8.143
 1628POPC   C4A25062   2.315   3.076   7.871
 1628POPC   C1B25063   2.543   3.773   8.614
 1628POPC   C2B25064   2.745   3.938   8.230
 1628POPC   C3B25065   2.782   3.880   7.774
 1628POPC   C4B25066   2.932   3.606   7.431
 1629POPC   NC325067  24.127  35.095   9.393
 1629POPC   PO425068  23.489  35.350   9.501
 1629POPC   GL125069  23.717  35.458   9.066
 1629POPC   GL225070  23.851  35.827   9.005
 1629POPC   C1A25071  23.806  35.531   8.602
 1629POPC   D2A25072  24.098  35.283   8.332
 1629POPC   C3A25073  23.933  35.113   7.936
 1629POPC   C4A25074  23.567  35.286   7.789
 1629POPC   C1B25075  23.395  35.756   8.839
 1629POPC   C2B25076  23.325  35.607   8.492
 1629POPC   C3B25077  23.581  35.653   8.146
 1629POPC   C4B25078  23.348  35.762   7.789
 1630POPC   NC325079   9.293  12.308   9.317
 1630POPC   PO425080   9.204  12.897   9.527
 1630POPC   GL125081   9.074  12.778   9.125
 1630POPC   GL225082   8.696  12.730   9.171
 1630POPC   C1A25083   9.230  12.734   8.690
 1630POPC   D2A25084   9.368  12.558   8.277
 1630POPC   C3A25085   9.300  12.829   7.948
 1630POPC   C4A25086   9.193  12.780   7.487
 1630POPC   C1B25087   8.720  12.861   8.740
 1630POPC   C2B25088   8.921  13.067   8.371
 1630POPC   C3B25089   8.795  12.953   7.956
 1630POPC   C4B25090   8.465  12.692   7.798
 1631POPC   NC325091  37.321  44.754   9.589
 1631POPC   PO425092  37.944  44.433   9.582
 1631POPC   GL125093  37.639  44.484   9.253
 1631POPC   GL225094  37.643  44.820   9.093
 1631POPC   C1A25095  37.675  44.342   8.830
 1631POPC   D2A25096  37.509  44.292   8.403
 1631POPC   C3A25097  37.656  44.578   8.092
 1631POPC   C4A25098  37.730  44.579   7.646
 1631POPC   C1B25099  37.452  44.765   8.687
 1631POPC   C2B25100  37.234  44.784   8.331
 1631POPC   C3B25101  37.371   0.013   7.990
 1631POPC   C4B25102  37.653   0.071   7.662
 1632POPC   NC325103  21.648   4.164   9.608
 1632POPC   PO425104  20.979   4.460   9.537
 1632POPC   GL125105  21.301   4.431   9.241
 1632POPC   GL225106  21.397   4.105   9.159
 1632POPC   C1A25107  21.612   4.495   8.922
 1632POPC   D2A25108  21.676   4.466   8.498
 1632POPC   C3A25109  21.610   4.238   8.130
 1632POPC   C4A25110  21.368   4.466   7.805
 1632POPC   C1B25111  21.445   3.782   8.850
 1632POPC   C2B25112  21.363   3.797   8.427
 1632POPC   C3B25113  21.227   3.921   8.024
 1632POPC   C4B25114  21.483   3.973   7.686
 1633POPC   NC325115  42.497  21.658   9.599
 1633POPC   PO425116  42.599  21.074   9.592
 1633POPC   GL125117  42.399  21.298   9.208
 1633POPC   GL225118  42.179  21.626   9.177
 1633POPC   C1A25119  42.412  21.411   8.762
 1633POPC   D2A25120  42.448  21.750   8.467
 1633POPC   C3A25121  42.458  21.626   8.045
 1633POPC   C4A25122  42.760  21.512   7.718
 1633POPC   C1B25123  41.980  21.705   8.753
 1633POPC   C2B25124  41.954  21.662   8.282
 1633POPC   C3B25125  41.991  21.725   7.815
 1633POPC   C4B25126  42.019  21.663   7.358
 1634POPC   NC325127  11.940  43.615   9.490
 1634POPC   PO425128  12.530  43.915   9.552
 1634POPC   GL125129  12.244  43.854   9.169
 1634POPC   GL225130  11.909  44.043   9.205
 1634POPC   C1A25131  12.079  43.726   8.746
 1634POPC   D2A25132  12.246  43.507   8.372
 1634POPC   C3A25133  12.099  43.740   8.026
 1634POPC   C4A25134  12.201  44.012   7.687
 1634POPC   C1B25135  11.733  44.109   8.789
 1634POPC   C2B25136  11.906  44.109   8.359
 1634POPC   C3B25137  11.812  44.265   7.910
 1634POPC   C4B25138  11.922  44.335   7.458
 1635POPC   NC325139  31.727  35.126   9.419
 1635POPC   PO425140  31.367  35.752   9.522
 1635POPC   GL125141  31.443  35.492   9.174
 1635POPC   GL225142  31.233  35.233   9.210
 1635POPC   C1A25143  31.263  35.573   8.763
 1635POPC   D2A25144  31.406  35.708   8.341
 1635POPC   C3A25145  31.503  35.422   8.005
 1635POPC   C4A25146  31.261  35.324   7.648
 1635POPC   C1B25147  31.373  35.084   8.818
 1635POPC   C2B25148  31.456  35.054   8.369
 1635POPC   C3B25149  31.386  34.914   7.923
 1635POPC   C4B25150  31.529  34.910   7.468
 1636POPC   NC325151  28.342  20.111   9.423
 1636POPC   PO425152  28.101  20.685   9.677
 1636POPC   GL125153  28.194  20.595   9.238
 1636POPC   GL225154  28.556  20.684   9.219
 1636POPC   C1A25155  28.240  20.724   8.795
 1636POPC   D2A25156  28.065  20.912   8.387
 1636POPC   C3A25157  28.150  20.745   7.950
 1636POPC   C4A25158  28.152  20.746   7.468
 1636POPC   C1B25159  28.751  20.858   8.827
 1636POPC   C2B25160  28.588  20.779   8.410
 1636POPC   C3B25161  28.679  20.766   7.977
 1636POPC   C4B25162  28.500  20.432   7.723
 1637POPC   NC325163  12.507  40.221   9.738
 1637POPC   PO425164  12.343  39.649   9.814
 1637POPC   GL125165  12.285  39.896   9.381
 1637POPC   GL225166  11.972  39.907   9.239
 1637POPC   C1A25167  12.297  40.179   8.969
 1637POPC   D2A25168  12.339  40.125   8.497
 1637POPC   C3A25169  12.161  40.168   8.048
 1637POPC   C4A25170  12.265  39.784   7.818
 1637POPC   C1B25171  11.933  39.850   8.781
 1637POPC   C2B25172  11.817  39.937   8.354
 1637POPC   C3B25173  11.728  39.805   7.935
 1637POPC   C4B25174  11.836  39.680   7.548
 1638POPC   NC325175  24.888  40.779   9.415
 1638POPC   PO425176  25.506  40.669   9.526
 1638POPC   GL125177  25.366  40.797   9.131
 1638POPC   GL225178  25.487  41.139   9.092
 1638POPC   C1A25179  25.206  40.583   8.729
 1638POPC   D2A25180  25.247  40.731   8.296
 1638POPC   C3A25181  25.177  40.437   7.993
 1638POPC   C4A25182  25.400  40.354   7.619
 1638POPC   C1B25183  25.397  41.058   8.674
 1638POPC   C2B25184  25.498  41.228   8.279
 1638POPC   C3B25185  25.364  41.236   7.867
 1638POPC   C4B25186  25.504  40.879   7.678
 1639POPC   NC325187   4.183  10.042   9.467
 1639POPC   PO425188   4.734   9.657   9.444
 1639POPC   GL125189   4.489   9.797   9.065
 1639POPC   GL225190   4.322  10.112   9.004
 1639POPC   C1A25191   4.383   9.810   8.607
 1639POPC   D2A25192   4.055   9.723   8.314
 1639POPC   C3A25193   4.167   9.532   7.947
 1639POPC   C4A25194   4.607   9.469   7.800
 1639POPC   C1B25195   4.565  10.298   8.715
 1639POPC   C2B25196   4.748  10.119   8.364
 1639POPC   C3B25197   4.523   9.877   8.102
 1639POPC   C4B25198   4.399   9.950   7.724
 1640POPC   NC325199  12.351  15.814   9.840
 1640POPC   PO425200  11.844  16.097   9.548
 1640POPC   GL125201  11.998  15.888   9.193
 1640POPC   GL225202  11.861  15.548   9.196
 1640POPC   C1A25203  12.160  16.081   8.814
 1640POPC   D2A25204  12.367  15.985   8.458
 1640POPC   C3A25205  12.249  16.149   8.075
 1640POPC   C4A25206  12.174  16.020   7.670
 1640POPC   C1B25207  12.015  15.601   8.760
 1640POPC   C2B25208  12.197  15.524   8.329
 1640POPC   C3B25209  12.212  15.549   7.872
 1640POPC   C4B25210  12.044  15.570   7.403
 1641POPC   NC325211  29.413  18.968   9.647
 1641POPC   PO425212  28.829  19.222   9.479
 1641POPC   GL125213  29.074  19.218   9.119
 1641POPC   GL225214  29.226  18.913   9.102
 1641POPC   C1A25215  28.968  19.156   8.672
 1641POPC   D2A25216  29.106  19.262   8.247
 1641POPC   C3A25217  28.880  19.184   7.874
 1641POPC   C4A25218  28.951  18.872   7.574
 1641POPC   C1B25219  29.433  18.951   8.706
 1641POPC   C2B25220  29.380  18.825   8.301
 1641POPC   C3B25221  29.362  18.976   7.864
 1641POPC   C4B25222  29.419  18.985   7.382
 1642POPC   NC325223  35.025  13.404   9.634
 1642POPC   PO425224  35.607  13.681   9.460
 1642POPC   GL125225  35.415  13.719   9.078
 1642POPC   GL225226  35.111  13.716   9.168
 1642POPC   C1A25227  35.306  13.914   8.697
 1642POPC   D2A25228  35.382  14.127   8.337
 1642POPC   C3A25229  35.409  13.833   7.978
 1642POPC   C4A25230  35.527  13.397   7.840
 1642POPC   C1B25231  35.052  13.487   8.771
 1642POPC   C2B25232  35.260  13.346   8.380
 1642POPC   C3B25233  35.038  13.341   8.002
 1642POPC   C4B25234  34.857  13.673   7.820
 1643POPC   NC325235   7.865  38.538   9.451
 1643POPC   PO425236   8.434  38.054   9.506
 1643POPC   GL125237   8.282  38.413   9.168
 1643POPC   GL225238   7.933  38.393   8.976
 1643POPC   C1A25239   8.501  38.602   8.813
 1643POPC   D2A25240   8.513  38.672   8.369
 1643POPC   C3A25241   8.207  38.552   8.027
 1643POPC   C4A25242   8.306  38.445   7.553
 1643POPC   C1B25243   7.757  38.143   8.624
 1643POPC   C2B25244   7.926  38.076   8.217
 1643POPC   C3B25245   7.951  38.176   7.793
 1643POPC   C4B25246   7.820  38.484   7.445
 1644POPC   NC325247  16.812  19.701   9.546
 1644POPC   PO425248  16.319  20.016   9.555
 1644POPC   GL125249  16.595  19.995   9.166
 1644POPC   GL225250  16.972  19.997   9.149
 1644POPC   C1A25251  16.601  19.986   8.696
 1644POPC   D2A25252  16.284  19.858   8.371
 1644POPC   C3A25253  16.368  19.929   7.929
 1644POPC   C4A25254  16.477  19.874   7.514
 1644POPC   C1B25255  17.141  20.051   8.726
 1644POPC   C2B25256  17.132  19.933   8.287
 1644POPC   C3B25257  16.883  19.992   7.903
 1644POPC   C4B25258  16.965  19.977   7.459
 1645POPC   NC325259  35.370  22.434   9.453
 1645POPC   PO425260  35.491  21.821   9.447
 1645POPC   GL125261  35.205  22.053   9.122
 1645POPC   GL225262  35.086  22.434   9.027
 1645POPC   C1A25263  35.349  22.136   8.697
 1645POPC   D2A25264  35.717  22.057   8.441
 1645POPC   C3A25265  35.578  21.879   8.078
 1645POPC   C4A25266  35.471  22.002   7.654
 1645POPC   C1B25267  35.506  22.615   8.801
 1645POPC   C2B25268  35.728  22.588   8.360
 1645POPC   C3B25269  35.542  22.394   7.990
 1645POPC   C4B25270  35.083  22.297   7.928
 1646POPC   NC325271  42.781  40.183   9.484
 1646POPC   PO425272  42.048  40.160   9.542
 1646POPC   GL125273  42.347  40.125   9.219
 1646POPC   GL225274  42.512  39.809   9.198
 1646POPC   C1A25275  42.417  40.180   8.788
 1646POPC   D2A25276  42.098  40.174   8.443
 1646POPC   C3A25277  42.210  40.226   8.001
 1646POPC   C4A25278  42.545  40.104   7.711
 1646POPC   C1B25279  42.595  39.704   8.752
 1646POPC   C2B25280  42.518  39.862   8.307
 1646POPC   C3B25281  42.597  39.636   7.899
 1646POPC   C4B25282  42.492  39.597   7.439
 1647POPC   NC325283  30.497  18.082   9.455
 1647POPC   PO425284  30.244  18.692   9.341
 1647POPC   GL125285  30.601  18.539   9.046
 1647POPC   GL225286  30.688  18.174   8.987
 1647POPC   C1A25287  30.960  18.542   8.759
 1647POPC   D2A25288  31.040  18.149   8.535
 1647POPC   C3A25289  30.828  18.157   8.118
 1647POPC   C4A25290  31.045  18.086   7.720
 1647POPC   C1B25291  30.508  18.315   8.596
 1647POPC   C2B25292  30.412  18.575   8.254
 1647POPC   C3B25293  30.594  18.570   7.857
 1647POPC   C4B25294  30.576  18.231   7.613
 1648POPC   NC325295  17.383  38.621   9.571
 1648POPC   PO425296  17.492  38.004   9.367
 1648POPC   GL125297  17.505  38.382   9.136
 1648POPC   GL225298  17.754  38.645   9.207
 1648POPC   C1A25299  17.360  38.518   8.769
 1648POPC   D2A25300  17.512  38.513   8.379
 1648POPC   C3A25301  17.280  38.396   8.041
 1648POPC   C4A25302  17.149  38.603   7.671
 1648POPC   C1B25303  17.882  38.531   8.805
 1648POPC   C2B25304  17.963  38.713   8.405
 1648POPC   C3B25305  17.897  38.406   8.046
 1648POPC   C4B25306  17.639  38.335   7.694
 1649POPC   NC325307  12.073  10.473   9.487
 1649POPC   PO425308  11.905  10.955   9.163
 1649POPC   GL125309  11.880  10.567   8.998
 1649POPC   GL225310  12.195  10.354   9.005
 1649POPC   C1A25311  11.697  10.570   8.623
 1649POPC   D2A25312  11.883  10.459   8.318
 1649POPC   C3A25313  11.803  10.717   8.019
 1649POPC   C4A25314  11.705  10.548   7.648
 1649POPC   C1B25315  12.284  10.592   8.653
 1649POPC   C2B25316  12.393  10.519   8.241
 1649POPC   C3B25317  12.195  10.398   7.892
 1649POPC   C4B25318  12.173  10.720   7.608
 1650POPC   NC325319   7.330  16.250   9.352
 1650POPC   PO425320   7.613  15.644   9.497
 1650POPC   GL125321   7.529  15.626   9.050
 1650POPC   GL225322   7.269  15.854   9.021
 1650POPC   C1A25323   7.466  15.652   8.580
 1650POPC   D2A25324   7.617  15.915   8.224
 1650POPC   C3A25325   7.577  15.704   7.799
 1650POPC   C4A25326   7.478  15.776   7.358
 1650POPC   C1B25327   7.000  16.134   8.772
 1650POPC   C2B25328   7.096  16.188   8.343
 1650POPC   C3B25329   7.222  16.059   7.948
 1650POPC   C4B25330   7.285  16.242   7.584
 1651POPC   NC325331  32.373  18.040   9.561
 1651POPC   PO425332  31.808  18.387   9.374
 1651POPC   GL125333  32.101  18.187   9.130
 1651POPC   GL225334  31.935  17.846   9.201
 1651POPC   C1A25335  32.427  18.213   8.782
 1651POPC   D2A25336  32.697  18.326   8.421
 1651POPC   C3A25337  32.435  18.238   8.084
 1651POPC   C4A25338  32.292  18.390   7.716
 1651POPC   C1B25339  32.026  17.870   8.740
 1651POPC   C2B25340  32.051  18.233   8.444
 1651POPC   C3B25341  31.926  18.189   8.031
 1651POPC   C4B25342  32.109  17.864   7.751
 1652POPC   NC325343  25.920  38.168   9.583
 1652POPC   PO425344  26.455  38.490   9.667
 1652POPC   GL125345  26.239  38.478   9.236
 1652POPC   GL225346  25.885  38.406   9.142
 1652POPC   C1A25347  26.213  38.502   8.775
 1652POPC   D2A25348  26.341  38.779   8.457
 1652POPC   C3A25349  26.442  38.663   8.064
 1652POPC   C4A25350  26.230  38.609   7.673
 1652POPC   C1B25351  25.682  38.502   8.743
 1652POPC   C2B25352  25.598  38.419   8.305
 1652POPC   C3B25353  25.739  38.506   7.885
 1652POPC   C4B25354  25.802  38.292   7.481
 1653POPC   NC325355   2.945  37.847   9.573
 1653POPC   PO425356   3.138  37.184   9.677
 1653POPC   GL125357   3.005  37.438   9.273
 1653POPC   GL225358   2.673  37.624   9.199
 1653POPC   C1A25359   3.087  37.763   8.896
 1653POPC   D2A25360   2.912  37.977   8.445
 1653POPC   C3A25361   2.887  37.821   8.015
 1653POPC   C4A25362   2.793  37.415   7.788
 1653POPC   C1B25363   2.614  37.669   8.732
 1653POPC   C2B25364   2.677  37.444   8.337
 1653POPC   C3B25365   2.382  37.251   8.065
 1653POPC   C4B25366   2.278  37.519   7.765
 1654POPC   NC325367   4.461  19.005   9.451
 1654POPC   PO425368   4.256  19.590   9.611
 1654POPC   GL125369   4.228  19.357   9.171
 1654POPC   GL225370   4.549  19.368   8.987
 1654POPC   C1A25371   4.200  18.968   8.863
 1654POPC   D2A25372   4.135  18.963   8.406
 1654POPC   C3A25373   4.376  19.170   8.066
 1654POPC   C4A25374   4.314  19.047   7.627
 1654POPC   C1B25375   4.682  18.974   8.758
 1654POPC   C2B25376   4.641  18.762   8.338
 1654POPC   C3B25377   4.823  18.899   7.939
 1654POPC   C4B25378   4.783  19.193   7.574
 1655POPC   NC325379  30.055  20.824   9.700
 1655POPC   PO425380  29.813  21.448   9.419
 1655POPC   GL125381  29.721  21.100   9.139
 1655POPC   GL225382  30.039  20.920   9.206
 1655POPC   C1A25383  29.704  21.201   8.679
 1655POPC   D2A25384  29.943  21.502   8.394
 1655POPC   C3A25385  29.806  21.509   7.973
 1655POPC   C4A25386  29.679  21.612   7.548
 1655POPC   C1B25387  30.258  21.046   8.849
 1655POPC   C2B25388  30.132  21.016   8.429
 1655POPC   C3B25389  30.204  21.177   8.013
 1655POPC   C4B25390  30.082  21.311   7.599
 1656POPC   NC325391  25.178  24.840   9.581
 1656POPC   PO425392  25.541  24.283   9.735
 1656POPC   GL125393  25.315  24.369   9.302
 1656POPC   GL225394  25.323  24.661   9.141
 1656POPC   C1A25395  25.308  24.258   8.820
 1656POPC   D2A25396  25.023  24.345   8.421
 1656POPC   C3A25397  25.173  24.336   7.984
 1656POPC   C4A25398  25.603  24.270   7.915
 1656POPC   C1B25399  25.089  24.726   8.782
 1656POPC   C2B25400  25.208  24.828   8.355
 1656POPC   C3B25401  25.108  24.846   7.898
 1656POPC   C4B25402  25.002  24.635   7.490
 1657POPC   NC325403  10.665  22.967   9.450
 1657POPC   PO425404  10.014  22.747   9.491
 1657POPC   GL125405  10.305  22.757   9.167
 1657POPC   GL225406  10.191  23.051   9.055
 1657POPC   C1A25407  10.653  22.709   8.855
 1657POPC   D2A25408  10.661  22.835   8.430
 1657POPC   C3A25409  10.514  22.606   8.088
 1657POPC   C4A25410  10.392  22.916   7.793
 1657POPC   C1B25411  10.451  23.213   8.720
 1657POPC   C2B25412  10.669  23.353   8.318
 1657POPC   C3B25413  10.563  23.402   7.841
 1657POPC   C4B25414  10.223  23.413   7.510
 1658POPC   NC325415  10.866  44.825   9.468
 1658POPC   PO425416  10.115  44.646   9.405
 1658POPC   GL125417  10.356  44.499   9.115
 1658POPC   GL225418  10.664  44.554   9.120
 1658POPC   C1A25419  10.410  44.554   8.684
 1658POPC   D2A25420  10.336  44.245   8.389
 1658POPC   C3A25421  10.355  44.470   8.022
 1658POPC   C4A25422  10.196  44.455   7.615
 1658POPC   C1B25423  10.863  44.800   8.778
 1658POPC   C2B25424  10.741  44.837   8.335
 1658POPC   C3B25425  10.850  44.790   7.885
 1658POPC   C4B25426  10.658  44.638   7.473
 1659POPC   NC325427  38.571  41.673   9.829
 1659POPC   PO425428  38.035  41.474   9.397
 1659POPC   GL125429  38.244  41.333   9.017
 1659POPC   GL225430  38.630  41.329   8.971
 1659POPC   C1A25431  38.269  41.360   8.594
 1659POPC   D2A25432  38.066  41.317   8.235
 1659POPC   C3A25433  38.445  41.393   8.049
 1659POPC   C4A25434  38.565  41.210   7.672
 1659POPC   C1B25435  38.669  41.755   8.755
 1659POPC   C2B25436  38.584  42.023   8.448
 1659POPC   C3B25437  38.626  41.902   8.050
 1659POPC   C4B25438  38.544  41.723   7.680
 1660POPC   NC325439  29.752  27.458   9.511
 1660POPC   PO425440  29.118  27.822   9.621
 1660POPC   GL125441  29.257  27.567   9.206
 1660POPC   GL225442  29.066  27.218   9.140
 1660POPC   C1A25443  29.235  27.558   8.717
 1660POPC   D2A25444  29.076  27.788   8.322
 1660POPC   C3A25445  29.207  27.670   7.887
 1660POPC   C4A25446  29.502  27.832   7.582
 1660POPC   C1B25447  28.789  27.279   8.766
 1660POPC   C2B25448  28.939  27.311   8.312
 1660POPC   C3B25449  28.839  27.282   7.873
 1660POPC   C4B25450  29.007  27.104   7.498
 1661POPC   NC325451  26.382   8.514   9.513
 1661POPC   PO425452  25.691   8.440   9.489
 1661POPC   GL125453  25.932   8.225   9.155
 1661POPC   GL225454  26.296   8.302   9.082
 1661POPC   C1A25455  26.045   8.041   8.744
 1661POPC   D2A25456  25.984   8.279   8.364
 1661POPC   C3A25457  25.963   8.022   8.024
 1661POPC   C4A25458  25.690   7.982   7.698
 1661POPC   C1B25459  26.207   8.523   8.755
 1661POPC   C2B25460  26.409   8.615   8.353
 1661POPC   C3B25461  26.375   8.554   7.918
 1661POPC   C4B25462  26.006   8.398   7.689
 1662POPC   NC325463  11.243  33.766   9.705
 1662POPC   PO425464  11.379  34.336   9.661
 1662POPC   GL125465  11.194  34.064   9.252
 1662POPC   GL225466  11.224  33.743   9.111
 1662POPC   C1A25467  11.242  34.065   8.756
 1662POPC   D2A25468  11.543  33.886   8.468
 1662POPC   C3A25469  11.397  34.002   8.070
 1662POPC   C4A25470  11.512  34.120   7.666
 1662POPC   C1B25471  11.258  33.535   8.728
 1662POPC   C2B25472  11.142  33.620   8.296
 1662POPC   C3B25473  11.431  33.515   7.940
 1662POPC   C4B25474  11.394  33.187   7.640
 1663POPC   NC325475  33.855  34.015   9.449
 1663POPC   PO425476  33.327  33.666   9.565
 1663POPC   GL125477  33.416  33.863   9.183
 1663POPC   GL225478  33.687  33.648   9.131
 1663POPC   C1A25479  33.604  34.087   8.833
 1663POPC   D2A25480  33.789  34.117   8.418
 1663POPC   C3A25481  33.644  33.943   8.022
 1663POPC   C4A25482  33.960  33.721   7.763
 1663POPC   C1B25483  33.752  33.616   8.690
 1663POPC   C2B25484  33.510  33.486   8.335
 1663POPC   C3B25485  33.568  33.416   7.892
 1663POPC   C4B25486  33.398  33.243   7.528
 1664POPC   NC325487  34.747  43.938   9.597
 1664POPC   PO425488  34.304  43.369   9.364
 1664POPC   GL125489  34.528  43.692   9.181
 1664POPC   GL225490  34.360  44.001   9.261
 1664POPC   C1A25491  34.638  43.724   8.770
 1664POPC   D2A25492  34.440  43.748   8.401
 1664POPC   C3A25493  34.575  43.958   8.082
 1664POPC   C4A25494  34.536  43.773   7.718
 1664POPC   C1B25495  34.590  44.196   8.941
 1664POPC   C2B25496  34.667  44.229   8.515
 1664POPC   C3B25497  34.941  44.323   8.155
 1664POPC   C4B25498  34.843  44.190   7.716
 1665POPC   NC325499  44.973  14.108   9.748
 1665POPC   PO425500  44.368  13.905   9.769
 1665POPC   GL125501  44.492  14.123   9.320
 1665POPC   GL225502  44.801  14.305   9.170
 1665POPC   C1A25503  44.475  14.163   8.821
 1665POPC   D2A25504  44.507  14.502   8.496
 1665POPC   C3A25505  44.563  14.403   8.059
 1665POPC   C4A25506  44.833  14.462   7.737
 1665POPC   C1B25507  44.961  14.432   8.737
 1665POPC   C2B25508   0.067  14.519   8.264
 1665POPC   C3B25509   0.020  14.879   7.927
 1665POPC   C4B25510  44.666  14.947   7.604
 1666POPC   NC325511  21.223  25.220   9.518
 1666POPC   PO425512  21.788  24.900   9.342
 1666POPC   GL125513  21.457  25.120   9.075
 1666POPC   GL225514  21.094  24.998   9.079
 1666POPC   C1A25515  21.279  25.324   8.693
 1666POPC   D2A25516  21.251  25.186   8.267
 1666POPC   C3A25517  21.202  25.512   7.969
 1666POPC   C4A25518  21.413  25.531   7.581
 1666POPC   C1B25519  20.817  24.991   8.758
 1666POPC   C2B25520  20.762  24.993   8.335
 1666POPC   C3B25521  20.911  24.882   7.989
 1666POPC   C4B25522  21.268  25.045   7.762
 1667POPC   NC325523  30.100  40.408   9.475
 1667POPC   PO425524  29.708  40.910   9.639
 1667POPC   GL125525  29.866  40.839   9.220
 1667POPC   GL225526  30.243  40.878   9.254
 1667POPC   C1A25527  29.833  40.646   8.788
 1667POPC   D2A25528  29.677  40.685   8.347
 1667POPC   C3A25529  29.979  40.665   7.999
 1667POPC   C4A25530  29.781  40.727   7.582
 1667POPC   C1B25531  30.236  40.990   8.830
 1667POPC   C2B25532  30.096  40.981   8.428
 1667POPC   C3B25533  30.323  41.074   8.054
 1667POPC   C4B25534  30.195  41.005   7.664
 1668POPC   NC325535   7.392  21.003   9.468
 1668POPC   PO425536   7.203  21.594   9.434
 1668POPC   GL125537   7.415  21.391   9.120
 1668POPC   GL225538   7.730  21.521   9.217
 1668POPC   C1A25539   7.300  21.302   8.702
 1668POPC   D2A25540   7.395  21.537   8.366
 1668POPC   C3A25541   7.333  21.284   8.041
 1668POPC   C4A25542   7.419  21.354   7.611
 1668POPC   C1B25543   7.780  21.483   8.761
 1668POPC   C2B25544   7.923  21.550   8.350
 1668POPC   C3B25545   7.794  21.492   7.952
 1668POPC   C4B25546   7.894  21.453   7.503
 1669POPC   NC325547  27.403  42.207   9.392
 1669POPC   PO425548  27.743  42.783   9.200
 1669POPC   GL125549  27.733  42.380   8.996
 1669POPC   GL225550  27.934  42.142   9.113
 1669POPC   C1A25551  27.530  42.034   8.737
 1669POPC   D2A25552  27.553  41.835   8.304
 1669POPC   C3A25553  27.524  42.029   7.865
 1669POPC   C4A25554  27.654  42.454   7.662
 1669POPC   C1B25555  28.046  42.095   8.675
 1669POPC   C2B25556  27.975  42.103   8.217
 1669POPC   C3B25557  28.030  42.143   7.777
 1669POPC   C4B25558  27.849  42.079   7.348
 1670POPC   NC325559   3.529  26.522   9.391
 1670POPC   PO425560   3.369  27.027   9.698
 1670POPC   GL125561   3.541  26.993   9.177
 1670POPC   GL225562   3.346  27.220   8.912
 1670POPC   C1A25563   3.786  26.758   8.778
 1670POPC   D2A25564   3.754  26.470   8.362
 1670POPC   C3A25565   3.706  26.602   7.882
 1670POPC   C4A25566   3.456  26.387   7.524
 1670POPC   C1B25567   3.287  26.804   8.685
 1670POPC   C2B25568   3.301  26.667   8.247
 1670POPC   C3B25569   3.225  26.768   7.812
 1670POPC   C4B25570   3.392  27.060   7.509
 1671POPC   NC325571  44.983   5.699   9.451
 1671POPC   PO425572   0.634   5.818   9.526
 1671POPC   GL125573   0.439   5.689   9.156
 1671POPC   GL225574   0.250   5.956   9.099
 1671POPC   C1A25575   0.355   5.668   8.695
 1671POPC   D2A25576   0.247   5.440   8.341
 1671POPC   C3A25577   0.422   5.682   8.037
 1671POPC   C4A25578   0.338   5.938   7.701
 1671POPC   C1B25579   0.589   6.121   8.836
 1671POPC   C2B25580   0.619   6.010   8.398
 1671POPC   C3B25581   0.694   6.181   7.976
 1671POPC   C4B25582   0.723   6.213   7.484
 1672POPC   NC325583  33.382   0.982   9.453
 1672POPC   PO425584  33.967   1.318   9.564
 1672POPC   GL125585  33.807   1.229   9.170
 1672POPC   GL225586  33.485   1.400   9.153
 1672POPC   C1A25587  33.978   1.230   8.748
 1672POPC   D2A25588  34.087   0.973   8.368
 1672POPC   C3A25589  34.013   1.180   7.958
 1672POPC   C4A25590  33.993   1.040   7.529
 1672POPC   C1B25591  33.444   1.120   8.811
 1672POPC   C2B25592  33.607   1.142   8.404
 1672POPC   C3B25593  33.527   1.347   8.016
 1672POPC   C4B25594  33.499   1.067   7.671
 1673POPC   NC325595  26.464  37.606   9.559
 1673POPC   PO425596  25.835  37.715   9.545
 1673POPC   GL125597  26.095  37.730   9.215
 1673POPC   GL225598  26.167  37.374   9.175
 1673POPC   C1A25599  26.195  37.991   8.884
 1673POPC   D2A25600  25.968  38.125   8.516
 1673POPC   C3A25601  26.132  38.239   8.108
 1673POPC   C4A25602  26.268  38.101   7.691
 1673POPC   C1B25603  26.018  37.527   8.744
 1673POPC   C2B25604  26.260  37.709   8.381
 1673POPC   C3B25605  26.142  37.678   7.966
 1673POPC   C4B25606  25.765  37.462   7.887
 1674POPC   NC325607  40.028  21.047   9.535
 1674POPC   PO425608  40.478  21.540   9.411
 1674POPC   GL125609  40.061  21.483   9.152
 1674POPC   GL225610  39.775  21.757   9.119
 1674POPC   C1A25611  39.995  21.294   8.766
 1674POPC   D2A25612  40.236  21.389   8.392
 1674POPC   C3A25613  40.047  21.194   8.026
 1674POPC   C4A25614  40.043  21.115   7.583
 1674POPC   C1B25615  39.914  21.781   8.685
 1674POPC   C2B25616  39.871  21.699   8.231
 1674POPC   C3B25617  39.900  21.651   7.812
 1674POPC   C4B25618  40.014  21.931   7.512
 1675POPC   NC325619  29.829  18.520   9.479
 1675POPC   PO425620  30.045  17.942   9.424
 1675POPC   GL125621  29.867  18.112   9.110
 1675POPC   GL225622  30.163  18.283   9.022
 1675POPC   C1A25623  29.727  18.307   8.750
 1675POPC   D2A25624  29.936  18.402   8.380
 1675POPC   C3A25625  29.683  18.358   8.027
 1675POPC   C4A25626  29.690  18.080   7.691
 1675POPC   C1B25627  30.139  17.969   8.689
 1675POPC   C2B25628  30.346  17.918   8.287
 1675POPC   C3B25629  30.195  18.173   7.970
 1675POPC   C4B25630  30.084  18.504   7.756
 1676POPC   NC325631  40.311  11.373   9.790
 1676POPC   PO425632  40.949  11.283   9.426
 1676POPC   GL125633  40.953  11.077   9.068
 1676POPC   GL225634  40.600  10.971   9.129
 1676POPC   C1A25635  41.097  11.173   8.647
 1676POPC   D2A25636  40.851  11.397   8.347
 1676POPC   C3A25637  40.997  11.552   7.975
 1676POPC   C4A25638  40.733  11.681   7.652
 1676POPC   C1B25639  40.582  11.158   8.709
 1676POPC   C2B25640  40.444  11.061   8.271
 1676POPC   C3B25641  40.688  11.177   7.901
 1676POPC   C4B25642  40.630  11.231   7.408
 1677POPC   NC325643  11.726  28.244   9.447
 1677POPC   PO425644  12.364  28.213   9.505
 1677POPC   GL125645  12.103  28.237   9.099
 1677POPC   GL225646  11.825  28.518   9.039
 1677POPC   C1A25647  12.042  28.235   8.642
 1677POPC   D2A25648  12.371  28.115   8.339
 1677POPC   C3A25649  12.190  28.216   7.966
 1677POPC   C4A25650  11.813  28.322   7.763
 1677POPC   C1B25651  12.211  28.672   8.815
 1677POPC   C2B25652  12.264  28.615   8.358
 1677POPC   C3B25653  12.034  28.719   7.996
 1677POPC   C4B25654  11.585  28.791   7.921
 1678POPC   NC325655   4.041  29.528   9.530
 1678POPC   PO425656   4.506  29.086   9.726
 1678POPC   GL125657   4.378  29.152   9.219
 1678POPC   GL225658   4.079  29.342   9.055
 1678POPC   C1A25659   4.429  29.231   8.724
 1678POPC   D2A25660   4.618  29.151   8.327
 1678POPC   C3A25661   4.413  29.162   7.952
 1678POPC   C4A25662   4.329  29.118   7.519
 1678POPC   C1B25663   3.932  29.039   8.756
 1678POPC   C2B25664   4.092  29.055   8.352
 1678POPC   C3B25665   3.905  29.163   7.966
 1678POPC   C4B25666   4.102  28.776   7.813
 1679POPC   NC325667  42.724  39.138   9.348
 1679POPC   PO425668  42.946  39.727   9.465
 1679POPC   GL125669  42.973  39.558   9.095
 1679POPC   GL225670  43.203  39.308   9.120
 1679POPC   C1A25671  43.102  39.554   8.670
 1679POPC   D2A25672  43.465  39.578   8.399
 1679POPC   C3A25673  43.346  39.456   7.980
 1679POPC   C4A25674  43.502  39.239   7.623
 1679POPC   C1B25675  43.537  39.254   8.810
 1679POPC   C2B25676  43.632  39.056   8.409
 1679POPC   C3B25677  43.431  38.935   8.015
 1679POPC   C4B25678  43.047  39.004   7.770
 1680POPC   NC325679   5.360  35.306   9.535
 1680POPC   PO425680   4.963  35.827   9.374
 1680POPC   GL125681   5.059  35.429   9.124
 1680POPC   GL225682   5.144  35.052   9.149
 1680POPC   C1A25683   5.189  35.279   8.717
 1680POPC   D2A25684   5.321  35.422   8.389
 1680POPC   C3A25685   5.048  35.373   8.089
 1680POPC   C4A25686   5.261  35.375   7.733
 1680POPC   C1B25687   4.868  34.904   8.845
 1680POPC   C2B25688   4.765  35.078   8.426
 1680POPC   C3B25689   4.830  34.907   8.028
 1680POPC   C4B25690   4.934  34.905   7.569
 1681POPC   NC325691  15.144  31.752   9.678
 1681POPC   PO425692  14.902  31.119   9.619
 1681POPC   GL125693  15.177  31.369   9.327
 1681POPC   GL225694  15.121  31.713   9.161
 1681POPC   C1A25695  15.311  31.321   8.902
 1681POPC   D2A25696  15.124  31.276   8.531
 1681POPC   C3A25697  15.284  31.283   8.125
 1681POPC   C4A25698  15.137  31.440   7.761
 1681POPC   C1B25699  15.007  31.747   8.718
 1681POPC   C2B25700  15.019  31.700   8.271
 1681POPC   C3B25701  14.910  31.863   7.903
 1681POPC   C4B25702  15.170  31.919   7.560
 1682POPC   NC325703  22.001  27.689   9.571
 1682POPC   PO425704  22.442  27.270   9.364
 1682POPC   GL125705  22.172  27.467   9.122
 1682POPC   GL225706  22.242  27.816   9.156
 1682POPC   C1A25707  22.004  27.384   8.734
 1682POPC   D2A25708  22.042  27.169   8.356
 1682POPC   C3A25709  22.031  27.447   8.006
 1682POPC   C4A25710  22.096  27.371   7.601
 1682POPC   C1B25711  22.046  27.911   8.799
 1682POPC   C2B25712  22.165  27.817   8.392
 1682POPC   C3B25713  22.026  27.952   8.011
 1682POPC   C4B25714  22.096  27.873   7.623
 1683POPC   NC325715  25.378  37.854   9.487
 1683POPC   PO425716  24.972  37.303   9.491
 1683POPC   GL125717  25.216  37.498   9.129
 1683POPC   GL225718  25.597  37.505   9.166
 1683POPC   C1A25719  25.191  37.627   8.680
 1683POPC   D2A25720  24.987  37.482   8.274
 1683POPC   C3A25721  25.231  37.505   7.870
 1683POPC   C4A25722  25.077  37.625   7.443
 1683POPC   C1B25723  25.635  37.870   8.860
 1683POPC   C2B25724  25.527  37.908   8.403
 1683POPC   C3B25725  25.697  37.979   7.986
 1683POPC   C4B25726  25.442  37.931   7.630
 1684POPC   NC325727   9.150  40.858   9.519
 1684POPC   PO425728   8.771  40.404   9.325
 1684POPC   GL125729   8.902  40.748   9.061
 1684POPC   GL225730   8.795  41.097   9.210
 1684POPC   C1A25731   9.009  40.745   8.608
 1684POPC   D2A25732   8.876  40.613   8.185
 1684POPC   C3A25733   9.101  40.880   7.884
 1684POPC   C4A25734   9.465  41.123   7.847
 1684POPC   C1B25735   8.724  41.156   8.778
 1684POPC   C2B25736   8.642  41.302   8.352
 1684POPC   C3B25737   8.630  41.073   7.937
 1684POPC   C4B25738   8.803  41.106   7.505
 1685POPC   NC325739  13.080  16.969   9.591
 1685POPC   PO425740  12.637  16.503   9.408
 1685POPC   GL125741  12.967  16.665   9.112
 1685POPC   GL225742  13.217  16.944   9.116
 1685POPC   C1A25743  12.919  16.676   8.655
 1685POPC   D2A25744  12.942  16.658   8.206
 1685POPC   C3A25745  12.669  16.467   7.897
 1685POPC   C4A25746  12.656  16.720   7.498
 1685POPC   C1B25747  13.303  17.195   8.782
 1685POPC   C2B25748  13.180  17.069   8.394
 1685POPC   C3B25749  13.282  16.980   7.993
 1685POPC   C4B25750  13.024  17.033   7.657
 1686POPC   NC325751   6.192  33.361   9.381
 1686POPC   PO425752   6.693  32.772   9.459
 1686POPC   GL125753   6.633  32.838   9.066
 1686POPC   GL225754   6.598  33.165   9.052
 1686POPC   C1A25755   6.433  32.838   8.676
 1686POPC   D2A25756   6.758  33.115   8.515
 1686POPC   C3A25757   6.750  33.204   8.083
 1686POPC   C4A25758   6.607  33.029   7.670
 1686POPC   C1B25759   6.965  33.402   8.878
 1686POPC   C2B25760   7.199  33.394   8.464
 1686POPC   C3B25761   7.215  33.439   8.024
 1686POPC   C4B25762   7.108  33.129   7.692
 1687POPC   NC325763  12.160  42.570   9.789
 1687POPC   PO425764  11.821  42.054   9.389
 1687POPC   GL125765  12.105  42.255   9.122
 1687POPC   GL225766  12.451  42.180   9.161
 1687POPC   C1A25767  12.119  42.498   8.743
 1687POPC   D2A25768  11.790  42.519   8.451
 1687POPC   C3A25769  11.956  42.571   8.052
 1687POPC   C4A25770  11.878  42.331   7.688
 1687POPC   C1B25771  12.415  42.061   8.737
 1687POPC   C2B25772  12.313  42.268   8.318
 1687POPC   C3B25773  12.384  42.369   7.876
 1687POPC   C4B25774  12.331  42.139   7.500
 1688POPC   NC325775  29.242  25.008   9.775
 1688POPC   PO425776  28.931  25.418   9.392
 1688POPC   GL125777  29.287  25.212   9.236
 1688POPC   GL225778  29.460  25.499   9.102
 1688POPC   C1A25779  29.383  25.012   8.843
 1688POPC   D2A25780  29.304  24.672   8.515
 1688POPC   C3A25781  29.107  24.844   8.126
 1688POPC   C4A25782  29.279  25.082   7.815
 1688POPC   C1B25783  29.155  25.509   8.748
 1688POPC   C2B25784  29.285  25.617   8.319
 1688POPC   C3B25785  29.216  25.582   7.885
 1688POPC   C4B25786  28.913  25.371   7.627
 1689POPC   NC325787  37.265  25.206   9.500
 1689POPC   PO425788  36.589  25.327   9.600
 1689POPC   GL125789  36.786  25.382   9.228
 1689POPC   GL225790  36.745  25.734   9.173
 1689POPC   C1A25791  36.684  25.356   8.783
 1689POPC   D2A25792  36.734  25.159   8.409
 1689POPC   C3A25793  36.714  25.437   8.093
 1689POPC   C4A25794  36.756  25.487   7.679
 1689POPC   C1B25795  37.101  25.622   8.890
 1689POPC   C2B25796  37.144  25.456   8.463
 1689POPC   C3B25797  37.212  25.581   8.037
 1689POPC   C4B25798  37.596  25.627   7.844
 1690POPC   NC325799  29.009  34.237   9.617
 1690POPC   PO425800  29.215  34.869   9.497
 1690POPC   GL125801  29.057  34.677   9.163
 1690POPC   GL225802  29.295  34.425   9.135
 1690POPC   C1A25803  29.116  34.815   8.731
 1690POPC   D2A25804  28.864  34.887   8.334
 1690POPC   C3A25805  29.095  34.807   7.982
 1690POPC   C4A25806  29.014  34.597   7.622
 1690POPC   C1B25807  29.505  34.443   8.741
 1690POPC   C2B25808  29.591  34.217   8.369
 1690POPC   C3B25809  29.450  34.375   7.966
 1690POPC   C4B25810  29.410  34.318   7.509
 1691POPC   NC325811  14.901  35.052   9.420
 1691POPC   PO425812  15.489  35.331   9.504
 1691POPC   GL125813  15.244  35.404   9.114
 1691POPC   GL225814  15.044  35.175   8.954
 1691POPC   C1A25815  15.404  35.580   8.747
 1691POPC   D2A25816  15.625  35.478   8.354
 1691POPC   C3A25817  15.451  35.559   7.916
 1691POPC   C4A25818  15.298  35.332   7.545
 1691POPC   C1B25819  14.760  35.144   8.623
 1691POPC   C2B25820  14.764  35.334   8.217
 1691POPC   C3B25821  14.853  35.241   7.760
 1691POPC   C4B25822  14.933  35.005   7.326
 1692POPC   NC325823  13.106  44.660   9.454
 1692POPC   PO425824  12.428  44.889   9.356
 1692POPC   GL125825  12.527  44.732   8.955
 1692POPC   GL225826  12.807  44.569   9.069
 1692POPC   C1A25827  12.879  44.828   8.637
 1692POPC   D2A25828  12.820   0.082   8.296
 1692POPC   C3A25829  12.657  44.813   7.974
 1692POPC   C4A25830  12.996  44.773   7.707
 1692POPC   C1B25831  12.730  44.332   8.716
 1692POPC   C2B25832  12.723  44.450   8.332
 1692POPC   C3B25833  12.885  44.331   7.976
 1692POPC   C4B25834  12.689  44.352   7.628
 1693POPC   NC325835  43.302   9.308   9.633
 1693POPC   PO425836  42.948   8.709   9.534
 1693POPC   GL125837  42.938   8.899   9.172
 1693POPC   GL225838  43.125   9.161   9.175
 1693POPC   C1A25839  43.010   8.752   8.776
 1693POPC   D2A25840  42.806   8.714   8.402
 1693POPC   C3A25841  43.069   8.812   8.110
 1693POPC   C4A25842  42.937   8.906   7.729
 1693POPC   C1B25843  43.312   9.171   8.769
 1693POPC   C2B25844  43.189   9.359   8.380
 1693POPC   C3B25845  43.219   9.283   7.947
 1693POPC   C4B25846  43.454   8.977   7.771
 1694POPC   NC325847  28.844  12.991   9.636
 1694POPC   PO425848  29.366  12.525   9.475
 1694POPC   GL125849  29.229  12.563   9.060
 1694POPC   GL225850  29.120  12.887   9.122
 1694POPC   C1A25851  29.214  12.711   8.654
 1694POPC   D2A25852  29.150  13.089   8.456
 1694POPC   C3A25853  29.216  12.953   8.048
 1694POPC   C4A25854  29.113  12.908   7.603
 1694POPC   C1B25855  29.504  13.047   8.892
 1694POPC   C2B25856  29.641  12.976   8.467
 1694POPC   C3B25857  29.654  13.229   8.129
 1694POPC   C4B25858  29.563  13.159   7.737
 1695POPC   NC325859  35.316  14.059   9.510
 1695POPC   PO425860  34.974  14.631   9.531
 1695POPC   GL125861  35.310  14.559   9.145
 1695POPC   GL225862  35.449  14.229   9.066
 1695POPC   C1A25863  35.353  14.785   8.771
 1695POPC   D2A25864  35.057  14.770   8.447
 1695POPC   C3A25865  35.215  14.549   8.096
 1695POPC   C4A25866  35.157  14.394   7.683
 1695POPC   C1B25867  35.660  14.383   8.749
 1695POPC   C2B25868  35.674  14.570   8.351
 1695POPC   C3B25869  35.681  14.331   7.962
 1695POPC   C4B25870  35.605  14.224   7.536
 1696POPC   NC325871  38.164  15.443   9.459
 1696POPC   PO425872  38.597  14.899   9.390
 1696POPC   GL125873  38.218  14.968   9.064
 1696POPC   GL225874  38.050  15.301   8.997
 1696POPC   C1A25875  38.135  15.016   8.609
 1696POPC   D2A25876  38.189  15.275   8.274
 1696POPC   C3A25877  38.389  15.113   7.912
 1696POPC   C4A25878  38.747  15.224   7.641
 1696POPC   C1B25879  38.091  15.604   8.661
 1696POPC   C2B25880  38.336  15.791   8.328
 1696POPC   C3B25881  38.414  15.624   7.935
 1696POPC   C4B25882  38.012  15.457   7.841
 1697POPC   NC325883   6.146  24.789   9.490
 1697POPC   PO425884   5.582  24.411   9.447
 1697POPC   GL125885   5.860  24.492   9.164
 1697POPC   GL225886   5.658  24.714   9.012
 1697POPC   C1A25887   6.027  24.346   8.787
 1697POPC   D2A25888   5.844  24.302   8.383
 1697POPC   C3A25889   5.906  24.579   8.070
 1697POPC   C4A25890   6.102  24.454   7.726
 1697POPC   C1B25891   5.503  24.406   8.739
 1697POPC   C2B25892   5.381  24.647   8.387
 1697POPC   C3B25893   5.466  24.847   8.007
 1697POPC   C4B25894   5.664  24.690   7.592
 1698POPC   NC325895  28.011  34.234   9.555
 1698POPC   PO425896  28.618  34.491   9.573
 1698POPC   GL125897  28.526  34.637   9.168
 1698POPC   GL225898  28.196  34.702   9.231
 1698POPC   C1A25899  28.617  34.695   8.743
 1698POPC   D2A25900  28.454  34.523   8.358
 1698POPC   C3A25901  28.667  34.465   7.970
 1698POPC   C4A25902  28.609  34.292   7.538
 1698POPC   C1B25903  28.129  34.549   8.790
 1698POPC   C2B25904  28.021  34.761   8.395
 1698POPC   C3B25905  28.004  34.592   7.926
 1698POPC   C4B25906  28.186  34.599   7.487
 1699POPC   NC325907   8.631  37.653   9.729
 1699POPC   PO425908   9.212  37.853   9.717
 1699POPC   GL125909   8.803  37.799   9.292
 1699POPC   GL225910   8.707  38.083   9.086
 1699POPC   C1A25911   8.745  37.501   8.916
 1699POPC   D2A25912   9.062  37.571   8.561
 1699POPC   C3A25913   9.033  37.485   8.104
 1699POPC   C4A25914   9.331  37.402   7.757
 1699POPC   C1B25915   8.673  37.931   8.681
 1699POPC   C2B25916   8.598  37.652   8.355
 1699POPC   C3B25917   8.560  37.509   7.930
 1699POPC   C4B25918   8.851  37.734   7.679
 1700POPC   NC325919  32.772  18.725   9.646
 1700POPC   PO425920  33.244  19.129   9.492
 1700POPC   GL125921  33.161  18.965   9.100
 1700POPC   GL225922  33.143  18.573   9.148
 1700POPC   C1A25923  33.199  19.149   8.664
 1700POPC   D2A25924  33.339  19.436   8.315
 1700POPC   C3A25925  33.166  19.285   7.932
 1700POPC   C4A25926  32.780  19.046   7.791
 1700POPC   C1B25927  33.430  18.688   8.773
 1700POPC   C2B25928  33.336  18.687   8.329
 1700POPC   C3B25929  33.199  18.707   7.893
 1700POPC   C4B25930  33.400  18.854   7.507
 1701POPC   NC325931  13.961  41.427   9.887
 1701POPC   PO425932  13.439  41.725   9.560
 1701POPC   GL125933  13.536  41.470   9.200
 1701POPC   GL225934  13.815  41.341   9.162
 1701POPC   C1A25935  13.541  41.587   8.780
 1701POPC   D2A25936  13.707  41.624   8.386
 1701POPC   C3A25937  13.398  41.492   8.070
 1701POPC   C4A25938  13.461  41.379   7.659
 1701POPC   C1B25939  13.925  41.228   8.739
 1701POPC   C2B25940  14.097  41.286   8.309
 1701POPC   C3B25941  13.905  41.476   7.929
 1701POPC   C4B25942  13.969  41.318   7.485
 1702POPC   NC325943  16.424  15.709   9.433
 1702POPC   PO425944  17.024  15.867   9.784
 1702POPC   GL125945  16.915  15.878   9.357
 1702POPC   GL225946  16.665  16.145   9.250
 1702POPC   C1A25947  16.894  15.788   8.928
 1702POPC   D2A25948  16.985  15.976   8.545
 1702POPC   C3A25949  16.737  15.956   8.168
 1702POPC   C4A25950  16.957  15.994   7.760
 1702POPC   C1B25951  16.534  16.130   8.803
 1702POPC   C2B25952  16.336  16.364   8.481
 1702POPC   C3B25953  16.268  16.317   8.062
 1702POPC   C4B25954  16.462  16.048   7.733
 1703POPC   NC325955  27.596  17.656   9.996
 1703POPC   PO425956  27.254  17.282   9.540
 1703POPC   GL125957  27.353  17.594   9.191
 1703POPC   GL225958  27.667  17.786   9.120
 1703POPC   C1A25959  27.281  17.740   8.743
 1703POPC   D2A25960  27.571  17.920   8.408
 1703POPC   C3A25961  27.617  17.664   7.994
 1703POPC   C4A25962  27.510  17.186   7.933
 1703POPC   C1B25963  27.791  17.580   8.761
 1703POPC   C2B25964  27.955  17.544   8.348
 1703POPC   C3B25965  28.016  17.270   8.041
 1703POPC   C4B25966  27.916  17.321   7.665
 1704POPC   NC325967  27.939  33.328   9.453
 1704POPC   PO425968  27.825  32.796   9.374
 1704POPC   GL125969  27.595  33.141   9.107
 1704POPC   GL225970  27.593  33.529   9.127
 1704POPC   C1A25971  27.470  33.234   8.674
 1704POPC   D2A25972  27.715  33.169   8.306
 1704POPC   C3A25973  27.484  33.059   7.938
 1704POPC   C4A25974  27.588  32.856   7.549
 1704POPC   C1B25975  27.861  33.545   8.766
 1704POPC   C2B25976  27.859  33.663   8.316
 1704POPC   C3B25977  27.778  33.501   7.880
 1704POPC   C4B25978  27.497  33.375   7.536
 1705POPC   NC325979   7.587  11.671   9.475
 1705POPC   PO425980   7.406  11.007   9.492
 1705POPC   GL125981   7.403  11.085   9.079
 1705POPC   GL225982   7.508  11.437   8.988
 1705POPC   C1A25983   7.111  11.133   8.738
 1705POPC   D2A25984   7.063  11.291   8.303
 1705POPC   C3A25985   7.321  11.074   7.968
 1705POPC   C4A25986   7.377  11.195   7.502
 1705POPC   C1B25987   7.645  11.153   8.631
 1705POPC   C2B25988   7.850  11.140   8.225
 1705POPC   C3B25989   7.700  11.383   7.867
 1705POPC   C4B25990   7.455  11.695   7.582
 1706POPC   NC325991  21.872  43.963   9.508
 1706POPC   PO425992  22.422  44.375   9.321
 1706POPC   GL125993  22.255  43.998   9.177
 1706POPC   GL225994  21.969  44.188   9.061
 1706POPC   C1A25995  22.053  43.750   8.847
 1706POPC   D2A25996  21.897  43.801   8.450
 1706POPC   C3A25997  22.007  43.552   8.101
 1706POPC   C4A25998  22.186  43.591   7.691
 1706POPC   C1B25999  22.234  44.178   8.655
 1706POPC   C2B26000  22.225  44.110   8.185
 1706POPC   C3B26001  22.074  44.239   7.787
 1706POPC   C4B26002  22.316  44.440   7.457
 1707POPC   NC326003  15.762  33.789   9.656
 1707POPC   PO426004  16.392  33.607   9.440
 1707POPC   GL126005  16.093  33.866   9.195
 1707POPC   GL226006  15.711  33.869   9.156
 1707POPC   C1A26007  16.077  33.974   8.767
 1707POPC   D2A26008  16.271  34.009   8.386
 1707POPC   C3A26009  16.014  33.736   8.155
 1707POPC   C4A26010  15.970  33.687   7.721
 1707POPC   C1B26011  15.560  34.053   8.771
 1707POPC   C2B26012  15.753  34.140   8.387
 1707POPC   C3B26013  15.648  34.062   7.983
 1707POPC   C4B26014  15.782  34.135   7.601
 1708POPC   NC326015   7.204  25.084   9.451
 1708POPC   PO426016   7.631  25.598   9.745
 1708POPC   GL126017   7.482  25.526   9.307
 1708POPC   GL226018   7.541  25.187   9.084
 1708POPC   C1A26019   7.374  25.620   8.889
 1708POPC   D2A26020   7.539  25.414   8.529
 1708POPC   C3A26021   7.513  25.630   8.175
 1708POPC   C4A26022   7.474  25.550   7.761
 1708POPC   C1B26023   7.173  25.130   8.758
 1708POPC   C2B26024   7.114  25.195   8.288
 1708POPC   C3B26025   7.347  25.068   7.924
 1708POPC   C4B26026   7.349  25.156   7.470
 1709POPC   NC326027  36.533   6.219   9.849
 1709POPC   PO426028  36.785   5.686   9.599
 1709POPC   GL126029  36.798   5.576   9.151
 1709POPC   GL226030  36.465   5.451   9.072
 1709POPC   C1A26031  36.920   5.674   8.703
 1709POPC   D2A26032  37.100   5.653   8.285
 1709POPC   C3A26033  37.000   6.025   8.046
 1709POPC   C4A26034  36.706   6.148   7.729
 1709POPC   C1B26035  36.593   5.269   8.680
 1709POPC   C2B26036  36.659   5.375   8.230
 1709POPC   C3B26037  36.830   5.580   7.827
 1709POPC   C4B26038  36.724   5.404   7.432
 1710POPC   NC326039   4.382  37.208   9.589
 1710POPC   PO426040   4.074  36.679   9.469
 1710POPC   GL126041   4.226  36.918   9.131
 1710POPC   GL226042   4.484  36.723   8.928
 1710POPC   C1A26043   4.117  37.132   8.746
 1710POPC   D2A26044   3.991  37.133   8.322
 1710POPC   C3A26045   4.292  36.924   8.073
 1710POPC   C4A26046   4.362  36.784   7.658
 1710POPC   C1B26047   4.075  36.600   8.751
 1710POPC   C2B26048   3.880  36.625   8.334
 1710POPC   C3B26049   3.970  36.566   7.910
 1710POPC   C4B26050   4.011  36.474   7.463
 1711POPC   NC326051  11.431  27.311   9.566
 1711POPC   PO426052  11.151  26.727   9.563
 1711POPC   GL126053  11.181  26.676   9.151
 1711POPC   GL226054  11.280  27.012   9.139
 1711POPC   C1A26055  11.307  26.554   8.733
 1711POPC   D2A26056  11.539  26.701   8.378
 1711POPC   C3A26057  11.448  26.425   8.034
 1711POPC   C4A26058  11.387  26.530   7.589
 1711POPC   C1B26059  11.367  27.080   8.734
 1711POPC   C2B26060  11.341  27.243   8.351
 1711POPC   C3B26061  11.475  27.065   7.958
 1711POPC   C4B26062  11.405  27.096   7.508
 1712POPC   NC326063  38.698   0.887   9.619
 1712POPC   PO426064  38.281   0.353   9.491
 1712POPC   GL126065  38.499   0.618   9.219
 1712POPC   GL226066  38.838   0.493   9.323
 1712POPC   C1A26067  38.506   0.594   8.767
 1712POPC   D2A26068  38.383   0.253   8.475
 1712POPC   C3A26069  38.300   0.392   8.057
 1712POPC   C4A26070  38.467   0.138   7.772
 1712POPC   C1B26071  38.960   0.760   9.006
 1712POPC   C2B26072  38.978   0.703   8.591
 1712POPC   C3B26073  38.804   0.483   8.267
 1712POPC   C4B26074  38.746   0.604   7.847
 1713POPC   NC326075  16.540  34.391   9.477
 1713POPC   PO426076  17.175  34.572   9.330
 1713POPC   GL126077  16.875  34.466   9.091
 1713POPC   GL226078  16.615  34.687   9.066
 1713POPC   C1A26079  16.760  34.282   8.721
 1713POPC   D2A26080  16.970  34.201   8.340
 1713POPC   C3A26081  16.712  34.430   8.046
 1713POPC   C4A26082  16.939  34.689   7.774
 1713POPC   C1B26083  16.458  34.920   8.726
 1713POPC   C2B26084  16.414  34.874   8.279
 1713POPC   C3B26085  16.534  34.987   7.862
 1713POPC   C4B26086  16.521  34.819   7.426
 1714POPC   NC326087   0.141  11.900   9.356
 1714POPC   PO426088  44.589  12.284   9.416
 1714POPC   GL126089  44.807  12.143   9.057
 1714POPC   GL226090  44.664  11.804   9.035
 1714POPC   C1A26091  44.899  12.054   8.631
 1714POPC   D2A26092  44.898  12.377   8.322
 1714POPC   C3A26093  44.849  12.202   7.917
 1714POPC   C4A26094  44.875  11.853   7.641
 1714POPC   C1B26095  44.400  12.066   8.745
 1714POPC   C2B26096  44.467  12.128   8.319
 1714POPC   C3B26097  44.475  11.848   7.985
 1714POPC   C4B26098  44.406  12.080   7.674
 1715POPC   NC326099  34.995  31.273   9.370
 1715POPC   PO426100  34.404  31.639   9.511
 1715POPC   GL126101  34.560  31.453   9.137
 1715POPC   GL226102  34.550  31.101   9.172
 1715POPC   C1A26103  34.690  31.513   8.705
 1715POPC   D2A26104  34.809  31.372   8.271
 1715POPC   C3A26105  34.593  31.500   7.887
 1715POPC   C4A26106  34.328  31.807   7.624
 1715POPC   C1B26107  34.273  31.129   8.824
 1715POPC   C2B26108  34.322  31.318   8.424
 1715POPC   C3B26109  34.323  31.107   8.044
 1715POPC   C4B26110  34.317  31.183   7.620
 1716POPC   NC326111   9.874  24.218   9.462
 1716POPC   PO426112  10.104  24.783   9.650
 1716POPC   GL126113   9.813  24.669   9.242
 1716POPC   GL226114   9.546  24.445   9.105
 1716POPC   C1A26115   9.906  24.592   8.776
 1716POPC   D2A26116  10.041  24.610   8.345
 1716POPC   C3A26117   9.821  24.803   8.026
 1716POPC   C4A26118   9.823  24.699   7.607
 1716POPC   C1B26119   9.467  24.396   8.631
 1716POPC   C2B26120   9.598  24.353   8.199
 1716POPC   C3B26121   9.509  24.347   7.759
 1716POPC   C4B26122   9.418  24.152   7.356
 1717POPC   NC326123  25.143  20.786   9.692
 1717POPC   PO426124  25.603  20.333   9.465
 1717POPC   GL126125  25.353  20.437   9.126
 1717POPC   GL226126  25.251  20.734   9.212
 1717POPC   C1A26127  25.237  20.307   8.720
 1717POPC   D2A26128  25.032  20.415   8.345
 1717POPC   C3A26129  25.327  20.455   8.040
 1717POPC   C4A26130  25.390  20.329   7.626
 1717POPC   C1B26131  25.375  20.940   8.881
 1717POPC   C2B26132  25.414  20.765   8.486
 1717POPC   C3B26133  25.437  20.965   8.116
 1717POPC   C4B26134  25.444  20.824   7.712
 1718POPC   NC326135  23.537  14.702   9.313
 1718POPC   PO426136  23.717  14.056   9.524
 1718POPC   GL126137  23.723  14.225   9.139
 1718POPC   GL226138  23.410  14.175   9.089
 1718POPC   C1A26139  23.848  14.130   8.722
 1718POPC   D2A26140  23.929  14.151   8.278
 1718POPC   C3A26141  23.825  14.578   8.220
 1718POPC   C4A26142  23.770  14.753   7.827
 1718POPC   C1B26143  23.401  14.440   8.727
 1718POPC   C2B26144  23.395  14.328   8.326
 1718POPC   C3B26145  23.531  14.304   7.918
 1718POPC   C4B26146  23.804  14.156   7.674
 1719POPC   NC326147  13.926  13.818   9.429
 1719POPC   PO426148  13.672  13.217   9.503
 1719POPC   GL126149  13.538  13.565   9.223
 1719POPC   GL226150  13.303  13.864   9.265
 1719POPC   C1A26151  13.682  13.546   8.818
 1719POPC   D2A26152  13.574  13.261   8.497
 1719POPC   C3A26153  13.444  13.454   8.123
 1719POPC   C4A26154  13.735  13.542   7.804
 1719POPC   C1B26155  13.491  14.033   8.883
 1719POPC   C2B26156  13.643  14.008   8.468
 1719POPC   C3B26157  13.552  13.973   8.037
 1719POPC   C4B26158  13.446  14.025   7.604
 1720POPC   NC326159  26.083  24.679   9.395
 1720POPC   PO426160  26.089  25.354   9.572
 1720POPC   GL126161  26.004  25.409   9.159
 1720POPC   GL226162  25.874  25.083   9.148
 1720POPC   C1A26163  26.275  25.459   8.789
 1720POPC   D2A26164  26.101  25.397   8.384
 1720POPC   C3A26165  26.307  25.502   7.973
 1720POPC   C4A26166  26.031  25.575   7.570
 1720POPC   C1B26167  26.046  25.000   8.776
 1720POPC   C2B26168  26.087  24.856   8.373
 1720POPC   C3B26169  26.038  25.061   8.014
 1720POPC   C4B26170  26.244  25.115   7.657
 1721POPC   NC326171  36.975  32.734   9.688
 1721POPC   PO426172  37.135  33.276   9.439
 1721POPC   GL126173  36.803  33.127   9.191
 1721POPC   GL226174  36.768  32.759   9.205
 1721POPC   C1A26175  36.666  33.038   8.769
 1721POPC   D2A26176  36.910  32.970   8.411
 1721POPC   C3A26177  36.770  33.145   8.025
 1721POPC   C4A26178  36.903  33.265   7.595
 1721POPC   C1B26179  37.050  32.712   8.851
 1721POPC   C2B26180  37.357  32.735   8.507
 1721POPC   C3B26181  37.443  32.849   8.090
 1721POPC   C4B26182  37.249  32.923   7.700
 1722POPC   NC326183   3.336   6.730   9.436
 1722POPC   PO426184   3.338   6.028   9.417
 1722POPC   GL126185   3.472   6.345   9.091
 1722POPC   GL226186   3.779   6.537   9.176
 1722POPC   C1A26187   3.370   6.510   8.648
 1722POPC   D2A26188   3.263   6.400   8.199
 1722POPC   C3A26189   3.448   6.627   7.848
 1722POPC   C4A26190   3.854   6.497   7.624
 1722POPC   C1B26191   3.859   6.660   8.719
 1722POPC   C2B26192   3.746   6.680   8.256
 1722POPC   C3B26193   3.867   6.939   7.838
 1722POPC   C4B26194   3.838   6.928   7.321
 1723POPC   NC326195  11.795   5.528   9.749
 1723POPC   PO426196  11.180   5.609   9.689
 1723POPC   GL126197  11.395   5.727   9.284
 1723POPC   GL226198  11.653   5.514   9.201
 1723POPC   C1A26199  11.283   5.770   8.808
 1723POPC   D2A26200  11.265   5.557   8.360
 1723POPC   C3A26201  11.131   5.746   7.929
 1723POPC   C4A26202  11.006   5.652   7.473
 1723POPC   C1B26203  11.667   5.446   8.728
 1723POPC   C2B26204  11.757   5.415   8.264
 1723POPC   C3B26205  11.551   5.465   7.832
 1723POPC   C4B26206  11.439   5.404   7.360
 1724POPC   NC326207  34.348  42.025   9.459
 1724POPC   PO426208  34.675  41.354   9.539
 1724POPC   GL126209  34.842  41.492   9.168
 1724POPC   GL226210  34.506  41.642   9.107
 1724POPC   C1A26211  34.873  41.638   8.746
 1724POPC   D2A26212  34.734  41.479   8.358
 1724POPC   C3A26213  34.822  41.654   7.967
 1724POPC   C4A26214  35.120  41.496   7.692
 1724POPC   C1B26215  34.374  41.812   8.708
 1724POPC   C2B26216  34.555  41.969   8.321
 1724POPC   C3B26217  34.579  42.117   7.904
 1724POPC   C4B26218  34.431  42.021   7.502
 1725POPC   NC326219  37.456  43.998   9.460
 1725POPC   PO426220  38.028  43.753   9.382
 1725POPC   GL126221  37.810  43.924   9.072
 1725POPC   GL226222  37.574  43.682   9.066
 1725POPC   C1A26223  37.785  43.885   8.617
 1725POPC   D2A26224  37.897  43.887   8.180
 1725POPC   C3A26225  37.591  44.053   7.923
 1725POPC   C4A26226  37.282  44.349   7.814
 1725POPC   C1B26227  37.459  43.487   8.731
 1725POPC   C2B26228  37.445  43.641   8.314
 1725POPC   C3B26229  37.578  43.511   7.939
 1725POPC   C4B26230  37.555  43.678   7.540
 1726POPC   NC326231   9.543  41.431   9.489
 1726POPC   PO426232  10.209  41.757   9.383
 1726POPC   GL126233   9.916  41.582   9.152
 1726POPC   GL226234   9.971  41.246   9.200
 1726POPC   C1A26235   9.656  41.575   8.808
 1726POPC   D2A26236   9.629  41.806   8.438
 1726POPC   C3A26237   9.581  41.571   8.072
 1726POPC   C4A26238   9.892  41.709   7.849
 1726POPC   C1B26239  10.058  41.244   8.759
 1726POPC   C2B26240   9.993  41.428   8.359
 1726POPC   C3B26241  10.264  41.419   8.005
 1726POPC   C4B26242  10.321  41.567   7.590
 1727POPC   NC326243   7.885  44.526   9.395
 1727POPC   PO426244   8.500  44.908   9.389
 1727POPC   GL126245   8.118  44.891   9.112
 1727POPC   GL226246   8.186  44.554   8.974
 1727POPC   C1A26247   7.799  44.796   8.744
 1727POPC   D2A26248   7.754  44.518   8.353
 1727POPC   C3A26249   8.041  44.598   7.971
 1727POPC   C4A26250   8.072  44.552   7.495
 1727POPC   C1B26251   8.488  44.550   8.624
 1727POPC   C2B26252   8.507  44.656   8.182
 1727POPC   C3B26253   8.526  44.618   7.733
 1727POPC   C4B26254   8.514  44.331   7.374
 1728POPC   NC326255  44.243  22.265   9.626
 1728POPC   PO426256  43.638  22.371   9.546
 1728POPC   GL126257  43.833  22.105   9.196
 1728POPC   GL226258  44.149  21.935   9.239
 1728POPC   C1A26259  43.900  22.085   8.739
 1728POPC   D2A26260  43.957  22.317   8.367
 1728POPC   C3A26261  43.803  22.098   8.029
 1728POPC   C4A26262  43.648  22.206   7.656
 1728POPC   C1B26263  44.360  21.860   8.807
 1728POPC   C2B26264  44.143  21.841   8.347
 1728POPC   C3B26265  44.212  21.842   7.849
 1728POPC   C4B26266  44.109  22.044   7.419
 1729POPC   NC326267  22.869  27.196   9.495
 1729POPC   PO426268  22.536  27.813   9.638
 1729POPC   GL126269  22.725  27.634   9.193
 1729POPC   GL226270  22.775  27.336   9.004
 1729POPC   C1A26271  22.945  27.779   8.837
 1729POPC   D2A26272  22.887  27.734   8.412
 1729POPC   C3A26273  23.148  27.518   8.137
 1729POPC   C4A26274  22.999  27.470   7.743
 1729POPC   C1B26275  22.499  27.525   8.699
 1729POPC   C2B26276  22.484  27.431   8.250
 1729POPC   C3B26277  22.502  27.597   7.829
 1729POPC   C4B26278  22.493  27.575   7.367
 1730POPC   NC326279  15.997  32.111   9.461
 1730POPC   PO426280  15.909  32.736   9.529
 1730POPC   GL126281  15.996  32.546   9.126
 1730POPC   GL226282  15.734  32.320   9.072
 1730POPC   C1A26283  15.900  32.577   8.676
 1730POPC   D2A26284  15.658  32.307   8.430
 1730POPC   C3A26285  15.839  32.296   8.042
 1730POPC   C4A26286  15.656  32.397   7.666
 1730POPC   C1B26287  16.011  32.096   8.778
 1730POPC   C2B26288  16.025  31.915   8.364
 1730POPC   C3B26289  16.267  31.999   7.978
 1730POPC   C4B26290  16.144  32.205   7.591
 1731POPC   NC326291   7.146  42.121   9.463
 1731POPC   PO426292   7.707  42.372   9.415
 1731POPC   GL126293   7.287  42.559   9.258
 1731POPC   GL226294   7.303  42.879   9.232
 1731POPC   C1A26295   7.087  42.567   8.851
 1731POPC   D2A26296   7.318  42.335   8.578
 1731POPC   C3A26297   7.337  42.378   8.146
 1731POPC   C4A26298   7.439  42.373   7.726
 1731POPC   C1B26299   7.570  42.749   8.850
 1731POPC   C2B26300   7.754  42.611   8.448
 1731POPC   C3B26301   7.693  42.760   8.046
 1731POPC   C4B26302   7.861  42.688   7.657
 1732POPC   NC326303  37.918   3.671   9.476
 1732POPC   PO426304  37.425   3.302   9.475
 1732POPC   GL126305  37.562   3.540   9.141
 1732POPC   GL226306  37.823   3.257   9.151
 1732POPC   C1A26307  37.789   3.817   8.840
 1732POPC   D2A26308  37.999   3.833   8.476
 1732POPC   C3A26309  37.797   3.838   8.085
 1732POPC   C4A26310  37.654   3.676   7.718
 1732POPC   C1B26311  37.804   3.332   8.740
 1732POPC   C2B26312  37.651   3.443   8.369
 1732POPC   C3B26313  37.519   3.155   8.102
 1732POPC   C4B26314  37.573   3.150   7.688
 1733POPC   NC326315  15.734  38.602   9.552
 1733POPC   PO426316  16.175  38.194   9.270
 1733POPC   GL126317  15.949  38.543   9.056
 1733POPC   GL226318  15.614  38.714   9.085
 1733POPC   C1A26319  15.857  38.711   8.643
 1733POPC   D2A26320  15.834  38.448   8.302
 1733POPC   C3A26321  16.194  38.438   8.065
 1733POPC   C4A26322  16.071  38.197   7.731
 1733POPC   C1B26323  15.338  38.678   8.777
 1733POPC   C2B26324  15.394  38.734   8.378
 1733POPC   C3B26325  15.467  38.679   7.999
 1733POPC   C4B26326  15.807  38.634   7.808
 1734POPC   NC326327  29.641  36.581   9.519
 1734POPC   PO426328  30.297  36.125   9.686
 1734POPC   GL126329  30.059  36.132   9.305
 1734POPC   GL226330  30.034  36.441   9.209
 1734POPC   C1A26331  29.879  36.117   8.869
 1734POPC   D2A26332  29.890  36.064   8.407
 1734POPC   C3A26333  29.727  36.113   7.987
 1734POPC   C4A26334  29.960  35.937   7.645
 1734POPC   C1B26335  30.174  36.522   8.759
 1734POPC   C2B26336  30.327  36.333   8.354
 1734POPC   C3B26337  30.181  36.350   7.941
 1734POPC   C4B26338  30.208  36.336   7.465
 1735POPC   NC326339  10.641  25.723   9.622
 1735POPC   PO426340  10.362  26.305   9.440
 1735POPC   GL126341  10.638  26.038   9.205
 1735POPC   GL226342  10.910  26.251   9.218
 1735POPC   C1A26343  10.672  25.863   8.771
 1735POPC   D2A26344  10.562  25.670   8.347
 1735POPC   C3A26345  10.560  25.947   7.976
 1735POPC   C4A26346  10.285  26.285   7.829
 1735POPC   C1B26347  10.711  26.386   8.832
 1735POPC   C2B26348  10.495  26.234   8.450
 1735POPC   C3B26349  10.675  26.427   8.114
 1735POPC   C4B26350  10.972  26.525   7.869
 1736POPC   NC326351  25.118  20.078   9.386
 1736POPC   PO426352  25.421  19.423   9.484
 1736POPC   GL126353  25.331  19.636   9.081
 1736POPC   GL226354  25.560  19.927   9.117
 1736POPC   C1A26355  25.078  19.656   8.656
 1736POPC   D2A26356  24.825  19.482   8.273
 1736POPC   C3A26357  24.975  19.674   7.904
 1736POPC   C4A26358  24.984  20.119   7.854
 1736POPC   C1B26359  25.544  19.874   8.651
 1736POPC   C2B26360  25.302  19.985   8.268
 1736POPC   C3B26361  25.450  19.878   7.845
 1736POPC   C4B26362  25.679  19.987   7.411
 1737POPC   NC326363  21.465  26.854   9.697
 1737POPC   PO426364  21.201  26.293   9.528
 1737POPC   GL126365  21.318  26.659   9.250
 1737POPC   GL226366  21.292  27.049   9.263
 1737POPC   C1A26367  21.442  26.720   8.845
 1737POPC   D2A26368  21.621  26.576   8.500
 1737POPC   C3A26369  21.495  26.740   8.142
 1737POPC   C4A26370  21.354  26.741   7.730
 1737POPC   C1B26371  21.570  27.196   8.962
 1737POPC   C2B26372  21.570  27.145   8.528
 1737POPC   C3B26373  21.596  27.223   8.098
 1737POPC   C4B26374  21.756  27.037   7.760
 1738POPC   NC326375  12.334  20.037   9.850
 1738POPC   PO426376  12.317  19.451   9.525
 1738POPC   GL126377  12.113  19.579   9.161
 1738POPC   GL226378  11.812  19.409   9.062
 1738POPC   C1A26379  12.263  19.740   8.761
 1738POPC   D2A26380  12.133  19.563   8.385
 1738POPC   C3A26381  12.302  19.660   8.007
 1738POPC   C4A26382  12.153  19.430   7.641
 1738POPC   C1B26383  11.724  19.687   8.691
 1738POPC   C2B26384  11.776  19.937   8.284
 1738POPC   C3B26385  11.886  19.906   7.803
 1738POPC   C4B26386  11.905  20.051   7.322
 1739POPC   NC326387  31.703  14.633   9.354
 1739POPC   PO426388  31.128  14.372   9.633
 1739POPC   GL126389  31.304  14.321   9.208
 1739POPC   GL226390  31.255  14.645   9.098
 1739POPC   C1A26391  31.456  14.359   8.745
 1739POPC   D2A26392  31.346  14.179   8.357
 1739POPC   C3A26393  31.576  14.303   7.995
 1739POPC   C4A26394  31.375  14.043   7.727
 1739POPC   C1B26395  31.155  14.790   8.681
 1739POPC   C2B26396  31.324  14.704   8.259
 1739POPC   C3B26397  31.146  14.541   7.862
 1739POPC   C4B26398  31.187  14.746   7.467
 1740POPC   NC326399   1.657  36.937   9.486
 1740POPC   PO426400   1.789  37.470   9.159
 1740POPC   GL126401   1.490  37.201   9.026
 1740POPC   GL226402   1.278  36.907   9.141
 1740POPC   C1A26403   1.400  37.021   8.643
 1740POPC   D2A26404   1.576  36.756   8.343
 1740POPC   C3A26405   1.476  36.867   7.933
 1740POPC   C4A26406   1.352  36.556   7.644
 1740POPC   C1B26407   1.019  36.730   8.766
 1740POPC   C2B26408   1.060  36.719   8.260
 1740POPC   C3B26409   0.960  36.880   7.799
 1740POPC   C4B26410   0.795  37.094   7.389
 1741POPC   NC326411  25.904  15.581   9.680
 1741POPC   PO426412  26.391  16.042   9.545
 1741POPC   GL126413  26.300  16.011   9.147
 1741POPC   GL226414  26.117  15.690   9.187
 1741POPC   C1A26415  26.504  16.071   8.748
 1741POPC   D2A26416  26.240  16.118   8.379
 1741POPC   C3A26417  26.420  16.089   7.986
 1741POPC   C4A26418  26.126  16.102   7.687
 1741POPC   C1B26419  26.142  15.716   8.733
 1741POPC   C2B26420  25.969  15.674   8.349
 1741POPC   C3B26421  26.084  15.690   7.957
 1741POPC   C4B26422  25.856  15.707   7.525
 1742POPC   NC326423  31.001  40.858   9.519
 1742POPC   PO426424  30.561  40.416   9.473
 1742POPC   GL126425  30.707  40.634   9.143
 1742POPC   GL226426  31.027  40.488   9.162
 1742POPC   C1A26427  30.525  40.572   8.754
 1742POPC   D2A26428  30.566  40.753   8.378
 1742POPC   C3A26429  30.560  40.547   7.981
 1742POPC   C4A26430  30.704  40.878   7.727
 1742POPC   C1B26431  31.050  40.640   8.737
 1742POPC   C2B26432  31.262  40.630   8.334
 1742POPC   C3B26433  31.126  40.688   7.916
 1742POPC   C4B26434  31.271  40.628   7.488
 1743POPC   NC326435  16.033  21.868   9.549
 1743POPC   PO426436  15.412  21.950   9.301
 1743POPC   GL126437  15.591  22.195   9.001
 1743POPC   GL226438  15.893  22.198   9.161
 1743POPC   C1A26439  15.641  22.255   8.571
 1743POPC   D2A26440  15.963  22.329   8.201
 1743POPC   C3A26441  15.923  22.006   7.896
 1743POPC   C4A26442  15.598  21.686   7.942
 1743POPC   C1B26443  16.143  22.089   8.807
 1743POPC   C2B26444  16.344  22.065   8.406
 1743POPC   C3B26445  16.417  22.193   7.988
 1743POPC   C4B26446  16.226  22.516   7.779
 1744POPC   NC326447  26.069  11.957   9.530
 1744POPC   PO426448  26.138  12.675   9.466
 1744POPC   GL126449  26.047  12.306   9.167
 1744POPC   GL226450  25.711  12.228   9.045
 1744POPC   C1A26451  26.010  11.940   8.785
 1744POPC   D2A26452  25.881  11.824   8.364
 1744POPC   C3A26453  26.168  11.971   8.061
 1744POPC   C4A26454  26.336  12.224   7.757
 1744POPC   C1B26455  25.567  12.193   8.566
 1744POPC   C2B26456  25.660  12.193   8.066
 1744POPC   C3B26457  25.784  11.896   7.709
 1744POPC   C4B26458  25.696  11.875   7.221
 1745POPC   NC326459  27.505  23.234   9.381
 1745POPC   PO426460  27.753  22.562   9.448
 1745POPC   GL126461  27.738  22.844   9.168
 1745POPC   GL226462  27.375  22.809   9.155
 1745POPC   C1A26463  27.712  23.042   8.757
 1745POPC   D2A26464  27.396  23.265   8.526
 1745POPC   C3A26465  27.529  23.370   8.130
 1745POPC   C4A26466  27.520  23.281   7.709
 1745POPC   C1B26467  27.461  22.582   8.799
 1745POPC   C2B26468  27.430  22.748   8.406
 1745POPC   C3B26469  27.619  22.863   8.045
 1745POPC   C4B26470  27.371  22.786   7.725
 1746POPC   NC326471  23.935   9.326   9.627
 1746POPC   PO426472  23.685   8.714   9.649
 1746POPC   GL126473  23.544   9.039   9.346
 1746POPC   GL226474  23.843   9.158   9.151
 1746POPC   C1A26475  23.432   9.009   8.903
 1746POPC   D2A26476  23.649   8.817   8.590
 1746POPC   C3A26477  23.549   8.864   8.184
 1746POPC   C4A26478  23.473   8.963   7.779
 1746POPC   C1B26479  23.948   9.215   8.696
 1746POPC   C2B26480  24.053   9.015   8.268
 1746POPC   C3B26481  23.978   9.034   7.805
 1746POPC   C4B26482  23.943   9.137   7.364
 1747POPC   NC326483  11.667  23.891   9.124
 1747POPC   PO426484  11.113  23.911   9.556
 1747POPC   GL126485  11.147  23.948   9.131
 1747POPC   GL226486  11.234  23.588   9.035
 1747POPC   C1A26487  11.119  23.945   8.687
 1747POPC   D2A26488  11.099  23.597   8.413
 1747POPC   C3A26489  11.268  23.708   8.031
 1747POPC   C4A26490  11.075  23.629   7.663
 1747POPC   C1B26491  11.462  23.354   8.677
 1747POPC   C2B26492  11.554  23.277   8.209
 1747POPC   C3B26493  11.548  23.381   7.755
 1747POPC   C4B26494  11.513  23.426   7.274
 1748POPC   NC326495   4.856  25.845   9.541
 1748POPC   PO426496   5.506  26.012   9.550
 1748POPC   GL126497   5.295  26.012   9.171
 1748POPC   GL226498   5.045  26.255   9.198
 1748POPC   C1A26499   5.284  26.191   8.747
 1748POPC   D2A26500   5.377  25.923   8.394
 1748POPC   C3A26501   5.124  25.905   8.046
 1748POPC   C4A26502   5.320  26.042   7.684
 1748POPC   C1B26503   4.835  26.484   8.858
 1748POPC   C2B26504   4.788  26.585   8.407
 1748POPC   C3B26505   5.007  26.406   8.018
 1748POPC   C4B26506   4.971  26.407   7.532
 1749POPC   NC326507  29.654  42.108   9.455
 1749POPC   PO426508  30.004  42.745   9.503
 1749POPC   GL126509  29.894  42.463   9.157
 1749POPC   GL226510  29.964  42.136   9.080
 1749POPC   C1A26511  29.702  42.420   8.748
 1749POPC   D2A26512  29.843  42.591   8.367
 1749POPC   C3A26513  29.715  42.355   8.019
 1749POPC   C4A26514  29.734  42.507   7.632
 1749POPC   C1B26515  30.159  42.115   8.738
 1749POPC   C2B26516  29.941  42.092   8.404
 1749POPC   C3B26517  30.074  41.943   8.090
 1749POPC   C4B26518  30.078  42.130   7.719
 1750POPC   NC326519   4.746  22.506   9.415
 1750POPC   PO426520   5.446  22.536   9.385
 1750POPC   GL126521   5.257  22.327   9.042
 1750POPC   GL226522   4.969  22.110   9.112
 1750POPC   C1A26523   5.185  22.381   8.610
 1750POPC   D2A26524   5.363  22.345   8.198
 1750POPC   C3A26525   5.141  22.132   7.909
 1750POPC   C4A26526   5.243  21.919   7.550
 1750POPC   C1B26527   5.116  21.875   8.743
 1750POPC   C2B26528   5.241  21.761   8.299
 1750POPC   C3B26529   4.982  21.646   7.918
 1750POPC   C4B26530   4.728  21.900   7.609
 1751POPC   NC326531  22.274  24.191   9.395
 1751POPC   PO426532  22.150  24.754   9.724
 1751POPC   GL126533  22.152  24.619   9.193
 1751POPC   GL226534  21.817  24.411   9.075
 1751POPC   C1A26535  22.216  24.398   8.762
 1751POPC   D2A26536  22.317  24.542   8.344
 1751POPC   C3A26537  22.281  24.360   7.938
 1751POPC   C4A26538  22.329  24.633   7.599
 1751POPC   C1B26539  21.724  24.248   8.651
 1751POPC   C2B26540  21.812  24.276   8.186
 1751POPC   C3B26541  21.803  24.594   7.832
 1751POPC   C4B26542  21.854  24.653   7.368
 1752POPC   NC326543  21.109  10.092   9.555
 1752POPC   PO426544  20.650   9.558   9.480
 1752POPC   GL126545  20.649   9.688   9.107
 1752POPC   GL226546  20.905   9.889   9.134
 1752POPC   C1A26547  20.434   9.792   8.752
 1752POPC   D2A26548  20.299   9.604   8.383
 1752POPC   C3A26549  20.427   9.757   7.994
 1752POPC   C4A26550  20.267   9.889   7.662
 1752POPC   C1B26551  20.928   9.935   8.718
 1752POPC   C2B26552  20.785   9.867   8.327
 1752POPC   C3B26553  20.934   9.722   7.926
 1752POPC   C4B26554  20.758   9.803   7.522
 1753POPC   NC326555  31.325  31.784   9.565
 1753POPC   PO426556  31.570  32.415   9.458
 1753POPC   GL126557  31.530  32.207   9.134
 1753POPC   GL226558  31.245  32.078   9.164
 1753POPC   C1A26559  31.471  32.352   8.739
 1753POPC   D2A26560  31.706  32.600   8.454
 1753POPC   C3A26561  31.448  32.488   8.117
 1753POPC   C4A26562  31.567  32.510   7.685
 1753POPC   C1B26563  31.111  31.990   8.778
 1753POPC   C2B26564  31.225  32.066   8.381
 1753POPC   C3B26565  31.029  32.143   8.007
 1753POPC   C4B26566  31.125  32.235   7.604
 1754POPC   NC326567   8.639  32.507   9.466
 1754POPC   PO426568   9.058  31.901   9.571
 1754POPC   GL126569   8.928  32.140   9.194
 1754POPC   GL226570   9.122  32.422   9.103
 1754POPC   C1A26571   8.850  32.175   8.729
 1754POPC   D2A26572   8.705  32.436   8.376
 1754POPC   C3A26573   8.901  32.423   7.997
 1754POPC   C4A26574   8.859  32.035   7.856
 1754POPC   C1B26575   9.236  32.680   8.744
 1754POPC   C2B26576   9.309  32.555   8.313
 1754POPC   C3B26577   9.370  32.630   7.868
 1754POPC   C4B26578   9.447  32.612   7.387
 1755POPC   NC326579   7.386   0.393   9.408
 1755POPC   PO426580   6.853   0.785   9.213
 1755POPC   GL126581   7.141   0.519   8.976
 1755POPC   GL226582   7.483   0.671   8.991
 1755POPC   C1A26583   7.494   0.208   8.797
 1755POPC   D2A26584   7.766   0.271   8.437
 1755POPC   C3A26585   7.590   0.158   8.048
 1755POPC   C4A26586   7.582   0.313   7.686
 1755POPC   C1B26587   7.416   0.648   8.545
 1755POPC   C2B26588   7.558   0.660   8.135
 1755POPC   C3B26589   7.284   0.691   7.823
 1755POPC   C4B26590   6.905   0.755   7.780
 1756POPC   NC326591  17.226   1.781   9.544
 1756POPC   PO426592  17.974   1.606   9.447
 1756POPC   GL126593  17.657   1.840   9.260
 1756POPC   GL226594  17.782   2.139   9.156
 1756POPC   C1A26595  17.386   1.772   8.899
 1756POPC   D2A26596  17.491   1.788   8.456
 1756POPC   C3A26597  17.225   1.973   8.155
 1756POPC   C4A26598  17.282   1.805   7.746
 1756POPC   C1B26599  17.860   1.920   8.783
 1756POPC   C2B26600  17.913   2.074   8.351
 1756POPC   C3B26601  17.721   1.961   8.019
 1756POPC   C4B26602  17.704   2.068   7.633
 1757POPC   NC326603  30.449  42.706   9.556
 1757POPC   PO426604  30.881  42.209   9.492
 1757POPC   GL126605  30.747  42.444   9.176
 1757POPC   GL226606  30.422  42.279   9.234
 1757POPC   C1A26607  30.699  42.246   8.760
 1757POPC   D2A26608  30.997  42.023   8.500
 1757POPC   C3A26609  30.954  42.121   8.065
 1757POPC   C4A26610  30.782  42.352   7.728
 1757POPC   C1B26611  30.322  42.569   8.914
 1757POPC   C2B26612  30.348  42.535   8.490
 1757POPC   C3B26613  30.396  42.364   8.094
 1757POPC   C4B26614  30.242  42.600   7.769
 1758POPC   NC326615  40.769  12.870   9.538
 1758POPC   PO426616  40.733  12.259   9.445
 1758POPC   GL126617  40.617  12.554   9.146
 1758POPC   GL226618  40.970  12.693   9.110
 1758POPC   C1A26619  40.433  12.707   8.750
 1758POPC   D2A26620  40.603  12.837   8.329
 1758POPC   C3A26621  40.533  13.142   7.992
 1758POPC   C4A26622  40.790  13.256   7.636
 1758POPC   C1B26623  40.923  12.940   8.752
 1758POPC   C2B26624  41.109  12.874   8.360
 1758POPC   C3B26625  41.066  12.972   7.978
 1758POPC   C4B26626  40.788  12.723   7.783
 1759POPC   NC326627  10.006  34.586   9.778
 1759POPC   PO426628   9.428  34.388   9.555
 1759POPC   GL126629   9.763  34.611   9.272
 1759POPC   GL226630   9.526  34.803   9.048
 1759POPC   C1A26631   9.981  34.751   8.873
 1759POPC   D2A26632   9.707  34.833   8.522
 1759POPC   C3A26633   9.741  34.623   8.120
 1759POPC   C4A26634   9.856  34.761   7.708
 1759POPC   C1B26635   9.529  34.421   8.844
 1759POPC   C2B26636   9.358  34.391   8.446
 1759POPC   C3B26637   9.423  34.237   8.045
 1759POPC   C4B26638   9.396  34.469   7.715
 1760POPC   NC326639  24.153  26.068   9.599
 1760POPC   PO426640  23.552  26.065   9.575
 1760POPC   GL126641  23.803  26.052   9.213
 1760POPC   GL226642  23.552  25.896   9.029
 1760POPC   C1A26643  24.009  26.008   8.816
 1760POPC   D2A26644  23.846  25.972   8.391
 1760POPC   C3A26645  24.001  26.058   7.979
 1760POPC   C4A26646  23.849  25.969   7.512
 1760POPC   C1B26647  23.516  26.200   8.713
 1760POPC   C2B26648  23.389  26.180   8.260
 1760POPC   C3B26649  23.494  26.094   7.833
 1760POPC   C4B26650  23.372  25.767   7.502
 1761POPC   NC326651  38.202  14.695   9.487
 1761POPC   PO426652  38.505  14.168   9.377
 1761POPC   GL126653  38.317  14.398   9.088
 1761POPC   GL226654  38.017  14.180   9.164
 1761POPC   C1A26655  38.420  14.586   8.683
 1761POPC   D2A26656  38.297  14.711   8.242
 1761POPC   C3A26657  38.595  14.652   7.936
 1761POPC   C4A26658  38.569  14.755   7.525
 1761POPC   C1B26659  38.087  14.112   8.730
 1761POPC   C2B26660  38.184  14.224   8.327
 1761POPC   C3B26661  38.338  14.226   7.897
 1761POPC   C4B26662  38.638  14.232   7.562
 1762POPC   NC326663  15.289   0.815   9.382
 1762POPC   PO426664  14.779   1.187   9.442
 1762POPC   GL126665  15.032   1.184   9.126
 1762POPC   GL226666  15.361   1.295   9.164
 1762POPC   C1A26667  15.068   1.010   8.718
 1762POPC   D2A26668  14.806   1.070   8.335
 1762POPC   C3A26669  15.015   1.237   7.980
 1762POPC   C4A26670  15.199   0.939   7.758
 1762POPC   C1B26671  15.556   1.273   8.764
 1762POPC   C2B26672  15.375   1.258   8.355
 1762POPC   C3B26673  15.551   1.224   7.949
 1762POPC   C4B26674  15.392   1.374   7.549
 1763POPC   NC326675  32.833  32.227   9.327
 1763POPC   PO426676  33.228  32.671   9.559
 1763POPC   GL126677  33.288  32.430   9.197
 1763POPC   GL226678  33.386  32.701   9.040
 1763POPC   C1A26679  33.151  32.254   8.774
 1763POPC   D2A26680  32.837  32.219   8.428
 1763POPC   C3A26681  32.911  32.391   7.991
 1763POPC   C4A26682  33.046  32.088   7.662
 1763POPC   C1B26683  33.534  32.568   8.682
 1763POPC   C2B26684  33.356  32.513   8.296
 1763POPC   C3B26685  33.423  32.283   7.937
 1763POPC   C4B26686  33.437  32.386   7.532
 1764POPC   NC326687  22.077   6.571   9.355
 1764POPC   PO426688  22.701   6.515   9.191
 1764POPC   GL126689  22.402   6.780   8.993
 1764POPC   GL226690  22.083   6.682   8.876
 1764POPC   C1A26691  22.484   6.777   8.584
 1764POPC   D2A26692  22.193   6.804   8.293
 1764POPC   C3A26693  22.217   6.454   8.097
 1764POPC   C4A26694  22.108   6.364   7.701
 1764POPC   C1B26695  21.758   6.404   8.771
 1764POPC   C2B26696  21.790   6.453   8.372
 1764POPC   C3B26697  21.760   6.222   8.035
 1764POPC   C4B26698  21.565   6.250   7.695
 1765POPC   NC326699   4.504  35.615   9.443
 1765POPC   PO426700   4.931  35.116   9.627
 1765POPC   GL126701   4.640  35.140   9.234
 1765POPC   GL226702   4.290  35.216   9.128
 1765POPC   C1A26703   4.638  35.386   8.815
 1765POPC   D2A26704   4.428  35.569   8.430
 1765POPC   C3A26705   4.531  35.394   8.033
 1765POPC   C4A26706   4.457  35.054   7.751
 1765POPC   C1B26707   4.111  35.533   8.836
 1765POPC   C2B26708   3.933  35.469   8.406
 1765POPC   C3B26709   4.018  35.502   7.997
 1765POPC   C4B26710   4.070  35.645   7.613
 1766POPC   NC326711   7.904  36.987   9.561
 1766POPC   PO426712   7.292  36.560   9.731
 1766POPC   GL126713   7.261  36.796   9.295
 1766POPC   GL226714   7.547  36.972   9.128
 1766POPC   C1A26715   7.183  36.686   8.830
 1766POPC   D2A26716   7.310  36.845   8.394
 1766POPC   C3A26717   7.029  37.057   8.063
 1766POPC   C4A26718   6.932  37.241   7.621
 1766POPC   C1B26719   7.697  36.636   8.808
 1766POPC   C2B26720   7.834  36.620   8.356
 1766POPC   C3B26721   7.613  36.727   7.988
 1766POPC   C4B26722   7.213  36.588   7.868
 1767POPC   NC326723  24.985  42.594   9.428
 1767POPC   PO426724  25.138  43.272   9.456
 1767POPC   GL126725  25.263  42.978   9.157
 1767POPC   GL226726  24.943  42.958   9.098
 1767POPC   C1A26727  25.327  42.779   8.724
 1767POPC   D2A26728  25.540  42.596   8.318
 1767POPC   C3A26729  25.501  42.911   7.958
 1767POPC   C4A26730  25.563  43.036   7.498
 1767POPC   C1B26731  25.088  43.245   8.750
 1767POPC   C2B26732  25.107  43.094   8.325
 1767POPC   C3B26733  25.147  43.276   7.913
 1767POPC   C4B26734  25.051  43.108   7.532
 1768POPC   NC326735  35.483  27.946   9.468
 1768POPC   PO426736  35.271  28.575   9.349
 1768POPC   GL126737  35.294  28.235   9.072
 1768POPC   GL226738  34.983  28.061   9.135
 1768POPC   C1A26739  35.382  28.326   8.644
 1768POPC   D2A26740  35.159  28.596   8.360
 1768POPC   C3A26741  35.354  28.595   7.970
 1768POPC   C4A26742  35.650  28.270   7.865
 1768POPC   C1B26743  34.882  28.237   8.689
 1768POPC   C2B26744  35.050  28.110   8.248
 1768POPC   C3B26745  35.119  28.180   7.791
 1768POPC   C4B26746  35.018  28.025   7.343
 1769POPC   NC326747  38.837  18.940   9.530
 1769POPC   PO426748  39.366  18.791   9.594
 1769POPC   GL126749  39.172  18.818   9.167
 1769POPC   GL226750  39.060  19.155   9.082
 1769POPC   C1A26751  39.115  18.759   8.724
 1769POPC   D2A26752  39.113  18.953   8.324
 1769POPC   C3A26753  39.254  18.769   7.940
 1769POPC   C4A26754  39.423  18.999   7.569
 1769POPC   C1B26755  38.836  19.248   8.673
 1769POPC   C2B26756  38.793  19.332   8.205
 1769POPC   C3B26757  39.011  19.216   7.834
 1769POPC   C4B26758  38.921  18.877   7.564
 1770POPC   NC326759  33.026  41.019   9.515
 1770POPC   PO426760  33.223  40.446   9.401
 1770POPC   GL126761  32.994  40.624   9.095
 1770POPC   GL226762  32.987  40.977   9.012
 1770POPC   C1A26763  32.797  40.598   8.710
 1770POPC   D2A26764  32.825  40.876   8.382
 1770POPC   C3A26765  32.691  40.691   8.011
 1770POPC   C4A26766  32.700  40.547   7.594
 1770POPC   C1B26767  33.387  41.086   8.789
 1770POPC   C2B26768  33.460  40.976   8.385
 1770POPC   C3B26769  33.163  41.073   8.049
 1770POPC   C4B26770  33.102  40.872   7.682
 1771POPC   NC326771  44.145  12.259   9.509
 1771POPC   PO426772  43.685  11.815   9.545
 1771POPC   GL126773  43.808  12.001   9.192
 1771POPC   GL226774  44.149  11.864   9.167
 1771POPC   C1A26775  43.923  12.268   8.866
 1771POPC   D2A26776  43.823  12.178   8.451
 1771POPC   C3A26777  44.053  12.322   8.084
 1771POPC   C4A26778  43.935  12.239   7.666
 1771POPC   C1B26779  44.008  11.731   8.761
 1771POPC   C2B26780  44.121  11.775   8.355
 1771POPC   C3B26781  43.979  11.824   7.940
 1771POPC   C4B26782  44.016  11.783   7.448
 1772POPC   NC326783  36.433   3.741   9.498
 1772POPC   PO426784  35.900   3.207   9.517
 1772POPC   GL126785  36.084   3.452   9.209
 1772POPC   GL226786  36.359   3.515   8.990
 1772POPC   C1A26787  35.900   3.611   8.834
 1772POPC   D2A26788  36.073   3.478   8.459
 1772POPC   C3A26789  35.839   3.553   8.144
 1772POPC   C4A26790  35.836   3.300   7.782
 1772POPC   C1B26791  36.377   3.814   8.655
 1772POPC   C2B26792  36.484   3.761   8.249
 1772POPC   C3B26793  36.303   3.574   7.891
 1772POPC   C4B26794  35.993   3.795   7.730
 1773POPC   NC326795   3.555  15.312   9.455
 1773POPC   PO426796   3.788  14.696   9.667
 1773POPC   GL126797   3.770  14.911   9.233
 1773POPC   GL226798   3.437  15.025   9.063
 1773POPC   C1A26799   3.859  14.939   8.775
 1773POPC   D2A26800   3.622  15.055   8.394
 1773POPC   C3A26801   3.769  15.267   8.021
 1773POPC   C4A26802   3.663  14.912   7.758
 1773POPC   C1B26803   3.453  15.379   8.763
 1773POPC   C2B26804   3.409  15.516   8.312
 1773POPC   C3B26805   3.270  15.188   7.976
 1773POPC   C4B26806   3.340  15.223   7.515
 1774POPC   NC326807  34.165   4.000   9.367
 1774POPC   PO426808  33.672   4.443   9.651
 1774POPC   GL126809  33.668   4.298   9.198
 1774POPC   GL226810  33.761   4.000   9.038
 1774POPC   C1A26811  33.747   4.398   8.727
 1774POPC   D2A26812  33.886   4.277   8.343
 1774POPC   C3A26813  33.645   4.208   7.990
 1774POPC   C4A26814  33.844   4.523   7.753
 1774POPC   C1B26815  34.109   4.004   8.713
 1774POPC   C2B26816  34.299   3.881   8.340
 1774POPC   C3B26817  34.098   3.994   7.982
 1774POPC   C4B26818  34.014   4.071   7.573
 1775POPC   NC326819  31.812   0.689   9.519
 1775POPC   PO426820  32.469   0.309   9.474
 1775POPC   GL126821  32.161   0.463   9.167
 1775POPC   GL226822  31.986   0.775   9.042
 1775POPC   C1A26823  32.320   0.466   8.748
 1775POPC   D2A26824  32.262   0.685   8.365
 1775POPC   C3A26825  32.330   0.406   8.018
 1775POPC   C4A26826  32.379   0.387   7.582
 1775POPC   C1B26827  31.810   0.473   8.729
 1775POPC   C2B26828  31.879   0.370   8.292
 1775POPC   C3B26829  31.924   0.681   7.956
 1775POPC   C4B26830  31.822   0.351   7.703
 1776POPC   NC326831   3.095  40.017   9.478
 1776POPC   PO426832   2.479  39.789   9.460
 1776POPC   GL126833   2.728  39.866   9.110
 1776POPC   GL226834   3.103  39.691   9.097
 1776POPC   C1A26835   2.476  39.830   8.728
 1776POPC   D2A26836   2.394  40.028   8.354
 1776POPC   C3A26837   2.388  39.793   7.967
 1776POPC   C4A26838   2.472  39.859   7.508
 1776POPC   C1B26839   2.971  39.704   8.704
 1776POPC   C2B26840   2.898  39.990   8.407
 1776POPC   C3B26841   2.866  40.015   7.993
 1776POPC   C4B26842   2.856  39.656   7.783
 1777POPC   NC326843  16.996  11.599   9.340
 1777POPC   PO426844  16.560  11.174   9.549
 1777POPC   GL126845  16.396  11.359   9.144
 1777POPC   GL226846  16.744  11.366   8.969
 1777POPC   C1A26847  16.356  11.477   8.682
 1777POPC   D2A26848  16.709  11.413   8.440
 1777POPC   C3A26849  16.639  11.435   8.030
 1777POPC   C4A26850  16.449  11.286   7.700
 1777POPC   C1B26851  17.115  11.545   8.725
 1777POPC   C2B26852  17.232  11.482   8.333
 1777POPC   C3B26853  17.128  11.222   8.036
 1777POPC   C4B26854  16.964  11.296   7.614
 1778POPC   NC326855  24.675  43.248   9.497
 1778POPC   PO426856  24.068  43.343   9.374
 1778POPC   GL126857  24.293  43.118   9.045
 1778POPC   GL226858  24.571  43.239   8.947
 1778POPC   C1A26859  24.264  42.967   8.613
 1778POPC   D2A26860  24.195  43.040   8.174
 1778POPC   C3A26861  24.292  42.825   7.804
 1778POPC   C4A26862  24.199  43.300   7.697
 1778POPC   C1B26863  24.747  42.882   8.660
 1778POPC   C2B26864  24.645  42.861   8.249
 1778POPC   C3B26865  24.659  43.144   7.899
 1778POPC   C4B26866  24.561  43.110   7.432
 1779POPC   NC326867  41.222  29.890   9.468
 1779POPC   PO426868  41.661  29.402   9.292
 1779POPC   GL126869  41.480  29.765   9.021
 1779POPC   GL226870  41.302  30.113   9.013
 1779POPC   C1A26871  41.425  29.848   8.575
 1779POPC   D2A26872  41.419  29.667   8.161
 1779POPC   C3A26873  41.662  29.872   7.864
 1779POPC   C4A26874  41.877  30.270   7.882
 1779POPC   C1B26875  41.398  30.358   8.615
 1779POPC   C2B26876  41.426  30.203   8.188
 1779POPC   C3B26877  41.058  29.992   7.947
 1779POPC   C4B26878  40.859  29.897   7.542
 1780POPC   NC326879  23.486  39.136   9.479
 1780POPC   PO426880  24.066  39.447   9.503
 1780POPC   GL126881  23.774  39.407   9.172
 1780POPC   GL226882  23.762  39.076   9.036
 1780POPC   C1A26883  23.535  39.502   8.822
 1780POPC   D2A26884  23.771  39.306   8.499
 1780POPC   C3A26885  23.671  39.241   8.070
 1780POPC   C4A26886  23.874  39.081   7.677
 1780POPC   C1B26887  23.476  38.887   8.746
 1780POPC   C2B26888  23.313  38.892   8.328
 1780POPC   C3B26889  23.530  38.782   7.935
 1780POPC   C4B26890  23.514  38.747   7.491
 1781POPC   NC326891  14.462  21.940   9.463
 1781POPC   PO426892  13.916  22.272   9.576
 1781POPC   GL126893  14.189  22.317   9.201
 1781POPC   GL226894  14.251  22.003   9.002
 1781POPC   C1A26895  14.390  22.431   8.789
 1781POPC   D2A26896  14.650  22.252   8.454
 1781POPC   C3A26897  14.444  22.295   8.086
 1781POPC   C4A26898  14.341  22.193   7.702
 1781POPC   C1B26899  14.614  21.873   8.780
 1781POPC   C2B26900  14.656  21.725   8.357
 1781POPC   C3B26901  14.614  21.825   7.908
 1781POPC   C4B26902  14.664  21.899   7.411
 1782POPC   NC326903  36.854   1.372   9.576
 1782POPC   PO426904  36.914   0.776   9.660
 1782POPC   GL126905  37.052   1.030   9.246
 1782POPC   GL226906  36.781   1.307   9.092
 1782POPC   C1A26907  36.948   0.944   8.793
 1782POPC   D2A26908  36.753   1.207   8.457
 1782POPC   C3A26909  36.903   1.006   8.052
 1782POPC   C4A26910  36.918   1.138   7.627
 1782POPC   C1B26911  37.145   1.416   8.804
 1782POPC   C2B26912  37.239   1.319   8.352
 1782POPC   C3B26913  37.074   1.482   7.964
 1782POPC   C4B26914  37.332   1.447   7.606
 1783POPC   NC326915   6.066  31.082   9.304
 1783POPC   PO426916   5.815  31.704   9.582
 1783POPC   GL126917   5.555  31.653   9.228
 1783POPC   GL226918   5.521  31.330   9.184
 1783POPC   C1A26919   5.535  31.836   8.817
 1783POPC   D2A26920   5.674  31.698   8.413
 1783POPC   C3A26921   5.631  31.851   8.001
 1783POPC   C4A26922   5.928  31.680   7.677
 1783POPC   C1B26923   5.774  31.356   8.796
 1783POPC   C2B26924   6.060  31.217   8.445
 1783POPC   C3B26925   6.101  31.233   8.002
 1783POPC   C4B26926   5.720  31.227   7.787
 1784POPC   NC326927  37.703  23.499   9.437
 1784POPC   PO426928  38.324  23.416   9.396
 1784POPC   GL126929  38.438  23.515   9.005
 1784POPC   GL226930  38.721  23.315   9.016
 1784POPC   C1A26931  38.430  23.904   8.768
 1784POPC   D2A26932  38.236  24.125   8.397
 1784POPC   C3A26933  38.277  23.916   7.964
 1784POPC   C4A26934  38.254  23.836   7.507
 1784POPC   C1B26935  38.799  23.567   8.632
 1784POPC   C2B26936  38.772  23.448   8.180
 1784POPC   C3B26937  38.517  23.479   7.808
 1784POPC   C4B26938  38.611  23.460   7.375
 1785POPC   NC326939  33.030  18.054   9.684
 1785POPC   PO426940  32.529  18.440   9.369
 1785POPC   GL126941  32.810  18.098   9.205
 1785POPC   GL226942  33.183  17.972   9.196
 1785POPC   C1A26943  32.899  18.018   8.770
 1785POPC   D2A26944  32.765  17.816   8.374
 1785POPC   C3A26945  32.893  18.056   8.002
 1785POPC   C4A26946  32.762  18.229   7.598
 1785POPC   C1B26947  33.367  18.190   8.842
 1785POPC   C2B26948  33.237  18.170   8.388
 1785POPC   C3B26949  33.395  18.216   7.951
 1785POPC   C4B26950  33.243  18.345   7.509
 1786POPC   NC326951   3.768  24.018   9.492
 1786POPC   PO426952   3.392  23.442   9.438
 1786POPC   GL126953   3.652  23.624   9.169
 1786POPC   GL226954   3.469  23.919   9.089
 1786POPC   C1A26955   3.715  23.544   8.758
 1786POPC   D2A26956   3.873  23.380   8.376
 1786POPC   C3A26957   3.708  23.529   7.962
 1786POPC   C4A26958   3.579  23.730   7.580
 1786POPC   C1B26959   3.620  24.054   8.736
 1786POPC   C2B26960   3.679  23.883   8.348
 1786POPC   C3B26961   3.427  23.959   8.017
 1786POPC   C4B26962   3.377  24.198   7.669
 1787POPC   NC326963  15.964  20.177   9.780
 1787POPC   PO426964  15.606  19.663   9.558
 1787POPC   GL126965  15.977  19.680   9.256
 1787POPC   GL226966  16.073  19.986   9.073
 1787POPC   C1A26967  15.986  19.546   8.789
 1787POPC   D2A26968  16.087  19.362   8.357
 1787POPC   C3A26969  15.973  19.592   7.993
 1787POPC   C4A26970  15.596  19.666   7.809
 1787POPC   C1B26971  15.828  20.012   8.657
 1787POPC   C2B26972  15.838  20.052   8.193
 1787POPC   C3B26973  15.906  20.080   7.755
 1787POPC   C4B26974  16.137  20.242   7.392
 1788POPC   NC326975  13.786  32.850   9.311
 1788POPC   PO426976  13.294  33.234   9.468
 1788POPC   GL126977  13.508  33.216   9.107
 1788POPC   GL226978  13.314  32.896   9.073
 1788POPC   C1A26979  13.780  33.267   8.751
 1788POPC   D2A26980  13.802  33.427   8.365
 1788POPC   C3A26981  13.891  33.269   7.973
 1788POPC   C4A26982  13.659  33.202   7.616
 1788POPC   C1B26983  13.589  32.798   8.709
 1788POPC   C2B26984  13.758  32.915   8.304
 1788POPC   C3B26985  13.773  32.750   7.855
 1788POPC   C4B26986  13.426  32.730   7.535
 1789POPC   NC326987  12.138  25.730   9.454
 1789POPC   PO426988  11.905  25.140   9.719
 1789POPC   GL126989  11.897  25.283   9.277
 1789POPC   GL226990  12.136  25.009   9.180
 1789POPC   C1A26991  11.818  25.142   8.837
 1789POPC   D2A26992  12.005  24.878   8.519
 1789POPC   C3A26993  11.897  25.089   8.138
 1789POPC   C4A26994  11.999  25.066   7.747
 1789POPC   C1B26995  12.319  25.195   8.754
 1789POPC   C2B26996  12.375  25.164   8.272
 1789POPC   C3B26997  12.430  25.349   7.839
 1789POPC   C4B26998  12.256  25.565   7.476
 1790POPC   NC326999  30.276  29.113   9.525
 1790POPC   PO427000  29.763  29.456   9.574
 1790POPC   GL127001  29.926  29.226   9.164
 1790POPC   GL227002  30.272  29.293   9.046
 1790POPC   C1A27003  29.907  29.234   8.690
 1790POPC   D2A27004  30.066  29.188   8.244
 1790POPC   C3A27005  29.772  29.149   7.870
 1790POPC   C4A27006  29.535  29.386   7.554
 1790POPC   C1B27007  30.371  28.992   8.692
 1790POPC   C2B27008  30.326  28.761   8.275
 1790POPC   C3B27009  30.201  28.871   7.826
 1790POPC   C4B27010  30.390  28.929   7.441
 1791POPC   NC327011  19.503  33.240   9.473
 1791POPC   PO427012  19.823  32.641   9.404
 1791POPC   GL127013  19.834  32.794   9.020
 1791POPC   GL227014  19.849  33.146   9.111
 1791POPC   C1A27015  19.674  32.998   8.660
 1791POPC   D2A27016  19.530  33.199   8.311
 1791POPC   C3A27017  19.552  33.000   7.909
 1791POPC   C4A27018  19.712  33.188   7.537
 1791POPC   C1B27019  20.120  33.246   8.782
 1791POPC   C2B27020  20.153  32.998   8.396
 1791POPC   C3B27021  20.062  33.099   7.955
 1791POPC   C4B27022  20.203  33.369   7.607
 1792POPC   NC327023  16.149  36.936   9.548
 1792POPC   PO427024  15.636  37.242   9.508
 1792POPC   GL127025  15.613  36.934   9.181
 1792POPC   GL227026  15.965  36.922   9.082
 1792POPC   C1A27027  15.664  36.665   8.792
 1792POPC   D2A27028  15.905  36.846   8.467
 1792POPC   C3A27029  15.716  36.830   8.080
 1792POPC   C4A27030  15.911  36.809   7.703
 1792POPC   C1B27031  16.242  37.108   8.798
 1792POPC   C2B27032  16.444  37.146   8.399
 1792POPC   C3B27033  16.306  37.322   8.017
 1792POPC   C4B27034  16.209  37.193   7.609
 1793POPC   NC327035  19.461   2.921   9.544
 1793POPC   PO427036  20.092   2.581   9.577
 1793POPC   GL127037  19.884   2.811   9.239
 1793POPC   GL227038  19.598   2.560   9.153
 1793POPC   C1A27039  19.831   2.838   8.788
 1793POPC   D2A27040  19.997   2.918   8.378
 1793POPC   C3A27041  20.115   2.655   8.068
 1793POPC   C4A27042  19.879   2.593   7.703
 1793POPC   C1B27043  19.491   2.460   8.696
 1793POPC   C2B27044  19.405   2.609   8.261
 1793POPC   C3B27045  19.364   2.468   7.790
 1793POPC   C4B27046  19.567   2.457   7.323
 1794POPC   NC327047  27.662  40.186   9.945
 1794POPC   PO427048  27.279  39.873   9.454
 1794POPC   GL127049  27.590  40.010   9.097
 1794POPC   GL227050  27.890  40.285   9.241
 1794POPC   C1A27051  27.635  39.943   8.669
 1794POPC   D2A27052  27.765  39.851   8.247
 1794POPC   C3A27053  27.508  39.935   7.890
 1794POPC   C4A27054  27.486  40.077   7.444
 1794POPC   C1B27055  27.735  40.439   8.859
 1794POPC   C2B27056  27.865  40.348   8.463
 1794POPC   C3B27057  27.640  40.366   8.118
 1794POPC   C4B27058  27.842  40.302   7.756
 1795POPC   NC327059  41.668  32.084   9.828
 1795POPC   PO427060  41.244  31.638   9.597
 1795POPC   GL127061  41.455  31.411   9.214
 1795POPC   GL227062  41.555  31.080   9.059
 1795POPC   C1A27063  41.522  31.482   8.751
 1795POPC   D2A27064  41.453  31.283   8.339
 1795POPC   C3A27065  41.548  31.537   7.984
 1795POPC   C4A27066  41.729  31.476   7.588
 1795POPC   C1B27067  41.883  31.128   8.710
 1795POPC   C2B27068  41.938  31.062   8.265
 1795POPC   C3B27069  42.002  31.081   7.817
 1795POPC   C4B27070  42.021  31.114   7.354
 1796POPC   NC327071  21.314  27.837   9.595
 1796POPC   PO427072  21.693  27.277   9.660
 1796POPC   GL127073  21.603  27.577   9.271
 1796POPC   GL227074  21.222  27.589   9.155
 1796POPC   C1A27075  21.587  27.695   8.818
 1796POPC   D2A27076  21.705  27.627   8.392
 1796POPC   C3A27077  21.527  27.729   8.003
 1796POPC   C4A27078  21.585  27.574   7.595
 1796POPC   C1B27079  21.157  27.401   8.724
 1796POPC   C2B27080  21.165  27.432   8.250
 1796POPC   C3B27081  21.187  27.245   7.808
 1796POPC   C4B27082  21.251  27.247   7.359
 1797POPC   NC327083  23.170  12.447   9.686
 1797POPC   PO427084  23.740  11.990   9.679
 1797POPC   GL127085  23.823  11.936   9.224
 1797POPC   GL227086  23.538  11.896   9.010
 1797POPC   C1A27087  23.981  12.137   8.817
 1797POPC   D2A27088  24.186  12.207   8.397
 1797POPC   C3A27089  24.104  11.993   8.024
 1797POPC   C4A27090  23.834  12.085   7.735
 1797POPC   C1B27091  23.538  12.038   8.598
 1797POPC   C2B27092  23.667  12.219   8.213
 1797POPC   C3B27093  23.382  12.242   7.848
 1797POPC   C4B27094  23.376  11.986   7.445
 1798POPC   NC327095   7.602  30.288   9.512
 1798POPC   PO427096   7.281  30.868   9.409
 1798POPC   GL127097   7.328  30.516   9.128
 1798POPC   GL227098   7.681  30.583   9.097
 1798POPC   C1A27099   7.347  30.560   8.679
 1798POPC   D2A27100   7.477  30.951   8.458
 1798POPC   C3A27101   7.629  30.864   8.044
 1798POPC   C4A27102   7.631  30.829   7.596
 1798POPC   C1B27103   7.745  30.212   8.832
 1798POPC   C2B27104   7.665  30.081   8.392
 1798POPC   C3B27105   7.651  30.283   7.991
 1798POPC   C4B27106   7.775  30.352   7.553
 1799POPC   NC327107  10.564  14.311   9.496
 1799POPC   PO427108  10.329  14.831   9.910
 1799POPC   GL127109  10.172  14.533   9.339
 1799POPC   GL227110  10.522  14.581   9.082
 1799POPC   C1A27111  10.153  14.416   8.831
 1799POPC   D2A27112  10.414  14.690   8.527
 1799POPC   C3A27113  10.509  14.567   8.085
 1799POPC   C4A27114  10.274  14.344   7.769
 1799POPC   C1B27115  10.714  14.349   8.784
 1799POPC   C2B27116  10.671  14.130   8.429
 1799POPC   C3B27117  10.569  14.036   8.049
 1799POPC   C4B27118  10.754  14.143   7.663
 1800POPC   NC327119  24.323  25.054   9.509
 1800POPC   PO427120  24.213  25.663   9.399
 1800POPC   GL127121  24.467  25.360   9.095
 1800POPC   GL227122  24.550  24.998   9.063
 1800POPC   C1A27123  24.275  25.273   8.713
 1800POPC   D2A27124  24.122  25.530   8.391
 1800POPC   C3A27125  24.143  25.354   8.023
 1800POPC   C4A27126  24.171  25.007   7.793
 1800POPC   C1B27127  24.775  25.140   8.678
 1800POPC   C2B27128  24.604  25.316   8.293
 1800POPC   C3B27129  24.630  25.324   7.859
 1800POPC   C4B27130  24.815  25.098   7.554
 1801POPC   NC327131   5.440  32.744   9.441
 1801POPC   PO427132   4.800  32.737   9.263
 1801POPC   GL127133   5.039  33.027   9.065
 1801POPC   GL227134   5.334  33.190   9.167
 1801POPC   C1A27135   5.116  32.874   8.668
 1801POPC   D2A27136   5.425  32.774   8.368
 1801POPC   C3A27137   5.218  32.814   7.966
 1801POPC   C4A27138   4.761  32.786   7.815
 1801POPC   C1B27139   5.506  33.171   8.751
 1801POPC   C2B27140   5.295  33.293   8.346
 1801POPC   C3B27141   5.114  33.313   7.916
 1801POPC   C4B27142   5.125  33.061   7.512
 1802POPC   NC327143   8.567  41.641   9.425
 1802POPC   PO427144   9.108  41.309   9.584
 1802POPC   GL127145   9.134  41.492   9.173
 1802POPC   GL227146   8.851  41.648   9.011
 1802POPC   C1A27147   9.193  41.356   8.764
 1802POPC   D2A27148   9.172  41.571   8.395
 1802POPC   C3A27149   9.042  41.387   8.035
 1802POPC   C4A27150   8.739  41.552   7.761
 1802POPC   C1B27151   8.777  41.859   8.622
 1802POPC   C2B27152   8.754  41.807   8.199
 1802POPC   C3B27153   8.434  41.938   7.923
 1802POPC   C4B27154   8.483  41.909   7.472
 1803POPC   NC327155  38.769  11.066   9.489
 1803POPC   PO427156  39.058  11.703   9.340
 1803POPC   GL127157  38.711  11.534   9.111
 1803POPC   GL227158  38.445  11.280   9.152
 1803POPC   C1A27159  38.604  11.468   8.682
 1803POPC   D2A27160  38.307  11.293   8.387
 1803POPC   C3A27161  38.504  11.405   8.019
 1803POPC   C4A27162  38.343  11.423   7.614
 1803POPC   C1B27163  38.356  11.006   8.811
 1803POPC   C2B27164  38.202  10.787   8.430
 1803POPC   C3B27165  38.316  10.896   8.021
 1803POPC   C4B27166  38.613  11.002   7.732
 1804POPC   NC327167  12.162  22.231   9.429
 1804POPC   PO427168  11.602  21.840   9.580
 1804POPC   GL127169  11.899  21.871   9.175
 1804POPC   GL227170  12.237  21.937   9.028
 1804POPC   C1A27171  11.819  22.088   8.768
 1804POPC   D2A27172  11.908  22.335   8.414
 1804POPC   C3A27173  12.105  22.091   8.114
 1804POPC   C4A27174  11.999  22.204   7.723
 1804POPC   C1B27175  12.300  22.313   8.759
 1804POPC   C2B27176  12.457  22.407   8.344
 1804POPC   C3B27177  12.303  22.543   7.944
 1804POPC   C4B27178  12.225  22.727   7.550
 1805POPC   NC327179  37.657  21.845   9.889
 1805POPC   PO427180  37.380  22.325   9.530
 1805POPC   GL127181  37.511  22.515   9.159
 1805POPC   GL227182  37.742  22.242   9.152
 1805POPC   C1A27183  37.449  22.377   8.749
 1805POPC   D2A27184  37.461  22.052   8.435
 1805POPC   C3A27185  37.515  22.236   8.049
 1805POPC   C4A27186  37.454  22.024   7.680
 1805POPC   C1B27187  37.782  21.977   8.830
 1805POPC   C2B27188  37.958  21.914   8.424
 1805POPC   C3B27189  37.926  21.917   7.996
 1805POPC   C4B27190  37.925  22.267   7.706
 1806POPC   NC327191  37.399  32.446   9.377
 1806POPC   PO427192  36.771  32.333   9.521
 1806POPC   GL127193  37.010  32.251   9.122
 1806POPC   GL227194  36.752  32.041   8.984
 1806POPC   C1A27195  37.163  32.256   8.680
 1806POPC   D2A27196  36.903  32.443   8.383
 1806POPC   C3A27197  36.963  32.651   8.013
 1806POPC   C4A27198  36.712  32.799   7.667
 1806POPC   C1B27199  36.998  31.788   8.680
 1806POPC   C2B27200  37.112  31.908   8.250
 1806POPC   C3B27201  36.909  32.153   7.911
 1806POPC   C4B27202  36.713  32.091   7.466
 1807POPC   NC327203  43.654   0.183   9.401
 1807POPC   PO427204  44.149   0.673   9.490
 1807POPC   GL127205  44.117   0.713   9.074
 1807POPC   GL227206  43.766   0.576   9.034
 1807POPC   C1A27207  44.096   0.656   8.629
 1807POPC   D2A27208  43.709   0.516   8.479
 1807POPC   C3A27209  43.648   0.592   8.036
 1807POPC   C4A27210  43.845   0.863   7.739
 1807POPC   C1B27211  44.001   0.204   8.827
 1807POPC   C2B27212  44.054   0.157   8.375
 1807POPC   C3B27213  43.866   0.106   7.938
 1807POPC   C4B27214  44.066   0.122   7.497
 1808POPC   NC327215   1.046  25.422   9.996
 1808POPC   PO427216   1.501  25.705   9.506
 1808POPC   GL127217   1.257  25.538   9.125
 1808POPC   GL227218   1.104  25.252   9.130
 1808POPC   C1A27219   1.394  25.369   8.720
 1808POPC   D2A27220   1.449  25.598   8.343
 1808POPC   C3A27221   1.146  25.510   8.035
 1808POPC   C4A27222   1.232  25.381   7.603
 1808POPC   C1B27223   1.058  24.986   8.781
 1808POPC   C2B27224   1.112  25.106   8.357
 1808POPC   C3B27225   1.280  25.005   7.946
 1808POPC   C4B27226   0.980  24.946   7.607
 1809POPC   NC327227   3.394  24.615   9.493
 1809POPC   PO427228   3.986  24.433   9.555
 1809POPC   GL127229   3.756  24.398   9.156
 1809POPC   GL227230   3.798  24.724   9.165
 1809POPC   C1A27231   3.490  24.551   8.791
 1809POPC   D2A27232   3.438  24.378   8.367
 1809POPC   C3A27233   3.471  24.640   8.010
 1809POPC   C4A27234   3.623  24.632   7.601
 1809POPC   C1B27235   3.987  24.674   8.774
 1809POPC   C2B27236   3.842  24.738   8.347
 1809POPC   C3B27237   4.016  24.801   7.915
 1809POPC   C4B27238   4.037  24.844   7.423
 1810POPC   NC327239   0.402  19.957   9.656
 1810POPC   PO427240   0.796  19.392   9.693
 1810POPC   GL127241   0.721  19.741   9.296
 1810POPC   GL227242   0.617  20.128   9.208
 1810POPC   C1A27243   0.594  19.821   8.819
 1810POPC   D2A27244   0.689  20.076   8.414
 1810POPC   C3A27245   0.642  19.892   7.976
 1810POPC   C4A27246   0.549  19.572   7.630
 1810POPC   C1B27247   0.369  20.291   8.767
 1810POPC   C2B27248   0.259  20.410   8.292
 1810POPC   C3B27249   0.278  20.222   7.821
 1810POPC   C4B27250   0.118  20.338   7.376
 1811POPC   NC327251  11.206  22.522   9.385
 1811POPC   PO427252  11.800  22.505   9.284
 1811POPC   GL127253  11.470  22.148   9.155
 1811POPC   GL227254  11.405  21.769   9.129
 1811POPC   C1A27255  11.182  22.162   8.805
 1811POPC   D2A27256  11.068  22.540   8.531
 1811POPC   C3A27257  11.027  22.468   8.072
 1811POPC   C4A27258  11.124  22.067   7.848
 1811POPC   C1B27259  11.516  21.680   8.735
 1811POPC   C2B27260  11.382  21.913   8.394
 1811POPC   C3B27261  11.594  22.038   8.052
 1811POPC   C4B27262  11.760  21.747   7.772
 1812POPC   NC327263  11.730  15.193   9.580
 1812POPC   PO427264  12.330  15.369   9.733
 1812POPC   GL127265  12.327  15.330   9.263
 1812POPC   GL227266  12.102  15.048   9.227
 1812POPC   C1A27267  12.320  15.203   8.803
 1812POPC   D2A27268  12.102  15.042   8.458
 1812POPC   C3A27269  12.262  15.039   8.050
 1812POPC   C4A27270  12.058  15.119   7.658
 1812POPC   C1B27271  11.791  15.076   8.898
 1812POPC   C2B27272  11.632  14.852   8.533
 1812POPC   C3B27273  11.814  14.755   8.135
 1812POPC   C4B27274  11.631  14.874   7.772
 1813POPC   NC327275  37.417  42.447   9.301
 1813POPC   PO427276  37.971  42.792   9.403
 1813POPC   GL127277  38.022  42.732   8.985
 1813POPC   GL227278  37.755  42.495   8.897
 1813POPC   C1A27279  37.860  42.912   8.603
 1813POPC   D2A27280  37.541  42.626   8.449
 1813POPC   C3A27281  37.604  42.339   8.165
 1813POPC   C4A27282  37.553  42.417   7.720
 1813POPC   C1B27283  37.522  42.149   8.657
 1813POPC   C2B27284  37.166  42.091   8.362
 1813POPC   C3B27285  37.279  42.038   7.936
 1813POPC   C4B27286  37.734  41.956   7.844
 1814POPC   NC327287  11.415  24.243   9.647
 1814POPC   PO427288  11.257  24.900   9.593
 1814POPC   GL127289  11.237  24.610   9.229
 1814POPC   GL227290  11.544  24.430   9.117
 1814POPC   C1A27291  11.097  24.445   8.826
 1814POPC   D2A27292  11.085  24.665   8.407
 1814POPC   C3A27293  11.229  24.451   8.028
 1814POPC   C4A27294  11.168  24.143   7.713
 1814POPC   C1B27295  11.538  24.707   8.727
 1814POPC   C2B27296  11.628  24.657   8.260
 1814POPC   C3B27297  11.558  24.807   7.814
 1814POPC   C4B27298  11.454  24.999   7.370
 1815POPC   NC327299   7.507  34.063   9.394
 1815POPC   PO427300   6.989  33.707   9.633
 1815POPC   GL127301   7.232  33.631   9.242
 1815POPC   GL227302   7.611  33.586   9.234
 1815POPC   C1A27303   7.322  33.809   8.823
 1815POPC   D2A27304   7.202  33.909   8.419
 1815POPC   C3A27305   7.462  33.898   8.076
 1815POPC   C4A27306   7.214  33.878   7.729
 1815POPC   C1B27307   7.510  33.353   8.857
 1815POPC   C2B27308   7.669  33.594   8.483
 1815POPC   C3B27309   7.801  33.506   8.044
 1815POPC   C4B27310   7.591  33.526   7.632
 1816POPC   NC327311   6.750  10.108   9.478
 1816POPC   PO427312   6.352  10.735   9.409
 1816POPC   GL127313   6.462  10.383   9.146
 1816POPC   GL227314   6.762  10.489   9.133
 1816POPC   C1A27315   6.579  10.220   8.718
 1816POPC   D2A27316   6.854  10.288   8.312
 1816POPC   C3A27317   6.578  10.351   7.937
 1816POPC   C4A27318   6.306  10.307   7.553
 1816POPC   C1B27319   6.951  10.559   8.753
 1816POPC   C2B27320   7.026  10.782   8.366
 1816POPC   C3B27321   6.936  10.748   7.936
 1816POPC   C4B27322   6.590  10.816   7.705
 1817POPC   NC327323  30.002  10.960   9.734
 1817POPC   PO427324  29.667  11.402   9.470
 1817POPC   GL127325  29.707  11.167   9.076
 1817POPC   GL227326  30.058  11.085   9.129
 1817POPC   C1A27327  29.651  11.230   8.624
 1817POPC   D2A27328  29.610  11.530   8.293
 1817POPC   C3A27329  29.693  11.343   7.907
 1817POPC   C4A27330  30.103  11.413   7.672
 1817POPC   C1B27331  30.139  11.084   8.673
 1817POPC   C2B27332  30.040  11.119   8.202
 1817POPC   C3B27333  30.144  10.914   7.775
 1817POPC   C4B27334  30.271  11.079   7.322
 1818POPC   NC327335  10.531  24.924   9.726
 1818POPC   PO427336  10.286  24.400   9.328
 1818POPC   GL127337  10.630  24.478   9.093
 1818POPC   GL227338  10.676  24.141   8.960
 1818POPC   C1A27339  10.641  24.665   8.691
 1818POPC   D2A27340  10.535  24.676   8.269
 1818POPC   C3A27341  10.496  24.288   8.077
 1818POPC   C4A27342  10.769  24.462   7.813
 1818POPC   C1B27343  10.288  24.229   8.689
 1818POPC   C2B27344  10.050  24.108   8.314
 1818POPC   C3B27345  10.027  24.305   7.879
 1818POPC   C4B27346  10.363  24.374   7.532
 1819POPC   NC327347  13.384  19.392   9.245
 1819POPC   PO427348  13.870  18.931   9.418
 1819POPC   GL127349  13.768  18.811   9.027
 1819POPC   GL227350  13.457  18.924   9.021
 1819POPC   C1A27351  13.837  18.957   8.616
 1819POPC   D2A27352  13.585  19.116   8.302
 1819POPC   C3A27353  13.656  19.037   7.903
 1819POPC   C4A27354  13.952  18.789   7.762
 1819POPC   C1B27355  13.104  18.824   8.807
 1819POPC   C2B27356  13.119  19.020   8.453
 1819POPC   C3B27357  13.187  18.882   8.059
 1819POPC   C4B27358  13.105  18.982   7.661
 1820POPC   NC327359  42.578  30.799   9.607
 1820POPC   PO427360  41.869  31.042   9.448
 1820POPC   GL127361  42.148  30.908   9.093
 1820POPC   GL227362  42.515  30.870   9.092
 1820POPC   C1A27363  42.246  30.711   8.671
 1820POPC   D2A27364  42.431  30.484   8.310
 1820POPC   C3A27365  42.258  30.637   7.906
 1820POPC   C4A27366  42.383  30.759   7.473
 1820POPC   C1B27367  42.596  31.066   8.688
 1820POPC   C2B27368  42.454  30.985   8.252
 1820POPC   C3B27369  42.535  31.083   7.837
 1820POPC   C4B27370  42.865  30.981   7.566
 1821POPC   NC327371   0.957  25.610   9.503
 1821POPC   PO427372   1.180  26.218   9.745
 1821POPC   GL127373   1.282  26.081   9.255
 1821POPC   GL227374   0.989  25.987   9.104
 1821POPC   C1A27375   1.469  25.888   8.850
 1821POPC   D2A27376   1.345  26.087   8.474
 1821POPC   C3A27377   1.470  26.099   8.085
 1821POPC   C4A27378   1.523  25.745   7.827
 1821POPC   C1B27379   1.037  26.321   8.783
 1821POPC   C2B27380   0.980  26.417   8.308
 1821POPC   C3B27381   0.960  26.248   7.869
 1821POPC   C4B27382   1.008  26.498   7.479
 1822POPC   NC327383  20.102  32.226   9.491
 1822POPC   PO427384  19.413  31.963   9.521
 1822POPC   GL127385  19.688  32.183   9.158
 1822POPC   GL227386  20.035  32.031   9.048
 1822POPC   C1A27387  19.763  32.360   8.713
 1822POPC   D2A27388  19.733  32.633   8.293
 1822POPC   C3A27389  19.860  32.434   7.896
 1822POPC   C4A27390  19.727  32.194   7.502
 1822POPC   C1B27391  20.184  31.972   8.667
 1822POPC   C2B27392  19.943  32.023   8.321
 1822POPC   C3B27393  20.072  31.775   7.990
 1822POPC   C4B27394  20.281  31.600   7.628
 1823POPC   NC327395   1.739   6.219   9.379
 1823POPC   PO427396   2.095   6.900   9.562
 1823POPC   GL127397   2.175   6.709   9.141
 1823POPC   GL227398   1.848   6.613   9.110
 1823POPC   C1A27399   2.100   6.485   8.701
 1823POPC   D2A27400   1.910   6.649   8.338
 1823POPC   C3A27401   2.108   6.672   7.962
 1823POPC   C4A27402   2.409   6.382   7.818
 1823POPC   C1B27403   1.590   6.469   8.720
 1823POPC   C2B27404   1.413   6.648   8.313
 1823POPC   C3B27405   1.596   6.521   7.898
 1823POPC   C4B27406   1.904   6.438   7.539
 1824POPC   NC327407  20.601  38.668   9.512
 1824POPC   PO427408  20.970  38.198   9.232
 1824POPC   GL127409  20.583  38.343   9.121
 1824POPC   GL227410  20.757  38.506   8.878
 1824POPC   C1A27411  20.278  38.363   8.785
 1824POPC   D2A27412  20.401  38.477   8.383
 1824POPC   C3A27413  20.419  38.286   8.006
 1824POPC   C4A27414  20.196  38.423   7.654
 1824POPC   C1B27415  20.705  38.101   8.658
 1824POPC   C2B27416  20.817  38.031   8.275
 1824POPC   C3B27417  20.956  38.341   7.980
 1824POPC   C4B27418  20.800  38.263   7.573
 1825POPC   NC327419  20.699  34.289   9.303
 1825POPC   PO427420  20.871  34.936   9.545
 1825POPC   GL127421  20.780  34.772   9.113
 1825POPC   GL227422  20.837  34.458   8.854
 1825POPC   C1A27423  20.798  34.950   8.712
 1825POPC   D2A27424  20.957  34.752   8.341
 1825POPC   C3A27425  20.595  34.746   8.092
 1825POPC   C4A27426  20.426  34.739   7.708
 1825POPC   C1B27427  20.501  34.235   8.651
 1825POPC   C2B27428  20.289  34.357   8.262
 1825POPC   C3B27429  20.524  34.280   7.880
 1825POPC   C4B27430  20.933  34.560   7.749
 1826POPC   NC327431  22.646  39.648   9.300
 1826POPC   PO427432  22.873  40.125   9.736
 1826POPC   GL127433  22.863  40.093   9.218
 1826POPC   GL227434  23.125  39.828   9.068
 1826POPC   C1A27435  22.971  40.209   8.769
 1826POPC   D2A27436  23.115  40.020   8.376
 1826POPC   C3A27437  23.040  40.250   7.991
 1826POPC   C4A27438  22.827  40.338   7.584
 1826POPC   C1B27439  22.890  39.688   8.703
 1826POPC   C2B27440  22.831  39.606   8.268
 1826POPC   C3B27441  23.142  39.728   7.944
 1826POPC   C4B27442  22.790  39.849   7.749
 1827POPC   NC327443  18.503  43.762   9.445
 1827POPC   PO427444  18.041  44.249   9.519
 1827POPC   GL127445  18.148  44.005   9.135
 1827POPC   GL227446  18.502  43.947   8.974
 1827POPC   C1A27447  18.071  44.137   8.732
 1827POPC   D2A27448  17.862  44.205   8.344
 1827POPC   C3A27449  18.135  44.038   8.064
 1827POPC   C4A27450  18.005  43.705   7.847
 1827POPC   C1B27451  18.369  43.665   8.635
 1827POPC   C2B27452  18.368  43.552   8.181
 1827POPC   C3B27453  18.454  43.464   7.724
 1827POPC   C4B27454  18.586  43.736   7.372
 1828POPC   NC327455  25.834  19.646   9.579
 1828POPC   PO427456  26.363  20.137   9.550
 1828POPC   GL127457  26.080  19.972   9.255
 1828POPC   GL227458  26.204  19.673   9.186
 1828POPC   C1A27459  25.987  20.068   8.855
 1828POPC   D2A27460  26.076  19.853   8.509
 1828POPC   C3A27461  25.823  19.861   8.184
 1828POPC   C4A27462  25.931  19.737   7.781
 1828POPC   C1B27463  25.876  19.538   8.894
 1828POPC   C2B27464  25.857  19.413   8.463
 1828POPC   C3B27465  26.177  19.470   8.151
 1828POPC   C4B27466  26.247  19.332   7.744
 1829POPC   NC327467  26.922  36.469   9.428
 1829POPC   PO427468  27.078  35.823   9.486
 1829POPC   GL127469  26.838  36.039   9.169
 1829POPC   GL227470  26.534  35.898   9.194
 1829POPC   C1A27471  26.872  36.286   8.783
 1829POPC   D2A27472  27.166  36.370   8.452
 1829POPC   C3A27473  26.993  36.311   8.076
 1829POPC   C4A27474  26.920  36.479   7.706
 1829POPC   C1B27475  26.567  35.848   8.763
 1829POPC   C2B27476  26.398  36.099   8.439
 1829POPC   C3B27477  26.486  36.205   8.035
 1829POPC   C4B27478  26.729  36.033   7.714
 1830POPC   NC327479  19.585  12.642   9.543
 1830POPC   PO427480  19.970  13.263   9.649
 1830POPC   GL127481  19.649  13.080   9.298
 1830POPC   GL227482  19.893  12.781   9.181
 1830POPC   C1A27483  19.574  12.937   8.828
 1830POPC   D2A27484  19.845  13.000   8.447
 1830POPC   C3A27485  19.759  12.975   8.002
 1830POPC   C4A27486  19.700  13.318   7.756
 1830POPC   C1B27487  20.096  12.698   8.793
 1830POPC   C2B27488  20.048  12.527   8.423
 1830POPC   C3B27489  20.141  12.595   8.028
 1830POPC   C4B27490  19.994  12.621   7.642
 1831POPC   NC327491   5.653  31.301   9.725
 1831POPC   PO427492   5.044  31.436   9.571
 1831POPC   GL127493   5.028  31.447   9.142
 1831POPC   GL227494   4.739  31.594   9.053
 1831POPC   C1A27495   5.259  31.385   8.740
 1831POPC   D2A27496   5.495  31.213   8.378
 1831POPC   C3A27497   5.319  31.417   8.043
 1831POPC   C4A27498   5.265  31.335   7.604
 1831POPC   C1B27499   4.772  31.212   8.774
 1831POPC   C2B27500   4.992  31.099   8.361
 1831POPC   C3B27501   4.866  31.174   7.922
 1831POPC   C4B27502   4.780  31.483   7.588
 1832POPC   NC327503  14.096  24.821   9.351
 1832POPC   PO427504  14.697  25.043   9.368
 1832POPC   GL127505  14.415  25.086   9.027
 1832POPC   GL227506  14.195  25.325   9.186
 1832POPC   C1A27507  14.480  25.130   8.579
 1832POPC   D2A27508  14.407  25.442   8.255
 1832POPC   C3A27509  14.449  25.211   7.883
 1832POPC   C4A27510  14.673  24.819   7.817
 1832POPC   C1B27511  14.101  25.396   8.748
 1832POPC   C2B27512  14.004  25.157   8.351
 1832POPC   C3B27513  13.932  25.276   7.908
 1832POPC   C4B27514  14.155  25.406   7.494
 1833POPC   NC327515  37.864  40.381   9.734
 1833POPC   PO427516  37.526  40.976   9.468
 1833POPC   GL127517  37.655  40.656   9.186
 1833POPC   GL227518  37.385  40.524   9.040
 1833POPC   C1A27519  37.819  40.674   8.748
 1833POPC   D2A27520  37.676  40.584   8.293
 1833POPC   C3A27521  37.915  40.666   7.945
 1833POPC   C4A27522  37.967  41.091   7.777
 1833POPC   C1B27523  37.401  40.950   8.782
 1833POPC   C2B27524  37.631  41.083   8.400
 1833POPC   C3B27525  37.494  40.958   7.975
 1833POPC   C4B27526  37.185  41.117   7.727
 1834POPC   NC327527  12.462   5.745   9.601
 1834POPC   PO427528  13.020   5.970   9.432
 1834POPC   GL127529  12.695   5.995   9.133
 1834POPC   GL227530  12.491   6.280   9.170
 1834POPC   C1A27531  12.778   5.822   8.725
 1834POPC   D2A27532  13.114   5.768   8.411
 1834POPC   C3A27533  12.997   5.783   7.964
 1834POPC   C4A27534  12.798   5.723   7.567
 1834POPC   C1B27535  12.590   6.301   8.709
 1834POPC   C2B27536  12.709   6.065   8.286
 1834POPC   C3B27537  12.732   6.201   7.818
 1834POPC   C4B27538  12.670   6.209   7.346
 1835POPC   NC327539  28.513  16.596   9.588
 1835POPC   PO427540  28.174  17.175   9.487
 1835POPC   GL127541  28.349  16.863   9.152
 1835POPC   GL227542  28.317  16.513   9.119
 1835POPC   C1A27543  28.278  16.833   8.709
 1835POPC   D2A27544  28.340  17.078   8.366
 1835POPC   C3A27545  28.367  16.831   8.049
 1835POPC   C4A27546  28.248  16.952   7.678
 1835POPC   C1B27547  28.512  16.371   8.776
 1835POPC   C2B27548  28.428  16.374   8.358
 1835POPC   C3B27549  28.589  16.308   7.964
 1835POPC   C4B27550  28.581  16.582   7.629
 1836POPC   NC327551  22.952  37.234   9.486
 1836POPC   PO427552  22.560  36.693   9.351
 1836POPC   GL127553  22.807  36.954   9.063
 1836POPC   GL227554  23.162  36.955   9.100
 1836POPC   C1A27555  22.948  36.877   8.643
 1836POPC   D2A27556  23.098  37.065   8.287
 1836POPC   C3A27557  22.849  36.975   7.940
 1836POPC   C4A27558  22.471  36.758   7.825
 1836POPC   C1B27559  23.443  36.776   8.825
 1836POPC   C2B27560  23.364  36.578   8.434
 1836POPC   C3B27561  23.279  36.678   8.015
 1836POPC   C4B27562  23.362  37.076   7.830
 1837POPC   NC327563  28.477   7.256   9.511
 1837POPC   PO427564  28.071   7.722   9.771
 1837POPC   GL127565  28.199   7.615   9.276
 1837POPC   GL227566  28.177   7.246   9.109
 1837POPC   C1A27567  28.353   7.638   8.810
 1837POPC   D2A27568  28.463   7.418   8.410
 1837POPC   C3A27569  28.366   7.532   8.000
 1837POPC   C4A27570  28.487   7.522   7.572
 1837POPC   C1B27571  28.583   7.174   8.854
 1837POPC   C2B27572  28.682   6.957   8.455
 1837POPC   C3B27573  28.603   7.080   8.013
 1837POPC   C4B27574  28.235   7.083   7.743
 1838POPC   NC327575  20.333  39.377   9.188
 1838POPC   PO427576  19.917  39.150   9.653
 1838POPC   GL127577  19.693  39.122   9.292
 1838POPC   GL227578  19.929  38.929   9.175
 1838POPC   C1A27579  19.663  39.399   8.925
 1838POPC   D2A27580  19.898  39.485   8.529
 1838POPC   C3A27581  19.750  39.214   8.181
 1838POPC   C4A27582  19.623  39.233   7.783
 1838POPC   C1B27583  19.983  39.019   8.769
 1838POPC   C2B27584  20.170  39.050   8.398
 1838POPC   C3B27585  20.242  39.252   8.007
 1838POPC   C4B27586  20.226  38.986   7.677
 1839POPC   NC327587  18.033  13.480   9.454
 1839POPC   PO427588  18.590  13.796   9.520
 1839POPC   GL127589  18.386  13.644   9.127
 1839POPC   GL227590  18.094  13.826   9.092
 1839POPC   C1A27591  18.423  13.478   8.713
 1839POPC   D2A27592  18.543  13.701   8.335
 1839POPC   C3A27593  18.517  13.546   7.915
 1839POPC   C4A27594  18.264  13.643   7.546
 1839POPC   C1B27595  17.942  13.994   8.711
 1839POPC   C2B27596  18.099  14.017   8.344
 1839POPC   C3B27597  18.096  13.867   7.970
 1839POPC   C4B27598  17.808  13.823   7.636
 1840POPC   NC327599  20.558   4.569   9.320
 1840POPC   PO427600  20.659   5.088   9.691
 1840POPC   GL127601  20.727   5.082   9.226
 1840POPC   GL227602  20.946   4.816   9.155
 1840POPC   C1A27603  20.940   5.201   8.788
 1840POPC   D2A27604  21.125   5.328   8.354
 1840POPC   C3A27605  20.861   5.185   7.966
 1840POPC   C4A27606  20.410   5.112   7.849
 1840POPC   C1B27607  20.873   4.659   8.742
 1840POPC   C2B27608  20.781   4.707   8.283
 1840POPC   C3B27609  20.893   4.654   7.841
 1840POPC   C4B27610  20.742   4.909   7.525
 1841POPC   NC327611  31.914  17.180   9.342
 1841POPC   PO427612  31.534  17.641   9.633
 1841POPC   GL127613  31.268  17.631   9.245
 1841POPC   GL227614  31.305  17.306   9.102
 1841POPC   C1A27615  31.139  17.680   8.792
 1841POPC   D2A27616  31.413  17.645   8.418
 1841POPC   C3A27617  31.295  17.552   7.983
 1841POPC   C4A27618  31.229  17.662   7.530
 1841POPC   C1B27619  31.647  17.490   8.849
 1841POPC   C2B27620  31.882  17.385   8.469
 1841POPC   C3B27621  31.822  17.570   8.059
 1841POPC   C4B27622  31.748  17.474   7.599
 1842POPC   NC327623  31.418  28.221   9.558
 1842POPC   PO427624  32.101  28.244   9.377
 1842POPC   GL127625  31.724  28.385   9.090
 1842POPC   GL227626  31.323  28.401   9.089
 1842POPC   C1A27627  31.686  28.407   8.631
 1842POPC   D2A27628  31.595  28.127   8.289
 1842POPC   C3A27629  31.755  28.197   7.849
 1842POPC   C4A27630  31.637  28.310   7.445
 1842POPC   C1B27631  31.327  28.719   8.763
 1842POPC   C2B27632  31.325  28.599   8.288
 1842POPC   C3B27633  31.361  28.568   7.815
 1842POPC   C4B27634  31.232  28.582   7.327
 1843POPC   NC327635  36.425  27.882   9.796
 1843POPC   PO427636  35.989  27.519   9.550
 1843POPC   GL127637  36.130  27.652   9.174
 1843POPC   GL227638  36.207  27.358   9.060
 1843POPC   C1A27639  36.190  27.774   8.730
 1843POPC   D2A27640  36.305  27.601   8.324
 1843POPC   C3A27641  36.056  27.341   8.097
 1843POPC   C4A27642  36.186  27.579   7.777
 1843POPC   C1B27643  35.974  27.314   8.657
 1843POPC   C2B27644  35.770  27.646   8.395
 1843POPC   C3B27645  35.747  27.768   7.954
 1843POPC   C4B27646  35.735  27.575   7.557
 1844POPC   NC327647  35.714  28.721   9.342
 1844POPC   PO427648  36.397  28.916   9.470
 1844POPC   GL127649  36.241  29.056   9.122
 1844POPC   GL227650  35.914  29.186   9.259
 1844POPC   C1A27651  36.409  28.950   8.719
 1844POPC   D2A27652  36.498  28.720   8.338
 1844POPC   C3A27653  36.457  28.957   7.973
 1844POPC   C4A27654  36.186  28.981   7.661
 1844POPC   C1B27655  35.844  29.094   8.823
 1844POPC   C2B27656  35.862  29.274   8.459
 1844POPC   C3B27657  35.934  29.152   8.064
 1844POPC   C4B27658  35.736  29.216   7.678
 1845POPC   NC327659  22.741  34.474   9.664
 1845POPC   PO427660  22.682  33.843   9.506
 1845POPC   GL127661  22.576  34.257   9.231
 1845POPC   GL227662  22.855  34.539   9.180
 1845POPC   C1A27663  22.510  34.452   8.804
 1845POPC   D2A27664  22.752  34.305   8.459
 1845POPC   C3A27665  22.701  34.442   8.042
 1845POPC   C4A27666  22.511  34.692   7.748
 1845POPC   C1B27667  22.858  34.827   8.825
 1845POPC   C2B27668  22.693  34.821   8.402
 1845POPC   C3B27669  22.860  34.951   8.010
 1845POPC   C4B27670  23.064  34.685   7.726
 1846POPC   NC327671  42.045  11.705   9.634
 1846POPC   PO427672  41.514  12.089   9.601
 1846POPC   GL127673  41.473  11.969   9.183
 1846POPC   GL227674  41.795  12.057   9.175
 1846POPC   C1A27675  41.349  12.023   8.767
 1846POPC   D2A27676  41.435  12.171   8.381
 1846POPC   C3A27677  41.265  12.017   8.053
 1846POPC   C4A27678  41.454  12.058   7.705
 1846POPC   C1B27679  41.878  12.019   8.756
 1846POPC   C2B27680  41.945  12.316   8.427
 1846POPC   C3B27681  41.792  12.332   8.014
 1846POPC   C4B27682  41.892  12.304   7.611
 1847POPC   NC327683  28.806  43.060   9.694
 1847POPC   PO427684  28.159  43.068   9.686
 1847POPC   GL127685  28.193  43.099   9.224
 1847POPC   GL227686  28.536  43.078   9.203
 1847POPC   C1A27687  28.239  43.071   8.775
 1847POPC   D2A27688  28.477  42.986   8.399
 1847POPC   C3A27689  28.317  43.132   7.980
 1847POPC   C4A27690  28.128  43.101   7.555
 1847POPC   C1B27691  28.716  43.271   8.831
 1847POPC   C2B27692  28.677  43.453   8.405
 1847POPC   C3B27693  28.783  43.350   8.017
 1847POPC   C4B27694  28.594  43.403   7.637
 1848POPC   NC327695   1.653  27.191   9.517
 1848POPC   PO427696   2.393  27.243   9.708
 1848POPC   GL127697   2.225  27.487   9.313
 1848POPC   GL227698   2.056  27.240   9.208
 1848POPC   C1A27699   2.008  27.702   8.909
 1848POPC   D2A27700   1.893  27.897   8.469
 1848POPC   C3A27701   2.210  27.903   8.144
 1848POPC   C4A27702   2.235  27.683   7.764
 1848POPC   C1B27703   1.975  27.181   8.812
 1848POPC   C2B27704   2.064  27.402   8.451
 1848POPC   C3B27705   1.889  27.480   8.091
 1848POPC   C4B27706   1.942  27.256   7.708
 1849POPC   NC327707  18.971  44.924   9.467
 1849POPC   PO427708  19.302  44.375   9.388
 1849POPC   GL127709  19.347  44.718   9.099
 1849POPC   GL227710  19.141   0.007   9.002
 1849POPC   C1A27711  19.313  44.623   8.699
 1849POPC   D2A27712  19.015  44.511   8.429
 1849POPC   C3A27713  19.165  44.763   8.156
 1849POPC   C4A27714  19.119  44.868   7.746
 1849POPC   C1B27715  18.793  44.768   8.810
 1849POPC   C2B27716  18.590  44.840   8.412
 1849POPC   C3B27717  18.684  44.683   8.011
 1849POPC   C4B27718  18.618  44.928   7.656
 1850POPC   NC327719  14.226  35.095   9.477
 1850POPC   PO427720  14.804  35.516   9.414
 1850POPC   GL127721  14.589  35.398   9.066
 1850POPC   GL227722  14.539  35.082   9.086
 1850POPC   C1A27723  14.393  35.501   8.673
 1850POPC   D2A27724  14.228  35.481   8.254
 1850POPC   C3A27725  14.438  35.539   7.856
 1850POPC   C4A27726  14.156  35.485   7.535
 1850POPC   C1B27727  14.299  34.985   8.788
 1850POPC   C2B27728  14.376  34.863   8.385
 1850POPC   C3B27729  14.411  35.047   8.004
 1850POPC   C4B27730  14.465  34.979   7.585
 1851POPC   NC327731   0.806  26.097  10.171
 1851POPC   PO427732   0.513  25.783   9.641
 1851POPC   GL127733   0.492  25.745   9.185
 1851POPC   GL227734   0.726  25.559   9.058
 1851POPC   C1A27735   0.521  25.848   8.706
 1851POPC   D2A27736   0.368  25.846   8.276
 1851POPC   C3A27737   0.477  26.208   8.011
 1851POPC   C4A27738   0.517  26.400   7.592
 1851POPC   C1B27739   0.999  25.681   8.684
 1851POPC   C2B27740   0.913  25.906   8.289
 1851POPC   C3B27741   0.725  25.772   7.908
 1851POPC   C4B27742   0.521  25.868   7.563
 1852POPC   NC327743  23.235  26.459   9.554
 1852POPC   PO427744  22.628  26.820   9.707
 1852POPC   GL127745  22.686  26.790   9.231
 1852POPC   GL227746  22.506  26.506   9.060
 1852POPC   C1A27747  22.947  26.894   8.856
 1852POPC   D2A27748  22.879  27.199   8.494
 1852POPC   C3A27749  22.834  27.091   8.038
 1852POPC   C4A27750  23.026  26.959   7.624
 1852POPC   C1B27751  22.651  26.553   8.649
 1852POPC   C2B27752  22.857  26.561   8.245
 1852POPC   C3B27753  22.696  26.644   7.828
 1852POPC   C4B27754  22.570  26.660   7.358
 1853POPC   NC327755  21.668  34.526   9.372
 1853POPC   PO427756  22.269  34.502   9.653
 1853POPC   GL127757  22.165  34.704   9.280
 1853POPC   GL227758  22.102  34.422   9.113
 1853POPC   C1A27759  22.030  34.870   8.857
 1853POPC   D2A27760  22.186  34.821   8.444
 1853POPC   C3A27761  21.971  34.583   8.162
 1853POPC   C4A27762  22.019  34.643   7.748
 1853POPC   C1B27763  22.026  34.384   8.676
 1853POPC   C2B27764  22.230  34.187   8.332
 1853POPC   C3B27765  22.269  34.203   7.859
 1853POPC   C4B27766  22.622  34.190   7.594
 1854POPC   NC327767   6.474  43.501   9.416
 1854POPC   PO427768   6.892  44.111   9.486
 1854POPC   GL127769   6.591  43.952   9.106
 1854POPC   GL227770   6.343  44.221   8.991
 1854POPC   C1A27771   6.551  43.848   8.678
 1854POPC   D2A27772   6.845  43.972   8.341
 1854POPC   C3A27773   6.683  43.908   7.962
 1854POPC   C4A27774   6.773  43.576   7.689
 1854POPC   C1B27775   6.071  44.052   8.662
 1854POPC   C2B27776   6.097  44.020   8.207
 1854POPC   C3B27777   6.124  44.246   7.829
 1854POPC   C4B27778   6.467  44.194   7.574
 1855POPC   NC327779  35.424  40.307   9.474
 1855POPC   PO427780  35.265  40.998   9.639
 1855POPC   GL127781  35.416  40.933   9.240
 1855POPC   GL227782  35.082  41.025   9.121
 1855POPC   C1A27783  35.445  40.775   8.826
 1855POPC   D2A27784  35.209  40.838   8.445
 1855POPC   C3A27785  35.393  40.535   8.171
 1855POPC   C4A27786  35.582  40.578   7.783
 1855POPC   C1B27787  34.946  40.675   8.873
 1855POPC   C2B27788  34.892  40.453   8.521
 1855POPC   C3B27789  34.903  40.521   8.075
 1855POPC   C4B27790  35.033  40.740   7.706
 1856POPC   NC327791   4.667  39.719   9.512
 1856POPC   PO427792   4.277  40.341   9.515
 1856POPC   GL127793   4.218  40.131   9.148
 1856POPC   GL227794   4.253  39.766   9.166
 1856POPC   C1A27795   4.057  40.052   8.774
 1856POPC   D2A27796   4.245  39.844   8.438
 1856POPC   C3A27797   4.315  40.113   8.056
 1856POPC   C4A27798   4.056  40.281   7.736
 1856POPC   C1B27799   4.505  39.564   8.818
 1856POPC   C2B27800   4.492  39.382   8.383
 1856POPC   C3B27801   4.330  39.582   8.010
 1856POPC   C4B27802   4.426  39.809   7.641
 1857POPC   NC327803  10.439  16.177   9.473
 1857POPC   PO427804  10.459  15.528   9.473
 1857POPC   GL127805  10.612  15.796   9.127
 1857POPC   GL227806  10.782  16.176   9.100
 1857POPC   C1A27807  10.588  15.675   8.690
 1857POPC   D2A27808  10.846  15.685   8.298
 1857POPC   C3A27809  10.740  15.898   7.910
 1857POPC   C4A27810  10.712  15.694   7.506
 1857POPC   C1B27811  10.424  16.172   8.793
 1857POPC   C2B27812  10.472  16.059   8.365
 1857POPC   C3B27813  10.262  16.079   8.013
 1857POPC   C4B27814   9.961  16.179   7.745
 1858POPC   NC327815  24.864   8.705   9.388
 1858POPC   PO427816  25.354   9.187   9.595
 1858POPC   GL127817  25.424   8.891   9.226
 1858POPC   GL227818  25.099   8.955   9.028
 1858POPC   C1A27819  25.505   8.942   8.763
 1858POPC   D2A27820  25.193   8.994   8.415
 1858POPC   C3A27821  25.352   9.142   8.038
 1858POPC   C4A27822  25.586   8.865   7.804
 1858POPC   C1B27823  25.102   8.584   8.764
 1858POPC   C2B27824  24.973   8.517   8.365
 1858POPC   C3B27825  25.125   8.658   7.995
 1858POPC   C4B27826  24.916   9.026   7.820
 1859POPC   NC327827  22.249   8.429   9.548
 1859POPC   PO427828  22.364   7.728   9.493
 1859POPC   GL127829  22.191   8.032   9.166
 1859POPC   GL227830  22.095   8.399   9.087
 1859POPC   C1A27831  21.955   8.041   8.776
 1859POPC   D2A27832  21.914   8.221   8.370
 1859POPC   C3A27833  22.338   8.275   8.193
 1859POPC   C4A27834  22.525   8.018   7.901
 1859POPC   C1B27835  22.084   8.587   8.697
 1859POPC   C2B27836  22.096   8.721   8.281
 1859POPC   C3B27837  21.959   8.515   7.900
 1859POPC   C4B27838  21.804   8.495   7.482
 1860POPC   NC327839  20.766  38.115   9.631
 1860POPC   PO427840  20.780  37.396   9.751
 1860POPC   GL127841  20.676  37.517   9.311
 1860POPC   GL227842  20.606  37.847   9.225
 1860POPC   C1A27843  20.789  37.585   8.847
 1860POPC   D2A27844  20.567  37.574   8.468
 1860POPC   C3A27845  20.694  37.590   8.047
 1860POPC   C4A27846  20.732  37.528   7.605
 1860POPC   C1B27847  20.325  37.849   8.870
 1860POPC   C2B27848  20.252  37.948   8.424
 1860POPC   C3B27849  20.244  37.817   7.999
 1860POPC   C4B27850  20.421  37.946   7.576
 1861POPC   NC327851  35.629  29.863   9.481
 1861POPC   PO427852  36.332  29.849   9.520
 1861POPC   GL127853  36.074  29.918   9.163
 1861POPC   GL227854  36.150  29.603   9.100
 1861POPC   C1A27855  35.853  29.837   8.756
 1861POPC   D2A27856  36.009  29.733   8.341
 1861POPC   C3A27857  36.016  30.014   8.012
 1861POPC   C4A27858  35.699  30.296   7.882
 1861POPC   C1B27859  36.245  29.433   8.736
 1861POPC   C2B27860  36.355  29.370   8.300
 1861POPC   C3B27861  36.221  29.516   7.880
 1861POPC   C4B27862  36.121  29.475   7.450
 1862POPC   NC327863  30.641  31.465   9.575
 1862POPC   PO427864  31.194  31.520   9.218
 1862POPC   GL127865  30.960  31.368   8.917
 1862POPC   GL227866  30.635  31.409   9.051
 1862POPC   C1A27867  31.011  31.549   8.532
 1862POPC   D2A27868  30.826  31.700   8.209
 1862POPC   C3A27869  30.730  31.323   8.051
 1862POPC   C4A27870  30.750  31.166   7.672
 1862POPC   C1B27871  30.529  31.368   8.576
 1862POPC   C2B27872  30.319  31.585   8.193
 1862POPC   C3B27873  30.343  31.486   7.734
 1862POPC   C4B27874  30.373  31.242   7.331
 1863POPC   NC327875  20.382   0.895   9.484
 1863POPC   PO427876  20.320   1.609   9.528
 1863POPC   GL127877  20.576   1.491   9.141
 1863POPC   GL227878  20.564   1.146   9.091
 1863POPC   C1A27879  20.693   1.396   8.676
 1863POPC   D2A27880  20.399   1.306   8.328
 1863POPC   C3A27881  20.358   1.420   7.891
 1863POPC   C4A27882  20.762   1.351   7.714
 1863POPC   C1B27883  20.315   1.023   8.734
 1863POPC   C2B27884  20.027   0.876   8.443
 1863POPC   C3B27885  20.215   0.912   8.041
 1863POPC   C4B27886  20.397   0.976   7.638
 1864POPC   NC327887  41.275  43.073   9.562
 1864POPC   PO427888  41.903  43.323   9.525
 1864POPC   GL127889  41.731  42.957   9.258
 1864POPC   GL227890  41.425  42.932   9.117
 1864POPC   C1A27891  41.800  42.864   8.808
 1864POPC   D2A27892  41.512  43.033   8.494
 1864POPC   C3A27893  41.637  43.183   8.109
 1864POPC   C4A27894  41.535  42.994   7.742
 1864POPC   C1B27895  41.199  43.202   8.853
 1864POPC   C2B27896  41.220  43.522   8.566
 1864POPC   C3B27897  41.283  43.574   8.121
 1864POPC   C4B27898  41.427  43.497   7.708
 1865POPC   NC327899  40.216   1.015   9.514
 1865POPC   PO427900  39.769   1.513   9.568
 1865POPC   GL127901  39.953   1.353   9.184
 1865POPC   GL227902  39.732   1.055   9.154
 1865POPC   C1A27903  40.193   1.367   8.764
 1865POPC   D2A27904  40.364   1.613   8.363
 1865POPC   C3A27905  40.029   1.661   8.069
 1865POPC   C4A27906  39.820   1.380   7.764
 1865POPC   C1B27907  39.798   1.014   8.715
 1865POPC   C2B27908  39.886   1.260   8.341
 1865POPC   C3B27909  40.223   1.198   8.025
 1865POPC   C4B27910  40.403   0.831   7.892
 1866POPC   NC327911  24.192  18.085   9.452
 1866POPC   PO427912  24.890  17.987   9.417
 1866POPC   GL127913  24.641  18.122   9.079
 1866POPC   GL227914  24.518  18.483   9.040
 1866POPC   C1A27915  24.606  18.166   8.634
 1866POPC   D2A27916  24.430  18.159   8.224
 1866POPC   C3A27917  24.636  18.096   7.828
 1866POPC   C4A27918  24.461  18.186   7.418
 1866POPC   C1B27919  24.762  18.670   8.694
 1866POPC   C2B27920  24.811  18.541   8.270
 1866POPC   C3B27921  24.514  18.616   7.931
 1866POPC   C4B27922  24.567  18.673   7.506
 1867POPC   NC327923  44.574  42.668   9.317
 1867POPC   PO427924  44.521  43.305   9.557
 1867POPC   GL127925  44.636  43.163   9.174
 1867POPC   GL227926  44.950  42.952   9.120
 1867POPC   C1A27927  44.502  43.054   8.789
 1867POPC   D2A27928  44.715  43.083   8.432
 1867POPC   C3A27929  44.486  43.029   8.113
 1867POPC   C4A27930  44.409  42.948   7.742
 1867POPC   C1B27931  44.995  43.292   8.819
 1867POPC   C2B27932  44.992  43.513   8.410
 1867POPC   C3B27933  44.993  43.372   8.024
 1867POPC   C4B27934  44.907  42.977   7.843
 1868POPC   NC327935   2.352  14.527   9.575
 1868POPC   PO427936   1.886  14.109   9.554
 1868POPC   GL127937   1.891  14.332   9.196
 1868POPC   GL227938   1.948  14.684   9.229
 1868POPC   C1A27939   1.753  14.413   8.784
 1868POPC   D2A27940   1.952  14.531   8.409
 1868POPC   C3A27941   1.679  14.385   8.123
 1868POPC   C4A27942   1.721  14.315   7.707
 1868POPC   C1B27943   2.224  14.588   8.867
 1868POPC   C2B27944   2.445  14.397   8.513
 1868POPC   C3B27945   2.432  14.561   8.102
 1868POPC   C4B27946   2.343  14.372   7.702
 1869POPC   NC327947   7.851  32.686   9.487
 1869POPC   PO427948   8.452  33.070   9.425
 1869POPC   GL127949   8.321  32.813   9.106
 1869POPC   GL227950   8.017  32.939   9.092
 1869POPC   C1A27951   8.141  32.696   8.681
 1869POPC   D2A27952   8.106  32.575   8.265
 1869POPC   C3A27953   8.456  32.719   8.017
 1869POPC   C4A27954   8.611  33.088   7.805
 1869POPC   C1B27955   7.955  33.173   8.750
 1869POPC   C2B27956   8.118  33.130   8.372
 1869POPC   C3B27957   8.088  33.055   7.994
 1869POPC   C4B27958   8.022  33.253   7.634
 1870POPC   NC327959  40.013   6.067   9.391
 1870POPC   PO427960  40.067   5.428   9.429
 1870POPC   GL127961  40.301   5.607   9.120
 1870POPC   GL227962  40.040   5.792   8.966
 1870POPC   C1A27963  40.460   5.666   8.722
 1870POPC   D2A27964  40.112   5.803   8.454
 1870POPC   C3A27965  40.161   5.633   8.076
 1870POPC   C4A27966  40.028   5.757   7.680
 1870POPC   C1B27967  39.878   6.179   8.783
 1870POPC   C2B27968  39.768   6.220   8.410
 1870POPC   C3B27969  39.859   6.072   8.042
 1870POPC   C4B27970  39.806   6.241   7.635
 1871POPC   NC327971   8.901  14.969   9.704
 1871POPC   PO427972   8.361  15.029   9.246
 1871POPC   GL127973   8.796  15.021   9.173
 1871POPC   GL227974   9.037  15.259   9.307
 1871POPC   C1A27975   8.928  15.062   8.755
 1871POPC   D2A27976   9.079  14.965   8.329
 1871POPC   C3A27977   8.953  15.130   7.943
 1871POPC   C4A27978   8.975  14.949   7.558
 1871POPC   C1B27979   9.195  15.465   8.949
 1871POPC   C2B27980   9.254  15.418   8.508
 1871POPC   C3B27981   9.388  15.417   8.067
 1871POPC   C4B27982   9.170  15.527   7.664
 1872POPC   NC327983   8.527  14.640   9.402
 1872POPC   PO427984   7.955  14.359   9.527
 1872POPC   GL127985   8.096  14.442   9.148
 1872POPC   GL227986   7.776  14.569   9.078
 1872POPC   C1A27987   8.022  14.252   8.749
 1872POPC   D2A27988   7.738  14.217   8.409
 1872POPC   C3A27989   7.965  14.240   8.043
 1872POPC   C4A27990   8.252  14.297   7.753
 1872POPC   C1B27991   8.030  14.767   8.727
 1872POPC   C2B27992   8.145  14.651   8.298
 1872POPC   C3B27993   8.005  14.737   7.874
 1872POPC   C4B27994   8.093  14.719   7.417
 1873POPC   NC327995  36.753  33.562   9.493
 1873POPC   PO427996  37.411  33.902   9.515
 1873POPC   GL127997  37.105  33.733   9.174
 1873POPC   GL227998  36.784  33.934   9.125
 1873POPC   C1A27999  36.870  33.510   8.822
 1873POPC   D2A28000  37.035  33.456   8.396
 1873POPC   C3A28001  36.954  33.619   7.982
 1873POPC   C4A28002  36.792  33.758   7.603
 1873POPC   C1B28003  36.548  33.901   8.735
 1873POPC   C2B28004  36.670  33.918   8.291
 1873POPC   C3B28005  36.888  34.145   7.904
 1873POPC   C4B28006  36.962  34.226   7.438
 1874POPC   NC328007  28.081  27.095   9.505
 1874POPC   PO428008  28.754  26.966   9.505
 1874POPC   GL128009  28.445  26.756   9.200
 1874POPC   GL228010  28.241  26.477   9.102
 1874POPC   C1A28011  28.407  26.858   8.774
 1874POPC   D2A28012  28.659  26.914   8.418
 1874POPC   C3A28013  28.483  26.939   8.014
 1874POPC   C4A28014  28.558  26.883   7.582
 1874POPC   C1B28015  28.093  26.424   8.699
 1874POPC   C2B28016  28.230  26.625   8.337
 1874POPC   C3B28017  28.264  26.485   7.928
 1874POPC   C4B28018  28.043  26.262   7.606
 1875POPC   NC328019   2.900  22.708   9.496
 1875POPC   PO428020   2.691  23.342   9.467
 1875POPC   GL128021   2.772  23.057   9.138
 1875POPC   GL228022   3.136  23.064   9.177
 1875POPC   C1A28023   2.614  22.959   8.715
 1875POPC   D2A28024   2.385  23.148   8.349
 1875POPC   C3A28025   2.576  23.045   7.959
 1875POPC   C4A28026   2.689  22.709   7.723
 1875POPC   C1B28027   3.062  23.189   8.746
 1875POPC   C2B28028   2.927  23.159   8.319
 1875POPC   C3B28029   3.095  22.924   7.959
 1875POPC   C4B28030   3.127  22.780   7.495
 1876POPC   NC328031  31.791   3.203   9.401
 1876POPC   PO428032  31.369   2.735   9.750
 1876POPC   GL128033  31.499   2.783   9.267
 1876POPC   GL228034  31.493   3.072   9.028
 1876POPC   C1A28035  31.661   2.623   8.837
 1876POPC   D2A28036  31.691   2.751   8.371
 1876POPC   C3A28037  31.592   2.518   7.937
 1876POPC   C4A28038  31.619   2.445   7.454
 1876POPC   C1B28039  31.815   3.160   8.700
 1876POPC   C2B28040  31.762   3.264   8.262
 1876POPC   C3B28041  31.473   3.154   7.960
 1876POPC   C4B28042  31.560   2.927   7.607
 1877POPC   NC328043   1.559  34.465   9.525
 1877POPC   PO428044   1.001  34.787   9.601
 1877POPC   GL128045   1.241  34.719   9.190
 1877POPC   GL228046   1.300  34.354   9.099
 1877POPC   C1A28047   1.192  34.720   8.737
 1877POPC   D2A28048   1.188  34.439   8.355
 1877POPC   C3A28049   1.084  34.696   7.972
 1877POPC   C4A28050   1.090  35.016   7.662
 1877POPC   C1B28051   1.384  34.047   8.765
 1877POPC   C2B28052   1.377  33.850   8.388
 1877POPC   C3B28053   1.459  33.948   7.966
 1877POPC   C4B28054   1.102  34.188   7.857
 1878POPC   NC328055  27.801  34.973   9.452
 1878POPC   PO428056  27.239  35.265   9.753
 1878POPC   GL128057  27.372  35.304   9.278
 1878POPC   GL228058  27.698  35.411   9.187
 1878POPC   C1A28059  27.364  35.400   8.793
 1878POPC   D2A28060  27.316  35.614   8.371
 1878POPC   C3A28061  27.527  35.483   7.981
 1878POPC   C4A28062  27.571  35.293   7.567
 1878POPC   C1B28063  27.905  35.423   8.795
 1878POPC   C2B28064  27.933  35.286   8.377
 1878POPC   C3B28065  27.842  35.073   8.020
 1878POPC   C4B28066  28.036  35.047   7.661
 1879POPC   NC328067  13.610  38.951   9.443
 1879POPC   PO428068  13.738  38.307   9.607
 1879POPC   GL128069  13.742  38.184   9.087
 1879POPC   GL228070  13.746  38.537   8.886
 1879POPC   C1A28071  13.627  38.173   8.580
 1879POPC   D2A28072  13.699  38.573   8.300
 1879POPC   C3A28073  13.756  38.532   7.855
 1879POPC   C4A28074  13.640  38.143   7.698
 1879POPC   C1B28075  13.311  38.600   8.629
 1879POPC   C2B28076  13.058  38.598   8.260
 1879POPC   C3B28077  13.252  38.639   7.882
 1879POPC   C4B28078  13.263  38.939   7.593
 1880POPC   NC328079  26.908  38.320   9.583
 1880POPC   PO428080  26.902  38.962   9.618
 1880POPC   GL128081  26.734  38.643   9.232
 1880POPC   GL228082  26.564  38.816   8.943
 1880POPC   C1A28083  26.640  38.262   8.952
 1880POPC   D2A28084  26.490  38.171   8.504
 1880POPC   C3A28085  26.639  38.148   8.092
 1880POPC   C4A28086  26.732  38.388   7.739
 1880POPC   C1B28087  26.801  38.617   8.622
 1880POPC   C2B28088  26.926  38.548   8.214
 1880POPC   C3B28089  27.094  38.732   7.877
 1880POPC   C4B28090  27.027  38.667   7.436
 1881POPC   NC328091  12.761  15.338   9.594
 1881POPC   PO428092  13.316  14.938   9.504
 1881POPC   GL128093  13.065  15.145   9.206
 1881POPC   GL228094  13.087  15.484   9.230
 1881POPC   C1A28095  12.827  15.213   8.825
 1881POPC   D2A28096  12.650  15.054   8.431
 1881POPC   C3A28097  12.724  15.264   8.035
 1881POPC   C4A28098  12.596  15.084   7.657
 1881POPC   C1B28099  13.285  15.448   8.813
 1881POPC   C2B28100  13.145  15.290   8.399
 1881POPC   C3B28101  13.151  15.561   8.039
 1881POPC   C4B28102  13.070  15.382   7.639
 1882POPC   NC328103   7.928  39.246   9.709
 1882POPC   PO428104   8.356  38.827   9.463
 1882POPC   GL128105   8.154  39.164   9.214
 1882POPC   GL228106   7.835  39.075   9.172
 1882POPC   C1A28107   8.073  39.376   8.806
 1882POPC   D2A28108   8.170  39.255   8.390
 1882POPC   C3A28109   8.325  39.548   8.066
 1882POPC   C4A28110   8.160  39.428   7.673
 1882POPC   C1B28111   8.027  38.865   8.805
 1882POPC   C2B28112   7.841  38.748   8.410
 1882POPC   C3B28113   7.862  38.975   8.016
 1882POPC   C4B28114   8.097  38.900   7.643
 1883POPC   NC328115   9.435  12.465   9.784
 1883POPC   PO428116   9.479  11.901   9.274
 1883POPC   GL128117   9.620  12.149   8.983
 1883POPC   GL228118   9.926  12.189   9.067
 1883POPC   C1A28119   9.385  12.210   8.645
 1883POPC   D2A28120   9.394  11.953   8.307
 1883POPC   C3A28121   9.487  12.162   7.939
 1883POPC   C4A28122   9.654  11.935   7.600
 1883POPC   C1B28123   9.962  12.064   8.631
 1883POPC   C2B28124   9.851  12.253   8.271
 1883POPC   C3B28125  10.019  12.118   7.882
 1883POPC   C4B28126  10.146  11.944   7.428
 1884POPC   NC328127  42.700  44.431   9.429
 1884POPC   PO428128  43.284  44.856   9.478
 1884POPC   GL128129  43.163  44.631   9.136
 1884POPC   GL228130  42.851  44.795   9.105
 1884POPC   C1A28131  43.199  44.768   8.700
 1884POPC   D2A28132  43.485  44.987   8.394
 1884POPC   C3A28133  43.497  44.751   8.010
 1884POPC   C4A28134  43.169  44.701   7.767
 1884POPC   C1B28135  42.759  44.485   8.774
 1884POPC   C2B28136  42.875  44.360   8.385
 1884POPC   C3B28137  42.799  44.447   7.985
 1884POPC   C4B28138  42.650  44.243   7.648
 1885POPC   NC328139   4.130  31.346   9.558
 1885POPC   PO428140   4.609  30.890   9.415
 1885POPC   GL128141   4.400  31.183   9.137
 1885POPC   GL228142   4.231  31.529   9.107
 1885POPC   C1A28143   4.178  31.106   8.790
 1885POPC   D2A28144   3.989  31.049   8.414
 1885POPC   C3A28145   4.139  31.356   8.174
 1885POPC   C4A28146   4.377  31.292   7.837
 1885POPC   C1B28147   4.381  31.595   8.696
 1885POPC   C2B28148   4.685  31.532   8.375
 1885POPC   C3B28149   4.602  31.720   8.005
 1885POPC   C4B28150   4.156  31.771   7.836
 1886POPC   NC328151  11.094  35.500   9.401
 1886POPC   PO428152  11.649  35.088   9.458
 1886POPC   GL128153  11.405  35.223   9.096
 1886POPC   GL228154  11.463  35.593   9.022
 1886POPC   C1A28155  11.226  35.189   8.688
 1886POPC   D2A28156  11.246  34.881   8.386
 1886POPC   C3A28157  11.101  34.971   8.016
 1886POPC   C4A28158  10.929  35.176   7.697
 1886POPC   C1B28159  11.427  35.636   8.559
 1886POPC   C2B28160  11.475  35.302   8.224
 1886POPC   C3B28161  11.391  35.347   7.810
 1886POPC   C4B28162  11.092  35.667   7.714
 1887POPC   NC328163  36.704  43.813   9.401
 1887POPC   PO428164  37.126  44.324   9.484
 1887POPC   GL128165  37.100  44.056   9.093
 1887POPC   GL228166  36.865  43.761   8.945
 1887POPC   C1A28167  37.249  43.943   8.688
 1887POPC   D2A28168  36.957  43.727   8.397
 1887POPC   C3A28169  37.108  43.829   7.960
 1887POPC   C4A28170  37.130  43.954   7.522
 1887POPC   C1B28171  36.516  43.827   8.676
 1887POPC   C2B28172  36.534  44.087   8.346
 1887POPC   C3B28173  36.591  43.807   8.044
 1887POPC   C4B28174  36.682  43.761   7.632
 1888POPC   NC328175   5.595   1.313   9.557
 1888POPC   PO428176   5.955   0.794   9.478
 1888POPC   GL128177   6.014   0.962   9.113
 1888POPC   GL228178   5.929   1.306   9.155
 1888POPC   C1A28179   6.075   1.103   8.714
 1888POPC   D2A28180   5.900   1.258   8.391
 1888POPC   C3A28181   5.985   0.966   8.068
 1888POPC   C4A28182   5.914   0.821   7.664
 1888POPC   C1B28183   5.555   1.351   8.862
 1888POPC   C2B28184   5.427   1.496   8.450
 1888POPC   C3B28185   5.610   1.490   8.061
 1888POPC   C4B28186   5.910   1.389   7.801
 1889POPC   NC328187  22.368  26.444   9.566
 1889POPC   PO428188  22.288  25.724   9.525
 1889POPC   GL128189  22.224  26.063   9.228
 1889POPC   GL228190  22.558  25.989   9.147
 1889POPC   C1A28191  21.957  26.140   8.848
 1889POPC   D2A28192  22.032  25.903   8.474
 1889POPC   C3A28193  22.000  26.078   8.062
 1889POPC   C4A28194  22.141  25.929   7.657
 1889POPC   C1B28195  22.453  26.096   8.733
 1889POPC   C2B28196  22.425  26.240   8.314
 1889POPC   C3B28197  22.521  26.057   7.953
 1889POPC   C4B28198  22.623  26.201   7.575
 1890POPC   NC328199  32.164  44.951   9.544
 1890POPC   PO428200  32.684  44.740   9.672
 1890POPC   GL128201  32.439  44.711   9.197
 1890POPC   GL228202  32.378   0.017   9.040
 1890POPC   C1A28203  32.414  44.470   8.795
 1890POPC   D2A28204  32.591  44.502   8.355
 1890POPC   C3A28205  32.551  44.287   7.939
 1890POPC   C4A28206  32.559  44.368   7.433
 1890POPC   C1B28207  32.041  44.817   8.789
 1890POPC   C2B28208  32.015  44.492   8.457
 1890POPC   C3B28209  32.143  44.589   8.044
 1890POPC   C4B28210  32.144  44.986   7.801
 1891POPC   NC328211  14.459  31.211   9.661
 1891POPC   PO428212  14.003  31.497   9.398
 1891POPC   GL128213  14.425  31.616   9.260
 1891POPC   GL228214  14.713  31.587   9.435
 1891POPC   C1A28215  14.482  31.802   8.865
 1891POPC   D2A28216  14.179  31.796   8.504
 1891POPC   C3A28217  14.273  31.553   8.158
 1891POPC   C4A28218  14.464  31.665   7.779
 1891POPC   C1B28219  14.772  31.381   8.985
 1891POPC   C2B28220  14.639  31.433   8.522
 1891POPC   C3B28221  14.737  31.326   8.071
 1891POPC   C4B28222  14.604  31.187   7.632
 1892POPC   NC328223   6.074  17.602   9.455
 1892POPC   PO428224   5.455  17.430   9.496
 1892POPC   GL128225   5.756  17.296   9.126
 1892POPC   GL228226   6.086  17.413   8.996
 1892POPC   C1A28227   5.750  17.178   8.685
 1892POPC   D2A28228   5.783  17.358   8.295
 1892POPC   C3A28229   5.876  17.114   7.996
 1892POPC   C4A28230   6.054  17.254   7.626
 1892POPC   C1B28231   5.978  17.675   8.657
 1892POPC   C2B28232   6.085  17.815   8.237
 1892POPC   C3B28233   5.878  17.731   7.867
 1892POPC   C4B28234   5.536  17.894   7.624
 1893POPC   NC328235   2.950   9.135   9.612
 1893POPC   PO428236   2.361   9.240   9.459
 1893POPC   GL128237   2.486   8.967   9.177
 1893POPC   GL228238   2.784   8.822   9.255
 1893POPC   C1A28239   2.404   9.062   8.768
 1893POPC   D2A28240   2.631   9.077   8.386
 1893POPC   C3A28241   2.616   8.933   7.972
 1893POPC   C4A28242   2.782   8.637   7.670
 1893POPC   C1B28243   2.847   8.792   8.790
 1893POPC   C2B28244   2.908   8.657   8.346
 1893POPC   C3B28245   3.195   8.701   7.966
 1893POPC   C4B28246   3.432   8.826   7.562
 1894POPC   NC328247  44.441  16.551   9.840
 1894POPC   PO428248  44.892  16.478   9.473
 1894POPC   GL128249   0.067  16.677   9.077
 1894POPC   GL228250   0.133  16.334   8.976
 1894POPC   C1A28251   0.081  16.978   8.677
 1894POPC   D2A28252   0.098  17.205   8.231
 1894POPC   C3A28253  44.749  17.186   7.922
 1894POPC   C4A28254  44.653  17.069   7.479
 1894POPC   C1B28255  44.903  16.500   8.620
 1894POPC   C2B28256  44.780  16.751   8.265
 1894POPC   C3B28257  44.862  16.694   7.843
 1894POPC   C4B28258  44.881  16.436   7.504
 1895POPC   NC328259  25.120  24.067   9.657
 1895POPC   PO428260  25.536  23.572   9.465
 1895POPC   GL128261  25.439  23.878   9.174
 1895POPC   GL228262  25.069  23.917   9.164
 1895POPC   C1A28263  25.472  23.766   8.752
 1895POPC   D2A28264  25.657  23.582   8.392
 1895POPC   C3A28265  25.442  23.784   8.051
 1895POPC   C4A28266  25.548  23.828   7.630
 1895POPC   C1B28267  24.952  23.727   8.757
 1895POPC   C2B28268  24.862  23.830   8.308
 1895POPC   C3B28269  24.970  23.555   7.925
 1895POPC   C4B28270  25.235  23.439   7.574
 1896POPC   NC328271  35.111  26.807   9.585
 1896POPC   PO428272  35.698  26.773   9.360
 1896POPC   GL128273  35.347  26.818   9.130
 1896POPC   GL228274  35.263  27.156   9.183
 1896POPC   C1A28275  35.369  26.883   8.728
 1896POPC   D2A28276  35.624  26.724   8.424
 1896POPC   C3A28277  35.423  26.749   8.025
 1896POPC   C4A28278  35.590  26.821   7.634
 1896POPC   C1B28279  34.980  27.245   8.856
 1896POPC   C2B28280  34.988  27.059   8.443
 1896POPC   C3B28281  35.070  27.169   8.046
 1896POPC   C4B28282  34.786  27.223   7.712
 1897POPC   NC328283  34.520  22.529   9.545
 1897POPC   PO428284  34.770  21.930   9.386
 1897POPC   GL128285  34.586  22.002   9.023
 1897POPC   GL228286  34.403  22.308   9.091
 1897POPC   C1A28287  34.748  22.108   8.627
 1897POPC   D2A28288  34.681  21.892   8.243
 1897POPC   C3A28289  34.623  22.080   7.836
 1897POPC   C4A28290  34.952  22.017   7.499
 1897POPC   C1B28291  34.253  22.229   8.688
 1897POPC   C2B28292  34.391  22.337   8.267
 1897POPC   C3B28293  34.159  22.461   7.901
 1897POPC   C4B28294  34.125  22.429   7.459
 1898POPC   NC328295  12.568  44.375   9.655
 1898POPC   PO428296  11.934  44.515   9.666
 1898POPC   GL128297  12.079  44.522   9.244
 1898POPC   GL228298  12.341  44.347   9.220
 1898POPC   C1A28299  11.886  44.593   8.872
 1898POPC   D2A28300  11.730  44.635   8.468
 1898POPC   C3A28301  11.933  44.728   8.108
 1898POPC   C4A28302  11.742  44.730   7.686
 1898POPC   C1B28303  12.241  44.229   8.820
 1898POPC   C2B28304  12.238  44.480   8.477
 1898POPC   C3B28305  12.309  44.361   8.055
 1898POPC   C4B28306  12.248  44.601   7.724
 1899POPC   NC328307  28.262  13.191   9.491
 1899POPC   PO428308  28.524  12.590   9.653
 1899POPC   GL128309  28.479  12.760   9.266
 1899POPC   GL228310  28.636  13.063   9.173
 1899POPC   C1A28311  28.249  12.880   8.902
 1899POPC   D2A28312  28.294  13.016   8.475
 1899POPC   C3A28313  28.274  12.734   8.127
 1899POPC   C4A28314  28.279  12.992   7.779
 1899POPC   C1B28315  28.736  12.765   8.831
 1899POPC   C2B28316  28.739  12.776   8.410
 1899POPC   C3B28317  28.741  12.835   7.967
 1899POPC   C4B28318  28.727  13.231   7.720
 1900POPC   NC328319   2.486  31.120   9.480
 1900POPC   PO428320   2.498  31.855   9.465
 1900POPC   GL128321   2.679  31.502   9.200
 1900POPC   GL228322   3.013  31.415   9.119
 1900POPC   C1A28323   2.583  31.283   8.786
 1900POPC   D2A28324   2.455  31.151   8.352
 1900POPC   C3A28325   2.721  31.287   7.997
 1900POPC   C4A28326   2.893  31.457   7.607
 1900POPC   C1B28327   3.093  31.147   8.740
 1900POPC   C2B28328   3.059  31.001   8.285
 1900POPC   C3B28329   3.214  31.143   7.875
 1900POPC   C4B28330   3.143  31.055   7.421
 1901POPC   NC328331   6.967  29.647   9.275
 1901POPC   PO428332   6.502  30.241   9.409
 1901POPC   GL128333   6.607  30.008   9.095
 1901POPC   GL228334   6.494  29.672   9.050
 1901POPC   C1A28335   6.756  30.067   8.707
 1901POPC   D2A28336   6.769  29.899   8.311
 1901POPC   C3A28337   6.812  30.194   7.974
 1901POPC   C4A28338   6.868  29.869   7.689
 1901POPC   C1B28339   6.274  29.825   8.705
 1901POPC   C2B28340   6.088  29.852   8.297
 1901POPC   C3B28341   6.393  29.899   7.948
 1901POPC   C4B28342   6.408  29.627   7.575
 1902POPC   NC328343  17.941  12.743   9.519
 1902POPC   PO428344  18.429  13.242   9.545
 1902POPC   GL128345  18.289  13.094   9.157
 1902POPC   GL228346  18.342  12.723   9.196
 1902POPC   C1A28347  18.428  12.952   8.742
 1902POPC   D2A28348  18.458  12.764   8.341
 1902POPC   C3A28349  18.298  13.096   8.058
 1902POPC   C4A28350  18.360  13.164   7.586
 1902POPC   C1B28351  18.065  12.577   8.869
 1902POPC   C2B28352  18.030  12.455   8.458
 1902POPC   C3B28353  18.047  12.637   8.061
 1902POPC   C4B28354  18.419  12.686   7.815
 1903POPC   NC328355  39.989   2.610   9.516
 1903POPC   PO428356  40.327   3.078   9.178
 1903POPC   GL128357  39.982   2.858   9.072
 1903POPC   GL228358  40.145   2.520   9.036
 1903POPC   C1A28359  39.890   2.811   8.662
 1903POPC   D2A28360  40.218   2.617   8.397
 1903POPC   C3A28361  40.255   2.903   8.049
 1903POPC   C4A28362  39.935   3.041   7.755
 1903POPC   C1B28363  39.928   2.313   8.717
 1903POPC   C2B28364  39.691   2.414   8.415
 1903POPC   C3B28365  39.836   2.588   8.044
 1903POPC   C4B28366  39.970   2.561   7.610
 1904POPC   NC328367  30.943  17.187   9.473
 1904POPC   PO428368  30.535  17.652   9.626
 1904POPC   GL128369  30.713  17.608   9.204
 1904POPC   GL228370  30.403  17.760   9.085
 1904POPC   C1A28371  30.796  17.277   8.855
 1904POPC   D2A28372  30.982  17.307   8.459
 1904POPC   C3A28373  30.830  17.635   8.176
 1904POPC   C4A28374  30.840  17.443   7.778
 1904POPC   C1B28375  30.615  17.732   8.689
 1904POPC   C2B28376  30.470  17.388   8.435
 1904POPC   C3B28377  30.357  17.376   8.016
 1904POPC   C4B28378  30.428  17.757   7.797
 1905POPC   NC328379  33.803  14.831   9.520
 1905POPC   PO428380  33.510  15.517   9.495
 1905POPC   GL128381  33.813  15.334   9.197
 1905POPC   GL228382  33.660  15.060   9.106
 1905POPC   C1A28383  34.031  15.220   8.796
 1905POPC   D2A28384  34.054  15.099   8.367
 1905POPC   C3A28385  33.808  15.196   7.988
 1905POPC   C4A28386  33.888  15.095   7.534
 1905POPC   C1B28387  33.497  15.288   8.809
 1905POPC   C2B28388  33.566  15.359   8.434
 1905POPC   C3B28389  33.375  15.478   8.089
 1905POPC   C4B28390  33.409  15.318   7.664
 1906POPC   NC328391   3.660  39.311   9.571
 1906POPC   PO428392   3.892  38.760   9.241
 1906POPC   GL128393   3.539  38.969   9.088
 1906POPC   GL228394   3.494  39.340   9.099
 1906POPC   C1A28395   3.666  39.072   8.688
 1906POPC   D2A28396   3.441  39.151   8.365
 1906POPC   C3A28397   3.331  38.828   8.134
 1906POPC   C4A28398   3.564  38.989   7.786
 1906POPC   C1B28399   3.446  39.528   8.729
 1906POPC   C2B28400   3.283  39.629   8.318
 1906POPC   C3B28401   3.449  39.579   7.933
 1906POPC   C4B28402   3.293  39.586   7.544
 1907POPC   NC328403  36.387  15.810   9.764
 1907POPC   PO428404  35.865  15.958   9.448
 1907POPC   GL128405  36.110  16.046   9.083
 1907POPC   GL228406  36.404  15.821   9.135
 1907POPC   C1A28407  36.033  16.163   8.644
 1907POPC   D2A28408  35.822  16.128   8.266
 1907POPC   C3A28409  35.938  15.991   7.894
 1907POPC   C4A28410  36.042  15.587   7.896
 1907POPC   C1B28411  36.380  15.793   8.677
 1907POPC   C2B28412  36.329  15.890   8.224
 1907POPC   C3B28413  36.439  15.881   7.766
 1907POPC   C4B28414  36.509  15.948   7.319
 1908POPC   NC328415  36.921  20.251   9.624
 1908POPC   PO428416  36.555  20.696   9.323
 1908POPC   GL128417  36.948  20.641   9.172
 1908POPC   GL228418  37.174  20.947   9.172
 1908POPC   C1A28419  36.988  20.349   8.857
 1908POPC   D2A28420  36.655  20.310   8.555
 1908POPC   C3A28421  36.864  20.346   8.179
 1908POPC   C4A28422  36.832  20.371   7.761
 1908POPC   C1B28423  37.091  20.850   8.737
 1908POPC   C2B28424  36.793  20.822   8.438
 1908POPC   C3B28425  37.101  20.809   8.140
 1908POPC   C4B28426  37.150  20.764   7.725
 1909POPC   NC328427  25.547  21.803   9.390
 1909POPC   PO428428  25.362  21.228   9.746
 1909POPC   GL128429  25.149  21.241   9.304
 1909POPC   GL228430  25.325  21.483   9.069
 1909POPC   C1A28431  24.952  21.245   8.875
 1909POPC   D2A28432  25.127  21.184   8.465
 1909POPC   C3A28433  25.034  21.348   8.046
 1909POPC   C4A28434  25.249  21.278   7.680
 1909POPC   C1B28435  25.560  21.421   8.667
 1909POPC   C2B28436  25.500  21.485   8.192
 1909POPC   C3B28437  25.474  21.714   7.781
 1909POPC   C4B28438  25.144  21.729   7.423
 1910POPC   NC328439  18.455  22.617   9.567
 1910POPC   PO428440  18.748  22.063   9.564
 1910POPC   GL128441  18.941  22.220   9.193
 1910POPC   GL228442  18.946  22.563   9.230
 1910POPC   C1A28443  19.109  22.183   8.771
 1910POPC   D2A28444  19.010  21.919   8.412
 1910POPC   C3A28445  19.035  22.062   7.980
 1910POPC   C4A28446  18.772  22.208   7.595
 1910POPC   C1B28447  18.717  22.525   8.824
 1910POPC   C2B28448  18.888  22.442   8.373
 1910POPC   C3B28449  18.975  22.556   7.941
 1910POPC   C4B28450  19.241  22.367   7.573
 1911POPC   NC328451  14.217   9.604   9.405
 1911POPC   PO428452  14.829   9.590   9.569
 1911POPC   GL128453  14.650   9.681   9.136
 1911POPC   GL228454  14.500  10.015   9.159
 1911POPC   C1A28455  14.480   9.776   8.693
 1911POPC   D2A28456  14.258   9.756   8.271
 1911POPC   C3A28457  14.565   9.779   7.922
 1911POPC   C4A28458  14.868   9.457   7.738
 1911POPC   C1B28459  14.600  10.264   8.797
 1911POPC   C2B28460  14.406  10.233   8.385
 1911POPC   C3B28461  14.089  10.207   8.091
 1911POPC   C4B28462  14.194  10.073   7.689
 1912POPC   NC328463  13.936   6.766   9.781
 1912POPC   PO428464  13.372   6.701   9.701
 1912POPC   GL128465  13.580   6.653   9.290
 1912POPC   GL228466  13.418   6.388   9.100
 1912POPC   C1A28467  13.778   6.632   8.844
 1912POPC   D2A28468  13.591   6.387   8.492
 1912POPC   C3A28469  13.651   6.481   8.052
 1912POPC   C4A28470  13.874   6.752   7.761
 1912POPC   C1B28471  13.281   6.717   8.761
 1912POPC   C2B28472  13.227   6.703   8.308
 1912POPC   C3B28473  13.418   6.928   7.960
 1912POPC   C4B28474  13.444   6.874   7.498
 1913POPC   NC328475   5.065  30.987   9.427
 1913POPC   PO428476   4.884  30.304   9.560
 1913POPC   GL128477   4.944  30.544   9.191
 1913POPC   GL228478   5.299  30.553   9.219
 1913POPC   C1A28479   5.046  30.735   8.770
 1913POPC   D2A28480   4.843  30.596   8.384
 1913POPC   C3A28481   5.002  30.689   8.009
 1913POPC   C4A28482   5.351  30.913   7.922
 1913POPC   C1B28483   5.460  30.435   8.803
 1913POPC   C2B28484   5.389  30.582   8.367
 1913POPC   C3B28485   5.397  30.372   7.971
 1913POPC   C4B28486   5.377  30.536   7.564
 1914POPC   NC328487  44.329  21.197   9.941
 1914POPC   PO428488  43.762  20.847   9.670
 1914POPC   GL128489  43.948  20.646   9.279
 1914POPC   GL228490  43.959  20.283   9.218
 1914POPC   C1A28491  44.053  20.604   8.829
 1914POPC   D2A28492  43.823  20.514   8.450
 1914POPC   C3A28493  44.037  20.611   8.060
 1914POPC   C4A28494  43.953  20.822   7.647
 1914POPC   C1B28495  43.979  20.107   8.768
 1914POPC   C2B28496  44.195  20.174   8.356
 1914POPC   C3B28497  44.298  20.200   7.904
 1914POPC   C4B28498  44.086  20.257   7.501
 1915POPC   NC328499  39.495  40.178   9.392
 1915POPC   PO428500  39.096  39.757   9.595
 1915POPC   GL128501  38.999  39.967   9.220
 1915POPC   GL228502  39.007  40.348   9.268
 1915POPC   C1A28503  39.038  39.841   8.794
 1915POPC   D2A28504  39.376  39.938   8.517
 1915POPC   C3A28505  39.254  39.893   8.096
 1915POPC   C4A28506  39.316  40.100   7.724
 1915POPC   C1B28507  39.198  40.326   8.849
 1915POPC   C2B28508  39.017  40.276   8.453
 1915POPC   C3B28509  39.094  40.404   8.074
 1915POPC   C4B28510  38.874  40.360   7.727
 1916POPC   NC328511  40.463   5.195   9.399
 1916POPC   PO428512  41.069   5.161   9.676
 1916POPC   GL128513  40.957   5.077   9.219
 1916POPC   GL228514  41.249   4.878   9.142
 1916POPC   C1A28515  40.727   5.172   8.765
 1916POPC   D2A28516  40.728   5.433   8.355
 1916POPC   C3A28517  40.860   5.277   7.959
 1916POPC   C4A28518  40.537   4.975   7.874
 1916POPC   C1B28519  41.231   5.126   8.782
 1916POPC   C2B28520  41.062   5.040   8.369
 1916POPC   C3B28521  41.049   4.752   8.018
 1916POPC   C4B28522  40.926   4.831   7.596
 1917POPC   NC328523  37.096  40.571   9.466
 1917POPC   PO428524  36.528  40.931   9.512
 1917POPC   GL128525  36.681  40.741   9.157
 1917POPC   GL228526  37.018  40.918   9.112
 1917POPC   C1A28527  36.466  40.639   8.757
 1917POPC   D2A28528  36.668  40.540   8.362
 1917POPC   C3A28529  36.863  40.871   8.148
 1917POPC   C4A28530  36.836  40.757   7.717
 1917POPC   C1B28531  36.981  40.630   8.768
 1917POPC   C2B28532  37.183  40.503   8.436
 1917POPC   C3B28533  37.212  40.508   8.012
 1917POPC   C4B28534  37.534  40.373   7.770
 1918POPC   NC328535  10.156  19.311   9.420
 1918POPC   PO428536  10.810  19.109   9.502
 1918POPC   GL128537  10.821  19.271   9.139
 1918POPC   GL228538  10.512  19.100   9.075
 1918POPC   C1A28539  10.958  19.061   8.807
 1918POPC   D2A28540  10.879  19.195   8.384
 1918POPC   C3A28541  10.845  18.891   8.062
 1918POPC   C4A28542  10.666  18.908   7.658
 1918POPC   C1B28543  10.501  18.957   8.647
 1918POPC   C2B28544  10.343  18.812   8.253
 1918POPC   C3B28545  10.255  19.086   7.925
 1918POPC   C4B28546  10.555  19.416   7.840
 1919POPC   NC328547  43.368   2.553   9.356
 1919POPC   PO428548  43.863   3.008   9.509
 1919POPC   GL128549  43.756   2.933   9.116
 1919POPC   GL228550  43.408   3.046   9.123
 1919POPC   C1A28551  43.917   2.712   8.720
 1919POPC   D2A28552  43.852   2.474   8.317
 1919POPC   C3A28553  43.998   2.749   7.976
 1919POPC   C4A28554  44.341   2.924   7.760
 1919POPC   C1B28555  43.554   3.084   8.684
 1919POPC   C2B28556  43.660   2.962   8.307
 1919POPC   C3B28557  43.543   3.013   7.899
 1919POPC   C4B28558  43.536   2.771   7.520
 1920POPC   NC328559   3.184  10.050   9.515
 1920POPC   PO428560   3.809   9.764   9.500
 1920POPC   GL128561   3.559   9.942   9.180
 1920POPC   GL228562   3.807  10.120   9.051
 1920POPC   C1A28563   3.239   9.909   8.845
 1920POPC   D2A28564   3.295   9.598   8.512
 1920POPC   C3A28565   3.288   9.755   8.092
 1920POPC   C4A28566   3.547   9.665   7.743
 1920POPC   C1B28567   3.737   9.889   8.676
 1920POPC   C2B28568   3.677  10.060   8.250
 1920POPC   C3B28569   3.907   9.983   7.876
 1920POPC   C4B28570   4.012   9.770   7.472
 1921POPC   NC328571  37.778  13.801   9.483
 1921POPC   PO428572  37.138  13.566   9.412
 1921POPC   GL128573  37.430  13.672   9.109
 1921POPC   GL228574  37.668  13.393   9.186
 1921POPC   C1A28575  37.663  13.820   8.733
 1921POPC   D2A28576  37.971  13.718   8.376
 1921POPC   C3A28577  37.723  13.756   8.000
 1921POPC   C4A28578  37.307  13.682   7.841
 1921POPC   C1B28579  37.609  13.318   8.763
 1921POPC   C2B28580  37.522  13.434   8.354
 1921POPC   C3B28581  37.582  13.264   7.974
 1921POPC   C4B28582  37.949  13.310   7.832
 1922POPC   NC328583  16.278  16.883   9.389
 1922POPC   PO428584  17.022  16.810   9.541
 1922POPC   GL128585  16.767  16.664   9.222
 1922POPC   GL228586  16.695  16.977   9.116
 1922POPC   C1A28587  16.736  16.625   8.744
 1922POPC   D2A28588  16.829  16.433   8.347
 1922POPC   C3A28589  16.691  16.554   7.936
 1922POPC   C4A28590  16.724  16.448   7.517
 1922POPC   C1B28591  16.669  17.138   8.703
 1922POPC   C2B28592  16.576  16.944   8.281
 1922POPC   C3B28593  16.598  17.049   7.821
 1922POPC   C4B28594  16.901  16.929   7.475
 1923POPC   NC328595  39.303  13.595   9.509
 1923POPC   PO428596  38.750  13.314   9.220
 1923POPC   GL128597  39.171  13.468   9.043
 1923POPC   GL228598  39.514  13.348   9.132
 1923POPC   C1A28599  39.269  13.727   8.708
 1923POPC   D2A28600  39.029  13.811   8.328
 1923POPC   C3A28601  39.227  13.688   7.948
 1923POPC   C4A28602  39.083  13.425   7.622
 1923POPC   C1B28603  39.606  13.254   8.732
 1923POPC   C2B28604  39.380  13.361   8.357
 1923POPC   C3B28605  39.513  13.252   7.980
 1923POPC   C4B28606  39.567  13.404   7.589
 1924POPC   NC328607   2.867  32.913   9.410
 1924POPC   PO428608   2.463  33.445   9.283
 1924POPC   GL128609   2.693  33.227   9.055
 1924POPC   GL228610   2.487  32.957   9.067
 1924POPC   C1A28611   2.907  33.018   8.733
 1924POPC   D2A28612   3.002  32.748   8.384
 1924POPC   C3A28613   2.788  32.862   8.014
 1924POPC   C4A28614   2.911  32.918   7.595
 1924POPC   C1B28615   2.348  32.676   8.789
 1924POPC   C2B28616   2.438  32.522   8.383
 1924POPC   C3B28617   2.316  32.618   7.980
 1924POPC   C4B28618   2.416  32.798   7.628
 1925POPC   NC328619  18.503  27.386   9.751
 1925POPC   PO428620  18.004  27.136   9.687
 1925POPC   GL128621  18.252  27.329   9.297
 1925POPC   GL228622  18.013  27.514   9.083
 1925POPC   C1A28623  18.499  27.532   8.915
 1925POPC   D2A28624  18.538  27.544   8.411
 1925POPC   C3A28625  18.389  27.865   8.071
 1925POPC   C4A28626  18.270  27.865   7.615
 1925POPC   C1B28627  18.112  27.294   8.676
 1925POPC   C2B28628  18.182  27.208   8.225
 1925POPC   C3B28629  18.297  27.411   7.858
 1925POPC   C4B28630  18.186  27.395   7.443
 1926POPC   NC328631  31.483  18.073   9.474
 1926POPC   PO428632  30.880  18.373   9.442
 1926POPC   GL128633  31.236  18.454   9.187
 1926POPC   GL228634  31.193  18.128   9.055
 1926POPC   C1A28635  31.491  18.522   8.806
 1926POPC   D2A28636  31.644  18.660   8.403
 1926POPC   C3A28637  31.313  18.574   8.159
 1926POPC   C4A28638  31.517  18.427   7.821
 1926POPC   C1B28639  31.541  18.005   8.831
 1926POPC   C2B28640  31.560  18.146   8.445
 1926POPC   C3B28641  31.362  18.047   8.112
 1926POPC   C4B28642  31.577  17.926   7.764
 1927POPC   NC328643  10.936  19.610   9.519
 1927POPC   PO428644  10.210  19.822   9.574
 1927POPC   GL128645  10.439  19.653   9.177
 1927POPC   GL228646  10.731  19.800   9.086
 1927POPC   C1A28647  10.506  19.476   8.749
 1927POPC   D2A28648  10.244  19.346   8.405
 1927POPC   C3A28649  10.287  19.725   8.161
 1927POPC   C4A28650  10.404  19.891   7.755
 1927POPC   C1B28651  10.748  19.986   8.651
 1927POPC   C2B28652  10.816  19.840   8.201
 1927POPC   C3B28653  10.903  19.848   7.719
 1927POPC   C4B28654  10.672  19.726   7.321
 1928POPC   NC328655   8.287  22.591   9.476
 1928POPC   PO428656   7.821  23.142   9.442
 1928POPC   GL128657   8.174  23.021   9.177
 1928POPC   GL228658   8.526  23.131   9.286
 1928POPC   C1A28659   8.337  22.763   8.815
 1928POPC   D2A28660   8.237  22.596   8.388
 1928POPC   C3A28661   7.955  22.853   8.157
 1928POPC   C4A28662   8.103  23.135   7.832
 1928POPC   C1B28663   8.487  23.267   8.843
 1928POPC   C2B28664   8.275  23.362   8.426
 1928POPC   C3B28665   8.463  23.475   8.012
 1928POPC   C4B28666   8.603  23.203   7.741
 1929POPC   NC328667  23.213   8.694   9.560
 1929POPC   PO428668  23.051   9.397   9.552
 1929POPC   GL128669  23.071   9.208   9.175
 1929POPC   GL228670  22.973   8.848   9.126
 1929POPC   C1A28671  22.951   9.193   8.763
 1929POPC   D2A28672  23.089   8.959   8.426
 1929POPC   C3A28673  23.152   9.220   8.083
 1929POPC   C4A28674  23.032   9.204   7.671
 1929POPC   C1B28675  22.802   8.654   8.742
 1929POPC   C2B28676  22.705   8.651   8.286
 1929POPC   C3B28677  22.989   8.757   7.923
 1929POPC   C4B28678  23.126   8.749   7.459
 1930POPC   NC328679  40.614  43.656   9.566
 1930POPC   PO428680  40.825  42.984   9.572
 1930POPC   GL128681  40.825  43.096   9.165
 1930POPC   GL228682  40.913  43.459   9.196
 1930POPC   C1A28683  40.630  42.905   8.768
 1930POPC   D2A28684  40.545  42.692   8.390
 1930POPC   C3A28685  40.505  43.008   8.060
 1930POPC   C4A28686  40.611  42.965   7.660
 1930POPC   C1B28687  40.739  43.414   8.774
 1930POPC   C2B28688  40.853  43.198   8.404
 1930POPC   C3B28689  41.107  43.120   8.054
 1930POPC   C4B28690  40.929  43.345   7.732
 1931POPC   NC328691   9.362  33.887   9.377
 1931POPC   PO428692  10.000  33.573   9.443
 1931POPC   GL128693   9.832  33.783   9.121
 1931POPC   GL228694   9.822  34.105   9.290
 1931POPC   C1A28695   9.837  33.732   8.665
 1931POPC   D2A28696  10.095  33.603   8.298
 1931POPC   C3A28697   9.956  33.679   7.862
 1931POPC   C4A28698  10.032  33.760   7.399
 1931POPC   C1B28699  10.001  34.219   8.903
 1931POPC   C2B28700   9.925  34.350   8.510
 1931POPC   C3B28701   9.899  34.116   8.152
 1931POPC   C4B28702   9.841  34.220   7.713
 1932POPC   NC328703  28.073  39.530   9.579
 1932POPC   PO428704  28.537  39.057   9.680
 1932POPC   GL128705  28.308  39.125   9.270
 1932POPC   GL228706  28.103  38.840   9.132
 1932POPC   C1A28707  28.362  39.434   8.924
 1932POPC   D2A28708  28.376  39.386   8.463
 1932POPC   C3A28709  28.236  39.548   8.058
 1932POPC   C4A28710  28.144  39.355   7.612
 1932POPC   C1B28711  28.186  38.998   8.726
 1932POPC   C2B28712  28.357  38.881   8.327
 1932POPC   C3B28713  28.165  38.939   7.922
 1932POPC   C4B28714  27.976  38.889   7.525
 1933POPC   NC328715   8.952   0.014   9.477
 1933POPC   PO428716   9.267  44.435   9.543
 1933POPC   GL128717   9.204  44.676   9.141
 1933POPC   GL228718   9.225   0.065   9.044
 1933POPC   C1A28719   8.979  44.704   8.743
 1933POPC   D2A28720   9.084  44.790   8.314
 1933POPC   C3A28721   8.995  44.642   7.925
 1933POPC   C4A28722   9.246  44.299   7.756
 1933POPC   C1B28723   9.116   0.173   8.636
 1933POPC   C2B28724   8.675   0.066   8.474
 1933POPC   C3B28725   8.702   0.086   8.035
 1933POPC   C4B28726   9.157   0.147   7.968
 1934POPC   NC328727  20.681   6.404   9.616
 1934POPC   PO428728  20.542   6.999   9.406
 1934POPC   GL128729  20.766   6.670   9.126
 1934POPC   GL228730  20.686   6.289   9.128
 1934POPC   C1A28731  20.806   6.782   8.658
 1934POPC   D2A28732  20.743   7.048   8.237
 1934POPC   C3A28733  20.490   6.899   7.866
 1934POPC   C4A28734  20.221   6.584   7.660
 1934POPC   C1B28735  20.861   6.264   8.726
 1934POPC   C2B28736  20.893   6.458   8.277
 1934POPC   C3B28737  20.889   6.550   7.836
 1934POPC   C4B28738  20.653   6.367   7.459
 1935POPC   NC328739  31.115   0.607   9.484
 1935POPC   PO428740  30.494   0.449   9.459
 1935POPC   GL128741  30.718   0.269   9.099
 1935POPC   GL228742  31.087   0.169   9.182
 1935POPC   C1A28743  30.727   0.458   8.676
 1935POPC   D2A28744  30.976   0.529   8.307
 1935POPC   C3A28745  30.805   0.707   7.945
 1935POPC   C4A28746  30.701   1.034   7.668
 1935POPC   C1B28747  31.053   0.068   8.747
 1935POPC   C2B28748  30.794   0.033   8.392
 1935POPC   C3B28749  30.723   0.213   8.010
 1935POPC   C4B28750  30.861   0.183   7.617
 1936POPC   NC328751  41.529  41.418   9.480
 1936POPC   PO428752  41.277  42.056   9.530
 1936POPC   GL128753  41.483  41.870   9.182
 1936POPC   GL228754  41.179  41.696   9.119
 1936POPC   C1A28755  41.664  41.600   8.820
 1936POPC   D2A28756  41.665  41.370   8.387
 1936POPC   C3A28757  41.689  41.596   7.955
 1936POPC   C4A28758  41.649  41.606   7.465
 1936POPC   C1B28759  41.272  41.991   8.763
 1936POPC   C2B28760  41.472  41.856   8.410
 1936POPC   C3B28761  41.213  41.805   8.088
 1936POPC   C4B28762  41.275  41.854   7.683
 1937POPC   NC328763  21.654  38.253   9.778
 1937POPC   PO428764  21.030  38.523   9.656
 1937POPC   GL128765  21.225  38.627   9.152
 1937POPC   GL228766  21.248  38.371   8.852
 1937POPC   C1A28767  21.579  38.741   8.795
 1937POPC   D2A28768  21.603  38.929   8.357
 1937POPC   C3A28769  21.472  38.656   8.012
 1937POPC   C4A28770  21.497  38.221   7.896
 1937POPC   C1B28771  21.210  37.952   8.644
 1937POPC   C2B28772  21.325  37.839   8.227
 1937POPC   C3B28773  21.085  37.864   7.854
 1937POPC   C4B28774  21.231  38.014   7.499
 1938POPC   NC328775  25.163   5.327   9.491
 1938POPC   PO428776  24.927   4.947   9.082
 1938POPC   GL128777  25.169   5.319   8.977
 1938POPC   GL228778  25.484   5.164   9.111
 1938POPC   C1A28779  25.198   5.353   8.528
 1938POPC   D2A28780  25.385   5.005   8.289
 1938POPC   C3A28781  25.227   4.907   7.877
 1938POPC   C4A28782  25.277   4.817   7.438
 1938POPC   C1B28783  25.644   5.188   8.708
 1938POPC   C2B28784  25.659   5.447   8.332
 1938POPC   C3B28785  25.623   5.281   7.922
 1938POPC   C4B28786  25.692   5.088   7.535
 1939POPC   NC328787   6.086  30.433   9.486
 1939POPC   PO428788   5.607  30.923   9.462
 1939POPC   GL128789   5.690  30.849   9.051
 1939POPC   GL228790   5.998  30.625   9.019
 1939POPC   C1A28791   5.740  30.847   8.644
 1939POPC   D2A28792   5.937  30.536   8.454
 1939POPC   C3A28793   6.023  30.731   8.111
 1939POPC   C4A28794   5.801  30.712   7.749
 1939POPC   C1B28795   6.287  30.343   8.787
 1939POPC   C2B28796   6.391  30.275   8.330
 1939POPC   C3B28797   6.365  30.433   7.882
 1939POPC   C4B28798   6.277  30.849   7.658
 1940POPC   NC328799  23.847  36.752   9.603
 1940POPC   PO428800  23.375  37.065   9.540
 1940POPC   GL128801  23.722  37.058   9.197
 1940POPC   GL228802  23.933  37.367   9.126
 1940POPC   C1A28803  23.948  36.930   8.793
 1940POPC   D2A28804  24.084  36.835   8.387
 1940POPC   C3A28805  23.774  36.677   8.113
 1940POPC   C4A28806  23.750  36.790   7.680
 1940POPC   C1B28807  23.651  37.320   8.767
 1940POPC   C2B28808  23.584  37.069   8.426
 1940POPC   C3B28809  23.789  37.185   8.096
 1940POPC   C4B28810  23.842  37.326   7.728
 1941POPC   NC328811  43.261  43.548   9.831
 1941POPC   PO428812  42.773  44.004   9.593
 1941POPC   GL128813  43.064  44.101   9.199
 1941POPC   GL228814  43.274  43.804   9.051
 1941POPC   C1A28815  43.213  44.239   8.788
 1941POPC   D2A28816  43.406  44.385   8.394
 1941POPC   C3A28817  43.254  44.125   8.063
 1941POPC   C4A28818  43.131  44.097   7.663
 1941POPC   C1B28819  43.234  43.529   8.720
 1941POPC   C2B28820  43.264  43.619   8.292
 1941POPC   C3B28821  43.229  43.621   7.866
 1941POPC   C4B28822  43.154  43.637   7.406
 1942POPC   NC328823  42.566   2.510   9.460
 1942POPC   PO428824  42.197   3.117   9.482
 1942POPC   GL128825  42.023   2.983   9.111
 1942POPC   GL228826  42.108   2.637   9.185
 1942POPC   C1A28827  42.218   3.004   8.694
 1942POPC   D2A28828  42.594   2.920   8.403
 1942POPC   C3A28829  42.553   2.998   7.961
 1942POPC   C4A28830  42.223   2.830   7.695
 1942POPC   C1B28831  42.051   2.481   8.777
 1942POPC   C2B28832  42.256   2.497   8.369
 1942POPC   C3B28833  41.988   2.475   7.971
 1942POPC   C4B28834  41.918   2.467   7.466
 1943POPC   NC328835  14.431  11.870   9.789
 1943POPC   PO428836  14.198  12.009   9.259
 1943POPC   GL128837  14.310  12.076   8.916
 1943POPC   GL228838  14.634  11.936   8.964
 1943POPC   C1A28839  14.197  12.098   8.546
 1943POPC   D2A28840  14.084  11.843   8.251
 1943POPC   C3A28841  14.200  12.063   7.891
 1943POPC   C4A28842  14.247  11.761   7.565
 1943POPC   C1B28843  14.693  12.257   8.639
 1943POPC   C2B28844  14.607  12.126   8.244
 1943POPC   C3B28845  14.722  12.069   7.881
 1943POPC   C4B28846  14.660  12.353   7.607
 1944POPC   NC328847  40.112  41.885   9.423
 1944POPC   PO428848  39.879  41.301   9.516
 1944POPC   GL128849  39.850  41.416   9.087
 1944POPC   GL228850  39.898  41.749   9.000
 1944POPC   C1A28851  40.149  41.426   8.731
 1944POPC   D2A28852  40.151  41.583   8.379
 1944POPC   C3A28853  39.961  41.319   8.132
 1944POPC   C4A28854  40.066  41.362   7.726
 1944POPC   C1B28855  39.729  41.947   8.640
 1944POPC   C2B28856  39.702  41.776   8.236
 1944POPC   C3B28857  40.050  41.836   7.941
 1944POPC   C4B28858  39.905  42.193   7.730
 1945POPC   NC328859  14.121  42.662   9.477
 1945POPC   PO428860  14.336  41.950   9.414
 1945POPC   GL128861  14.171  42.234   9.149
 1945POPC   GL228862  14.492  42.409   9.111
 1945POPC   C1A28863  14.120  42.403   8.736
 1945POPC   D2A28864  14.270  42.244   8.338
 1945POPC   C3A28865  14.116  41.959   8.053
 1945POPC   C4A28866  14.279  42.274   7.742
 1945POPC   C1B28867  14.619  42.475   8.658
 1945POPC   C2B28868  14.505  42.680   8.224
 1945POPC   C3B28869  14.685  42.613   7.790
 1945POPC   C4B28870  14.639  42.567   7.304
 1946POPC   NC328871  22.666  44.046   9.513
 1946POPC   PO428872  23.247  43.774   9.516
 1946POPC   GL128873  23.002  43.692   9.158
 1946POPC   GL228874  22.679  43.610   9.256
 1946POPC   C1A28875  22.977  43.511   8.750
 1946POPC   D2A28876  22.911  43.457   8.284
 1946POPC   C3A28877  23.024  43.785   7.965
 1946POPC   C4A28878  22.953  43.877   7.526
 1946POPC   C1B28879  22.568  43.781   8.858
 1946POPC   C2B28880  22.407  43.710   8.464
 1946POPC   C3B28881  22.525  43.705   8.036
 1946POPC   C4B28882  22.496  43.996   7.677
 1947POPC   NC328883  10.033  27.514   9.487
 1947POPC   PO428884   9.485  27.832   9.456
 1947POPC   GL128885   9.825  27.833   9.136
 1947POPC   GL228886   9.806  27.474   9.056
 1947POPC   C1A28887  10.053  27.756   8.726
 1947POPC   D2A28888   9.897  27.739   8.288
 1947POPC   C3A28889  10.054  27.607   7.923
 1947POPC   C4A28890   9.752  27.539   7.586
 1947POPC   C1B28891   9.550  27.185   8.884
 1947POPC   C2B28892   9.570  27.095   8.436
 1947POPC   C3B28893   9.609  27.321   8.036
 1947POPC   C4B28894   9.285  27.341   7.719
 1948POPC   NC328895  35.762  27.223   9.296
 1948POPC   PO428896  35.150  27.586   9.442
 1948POPC   GL128897  35.305  27.674   9.077
 1948POPC   GL228898  35.644  27.657   9.024
 1948POPC   C1A28899  35.192  27.828   8.712
 1948POPC   D2A28900  35.010  27.573   8.436
 1948POPC   C3A28901  35.288  27.626   8.117
 1948POPC   C4A28902  35.258  27.724   7.688
 1948POPC   C1B28903  35.452  27.381   8.706
 1948POPC   C2B28904  35.510  27.202   8.331
 1948POPC   C3B28905  35.589  27.245   7.924
 1948POPC   C4B28906  35.307  27.246   7.610
 1949POPC   NC328907  20.179  32.947   9.448
 1949POPC   PO428908  20.773  33.381   9.546
 1949POPC   GL128909  20.494  33.269   9.198
 1949POPC   GL228910  20.638  33.404   8.955
 1949POPC   C1A28911  20.501  32.917   8.836
 1949POPC   D2A28912  20.611  32.717   8.424
 1949POPC   C3A28913  20.396  32.707   8.023
 1949POPC   C4A28914  20.471  32.952   7.691
 1949POPC   C1B28915  20.559  33.334   8.517
 1949POPC   C2B28916  20.604  33.152   8.145
 1949POPC   C3B28917  20.921  32.998   7.919
 1949POPC   C4B28918  21.159  32.660   7.832
 1950POPC   NC328919  31.005  27.699   9.412
 1950POPC   PO428920  30.355  27.734   9.317
 1950POPC   GL128921  30.626  27.639   9.079
 1950POPC   GL228922  30.595  27.320   9.098
 1950POPC   C1A28923  30.797  27.795   8.747
 1950POPC   D2A28924  30.550  27.791   8.420
 1950POPC   C3A28925  30.690  27.685   8.050
 1950POPC   C4A28926  30.866  27.811   7.718
 1950POPC   C1B28927  30.777  27.273   8.704
 1950POPC   C2B28928  31.022  27.476   8.402
 1950POPC   C3B28929  31.100  27.391   7.997
 1950POPC   C4B28930  31.228  27.493   7.606
 1951POPC   NC328931  14.245   2.507   9.507
 1951POPC   PO428932  14.523   3.044   9.405
 1951POPC   GL128933  14.372   2.757   9.086
 1951POPC   GL228934  14.031   2.837   9.113
 1951POPC   C1A28935  14.173   2.477   8.770
 1951POPC   D2A28936  14.069   2.545   8.330
 1951POPC   C3A28937  14.329   2.655   7.975
 1951POPC   C4A28938  14.634   2.467   7.710
 1951POPC   C1B28939  14.182   2.997   8.675
 1951POPC   C2B28940  14.067   3.043   8.218
 1951POPC   C3B28941  14.231   3.148   7.781
 1951POPC   C4B28942  14.001   3.147   7.368
 1952POPC   NC328943  23.241  23.971   9.527
 1952POPC   PO428944  22.591  23.884   9.503
 1952POPC   GL128945  22.869  23.732   9.180
 1952POPC   GL228946  23.197  23.846   9.053
 1952POPC   C1A28947  22.870  23.523   8.779
 1952POPC   D2A28948  22.867  23.522   8.342
 1952POPC   C3A28949  22.826  23.895   8.094
 1952POPC   C4A28950  22.788  23.607   7.782
 1952POPC   C1B28951  23.400  23.627   8.760
 1952POPC   C2B28952  23.307  23.808   8.390
 1952POPC   C3B28953  23.271  23.636   8.029
 1952POPC   C4B28954  23.260  23.791   7.674
 1953POPC   NC328955  11.543  41.542   9.297
 1953POPC   PO428956  11.029  41.754   9.648
 1953POPC   GL128957  11.188  41.884   9.200
 1953POPC   GL228958  11.242  41.656   8.892
 1953POPC   C1A28959  11.446  42.092   8.866
 1953POPC   D2A28960  11.361  42.100   8.430
 1953POPC   C3A28961  11.031  41.935   8.149
 1953POPC   C4A28962  11.070  41.664   7.790
 1953POPC   C1B28963  11.125  41.565   8.506
 1953POPC   C2B28964  11.462  41.627   8.228
 1953POPC   C3B28965  11.541  41.421   7.867
 1953POPC   C4B28966  11.164  41.166   7.838
 1954POPC   NC328967  25.932  35.156   9.354
 1954POPC   PO428968  26.318  35.632   9.621
 1954POPC   GL128969  26.155  35.576   9.196
 1954POPC   GL228970  25.822  35.639   9.202
 1954POPC   C1A28971  26.198  35.470   8.743
 1954POPC   D2A28972  26.389  35.582   8.340
 1954POPC   C3A28973  26.258  35.335   7.962
 1954POPC   C4A28974  26.193  35.400   7.493
 1954POPC   C1B28975  25.687  35.521   8.804
 1954POPC   C2B28976  25.773  35.398   8.389
 1954POPC   C3B28977  25.712  35.358   7.973
 1954POPC   C4B28978  25.890  35.055   7.738
 1955POPC   NC328979  32.702  30.608   9.405
 1955POPC   PO428980  33.256  30.597   9.734
 1955POPC   GL128981  33.186  30.787   9.305
 1955POPC   GL228982  33.061  30.478   9.083
 1955POPC   C1A28983  33.177  30.904   8.847
 1955POPC   D2A28984  33.074  30.547   8.564
 1955POPC   C3A28985  33.075  30.608   8.151
 1955POPC   C4A28986  33.155  30.826   7.799
 1955POPC   C1B28987  32.679  30.339   8.782
 1955POPC   C2B28988  32.645  30.359   8.296
 1955POPC   C3B28989  32.714  30.327   7.816
 1955POPC   C4B28990  32.710  30.215   7.380
 1956POPC   NC328991  33.465  43.397   9.744
 1956POPC   PO428992  33.962  42.997   9.557
 1956POPC   GL128993  33.881  42.894   9.111
 1956POPC   GL228994  34.183  42.904   8.882
 1956POPC   C1A28995  33.717  42.933   8.672
 1956POPC   D2A28996  33.912  42.760   8.283
 1956POPC   C3A28997  33.760  43.039   7.967
 1956POPC   C4A28998  33.718  43.086   7.534
 1956POPC   C1B28999  34.166  43.327   8.713
 1956POPC   C2B29000  34.044  43.446   8.304
 1956POPC   C3B29001  34.296  43.396   7.955
 1956POPC   C4B29002  34.161  43.347   7.538
 1957POPC   NC329003   3.424  11.347   9.668
 1957POPC   PO429004   3.924  11.437   9.308
 1957POPC   GL129005   3.590  11.209   9.092
 1957POPC   GL229006   3.321  10.952   9.230
 1957POPC   C1A29007   3.632  11.281   8.653
 1957POPC   D2A29008   3.987  11.451   8.411
 1957POPC   C3A29009   3.830  11.618   8.055
 1957POPC   C4A29010   3.462  11.464   7.842
 1957POPC   C1B29011   3.243  10.950   8.788
 1957POPC   C2B29012   3.178  11.170   8.368
 1957POPC   C3B29013   3.038  11.193   7.918
 1957POPC   C4B29014   3.043  11.153   7.444
 1958POPC   NC329015  31.478  13.257   9.484
 1958POPC   PO429016  31.302  12.660   9.773
 1958POPC   GL129017  31.425  12.768   9.337
 1958POPC   GL229018  31.179  12.935   9.208
 1958POPC   C1A29019  31.489  12.776   8.855
 1958POPC   D2A29020  31.532  13.064   8.526
 1958POPC   C3A29021  31.433  12.882   8.153
 1958POPC   C4A29022  31.428  13.012   7.730
 1958POPC   C1B29023  31.083  13.090   8.804
 1958POPC   C2B29024  30.977  12.981   8.406
 1958POPC   C3B29025  31.051  13.206   8.036
 1958POPC   C4B29026  30.920  13.275   7.627
 1959POPC   NC329027  11.681  33.757   9.294
 1959POPC   PO429028  12.194  34.114   9.581
 1959POPC   GL129029  12.192  33.953   9.135
 1959POPC   GL229030  12.095  33.603   9.044
 1959POPC   C1A29031  12.050  34.003   8.713
 1959POPC   D2A29032  11.870  34.271   8.399
 1959POPC   C3A29033  11.900  34.002   8.018
 1959POPC   C4A29034  12.248  33.876   7.789
 1959POPC   C1B29035  12.130  33.458   8.637
 1959POPC   C2B29036  12.368  33.482   8.252
 1959POPC   C3B29037  12.044  33.445   7.968
 1959POPC   C4B29038  11.854  33.411   7.610
 1960POPC   NC329039  31.737  26.348   9.304
 1960POPC   PO429040  32.194  25.950   9.418
 1960POPC   GL129041  32.275  25.879   9.025
 1960POPC   GL229042  31.940  25.879   8.942
 1960POPC   C1A29043  32.425  25.954   8.653
 1960POPC   D2A29044  32.238  26.093   8.305
 1960POPC   C3A29045  32.068  25.816   8.020
 1960POPC   C4A29046  32.346  25.851   7.707
 1960POPC   C1B29047  31.972  26.303   8.711
 1960POPC   C2B29048  31.993  26.539   8.339
 1960POPC   C3B29049  32.012  26.331   7.906
 1960POPC   C4B29050  31.899  26.048   7.550
 1961POPC   NC329051  25.719  42.015   9.523
 1961POPC   PO429052  26.358  42.173   9.511
 1961POPC   GL129053  26.256  42.135   9.078
 1961POPC   GL229054  25.888  42.162   9.071
 1961POPC   C1A29055  26.322  42.130   8.623
 1961POPC   D2A29056  26.328  42.459   8.333
 1961POPC   C3A29057  26.201  42.412   7.898
 1961POPC   C4A29058  26.427  42.521   7.492
 1961POPC   C1B29059  25.893  42.394   8.686
 1961POPC   C2B29060  25.893  42.163   8.308
 1961POPC   C3B29061  25.739  42.147   7.890
 1961POPC   C4B29062  25.699  42.525   7.716
 1962POPC   NC329063  36.296  22.625   9.507
 1962POPC   PO429064  35.637  22.810   9.470
 1962POPC   GL129065  35.919  22.730   9.136
 1962POPC   GL229066  36.202  22.982   9.153
 1962POPC   C1A29067  35.938  22.901   8.721
 1962POPC   D2A29068  36.175  23.186   8.483
 1962POPC   C3A29069  36.096  23.087   8.076
 1962POPC   C4A29070  35.901  22.766   7.838
 1962POPC   C1B29071  36.399  22.686   8.873
 1962POPC   C2B29072  36.455  22.657   8.456
 1962POPC   C3B29073  36.512  22.699   8.027
 1962POPC   C4B29074  36.433  22.989   7.708
 1963POPC   NC329075   1.238  29.626   9.677
 1963POPC   PO429076   1.185  28.959   9.529
 1963POPC   GL129077   1.068  29.088   9.124
 1963POPC   GL229078   1.329  29.313   9.015
 1963POPC   C1A29079   0.983  29.128   8.679
 1963POPC   D2A29080   1.122  29.254   8.275
 1963POPC   C3A29081   1.188  28.911   8.020
 1963POPC   C4A29082   1.318  28.951   7.606
 1963POPC   C1B29083   1.601  29.335   8.688
 1963POPC   C2B29084   1.708  29.433   8.270
 1963POPC   C3B29085   1.507  29.315   7.898
 1963POPC   C4B29086   1.596  29.340   7.433
 1964POPC   NC329087  22.936  31.413   9.533
 1964POPC   PO429088  23.095  32.059   9.397
 1964POPC   GL129089  23.261  31.736   9.042
 1964POPC   GL229090  23.130  31.400   9.058
 1964POPC   C1A29091  23.171  31.628   8.577
 1964POPC   D2A29092  22.792  31.432   8.348
 1964POPC   C3A29093  22.840  31.488   7.910
 1964POPC   C4A29094  22.782  31.931   7.770
 1964POPC   C1B29095  23.064  31.140   8.693
 1964POPC   C2B29096  23.235  31.172   8.262
 1964POPC   C3B29097  23.254  31.068   7.834
 1964POPC   C4B29098  22.985  31.151   7.487
 1965POPC   NC329099  18.654  42.972   9.494
 1965POPC   PO429100  18.116  43.463   9.478
 1965POPC   GL129101  18.260  43.433   9.096
 1965POPC   GL229102  18.337  43.082   9.111
 1965POPC   C1A29103  18.054  43.256   8.730
 1965POPC   D2A29104  18.280  43.101   8.406
 1965POPC   C3A29105  18.108  42.944   8.046
 1965POPC   C4A29106  17.975  43.225   7.729
 1965POPC   C1B29107  18.548  42.847   8.798
 1965POPC   C2B29108  18.596  42.724   8.366
 1965POPC   C3B29109  18.620  42.901   7.969
 1965POPC   C4B29110  18.384  42.945   7.594
 1966POPC   NC329111  29.721  31.084   9.665
 1966POPC   PO429112  30.329  31.081   9.463
 1966POPC   GL129113  30.105  30.929   9.101
 1966POPC   GL229114  29.781  30.788   9.221
 1966POPC   C1A29115  30.187  30.975   8.642
 1966POPC   D2A29116  30.332  30.879   8.216
 1966POPC   C3A29117  30.024  30.576   8.070
 1966POPC   C4A29118  29.839  30.346   7.744
 1966POPC   C1B29119  29.734  30.716   8.750
 1966POPC   C2B29120  29.567  30.788   8.298
 1966POPC   C3B29121  29.687  30.929   7.862
 1966POPC   C4B29122  29.649  30.741   7.439
 1967POPC   NC329123  10.811   5.463   9.914
 1967POPC   PO429124  10.407   5.032   9.609
 1967POPC   GL129125  10.614   4.996   9.164
 1967POPC   GL229126  10.899   4.773   9.060
 1967POPC   C1A29127  10.617   5.014   8.677
 1967POPC   D2A29128  10.419   4.995   8.258
 1967POPC   C3A29129  10.566   4.963   7.829
 1967POPC   C4A29130  10.298   4.940   7.439
 1967POPC   C1B29131  11.107   4.887   8.644
 1967POPC   C2B29132  10.959   5.117   8.248
 1967POPC   C3B29133  11.029   5.251   7.814
 1967POPC   C4B29134  11.027   5.080   7.398
 1968POPC   NC329135   3.526  18.653   9.500
 1968POPC   PO429136   3.652  17.960   9.495
 1968POPC   GL129137   3.616  18.120   9.117
 1968POPC   GL229138   3.870  18.350   9.213
 1968POPC   C1A29139   3.537  18.023   8.667
 1968POPC   D2A29140   3.634  18.277   8.311
 1968POPC   C3A29141   3.405  18.349   7.933
 1968POPC   C4A29142   3.681  18.033   7.724
 1968POPC   C1B29143   3.871  18.471   8.808
 1968POPC   C2B29144   3.683  18.738   8.537
 1968POPC   C3B29145   3.713  18.750   8.104
 1968POPC   C4B29146   3.844  18.520   7.760
 1969POPC   NC329147  14.922  23.595   9.757
 1969POPC   PO429148  15.534  23.495   9.582
 1969POPC   GL129149  15.393  23.628   9.185
 1969POPC   GL229150  15.014  23.538   9.200
 1969POPC   C1A29151  15.442  23.917   8.818
 1969POPC   D2A29152  15.191  23.997   8.425
 1969POPC   C3A29153  15.342  23.897   7.989
 1969POPC   C4A29154  15.405  23.582   7.619
 1969POPC   C1B29155  15.090  23.559   8.741
 1969POPC   C2B29156  15.226  23.501   8.322
 1969POPC   C3B29157  15.045  23.494   7.952
 1969POPC   C4B29158  14.779  23.740   7.700
 1970POPC   NC329159  26.234  22.199   9.578
 1970POPC   PO429160  25.568  22.198   9.619
 1970POPC   GL129161  25.801  22.323   9.228
 1970POPC   GL229162  26.094  22.103   9.109
 1970POPC   C1A29163  25.955  22.471   8.806
 1970POPC   D2A29164  26.086  22.251   8.429
 1970POPC   C3A29165  26.098  22.464   8.023
 1970POPC   C4A29166  26.135  22.371   7.565
 1970POPC   C1B29167  25.863  21.895   8.798
 1970POPC   C2B29168  25.860  21.782   8.377
 1970POPC   C3B29169  25.894  21.993   7.993
 1970POPC   C4B29170  26.329  21.988   7.859
 1971POPC   NC329171  17.179  37.654   9.421
 1971POPC   PO429172  16.603  37.901   9.651
 1971POPC   GL129173  16.696  37.654   9.255
 1971POPC   GL229174  16.616  37.950   9.124
 1971POPC   C1A29175  16.504  37.550   8.817
 1971POPC   D2A29176  16.593  37.646   8.357
 1971POPC   C3A29177  16.767  37.546   7.942
 1971POPC   C4A29178  17.076  37.351   7.680
 1971POPC   C1B29179  16.540  38.065   8.710
 1971POPC   C2B29180  16.268  38.034   8.362
 1971POPC   C3B29181  16.478  37.993   7.954
 1971POPC   C4B29182  16.495  38.028   7.479
 1972POPC   NC329183  40.958   1.684   9.498
 1972POPC   PO429184  40.509   2.160   9.530
 1972POPC   GL129185  40.692   1.973   9.178
 1972POPC   GL229186  40.766   2.266   9.071
 1972POPC   C1A29187  40.783   1.832   8.733
 1972POPC   D2A29188  40.973   1.684   8.329
 1972POPC   C3A29189  40.733   1.418   8.048
 1972POPC   C4A29190  40.606   1.567   7.630
 1972POPC   C1B29191  40.965   2.311   8.684
 1972POPC   C2B29192  41.132   2.177   8.287
 1972POPC   C3B29193  40.981   2.125   7.871
 1972POPC   C4B29194  40.850   2.382   7.552
 1973POPC   NC329195  31.284  44.628   9.363
 1973POPC   PO429196  31.950  44.471   9.586
 1973POPC   GL129197  31.789  44.657   9.200
 1973POPC   GL229198  31.802   0.045   9.195
 1973POPC   C1A29199  31.595  44.517   8.788
 1973POPC   D2A29200  31.221  44.640   8.518
 1973POPC   C3A29201  31.259  44.521   8.077
 1973POPC   C4A29202  31.278  44.663   7.645
 1973POPC   C1B29203  31.560   0.027   8.821
 1973POPC   C2B29204  31.667  44.869   8.381
 1973POPC   C3B29205  31.672  44.834   7.923
 1973POPC   C4B29206  31.695  44.906   7.460
 1974POPC   NC329207   1.259  31.786   9.331
 1974POPC   PO429208   1.293  31.111   9.532
 1974POPC   GL129209   1.048  31.304   9.198
 1974POPC   GL229210   0.796  31.576   9.124
 1974POPC   C1A29211   1.207  31.415   8.796
 1974POPC   D2A29212   1.255  31.194   8.424
 1974POPC   C3A29213   1.189  31.397   8.058
 1974POPC   C4A29214   0.879  31.357   7.738
 1974POPC   C1B29215   0.937  31.875   8.783
 1974POPC   C2B29216   1.100  31.824   8.373
 1974POPC   C3B29217   0.951  31.838   7.959
 1974POPC   C4B29218   1.226  31.708   7.625
 1975POPC   NC329219  36.947  23.372   9.472
 1975POPC   PO429220  36.702  24.036   9.507
 1975POPC   GL129221  36.594  23.947   9.129
 1975POPC   GL229222  36.436  24.238   9.046
 1975POPC   C1A29223  36.770  23.765   8.776
 1975POPC   D2A29224  37.066  23.843   8.458
 1975POPC   C3A29225  36.890  23.677   8.074
 1975POPC   C4A29226  37.088  23.557   7.709
 1975POPC   C1B29227  36.306  24.005   8.719
 1975POPC   C2B29228  36.380  23.851   8.327
 1975POPC   C3B29229  36.423  23.926   7.901
 1975POPC   C4B29230  36.548  23.559   7.689
 1976POPC   NC329231   1.363  23.924   9.303
 1976POPC   PO429232   0.900  23.579   9.653
 1976POPC   GL129233   1.105  23.466   9.253
 1976POPC   GL229234   0.986  23.689   9.019
 1976POPC   C1A29235   1.403  23.458   8.856
 1976POPC   D2A29236   1.515  23.630   8.428
 1976POPC   C3A29237   1.244  23.726   8.103
 1976POPC   C4A29238   1.247  23.657   7.681
 1976POPC   C1B29239   1.105  23.894   8.620
 1976POPC   C2B29240   0.975  24.138   8.240
 1976POPC   C3B29241   0.955  24.061   7.794
 1976POPC   C4B29242   0.863  23.843   7.424
 1977POPC   NC329243  31.761  40.307   9.459
 1977POPC   PO429244  31.305  39.748   9.482
 1977POPC   GL129245  31.341  40.063   9.211
 1977POPC   GL229246  31.652  39.939   9.126
 1977POPC   C1A29247  31.299  39.974   8.787
 1977POPC   D2A29248  31.324  40.108   8.416
 1977POPC   C3A29249  31.318  39.749   8.160
 1977POPC   C4A29250  31.193  39.722   7.743
 1977POPC   C1B29251  31.786  40.214   8.783
 1977POPC   C2B29252  31.813  40.138   8.333
 1977POPC   C3B29253  31.647  40.072   7.914
 1977POPC   C4B29254  31.848  39.959   7.525
 1978POPC   NC329255  26.586  15.629   9.581
 1978POPC   PO429256  27.143  16.038   9.514
 1978POPC   GL129257  26.861  15.927   9.162
 1978POPC   GL229258  26.651  15.629   9.088
 1978POPC   C1A29259  27.046  15.814   8.760
 1978POPC   D2A29260  27.272  15.905   8.374
 1978POPC   C3A29261  26.929  15.977   8.087
 1978POPC   C4A29262  26.801  15.981   7.648
 1978POPC   C1B29263  26.614  15.534   8.678
 1978POPC   C2B29264  26.498  15.661   8.305
 1978POPC   C3B29265  26.621  15.580   7.910
 1978POPC   C4B29266  26.390  15.691   7.558
 1979POPC   NC329267   0.448  11.634   9.803
 1979POPC   PO429268   0.540  12.195   9.484
 1979POPC   GL129269   0.559  12.104   9.097
 1979POPC   GL229270   0.700  11.801   9.172
 1979POPC   C1A29271   0.398  11.935   8.736
 1979POPC   D2A29272   0.335  12.109   8.349
 1979POPC   C3A29273   0.342  12.093   7.927
 1979POPC   C4A29274   0.563  12.403   7.681
 1979POPC   C1B29275   0.911  11.865   8.798
 1979POPC   C2B29276   0.756  11.753   8.410
 1979POPC   C3B29277   0.814  11.898   8.021
 1979POPC   C4B29278   0.705  11.916   7.619
 1980POPC   NC329279  21.810  14.604   9.461
 1980POPC   PO429280  21.344  14.027   9.493
 1980POPC   GL129281  21.534  14.240   9.228
 1980POPC   GL229282  21.382  14.536   9.135
 1980POPC   C1A29283  21.528  14.226   8.792
 1980POPC   D2A29284  21.435  14.534   8.479
 1980POPC   C3A29285  21.611  14.461   8.099
 1980POPC   C4A29286  21.737  14.387   7.704
 1980POPC   C1B29287  21.132  14.742   8.841
 1980POPC   C2B29288  20.977  14.760   8.392
 1980POPC   C3B29289  21.095  14.517   8.056
 1980POPC   C4B29290  21.275  14.584   7.676
 1981POPC   NC329291  16.843  33.480   9.344
 1981POPC   PO429292  16.901  34.118   9.623
 1981POPC   GL129293  16.701  33.978   9.221
 1981POPC   GL229294  17.003  33.948   9.065
 1981POPC   C1A29295  16.579  33.823   8.793
 1981POPC   D2A29296  16.773  33.725   8.363
 1981POPC   C3A29297  16.505  33.752   7.988
 1981POPC   C4A29298  16.250  34.114   7.871
 1981POPC   C1B29299  17.126  33.608   8.774
 1981POPC   C2B29300  17.319  33.518   8.390
 1981POPC   C3B29301  17.166  33.624   7.973
 1981POPC   C4B29302  16.932  33.997   7.851
 1982POPC   NC329303   0.785  23.138   9.539
 1982POPC   PO429304   0.291  22.705   9.515
 1982POPC   GL129305   0.520  22.629   9.124
 1982POPC   GL229306   0.700  22.878   9.127
 1982POPC   C1A29307   0.818  22.607   8.735
 1982POPC   D2A29308   0.598  22.639   8.347
 1982POPC   C3A29309   0.630  22.787   7.922
 1982POPC   C4A29310   0.214  22.774   7.694
 1982POPC   C1B29311   0.499  23.002   8.714
 1982POPC   C2B29312   0.575  23.166   8.268
 1982POPC   C3B29313   0.428  23.233   7.815
 1982POPC   C4B29314   0.724  23.323   7.463
 1983POPC   NC329315  41.898  39.741   9.639
 1983POPC   PO429316  41.382  40.147   9.912
 1983POPC   GL129317  41.550  40.007   9.375
 1983POPC   GL229318  41.372  40.259   9.084
 1983POPC   C1A29319  41.717  39.955   8.908
 1983POPC   D2A29320  41.513  40.064   8.474
 1983POPC   C3A29321  41.731  40.031   8.092
 1983POPC   C4A29322  41.805  40.143   7.675
 1983POPC   C1B29323  41.222  40.431   8.698
 1983POPC   C2B29324  41.158  40.526   8.253
 1983POPC   C3B29325  41.383  40.368   7.894
 1983POPC   C4B29326  41.315  39.922   7.760
 1984POPC   NC329327  29.607  16.655   9.818
 1984POPC   PO429328  28.981  16.651   9.598
 1984POPC   GL129329  28.853  16.675   9.198
 1984POPC   GL229330  28.896  17.010   9.176
 1984POPC   C1A29331  28.947  16.642   8.777
 1984POPC   D2A29332  28.735  16.771   8.413
 1984POPC   C3A29333  28.886  16.810   7.999
 1984POPC   C4A29334  29.056  16.450   7.760
 1984POPC   C1B29335  29.183  17.102   8.808
 1984POPC   C2B29336  29.329  17.190   8.375
 1984POPC   C3B29337  29.407  16.873   8.080
 1984POPC   C4B29338  29.286  16.900   7.685
 1985POPC   NC329339   8.700  38.468   9.450
 1985POPC   PO429340   9.204  38.097   9.189
 1985POPC   GL129341   9.034  38.454   9.026
 1985POPC   GL229342   9.265  38.699   9.094
 1985POPC   C1A29343   8.917  38.359   8.580
 1985POPC   D2A29344   8.998  38.014   8.266
 1985POPC   C3A29345   8.925  38.217   7.880
 1985POPC   C4A29346   8.695  38.579   7.876
 1985POPC   C1B29347   8.998  38.848   8.721
 1985POPC   C2B29348   9.010  38.781   8.290
 1985POPC   C3B29349   8.971  39.002   7.940
 1985POPC   C4B29350   9.060  39.014   7.507
 1986POPC   NC329351  37.979  41.017   9.360
 1986POPC   PO429352  38.621  41.244   9.552
 1986POPC   GL129353  38.461  40.924   9.230
 1986POPC   GL229354  38.568  40.608   9.154
 1986POPC   C1A29355  38.388  40.893   8.771
 1986POPC   D2A29356  38.148  40.837   8.397
 1986POPC   C3A29357  38.356  40.895   8.032
 1986POPC   C4A29358  38.350  40.664   7.646
 1986POPC   C1B29359  38.241  40.419   8.893
 1986POPC   C2B29360  38.085  40.327   8.466
 1986POPC   C3B29361  38.324  40.382   8.090
 1986POPC   C4B29362  38.416  40.165   7.735
 1987POPC   NC329363  32.560  25.654   9.397
 1987POPC   PO429364  32.038  25.143   9.445
 1987POPC   GL129365  32.173  25.396   9.150
 1987POPC   GL229366  32.445  25.195   9.080
 1987POPC   C1A29367  32.087  25.414   8.732
 1987POPC   D2A29368  32.280  25.051   8.500
 1987POPC   C3A29369  32.425  25.085   8.077
 1987POPC   C4A29370  32.222  25.342   7.775
 1987POPC   C1B29371  32.581  25.456   8.741
 1987POPC   C2B29372  32.430  25.551   8.309
 1987POPC   C3B29373  32.670  25.518   7.921
 1987POPC   C4B29374  32.657  25.534   7.475
 1988POPC   NC329375   3.859   1.731   9.214
 1988POPC   PO429376   3.252   1.763   9.393
 1988POPC   GL129377   3.443   1.999   9.040
 1988POPC   GL229378   3.275   2.336   8.994
 1988POPC   C1A29379   3.577   1.868   8.643
 1988POPC   D2A29380   3.632   1.921   8.231
 1988POPC   C3A29381   3.728   1.712   7.883
 1988POPC   C4A29382   3.548   1.979   7.582
 1988POPC   C1B29383   3.273   2.282   8.580
 1988POPC   C2B29384   3.152   2.112   8.219
 1988POPC   C3B29385   3.382   2.307   7.991
 1988POPC   C4B29386   3.437   2.466   7.633
 1989POPC   NC329387  43.937  41.223   9.318
 1989POPC   PO429388  43.749  41.825   9.577
 1989POPC   GL129389  43.860  41.701   9.143
 1989POPC   GL229390  43.560  41.815   9.006
 1989POPC   C1A29391  44.025  41.472   8.737
 1989POPC   D2A29392  44.188  41.361   8.314
 1989POPC   C3A29393  43.979  41.414   7.872
 1989POPC   C4A29394  44.000  41.316   7.362
 1989POPC   C1B29395  43.795  41.918   8.657
 1989POPC   C2B29396  43.867  41.770   8.259
 1989POPC   C3B29397  43.529  41.671   7.982
 1989POPC   C4B29398  43.279  41.821   7.650
 1990POPC   NC329399   3.002  34.611   9.639
 1990POPC   PO429400   2.446  34.264   9.400
 1990POPC   GL129401   2.617  34.507   9.066
 1990POPC   GL229402   2.886  34.729   9.160
 1990POPC   C1A29403   2.634  34.752   8.706
 1990POPC   D2A29404   2.543  34.775   8.276
 1990POPC   C3A29405   2.664  34.386   8.033
 1990POPC   C4A29406   2.781  34.414   7.582
 1990POPC   C1B29407   3.108  34.476   8.807
 1990POPC   C2B29408   3.297  34.361   8.380
 1990POPC   C3B29409   3.168  34.491   7.954
 1990POPC   C4B29410   2.858  34.837   7.847
 1991POPC   NC329411  19.136  24.203   9.605
 1991POPC   PO429412  18.851  24.842   9.611
 1991POPC   GL129413  19.084  24.627   9.298
 1991POPC   GL229414  18.934  24.356   9.120
 1991POPC   C1A29415  19.345  24.621   8.934
 1991POPC   D2A29416  19.396  24.675   8.503
 1991POPC   C3A29417  19.275  24.367   8.201
 1991POPC   C4A29418  19.253  24.339   7.754
 1991POPC   C1B29419  18.965  24.414   8.659
 1991POPC   C2B29420  18.798  24.580   8.270
 1991POPC   C3B29421  18.735  24.396   7.893
 1991POPC   C4B29422  18.790  24.123   7.560
 1992POPC   NC329423  38.679  32.785   9.448
 1992POPC   PO429424  38.132  33.210   9.478
 1992POPC   GL129425  38.270  32.892   9.150
 1992POPC   GL229426  38.515  33.134   9.044
 1992POPC   C1A29427  38.530  32.723   8.768
 1992POPC   D2A29428  38.378  32.724   8.336
 1992POPC   C3A29429  38.452  32.934   7.955
 1992POPC   C4A29430  38.228  32.925   7.559
 1992POPC   C1B29431  38.246  33.135   8.646
 1992POPC   C2B29432  38.131  33.256   8.185
 1992POPC   C3B29433  38.287  33.390   7.752
 1992POPC   C4B29434  38.575  33.243   7.383
 1993POPC   NC329435  27.287   9.416   9.493
 1993POPC   PO429436  27.882   9.573   9.561
 1993POPC   GL129437  27.655   9.600   9.201
 1993POPC   GL229438  27.761   9.931   9.149
 1993POPC   C1A29439  27.739   9.385   8.825
 1993POPC   D2A29440  27.929   9.471   8.437
 1993POPC   C3A29441  27.645   9.411   8.103
 1993POPC   C4A29442  27.591   9.665   7.730
 1993POPC   C1B29443  27.697  10.122   8.764
 1993POPC   C2B29444  27.829  10.240   8.362
 1993POPC   C3B29445  27.733  10.122   7.937
 1993POPC   C4B29446  27.885  10.178   7.521
 1994POPC   NC329447  14.954  34.158   9.865
 1994POPC   PO429448  15.112  34.567   9.338
 1994POPC   GL129449  15.285  34.723   9.038
 1994POPC   GL229450  15.613  34.837   9.114
 1994POPC   C1A29451  15.149  34.665   8.643
 1994POPC   D2A29452  15.278  34.318   8.419
 1994POPC   C3A29453  15.165  34.424   8.024
 1994POPC   C4A29454  15.290  34.270   7.647
 1994POPC   C1B29455  15.476  35.055   8.724
 1994POPC   C2B29456  15.222  35.175   8.426
 1994POPC   C3B29457  15.264  35.087   8.019
 1994POPC   C4B29458  15.231  34.810   7.679
 1995POPC   NC329459   3.195  27.308   9.394
 1995POPC   PO429460   2.710  27.698   9.359
 1995POPC   GL129461   2.846  27.452   9.080
 1995POPC   GL229462   2.622  27.174   9.189
 1995POPC   C1A29463   2.992  27.571   8.686
 1995POPC   D2A29464   3.182  27.514   8.289
 1995POPC   C3A29465   2.931  27.791   8.015
 1995POPC   C4A29466   2.654  27.996   7.721
 1995POPC   C1B29467   2.436  27.399   8.815
 1995POPC   C2B29468   2.554  27.568   8.401
 1995POPC   C3B29469   2.612  27.405   8.001
 1995POPC   C4B29470   2.453  27.245   7.614
 1996POPC   NC329471  10.801  11.001   9.533
 1996POPC   PO429472  10.319  11.466   9.518
 1996POPC   GL129473  10.576  11.344   9.194
 1996POPC   GL229474  10.430  10.987   9.177
 1996POPC   C1A29475  10.641  11.578   8.784
 1996POPC   D2A29476  10.461  11.746   8.394
 1996POPC   C3A29477  10.665  11.590   8.024
 1996POPC   C4A29478  10.530  11.514   7.609
 1996POPC   C1B29479  10.478  11.095   8.759
 1996POPC   C2B29480  10.575  11.219   8.370
 1996POPC   C3B29481  10.335  11.203   8.013
 1996POPC   C4B29482  10.396  11.008   7.647
 1997POPC   NC329483  40.866  42.078   9.331
 1997POPC   PO429484  40.873  41.397   9.447
 1997POPC   GL129485  40.623  41.620   9.195
 1997POPC   GL229486  40.340  41.385   9.216
 1997POPC   C1A29487  40.767  41.733   8.790
 1997POPC   D2A29488  40.525  41.899   8.496
 1997POPC   C3A29489  40.620  41.815   8.060
 1997POPC   C4A29490  40.889  41.516   7.810
 1997POPC   C1B29491  40.598  41.231   8.851
 1997POPC   C2B29492  40.640  41.379   8.433
 1997POPC   C3B29493  40.471  41.340   8.043
 1997POPC   C4B29494  40.549  41.139   7.660
 1998POPC   NC329495   1.185  38.672   9.507
 1998POPC   PO429496   1.721  38.308   9.523
 1998POPC   GL129497   1.442  38.406   9.175
 1998POPC   GL229498   1.543  38.741   9.125
 1998POPC   C1A29499   1.138  38.598   8.844
 1998POPC   D2A29500   0.843  38.698   8.503
 1998POPC   C3A29501   1.005  38.563   8.113
 1998POPC   C4A29502   1.087  38.295   7.773
 1998POPC   C1B29503   1.596  38.770   8.683
 1998POPC   C2B29504   1.554  38.519   8.325
 1998POPC   C3B29505   1.489  38.643   7.944
 1998POPC   C4B29506   1.246  38.731   7.594
 1999POPC   NC329507  19.218  32.467   9.481
 1999POPC   PO429508  18.572  32.097   9.484
 1999POPC   GL129509  18.863  32.210   9.126
 1999POPC   GL229510  19.171  32.066   9.097
 1999POPC   C1A29511  18.856  32.463   8.724
 1999POPC   D2A29512  18.741  32.647   8.319
 1999POPC   C3A29513  18.798  32.390   7.927
 1999POPC   C4A29514  18.769  32.232   7.450
 1999POPC   C1B29515  19.250  32.129   8.717
 1999POPC   C2B29516  19.121  32.256   8.319
 1999POPC   C3B29517  19.093  32.000   7.969
 1999POPC   C4B29518  19.239  32.112   7.574
 2000POPC   NC329519   2.620  15.453   9.557
 2000POPC   PO429520   3.107  14.935   9.452
 2000POPC   GL129521   2.927  15.259   9.180
 2000POPC   GL229522   3.103  15.549   9.269
 2000POPC   C1A29523   2.636  15.238   8.806
 2000POPC   D2A29524   2.727  14.920   8.465
 2000POPC   C3A29525   2.568  15.106   8.099
 2000POPC   C4A29526   2.455  14.921   7.709
 2000POPC   C1B29527   3.003  15.626   8.825
 2000POPC   C2B29528   2.925  15.421   8.421
 2000POPC   C3B29529   2.946  15.567   7.994
 2000POPC   C4B29530   2.667  15.431   7.713
 2001POPC   NC329531  18.296   9.490   9.616
 2001POPC   PO429532  18.845   9.903   9.531
 2001POPC   GL129533  18.615   9.861   9.136
 2001POPC   GL229534  18.267   9.778   9.165
 2001POPC   C1A29535  18.470   9.723   8.693
 2001POPC   D2A29536  18.459   9.909   8.265
 2001POPC   C3A29537  18.274   9.666   7.860
 2001POPC   C4A29538  18.344   9.634   7.370
 2001POPC   C1B29539  18.001   9.884   8.790
 2001POPC   C2B29540  17.995   9.730   8.346
 2001POPC   C3B29541  17.838   9.909   7.949
 2001POPC   C4B29542  17.878   9.810   7.507
 2002POPC   NC329543  20.369   4.604   9.890
 2002POPC   PO429544  20.566   4.132   9.413
 2002POPC   GL129545  20.838   4.235   9.045
 2002POPC   GL229546  20.962   3.948   8.941
 2002POPC   C1A29547  20.732   4.202   8.568
 2002POPC   D2A29548  20.374   4.340   8.322
 2002POPC   C3A29549  20.408   4.550   7.932
 2002POPC   C4A29550  20.553   4.405   7.546
 2002POPC   C1B29551  21.229   4.243   8.691
 2002POPC   C2B29552  21.138   4.358   8.272
 2002POPC   C3B29553  20.777   4.174   8.025
 2002POPC   C4B29554  20.609   3.919   7.668
 2003POPC   NC329555   3.990  14.273   9.535
 2003POPC   PO429556   4.592  14.585   9.494
 2003POPC   GL129557   4.387  14.332   9.186
 2003POPC   GL229558   4.671  14.402   9.016
 2003POPC   C1A29559   4.254  14.218   8.762
 2003POPC   D2A29560   4.343  14.352   8.336
 2003POPC   C3A29561   4.260  14.134   7.944
 2003POPC   C4A29562   4.282  14.569   7.802
 2003POPC   C1B29563   4.772  14.151   8.716
 2003POPC   C2B29564   4.874  14.367   8.350
 2003POPC   C3B29565   4.743  14.360   7.927
 2003POPC   C4B29566   4.717  14.691   7.581
 2004POPC   NC329567  43.153   6.842   9.341
 2004POPC   PO429568  43.204   6.284   9.667
 2004POPC   GL129569  43.048   6.358   9.203
 2004POPC   GL229570  42.703   6.484   9.112
 2004POPC   C1A29571  43.158   6.460   8.744
 2004POPC   D2A29572  43.302   6.700   8.352
 2004POPC   C3A29573  43.160   6.565   7.924
 2004POPC   C4A29574  43.135   6.710   7.476
 2004POPC   C1B29575  42.743   6.765   8.737
 2004POPC   C2B29576  42.772   6.649   8.308
 2004POPC   C3B29577  42.575   6.409   7.995
 2004POPC   C4B29578  42.753   6.431   7.631
 2005POPC   NC329579   1.576  44.549   9.542
 2005POPC   PO429580   2.208  44.765   9.558
 2005POPC   GL129581   1.998  44.587   9.230
 2005POPC   GL229582   1.805  44.856   9.143
 2005POPC   C1A29583   2.121  44.496   8.821
 2005POPC   D2A29584   1.931  44.649   8.469
 2005POPC   C3A29585   2.094  44.606   8.092
 2005POPC   C4A29586   2.206  44.389   7.734
 2005POPC   C1B29587   1.618  44.968   8.763
 2005POPC   C2B29588   1.472  44.857   8.373
 2005POPC   C3B29589   1.612  44.938   7.964
 2005POPC   C4B29590   1.430  44.841   7.567
 2006POPC   NC329591  17.028  31.817   9.361
 2006POPC   PO429592  16.442  32.075   9.358
 2006POPC   GL129593  16.758  32.129   9.060
 2006POPC   GL229594  16.856  32.459   9.024
 2006POPC   C1A29595  16.831  32.101   8.629
 2006POPC   D2A29596  16.805  32.368   8.280
 2006POPC   C3A29597  16.800  32.206   7.866
 2006POPC   C4A29598  17.025  31.878   7.656
 2006POPC   C1B29599  16.444  32.443   8.766
 2006POPC   C2B29600  16.276  32.365   8.366
 2006POPC   C3B29601  16.381  32.497   7.954
 2006POPC   C4B29602  16.568  32.534   7.531
 2007POPC   NC329603  10.246  10.087   9.309
 2007POPC   PO429604  10.672  10.556   9.599
 2007POPC   GL129605  10.574  10.467   9.211
 2007POPC   GL229606  10.827  10.199   9.168
 2007POPC   C1A29607  10.380  10.601   8.817
 2007POPC   D2A29608  10.216  10.537   8.412
 2007POPC   C3A29609  10.405  10.657   8.035
 2007POPC   C4A29610  10.221  10.535   7.633
 2007POPC   C1B29611  10.876  10.495   8.827
 2007POPC   C2B29612  10.755  10.689   8.450
 2007POPC   C3B29613  10.911  10.584   8.041
 2007POPC   C4B29614  10.710  10.418   7.690
 2008POPC   NC329615  28.611  26.523   9.630
 2008POPC   PO429616  28.355  25.959   9.604
 2008POPC   GL129617  28.447  26.006   9.165
 2008POPC   GL229618  28.676  26.264   9.203
 2008POPC   C1A29619  28.328  25.945   8.724
 2008POPC   D2A29620  28.312  26.126   8.307
 2008POPC   C3A29621  28.365  25.962   7.891
 2008POPC   C4A29622  28.456  25.565   7.681
 2008POPC   C1B29623  28.607  26.396   8.778
 2008POPC   C2B29624  28.712  26.429   8.373
 2008POPC   C3B29625  28.738  26.299   7.995
 2008POPC   C4B29626  28.623  26.352   7.571
 2009POPC   NC329627  35.292  37.024   9.476
 2009POPC   PO429628  34.993  36.589   9.117
 2009POPC   GL129629  35.451  36.781   9.055
 2009POPC   GL229630  35.500  37.146   9.029
 2009POPC   C1A29631  35.711  36.874   8.667
 2009POPC   D2A29632  35.490  36.821   8.276
 2009POPC   C3A29633  35.488  37.061   7.919
 2009POPC   C4A29634  35.567  36.840   7.589
 2009POPC   C1B29635  35.249  37.062   8.659
 2009POPC   C2B29636  35.229  37.304   8.284
 2009POPC   C3B29637  35.080  37.394   7.884
 2009POPC   C4B29638  35.121  37.311   7.444
 2010POPC   NC329639  27.885  43.398   9.500
 2010POPC   PO429640  28.269  44.016   9.388
 2010POPC   GL129641  28.287  43.625   9.189
 2010POPC   GL229642  27.963  43.677   9.078
 2010POPC   C1A29643  28.326  43.598   8.743
 2010POPC   D2A29644  28.381  43.894   8.421
 2010POPC   C3A29645  28.449  43.747   8.024
 2010POPC   C4A29646  28.571  43.948   7.656
 2010POPC   C1B29647  27.993  44.017   8.741
 2010POPC   C2B29648  27.987  44.223   8.304
 2010POPC   C3B29649  28.113  44.144   7.833
 2010POPC   C4B29650  28.167  44.103   7.354
 2011POPC   NC329651  20.021  24.650   9.738
 2011POPC   PO429652  19.345  24.649   9.757
 2011POPC   GL129653  19.592  24.518   9.358
 2011POPC   GL229654  19.845  24.726   9.245
 2011POPC   C1A29655  19.783  24.391   8.882
 2011POPC   D2A29656  19.738  24.296   8.437
 2011POPC   C3A29657  19.960  24.441   8.057
 2011POPC   C4A29658  19.920  24.271   7.635
 2011POPC   C1B29659  19.894  24.875   8.829
 2011POPC   C2B29660  19.876  24.793   8.412
 2011POPC   C3B29661  19.772  24.916   7.969
 2011POPC   C4B29662  19.501  24.794   7.625
 2012POPC   NC329663  22.693   6.939   9.367
 2012POPC   PO429664  23.103   6.502   9.699
 2012POPC   GL129665  23.186   6.595   9.239
 2012POPC   GL229666  23.182   6.276   9.088
 2012POPC   C1A29667  23.146   6.870   8.832
 2012POPC   D2A29668  23.063   6.793   8.369
 2012POPC   C3A29669  22.687   6.801   8.100
 2012POPC   C4A29670  22.474   6.703   7.736
 2012POPC   C1B29671  23.291   6.391   8.672
 2012POPC   C2B29672  23.152   6.295   8.250
 2012POPC   C3B29673  23.160   6.412   7.810
 2012POPC   C4B29674  23.483   6.272   7.542
 2013POPC   NC329675  24.010  17.388   9.601
 2013POPC   PO429676  23.809  17.954   9.251
 2013POPC   GL129677  23.972  17.553   9.112
 2013POPC   GL229678  23.724  17.333   9.150
 2013POPC   C1A29679  23.998  17.327   8.709
 2013POPC   D2A29680  23.708  17.180   8.367
 2013POPC   C3A29681  23.753  17.433   7.994
 2013POPC   C4A29682  24.041  17.391   7.667
 2013POPC   C1B29683  23.507  17.443   8.780
 2013POPC   C2B29684  23.459  17.637   8.368
 2013POPC   C3B29685  23.279  17.614   7.938
 2013POPC   C4B29686  23.259  17.508   7.504
 2014POPC   NC329687  15.128   9.942   9.642
 2014POPC   PO429688  15.520   9.530   9.518
 2014POPC   GL129689  15.178   9.652   9.185
 2014POPC   GL229690  15.024  10.026   9.157
 2014POPC   C1A29691  15.008   9.734   8.748
 2014POPC   D2A29692  14.893  10.017   8.391
 2014POPC   C3A29693  15.100   9.877   7.977
 2014POPC   C4A29694  15.375   9.517   7.862
 2014POPC   C1B29695  15.408  10.045   8.911
 2014POPC   C2B29696  15.606  10.125   8.502
 2014POPC   C3B29697  15.637  10.023   8.055
 2014POPC   C4B29698  15.581   9.910   7.629
 2015POPC   NC329699  34.053  39.353   9.495
 2015POPC   PO429700  33.489  39.156   9.643
 2015POPC   GL129701  33.656  39.191   9.234
 2015POPC   GL229702  33.454  39.495   9.193
 2015POPC   C1A29703  33.883  39.124   8.825
 2015POPC   D2A29704  33.774  38.856   8.474
 2015POPC   C3A29705  33.959  38.988   8.070
 2015POPC   C4A29706  33.835  38.812   7.666
 2015POPC   C1B29707  33.646  39.588   8.781
 2015POPC   C2B29708  33.698  39.421   8.337
 2015POPC   C3B29709  33.564  39.502   7.888
 2015POPC   C4B29710  33.587  39.521   7.413
 2016POPC   NC329711   4.767  14.096   9.430
 2016POPC   PO429712   5.411  14.326   9.478
 2016POPC   GL129713   5.175  14.176   9.124
 2016POPC   GL229714   5.324  13.881   8.961
 2016POPC   C1A29715   5.183  14.473   8.792
 2016POPC   D2A29716   5.476  14.512   8.445
 2016POPC   C3A29717   5.324  14.348   8.083
 2016POPC   C4A29718   5.175  14.455   7.674
 2016POPC   C1B29719   5.243  14.031   8.547
 2016POPC   C2B29720   5.025  13.918   8.158
 2016POPC   C3B29721   5.175  13.965   7.764
 2016POPC   C4B29722   5.567  14.117   7.680
 2017POPC   NC329723   1.713  30.914   9.517
 2017POPC   PO429724   2.336  30.643   9.550
 2017POPC   GL129725   2.175  30.516   9.172
 2017POPC   GL229726   1.813  30.536   9.174
 2017POPC   C1A29727   2.226  30.745   8.820
 2017POPC   D2A29728   2.308  30.654   8.419
 2017POPC   C3A29729   2.151  30.553   8.031
 2017POPC   C4A29730   2.209  30.800   7.652
 2017POPC   C1B29731   1.720  30.736   8.777
 2017POPC   C2B29732   1.836  30.829   8.343
 2017POPC   C3B29733   1.754  30.913   7.895
 2017POPC   C4B29734   1.780  30.914   7.427
 2018POPC   NC329735   3.614  32.791   9.477
 2018POPC   PO429736   3.110  33.306   9.496
 2018POPC   GL129737   3.339  33.083   9.165
 2018POPC   GL229738   3.736  33.158   9.121
 2018POPC   C1A29739   3.416  32.954   8.748
 2018POPC   D2A29740   3.294  33.173   8.395
 2018POPC   C3A29741   3.319  32.968   8.009
 2018POPC   C4A29742   3.361  33.188   7.634
 2018POPC   C1B29743   3.934  32.971   8.733
 2018POPC   C2B29744   3.799  32.983   8.292
 2018POPC   C3B29745   3.820  33.085   7.849
 2018POPC   C4B29746   3.757  32.902   7.446
 2019POPC   NC329747   6.613  33.964   9.805
 2019POPC   PO429748   6.555  33.274   9.643
 2019POPC   GL129749   6.675  33.604   9.273
 2019POPC   GL229750   6.435  33.789   9.195
 2019POPC   C1A29751   6.815  33.882   8.872
 2019POPC   D2A29752   6.769  33.639   8.465
 2019POPC   C3A29753   6.801  33.810   8.065
 2019POPC   C4A29754   6.811  33.552   7.699
 2019POPC   C1B29755   6.360  33.657   8.771
 2019POPC   C2B29756   6.360  33.898   8.377
 2019POPC   C3B29757   6.256  34.025   7.991
 2019POPC   C4B29758   6.509  33.964   7.653
 2020POPC   NC329759   9.949   0.074   9.517
 2020POPC   PO429760   9.911   0.785   9.703
 2020POPC   GL129761   9.903   0.497   9.285
 2020POPC   GL229762   9.625   0.434   9.101
 2020POPC   C1A29763  10.020   0.495   8.817
 2020POPC   D2A29764   9.864   0.474   8.396
 2020POPC   C3A29765   9.766   0.818   8.136
 2020POPC   C4A29766   9.830   0.678   7.724
 2020POPC   C1B29767   9.626   0.175   8.742
 2020POPC   C2B29768   9.546   0.039   8.332
 2020POPC   C3B29769   9.676   0.220   7.944
 2020POPC   C4B29770  10.112   0.208   7.775
 2021POPC   NC329771  24.525  36.557   9.470
 2021POPC   PO429772  24.092  37.148   9.562
 2021POPC   GL129773  24.371  37.036   9.234
 2021POPC   GL229774  24.296  36.743   9.077
 2021POPC   C1A29775  24.547  37.218   8.861
 2021POPC   D2A29776  24.487  37.281   8.415
 2021POPC   C3A29777  24.690  37.021   8.101
 2021POPC   C4A29778  24.648  36.951   7.638
 2021POPC   C1B29779  24.499  36.746   8.679
 2021POPC   C2B29780  24.718  36.549   8.336
 2021POPC   C3B29781  24.509  36.552   7.946
 2021POPC   C4B29782  24.200  36.910   7.886
 2022POPC   NC329783  13.589  15.456   9.462
 2022POPC   PO429784  14.091  15.132   9.288
 2022POPC   GL129785  13.798  15.269   9.039
 2022POPC   GL229786  13.521  15.039   8.985
 2022POPC   C1A29787  13.801  15.347   8.642
 2022POPC   D2A29788  13.578  15.549   8.393
 2022POPC   C3A29789  13.631  15.367   8.019
 2022POPC   C4A29790  13.566  15.539   7.647
 2022POPC   C1B29791  13.836  14.842   8.708
 2022POPC   C2B29792  13.749  14.911   8.276
 2022POPC   C3B29793  13.384  14.909   7.989
 2022POPC   C4B29794  13.485  15.027   7.579
 2023POPC   NC329795  31.653  19.557   9.471
 2023POPC   PO429796  31.115  19.178   9.409
 2023POPC   GL129797  31.251  18.980   9.046
 2023POPC   GL229798  31.478  19.282   9.003
 2023POPC   C1A29799  31.259  18.941   8.587
 2023POPC   D2A29800  31.462  19.143   8.219
 2023POPC   C3A29801  31.415  18.950   7.817
 2023POPC   C4A29802  31.158  19.064   7.439
 2023POPC   C1B29803  31.738  19.123   8.654
 2023POPC   C2B29804  31.968  19.054   8.265
 2023POPC   C3B29805  31.834  19.263   7.867
 2023POPC   C4B29806  31.662  19.235   7.470
 2024POPC   NC329807   2.418   4.855   9.425
 2024POPC   PO429808   2.024   5.215   9.750
 2024POPC   GL129809   2.110   5.237   9.255
 2024POPC   GL229810   1.886   5.414   9.035
 2024POPC   C1A29811   2.195   5.071   8.811
 2024POPC   D2A29812   2.193   5.242   8.372
 2024POPC   C3A29813   2.194   4.881   8.067
 2024POPC   C4A29814   1.820   4.828   7.778
 2024POPC   C1B29815   1.721   5.208   8.658
 2024POPC   C2B29816   1.728   5.060   8.243
 2024POPC   C3B29817   1.973   5.296   7.910
 2024POPC   C4B29818   1.911   5.297   7.510
 2025POPC   NC329819   0.266   0.388   9.360
 2025POPC   PO429820   0.932   0.467   9.304
 2025POPC   GL129821   0.670   0.384   9.013
 2025POPC   GL229822   0.527   0.691   9.058
 2025POPC   C1A29823   0.592   0.400   8.577
 2025POPC   D2A29824   0.644   0.203   8.174
 2025POPC   C3A29825   0.253   0.211   7.949
 2025POPC   C4A29826   0.250   0.353   7.524
 2025POPC   C1B29827   0.508   0.907   8.703
 2025POPC   C2B29828   0.414   0.859   8.284
 2025POPC   C3B29829   0.546   0.638   7.879
 2025POPC   C4B29830   0.577   0.735   7.432
 2026POPC   NC329831  23.385  10.802   9.485
 2026POPC   PO429832  24.002  10.555   9.629
 2026POPC   GL129833  23.768  10.587   9.253
 2026POPC   GL229834  23.836  10.291   9.183
 2026POPC   C1A29835  23.575  10.526   8.822
 2026POPC   D2A29836  23.759  10.452   8.417
 2026POPC   C3A29837  23.570  10.387   8.042
 2026POPC   C4A29838  23.547  10.756   7.783
 2026POPC   C1B29839  24.045  10.257   8.776
 2026POPC   C2B29840  24.068  10.040   8.370
 2026POPC   C3B29841  24.070  10.212   7.982
 2026POPC   C4B29842  23.893  10.399   7.651
 2027POPC   NC329843   1.161   8.655   9.296
 2027POPC   PO429844   0.991   8.067   9.507
 2027POPC   GL129845   0.964   8.117   9.063
 2027POPC   GL229846   1.303   8.206   9.004
 2027POPC   C1A29847   1.090   8.026   8.593
 2027POPC   D2A29848   1.288   7.996   8.185
 2027POPC   C3A29849   1.072   8.241   7.886
 2027POPC   C4A29850   0.947   8.275   7.449
 2027POPC   C1B29851   1.592   8.150   8.625
 2027POPC   C2B29852   1.828   8.099   8.240
 2027POPC   C3B29853   1.624   8.285   7.870
 2027POPC   C4B29854   1.415   8.067   7.545
 2028POPC   NC329855  17.240  40.824   9.479
 2028POPC   PO429856  17.885  41.089   9.527
 2028POPC   GL129857  17.733  40.944   9.104
 2028POPC   GL229858  17.447  40.720   9.044
 2028POPC   C1A29859  17.745  40.824   8.644
 2028POPC   D2A29860  17.760  40.613   8.249
 2028POPC   C3A29861  17.734  40.921   7.914
 2028POPC   C4A29862  17.636  40.888   7.451
 2028POPC   C1B29863  17.148  40.744   8.757
 2028POPC   C2B29864  17.057  40.547   8.404
 2028POPC   C3B29865  17.271  40.593   8.033
 2028POPC   C4B29866  17.157  40.845   7.708
 2029POPC   NC329867  29.805  33.985   9.633
 2029POPC   PO429868  30.282  33.635   9.448
 2029POPC   GL129869  30.104  33.872   9.130
 2029POPC   GL229870  29.759  33.978   9.122
 2029POPC   C1A29871  30.221  33.807   8.718
 2029POPC   D2A29872  29.967  33.847   8.380
 2029POPC   C3A29873  30.176  33.802   8.026
 2029POPC   C4A29874  29.853  33.849   7.754
 2029POPC   C1B29875  29.779  33.588   8.849
 2029POPC   C2B29876  30.017  33.365   8.495
 2029POPC   C3B29877  29.878  33.385   8.051
 2029POPC   C4B29878  29.926  33.183   7.629
 2030POPC   NC329879  12.735  38.613   9.448
 2030POPC   PO429880  13.394  38.559   9.247
 2030POPC   GL129881  12.984  38.661   9.022
 2030POPC   GL229882  12.670  38.361   9.023
 2030POPC   C1A29883  12.734  38.684   8.651
 2030POPC   D2A29884  12.571  38.328   8.474
 2030POPC   C3A29885  12.710  38.258   8.066
 2030POPC   C4A29886  12.758  38.568   7.768
 2030POPC   C1B29887  13.011  38.220   8.794
 2030POPC   C2B29888  13.121  38.117   8.427
 2030POPC   C3B29889  13.287  38.150   8.054
 2030POPC   C4B29890  13.106  38.193   7.641
 2031POPC   NC329891  34.383   6.754   9.594
 2031POPC   PO429892  34.895   6.400   9.819
 2031POPC   GL129893  34.847   6.545   9.328
 2031POPC   GL229894  34.634   6.850   9.166
 2031POPC   C1A29895  34.838   6.541   8.832
 2031POPC   D2A29896  34.919   6.533   8.348
 2031POPC   C3A29897  34.632   6.475   7.978
 2031POPC   C4A29898  34.710   6.378   7.541
 2031POPC   C1B29899  34.530   6.938   8.690
 2031POPC   C2B29900  34.537   6.916   8.221
 2031POPC   C3B29901  34.676   7.031   7.779
 2031POPC   C4B29902  34.551   7.154   7.329
 2032POPC   NC329903  26.698  23.540   9.405
 2032POPC   PO429904  27.228  24.001   9.494
 2032POPC   GL129905  26.921  23.939   9.109
 2032POPC   GL229906  26.553  23.959   9.147
 2032POPC   C1A29907  26.752  23.626   8.779
 2032POPC   D2A29908  26.905  23.408   8.423
 2032POPC   C3A29909  26.683  23.301   8.048
 2032POPC   C4A29910  26.995  23.375   7.709
 2032POPC   C1B29911  26.396  24.000   8.754
 2032POPC   C2B29912  26.631  23.926   8.386
 2032POPC   C3B29913  26.753  23.808   7.985
 2032POPC   C4B29914  26.764  24.037   7.605
 2033POPC   NC329915  44.675  29.624   9.578
 2033POPC   PO429916  44.923  30.267   9.645
 2033POPC   GL129917  44.918  29.977   9.288
 2033POPC   GL229918  44.579  29.964   9.113
 2033POPC   C1A29919   0.016  29.811   8.881
 2033POPC   D2A29920  44.922  29.625   8.483
 2033POPC   C3A29921  44.788  29.902   8.160
 2033POPC   C4A29922  44.900  29.857   7.732
 2033POPC   C1B29923  44.344  30.239   8.806
 2033POPC   C2B29924  44.124  30.236   8.393
 2033POPC   C3B29925  44.221  30.377   7.975
 2033POPC   C4B29926  44.314  30.443   7.559
 2034POPC   NC329927  24.792  23.278   9.338
 2034POPC   PO429928  24.632  23.904   9.566
 2034POPC   GL129929  24.522  23.940   9.161
 2034POPC   GL229930  24.201  24.035   9.130
 2034POPC   C1A29931  24.440  23.760   8.756
 2034POPC   D2A29932  24.266  23.634   8.367
 2034POPC   C3A29933  24.460  23.719   7.980
 2034POPC   C4A29934  24.336  23.519   7.601
 2034POPC   C1B29935  24.055  24.248   8.827
 2034POPC   C2B29936  24.020  24.062   8.473
 2034POPC   C3B29937  24.148  24.139   8.084
 2034POPC   C4B29938  24.204  24.030   7.655
 2035POPC   NC329939   1.467  13.310   9.674
 2035POPC   PO429940   1.105  13.830   9.520
 2035POPC   GL129941   1.098  13.582   9.152
 2035POPC   GL229942   1.384  13.363   9.175
 2035POPC   C1A29943   1.280  13.752   8.761
 2035POPC   D2A29944   1.390  14.025   8.398
 2035POPC   C3A29945   1.190  13.872   8.032
 2035POPC   C4A29946   1.481  13.814   7.702
 2035POPC   C1B29947   1.334  13.240   8.758
 2035POPC   C2B29948   1.180  13.400   8.344
 2035POPC   C3B29949   1.399  13.378   7.950
 2035POPC   C4B29950   1.285  13.192   7.551
 2036POPC   NC329951   3.492  17.870   9.913
 2036POPC   PO429952   3.616  17.348   9.517
 2036POPC   GL129953   3.595  17.179   9.125
 2036POPC   GL229954   3.273  17.223   9.096
 2036POPC   C1A29955   3.589  17.347   8.701
 2036POPC   D2A29956   3.880  17.580   8.433
 2036POPC   C3A29957   3.713  17.621   8.038
 2036POPC   C4A29958   3.728  17.520   7.621
 2036POPC   C1B29959   3.039  17.286   8.714
 2036POPC   C2B29960   3.194  17.426   8.294
 2036POPC   C3B29961   3.342  17.291   7.882
 2036POPC   C4B29962   3.303  17.322   7.420
 2037POPC   NC329963  17.574   2.718   9.560
 2037POPC   PO429964  18.253   2.545   9.505
 2037POPC   GL129965  18.351   2.531   9.076
 2037POPC   GL229966  18.367   2.910   9.053
 2037POPC   C1A29967  18.507   2.628   8.661
 2037POPC   D2A29968  18.462   2.902   8.304
 2037POPC   C3A29969  18.386   2.769   7.863
 2037POPC   C4A29970  18.450   3.085   7.503
 2037POPC   C1B29971  18.072   2.883   8.698
 2037POPC   C2B29972  17.966   2.730   8.277
 2037POPC   C3B29973  17.883   2.883   7.827
 2037POPC   C4B29974  17.982   2.897   7.367
 2038POPC   NC329975  19.270  34.773   9.812
 2038POPC   PO429976  18.723  34.454   9.595
 2038POPC   GL129977  18.891  34.435   9.214
 2038POPC   GL229978  18.674  34.702   9.041
 2038POPC   C1A29979  19.034  34.400   8.816
 2038POPC   D2A29980  18.947  34.518   8.415
 2038POPC   C3A29981  19.232  34.363   8.132
 2038POPC   C4A29982  19.202  34.294   7.685
 2038POPC   C1B29983  18.891  34.956   8.712
 2038POPC   C2B29984  18.829  34.999   8.260
 2038POPC   C3B29985  18.987  34.765   7.888
 2038POPC   C4B29986  18.944  34.922   7.449
 2039POPC   NC329987  30.004  10.268   9.402
 2039POPC   PO429988  29.586  10.729   9.700
 2039POPC   GL129989  29.494  10.620   9.244
 2039POPC   GL229990  29.817  10.643   9.115
 2039POPC   C1A29991  29.463  10.768   8.781
 2039POPC   D2A29992  29.809  10.745   8.482
 2039POPC   C3A29993  29.800  10.595   8.049
 2039POPC   C4A29994  29.531  10.739   7.714
 2039POPC   C1B29995  29.724  10.326   8.801
 2039POPC   C2B29996  30.027  10.279   8.488
 2039POPC   C3B29997  30.155  10.221   8.104
 2039POPC   C4B29998  30.195  10.389   7.706
 2040POPC   NC329999  40.764   6.164   9.519
 2040POPC   PO430000  40.778   5.570   9.312
 2040POPC   GL130001  40.790   5.931   9.056
 2040POPC   GL230002  40.470   6.100   9.115
 2040POPC   C1A30003  40.851   6.031   8.642
 2040POPC   D2A30004  40.603   5.919   8.296
 2040POPC   C3A30005  40.811   6.049   7.972
 2040POPC   C4A30006  41.084   6.311   7.855
 2040POPC   C1B30007  40.369   6.164   8.729
 2040POPC   C2B30008  40.301   6.326   8.358
 2040POPC   C3B30009  40.326   6.163   7.936
 2040POPC   C4B30010  40.345   6.112   7.516
 2041POPC   NC330011  37.247  37.279   9.488
 2041POPC   PO430012  36.646  36.959   9.573
 2041POPC   GL130013  36.709  36.823   9.161
 2041POPC   GL230014  36.927  37.089   9.107
 2041POPC   C1A30015  36.652  36.868   8.729
 2041POPC   D2A30016  36.775  37.116   8.368
 2041POPC   C3A30017  36.865  36.796   8.081
 2041POPC   C4A30018  36.817  36.774   7.666
 2041POPC   C1B30019  37.158  37.049   8.702
 2041POPC   C2B30020  37.299  36.966   8.259
 2041POPC   C3B30021  37.308  36.955   7.796
 2041POPC   C4B30022  37.571  36.991   7.397
 2042POPC   NC330023  10.693  11.801   9.566
 2042POPC   PO430024  10.086  12.132   9.659
 2042POPC   GL130025  10.360  12.118   9.317
 2042POPC   GL230026  10.342  12.453   9.186
 2042POPC   C1A30027  10.427  12.041   8.865
 2042POPC   D2A30028  10.745  12.162   8.554
 2042POPC   C3A30029  10.730  12.094   8.129
 2042POPC   C4A30030  10.510  11.993   7.771
 2042POPC   C1B30031  10.227  12.502   8.752
 2042POPC   C2B30032  10.338  12.391   8.328
 2042POPC   C3B30033  10.383  12.460   7.883
 2042POPC   C4B30034  10.491  12.358   7.399
 2043POPC   NC330035  22.082  19.159   9.715
 2043POPC   PO430036  22.575  18.912   9.608
 2043POPC   GL130037  22.350  19.030   9.206
 2043POPC   GL230038  21.982  18.989   9.190
 2043POPC   C1A30039  22.333  19.128   8.725
 2043POPC   D2A30040  22.198  18.929   8.310
 2043POPC   C3A30041  22.117  19.109   7.888
 2043POPC   C4A30042  22.282  18.961   7.485
 2043POPC   C1B30043  21.844  18.974   8.722
 2043POPC   C2B30044  21.703  19.068   8.273
 2043POPC   C3B30045  21.622  19.262   7.866
 2043POPC   C4B30046  21.895  19.423   7.542
 2044POPC   NC330047  27.733  27.794   9.552
 2044POPC   PO430048  27.620  27.147   9.486
 2044POPC   GL130049  27.836  27.291   9.108
 2044POPC   GL230050  27.877  27.637   9.048
 2044POPC   C1A30051  27.714  27.324   8.656
 2044POPC   D2A30052  27.915  27.448   8.277
 2044POPC   C3A30053  27.652  27.555   7.939
 2044POPC   C4A30054  27.198  27.444   7.839
 2044POPC   C1B30055  27.615  27.834   8.675
 2044POPC   C2B30056  27.352  27.906   8.260
 2044POPC   C3B30057  27.355  27.939   7.779
 2044POPC   C4B30058  27.648  27.819   7.448
 2045POPC   NC330059  12.665  19.127   9.600
 2045POPC   PO430060  13.349  19.015   9.536
 2045POPC   GL130061  12.990  19.088   9.213
 2045POPC   GL230062  12.790  18.819   9.213
 2045POPC   C1A30063  12.804  19.270   8.818
 2045POPC   D2A30064  12.634  19.471   8.432
 2045POPC   C3A30065  12.845  19.292   8.051
 2045POPC   C4A30066  12.655  19.229   7.647
 2045POPC   C1B30067  12.565  18.835   8.801
 2045POPC   C2B30068  12.644  18.963   8.387
 2045POPC   C3B30069  12.679  18.810   7.936
 2045POPC   C4B30070  12.666  18.730   7.474
 2046POPC   NC330071  14.868  14.150   9.466
 2046POPC   PO430072  15.068  13.572   9.575
 2046POPC   GL130073  15.090  13.513   9.119
 2046POPC   GL230074  15.167  13.855   9.107
 2046POPC   C1A30075  15.250  13.467   8.696
 2046POPC   D2A30076  15.150  13.287   8.273
 2046POPC   C3A30077  15.410  13.316   7.884
 2046POPC   C4A30078  15.189  13.496   7.548
 2046POPC   C1B30079  14.904  13.984   8.766
 2046POPC   C2B30080  14.941  13.768   8.388
 2046POPC   C3B30081  15.139  13.749   8.011
 2046POPC   C4B30082  15.065  13.964   7.653
 2047POPC   NC330083  21.893   1.037   9.707
 2047POPC   PO430084  22.247   1.504   9.468
 2047POPC   GL130085  22.206   1.092   9.277
 2047POPC   GL230086  21.867   1.047   9.149
 2047POPC   C1A30087  22.272   0.934   8.852
 2047POPC   D2A30088  22.112   1.023   8.433
 2047POPC   C3A30089  22.187   1.257   8.071
 2047POPC   C4A30090  22.389   1.132   7.722
 2047POPC   C1B30091  21.783   0.766   8.753
 2047POPC   C2B30092  21.684   0.815   8.303
 2047POPC   C3B30093  21.764   1.010   7.871
 2047POPC   C4B30094  21.758   0.905   7.386
 2048POPC   NC330095  40.895  10.042   9.514
 2048POPC   PO430096  40.549   9.470   9.466
 2048POPC   GL130097  40.592   9.821   9.161
 2048POPC   GL230098  40.938   9.714   9.131
 2048POPC   C1A30099  40.661   9.762   8.711
 2048POPC   D2A30100  40.799   9.424   8.436
 2048POPC   C3A30101  40.738   9.573   8.044
 2048POPC   C4A30102  40.844   9.902   7.815
 2048POPC   C1B30103  41.163   9.651   8.767
 2048POPC   C2B30104  41.114   9.812   8.336
 2048POPC   C3B30105  41.274   9.689   7.924
 2048POPC   C4B30106  41.496   9.876   7.576
 2049POPC   NC330107   5.507  13.877   9.431
 2049POPC   PO430108   5.811  13.259   9.393
 2049POPC   GL130109   5.613  13.437   9.086
 2049POPC   GL230110   5.521  13.099   8.966
 2049POPC   C1A30111   5.753  13.703   8.742
 2049POPC   D2A30112   5.615  13.777   8.326
 2049POPC   C3A30113   5.964  13.711   8.109
 2049POPC   C4A30114   5.993  13.864   7.728
 2049POPC   C1B30115   5.836  13.066   8.656
 2049POPC   C2B30116   6.074  13.090   8.268
 2049POPC   C3B30117   5.901  13.258   7.875
 2049POPC   C4B30118   5.548  13.584   7.824
 2050POPC   NC330119  22.515  13.829   9.336
 2050POPC   PO430120  22.236  14.431   9.332
 2050POPC   GL130121  21.991  14.279   9.038
 2050POPC   GL230122  21.961  13.938   9.188
 2050POPC   C1A30123  21.939  14.479   8.653
 2050POPC   D2A30124  22.268  14.561   8.394
 2050POPC   C3A30125  22.097  14.594   8.038
 2050POPC   C4A30126  22.265  14.607   7.690
 2050POPC   C1B30127  21.870  13.829   8.772
 2050POPC   C2B30128  21.780  14.043   8.387
 2050POPC   C3B30129  21.815  13.941   7.974
 2050POPC   C4B30130  22.141  14.095   7.708
 2051POPC   NC330131  11.760   9.693   9.497
 2051POPC   PO430132  12.387  10.061   9.431
 2051POPC   GL130133  12.103   9.868   9.147
 2051POPC   GL230134  11.787  10.091   9.178
 2051POPC   C1A30135  12.215   9.789   8.709
 2051POPC   D2A30136  12.195  10.055   8.333
 2051POPC   C3A30137  12.240   9.872   7.929
 2051POPC   C4A30138  11.876   9.660   7.763
 2051POPC   C1B30139  11.812  10.095   8.738
 2051POPC   C2B30140  11.652   9.977   8.337
 2051POPC   C3B30141  11.788  10.118   7.954
 2051POPC   C4B30142  11.921  10.114   7.528
 2052POPC   NC330143   4.211  28.779   9.540
 2052POPC   PO430144   4.379  28.127   9.472
 2052POPC   GL130145   4.345  28.469   9.172
 2052POPC   GL230146   4.660  28.679   9.318
 2052POPC   C1A30147   4.205  28.566   8.729
 2052POPC   D2A30148   4.221  28.209   8.448
 2052POPC   C3A30149   4.176  28.304   8.016
 2052POPC   C4A30150   4.423  28.350   7.671
 2052POPC   C1B30151   4.607  28.794   8.901
 2052POPC   C2B30152   4.674  28.648   8.492
 2052POPC   C3B30153   4.536  28.672   8.089
 2052POPC   C4B30154   4.683  28.784   7.698
 2053POPC   NC330155  32.520   2.346   9.585
 2053POPC   PO430156  32.191   1.807   9.593
 2053POPC   GL130157  32.372   1.999   9.232
 2053POPC   GL230158  32.136   2.287   9.226
 2053POPC   C1A30159  32.542   1.876   8.831
 2053POPC   D2A30160  32.364   1.764   8.434
 2053POPC   C3A30161  32.183   2.011   8.110
 2053POPC   C4A30162  32.252   1.759   7.747
 2053POPC   C1B30163  32.470   2.387   8.921
 2053POPC   C2B30164  32.441   2.350   8.486
 2053POPC   C3B30165  32.358   2.508   8.088
 2053POPC   C4B30166  32.392   2.268   7.724
 2054POPC   NC330167  24.591  15.869   9.619
 2054POPC   PO430168  24.298  16.270   9.188
 2054POPC   GL130169  24.198  15.893   9.023
 2054POPC   GL230170  24.465  15.653   9.116
 2054POPC   C1A30171  24.215  15.961   8.581
 2054POPC   D2A30172  24.645  16.195   8.428
 2054POPC   C3A30173  24.658  16.326   7.986
 2054POPC   C4A30174  24.426  16.103   7.681
 2054POPC   C1B30175  24.635  15.723   8.688
 2054POPC   C2B30176  24.508  15.755   8.221
 2054POPC   C3B30177  24.801  15.805   7.903
 2054POPC   C4B30178  24.797  15.555   7.570
 2055POPC   NC330179  20.293  13.013   9.420
 2055POPC   PO430180  20.765  12.663   9.729
 2055POPC   GL130181  20.722  12.665   9.256
 2055POPC   GL230182  20.375  12.562   9.189
 2055POPC   C1A30183  20.684  12.904   8.842
 2055POPC   D2A30184  20.960  12.939   8.453
 2055POPC   C3A30185  20.979  13.189   8.036
 2055POPC   C4A30186  20.689  13.194   7.699
 2055POPC   C1B30187  20.483  12.373   8.821
 2055POPC   C2B30188  20.577  12.573   8.453
 2055POPC   C3B30189  20.608  12.812   8.080
 2055POPC   C4B30190  20.534  12.706   7.662
 2056POPC   NC330191   0.617   4.029   9.531
 2056POPC   PO430192   0.374   4.660   9.549
 2056POPC   GL130193   0.332   4.372   9.209
 2056POPC   GL230194   0.110   4.110   9.337
 2056POPC   C1A30195   0.489   4.314   8.756
 2056POPC   D2A30196   0.356   4.557   8.402
 2056POPC   C3A30197   0.400   4.406   7.978
 2056POPC   C4A30198   0.361   4.355   7.543
 2056POPC   C1B30199   0.058   4.066   8.866
 2056POPC   C2B30200   0.173   4.066   8.392
 2056POPC   C3B30201   0.300   3.918   7.935
 2056POPC   C4B30202   0.639   3.945   7.616
 2057POPC   NC330203  38.251  31.934   9.474
 2057POPC   PO430204  37.442  31.984   9.423
 2057POPC   GL130205  37.612  32.090   9.060
 2057POPC   GL230206  37.922  31.941   9.097
 2057POPC   C1A30207  37.633  32.395   8.766
 2057POPC   D2A30208  37.723  32.405   8.346
 2057POPC   C3A30209  37.395  32.333   8.087
 2057POPC   C4A30210  37.567  32.497   7.728
 2057POPC   C1B30211  37.966  31.981   8.680
 2057POPC   C2B30212  37.776  31.905   8.287
 2057POPC   C3B30213  37.876  32.107   7.912
 2057POPC   C4B30214  37.879  31.860   7.557
 2058POPC   NC330215  13.732  11.827   9.463
 2058POPC   PO430216  13.851  12.392   9.678
 2058POPC   GL130217  13.746  12.231   9.178
 2058POPC   GL230218  13.427  12.189   8.986
 2058POPC   C1A30219  13.760  11.894   8.753
 2058POPC   D2A30220  13.578  11.783   8.324
 2058POPC   C3A30221  13.749  11.837   7.868
 2058POPC   C4A30222  13.768  11.834   7.384
 2058POPC   C1B30223  13.796  12.380   8.713
 2058POPC   C2B30224  13.800  12.256   8.265
 2058POPC   C3B30225  13.427  12.210   8.026
 2058POPC   C4B30226  13.228  12.566   7.833
 2059POPC   NC330227  22.612  13.271   9.779
 2059POPC   PO430228  22.943  13.749   9.519
 2059POPC   GL130229  22.989  13.678   9.117
 2059POPC   GL230230  22.822  13.362   9.159
 2059POPC   C1A30231  22.717  13.625   8.732
 2059POPC   D2A30232  22.601  13.717   8.305
 2059POPC   C3A30233  22.956  13.634   8.001
 2059POPC   C4A30234  23.002  13.406   7.603
 2059POPC   C1B30235  23.135  13.326   8.796
 2059POPC   C2B30236  23.252  13.445   8.396
 2059POPC   C3B30237  23.204  13.176   8.030
 2059POPC   C4B30238  23.459  13.132   7.658
 2060POPC   NC330239   4.485  32.452   9.397
 2060POPC   PO430240   4.291  31.831   9.521
 2060POPC   GL130241   4.427  32.004   9.159
 2060POPC   GL230242   4.121  32.197   9.132
 2060POPC   C1A30243   4.509  32.154   8.754
 2060POPC   D2A30244   4.653  32.121   8.328
 2060POPC   C3A30245   4.371  32.211   7.932
 2060POPC   C4A30246   4.564  31.945   7.557
 2060POPC   C1B30247   4.086  32.473   8.783
 2060POPC   C2B30248   4.013  32.517   8.347
 2060POPC   C3B30249   3.854  32.589   7.925
 2060POPC   C4B30250   4.099  32.540   7.595
 2061POPC   NC330251  14.470  35.835   9.312
 2061POPC   PO430252  14.852  36.386   9.391
 2061POPC   GL130253  14.524  36.274   9.081
 2061POPC   GL230254  14.204  36.454   9.118
 2061POPC   C1A30255  14.490  36.026   8.700
 2061POPC   D2A30256  14.613  35.820   8.327
 2061POPC   C3A30257  14.516  36.030   7.950
 2061POPC   C4A30258  14.778  36.219   7.682
 2061POPC   C1B30259  14.069  36.349   8.698
 2061POPC   C2B30260  14.007  36.541   8.318
 2061POPC   C3B30261  13.956  36.397   7.916
 2061POPC   C4B30262  14.229  36.261   7.583
 2062POPC   NC330263  10.568  39.502   9.610
 2062POPC   PO430264  10.353  40.129   9.547
 2062POPC   GL130265  10.438  39.871   9.233
 2062POPC   GL230266  10.716  39.975   9.108
 2062POPC   C1A30267  10.339  39.982   8.786
 2062POPC   D2A30268  10.331  39.727   8.445
 2062POPC   C3A30269  10.353  39.993   8.130
 2062POPC   C4A30270  10.311  39.938   7.724
 2062POPC   C1B30271  10.976  39.784   8.807
 2062POPC   C2B30272  10.837  39.880   8.399
 2062POPC   C3B30273  10.851  40.122   8.023
 2062POPC   C4B30274  10.776  40.120   7.589
 2063POPC   NC330275  33.675  30.402   9.686
 2063POPC   PO430276  34.258  30.722   9.559
 2063POPC   GL130277  34.045  30.801   9.181
 2063POPC   GL230278  33.698  30.661   9.200
 2063POPC   C1A30279  34.050  30.619   8.752
 2063POPC   D2A30280  33.847  30.459   8.383
 2063POPC   C3A30281  34.100  30.638   8.093
 2063POPC   C4A30282  34.026  30.782   7.716
 2063POPC   C1B30283  33.537  30.545   8.799
 2063POPC   C2B30284  33.480  30.803   8.413
 2063POPC   C3B30285  33.603  30.713   7.988
 2063POPC   C4B30286  33.579  30.679   7.495
 2064POPC   NC330287  12.080  12.504   9.527
 2064POPC   PO430288  11.942  11.896   9.452
 2064POPC   GL130289  11.973  12.205   9.121
 2064POPC   GL230290  11.753  12.518   9.135
 2064POPC   C1A30291  12.101  12.161   8.720
 2064POPC   D2A30292  12.168  11.832   8.469
 2064POPC   C3A30293  12.406  11.976   8.123
 2064POPC   C4A30294  12.244  12.055   7.734
 2064POPC   C1B30295  11.620  12.352   8.747
 2064POPC   C2B30296  11.722  12.123   8.388
 2064POPC   C3B30297  11.877  11.953   8.065
 2064POPC   C4B30298  11.648  12.113   7.729
 2065POPC   NC330299  21.013  14.454   9.512
 2065POPC   PO430300  20.560  13.984   9.285
 2065POPC   GL130301  20.773  14.319   9.085
 2065POPC   GL230302  21.063  14.149   9.085
 2065POPC   C1A30303  20.648  14.569   8.741
 2065POPC   D2A30304  20.313  14.403   8.513
 2065POPC   C3A30305  20.349  14.406   8.077
 2065POPC   C4A30306  20.655  14.546   7.764
 2065POPC   C1B30307  21.037  14.235   8.665
 2065POPC   C2B30308  20.768  14.218   8.348
 2065POPC   C3B30309  20.832  14.086   7.967
 2065POPC   C4B30310  20.923  14.192   7.535
 2066POPC   NC330311  22.770  32.389   9.384
 2066POPC   PO430312  22.283  32.816   9.409
 2066POPC   GL130313  22.492  33.026   9.066
 2066POPC   GL230314  22.804  32.847   9.103
 2066POPC   C1A30315  22.501  33.222   8.620
 2066POPC   D2A30316  22.517  33.366   8.161
 2066POPC   C3A30317  22.619  33.065   7.809
 2066POPC   C4A30318  22.779  32.614   7.781
 2066POPC   C1B30319  22.725  32.751   8.659
 2066POPC   C2B30320  22.823  32.916   8.250
 2066POPC   C3B30321  23.177  32.882   7.950
 2066POPC   C4B30322  23.493  32.556   7.787
 2067POPC   NC330323   3.431  31.127   9.745
 2067POPC   PO430324   3.325  30.482   9.485
 2067POPC   GL130325   3.215  30.520   9.058
 2067POPC   GL230326   3.589  30.571   8.946
 2067POPC   C1A30327   3.219  30.650   8.632
 2067POPC   D2A30328   3.583  30.679   8.372
 2067POPC   C3A30329   3.400  30.655   8.016
 2067POPC   C4A30330   3.365  30.460   7.636
 2067POPC   C1B30331   3.596  31.026   8.731
 2067POPC   C2B30332   3.510  31.243   8.361
 2067POPC   C3B30333   3.700  31.076   8.003
 2067POPC   C4B30334   3.603  30.899   7.618
 2068POPC   NC330335  13.556  44.321   9.799
 2068POPC   PO430336  13.792  44.908   9.477
 2068POPC   GL130337  13.694  44.674   9.091
 2068POPC   GL230338  13.367  44.610   9.041
 2068POPC   C1A30339  13.755  44.509   8.686
 2068POPC   D2A30340  13.705  44.657   8.271
 2068POPC   C3A30341  13.856  44.430   7.932
 2068POPC   C4A30342  13.736  44.349   7.505
 2068POPC   C1B30343  13.236  44.431   8.691
 2068POPC   C2B30344  13.206  44.586   8.291
 2068POPC   C3B30345  13.365  44.490   7.893
 2068POPC   C4B30346  13.191  44.292   7.549
 2069POPC   NC330347   9.993  17.193   9.469
 2069POPC   PO430348   9.530  17.712   9.458
 2069POPC   GL130349   9.631  17.405   9.163
 2069POPC   GL230350   9.403  17.178   9.081
 2069POPC   C1A30351   9.694  17.543   8.758
 2069POPC   D2A30352   9.802  17.853   8.483
 2069POPC   C3A30353   9.720  17.704   8.092
 2069POPC   C4A30354   9.798  17.776   7.680
 2069POPC   C1B30355   9.420  17.119   8.678
 2069POPC   C2B30356   9.272  16.998   8.322
 2069POPC   C3B30357   9.327  17.211   7.944
 2069POPC   C4B30358   9.675  17.279   7.710
 2070POPC   NC330359   0.376  10.937   9.484
 2070POPC   PO430360   0.822  11.451   9.594
 2070POPC   GL130361   0.550  11.333   9.230
 2070POPC   GL230362   0.691  11.060   9.102
 2070POPC   C1A30363   0.429  11.431   8.793
 2070POPC   D2A30364   0.257  11.597   8.374
 2070POPC   C3A30365   0.419  11.548   7.929
 2070POPC   C4A30366   0.370  11.591   7.447
 2070POPC   C1B30367   0.345  10.921   8.833
 2070POPC   C2B30368   0.163  11.098   8.461
 2070POPC   C3B30369   0.109  10.994   8.036
 2070POPC   C4B30370   0.419  11.045   7.704
 2071POPC   NC330371  26.480  43.325  10.309
 2071POPC   PO430372  26.449  43.054   9.768
 2071POPC   GL130373  26.776  43.032   9.399
 2071POPC   GL230374  26.940  43.296   9.172
 2071POPC   C1A30375  26.848  42.800   9.008
 2071POPC   D2A30376  26.669  42.766   8.590
 2071POPC   C3A30377  26.928  42.915   8.263
 2071POPC   C4A30378  26.819  43.053   7.843
 2071POPC   C1B30379  26.795  43.269   8.720
 2071POPC   C2B30380  26.726  43.391   8.267
 2071POPC   C3B30381  26.852  43.562   7.853
 2071POPC   C4B30382  26.798  43.483   7.391
 2072POPC   NC330383   3.608  37.286   9.564
 2072POPC   PO430384   3.343  36.608   9.353
 2072POPC   GL130385   3.697  36.776   9.111
 2072POPC   GL230386   3.759  37.152   9.113
 2072POPC   C1A30387   3.654  36.904   8.691
 2072POPC   D2A30388   3.487  37.090   8.348
 2072POPC   C3A30389   3.567  36.865   7.986
 2072POPC   C4A30390   3.537  36.595   7.619
 2072POPC   C1B30391   3.305  37.188   8.949
 2072POPC   C2B30392   3.135  37.399   8.559
 2072POPC   C3B30393   3.208  37.450   8.129
 2072POPC   C4B30394   3.238  37.174   7.760
 2073POPC   NC330395  32.393  15.552   9.404
 2073POPC   PO430396  32.066  16.041   9.540
 2073POPC   GL130397  32.069  15.870   9.145
 2073POPC   GL230398  32.405  15.968   9.112
 2073POPC   C1A30399  31.968  15.933   8.709
 2073POPC   D2A30400  31.927  16.205   8.368
 2073POPC   C3A30401  31.775  15.921   8.088
 2073POPC   C4A30402  31.962  15.617   7.776
 2073POPC   C1B30403  32.237  16.305   8.915
 2073POPC   C2B30404  32.416  16.150   8.553
 2073POPC   C3B30405  32.474  16.089   8.148
 2073POPC   C4B30406  32.263  16.029   7.782
 2074POPC   NC330407  28.037  36.610   9.817
 2074POPC   PO430408  27.442  36.750   9.404
 2074POPC   GL130409  27.614  36.833   9.041
 2074POPC   GL230410  27.838  37.078   9.190
 2074POPC   C1A30411  27.593  36.796   8.610
 2074POPC   D2A30412  27.569  36.999   8.249
 2074POPC   C3A30413  27.644  36.655   8.012
 2074POPC   C4A30414  27.722  36.667   7.620
 2074POPC   C1B30415  27.844  37.196   8.771
 2074POPC   C2B30416  28.089  37.174   8.411
 2074POPC   C3B30417  28.009  37.088   7.981
 2074POPC   C4B30418  27.812  37.275   7.645
 2075POPC   NC330419  10.970   9.520   9.532
 2075POPC   PO430420  11.417   9.998   9.517
 2075POPC   GL130421  11.334   9.739   9.176
 2075POPC   GL230422  10.989   9.694   9.062
 2075POPC   C1A30423  11.443   9.727   8.753
 2075POPC   D2A30424  11.357   9.491   8.392
 2075POPC   C3A30425  11.384   9.636   7.966
 2075POPC   C4A30426  11.454   9.934   7.637
 2075POPC   C1B30427  11.001   9.980   8.716
 2075POPC   C2B30428  11.129   9.950   8.287
 2075POPC   C3B30429  10.989   9.992   7.876
 2075POPC   C4B30430  10.652   9.925   7.601
 2076POPC   NC330431   7.577  17.183   9.492
 2076POPC   PO430432   7.675  16.549   9.301
 2076POPC   GL130433   7.302  16.701   9.105
 2076POPC   GL230434   7.196  17.031   9.169
 2076POPC   C1A30435   7.256  16.570   8.702
 2076POPC   D2A30436   7.553  16.403   8.427
 2076POPC   C3A30437   7.498  16.512   8.014
 2076POPC   C4A30438   7.673  16.617   7.612
 2076POPC   C1B30439   7.396  17.097   8.770
 2076POPC   C2B30440   7.317  16.925   8.353
 2076POPC   C3B30441   7.483  17.023   7.937
 2076POPC   C4B30442   7.511  17.078   7.486
 2077POPC   NC330443   2.057  41.958   9.412
 2077POPC   PO430444   1.630  42.504   9.441
 2077POPC   GL130445   1.884  42.389   9.105
 2077POPC   GL230446   2.242  42.338   9.103
 2077POPC   C1A30447   2.003  42.550   8.709
 2077POPC   D2A30448   2.225  42.389   8.350
 2077POPC   C3A30449   1.969  42.464   8.016
 2077POPC   C4A30450   1.943  42.081   7.785
 2077POPC   C1B30451   2.404  42.020   8.745
 2077POPC   C2B30452   2.582  42.016   8.296
 2077POPC   C3B30453   2.440  41.892   7.863
 2077POPC   C4B30454   2.295  41.949   7.410
 2078POPC   NC330455   7.723  17.829   9.546
 2078POPC   PO430456   7.169  17.403   9.512
 2078POPC   GL130457   7.390  17.524   9.156
 2078POPC   GL230458   7.302  17.846   9.197
 2078POPC   C1A30459   7.478  17.653   8.728
 2078POPC   D2A30460   7.526  17.403   8.359
 2078POPC   C3A30461   7.168  17.361   8.150
 2078POPC   C4A30462   7.217  17.417   7.732
 2078POPC   C1B30463   6.992  17.706   8.855
 2078POPC   C2B30464   7.075  17.832   8.404
 2078POPC   C3B30465   7.364  17.825   8.049
 2078POPC   C4B30466   7.248  17.910   7.627
 2079POPC   NC330467  42.603   8.357   9.540
 2079POPC   PO430468  42.120   7.877   9.488
 2079POPC   GL130469  42.203   8.206   9.187
 2079POPC   GL230470  42.514   8.080   9.133
 2079POPC   C1A30471  42.231   8.232   8.734
 2079POPC   D2A30472  42.452   8.322   8.342
 2079POPC   C3A30473  42.243   8.271   7.975
 2079POPC   C4A30474  42.372   8.276   7.553
 2079POPC   C1B30475  42.555   7.834   8.800
 2079POPC   C2B30476  42.603   7.739   8.366
 2079POPC   C3B30477  42.620   7.912   7.972
 2079POPC   C4B30478  42.769   7.986   7.551
 2080POPC   NC330479  44.875  28.854   9.825
 2080POPC   PO430480  44.345  28.907   9.356
 2080POPC   GL130481  44.450  28.559   9.048
 2080POPC   GL230482  44.690  28.289   9.169
 2080POPC   C1A30483  44.762  28.606   8.701
 2080POPC   D2A30484  44.859  28.400   8.329
 2080POPC   C3A30485  44.514  28.366   8.031
 2080POPC   C4A30486  44.509  28.293   7.570
 2080POPC   C1B30487  44.803  28.095   8.760
 2080POPC   C2B30488  44.790  27.905   8.325
 2080POPC   C3B30489  44.844  27.995   7.870
 2080POPC   C4B30490  44.712  27.820   7.442
 2081POPC   NC330491  23.913  16.416   9.384
 2081POPC   PO430492  23.716  17.002   9.542
 2081POPC   GL130493  23.807  16.845   9.136
 2081POPC   GL230494  23.559  16.652   9.067
 2081POPC   C1A30495  23.874  16.826   8.700
 2081POPC   D2A30496  23.952  16.714   8.286
 2081POPC   C3A30497  23.880  16.944   7.938
 2081POPC   C4A30498  23.464  17.039   7.861
 2081POPC   C1B30499  23.426  16.560   8.660
 2081POPC   C2B30500  23.440  16.727   8.283
 2081POPC   C3B30501  23.572  16.528   7.962
 2081POPC   C4B30502  23.677  16.197   7.737
 2082POPC   NC330503  10.909   2.640   9.359
 2082POPC   PO430504  11.397   3.001   9.439
 2082POPC   GL130505  11.262   2.838   9.051
 2082POPC   GL230506  11.369   2.516   9.103
 2082POPC   C1A30507  11.403   2.741   8.643
 2082POPC   D2A30508  11.526   2.974   8.313
 2082POPC   C3A30509  11.373   2.813   7.964
 2082POPC   C4A30510  11.479   2.970   7.597
 2082POPC   C1B30511  11.172   2.311   8.755
 2082POPC   C2B30512  11.095   2.426   8.371
 2082POPC   C3B30513  11.046   2.367   7.993
 2082POPC   C4B30514  10.927   2.691   7.711
 2083POPC   NC330515  14.847  41.431   9.668
 2083POPC   PO430516  15.110  41.982   9.340
 2083POPC   GL130517  15.045  41.914   8.934
 2083POPC   GL230518  15.049  41.545   8.952
 2083POPC   C1A30519  15.234  41.799   8.557
 2083POPC   D2A30520  15.075  41.554   8.249
 2083POPC   C3A30521  15.093  41.732   7.912
 2083POPC   C4A30522  15.439  41.561   7.732
 2083POPC   C1B30523  14.961  41.287   8.660
 2083POPC   C2B30524  15.148  41.053   8.337
 2083POPC   C3B30525  15.202  41.147   7.906
 2083POPC   C4B30526  14.857  41.358   7.659
 2084POPC   NC330527  24.144   6.910   9.554
 2084POPC   PO430528  24.648   6.504   9.718
 2084POPC   GL130529  24.369   6.644   9.210
 2084POPC   GL230530  24.645   6.804   8.961
 2084POPC   C1A30531  24.241   6.510   8.751
 2084POPC   D2A30532  24.059   6.541   8.291
 2084POPC   C3A30533  24.331   6.539   7.926
 2084POPC   C4A30534  24.344   6.723   7.496
 2084POPC   C1B30535  24.497   6.982   8.658
 2084POPC   C2B30536  24.542   7.175   8.287
 2084POPC   C3B30537  24.609   6.953   7.902
 2084POPC   C4B30538  24.824   6.520   7.784
 2085POPC   NC330539  15.871  40.240   9.674
 2085POPC   PO430540  15.695  39.549   9.506
 2085POPC   GL130541  15.806  39.916   9.211
 2085POPC   GL230542  15.826  40.300   9.179
 2085POPC   C1A30543  16.058  39.972   8.839
 2085POPC   D2A30544  15.863  39.909   8.431
 2085POPC   C3A30545  16.095  40.056   8.077
 2085POPC   C4A30546  16.133  39.809   7.735
 2085POPC   C1B30547  15.635  40.266   8.787
 2085POPC   C2B30548  15.465  40.218   8.380
 2085POPC   C3B30549  15.578  39.999   7.992
 2085POPC   C4B30550  15.776  40.277   7.741
 2086POPC   NC330551  42.093   0.161   9.641
 2086POPC   PO430552  42.670   0.635   9.607
 2086POPC   GL130553  42.555   0.530   9.201
 2086POPC   GL230554  42.176   0.522   9.208
 2086POPC   C1A30555  42.641   0.729   8.785
 2086POPC   D2A30556  42.857   0.777   8.351
 2086POPC   C3A30557  42.596   0.573   8.045
 2086POPC   C4A30558  42.281   0.320   7.833
 2086POPC   C1B30559  42.277   0.366   8.781
 2086POPC   C2B30560  42.253   0.226   8.351
 2086POPC   C3B30561  42.004  44.964   8.119
 2086POPC   C4B30562  41.870   0.036   7.726
 2087POPC   NC330563  21.133  38.961   9.524
 2087POPC   PO430564  21.528  39.490   9.535
 2087POPC   GL130565  21.578  39.356   9.147
 2087POPC   GL230566  21.560  39.021   9.207
 2087POPC   C1A30567  21.448  39.564   8.785
 2087POPC   D2A30568  21.163  39.565   8.441
 2087POPC   C3A30569  21.352  39.387   8.074
 2087POPC   C4A30570  21.171  39.463   7.689
 2087POPC   C1B30571  21.237  39.095   8.845
 2087POPC   C2B30572  21.065  39.035   8.394
 2087POPC   C3B30573  21.070  38.937   7.919
 2087POPC   C4B30574  21.351  38.988   7.568
 2088POPC   NC330575  40.986  28.177   9.660
 2088POPC   PO430576  40.829  28.691   9.572
 2088POPC   GL130577  40.715  28.635   9.142
 2088POPC   GL230578  40.463  28.861   8.987
 2088POPC   C1A30579  40.842  28.657   8.704
 2088POPC   D2A30580  40.903  28.726   8.219
 2088POPC   C3A30581  40.873  28.340   7.922
 2088POPC   C4A30582  41.090  27.926   7.801
 2088POPC   C1B30583  40.356  28.438   8.832
 2088POPC   C2B30584  40.196  28.259   8.433
 2088POPC   C3B30585  40.362  28.384   8.012
 2088POPC   C4B30586  40.481  28.383   7.558
 2089POPC   NC330587  26.714  11.658   9.507
 2089POPC   PO430588  26.578  11.029   9.309
 2089POPC   GL130589  26.813  11.348   9.082
 2089POPC   GL230590  26.990  11.698   9.074
 2089POPC   C1A30591  26.845  11.230   8.654
 2089POPC   D2A30592  26.674  10.956   8.300
 2089POPC   C3A30593  26.885  11.103   7.928
 2089POPC   C4A30594  27.156  11.384   7.691
 2089POPC   C1B30595  26.627  11.743   8.791
 2089POPC   C2B30596  26.378  11.664   8.433
 2089POPC   C3B30597  26.544  11.600   8.013
 2089POPC   C4B30598  26.639  11.508   7.585
 2090POPC   NC330599  39.088  44.277   9.287
 2090POPC   PO430600  39.416  44.802   9.645
 2090POPC   GL130601  39.344  44.795   9.203
 2090POPC   GL230602  39.504  44.528   9.073
 2090POPC   C1A30603  39.253  44.815   8.744
 2090POPC   D2A30604  39.070  44.497   8.461
 2090POPC   C3A30605  39.098  44.623   8.033
 2090POPC   C4A30606  39.243  44.814   7.617
 2090POPC   C1B30607  39.515  44.316   8.709
 2090POPC   C2B30608  39.579  44.611   8.383
 2090POPC   C3B30609  39.640  44.671   7.965
 2090POPC   C4B30610  39.434  44.363   7.754
 2091POPC   NC330611  33.973  44.301   9.660
 2091POPC   PO430612  33.544  44.817   9.675
 2091POPC   GL130613  33.839  44.738   9.343
 2091POPC   GL230614  33.700  44.417   9.218
 2091POPC   C1A30615  34.113  44.974   9.028
 2091POPC   D2A30616  34.050   0.049   8.567
 2091POPC   C3A30617  34.182  44.912   8.145
 2091POPC   C4A30618  33.948  44.839   7.745
 2091POPC   C1B30619  33.733  44.699   8.828
 2091POPC   C2B30620  33.917  44.586   8.424
 2091POPC   C3B30621  33.905  44.403   8.000
 2091POPC   C4B30622  33.505  44.445   7.778
 2092POPC   NC330623  37.117  24.217   9.481
 2092POPC   PO430624  37.417  24.770   9.530
 2092POPC   GL130625  37.178  24.683   9.117
 2092POPC   GL230626  36.908  24.430   9.069
 2092POPC   C1A30627  36.996  24.759   8.665
 2092POPC   D2A30628  36.798  24.680   8.236
 2092POPC   C3A30629  37.096  24.590   7.885
 2092POPC   C4A30630  37.262  24.857   7.573
 2092POPC   C1B30631  36.797  24.266   8.645
 2092POPC   C2B30632  36.806  24.177   8.173
 2092POPC   C3B30633  36.648  24.376   7.817
 2092POPC   C4B30634  36.516  24.170   7.433
 2093POPC   NC330635  21.045  16.019   9.561
 2093POPC   PO430636  21.662  15.724   9.560
 2093POPC   GL130637  21.458  15.800   9.131
 2093POPC   GL230638  21.161  15.653   9.165
 2093POPC   C1A30639  21.445  15.697   8.641
 2093POPC   D2A30640  21.562  15.917   8.229
 2093POPC   C3A30641  21.437  15.854   7.787
 2093POPC   C4A30642  21.723  15.726   7.428
 2093POPC   C1B30643  20.956  15.778   8.781
 2093POPC   C2B30644  21.056  15.893   8.326
 2093POPC   C3B30645  20.929  15.783   7.895
 2093POPC   C4B30646  20.934  15.762   7.440
 2094POPC   NC330647  10.422  34.934   9.429
 2094POPC   PO430648  10.458  35.683   9.503
 2094POPC   GL130649  10.528  35.516   9.086
 2094POPC   GL230650  10.170  35.575   9.086
 2094POPC   C1A30651  10.763  35.459   8.657
 2094POPC   D2A30652  10.802  35.374   8.174
 2094POPC   C3A30653  10.531  35.009   7.961
 2094POPC   C4A30654  10.524  34.945   7.488
 2094POPC   C1B30655  10.160  35.250   8.811
 2094POPC   C2B30656  10.344  35.280   8.426
 2094POPC   C3B30657  10.295  35.444   8.054
 2094POPC   C4B30658  10.169  35.258   7.667
 2095POPC   NC330659  13.279  33.682   9.330
 2095POPC   PO430660  13.850  34.061   9.449
 2095POPC   GL130661  13.653  33.961   9.054
 2095POPC   GL230662  13.293  34.023   8.936
 2095POPC   C1A30663  13.755  34.111   8.648
 2095POPC   D2A30664  13.934  33.977   8.287
 2095POPC   C3A30665  13.695  33.749   8.003
 2095POPC   C4A30666  13.756  33.691   7.604
 2095POPC   C1B30667  13.456  33.685   8.635
 2095POPC   C2B30668  13.309  33.466   8.222
 2095POPC   C3B30669  13.228  33.666   7.785
 2095POPC   C4B30670  13.351  33.529   7.356
 2096POPC   NC330671  26.414  14.102   9.467
 2096POPC   PO430672  25.838  14.350   9.666
 2096POPC   GL130673  25.805  14.365   9.184
 2096POPC   GL230674  26.164  14.450   9.155
 2096POPC   C1A30675  25.682  14.463   8.724
 2096POPC   D2A30676  25.668  14.407   8.238
 2096POPC   C3A30677  26.071  14.275   8.013
 2096POPC   C4A30678  26.227  14.041   7.635
 2096POPC   C1B30679  26.100  14.778   8.846
 2096POPC   C2B30680  26.094  14.737   8.397
 2096POPC   C3B30681  26.354  14.699   8.024
 2096POPC   C4B30682  26.284  14.550   7.605
 2097POPC   NC330683  32.530  41.854   9.598
 2097POPC   PO430684  31.992  41.420   9.642
 2097POPC   GL130685  32.173  41.653   9.279
 2097POPC   GL230686  31.919  41.704   9.104
 2097POPC   C1A30687  32.391  41.611   8.841
 2097POPC   D2A30688  32.677  41.775   8.480
 2097POPC   C3A30689  32.510  41.767   8.039
 2097POPC   C4A30690  32.462  41.552   7.617
 2097POPC   C1B30691  31.874  41.591   8.691
 2097POPC   C2B30692  32.138  41.607   8.375
 2097POPC   C3B30693  32.130  41.425   7.985
 2097POPC   C4B30694  32.024  41.244   7.603
 2098POPC   NC330695  23.579  10.294   9.634
 2098POPC   PO430696  23.980   9.767   9.509
 2098POPC   GL130697  23.611   9.856   9.303
 2098POPC   GL230698  23.466   9.549   9.286
 2098POPC   C1A30699  23.625   9.965   8.863
 2098POPC   D2A30700  23.646   9.755   8.470
 2098POPC   C3A30701  23.687   9.874   8.053
 2098POPC   C4A30702  23.636   9.974   7.625
 2098POPC   C1B30703  23.361   9.518   8.856
 2098POPC   C2B30704  23.464   9.292   8.484
 2098POPC   C3B30705  23.680   9.354   8.106
 2098POPC   C4B30706  23.735   9.470   7.689
 2099POPC   NC330707   4.770   0.800   9.528
 2099POPC   PO430708   5.260   0.201   9.494
 2099POPC   GL130709   5.153   0.577   9.250
 2099POPC   GL230710   5.196   0.325   8.990
 2099POPC   C1A30711   5.135   0.805   8.850
 2099POPC   D2A30712   5.259   0.547   8.519
 2099POPC   C3A30713   5.127   0.640   8.125
 2099POPC   C4A30714   5.173   0.473   7.747
 2099POPC   C1B30715   4.936   0.073   8.712
 2099POPC   C2B30716   4.645   0.209   8.389
 2099POPC   C3B30717   4.784   0.217   7.947
 2099POPC   C4B30718   4.913   0.116   7.495
 2100POPC   NC330719  13.432  19.392   9.780
 2100POPC   PO430720  13.347  19.855   9.265
 2100POPC   GL130721  13.417  20.056   8.933
 2100POPC   GL230722  13.758  20.043   9.017
 2100POPC   C1A30723  13.438  19.975   8.490
 2100POPC   D2A30724  13.642  19.609   8.281
 2100POPC   C3A30725  13.388  19.478   7.940
 2100POPC   C4A30726  13.251  19.865   7.767
 2100POPC   C1B30727  13.910  19.862   8.667
 2100POPC   C2B30728  13.921  20.027   8.261
 2100POPC   C3B30729  13.774  19.890   7.856
 2100POPC   C4B30730  13.818  20.048   7.413
 2101POPC   NC330731  14.002  44.429   9.401
 2101POPC   PO430732  14.712  44.635   9.574
 2101POPC   GL130733  14.474  44.541   9.189
 2101POPC   GL230734  14.201  44.802   9.097
 2101POPC   C1A30735  14.290  44.406   8.782
 2101POPC   D2A30736  14.123  44.322   8.366
 2101POPC   C3A30737  14.373  44.476   8.025
 2101POPC   C4A30738  14.490  44.909   7.935
 2101POPC   C1B30739  13.930   0.021   8.770
 2101POPC   C2B30740  13.832   0.130   8.324
 2101POPC   C3B30741  13.982  44.946   7.927
 2101POPC   C4B30742  14.167  44.655   7.606
 2102POPC   NC330743  13.520   0.291   9.560
 2102POPC   PO430744  14.051   0.673   9.418
 2102POPC   GL130745  13.772   0.410   9.114
 2102POPC   GL230746  13.501   0.139   9.076
 2102POPC   C1A30747  13.669   0.470   8.697
 2102POPC   D2A30748  13.876   0.631   8.345
 2102POPC   C3A30749  13.631   0.501   8.015
 2102POPC   C4A30750  13.826   0.487   7.655
 2102POPC   C1B30751  13.416  44.955   8.655
 2102POPC   C2B30752  13.331   0.080   8.219
 2102POPC   C3B30753  13.499  44.997   7.820
 2102POPC   C4B30754  13.579   0.170   7.370
 2103POPC   NC330755   9.394  22.427   9.336
 2103POPC   PO430756   9.747  22.063   9.787
 2103POPC   GL130757   9.848  22.113   9.268
 2103POPC   GL230758   9.994  22.364   9.118
 2103POPC   C1A30759   9.650  22.069   8.806
 2103POPC   D2A30760   9.785  22.170   8.439
 2103POPC   C3A30761   9.628  22.261   8.084
 2103POPC   C4A30762   9.731  22.080   7.721
 2103POPC   C1B30763  10.192  22.524   8.720
 2103POPC   C2B30764  10.030  22.590   8.262
 2103POPC   C3B30765  10.062  22.478   7.806
 2103POPC   C4B30766   9.928  22.353   7.352
 2104POPC   NC330767  34.016   4.145   9.833
 2104POPC   PO430768  34.590   4.208   9.364
 2104POPC   GL130769  34.469   4.197   8.999
 2104POPC   GL230770  34.158   4.393   9.046
 2104POPC   C1A30771  34.665   4.107   8.627
 2104POPC   D2A30772  34.907   4.024   8.279
 2104POPC   C3A30773  34.736   4.155   7.939
 2104POPC   C4A30774  34.491   3.905   7.698
 2104POPC   C1B30775  34.277   4.485   8.628
 2104POPC   C2B30776  34.383   4.365   8.234
 2104POPC   C3B30777  34.334   4.425   7.796
 2104POPC   C4B30778  34.662   4.480   7.525
 2105POPC   NC330779  37.313   2.861   9.513
 2105POPC   PO430780  36.703   2.610   9.520
 2105POPC   GL130781  36.936   2.609   9.160
 2105POPC   GL230782  36.621   2.642   8.985
 2105POPC   C1A30783  37.065   2.892   8.820
 2105POPC   D2A30784  37.049   3.100   8.415
 2105POPC   C3A30785  37.068   2.933   8.018
 2105POPC   C4A30786  36.678   2.889   7.800
 2105POPC   C1B30787  36.803   2.438   8.612
 2105POPC   C2B30788  36.806   2.506   8.159
 2105POPC   C3B30789  36.764   2.387   7.717
 2105POPC   C4B30790  36.744   2.462   7.262
 2106POPC   NC330791  18.161  39.004   9.518
 2106POPC   PO430792  18.416  39.611   9.390
 2106POPC   GL130793  18.402  39.240   9.136
 2106POPC   GL230794  18.125  38.971   9.025
 2106POPC   C1A30795  18.556  39.092   8.777
 2106POPC   D2A30796  18.396  38.993   8.395
 2106POPC   C3A30797  18.662  39.049   8.030
 2106POPC   C4A30798  18.510  39.268   7.669
 2106POPC   C1B30799  18.007  39.261   8.783
 2106POPC   C2B30800  17.937  39.289   8.392
 2106POPC   C3B30801  18.161  39.276   8.031
 2106POPC   C4B30802  18.018  39.140   7.605
 2107POPC   NC330803  35.923  41.936   9.450
 2107POPC   PO430804  36.169  41.407   9.760
 2107POPC   GL130805  36.107  41.461   9.277
 2107POPC   GL230806  35.818  41.266   9.289
 2107POPC   C1A30807  35.884  41.667   8.870
 2107POPC   D2A30808  35.767  41.810   8.428
 2107POPC   C3A30809  36.099  41.785   8.145
 2107POPC   C4A30810  35.976  41.842   7.737
 2107POPC   C1B30811  35.745  41.188   8.849
 2107POPC   C2B30812  35.923  41.324   8.456
 2107POPC   C3B30813  35.876  41.335   8.034
 2107POPC   C4B30814  36.236  41.395   7.761
 2108POPC   NC330815  32.483   3.074   9.703
 2108POPC   PO430816  31.899   2.764   9.580
 2108POPC   GL130817  32.057   2.816   9.173
 2108POPC   GL230818  32.385   2.759   9.289
 2108POPC   C1A30819  32.155   2.752   8.733
 2108POPC   D2A30820  32.169   2.966   8.350
 2108POPC   C3A30821  31.960   2.885   7.960
 2108POPC   C4A30822  32.043   2.608   7.665
 2108POPC   C1B30823  32.625   2.895   8.954
 2108POPC   C2B30824  32.632   2.838   8.514
 2108POPC   C3B30825  32.607   2.948   8.080
 2108POPC   C4B30826  32.607   2.750   7.674
 2109POPC   NC330827  17.703  14.698   9.255
 2109POPC   PO430828  17.673  15.305   9.436
 2109POPC   GL130829  17.524  15.153   9.103
 2109POPC   GL230830  17.232  14.935   9.246
 2109POPC   C1A30831  17.634  15.128   8.667
 2109POPC   D2A30832  17.565  15.369   8.300
 2109POPC   C3A30833  17.771  15.375   7.931
 2109POPC   C4A30834  17.729  15.219   7.562
 2109POPC   C1B30835  17.133  15.024   8.837
 2109POPC   C2B30836  17.169  15.054   8.423
 2109POPC   C3B30837  17.219  15.125   8.001
 2109POPC   C4B30838  17.271  15.025   7.610
 2110POPC   NC330839   0.759   3.175   9.483
 2110POPC   PO430840   0.344   3.648   9.530
 2110POPC   GL130841   0.280   3.670   9.131
 2110POPC   GL230842   0.502   3.915   9.064
 2110POPC   C1A30843   0.300   3.607   8.713
 2110POPC   D2A30844   0.239   3.580   8.306
 2110POPC   C3A30845   0.146   3.370   7.956
 2110POPC   C4A30846   0.295   3.525   7.565
 2110POPC   C1B30847   0.735   3.842   8.747
 2110POPC   C2B30848   0.768   3.561   8.452
 2110POPC   C3B30849   0.723   3.665   8.043
 2110POPC   C4B30850   0.781   3.435   7.686
 2111POPC   NC330851  13.026  11.168   9.511
 2111POPC   PO430852  12.798  11.769   9.476
 2111POPC   GL130853  12.912  11.521   9.145
 2111POPC   GL230854  12.634  11.301   9.168
 2111POPC   C1A30855  12.945  11.313   8.762
 2111POPC   D2A30856  12.864  11.054   8.431
 2111POPC   C3A30857  12.953  11.230   8.036
 2111POPC   C4A30858  13.183  11.278   7.658
 2111POPC   C1B30859  12.483  11.071   8.794
 2111POPC   C2B30860  12.318  11.028   8.363
 2111POPC   C3B30861  12.474  11.034   7.942
 2111POPC   C4B30862  12.677  11.255   7.615
 2112POPC   NC330863  19.558  37.469   9.452
 2112POPC   PO430864  18.892  37.772   9.304
 2112POPC   GL130865  19.059  37.724   8.944
 2112POPC   GL230866  19.224  37.416   9.043
 2112POPC   C1A30867  19.052  37.993   8.568
 2112POPC   D2A30868  18.763  37.991   8.191
 2112POPC   C3A30869  19.043  37.936   7.868
 2112POPC   C4A30870  19.468  37.952   7.871
 2112POPC   C1B30871  19.124  37.297   8.613
 2112POPC   C2B30872  19.151  37.566   8.247
 2112POPC   C3B30873  19.301  37.477   7.829
 2112POPC   C4B30874  19.269  37.413   7.376
 2113POPC   NC330875   8.650  43.122   9.533
 2113POPC   PO430876   7.980  43.325   9.488
 2113POPC   GL130877   8.080  43.112   9.124
 2113POPC   GL230878   8.394  43.131   9.098
 2113POPC   C1A30879   8.124  42.917   8.703
 2113POPC   D2A30880   8.121  42.956   8.257
 2113POPC   C3A30881   8.081  43.129   7.827
 2113POPC   C4A30882   7.947  43.366   7.438
 2113POPC   C1B30883   8.648  42.844   8.852
 2113POPC   C2B30884   8.659  42.786   8.410
 2113POPC   C3B30885   8.582  43.023   8.044
 2113POPC   C4B30886   8.496  42.879   7.666
 2114POPC   NC330887  33.285  39.975   9.369
 2114POPC   PO430888  32.742  39.817   9.728
 2114POPC   GL130889  32.795  40.127   9.258
 2114POPC   GL230890  32.626  39.945   8.983
 2114POPC   C1A30891  33.061  40.162   8.809
 2114POPC   D2A30892  33.220  39.781   8.526
 2114POPC   C3A30893  33.061  39.848   8.104
 2114POPC   C4A30894  33.090  40.284   7.894
 2114POPC   C1B30895  32.723  39.884   8.569
 2114POPC   C2B30896  32.787  40.239   8.327
 2114POPC   C3B30897  32.605  40.167   7.949
 2114POPC   C4B30898  32.767  39.875   7.677
 2115POPC   NC330899  26.374  16.513   9.401
 2115POPC   PO430900  25.719  16.783   9.521
 2115POPC   GL130901  25.866  16.802   9.092
 2115POPC   GL230902  25.940  16.483   9.144
 2115POPC   C1A30903  25.937  16.970   8.654
 2115POPC   D2A30904  26.247  16.921   8.283
 2115POPC   C3A30905  26.117  17.044   7.846
 2115POPC   C4A30906  25.712  16.991   7.638
 2115POPC   C1B30907  26.056  16.444   8.739
 2115POPC   C2B30908  25.890  16.525   8.365
 2115POPC   C3B30909  26.090  16.516   7.993
 2115POPC   C4B30910  25.942  16.550   7.613
 2116POPC   NC330911  40.440   0.208   9.476
 2116POPC   PO430912  39.865   0.685   9.503
 2116POPC   GL130913  39.836   0.387   9.185
 2116POPC   GL230914  40.165   0.427   9.093
 2116POPC   C1A30915  39.692   0.133   8.845
 2116POPC   D2A30916  39.823   0.387   8.517
 2116POPC   C3A30917  39.750   0.328   8.096
 2116POPC   C4A30918  40.048   0.466   7.813
 2116POPC   C1B30919  40.206   0.688   8.729
 2116POPC   C2B30920  40.067   0.777   8.307
 2116POPC   C3B30921  39.749   0.858   8.024
 2116POPC   C4B30922  39.880   0.902   7.613
 2117POPC   NC330923  22.055   0.143   9.497
 2117POPC   PO430924  22.252   0.754   9.757
 2117POPC   GL130925  22.280   0.566   9.301
 2117POPC   GL230926  21.954   0.541   9.162
 2117POPC   C1A30927  22.329   0.405   8.848
 2117POPC   D2A30928  22.160   0.525   8.454
 2117POPC   C3A30929  22.313   0.461   8.031
 2117POPC   C4A30930  22.107   0.690   7.698
 2117POPC   C1B30931  21.873   0.238   8.795
 2117POPC   C2B30932  22.132   0.019   8.507
 2117POPC   C3B30933  22.101  44.974   8.083
 2117POPC   C4B30934  21.989   0.204   7.694
 2118POPC   NC330935   6.166  19.891   9.451
 2118POPC   PO430936   5.607  19.522   9.517
 2118POPC   GL130937   5.690  19.822   9.214
 2118POPC   GL230938   5.944  19.559   9.096
 2118POPC   C1A30939   5.811  19.987   8.808
 2118POPC   D2A30940   5.871  19.727   8.428
 2118POPC   C3A30941   5.749  19.950   8.076
 2118POPC   C4A30942   5.584  20.094   7.710
 2118POPC   C1B30943   6.245  19.709   8.790
 2118POPC   C2B30944   6.485  19.731   8.406
 2118POPC   C3B30945   6.239  19.708   8.012
 2118POPC   C4B30946   6.029  19.865   7.633
 2119POPC   NC330947  22.088  40.417   9.561
 2119POPC   PO430948  22.408  40.986   9.531
 2119POPC   GL130949  22.297  40.963   9.134
 2119POPC   GL230950  22.095  40.684   9.137
 2119POPC   C1A30951  22.238  40.944   8.724
 2119POPC   D2A30952  22.439  40.781   8.429
 2119POPC   C3A30953  22.240  40.791   8.070
 2119POPC   C4A30954  22.224  40.944   7.681
 2119POPC   C1B30955  22.036  40.459   8.765
 2119POPC   C2B30956  22.099  40.338   8.358
 2119POPC   C3B30957  21.950  40.382   7.977
 2119POPC   C4B30958  21.778  40.697   7.802
 2120POPC   NC330959  26.599  19.004   9.514
 2120POPC   PO430960  25.976  19.225   9.688
 2120POPC   GL130961  26.126  19.156   9.264
 2120POPC   GL230962  26.038  18.888   9.002
 2120POPC   C1A30963  26.386  19.284   8.922
 2120POPC   D2A30964  26.303  19.139   8.531
 2120POPC   C3A30965  26.511  19.056   8.167
 2120POPC   C4A30966  26.239  18.850   7.891
 2120POPC   C1B30967  25.841  18.918   8.579
 2120POPC   C2B30968  25.627  19.025   8.193
 2120POPC   C3B30969  25.787  19.083   7.775
 2120POPC   C4B30970  25.835  18.758   7.443
 2121POPC   NC330971  17.086  32.762   9.384
 2121POPC   PO430972  17.353  32.169   9.369
 2121POPC   GL130973  17.778  32.192   9.146
 2121POPC   GL230974  17.881  32.553   9.173
 2121POPC   C1A30975  17.706  32.170   8.711
 2121POPC   D2A30976  17.302  32.277   8.507
 2121POPC   C3A30977  17.277  32.370   8.061
 2121POPC   C4A30978  17.465  32.145   7.709
 2121POPC   C1B30979  17.550  32.615   8.856
 2121POPC   C2B30980  17.694  32.602   8.415
 2121POPC   C3B30981  17.784  32.445   8.014
 2121POPC   C4B30982  17.540  32.640   7.696
 2122POPC   NC330983  14.872  42.445   9.504
 2122POPC   PO430984  15.519  42.611   9.695
 2122POPC   GL130985  15.365  42.529   9.189
 2122POPC   GL230986  15.016  42.437   9.029
 2122POPC   C1A30987  15.411  42.319   8.759
 2122POPC   D2A30988  15.045  42.272   8.465
 2122POPC   C3A30989  15.062  42.271   7.999
 2122POPC   C4A30990  15.360  42.103   7.674
 2122POPC   C1B30991  15.056  42.755   8.698
 2122POPC   C2B30992  15.007  42.760   8.258
 2122POPC   C3B30993  15.188  42.790   7.872
 2122POPC   C4B30994  15.159  42.552   7.504
 2123POPC   NC330995  44.452  30.331   9.545
 2123POPC   PO430996  44.782  30.969   9.470
 2123POPC   GL130997  44.580  30.743   9.206
 2123POPC   GL230998  44.755  30.452   9.157
 2123POPC   C1A30999  44.448  30.746   8.805
 2123POPC   D2A31000  44.415  30.631   8.383
 2123POPC   C3A31001  44.520  30.835   7.985
 2123POPC   C4A31002  44.486  30.931   7.527
 2123POPC   C1B31003  44.848  30.287   8.753
 2123POPC   C2B31004  44.854  30.406   8.296
 2123POPC   C3B31005  44.741  30.328   7.841
 2123POPC   C4B31006   0.031  30.283   7.463
 2124POPC   NC331007  40.460  40.202   9.407
 2124POPC   PO431008  39.822  39.823   9.438
 2124POPC   GL131009  39.996  40.062   9.178
 2124POPC   GL231010  40.260  39.875   9.052
 2124POPC   C1A31011  39.838  40.042   8.771
 2124POPC   D2A31012  39.884  39.865   8.398
 2124POPC   C3A31013  39.721  40.080   8.093
 2124POPC   C4A31014  39.847  40.080   7.690
 2124POPC   C1B31015  40.355  39.959   8.610
 2124POPC   C2B31016  40.344  39.730   8.212
 2124POPC   C3B31017  40.243  39.710   7.793
 2124POPC   C4B31018  40.509  39.701   7.418
 2125POPC   NC331019  36.830  14.969   9.972
 2125POPC   PO431020  36.257  15.052   9.605
 2125POPC   GL131021  36.006  15.093   9.226
 2125POPC   GL231022  35.999  15.474   9.170
 2125POPC   C1A31023  35.890  14.852   8.836
 2125POPC   D2A31024  35.953  15.010   8.427
 2125POPC   C3A31025  36.073  15.041   8.008
 2125POPC   C4A31026  35.939  15.198   7.619
 2125POPC   C1B31027  36.252  15.287   8.803
 2125POPC   C2B31028  36.311  15.376   8.346
 2125POPC   C3B31029  36.495  15.369   7.916
 2125POPC   C4B31030  36.373  15.417   7.454
 2126POPC   NC331031  23.412   7.589   9.513
 2126POPC   PO431032  23.731   7.121   9.542
 2126POPC   GL131033  23.707   7.363   9.129
 2126POPC   GL231034  23.510   7.687   9.020
 2126POPC   C1A31035  23.649   7.273   8.690
 2126POPC   D2A31036  23.739   7.356   8.240
 2126POPC   C3A31037  23.518   7.128   7.931
 2126POPC   C4A31038  23.717   7.320   7.618
 2126POPC   C1B31039  23.267   7.943   8.696
 2126POPC   C2B31040  23.340   7.962   8.241
 2126POPC   C3B31041  23.421   7.645   7.884
 2126POPC   C4B31042  23.490   7.730   7.388
 2127POPC   NC331043  12.712  13.783   9.247
 2127POPC   PO431044  12.879  13.220   9.436
 2127POPC   GL131045  12.734  13.299   9.044
 2127POPC   GL231046  13.086  13.442   9.016
 2127POPC   C1A31047  12.749  13.486   8.639
 2127POPC   D2A31048  12.917  13.442   8.241
 2127POPC   C3A31049  12.657  13.507   7.857
 2127POPC   C4A31050  12.662  13.910   7.649
 2127POPC   C1B31051  13.225  13.662   8.635
 2127POPC   C2B31052  13.113  13.932   8.302
 2127POPC   C3B31053  13.094  13.781   7.879
 2127POPC   C4B31054  13.290  13.549   7.542
 2128POPC   NC331055  29.578  42.797   9.659
 2128POPC   PO431056  29.928  43.336   9.519
 2128POPC   GL131057  29.934  43.102   9.127
 2128POPC   GL231058  29.636  42.897   9.138
 2128POPC   C1A31059  30.181  43.013   8.718
 2128POPC   D2A31060  30.186  42.969   8.255
 2128POPC   C3A31061  30.021  43.331   8.072
 2128POPC   C4A31062  29.843  43.332   7.669
 2128POPC   C1B31063  29.659  42.943   8.723
 2128POPC   C2B31064  29.643  43.099   8.333
 2128POPC   C3B31065  29.723  42.906   7.961
 2128POPC   C4B31066  29.511  42.963   7.594
 2129POPC   NC331067  32.474  39.607   9.400
 2129POPC   PO431068  32.150  39.051   9.490
 2129POPC   GL131069  32.121  39.326   9.161
 2129POPC   GL231070  32.457  39.177   9.087
 2129POPC   C1A31071  32.058  39.234   8.749
 2129POPC   D2A31072  32.247  39.038   8.403
 2129POPC   C3A31073  32.114  39.271   8.041
 2129POPC   C4A31074  32.034  39.193   7.643
 2129POPC   C1B31075  32.496  39.471   8.767
 2129POPC   C2B31076  32.367  39.542   8.382
 2129POPC   C3B31077  32.567  39.573   8.023
 2129POPC   C4B31078  32.542  39.236   7.752
 2130POPC   NC331079  24.129  42.172   9.506
 2130POPC   PO431080  24.508  42.789   9.412
 2130POPC   GL131081  24.468  42.611   9.024
 2130POPC   GL231082  24.377  42.253   9.079
 2130POPC   C1A31083  24.601  42.380   8.643
 2130POPC   D2A31084  24.811  42.105   8.330
 2130POPC   C3A31085  24.665  42.359   8.015
 2130POPC   C4A31086  24.468  42.290   7.635
 2130POPC   C1B31087  24.103  42.044   8.771
 2130POPC   C2B31088  24.294  42.066   8.377
 2130POPC   C3B31089  24.364  41.927   7.992
 2130POPC   C4B31090  24.069  41.782   7.705
 2131POPC   NC331091  34.960  35.460   9.278
 2131POPC   PO431092  34.384  35.119   9.488
 2131POPC   GL131093  34.574  35.147   9.103
 2131POPC   GL231094  34.481  35.517   9.093
 2131POPC   C1A31095  34.652  35.229   8.653
 2131POPC   D2A31096  34.866  35.297   8.275
 2131POPC   C3A31097  34.562  35.292   7.890
 2131POPC   C4A31098  34.571  35.422   7.443
 2131POPC   C1B31099  34.671  35.723   8.734
 2131POPC   C2B31100  34.553  35.685   8.321
 2131POPC   C3B31101  34.429  35.792   7.934
 2131POPC   C4B31102  34.233  35.759   7.579
 2132POPC   NC331103  32.358  27.152   9.798
 2132POPC   PO431104  32.513  27.704   9.446
 2132POPC   GL131105  32.425  27.505   9.069
 2132POPC   GL231106  32.152  27.258   9.132
 2132POPC   C1A31107  32.420  27.796   8.704
 2132POPC   D2A31108  32.558  28.026   8.346
 2132POPC   C3A31109  32.454  27.858   7.972
 2132POPC   C4A31110  32.035  27.786   7.806
 2132POPC   C1B31111  32.094  27.394   8.675
 2132POPC   C2B31112  32.402  27.455   8.306
 2132POPC   C3B31113  32.320  27.373   7.831
 2132POPC   C4B31114  32.491  27.206   7.454
 2133POPC   NC331115  19.018  30.873   9.539
 2133POPC   PO431116  18.804  30.332   9.238
 2133POPC   GL131117  18.905  30.768   9.058
 2133POPC   GL231118  19.261  30.773   9.109
 2133POPC   C1A31119  19.001  31.082   8.726
 2133POPC   D2A31120  19.158  30.929   8.320
 2133POPC   C3A31121  18.873  30.779   7.999
 2133POPC   C4A31122  19.011  30.750   7.562
 2133POPC   C1B31123  19.529  30.536   8.822
 2133POPC   C2B31124  19.525  30.567   8.362
 2133POPC   C3B31125  19.327  30.524   7.947
 2133POPC   C4B31126  19.379  30.388   7.489
 2134POPC   NC331127  44.307   8.780   9.558
 2134POPC   PO431128  43.771   9.239   9.603
 2134POPC   GL131129  43.643   9.082   9.189
 2134POPC   GL231130  43.450   8.754   9.094
 2134POPC   C1A31131  43.828   9.173   8.795
 2134POPC   D2A31132  43.702   9.278   8.392
 2134POPC   C3A31133  44.022   9.206   8.110
 2134POPC   C4A31134  43.995   9.075   7.712
 2134POPC   C1B31135  43.849   8.663   8.871
 2134POPC   C2B31136  43.977   8.691   8.425
 2134POPC   C3B31137  43.789   8.667   7.996
 2134POPC   C4B31138  43.614   8.505   7.596
 2135POPC   NC331139   3.766  10.859   9.439
 2135POPC   PO431140   3.160  10.526   9.528
 2135POPC   GL131141   3.392  10.426   9.116
 2135POPC   GL231142   3.669  10.638   9.012
 2135POPC   C1A31143   3.513  10.349   8.649
 2135POPC   D2A31144   3.323  10.657   8.374
 2135POPC   C3A31145   3.391  10.828   7.981
 2135POPC   C4A31146   3.199  10.704   7.603
 2135POPC   C1B31147   3.796  10.794   8.622
 2135POPC   C2B31148   3.814  10.563   8.243
 2135POPC   C3B31149   3.705  10.465   7.833
 2135POPC   C4B31150   3.970  10.781   7.618
 2136POPC   NC331151  26.546   9.297   9.480
 2136POPC   PO431152  26.820   8.653   9.643
 2136POPC   GL131153  26.749   8.711   9.202
 2136POPC   GL231154  26.797   9.057   9.097
 2136POPC   C1A31155  26.728   8.652   8.766
 2136POPC   D2A31156  26.836   8.924   8.424
 2136POPC   C3A31157  26.786   8.830   7.991
 2136POPC   C4A31158  26.623   8.848   7.560
 2136POPC   C1B31159  26.751   9.326   8.730
 2136POPC   C2B31160  26.446   9.388   8.391
 2136POPC   C3B31161  26.365   9.169   8.012
 2136POPC   C4B31162  26.368   9.310   7.572
 2137POPC   NC331163  20.229  29.022   9.648
 2137POPC   PO431164  20.712  29.393   9.658
 2137POPC   GL131165  20.700  29.154   9.232
 2137POPC   GL231166  20.400  28.958   9.116
 2137POPC   C1A31167  20.703  29.181   8.757
 2137POPC   D2A31168  20.954  29.238   8.387
 2137POPC   C3A31169  20.757  29.189   7.985
 2137POPC   C4A31170  20.425  29.430   7.853
 2137POPC   C1B31171  20.249  28.939   8.647
 2137POPC   C2B31172  20.307  29.040   8.194
 2137POPC   C3B31173  20.335  28.925   7.742
 2137POPC   C4B31174  20.234  28.894   7.279
 2138POPC   NC331175  44.363  31.833   9.553
 2138POPC   PO431176  44.799  32.385   9.618
 2138POPC   GL131177  44.787  32.473   9.182
 2138POPC   GL231178  44.607  32.198   9.102
 2138POPC   C1A31179  44.839  32.610   8.770
 2138POPC   D2A31180  44.600  32.405   8.448
 2138POPC   C3A31181  44.740  32.403   8.042
 2138POPC   C4A31182  44.520  32.436   7.671
 2138POPC   C1B31183  44.891  32.114   8.780
 2138POPC   C2B31184  44.852  31.957   8.386
 2138POPC   C3B31185  44.496  31.923   8.126
 2138POPC   C4B31186  44.473  31.914   7.705
 2139POPC   NC331187   1.941   0.155   9.535
 2139POPC   PO431188   1.495   0.733   9.491
 2139POPC   GL131189   1.815   0.557   9.191
 2139POPC   GL231190   2.070   0.316   9.078
 2139POPC   C1A31191   1.761   0.513   8.735
 2139POPC   D2A31192   1.862   0.823   8.439
 2139POPC   C3A31193   1.962   0.612   8.109
 2139POPC   C4A31194   1.880   0.479   7.734
 2139POPC   C1B31195   2.112   0.074   8.737
 2139POPC   C2B31196   1.928   0.148   8.346
 2139POPC   C3B31197   2.131   0.106   7.965
 2139POPC   C4B31198   1.991  44.831   7.655
 2140POPC   NC331199  41.187   0.842   9.677
 2140POPC   PO431200  41.841   0.571   9.599
 2140POPC   GL131201  41.629   0.608   9.202
 2140POPC   GL231202  41.288   0.549   9.151
 2140POPC   C1A31203  41.714   0.498   8.804
 2140POPC   D2A31204  41.697   0.220   8.459
 2140POPC   C3A31205  41.718   0.436   8.058
 2140POPC   C4A31206  41.738   0.682   7.682
 2140POPC   C1B31207  41.205   0.360   8.732
 2140POPC   C2B31208  41.264   0.472   8.315
 2140POPC   C3B31209  41.186   0.442   7.871
 2140POPC   C4B31210  41.204   0.667   7.491
 2141POPC   NC331211  20.892  42.682   9.438
 2141POPC   PO431212  20.575  43.344   9.525
 2141POPC   GL131213  20.868  43.363   9.172
 2141POPC   GL231214  20.930  43.035   9.060
 2141POPC   C1A31215  20.739  43.425   8.749
 2141POPC   D2A31216  20.587  43.361   8.348
 2141POPC   C3A31217  20.886  43.411   8.009
 2141POPC   C4A31218  20.799  43.629   7.624
 2141POPC   C1B31219  20.766  42.926   8.633
 2141POPC   C2B31220  20.892  42.906   8.187
 2141POPC   C3B31221  20.874  42.861   7.706
 2141POPC   C4B31222  20.851  42.802   7.252
 2142POPC   NC331223   8.347  11.027   9.560
 2142POPC   PO431224   8.041  11.653   9.381
 2142POPC   GL131225   8.229  11.325   9.182
 2142POPC   GL231226   7.929  11.165   9.124
 2142POPC   C1A31227   8.347  11.127   8.822
 2142POPC   D2A31228   8.351  11.316   8.450
 2142POPC   C3A31229   8.457  11.066   8.143
 2142POPC   C4A31230   8.189  11.206   7.830
 2142POPC   C1B31231   7.984  11.501   8.775
 2142POPC   C2B31232   8.129  11.808   8.498
 2142POPC   C3B31233   8.073  11.626   8.105
 2142POPC   C4B31234   7.972  11.795   7.683
 2143POPC   NC331235  36.566   5.266   9.548
 2143POPC   PO431236  37.144   4.929   9.707
 2143POPC   GL131237  37.013   5.149   9.317
 2143POPC   GL231238  36.724   5.012   9.130
 2143POPC   C1A31239  37.102   5.247   8.886
 2143POPC   D2A31240  37.082   5.169   8.460
 2143POPC   C3A31241  37.138   4.873   8.129
 2143POPC   C4A31242  36.854   5.064   7.845
 2143POPC   C1B31243  36.821   4.797   8.726
 2143POPC   C2B31244  36.719   4.640   8.305
 2143POPC   C3B31245  36.525   4.639   7.864
 2143POPC   C4B31246  36.583   4.896   7.462
 2144POPC   NC331247   8.309  30.323   9.531
 2144POPC   PO431248   7.802  29.840   9.568
 2144POPC   GL131249   8.129  29.852   9.253
 2144POPC   GL231250   8.476  29.695   9.257
 2144POPC   C1A31251   8.191  29.950   8.835
 2144POPC   D2A31252   8.153  30.188   8.458
 2144POPC   C3A31253   8.123  30.037   8.050
 2144POPC   C4A31254   8.261  30.299   7.697
 2144POPC   C1B31255   8.694  29.721   8.831
 2144POPC   C2B31256   8.714  29.522   8.399
 2144POPC   C3B31257   8.509  29.677   8.013
 2144POPC   C4B31258   8.270  29.777   7.629
 2145POPC   NC331259  33.446  22.054   9.547
 2145POPC   PO431260  34.098  22.279   9.499
 2145POPC   GL131261  33.833  22.177   9.180
 2145POPC   GL231262  34.036  21.931   9.060
 2145POPC   C1A31263  33.735  22.264   8.748
 2145POPC   D2A31264  33.888  22.301   8.339
 2145POPC   C3A31265  33.667  22.241   7.996
 2145POPC   C4A31266  33.659  22.251   7.575
 2145POPC   C1B31267  34.166  21.706   8.722
 2145POPC   C2B31268  34.174  21.856   8.298
 2145POPC   C3B31269  34.095  21.961   7.871
 2145POPC   C4B31270  34.010  21.924   7.435
 2146POPC   NC331271  38.361  42.608   9.589
 2146POPC   PO431272  38.469  43.239   9.543
 2146POPC   GL131273  38.458  42.941   9.209
 2146POPC   GL231274  38.749  42.668   9.252
 2146POPC   C1A31275  38.345  43.062   8.790
 2146POPC   D2A31276  38.358  43.263   8.417
 2146POPC   C3A31277  38.292  42.960   8.093
 2146POPC   C4A31278  38.380  43.010   7.659
 2146POPC   C1B31279  38.819  42.893   8.849
 2146POPC   C2B31280  38.785  43.000   8.419
 2146POPC   C3B31281  38.725  43.246   8.036
 2146POPC   C4B31282  38.880  43.177   7.619
 2147POPC   NC331283   4.853  43.370   9.398
 2147POPC   PO431284   4.747  42.694   9.550
 2147POPC   GL131285   4.893  42.860   9.148
 2147POPC   GL231286   4.628  43.079   9.021
 2147POPC   C1A31287   4.958  42.856   8.682
 2147POPC   D2A31288   4.938  42.849   8.228
 2147POPC   C3A31289   5.294  42.953   7.976
 2147POPC   C4A31290   5.329  43.011   7.559
 2147POPC   C1B31291   4.933  43.363   8.782
 2147POPC   C2B31292   4.960  43.570   8.421
 2147POPC   C3B31293   4.923  43.347   8.068
 2147POPC   C4B31294   5.059  43.405   7.700
 2148POPC   NC331295   3.679  42.174   9.470
 2148POPC   PO431296   3.293  42.718   9.319
 2148POPC   GL131297   3.492  42.419   9.070
 2148POPC   GL231298   3.832  42.464   9.066
 2148POPC   C1A31299   3.539  42.178   8.706
 2148POPC   D2A31300   3.598  42.321   8.310
 2148POPC   C3A31301   3.432  42.113   7.942
 2148POPC   C4A31302   3.276  42.189   7.541
 2148POPC   C1B31303   4.030  42.323   8.691
 2148POPC   C2B31304   4.092  42.487   8.291
 2148POPC   C3B31305   3.874  42.530   7.929
 2148POPC   C4B31306   3.704  42.468   7.537
 2149POPC   NC331307  19.236  11.424   9.548
 2149POPC   PO431308  18.676  11.365   9.245
 2149POPC   GL131309  19.073  11.329   9.055
 2149POPC   GL231310  19.266  11.655   9.088
 2149POPC   C1A31311  19.176  11.279   8.619
 2149POPC   D2A31312  19.427  11.207   8.250
 2149POPC   C3A31313  19.171  11.033   7.946
 2149POPC   C4A31314  18.820  10.974   7.746
 2149POPC   C1B31315  18.966  11.735   8.743
 2149POPC   C2B31316  19.017  11.665   8.296
 2149POPC   C3B31317  19.144  11.570   7.893
 2149POPC   C4B31318  19.492  11.347   7.745
 2150POPC   NC331319   4.989  12.375   9.447
 2150POPC   PO431320   4.735  11.744   9.604
 2150POPC   GL131321   4.838  11.918   9.230
 2150POPC   GL231322   5.201  11.932   9.218
 2150POPC   C1A31323   4.840  12.038   8.800
 2150POPC   D2A31324   5.151  12.018   8.439
 2150POPC   C3A31325   4.963  12.005   8.046
 2150POPC   C4A31326   4.706  11.861   7.709
 2150POPC   C1B31327   5.317  12.215   8.873
 2150POPC   C2B31328   5.329  12.489   8.529
 2150POPC   C3B31329   5.395  12.348   8.110
 2150POPC   C4B31330   5.292  12.513   7.725
 2151POPC   NC331331  19.700  13.635   9.566
 2151POPC   PO431332  20.063  13.260   9.104
 2151POPC   GL131333  19.754  13.576   8.985
 2151POPC   GL231334  19.579  13.849   9.117
 2151POPC   C1A31335  19.770  13.690   8.539
 2151POPC   D2A31336  20.104  13.460   8.386
 2151POPC   C3A31337  20.156  13.375   7.961
 2151POPC   C4A31338  20.017  13.708   7.728
 2151POPC   C1B31339  19.359  13.931   8.752
 2151POPC   C2B31340  19.388  13.975   8.308
 2151POPC   C3B31341  19.533  13.782   7.934
 2151POPC   C4B31342  19.588  13.800   7.469
 2152POPC   NC331343  14.873  16.364   9.523
 2152POPC   PO431344  15.480  16.079   9.665
 2152POPC   GL131345  15.282  16.145   9.268
 2152POPC   GL231346  15.257  15.794   9.165
 2152POPC   C1A31347  15.428  16.182   8.845
 2152POPC   D2A31348  15.510  15.874   8.602
 2152POPC   C3A31349  15.253  15.977   8.274
 2152POPC   C4A31350  15.352  16.153   7.866
 2152POPC   C1B31351  14.950  15.654   8.853
 2152POPC   C2B31352  14.804  15.732   8.454
 2152POPC   C3B31353  14.927  15.635   8.054
 2152POPC   C4B31354  14.926  15.907   7.730
 2153POPC   NC331355   7.563  10.568   9.614
 2153POPC   PO431356   6.850  10.520   9.647
 2153POPC   GL131357   7.241  10.594   9.208
 2153POPC   GL231358   7.560  10.425   9.137
 2153POPC   C1A31359   7.422  10.692   8.743
 2153POPC   D2A31360   7.402  10.444   8.347
 2153POPC   C3A31361   7.575  10.616   7.982
 2153POPC   C4A31362   7.382  10.701   7.580
 2153POPC   C1B31363   7.744  10.281   8.756
 2153POPC   C2B31364   7.904  10.327   8.341
 2153POPC   C3B31365   7.778  10.136   7.947
 2153POPC   C4B31366   7.722  10.295   7.546
 2154POPC   NC331367  18.220  32.420   9.528
 2154POPC   PO431368  18.826  32.687   9.326
 2154POPC   GL131369  18.451  32.510   9.067
 2154POPC   GL231370  18.308  32.215   9.080
 2154POPC   C1A31371  18.114  32.492   8.727
 2154POPC   D2A31372  18.090  32.237   8.387
 2154POPC   C3A31373  18.300  32.434   8.076
 2154POPC   C4A31374  18.351  32.227   7.734
 2154POPC   C1B31375  18.544  32.051   8.766
 2154POPC   C2B31376  18.609  32.152   8.379
 2154POPC   C3B31377  18.589  31.888   8.083
 2154POPC   C4B31378  18.668  31.807   7.709
 2155POPC   NC331379   8.436  19.654   9.588
 2155POPC   PO431380   7.806  19.831   9.489
 2155POPC   GL131381   8.142  19.943   9.210
 2155POPC   GL231382   8.413  19.689   9.093
 2155POPC   C1A31383   8.027  19.974   8.782
 2155POPC   D2A31384   7.856  20.132   8.410
 2155POPC   C3A31385   8.020  19.869   8.120
 2155POPC   C4A31386   8.095  19.692   7.737
 2155POPC   C1B31387   8.522  20.059   8.860
 2155POPC   C2B31388   8.385  20.113   8.422
 2155POPC   C3B31389   8.537  19.814   8.116
 2155POPC   C4B31390   8.667  19.775   7.692
 2156POPC   NC331391  13.758  14.843   9.375
 2156POPC   PO431392  13.649  14.217   9.501
 2156POPC   GL131393  13.737  14.398   9.133
 2156POPC   GL231394  13.426  14.546   9.096
 2156POPC   C1A31395  13.945  14.342   8.759
 2156POPC   D2A31396  13.989  14.459   8.343
 2156POPC   C3A31397  14.065  14.104   8.111
 2156POPC   C4A31398  13.931  14.003   7.705
 2156POPC   C1B31399  13.436  14.513   8.660
 2156POPC   C2B31400  13.487  14.451   8.229
 2156POPC   C3B31401  13.638  14.474   7.790
 2156POPC   C4B31402  13.361  14.487   7.420
 2157POPC   NC331403  27.979  26.108   9.383
 2157POPC   PO431404  27.329  26.321   9.338
 2157POPC   GL131405  27.525  25.980   9.117
 2157POPC   GL231406  27.280  25.681   9.115
 2157POPC   C1A31407  27.749  26.025   8.698
 2157POPC   D2A31408  27.798  26.268   8.300
 2157POPC   C3A31409  27.717  26.031   7.917
 2157POPC   C4A31410  27.975  25.742   7.668
 2157POPC   C1B31411  27.243  25.904   8.708
 2157POPC   C2B31412  27.370  25.875   8.287
 2157POPC   C3B31413  27.194  26.055   7.928
 2157POPC   C4B31414  27.344  25.867   7.567
 2158POPC   NC331415  27.948   8.117   9.577
 2158POPC   PO431416  28.263   8.681   9.559
 2158POPC   GL131417  28.375   8.330   9.263
 2158POPC   GL231418  28.125   8.101   9.107
 2158POPC   C1A31419  28.435   8.371   8.802
 2158POPC   D2A31420  28.150   8.556   8.491
 2158POPC   C3A31421  28.265   8.491   8.054
 2158POPC   C4A31422  28.642   8.485   7.772
 2158POPC   C1B31423  28.056   8.027   8.682
 2158POPC   C2B31424  28.309   7.959   8.298
 2158POPC   C3B31425  28.359   8.024   7.840
 2158POPC   C4B31426  28.157   7.884   7.448
 2159POPC   NC331427  22.273  38.280   9.300
 2159POPC   PO431428  21.761  38.691   9.593
 2159POPC   GL131429  21.988  38.698   9.168
 2159POPC   GL231430  22.369  38.770   9.213
 2159POPC   C1A31431  21.981  38.450   8.736
 2159POPC   D2A31432  21.840  38.379   8.276
 2159POPC   C3A31433  21.924  38.549   7.816
 2159POPC   C4A31434  21.682  38.605   7.417
 2159POPC   C1B31435  22.460  38.623   8.766
 2159POPC   C2B31436  22.364  38.338   8.414
 2159POPC   C3B31437  22.267  38.235   8.001
 2159POPC   C4B31438  22.457  38.577   7.746
 2160POPC   NC331439   9.700  44.439   9.410
 2160POPC   PO431440   9.483   0.140   9.472
 2160POPC   GL131441   9.683  44.863   9.132
 2160POPC   GL231442  10.002  44.839   8.942
 2160POPC   C1A31443   9.582  44.669   8.712
 2160POPC   D2A31444   9.976  44.656   8.422
 2160POPC   C3A31445   9.922  44.770   8.016
 2160POPC   C4A31446   9.505  44.684   7.965
 2160POPC   C1B31447   9.962  44.344   8.822
 2160POPC   C2B31448   9.849  44.089   8.470
 2160POPC   C3B31449   9.863  44.254   8.063
 2160POPC   C4B31450   9.726  44.208   7.646
 2161POPC   NC331451  36.713  17.720   9.431
 2161POPC   PO431452  37.005  17.078   9.481
 2161POPC   GL131453  36.847  17.294   9.142
 2161POPC   GL231454  36.801  17.005   8.999
 2161POPC   C1A31455  36.981  17.546   8.769
 2161POPC   D2A31456  37.021  17.776   8.374
 2161POPC   C3A31457  36.860  17.670   7.954
 2161POPC   C4A31458  37.078  17.542   7.551
 2161POPC   C1B31459  36.650  17.177   8.654
 2161POPC   C2B31460  36.920  17.247   8.289
 2161POPC   C3B31461  36.953  17.130   7.841
 2161POPC   C4B31462  37.172  17.040   7.431
 2162POPC   NC331463  29.064  14.526   9.589
 2162POPC   PO431464  29.458  14.009   9.412
 2162POPC   GL131465  29.074  14.207   9.179
 2162POPC   GL231466  28.846  14.530   9.144
 2162POPC   C1A31467  29.078  14.282   8.756
 2162POPC   D2A31468  29.321  14.538   8.481
 2162POPC   C3A31469  29.157  14.447   8.108
 2162POPC   C4A31470  29.174  14.142   7.790
 2162POPC   C1B31471  28.960  14.778   8.772
 2162POPC   C2B31472  28.989  14.943   8.344
 2162POPC   C3B31473  28.918  14.838   7.897
 2162POPC   C4B31474  29.254  14.627   7.655
 2163POPC   NC331475  14.014  24.082   9.585
 2163POPC   PO431476  14.538  23.564   9.514
 2163POPC   GL131477  14.546  23.796   9.170
 2163POPC   GL231478  14.208  23.874   9.162
 2163POPC   C1A31479  14.568  23.666   8.732
 2163POPC   D2A31480  14.741  23.700   8.315
 2163POPC   C3A31481  14.539  23.401   8.016
 2163POPC   C4A31482  14.161  23.442   7.867
 2163POPC   C1B31483  14.076  23.826   8.738
 2163POPC   C2B31484  14.204  23.668   8.340
 2163POPC   C3B31485  14.370  23.888   7.990
 2163POPC   C4B31486  14.080  24.070   7.768
 2164POPC   NC331487  17.031  12.400   9.516
 2164POPC   PO431488  16.643  12.998   9.441
 2164POPC   GL131489  16.597  12.720   9.106
 2164POPC   GL231490  16.938  12.603   9.030
 2164POPC   C1A31491  16.562  12.845   8.671
 2164POPC   D2A31492  16.695  12.932   8.237
 2164POPC   C3A31493  16.411  12.714   7.939
 2164POPC   C4A31494  16.322  12.721   7.448
 2164POPC   C1B31495  17.066  12.713   8.596
 2164POPC   C2B31496  17.243  12.981   8.269
 2164POPC   C3B31497  17.052  13.044   7.865
 2164POPC   C4B31498  16.602  13.140   7.697
 2165POPC   NC331499  18.746  13.474   9.820
 2165POPC   PO431500  19.257  13.774   9.510
 2165POPC   GL131501  19.043  13.856   9.149
 2165POPC   GL231502  19.210  13.507   9.050
 2165POPC   C1A31503  18.880  13.736   8.738
 2165POPC   D2A31504  19.052  13.583   8.380
 2165POPC   C3A31505  18.971  13.791   8.033
 2165POPC   C4A31506  19.113  13.792   7.629
 2165POPC   C1B31507  19.394  13.381   8.688
 2165POPC   C2B31508  19.490  13.348   8.253
 2165POPC   C3B31509  19.223  13.368   7.896
 2165POPC   C4B31510  19.342  13.372   7.411
 2166POPC   NC331511  11.920  22.951   9.343
 2166POPC   PO431512  12.435  22.601   9.532
 2166POPC   GL131513  12.282  22.673   9.112
 2166POPC   GL231514  12.401  23.016   9.070
 2166POPC   C1A31515  11.985  22.764   8.723
 2166POPC   D2A31516  12.070  22.812   8.299
 2166POPC   C3A31517  11.861  22.957   7.923
 2166POPC   C4A31518  11.886  23.109   7.491
 2166POPC   C1B31519  12.479  22.831   8.653
 2166POPC   C2B31520  12.560  22.892   8.232
 2166POPC   C3B31521  12.355  23.080   7.888
 2166POPC   C4B31522  12.379  23.241   7.481
 2167POPC   NC331523  23.247  14.094   9.579
 2167POPC   PO431524  23.102  14.755   9.466
 2167POPC   GL131525  23.046  14.545   9.101
 2167POPC   GL231526  22.906  14.190   9.149
 2167POPC   C1A31527  22.868  14.489   8.703
 2167POPC   D2A31528  22.940  14.575   8.290
 2167POPC   C3A31529  22.638  14.432   8.026
 2167POPC   C4A31530  22.767  14.653   7.708
 2167POPC   C1B31531  23.085  14.012   8.725
 2167POPC   C2B31532  22.967  14.065   8.275
 2167POPC   C3B31533  23.070  14.141   7.825
 2167POPC   C4B31534  23.368  14.009   7.468
 2168POPC   NC331535   2.173  19.444   9.543
 2168POPC   PO431536   2.147  20.141   9.437
 2168POPC   GL131537   1.995  20.103   9.035
 2168POPC   GL231538   1.999  19.731   9.065
 2168POPC   C1A31539   2.037  20.144   8.591
 2168POPC   D2A31540   2.165  19.922   8.229
 2168POPC   C3A31541   2.055  19.843   7.805
 2168POPC   C4A31542   2.289  19.659   7.434
 2168POPC   C1B31543   1.929  19.611   8.630
 2168POPC   C2B31544   1.719  19.353   8.317
 2168POPC   C3B31545   1.721  19.454   7.892
 2168POPC   C4B31546   1.815  19.246   7.519
 2169POPC   NC331547   6.489  25.191   9.745
 2169POPC   PO431548   6.961  25.502   9.416
 2169POPC   GL131549   6.775  25.271   9.087
 2169POPC   GL231550   6.419  25.195   9.234
 2169POPC   C1A31551   6.711  25.311   8.592
 2169POPC   D2A31552   6.378  25.239   8.301
 2169POPC   C3A31553   6.524  25.410   7.901
 2169POPC   C4A31554   6.945  25.326   7.729
 2169POPC   C1B31555   6.447  24.985   8.839
 2169POPC   C2B31556   6.756  24.826   8.470
 2169POPC   C3B31557   6.719  24.945   8.022
 2169POPC   C4B31558   6.250  24.945   7.875
 2170POPC   NC331559  11.400  17.023   9.258
 2170POPC   PO431560  11.026  16.509   9.507
 2170POPC   GL131561  11.054  16.665   9.110
 2170POPC   GL231562  11.373  16.528   9.127
 2170POPC   C1A31563  11.202  16.808   8.685
 2170POPC   D2A31564  11.474  17.032   8.389
 2170POPC   C3A31565  11.346  16.892   7.985
 2170POPC   C4A31566  11.397  16.880   7.551
 2170POPC   C1B31567  11.240  16.289   8.807
 2170POPC   C2B31568  11.367  16.262   8.382
 2170POPC   C3B31569  11.168  16.401   8.012
 2170POPC   C4B31570  11.347  16.371   7.624
 2171POPC   NC331571  38.549  13.730   9.252
 2171POPC   PO431572  38.056  13.349   9.542
 2171POPC   GL131573  38.187  13.290   9.122
 2171POPC   GL231574  38.101  13.633   8.974
 2171POPC   C1A31575  38.352  13.253   8.705
 2171POPC   D2A31576  38.647  13.348   8.374
 2171POPC   C3A31577  38.391  13.428   8.030
 2171POPC   C4A31578  38.207  13.737   7.844
 2171POPC   C1B31579  38.419  13.745   8.625
 2171POPC   C2B31580  38.531  13.864   8.227
 2171POPC   C3B31581  38.731  13.789   7.837
 2171POPC   C4B31582  38.872  13.818   7.386
 2172POPC   NC331583  32.582   3.856   9.529
 2172POPC   PO431584  32.126   3.385   9.677
 2172POPC   GL131585  32.309   3.296   9.242
 2172POPC   GL231586  32.389   3.646   9.109
 2172POPC   C1A31587  32.338   3.273   8.758
 2172POPC   D2A31588  32.213   3.478   8.372
 2172POPC   C3A31589  32.252   3.289   7.961
 2172POPC   C4A31590  32.238   3.087   7.542
 2172POPC   C1B31591  32.175   3.843   8.754
 2172POPC   C2B31592  32.167   3.982   8.312
 2172POPC   C3B31593  32.181   3.786   7.949
 2172POPC   C4B31594  32.384   3.609   7.597
 2173POPC   NC331595  16.737  14.762   9.507
 2173POPC   PO431596  16.544  15.366   9.732
 2173POPC   GL131597  16.720  15.221   9.301
 2173POPC   GL231598  16.580  15.424   9.053
 2173POPC   C1A31599  16.647  14.954   8.894
 2173POPC   D2A31600  16.730  15.269   8.574
 2173POPC   C3A31601  16.731  15.175   8.159
 2173POPC   C4A31602  16.762  14.971   7.768
 2173POPC   C1B31603  16.388  15.631   8.707
 2173POPC   C2B31604  16.279  15.406   8.324
 2173POPC   C3B31605  16.468  15.573   7.957
 2173POPC   C4B31606  16.875  15.472   7.771
 2174POPC   NC331607   9.032   7.794   9.475
 2174POPC   PO431608   9.162   8.328   9.528
 2174POPC   GL131609   9.028   8.444   9.117
 2174POPC   GL231610   8.933   8.121   9.026
 2174POPC   C1A31611   8.788   8.554   8.736
 2174POPC   D2A31612   8.742   8.333   8.330
 2174POPC   C3A31613   8.953   8.377   7.924
 2174POPC   C4A31614   8.858   8.231   7.510
 2174POPC   C1B31615   9.154   8.229   8.633
 2174POPC   C2B31616   9.180   8.030   8.239
 2174POPC   C3B31617   9.227   7.966   7.785
 2174POPC   C4B31618   9.374   8.183   7.409
 2175POPC   NC331619  15.499  42.192   9.528
 2175POPC   PO431620  15.920  42.596   9.195
 2175POPC   GL131621  15.834  42.187   9.080
 2175POPC   GL231622  16.164  42.099   9.197
 2175POPC   C1A31623  15.938  42.193   8.635
 2175POPC   D2A31624  16.097  42.593   8.411
 2175POPC   C3A31625  15.985  42.616   7.984
 2175POPC   C4A31626  15.555  42.471   7.983
 2175POPC   C1B31627  16.378  41.977   8.816
 2175POPC   C2B31628  16.350  41.942   8.329
 2175POPC   C3B31629  16.212  42.037   7.855
 2175POPC   C4B31630  16.105  41.956   7.388
 2176POPC   NC331631  31.655  17.221   9.795
 2176POPC   PO431632  32.246  17.488   9.482
 2176POPC   GL131633  32.218  17.442   9.032
 2176POPC   GL231634  32.476  17.249   9.048
 2176POPC   C1A31635  32.379  17.507   8.612
 2176POPC   D2A31636  32.265  17.771   8.266
 2176POPC   C3A31637  32.371  17.476   7.967
 2176POPC   C4A31638  32.079  17.161   7.859
 2176POPC   C1B31639  32.696  17.076   8.725
 2176POPC   C2B31640  32.740  17.206   8.317
 2176POPC   C3B31641  32.585  17.005   7.932
 2176POPC   C4B31642  32.633  17.151   7.533
 2177POPC   NC331643  12.863  36.889   9.624
 2177POPC   PO431644  12.389  37.274   9.537
 2177POPC   GL131645  12.494  36.826   9.275
 2177POPC   GL231646  12.871  36.720   9.152
 2177POPC   C1A31647  12.475  36.605   8.858
 2177POPC   D2A31648  12.648  36.820   8.507
 2177POPC   C3A31649  12.649  36.662   8.091
 2177POPC   C4A31650  12.813  36.473   7.724
 2177POPC   C1B31651  13.158  36.813   8.794
 2177POPC   C2B31652  13.259  37.038   8.381
 2177POPC   C3B31653  13.063  36.965   7.964
 2177POPC   C4B31654  13.093  36.877   7.490
 2178POPC   NC331655  34.050  24.493   9.460
 2178POPC   PO431656  33.488  24.763   9.356
 2178POPC   GL131657  33.650  24.353   9.157
 2178POPC   GL231658  33.950  24.093   9.174
 2178POPC   C1A31659  33.734  24.464   8.781
 2178POPC   D2A31660  33.512  24.598   8.475
 2178POPC   C3A31661  33.676  24.751   8.118
 2178POPC   C4A31662  33.615  24.603   7.740
 2178POPC   C1B31663  34.027  24.069   8.754
 2178POPC   C2B31664  33.767  24.137   8.383
 2178POPC   C3B31665  33.909  24.262   7.987
 2178POPC   C4B31666  34.103  24.626   7.800
 2179POPC   NC331667  15.511  32.889   9.664
 2179POPC   PO431668  14.912  32.802   9.530
 2179POPC   GL131669  15.209  32.996   9.234
 2179POPC   GL231670  15.512  32.787   9.156
 2179POPC   C1A31671  15.102  33.139   8.815
 2179POPC   D2A31672  15.299  33.237   8.414
 2179POPC   C3A31673  15.060  33.215   8.051
 2179POPC   C4A31674  15.154  33.216   7.634
 2179POPC   C1B31675  15.594  32.974   8.746
 2179POPC   C2B31676  15.587  32.817   8.302
 2179POPC   C3B31677  15.583  33.069   7.918
 2179POPC   C4B31678  15.597  32.882   7.498
 2180POPC   NC331679  12.501  43.022   9.481
 2180POPC   PO431680  13.188  43.323   9.485
 2180POPC   GL131681  12.889  43.272   9.172
 2180POPC   GL231682  12.866  42.957   9.127
 2180POPC   C1A31683  12.776  43.341   8.759
 2180POPC   D2A31684  12.983  43.225   8.396
 2180POPC   C3A31685  12.803  43.420   8.082
 2180POPC   C4A31686  12.940  43.362   7.689
 2180POPC   C1B31687  13.078  42.835   8.756
 2180POPC   C2B31688  12.932  42.722   8.365
 2180POPC   C3B31689  12.846  42.896   7.971
 2180POPC   C4B31690  12.714  42.678   7.624
 2181POPC   NC331691  34.557   0.093   9.593
 2181POPC   PO431692  34.444  44.391   9.574
 2181POPC   GL131693  34.437  44.621   9.193
 2181POPC   GL231694  34.696  44.877   9.112
 2181POPC   C1A31695  34.347  44.616   8.746
 2181POPC   D2A31696  34.574  44.707   8.392
 2181POPC   C3A31697  34.456  44.476   8.062
 2181POPC   C4A31698  34.452  44.752   7.722
 2181POPC   C1B31699  34.574   0.101   8.714
 2181POPC   C2B31700  34.709   0.267   8.303
 2181POPC   C3B31701  34.736   0.171   7.844
 2181POPC   C4B31702  34.479   0.173   7.413
 2182POPC   NC331703  11.669  31.335   9.495
 2182POPC   PO431704  12.302  31.654   9.668
 2182POPC   GL131705  12.202  31.651   9.214
 2182POPC   GL231706  12.096  31.296   9.197
 2182POPC   C1A31707  11.928  31.604   8.808
 2182POPC   D2A31708  11.805  31.406   8.366
 2182POPC   C3A31709  11.993  31.522   7.926
 2182POPC   C4A31710  11.891  31.604   7.444
 2182POPC   C1B31711  12.026  31.107   8.786
 2182POPC   C2B31712  12.225  31.122   8.396
 2182POPC   C3B31713  12.048  31.006   8.019
 2182POPC   C4B31714  12.113  31.020   7.622
 2183POPC   NC331715  29.284  25.794   9.489
 2183POPC   PO431716  29.062  26.382   9.626
 2183POPC   GL131717  29.171  26.192   9.189
 2183POPC   GL231718  28.959  25.852   9.135
 2183POPC   C1A31719  29.358  25.974   8.823
 2183POPC   D2A31720  29.494  26.098   8.415
 2183POPC   C3A31721  29.249  26.074   8.058
 2183POPC   C4A31722  29.171  26.310   7.748
 2183POPC   C1B31723  28.835  25.952   8.803
 2183POPC   C2B31724  28.945  25.991   8.437
 2183POPC   C3B31725  28.809  25.805   8.068
 2183POPC   C4B31726  28.857  25.894   7.659
 2184POPC   NC331727  35.491  32.651   9.707
 2184POPC   PO431728  35.095  32.243   9.726
 2184POPC   GL131729  35.090  32.263   9.209
 2184POPC   GL231730  35.471  32.274   9.092
 2184POPC   C1A31731  35.179  32.106   8.746
 2184POPC   D2A31732  35.410  32.277   8.396
 2184POPC   C3A31733  35.150  32.317   8.046
 2184POPC   C4A31734  35.166  32.112   7.665
 2184POPC   C1B31735  35.574  32.601   8.784
 2184POPC   C2B31736  35.699  32.815   8.430
 2184POPC   C3B31737  35.570  32.644   8.052
 2184POPC   C4B31738  35.425  32.541   7.654
 2185POPC   NC331739  35.035  18.439   9.508
 2185POPC   PO431740  34.479  18.068   9.585
 2185POPC   GL131741  34.623  18.344   9.217
 2185POPC   GL231742  34.682  18.745   9.238
 2185POPC   C1A31743  34.914  18.456   8.859
 2185POPC   D2A31744  34.809  18.589   8.445
 2185POPC   C3A31745  34.815  18.272   8.095
 2185POPC   C4A31746  34.663  18.323   7.669
 2185POPC   C1B31747  34.418  18.673   8.855
 2185POPC   C2B31748  34.277  18.492   8.463
 2185POPC   C3B31749  34.326  18.445   8.034
 2185POPC   C4B31750  34.331  18.705   7.675
 2186POPC   NC331751   0.856   8.607   9.741
 2186POPC   PO431752   1.283   9.060   9.500
 2186POPC   GL131753   1.232   9.094   9.091
 2186POPC   GL231754   0.884   9.129   9.120
 2186POPC   C1A31755   1.454   8.945   8.736
 2186POPC   D2A31756   1.415   9.007   8.314
 2186POPC   C3A31757   1.245   8.720   7.999
 2186POPC   C4A31758   1.322   9.010   7.704
 2186POPC   C1B31759   0.942   9.047   8.688
 2186POPC   C2B31760   0.898   8.981   8.268
 2186POPC   C3B31761   0.852   9.115   7.877
 2186POPC   C4B31762   0.944   9.486   7.707
 2187POPC   NC331763  15.579   1.440   9.590
 2187POPC   PO431764  16.019   1.929   9.685
 2187POPC   GL131765  16.160   1.952   9.226
 2187POPC   GL231766  16.365   1.693   9.089
 2187POPC   C1A31767  16.048   1.974   8.756
 2187POPC   D2A31768  15.855   2.000   8.319
 2187POPC   C3A31769  15.980   2.120   7.889
 2187POPC   C4A31770  15.691   2.356   7.596
 2187POPC   C1B31771  16.529   1.725   8.715
 2187POPC   C2B31772  16.308   1.771   8.348
 2187POPC   C3B31773  16.258   1.571   7.986
 2187POPC   C4B31774  16.340   1.777   7.638
 2188POPC   NC331775  42.540  32.378   9.436
 2188POPC   PO431776  42.014  31.962   9.563
 2188POPC   GL131777  42.252  31.925   9.165
 2188POPC   GL231778  42.616  31.848   9.197
 2188POPC   C1A31779  42.146  32.161   8.777
 2188POPC   D2A31780  42.307  32.440   8.442
 2188POPC   C3A31781  42.218  32.389   7.972
 2188POPC   C4A31782  41.972  32.593   7.615
 2188POPC   C1B31783  42.643  32.070   8.801
 2188POPC   C2B31784  42.444  31.957   8.409
 2188POPC   C3B31785  42.594  32.053   8.033
 2188POPC   C4B31786  42.491  31.929   7.675
 2189POPC   NC331787   8.514  11.888   9.782
 2189POPC   PO431788   9.087  12.154   9.713
 2189POPC   GL131789   8.939  11.920   9.322
 2189POPC   GL231790   8.771  12.208   9.172
 2189POPC   C1A31791   8.965  11.842   8.838
 2189POPC   D2A31792   8.731  11.926   8.432
 2189POPC   C3A31793   8.968  11.993   8.026
 2189POPC   C4A31794   9.149  12.089   7.591
 2189POPC   C1B31795   8.876  12.358   8.745
 2189POPC   C2B31796   8.856  12.556   8.326
 2189POPC   C3B31797   8.946  12.477   7.870
 2189POPC   C4B31798   8.709  12.332   7.512
 2190POPC   NC331799  15.235  19.386   9.512
 2190POPC   PO431800  14.643  19.034   9.683
 2190POPC   GL131801  15.008  18.970   9.280
 2190POPC   GL231802  15.387  19.016   9.197
 2190POPC   C1A31803  15.127  18.809   8.824
 2190POPC   D2A31804  15.348  18.925   8.431
 2190POPC   C3A31805  15.196  18.855   8.010
 2190POPC   C4A31806  15.248  18.995   7.559
 2190POPC   C1B31807  15.635  19.108   8.831
 2190POPC   C2B31808  15.579  19.384   8.463
 2190POPC   C3B31809  15.620  19.203   8.041
 2190POPC   C4B31810  15.773  19.236   7.610
 2191POPC   NC331811  36.709  16.720   9.403
 2191POPC   PO431812  37.358  16.455   9.538
 2191POPC   GL131813  37.056  16.335   9.180
 2191POPC   GL231814  36.658  16.290   9.135
 2191POPC   C1A31815  36.955  16.559   8.806
 2191POPC   D2A31816  36.776  16.729   8.454
 2191POPC   C3A31817  36.938  16.571   8.075
 2191POPC   C4A31818  37.004  16.622   7.673
 2191POPC   C1B31819  36.507  16.334   8.698
 2191POPC   C2B31820  36.457  16.386   8.237
 2191POPC   C3B31821  36.561  16.386   7.779
 2191POPC   C4B31822  36.571  16.461   7.292
 2192POPC   NC331823  25.557   7.186   9.494
 2192POPC   PO431824  24.900   7.417   9.397
 2192POPC   GL131825  25.090   7.596   9.040
 2192POPC   GL231826  25.397   7.629   9.177
 2192POPC   C1A31827  25.260   7.588   8.596
 2192POPC   D2A31828  25.553   7.305   8.354
 2192POPC   C3A31829  25.504   7.243   7.876
 2192POPC   C4A31830  25.219   7.267   7.474
 2192POPC   C1B31831  25.553   7.924   8.868
 2192POPC   C2B31832  25.694   7.842   8.453
 2192POPC   C3B31833  25.491   7.742   8.107
 2192POPC   C4B31834  25.247   7.690   7.772
 2193POPC   NC331835  12.335  36.364   9.519
 2193POPC   PO431836  12.321  35.683   9.577
 2193POPC   GL131837  12.003  35.829   9.227
 2193POPC   GL231838  12.053  36.164   9.123
 2193POPC   C1A31839  11.900  35.815   8.775
 2193POPC   D2A31840  12.190  35.946   8.428
 2193POPC   C3A31841  12.019  36.030   8.033
 2193POPC   C4A31842  12.187  35.872   7.657
 2193POPC   C1B31843  12.039  36.319   8.698
 2193POPC   C2B31844  12.165  36.604   8.395
 2193POPC   C3B31845  12.159  36.539   7.977
 2193POPC   C4B31846  12.306  36.354   7.615
 2194POPC   NC331847  37.519  39.074   9.507
 2194POPC   PO431848  38.024  39.481   9.257
 2194POPC   GL131849  37.690  39.345   9.035
 2194POPC   GL231850  37.423  39.531   9.216
 2194POPC   C1A31851  37.777  39.332   8.578
 2194POPC   D2A31852  38.043  39.336   8.215
 2194POPC   C3A31853  37.872  39.172   7.846
 2194POPC   C4A31854  37.794  39.393   7.476
 2194POPC   C1B31855  37.232  39.446   8.815
 2194POPC   C2B31856  37.235  39.154   8.472
 2194POPC   C3B31857  37.285  39.200   8.041
 2194POPC   C4B31858  37.371  39.164   7.612
 2195POPC   NC331859   1.466   7.946   9.464
 2195POPC   PO431860   1.173   7.287   9.549
 2195POPC   GL131861   1.480   7.465   9.244
 2195POPC   GL231862   1.253   7.681   9.100
 2195POPC   C1A31863   1.614   7.451   8.813
 2195POPC   D2A31864   1.354   7.558   8.476
 2195POPC   C3A31865   1.557   7.546   8.079
 2195POPC   C4A31866   1.367   7.593   7.681
 2195POPC   C1B31867   0.957   7.603   8.833
 2195POPC   C2B31868   0.833   7.526   8.437
 2195POPC   C3B31869   0.986   7.589   8.037
 2195POPC   C4B31870   0.907   7.813   7.660
 2196POPC   NC331871  13.192  39.589   9.432
 2196POPC   PO431872  13.843  39.415   9.419
 2196POPC   GL131873  13.735  39.227   9.038
 2196POPC   GL231874  13.385  39.229   9.076
 2196POPC   C1A31875  13.656  38.996   8.661
 2196POPC   D2A31876  13.381  38.997   8.312
 2196POPC   C3A31877  13.609  39.027   7.951
 2196POPC   C4A31878  14.005  39.153   7.794
 2196POPC   C1B31879  13.410  39.441   8.686
 2196POPC   C2B31880  13.667  39.433   8.318
 2196POPC   C3B31881  13.529  39.540   7.921
 2196POPC   C4B31882  13.548  39.349   7.520
 2197POPC   NC331883   6.176  27.303   9.724
 2197POPC   PO431884   6.782  27.451   9.406
 2197POPC   GL131885   6.722  27.736   9.098
 2197POPC   GL231886   6.425  27.976   9.130
 2197POPC   C1A31887   6.716  27.618   8.691
 2197POPC   D2A31888   6.894  27.701   8.324
 2197POPC   C3A31889   6.888  27.447   7.994
 2197POPC   C4A31890   6.764  27.598   7.639
 2197POPC   C1B31891   6.302  27.898   8.754
 2197POPC   C2B31892   6.434  27.910   8.360
 2197POPC   C3B31893   6.616  27.966   7.975
 2197POPC   C4B31894   6.372  28.136   7.672
 2198POPC   NC331895  31.199  42.584   9.478
 2198POPC   PO431896  31.720  42.111   9.377
 2198POPC   GL131897  31.408  42.293   9.112
 2198POPC   GL231898  31.549  42.619   9.067
 2198POPC   C1A31899  31.194  42.442   8.742
 2198POPC   D2A31900  31.332  42.419   8.329
 2198POPC   C3A31901  31.220  42.570   7.932
 2198POPC   C4A31902  31.309  42.221   7.625
 2198POPC   C1B31903  31.731  42.486   8.680
 2198POPC   C2B31904  31.810  42.555   8.224
 2198POPC   C3B31905  31.790  42.347   7.828
 2198POPC   C4B31906  31.866  42.260   7.377
 2199POPC   NC331907  12.180  16.421   9.429
 2199POPC   PO431908  11.850  17.085   9.393
 2199POPC   GL131909  11.959  16.749   9.078
 2199POPC   GL231910  11.837  16.372   9.075
 2199POPC   C1A31911  12.276  16.580   8.764
 2199POPC   D2A31912  12.412  16.584   8.332
 2199POPC   C3A31913  12.122  16.885   8.128
 2199POPC   C4A31914  11.794  17.146   7.901
 2199POPC   C1B31915  11.698  16.538   8.689
 2199POPC   C2B31916  11.875  16.453   8.294
 2199POPC   C3B31917  11.776  16.307   7.883
 2199POPC   C4B31918  11.824  16.330   7.399
 2200POPC   NC331919   6.101  10.366   9.499
 2200POPC   PO431920   5.420  10.382   9.492
 2200POPC   GL131921   5.737  10.494   9.139
 2200POPC   GL231922   5.921  10.836   9.131
 2200POPC   C1A31923   5.724  10.580   8.683
 2200POPC   D2A31924   5.751  10.289   8.316
 2200POPC   C3A31925   5.679  10.457   7.900
 2200POPC   C4A31926   5.637  10.903   7.799
 2200POPC   C1B31927   6.207  10.647   8.806
 2200POPC   C2B31928   6.206  10.479   8.437
 2200POPC   C3B31929   6.023  10.761   8.167
 2200POPC   C4B31930   6.114  10.724   7.769
 2201POPC   NC331931  20.483   8.408   9.572
 2201POPC   PO431932  20.328   7.789   9.814
 2201POPC   GL131933  20.504   7.900   9.316
 2201POPC   GL231934  20.705   8.193   9.172
 2201POPC   C1A31935  20.603   7.892   8.780
 2201POPC   D2A31936  20.475   7.887   8.286
 2201POPC   C3A31937  20.583   8.025   7.827
 2201POPC   C4A31938  20.336   8.012   7.414
 2201POPC   C1B31939  20.946   8.306   8.799
 2201POPC   C2B31940  20.723   8.323   8.420
 2201POPC   C3B31941  20.608   8.499   8.037
 2201POPC   C4B31942  20.910   8.536   7.725
 2202POPC   NC331943   1.074   5.935   9.521
 2202POPC   PO431944   1.650   5.690   9.409
 2202POPC   GL131945   1.323   5.760   9.113
 2202POPC   GL231946   1.002   5.540   9.205
 2202POPC   C1A31947   1.229   6.053   8.786
 2202POPC   D2A31948   1.108   5.865   8.412
 2202POPC   C3A31949   1.279   5.935   8.023
 2202POPC   C4A31950   1.142   6.296   7.772
 2202POPC   C1B31951   0.841   5.693   8.831
 2202POPC   C2B31952   0.769   5.485   8.429
 2202POPC   C3B31953   0.941   5.524   8.020
 2202POPC   C4B31954   0.896   5.792   7.685
 2203POPC   NC331955  20.041  23.826   9.653
 2203POPC   PO431956  19.366  23.792   9.562
 2203POPC   GL131957  19.607  24.015   9.224
 2203POPC   GL231958  19.943  24.165   9.291
 2203POPC   C1A31959  19.735  23.897   8.785
 2203POPC   D2A31960  19.853  23.807   8.342
 2203POPC   C3A31961  19.642  24.028   7.989
 2203POPC   C4A31962  19.526  23.930   7.543
 2203POPC   C1B31963  20.200  24.057   8.935
 2203POPC   C2B31964  20.238  24.146   8.472
 2203POPC   C3B31965  20.211  24.005   8.005
 2203POPC   C4B31966  20.205  23.858   7.560
 2204POPC   NC331967  29.341  40.564   9.447
 2204POPC   PO431968  29.391  41.179   9.216
 2204POPC   GL131969  29.108  40.967   8.970
 2204POPC   GL231970  29.014  40.647   9.040
 2204POPC   C1A31971  28.858  41.115   8.664
 2204POPC   D2A31972  28.916  41.177   8.247
 2204POPC   C3A31973  29.142  40.888   8.022
 2204POPC   C4A31974  29.313  40.956   7.618
 2204POPC   C1B31975  29.294  40.503   8.694
 2204POPC   C2B31976  29.272  40.368   8.246
 2204POPC   C3B31977  29.388  40.493   7.820
 2204POPC   C4B31978  29.362  40.530   7.356
 2205POPC   NC331979  13.261   9.402   9.309
 2205POPC   PO431980  12.707   9.167   9.484
 2205POPC   GL131981  12.642   8.947   9.111
 2205POPC   GL231982  12.974   8.971   8.985
 2205POPC   C1A31983  12.446   8.803   8.745
 2205POPC   D2A31984  12.403   8.985   8.339
 2205POPC   C3A31985  12.756   8.924   8.054
 2205POPC   C4A31986  12.783   9.113   7.651
 2205POPC   C1B31987  12.918   9.211   8.596
 2205POPC   C2B31988  13.166   9.187   8.229
 2205POPC   C3B31989  13.250   9.151   7.808
 2205POPC   C4B31990  13.246   9.279   7.382
 2206POPC   NC331991  37.881  20.153   9.361
 2206POPC   PO431992  37.789  19.583   9.433
 2206POPC   GL131993  37.499  19.675   9.110
 2206POPC   GL231994  37.290  19.401   8.987
 2206POPC   C1A31995  37.489  19.960   8.764
 2206POPC   D2A31996  37.643  20.219   8.397
 2206POPC   C3A31997  37.776  19.931   8.095
 2206POPC   C4A31998  37.593  19.800   7.734
 2206POPC   C1B31999  37.211  19.496   8.565
 2206POPC   C2B32000  37.405  19.585   8.190
 2206POPC   C3B32001  37.257  19.417   7.816
 2206POPC   C4B32002  37.197  19.366   7.379
 2207POPC   NC332003   3.709  23.104   9.468
 2207POPC   PO432004   3.329  22.545   9.477
 2207POPC   GL132005   3.538  22.742   9.157
 2207POPC   GL232006   3.831  22.679   9.067
 2207POPC   C1A32007   3.542  23.030   8.815
 2207POPC   D2A32008   3.382  22.935   8.431
 2207POPC   C3A32009   3.571  23.073   8.085
 2207POPC   C4A32010   3.455  23.154   7.650
 2207POPC   C1B32011   3.624  22.492   8.690
 2207POPC   C2B32012   3.477  22.468   8.252
 2207POPC   C3B32013   3.517  22.649   7.835
 2207POPC   C4B32014   3.631  22.710   7.413
 2208POPC   NC332015   8.640  27.860   9.638
 2208POPC   PO432016   8.990  28.432   9.473
 2208POPC   GL132017   8.898  28.393   9.087
 2208POPC   GL232018   8.649  28.185   9.140
 2208POPC   C1A32019   9.108  28.415   8.703
 2208POPC   D2A32020   9.393  28.427   8.368
 2208POPC   C3A32021   9.283  28.385   7.928
 2208POPC   C4A32022   9.001  28.632   7.673
 2208POPC   C1B32023   8.791  28.009   8.722
 2208POPC   C2B32024   8.881  27.817   8.382
 2208POPC   C3B32025   8.980  27.980   8.028
 2208POPC   C4B32026   8.808  28.167   7.720
 2209POPC   NC332027  12.897  22.510   9.584
 2209POPC   PO432028  12.581  21.939   9.401
 2209POPC   GL132029  12.667  22.288   9.138
 2209POPC   GL232030  13.037  22.316   9.136
 2209POPC   C1A32031  12.804  22.214   8.701
 2209POPC   D2A32032  13.072  22.357   8.384
 2209POPC   C3A32033  12.844  22.304   7.981
 2209POPC   C4A32034  12.514  22.109   7.753
 2209POPC   C1B32035  13.297  22.064   8.831
 2209POPC   C2B32036  13.140  21.830   8.467
 2209POPC   C3B32037  12.998  21.815   8.041
 2209POPC   C4B32038  13.080  21.997   7.644
 2210POPC   NC332039  20.938  24.268   9.625
 2210POPC   PO432040  20.253  24.236   9.690
 2210POPC   GL132041  20.330  24.520   9.285
 2210POPC   GL232042  20.690  24.588   9.105
 2210POPC   C1A32043  20.278  24.538   8.825
 2210POPC   D2A32044  20.601  24.552   8.516
 2210POPC   C3A32045  20.508  24.411   8.122
 2210POPC   C4A32046  20.376  24.473   7.729
 2210POPC   C1B32047  20.698  24.197   8.864
 2210POPC   C2B32048  20.800  24.075   8.431
 2210POPC   C3B32049  20.909  24.151   7.986
 2210POPC   C4B32050  20.678  24.079   7.608
 2211POPC   NC332051  37.012  14.071   9.473
 2211POPC   PO432052  36.785  14.758   9.565
 2211POPC   GL132053  36.771  14.486   9.235
 2211POPC   GL232054  37.079  14.458   9.164
 2211POPC   C1A32055  36.717  14.456   8.800
 2211POPC   D2A32056  36.881  14.317   8.426
 2211POPC   C3A32057  36.585  14.305   8.114
 2211POPC   C4A32058  36.679  14.412   7.711
 2211POPC   C1B32059  37.248  14.706   8.872
 2211POPC   C2B32060  37.284  14.688   8.418
 2211POPC   C3B32061  37.069  14.568   8.024
 2211POPC   C4B32062  37.169  14.467   7.586
 2212POPC   NC332063  33.122  38.133   9.535
 2212POPC   PO432064  33.046  38.738   9.639
 2212POPC   GL132065  32.917  38.520   9.244
 2212POPC   GL232066  33.222  38.388   9.099
 2212POPC   C1A32067  32.788  38.371   8.817
 2212POPC   D2A32068  33.012  38.216   8.431
 2212POPC   C3A32069  32.787  38.293   8.016
 2212POPC   C4A32070  32.621  38.695   7.841
 2212POPC   C1B32071  33.180  38.674   8.710
 2212POPC   C2B32072  33.025  38.702   8.244
 2212POPC   C3B32073  33.143  38.590   7.784
 2212POPC   C4B32074  33.291  38.675   7.344
 2213POPC   NC332075   4.185  20.802   9.556
 2213POPC   PO432076   4.677  20.336   9.281
 2213POPC   GL132077   4.439  20.698   9.136
 2213POPC   GL232078   4.055  20.725   9.096
 2213POPC   C1A32079   4.441  20.891   8.760
 2213POPC   D2A32080   4.703  20.834   8.419
 2213POPC   C3A32081   4.463  20.733   8.008
 2213POPC   C4A32082   4.326  20.315   7.790
 2213POPC   C1B32083   3.940  20.794   8.735
 2213POPC   C2B32084   4.121  20.608   8.407
 2213POPC   C3B32085   3.938  20.613   8.034
 2213POPC   C4B32086   4.044  20.752   7.710
 2214POPC   NC332087  27.240  19.030   9.541
 2214POPC   PO432088  26.781  18.633   9.726
 2214POPC   GL132089  26.932  18.745   9.249
 2214POPC   GL232090  26.901  19.077   9.111
 2214POPC   C1A32091  26.993  18.626   8.830
 2214POPC   D2A32092  26.814  18.651   8.409
 2214POPC   C3A32093  26.982  18.885   8.048
 2214POPC   C4A32094  26.736  19.053   7.691
 2214POPC   C1B32095  26.869  19.304   8.738
 2214POPC   C2B32096  27.034  19.328   8.335
 2214POPC   C3B32097  27.313  19.304   7.992
 2214POPC   C4B32098  27.112  19.466   7.619
 2215POPC   NC332099  17.572  22.955   9.556
 2215POPC   PO432100  17.898  23.491   9.236
 2215POPC   GL132101  17.675  23.158   9.081
 2215POPC   GL232102  17.354  22.975   9.107
 2215POPC   C1A32103  17.682  22.946   8.689
 2215POPC   D2A32104  17.495  23.057   8.299
 2215POPC   C3A32105  17.454  22.780   7.966
 2215POPC   C4A32106  17.856  22.750   7.770
 2215POPC   C1B32107  17.147  22.968   8.708
 2215POPC   C2B32108  16.986  22.985   8.289
 2215POPC   C3B32109  17.160  23.218   7.937
 2215POPC   C4B32110  17.597  23.225   7.767
 2216POPC   NC332111   3.793  36.317   9.410
 2216POPC   PO432112   3.264  35.791   9.414
 2216POPC   GL132113   3.510  36.023   9.098
 2216POPC   GL232114   3.814  35.858   9.104
 2216POPC   C1A32115   3.605  36.349   8.756
 2216POPC   D2A32116   3.379  36.563   8.396
 2216POPC   C3A32117   3.451  36.321   8.030
 2216POPC   C4A32118   3.183  36.139   7.692
 2216POPC   C1B32119   3.658  35.832   8.658
 2216POPC   C2B32120   3.754  35.922   8.235
 2216POPC   C3B32121   3.564  35.839   7.852
 2216POPC   C4B32122   3.614  35.827   7.435
 2217POPC   NC332123  31.006  23.224   9.496
 2217POPC   PO432124  31.620  22.760   9.454
 2217POPC   GL132125  31.547  22.923   9.090
 2217POPC   GL232126  31.248  23.057   9.048
 2217POPC   C1A32127  31.650  23.020   8.696
 2217POPC   D2A32128  31.603  22.770   8.323
 2217POPC   C3A32129  31.872  22.750   8.016
 2217POPC   C4A32130  31.719  23.120   7.812
 2217POPC   C1B32131  31.161  22.799   8.713
 2217POPC   C2B32132  31.047  22.845   8.313
 2217POPC   C3B32133  31.269  22.935   7.973
 2217POPC   C4B32134  31.274  22.730   7.657
 2218POPC   NC332135  33.389  28.781   9.879
 2218POPC   PO432136  33.757  29.201   9.540
 2218POPC   GL132137  33.803  29.244   9.131
 2218POPC   GL232138  33.845  28.857   9.124
 2218POPC   C1A32139  33.944  29.189   8.727
 2218POPC   D2A32140  33.713  29.177   8.366
 2218POPC   C3A32141  33.888  29.119   7.999
 2218POPC   C4A32142  33.905  29.513   7.825
 2218POPC   C1B32143  33.532  28.892   8.799
 2218POPC   C2B32144  33.332  28.871   8.415
 2218POPC   C3B32145  33.469  28.785   8.002
 2218POPC   C4B32146  33.495  28.772   7.560
 2219POPC   NC332147  34.201   1.707   9.430
 2219POPC   PO432148  33.646   2.122   9.518
 2219POPC   GL132149  33.771   1.883   9.139
 2219POPC   GL232150  34.112   2.058   9.077
 2219POPC   C1A32151  33.634   1.862   8.676
 2219POPC   D2A32152  33.766   2.034   8.242
 2219POPC   C3A32153  33.555   2.340   7.939
 2219POPC   C4A32154  33.494   2.298   7.457
 2219POPC   C1B32155  34.126   1.742   8.743
 2219POPC   C2B32156  33.933   1.554   8.365
 2219POPC   C3B32157  34.026   1.688   7.966
 2219POPC   C4B32158  33.822   1.982   7.688
 2220POPC   NC332159  42.095  10.757   9.783
 2220POPC   PO432160  42.570  11.147   9.522
 2220POPC   GL132161  42.543  11.159   9.082
 2220POPC   GL232162  42.230  11.268   9.088
 2220POPC   C1A32163  42.479  11.210   8.654
 2220POPC   D2A32164  42.758  11.225   8.344
 2220POPC   C3A32165  42.511  11.260   8.003
 2220POPC   C4A32166  42.394  11.637   7.771
 2220POPC   C1B32167  41.991  11.410   8.714
 2220POPC   C2B32168  42.062  11.375   8.258
 2220POPC   C3B32169  42.007  11.307   7.820
 2220POPC   C4B32170  42.015  10.992   7.473
 2221POPC   NC332171  39.843  10.678   9.461
 2221POPC   PO432172  40.432  10.215   9.489
 2221POPC   GL132173  40.213  10.216   9.119
 2221POPC   GL232174  40.248  10.587   9.147
 2221POPC   C1A32175  39.983  10.387   8.749
 2221POPC   D2A32176  39.888  10.800   8.529
 2221POPC   C3A32177  39.883  10.739   8.113
 2221POPC   C4A32178  39.972  10.348   7.910
 2221POPC   C1B32179  40.355  10.723   8.736
 2221POPC   C2B32180  40.336  10.543   8.311
 2221POPC   C3B32181  40.336  10.697   7.892
 2221POPC   C4B32182  40.257  11.060   7.716
 2222POPC   NC332183  30.895  24.531   9.871
 2222POPC   PO432184  31.012  24.549   9.200
 2222POPC   GL132185  30.639  24.636   9.105
 2222POPC   GL232186  30.556  24.345   8.972
 2222POPC   C1A32187  30.619  24.748   8.681
 2222POPC   D2A32188  30.663  24.525   8.330
 2222POPC   C3A32189  30.479  24.670   7.998
 2222POPC   C4A32190  30.803  24.652   7.748
 2222POPC   C1B32191  30.815  24.186   8.682
 2222POPC   C2B32192  30.719  24.017   8.291
 2222POPC   C3B32193  30.665  24.170   7.905
 2222POPC   C4B32194  30.974  23.948   7.685
 2223POPC   NC332195  15.890   8.505   9.340
 2223POPC   PO432196  15.888   7.888   9.419
 2223POPC   GL132197  16.046   8.085   9.008
 2223POPC   GL232198  16.132   8.442   8.892
 2223POPC   C1A32199  16.109   8.040   8.553
 2223POPC   D2A32200  15.950   8.290   8.194
 2223POPC   C3A32201  16.017   8.075   7.810
 2223POPC   C4A32202  16.297   7.741   7.615
 2223POPC   C1B32203  15.734   8.342   8.672
 2223POPC   C2B32204  15.514   8.507   8.330
 2223POPC   C3B32205  15.632   8.590   7.896
 2223POPC   C4B32206  15.746   8.419   7.492
 2224POPC   NC332207   0.215  33.830   9.494
 2224POPC   PO432208   0.844  33.549   9.515
 2224POPC   GL132209   0.635  33.656   9.158
 2224POPC   GL232210   0.356  33.464   9.161
 2224POPC   C1A32211   0.488  33.804   8.751
 2224POPC   D2A32212   0.625  33.683   8.324
 2224POPC   C3A32213   0.621  33.851   7.850
 2224POPC   C4A32214   0.438  33.814   7.409
 2224POPC   C1B32215   0.223  33.373   8.741
 2224POPC   C2B32216   0.182  33.356   8.281
 2224POPC   C3B32217   0.169  33.572   7.870
 2224POPC   C4B32218  44.999  33.534   7.435
 2225POPC   NC332219   4.542  36.604   9.413
 2225POPC   PO432220   4.167  36.009   9.453
 2225POPC   GL132221   4.259  36.239   9.124
 2225POPC   GL232222   4.543  36.006   9.056
 2225POPC   C1A32223   4.100  36.084   8.746
 2225POPC   D2A32224   4.171  36.215   8.358
 2225POPC   C3A32225   4.260  35.934   8.072
 2225POPC   C4A32226   3.982  36.091   7.776
 2225POPC   C1B32227   4.595  36.046   8.610
 2225POPC   C2B32228   4.650  36.354   8.273
 2225POPC   C3B32229   4.502  36.330   7.854
 2225POPC   C4B32230   4.459  35.980   7.588
 2226POPC   NC332231   1.320  32.527   9.560
 2226POPC   PO432232   1.038  33.072   9.748
 2226POPC   GL132233   1.202  33.008   9.295
 2226POPC   GL232234   1.076  32.729   9.148
 2226POPC   C1A32235   1.167  33.072   8.795
 2226POPC   D2A32236   1.025  32.832   8.406
 2226POPC   C3A32237   1.152  33.086   8.038
 2226POPC   C4A32238   1.014  33.182   7.612
 2226POPC   C1B32239   1.454  32.665   8.844
 2226POPC   C2B32240   1.518  32.774   8.417
 2226POPC   C3B32241   1.434  32.647   8.012
 2226POPC   C4B32242   1.471  32.857   7.671
 2227POPC   NC332243   3.937  34.622   9.432
 2227POPC   PO432244   3.316  34.938   9.523
 2227POPC   GL132245   3.341  34.516   9.253
 2227POPC   GL232246   3.534  34.672   9.126
 2227POPC   C1A32247   3.607  34.314   8.819
 2227POPC   D2A32248   3.934  34.490   8.494
 2227POPC   C3A32249   3.739  34.491   8.090
 2227POPC   C4A32250   3.593  34.367   7.680
 2227POPC   C1B32251   3.575  34.815   8.724
 2227POPC   C2B32252   3.651  34.981   8.346
 2227POPC   C3B32253   3.474  34.902   7.955
 2227POPC   C4B32254   3.648  34.862   7.569
 2228POPC   NC332255  25.265  26.180   9.686
 2228POPC   PO432256  25.113  25.567   9.527
 2228POPC   GL132257  25.310  25.840   9.214
 2228POPC   GL232258  25.409  26.196   9.176
 2228POPC   C1A32259  25.445  25.849   8.784
 2228POPC   D2A32260  25.291  25.952   8.369
 2228POPC   C3A32261  25.423  25.766   7.976
 2228POPC   C4A32262  25.316  25.853   7.532
 2228POPC   C1B32263  25.274  26.329   8.738
 2228POPC   C2B32264  25.225  26.452   8.281
 2228POPC   C3B32265  25.368  26.267   7.851
 2228POPC   C4B32266  25.443  26.308   7.341
 2229POPC   NC332267  30.353  25.067   9.495
 2229POPC   PO432268  29.662  25.109   9.594
 2229POPC   GL132269  29.822  25.124   9.176
 2229POPC   GL232270  30.099  25.382   9.166
 2229POPC   C1A32271  29.797  25.304   8.755
 2229POPC   D2A32272  30.000  25.413   8.378
 2229POPC   C3A32273  29.703  25.314   8.062
 2229POPC   C4A32274  29.627  25.420   7.648
 2229POPC   C1B32275  30.327  25.547   8.803
 2229POPC   C2B32276  30.454  25.706   8.424
 2229POPC   C3B32277  30.351  25.731   8.025
 2229POPC   C4B32278  30.125  25.578   7.697
 2230POPC   NC332279  24.112  13.909   9.309
 2230POPC   PO432280  24.712  13.484   9.429
 2230POPC   GL132281  24.600  13.818   9.114
 2230POPC   GL232282  24.349  13.983   8.880
 2230POPC   C1A32283  24.686  13.620   8.737
 2230POPC   D2A32284  24.557  13.351   8.408
 2230POPC   C3A32285  24.553  13.578   7.987
 2230POPC   C4A32286  24.351  13.496   7.577
 2230POPC   C1B32287  24.160  13.651   8.692
 2230POPC   C2B32288  24.124  13.606   8.269
 2230POPC   C3B32289  24.053  13.779   7.894
 2230POPC   C4B32290  23.842  13.687   7.509
 2231POPC   NC332291   0.606  40.213   9.630
 2231POPC   PO432292  44.948  40.177   9.568
 2231POPC   GL132293   0.297  40.071   9.237
 2231POPC   GL232294   0.669  39.927   9.200
 2231POPC   C1A32295   0.292  39.911   8.810
 2231POPC   D2A32296   0.073  39.947   8.427
 2231POPC   C3A32297   0.289  39.834   8.085
 2231POPC   C4A32298   0.391  39.787   7.700
 2231POPC   C1B32299   0.723  40.268   8.898
 2231POPC   C2B32300   0.749  40.388   8.457
 2231POPC   C3B32301   0.632  40.215   8.081
 2231POPC   C4B32302   0.583  40.261   7.666
 2232POPC   NC332303  20.956   1.653   9.460
 2232POPC   PO432304  21.512   1.221   9.505
 2232POPC   GL132305  21.446   1.346   9.098
 2232POPC   GL232306  21.080   1.266   9.075
 2232POPC   C1A32307  21.669   1.260   8.705
 2232POPC   D2A32308  21.746   1.389   8.290
 2232POPC   C3A32309  21.443   1.387   7.982
 2232POPC   C4A32310  21.340   1.165   7.627
 2232POPC   C1B32311  21.191   1.518   8.682
 2232POPC   C2B32312  21.023   1.541   8.239
 2232POPC   C3B32313  21.114   1.716   7.798
 2232POPC   C4B32314  21.111   1.510   7.369
 2233POPC   NC332315  20.678  29.846   9.718
 2233POPC   PO432316  20.261  30.265   9.469
 2233POPC   GL132317  20.527  30.011   9.200
 2233POPC   GL232318  20.699  29.681   9.217
 2233POPC   C1A32319  20.539  29.878   8.760
 2233POPC   D2A32320  20.542  29.590   8.376
 2233POPC   C3A32321  20.493  29.897   8.016
 2233POPC   C4A32322  20.524  29.844   7.555
 2233POPC   C1B32323  20.964  29.614   8.836
 2233POPC   C2B32324  20.967  29.851   8.469
 2233POPC   C3B32325  20.963  29.683   8.067
 2233POPC   C4B32326  20.927  29.570   7.667
 2234POPC   NC332327  31.727  16.350   9.490
 2234POPC   PO432328  31.379  16.975   9.503
 2234POPC   GL132329  31.597  16.728   9.147
 2234POPC   GL232330  31.691  16.988   8.959
 2234POPC   C1A32331  31.827  16.598   8.700
 2234POPC   D2A32332  31.767  16.765   8.278
 2234POPC   C3A32333  31.372  16.709   8.003
 2234POPC   C4A32334  31.309  16.633   7.574
 2234POPC   C1B32335  31.437  16.965   8.663
 2234POPC   C2B32336  31.430  17.146   8.296
 2234POPC   C3B32337  31.582  17.138   7.925
 2234POPC   C4B32338  31.285  17.169   7.619
 2235POPC   NC332339  15.732  23.066   9.505
 2235POPC   PO432340  16.133  22.461   9.537
 2235POPC   GL132341  16.187  22.619   9.096
 2235POPC   GL232342  15.963  22.896   9.069
 2235POPC   C1A32343  16.031  22.569   8.658
 2235POPC   D2A32344  15.683  22.715   8.346
 2235POPC   C3A32345  15.790  22.754   7.954
 2235POPC   C4A32346  15.751  22.429   7.677
 2235POPC   C1B32347  15.916  23.057   8.645
 2235POPC   C2B32348  15.822  23.225   8.225
 2235POPC   C3B32349  15.784  23.246   7.768
 2235POPC   C4B32350  16.167  23.289   7.428
 2236POPC   NC332351  36.009  13.948   9.425
 2236POPC   PO432352  36.199  13.304   9.313
 2236POPC   GL132353  35.889  13.555   9.041
 2236POPC   GL232354  35.878  13.950   8.948
 2236POPC   C1A32355  35.738  13.636   8.596
 2236POPC   D2A32356  36.106  13.640   8.338
 2236POPC   C3A32357  35.986  13.604   7.914
 2236POPC   C4A32358  36.238  13.557   7.603
 2236POPC   C1B32359  36.317  13.841   8.813
 2236POPC   C2B32360  36.683  13.832   8.520
 2236POPC   C3B32361  36.568  13.737   8.108
 2236POPC   C4B32362  36.528  13.931   7.736
 2237POPC   NC332363  28.858  37.953   9.879
 2237POPC   PO432364  29.098  38.496   9.560
 2237POPC   GL132365  29.287  38.342   9.187
 2237POPC   GL232366  29.284  38.718   9.154
 2237POPC   C1A32367  29.430  38.303   8.765
 2237POPC   D2A32368  29.499  38.505   8.376
 2237POPC   C3A32369  29.340  38.393   7.995
 2237POPC   C4A32370  29.271  38.724   7.740
 2237POPC   C1B32371  29.119  38.727   8.809
 2237POPC   C2B32372  28.966  38.694   8.441
 2237POPC   C3B32373  28.855  38.715   8.036
 2237POPC   C4B32374  28.666  38.818   7.655
 2238POPC   NC332375  22.627   0.874   9.539
 2238POPC   PO432376  22.613   0.163   9.457
 2238POPC   GL132377  22.750   0.334   9.081
 2238POPC   GL232378  22.706   0.693   9.036
 2238POPC   C1A32379  22.772   0.187   8.651
 2238POPC   D2A32380  22.608   0.073   8.238
 2238POPC   C3A32381  22.869   0.258   7.893
 2238POPC   C4A32382  22.835   0.259   7.465
 2238POPC   C1B32383  22.642   0.692   8.559
 2238POPC   C2B32384  22.794   0.717   8.117
 2238POPC   C3B32385  23.105   0.759   7.737
 2238POPC   C4B32386  23.208   0.839   7.289
 2239POPC   NC332387   6.448  44.205   9.499
 2239POPC   PO432388   6.792  44.782   9.601
 2239POPC   GL132389   6.678  44.563   9.225
 2239POPC   GL232390   6.974  44.448   9.092
 2239POPC   C1A32391   6.525  44.693   8.818
 2239POPC   D2A32392   6.819  44.707   8.466
 2239POPC   C3A32393   6.788  44.925   8.112
 2239POPC   C4A32394   6.812  44.805   7.713
 2239POPC   C1B32395   6.821  44.275   8.756
 2239POPC   C2B32396   6.478  44.311   8.468
 2239POPC   C3B32397   6.558  44.438   8.052
 2239POPC   C4B32398   6.935  44.345   7.896
 2240POPC   NC332399  17.854  37.747   9.454
 2240POPC   PO432400  17.428  37.340   9.716
 2240POPC   GL132401  17.710  37.310   9.256
 2240POPC   GL232402  17.569  37.607   9.041
 2240POPC   C1A32403  17.788  37.166   8.802
 2240POPC   D2A32404  17.564  37.151   8.374
 2240POPC   C3A32405  17.445  37.529   8.083
 2240POPC   C4A32406  17.314  37.835   7.765
 2240POPC   C1B32407  17.589  38.018   8.730
 2240POPC   C2B32408  17.598  38.020   8.269
 2240POPC   C3B32409  17.805  37.897   7.909
 2240POPC   C4B32410  17.702  37.916   7.444
 2241POPC   NC332411   2.389  27.842   9.649
 2241POPC   PO432412   2.001  28.381   9.532
 2241POPC   GL132413   2.034  28.259   9.139
 2241POPC   GL232414   2.280  28.511   9.089
 2241POPC   C1A32415   1.700  28.209   8.829
 2241POPC   D2A32416   1.659  28.401   8.455
 2241POPC   C3A32417   1.843  28.307   8.046
 2241POPC   C4A32418   1.638  28.359   7.631
 2241POPC   C1B32419   2.217  28.773   8.755
 2241POPC   C2B32420   2.101  28.633   8.357
 2241POPC   C3B32421   2.201  28.734   7.940
 2241POPC   C4B32422   2.133  28.426   7.631
 2242POPC   NC332423   5.860  11.739   9.538
 2242POPC   PO432424   5.457  12.331   9.508
 2242POPC   GL132425   5.702  12.060   9.174
 2242POPC   GL232426   6.024  11.879   9.075
 2242POPC   C1A32427   5.631  11.814   8.777
 2242POPC   D2A32428   5.665  12.019   8.406
 2242POPC   C3A32429   5.825  11.910   8.005
 2242POPC   C4A32430   5.793  12.288   7.762
 2242POPC   C1B32431   6.125  11.706   8.662
 2242POPC   C2B32432   6.206  12.035   8.373
 2242POPC   C3B32433   6.304  12.192   7.989
 2242POPC   C4B32434   6.185  11.984   7.623
 2243POPC   NC332435   9.747  23.237   9.318
 2243POPC   PO432436   9.965  23.793   9.642
 2243POPC   GL132437   9.756  23.796   9.215
 2243POPC   GL232438   9.589  23.567   8.966
 2243POPC   C1A32439   9.774  24.016   8.812
 2243POPC   D2A32440   9.491  23.903   8.465
 2243POPC   C3A32441   9.724  23.771   8.103
 2243POPC   C4A32442   9.757  23.884   7.691
 2243POPC   C1B32443   9.749  23.455   8.552
 2243POPC   C2B32444   9.533  23.293   8.193
 2243POPC   C3B32445   9.498  23.418   7.780
 2243POPC   C4B32446   9.725  23.321   7.429
 2244POPC   NC332447  31.738  32.861   9.444
 2244POPC   PO432448  31.126  33.158   9.433
 2244POPC   GL132449  31.374  33.066   9.110
 2244POPC   GL232450  31.350  32.707   9.089
 2244POPC   C1A32451  31.703  33.024   8.807
 2244POPC   D2A32452  31.736  33.174   8.394
 2244POPC   C3A32453  31.724  32.931   8.015
 2244POPC   C4A32454  31.667  33.245   7.719
 2244POPC   C1B32455  31.282  32.817   8.654
 2244POPC   C2B32456  31.266  32.972   8.252
 2244POPC   C3B32457  31.196  32.853   7.857
 2244POPC   C4B32458  31.344  32.914   7.472
 2245POPC   NC332459   9.295  14.072   9.443
 2245POPC   PO432460   8.883  14.506   9.661
 2245POPC   GL132461   8.970  14.417   9.258
 2245POPC   GL232462   8.811  14.087   9.227
 2245POPC   C1A32463   9.015  14.531   8.868
 2245POPC   D2A32464   8.856  14.546   8.490
 2245POPC   C3A32465   9.174  14.443   8.172
 2245POPC   C4A32466   9.192  14.519   7.733
 2245POPC   C1B32467   8.542  14.220   8.880
 2245POPC   C2B32468   8.433  14.255   8.436
 2245POPC   C3B32469   8.655  14.371   8.058
 2245POPC   C4B32470   8.773  14.188   7.668
 2246POPC   NC332471   9.958  26.565   9.493
 2246POPC   PO432472   9.306  26.789   9.579
 2246POPC   GL132473   9.602  26.766   9.189
 2246POPC   GL232474   9.921  26.974   9.148
 2246POPC   C1A32475   9.751  26.713   8.741
 2246POPC   D2A32476   9.606  26.548   8.334
 2246POPC   C3A32477   9.713  26.823   7.991
 2246POPC   C4A32478   9.650  27.021   7.544
 2246POPC   C1B32479  10.026  27.161   8.711
 2246POPC   C2B32480  10.064  27.211   8.259
 2246POPC   C3B32481  10.078  27.116   7.799
 2246POPC   C4B32482  10.054  26.708   7.629
 2247POPC   NC332483  13.279  12.980   9.477
 2247POPC   PO432484  12.793  12.563   9.653
 2247POPC   GL132485  12.882  12.566   9.139
 2247POPC   GL232486  13.035  12.878   9.054
 2247POPC   C1A32487  12.740  12.706   8.689
 2247POPC   D2A32488  12.604  13.033   8.385
 2247POPC   C3A32489  12.452  12.816   7.996
 2247POPC   C4A32490  12.557  12.482   7.702
 2247POPC   C1B32491  13.092  13.095   8.656
 2247POPC   C2B32492  13.180  12.999   8.228
 2247POPC   C3B32493  13.062  13.185   7.825
 2247POPC   C4B32494  13.157  13.102   7.388
 2248POPC   NC332495  34.156  18.373   9.490
 2248POPC   PO432496  33.493  18.220   9.520
 2248POPC   GL132497  33.798  18.128   9.190
 2248POPC   GL232498  34.104  17.915   9.260
 2248POPC   C1A32499  33.944  18.313   8.825
 2248POPC   D2A32500  33.713  18.355   8.449
 2248POPC   C3A32501  33.813  18.563   8.073
 2248POPC   C4A32502  33.723  18.462   7.625
 2248POPC   C1B32503  34.190  17.853   8.818
 2248POPC   C2B32504  34.104  18.018   8.369
 2248POPC   C3B32505  33.965  18.101   7.926
 2248POPC   C4B32506  34.161  18.247   7.512
 2249POPC   NC332507  43.897  33.331   9.451
 2249POPC   PO432508  44.281  32.897   9.508
 2249POPC   GL132509  44.107  32.754   9.133
 2249POPC   GL232510  44.096  33.107   9.017
 2249POPC   C1A32511  43.863  32.754   8.751
 2249POPC   D2A32512  43.988  32.996   8.376
 2249POPC   C3A32513  43.813  32.787   8.023
 2249POPC   C4A32514  43.794  32.926   7.591
 2249POPC   C1B32515  43.706  33.236   8.776
 2249POPC   C2B32516  43.531  33.210   8.343
 2249POPC   C3B32517  43.748  33.307   7.928
 2249POPC   C4B32518  43.671  33.446   7.480
 2250POPC   NC332519   7.268  28.702   9.404
 2250POPC   PO432520   7.588  29.214   9.636
 2250POPC   GL132521   7.443  29.142   9.219
 2250POPC   GL232522   7.748  29.066   9.117
 2250POPC   C1A32523   7.366  29.305   8.789
 2250POPC   D2A32524   7.429  29.220   8.350
 2250POPC   C3A32525   7.195  29.183   7.962
 2250POPC   C4A32526   7.284  29.178   7.525
 2250POPC   C1B32527   7.873  29.105   8.675
 2250POPC   C2B32528   7.761  28.864   8.293
 2250POPC   C3B32529   7.676  29.044   7.882
 2250POPC   C4B32530   7.720  28.957   7.402
 2251POPC   NC332531  26.025  39.641   9.460
 2251POPC   PO432532  26.358  40.254   9.538
 2251POPC   GL132533  26.158  40.044   9.165
 2251POPC   GL232534  26.314  39.732   9.055
 2251POPC   C1A32535  26.002  40.191   8.758
 2251POPC   D2A32536  26.246  40.321   8.390
 2251POPC   C3A32537  26.123  40.123   8.027
 2251POPC   C4A32538  25.762  40.065   7.807
 2251POPC   C1B32539  25.933  39.683   8.786
 2251POPC   C2B32540  25.820  39.810   8.362
 2251POPC   C3B32541  25.727  39.597   7.978
 2251POPC   C4B32542  25.926  39.637   7.570
 2252POPC   NC332543   1.836  15.384   9.600
 2252POPC   PO432544   2.374  14.985   9.451
 2252POPC   GL132545   2.069  15.188   9.178
 2252POPC   GL232546   1.742  15.377   9.119
 2252POPC   C1A32547   1.907  15.000   8.802
 2252POPC   D2A32548   2.219  14.953   8.484
 2252POPC   C3A32549   2.059  14.964   8.081
 2252POPC   C4A32550   1.976  14.763   7.682
 2252POPC   C1B32551   2.006  15.513   8.802
 2252POPC   C2B32552   2.079  15.448   8.407
 2252POPC   C3B32553   1.935  15.532   8.021
 2252POPC   C4B32554   2.130  15.325   7.709
 2253POPC   NC332555   0.347  16.413   9.440
 2253POPC   PO432556   0.777  16.937   9.544
 2253POPC   GL132557   0.577  16.773   9.142
 2253POPC   GL232558   0.431  17.080   9.060
 2253POPC   C1A32559   0.438  16.602   8.686
 2253POPC   D2A32560   0.286  16.747   8.266
 2253POPC   C3A32561   0.355  16.580   7.851
 2253POPC   C4A32562   0.275  16.156   7.718
 2253POPC   C1B32563   0.684  17.030   8.698
 2253POPC   C2B32564   0.744  16.944   8.297
 2253POPC   C3B32565   0.567  17.049   7.932
 2253POPC   C4B32566   0.613  16.863   7.509
 2254POPC   NC332567   7.013  19.394   9.553
 2254POPC   PO432568   6.386  19.479   9.425
 2254POPC   GL132569   6.592  19.750   9.174
 2254POPC   GL232570   6.932  19.690   9.121
 2254POPC   C1A32571   6.652  20.025   8.821
 2254POPC   D2A32572   6.879  20.097   8.458
 2254POPC   C3A32573   6.726  20.000   8.048
 2254POPC   C4A32574   6.563  19.849   7.653
 2254POPC   C1B32575   7.045  19.678   8.669
 2254POPC   C2B32576   7.143  19.723   8.220
 2254POPC   C3B32577   7.092  19.747   7.773
 2254POPC   C4B32578   6.977  19.760   7.319
 2255POPC   NC332579   8.075  23.568   9.491
 2255POPC   PO432580   8.705  23.614   9.488
 2255POPC   GL132581   8.460  23.701   9.153
 2255POPC   GL232582   8.614  24.017   9.032
 2255POPC   C1A32583   8.096  23.618   8.847
 2255POPC   D2A32584   7.904  23.748   8.466
 2255POPC   C3A32585   7.955  23.586   8.061
 2255POPC   C4A32586   8.040  23.675   7.650
 2255POPC   C1B32587   8.562  23.755   8.671
 2255POPC   C2B32588   8.380  23.853   8.320
 2255POPC   C3B32589   8.309  23.993   7.953
 2255POPC   C4B32590   8.492  24.193   7.639
 2256POPC   NC332591  18.107  44.689   9.668
 2256POPC   PO432592  18.636   0.007   9.785
 2256POPC   GL132593  18.496  44.745   9.360
 2256POPC   GL232594  18.217  44.945   9.253
 2256POPC   C1A32595  18.421  44.457   8.992
 2256POPC   D2A32596  18.493  44.356   8.535
 2256POPC   C3A32597  18.219  44.540   8.179
 2256POPC   C4A32598  18.308  44.531   7.699
 2256POPC   C1B32599  18.262  44.906   8.812
 2256POPC   C2B32600  18.100   0.016   8.366
 2256POPC   C3B32601  18.178  44.985   7.908
 2256POPC   C4B32602  18.120  44.938   7.439
 2257POPC   NC332603   2.568  18.192   9.710
 2257POPC   PO432604   3.132  18.441   9.657
 2257POPC   GL132605   2.860  18.332   9.295
 2257POPC   GL232606   2.534  18.482   9.251
 2257POPC   C1A32607   2.846  18.329   8.846
 2257POPC   D2A32608   3.157  18.370   8.531
 2257POPC   C3A32609   2.943  18.384   8.172
 2257POPC   C4A32610   2.921  18.147   7.803
 2257POPC   C1B32611   2.345  18.207   8.916
 2257POPC   C2B32612   2.432  18.008   8.519
 2257POPC   C3B32613   2.495  18.157   8.098
 2257POPC   C4B32614   2.516  18.454   7.738
 2258POPC   NC332615  42.295  10.786   9.331
 2258POPC   PO432616  42.145  10.262   9.712
 2258POPC   GL132617  42.201  10.285   9.233
 2258POPC   GL232618  41.976  10.505   9.021
 2258POPC   C1A32619  42.425  10.408   8.820
 2258POPC   D2A32620  42.499  10.721   8.502
 2258POPC   C3A32621  42.438  10.531   8.115
 2258POPC   C4A32622  42.557  10.697   7.721
 2258POPC   C1B32623  42.059  10.871   8.748
 2258POPC   C2B32624  41.904  10.898   8.349
 2258POPC   C3B32625  42.039  10.825   7.960
 2258POPC   C4B32626  42.092  10.486   7.711
 2259POPC   NC332627  10.783  17.801   9.382
 2259POPC   PO432628  10.432  17.291   9.551
 2259POPC   GL132629  10.452  17.461   9.146
 2259POPC   GL232630  10.761  17.290   9.053
 2259POPC   C1A32631  10.214  17.630   8.772
 2259POPC   D2A32632  10.052  17.399   8.392
 2259POPC   C3A32633  10.201  17.503   7.963
 2259POPC   C4A32634  10.337  17.816   7.661
 2259POPC   C1B32635  10.740  17.612   8.722
 2259POPC   C2B32636  10.611  17.571   8.297
 2259POPC   C3B32637  10.781  17.614   7.885
 2259POPC   C4B32638  10.779  17.546   7.429
 2260POPC   NC332639  10.772  16.955   9.502
 2260POPC   PO432640  10.201  16.561   9.373
 2260POPC   GL132641  10.306  16.954   9.143
 2260POPC   GL232642  10.571  16.803   9.040
 2260POPC   C1A32643  10.418  17.164   8.708
 2260POPC   D2A32644  10.820  17.138   8.491
 2260POPC   C3A32645  10.827  17.068   8.041
 2260POPC   C4A32646  10.924  16.754   7.701
 2260POPC   C1B32647  10.276  16.678   8.703
 2260POPC   C2B32648  10.528  16.569   8.365
 2260POPC   C3B32649  10.633  16.424   7.969
 2260POPC   C4B32650  10.309  16.555   7.727
 2261POPC   NC332651  22.556   3.375   9.460
 2261POPC   PO432652  23.183   3.064   9.524
 2261POPC   GL132653  22.872   2.882   9.205
 2261POPC   GL232654  22.574   3.070   9.035
 2261POPC   C1A32655  22.703   2.604   8.864
 2261POPC   D2A32656  22.740   2.510   8.426
 2261POPC   C3A32657  22.763   2.746   8.062
 2261POPC   C4A32658  22.858   3.069   7.772
 2261POPC   C1B32659  22.649   3.020   8.558
 2261POPC   C2B32660  22.630   3.310   8.195
 2261POPC   C3B32661  22.749   3.563   7.796
 2261POPC   C4B32662  22.882   3.406   7.366
 2262POPC   NC332663  29.335  21.257   9.472
 2262POPC   PO432664  29.127  21.887   9.632
 2262POPC   GL132665  28.993  21.634   9.229
 2262POPC   GL232666  29.077  21.285   9.028
 2262POPC   C1A32667  29.013  21.721   8.775
 2262POPC   D2A32668  28.959  21.696   8.338
 2262POPC   C3A32669  28.969  21.324   8.089
 2262POPC   C4A32670  29.276  21.556   7.849
 2262POPC   C1B32671  29.180  21.189   8.570
 2262POPC   C2B32672  29.470  21.206   8.201
 2262POPC   C3B32673  29.529  21.113   7.729
 2262POPC   C4B32674  29.402  21.197   7.279
 2263POPC   NC332675  41.370  10.993   9.440
 2263POPC   PO432676  42.035  11.235   9.598
 2263POPC   GL132677  41.762  11.221   9.232
 2263POPC   GL232678  41.751  11.538   9.155
 2263POPC   C1A32679  41.598  11.068   8.828
 2263POPC   D2A32680  41.568  11.261   8.422
 2263POPC   C3A32681  41.272  11.121   8.108
 2263POPC   C4A32682  41.578  11.043   7.793
 2263POPC   C1B32683  41.407  11.537   8.850
 2263POPC   C2B32684  41.291  11.660   8.400
 2263POPC   C3B32685  41.485  11.556   7.937
 2263POPC   C4B32686  41.239  11.644   7.524
 2264POPC   NC332687  42.888   4.734   9.361
 2264POPC   PO432688  43.209   5.300   9.511
 2264POPC   GL132689  43.225   5.101   9.130
 2264POPC   GL232690  42.952   5.247   9.041
 2264POPC   C1A32691  43.301   5.229   8.674
 2264POPC   D2A32692  43.338   4.958   8.291
 2264POPC   C3A32693  43.315   5.159   7.897
 2264POPC   C4A32694  42.943   5.284   7.670
 2264POPC   C1B32695  42.998   4.843   8.748
 2264POPC   C2B32696  42.881   4.700   8.360
 2264POPC   C3B32697  42.930   4.820   7.963
 2264POPC   C4B32698  42.703   4.785   7.620
 2265POPC   NC332699  16.107  11.222   9.599
 2265POPC   PO432700  15.477  11.396   9.438
 2265POPC   GL132701  15.842  11.440   9.181
 2265POPC   GL232702  15.901  11.103   9.145
 2265POPC   C1A32703  15.816  11.410   8.744
 2265POPC   D2A32704  15.842  11.199   8.370
 2265POPC   C3A32705  16.100  11.396   8.081
 2265POPC   C4A32706  15.966  11.414   7.675
 2265POPC   C1B32707  16.176  11.018   8.802
 2265POPC   C2B32708  16.348  11.051   8.371
 2265POPC   C3B32709  16.212  10.903   7.955
 2265POPC   C4B32710  15.882  10.902   7.697
 2266POPC   NC332711  32.500  40.201   9.662
 2266POPC   PO432712  32.011  39.788   9.453
 2266POPC   GL132713  32.149  39.883   9.109
 2266POPC   GL232714  32.240  40.198   9.210
 2266POPC   C1A32715  32.134  39.851   8.700
 2266POPC   D2A32716  32.302  40.034   8.343
 2266POPC   C3A32717  32.140  39.872   7.966
 2266POPC   C4A32718  32.274  39.680   7.591
 2266POPC   C1B32719  32.363  40.317   8.788
 2266POPC   C2B32720  32.362  40.541   8.397
 2266POPC   C3B32721  32.144  40.395   8.031
 2266POPC   C4B32722  32.240  40.276   7.612
 2267POPC   NC332723  30.956  28.696   9.479
 2267POPC   PO432724  30.702  29.342   9.491
 2267POPC   GL132725  30.789  29.216   9.147
 2267POPC   GL232726  30.618  28.928   9.140
 2267POPC   C1A32727  30.696  29.369   8.766
 2267POPC   D2A32728  30.779  29.183   8.428
 2267POPC   C3A32729  30.756  29.460   8.132
 2267POPC   C4A32730  30.583  29.200   7.832
 2267POPC   C1B32731  30.833  28.797   8.786
 2267POPC   C2B32732  30.823  28.657   8.355
 2267POPC   C3B32733  30.683  28.692   7.917
 2267POPC   C4B32734  30.893  28.860   7.570
 2268POPC   NC332735  41.422  40.439   9.539
 2268POPC   PO432736  41.755  40.985   9.513
 2268POPC   GL132737  41.689  40.726   9.136
 2268POPC   GL232738  41.870  40.406   9.135
 2268POPC   C1A32739  41.830  40.927   8.710
 2268POPC   D2A32740  42.004  40.975   8.270
 2268POPC   C3A32741  41.642  41.050   7.975
 2268POPC   C4A32742  41.340  41.283   7.722
 2268POPC   C1B32743  41.755  40.434   8.715
 2268POPC   C2B32744  41.725  40.528   8.264
 2268POPC   C3B32745  41.860  40.618   7.821
 2268POPC   C4B32746  41.822  40.525   7.329
 2269POPC   NC332747  37.082  21.094   9.654
 2269POPC   PO432748  37.720  21.404   9.725
 2269POPC   GL132749  37.582  21.261   9.305
 2269POPC   GL232750  37.804  21.479   9.126
 2269POPC   C1A32751  37.510  21.132   8.838
 2269POPC   D2A32752  37.387  21.254   8.382
 2269POPC   C3A32753  37.512  21.609   8.101
 2269POPC   C4A32754  37.709  21.594   7.680
 2269POPC   C1B32755  37.828  21.484   8.678
 2269POPC   C2B32756  38.001  21.420   8.285
 2269POPC   C3B32757  38.009  21.267   7.889
 2269POPC   C4B32758  38.086  21.362   7.413
 2270POPC   NC332759  16.855   1.096   9.685
 2270POPC   PO432760  16.203   0.958   9.535
 2270POPC   GL132761  16.415   1.037   9.153
 2270POPC   GL232762  16.727   1.218   9.204
 2270POPC   C1A32763  16.531   1.222   8.750
 2270POPC   D2A32764  16.624   1.381   8.325
 2270POPC   C3A32765  16.725   1.077   8.039
 2270POPC   C4A32766  16.557   0.948   7.672
 2270POPC   C1B32767  17.026   1.376   8.903
 2270POPC   C2B32768  17.034   1.591   8.519
 2270POPC   C3B32769  17.130   1.449   8.125
 2270POPC   C4B32770  16.951   1.420   7.746
 2271POPC   NC332771  28.148  12.228   9.735
 2271POPC   PO432772  28.080  11.792   9.245
 2271POPC   GL132773  28.230  12.243   9.080
 2271POPC   GL232774  28.596  12.295   9.064
 2271POPC   C1A32775  28.348  12.457   8.643
 2271POPC   D2A32776  28.567  12.325   8.268
 2271POPC   C3A32777  28.391  12.032   8.000
 2271POPC   C4A32778  28.325  11.840   7.639
 2271POPC   C1B32779  28.503  11.974   8.722
 2271POPC   C2B32780  28.716  11.830   8.350
 2271POPC   C3B32781  28.923  12.021   7.991
 2271POPC   C4B32782  28.746  12.360   7.787
 2272POPC   NC332783  44.597  12.745   9.545
 2272POPC   PO432784   0.264  13.020   9.549
 2272POPC   GL132785  44.910  12.914   9.176
 2272POPC   GL232786  44.489  12.949   9.109
 2272POPC   C1A32787  44.756  12.630   8.822
 2272POPC   D2A32788  44.464  12.632   8.469
 2272POPC   C3A32789  44.608  12.803   8.075
 2272POPC   C4A32790  44.622  12.588   7.694
 2272POPC   C1B32791  44.514  13.140   8.728
 2272POPC   C2B32792  44.286  13.222   8.362
 2272POPC   C3B32793  44.173  13.141   7.958
 2272POPC   C4B32794  44.460  13.069   7.635
 2273POPC   NC332795  11.678  24.843   9.430
 2273POPC   PO432796  11.841  24.178   9.452
 2273POPC   GL132797  12.053  24.210   9.103
 2273POPC   GL232798  12.182  24.495   9.159
 2273POPC   C1A32799  11.999  24.378   8.704
 2273POPC   D2A32800  12.269  24.439   8.385
 2273POPC   C3A32801  12.108  24.628   8.042
 2273POPC   C4A32802  11.866  24.416   7.760
 2273POPC   C1B32803  12.417  24.704   8.844
 2273POPC   C2B32804  12.632  24.769   8.467
 2273POPC   C3B32805  12.625  24.655   8.062
 2273POPC   C4B32806  12.460  24.853   7.740
 2274POPC   NC332807  38.765  29.220   9.942
 2274POPC   PO432808  39.271  29.247   9.592
 2274POPC   GL132809  39.281  29.215   9.163
 2274POPC   GL232810  38.975  29.297   9.009
 2274POPC   C1A32811  39.371  29.140   8.737
 2274POPC   D2A32812  39.355  29.328   8.346
 2274POPC   C3A32813  39.458  29.098   7.978
 2274POPC   C4A32814  39.160  28.832   7.759
 2274POPC   C1B32815  39.011  29.574   8.659
 2274POPC   C2B32816  38.980  29.692   8.223
 2274POPC   C3B32817  38.990  29.332   7.934
 2274POPC   C4B32818  39.218  29.286   7.525
 2275POPC   NC332819  18.780   5.790   9.628
 2275POPC   PO432820  19.329   5.931   9.620
 2275POPC   GL132821  19.171   5.899   9.202
 2275POPC   GL232822  18.903   5.673   9.137
 2275POPC   C1A32823  19.348   5.890   8.771
 2275POPC   D2A32824  19.230   5.970   8.329
 2275POPC   C3A32825  19.454   5.904   7.931
 2275POPC   C4A32826  19.473   5.577   7.584
 2275POPC   C1B32827  18.798   5.934   8.774
 2275POPC   C2B32828  18.713   6.015   8.316
 2275POPC   C3B32829  18.927   5.945   7.903
 2275POPC   C4B32830  18.704   6.008   7.521
 2276POPC   NC332831   2.731  30.395   9.519
 2276POPC   PO432832   3.019  31.023   9.486
 2276POPC   GL132833   2.793  30.903   9.102
 2276POPC   GL232834   2.681  30.543   9.053
 2276POPC   C1A32835   2.731  30.810   8.653
 2276POPC   D2A32836   2.770  30.454   8.419
 2276POPC   C3A32837   2.667  30.631   8.043
 2276POPC   C4A32838   2.952  30.723   7.766
 2276POPC   C1B32839   2.446  30.255   8.784
 2276POPC   C2B32840   2.333  30.148   8.356
 2276POPC   C3B32841   2.524  30.142   7.950
 2276POPC   C4B32842   2.537  30.414   7.581
 2277POPC   NC332843  23.897   8.341   9.489
 2277POPC   PO432844  23.316   8.019   9.396
 2277POPC   GL132845  23.612   8.213   9.083
 2277POPC   GL232846  23.683   8.599   9.101
 2277POPC   C1A32847  23.730   8.327   8.658
 2277POPC   D2A32848  23.905   8.486   8.296
 2277POPC   C3A32849  23.806   8.140   8.110
 2277POPC   C4A32850  23.658   8.050   7.748
 2277POPC   C1B32851  23.291   8.522   8.841
 2277POPC   C2B32852  23.241   8.466   8.391
 2277POPC   C3B32853  23.402   8.441   7.955
 2277POPC   C4B32854  23.790   8.557   7.796
 2278POPC   NC332855  26.251  25.775   9.439
 2278POPC   PO432856  25.675  26.001   9.570
 2278POPC   GL132857  25.839  25.910   9.137
 2278POPC   GL232858  26.159  26.054   9.038
 2278POPC   C1A32859  25.940  25.835   8.663
 2278POPC   D2A32860  26.228  25.899   8.324
 2278POPC   C3A32861  25.923  25.820   8.042
 2278POPC   C4A32862  25.788  26.024   7.696
 2278POPC   C1B32863  26.286  26.264   8.682
 2278POPC   C2B32864  26.362  26.428   8.266
 2278POPC   C3B32865  26.214  26.377   7.874
 2278POPC   C4B32866  26.319  25.970   7.744
 2279POPC   NC332867  35.969   1.830   9.488
 2279POPC   PO432868  36.522   1.692   9.496
 2279POPC   GL132869  36.287   1.855   9.071
 2279POPC   GL232870  35.888   1.890   9.009
 2279POPC   C1A32871  36.136   2.122   8.658
 2279POPC   D2A32872  36.032   1.904   8.245
 2279POPC   C3A32873  35.937   2.158   7.907
 2279POPC   C4A32874  36.058   2.116   7.461
 2279POPC   C1B32875  35.985   1.631   8.703
 2279POPC   C2B32876  36.296   1.510   8.428
 2279POPC   C3B32877  36.580   1.607   8.140
 2279POPC   C4B32878  36.571   1.519   7.720
 2280POPC   NC332879   2.849  18.829   9.502
 2280POPC   PO432880   2.502  19.326   9.850
 2280POPC   GL132881   2.610  19.471   9.288
 2280POPC   GL232882   2.859  19.228   9.141
 2280POPC   C1A32883   2.513  19.320   8.801
 2280POPC   D2A32884   2.806  19.153   8.445
 2280POPC   C3A32885   2.794  19.292   7.996
 2280POPC   C4A32886   2.401  19.295   7.763
 2280POPC   C1B32887   2.730  18.840   8.857
 2280POPC   C2B32888   2.575  18.636   8.477
 2280POPC   C3B32889   2.622  18.814   8.069
 2280POPC   C4B32890   2.968  18.707   7.793
 2281POPC   NC332891  24.539  37.461   9.470
 2281POPC   PO432892  24.897  38.044   9.437
 2281POPC   GL132893  24.634  37.832   9.115
 2281POPC   GL232894  24.244  37.796   9.145
 2281POPC   C1A32895  24.680  37.698   8.688
 2281POPC   D2A32896  24.524  37.838   8.304
 2281POPC   C3A32897  24.756  37.825   7.946
 2281POPC   C4A32898  24.735  37.422   7.778
 2281POPC   C1B32899  24.145  37.723   8.672
 2281POPC   C2B32900  24.110  37.579   8.207
 2281POPC   C3B32901  24.201  37.719   7.749
 2281POPC   C4B32902  24.166  37.987   7.309
 2282POPC   NC332903  18.573  33.148   9.827
 2282POPC   PO432904  19.186  32.931   9.625
 2282POPC   GL132905  19.287  32.894   9.141
 2282POPC   GL232906  19.352  32.559   9.018
 2282POPC   C1A32907  19.116  33.066   8.713
 2282POPC   D2A32908  19.038  33.438   8.413
 2282POPC   C3A32909  19.179  33.379   7.979
 2282POPC   C4A32910  19.003  32.976   7.847
 2282POPC   C1B32911  19.334  32.623   8.623
 2282POPC   C2B32912  19.239  32.768   8.258
 2282POPC   C3B32913  19.318  32.520   7.909
 2282POPC   C4B32914  19.097  32.583   7.546
 2283POPC   NC332915   4.110  16.346   9.661
 2283POPC   PO432916   4.520  16.922   9.558
 2283POPC   GL132917   4.443  16.727   9.156
 2283POPC   GL232918   4.083  16.653   9.178
 2283POPC   C1A32919   4.294  16.594   8.717
 2283POPC   D2A32920   4.106  16.583   8.286
 2283POPC   C3A32921   4.364  16.748   7.919
 2283POPC   C4A32922   4.635  16.867   7.568
 2283POPC   C1B32923   3.973  16.988   8.835
 2283POPC   C2B32924   3.875  17.053   8.356
 2283POPC   C3B32925   3.974  17.161   7.897
 2283POPC   C4B32926   4.235  17.210   7.488
 2284POPC   NC332927   8.071  25.539   9.656
 2284POPC   PO432928   8.513  25.118   9.587
 2284POPC   GL132929   8.330  25.372   9.196
 2284POPC   GL232930   7.976  25.508   9.152
 2284POPC   C1A32931   8.402  25.393   8.709
 2284POPC   D2A32932   8.579  25.502   8.276
 2284POPC   C3A32933   8.356  25.421   7.895
 2284POPC   C4A32934   8.263  25.002   7.842
 2284POPC   C1B32935   7.936  25.678   8.737
 2284POPC   C2B32936   8.030  25.524   8.325
 2284POPC   C3B32937   7.847  25.267   8.002
 2284POPC   C4B32938   7.860  25.289   7.553
 2285POPC   NC332939   0.263  38.117   9.703
 2285POPC   PO432940   0.756  38.577   9.565
 2285POPC   GL132941   0.706  38.589   9.130
 2285POPC   GL232942   0.370  38.488   9.109
 2285POPC   C1A32943   0.713  38.292   8.772
 2285POPC   D2A32944   0.556  38.290   8.321
 2285POPC   C3A32945   0.495  38.694   8.106
 2285POPC   C4A32946   0.705  38.634   7.706
 2285POPC   C1B32947   0.282  38.561   8.652
 2285POPC   C2B32948   0.043  38.884   8.422
 2285POPC   C3B32949  44.978  38.928   7.990
 2285POPC   C4B32950   0.158  38.660   7.690
 2286POPC   NC332951  37.177  27.353   9.486
 2286POPC   PO432952  36.576  27.636   9.431
 2286POPC   GL132953  36.638  27.627   9.046
 2286POPC   GL232954  36.955  27.542   9.024
 2286POPC   C1A32955  36.543  27.389   8.704
 2286POPC   D2A32956  36.773  27.347   8.329
 2286POPC   C3A32957  36.683  27.550   7.961
 2286POPC   C4A32958  36.899  27.463   7.610
 2286POPC   C1B32959  36.862  27.766   8.617
 2286POPC   C2B32960  36.965  27.923   8.210
 2286POPC   C3B32961  36.982  27.978   7.761
 2286POPC   C4B32962  37.041  27.851   7.326
 2287POPC   NC332963   0.543  34.760   9.660
 2287POPC   PO432964   0.167  34.276   9.395
 2287POPC   GL132965   0.320  34.712   9.181
 2287POPC   GL232966   0.077  34.975   9.283
 2287POPC   C1A32967   0.553  34.859   8.745
 2287POPC   D2A32968   0.558  35.028   8.284
 2287POPC   C3A32969   0.528  34.674   7.993
 2287POPC   C4A32970   0.135  34.403   7.935
 2287POPC   C1B32971   0.125  35.096   8.857
 2287POPC   C2B32972   0.041  34.950   8.440
 2287POPC   C3B32973  44.987  34.891   8.004
 2287POPC   C4B32974   0.193  34.860   7.672
 2288POPC   NC332975  25.888  14.763   9.493
 2288POPC   PO432976  26.324  15.262   9.740
 2288POPC   GL132977  26.159  15.198   9.339
 2288POPC   GL232978  25.837  15.138   9.143
 2288POPC   C1A32979  26.280  15.267   8.942
 2288POPC   D2A32980  26.027  15.232   8.593
 2288POPC   C3A32981  26.114  15.211   8.176
 2288POPC   C4A32982  25.897  15.267   7.787
 2288POPC   C1B32983  25.612  15.000   8.748
 2288POPC   C2B32984  25.659  14.987   8.289
 2288POPC   C3B32985  25.858  14.782   7.925
 2288POPC   C4B32986  25.920  14.877   7.471
 2289POPC   NC332987  28.497   6.486   9.710
 2289POPC   PO432988  28.044   6.993   9.569
 2289POPC   GL132989  28.382   6.786   9.279
 2289POPC   GL232990  28.418   6.421   9.235
 2289POPC   C1A32991  28.403   6.710   8.829
 2289POPC   D2A32992  28.194   6.766   8.461
 2289POPC   C3A32993  28.333   6.635   8.087
 2289POPC   C4A32994  28.115   6.561   7.711
 2289POPC   C1B32995  28.629   6.259   8.918
 2289POPC   C2B32996  28.644   6.383   8.496
 2289POPC   C3B32997  28.647   6.161   8.113
 2289POPC   C4B32998  28.585   6.348   7.752
 2290POPC   NC332999   3.742   8.636   9.615
 2290POPC   PO433000   3.422   8.152   9.465
 2290POPC   GL133001   3.526   8.510   9.162
 2290POPC   GL233002   3.904   8.617   9.132
 2290POPC   C1A33003   3.350   8.576   8.729
 2290POPC   D2A33004   3.230   8.276   8.388
 2290POPC   C3A33005   3.392   8.196   7.957
 2290POPC   C4A33006   3.597   7.900   7.607
 2290POPC   C1B33007   3.825   8.356   8.772
 2290POPC   C2B33008   3.741   8.331   8.346
 2290POPC   C3B33009   3.890   8.168   7.971
 2290POPC   C4B33010   4.168   8.398   7.828
 2291POPC   NC333011   7.306  24.100   9.595
 2291POPC   PO433012   7.495  24.657   9.446
 2291POPC   GL133013   7.602  24.532   9.072
 2291POPC   GL233014   7.587  24.212   9.162
 2291POPC   C1A33015   7.496  24.702   8.685
 2291POPC   D2A33016   7.258  24.693   8.309
 2291POPC   C3A33017   7.524  24.530   8.004
 2291POPC   C4A33018   7.442  24.663   7.622
 2291POPC   C1B33019   7.715  24.103   8.785
 2291POPC   C2B33020   7.477  24.223   8.434
 2291POPC   C3B33021   7.287  24.050   8.083
 2291POPC   C4B33022   7.431  24.131   7.670
 2292POPC   NC333023  19.983  30.616   9.501
 2292POPC   PO433024  19.483  30.967   9.582
 2292POPC   GL133025  19.740  30.956   9.200
 2292POPC   GL233026  19.547  31.192   9.109
 2292POPC   C1A33027  19.965  30.847   8.822
 2292POPC   D2A33028  20.022  30.527   8.506
 2292POPC   C3A33029  19.943  30.599   8.038
 2292POPC   C4A33030  20.170  30.799   7.708
 2292POPC   C1B33031  19.509  31.021   8.716
 2292POPC   C2B33032  19.786  31.008   8.383
 2292POPC   C3B33033  19.607  30.980   8.037
 2292POPC   C4B33034  19.559  30.859   7.662
 2293POPC   NC333035   1.706   1.988   9.304
 2293POPC   PO433036   2.282   2.091   9.685
 2293POPC   GL133037   2.193   2.038   9.217
 2293POPC   GL233038   2.478   2.058   9.169
 2293POPC   C1A33039   1.989   2.159   8.747
 2293POPC   D2A33040   1.756   2.186   8.329
 2293POPC   C3A33041   1.764   1.839   8.003
 2293POPC   C4A33042   1.734   1.699   7.589
 2293POPC   C1B33043   2.548   2.182   8.730
 2293POPC   C2B33044   2.330   2.239   8.364
 2293POPC   C3B33045   2.197   2.093   8.018
 2293POPC   C4B33046   2.210   1.881   7.659
 2294POPC   NC333047  35.186  21.452   9.503
 2294POPC   PO433048  35.901  21.294   9.439
 2294POPC   GL133049  35.536  21.263   9.157
 2294POPC   GL233050  35.412  21.561   9.020
 2294POPC   C1A33051  35.589  21.112   8.726
 2294POPC   D2A33052  35.363  21.109   8.331
 2294POPC   C3A33053  35.439  21.381   8.021
 2294POPC   C4A33054  35.608  21.312   7.642
 2294POPC   C1B33055  35.080  21.701   8.761
 2294POPC   C2B33056  35.050  21.560   8.355
 2294POPC   C3B33057  35.111  21.762   7.943
 2294POPC   C4B33058  35.222  21.608   7.490
 2295POPC   NC333059  20.203  36.651   9.307
 2295POPC   PO433060  20.055  37.316   9.429
 2295POPC   GL133061  19.829  36.979   9.201
 2295POPC   GL233062  19.508  37.020   9.207
 2295POPC   C1A33063  19.786  36.729   8.800
 2295POPC   D2A33064  19.967  36.946   8.447
 2295POPC   C3A33065  20.026  36.739   8.058
 2295POPC   C4A33066  20.056  36.866   7.622
 2295POPC   C1B33067  19.604  37.203   8.785
 2295POPC   C2B33068  19.596  37.301   8.331
 2295POPC   C3B33069  19.655  37.079   7.916
 2295POPC   C4B33070  19.606  36.993   7.453
 2296POPC   NC333071  33.239  20.356   9.463
 2296POPC   PO433072  33.125  20.997   9.212
 2296POPC   GL133073  33.059  20.615   9.024
 2296POPC   GL233074  32.818  20.392   9.172
 2296POPC   C1A33075  33.043  20.597   8.574
 2296POPC   D2A33076  33.352  20.509   8.279
 2296POPC   C3A33077  33.292  20.768   7.906
 2296POPC   C4A33078  33.475  20.552   7.586
 2296POPC   C1B33079  32.640  20.369   8.774
 2296POPC   C2B33080  32.596  20.432   8.332
 2296POPC   C3B33081  32.926  20.404   8.000
 2296POPC   C4B33082  32.952  20.497   7.549
 2297POPC   NC333083  18.580  38.121   9.306
 2297POPC   PO433084  18.562  38.746   9.445
 2297POPC   GL133085  18.284  38.512   9.150
 2297POPC   GL233086  18.045  38.210   9.213
 2297POPC   C1A33087  18.388  38.598   8.717
 2297POPC   D2A33088  18.405  38.486   8.276
 2297POPC   C3A33089  18.226  38.771   7.959
 2297POPC   C4A33090  18.463  38.621   7.686
 2297POPC   C1B33091  18.188  38.133   8.770
 2297POPC   C2B33092  18.132  38.039   8.344
 2297POPC   C3B33093  18.313  38.103   7.933
 2297POPC   C4B33094  18.119  38.186   7.566
 2298POPC   NC333095  24.476   8.495   9.756
 2298POPC   PO433096  24.362   9.131   9.480
 2298POPC   GL133097  24.333   9.016   9.030
 2298POPC   GL233098  24.615   8.795   8.959
 2298POPC   C1A33099  24.179   8.716   8.690
 2298POPC   D2A33100  24.409   8.531   8.342
 2298POPC   C3A33101  24.309   8.676   7.925
 2298POPC   C4A33102  24.522   8.869   7.560
 2298POPC   C1B33103  24.699   8.916   8.564
 2298POPC   C2B33104  24.568   9.231   8.269
 2298POPC   C3B33105  24.423   9.282   7.848
 2298POPC   C4B33106  24.463   9.355   7.397
 2299POPC   NC333107  22.474  28.353   9.556
 2299POPC   PO433108  21.809  28.094   9.444
 2299POPC   GL133109  21.842  28.319   9.074
 2299POPC   GL233110  22.177  28.337   9.143
 2299POPC   C1A33111  22.039  28.498   8.691
 2299POPC   D2A33112  22.143  28.340   8.304
 2299POPC   C3A33113  22.036  28.548   7.912
 2299POPC   C4A33114  21.743  28.463   7.587
 2299POPC   C1B33115  22.500  28.543   8.913
 2299POPC   C2B33116  22.557  28.571   8.487
 2299POPC   C3B33117  22.535  28.555   8.039
 2299POPC   C4B33118  22.436  28.229   7.749
 2300POPC   NC333119   2.376  40.868   9.860
 2300POPC   PO433120   1.858  40.585   9.526
 2300POPC   GL133121   1.917  40.736   9.127
 2300POPC   GL233122   2.139  40.990   9.156
 2300POPC   C1A33123   2.068  40.634   8.744
 2300POPC   D2A33124   2.206  40.637   8.355
 2300POPC   C3A33125   1.853  40.690   8.111
 2300POPC   C4A33126   1.857  40.573   7.716
 2300POPC   C1B33127   2.198  41.136   8.714
 2300POPC   C2B33128   2.123  41.149   8.253
 2300POPC   C3B33129   2.091  41.032   7.812
 2300POPC   C4B33130   2.348  40.709   7.624
 2301POPC   NC333131  42.950   0.231   9.528
 2301POPC   PO433132  43.418   0.674   9.418
 2301POPC   GL133133  43.128   0.541   9.157
 2301POPC   GL233134  43.226   0.188   9.080
 2301POPC   C1A33135  43.147   0.624   8.740
 2301POPC   D2A33136  43.232   0.443   8.359
 2301POPC   C3A33137  43.136   0.576   7.954
 2301POPC   C4A33138  43.303   0.206   7.776
 2301POPC   C1B33139  42.819   0.237   8.873
 2301POPC   C2B33140  42.740   0.304   8.480
 2301POPC   C3B33141  42.917   0.131   8.109
 2301POPC   C4B33142  42.800   0.225   7.682
 2302POPC   NC333143   1.306  22.288   9.616
 2302POPC   PO433144   1.317  21.646   9.821
 2302POPC   GL133145   1.280  21.863   9.330
 2302POPC   GL233146   1.045  22.140   9.211
 2302POPC   C1A33147   1.398  21.980   8.864
 2302POPC   D2A33148   1.644  21.937   8.440
 2302POPC   C3A33149   1.465  22.166   8.063
 2302POPC   C4A33150   1.233  22.025   7.684
 2302POPC   C1B33151   0.870  22.070   8.809
 2302POPC   C2B33152   1.041  22.259   8.425
 2302POPC   C3B33153   0.944  22.377   8.006
 2302POPC   C4B33154   0.833  22.469   7.581
 2303POPC   NC333155  24.676  25.688   9.411
 2303POPC   PO433156  24.507  26.362   9.555
 2303POPC   GL133157  24.526  26.109   9.190
 2303POPC   GL233158  24.896  26.190   9.235
 2303POPC   C1A33159  24.458  25.802   8.810
 2303POPC   D2A33160  24.366  25.966   8.412
 2303POPC   C3A33161  24.430  25.778   8.052
 2303POPC   C4A33162  24.269  25.716   7.671
 2303POPC   C1B33163  24.930  25.981   8.847
 2303POPC   C2B33164  24.834  25.733   8.479
 2303POPC   C3B33165  24.925  25.751   8.050
 2303POPC   C4B33166  24.789  25.759   7.629
 2304POPC   NC333167   9.150  40.148   9.342
 2304POPC   PO433168   8.762  39.664   9.497
 2304POPC   GL133169   8.810  39.841   9.057
 2304POPC   GL233170   8.659  40.159   8.894
 2304POPC   C1A33171   8.876  39.765   8.603
 2304POPC   D2A33172   8.765  40.067   8.271
 2304POPC   C3A33173   8.900  39.963   7.865
 2304POPC   C4A33174   9.330  39.863   7.796
 2304POPC   C1B33175   9.082  40.229   8.691
 2304POPC   C2B33176   9.304  40.223   8.308
 2304POPC   C3B33177   9.223  40.362   7.902
 2304POPC   C4B33178   9.158  40.271   7.497
 2305POPC   NC333179  31.955  28.707   9.424
 2305POPC   PO433180  32.229  29.323   9.607
 2305POPC   GL133181  32.085  29.185   9.196
 2305POPC   GL233182  32.390  29.115   9.144
 2305POPC   C1A33183  32.149  29.325   8.740
 2305POPC   D2A33184  32.327  29.194   8.331
 2305POPC   C3A33185  32.073  29.169   7.926
 2305POPC   C4A33186  32.050  29.113   7.449
 2305POPC   C1B33187  32.547  28.935   8.792
 2305POPC   C2B33188  32.463  28.698   8.431
 2305POPC   C3B33189  32.312  28.746   8.047
 2305POPC   C4B33190  32.428  28.847   7.655
 2306POPC   NC333191  27.342  37.197   9.311
 2306POPC   PO433192  26.691  37.201   9.599
 2306POPC   GL133193  26.660  36.968   9.190
 2306POPC   GL233194  26.971  36.892   9.170
 2306POPC   C1A33195  26.628  36.733   8.788
 2306POPC   D2A33196  26.658  36.549   8.388
 2306POPC   C3A33197  26.632  36.849   8.071
 2306POPC   C4A33198  26.754  36.943   7.677
 2306POPC   C1B33199  27.131  36.747   8.811
 2306POPC   C2B33200  27.052  36.882   8.420
 2306POPC   C3B33201  27.151  36.788   8.024
 2306POPC   C4B33202  27.350  37.021   7.729
 2307POPC   NC333203  35.123  19.428   9.550
 2307POPC   PO433204  35.298  20.116   9.501
 2307POPC   GL133205  35.361  19.834   9.221
 2307POPC   GL233206  35.031  19.779   9.144
 2307POPC   C1A33207  35.518  19.727   8.823
 2307POPC   D2A33208  35.388  19.730   8.415
 2307POPC   C3A33209  35.662  19.729   8.044
 2307POPC   C4A33210  35.669  19.873   7.628
 2307POPC   C1B33211  34.999  19.543   8.740
 2307POPC   C2B33212  34.909  19.629   8.285
 2307POPC   C3B33213  35.176  19.788   7.944
 2307POPC   C4B33214  35.312  19.522   7.660
 2308POPC   NC333215  43.351   1.894   9.521
 2308POPC   PO433216  42.735   2.065   9.399
 2308POPC   GL133217  42.985   1.894   9.053
 2308POPC   GL233218  43.340   1.753   9.051
 2308POPC   C1A33219  43.164   2.131   8.704
 2308POPC   D2A33220  43.327   2.453   8.399
 2308POPC   C3A33221  43.178   2.309   8.003
 2308POPC   C4A33222  42.814   2.077   7.841
 2308POPC   C1B33223  43.188   1.580   8.687
 2308POPC   C2B33224  42.979   1.740   8.364
 2308POPC   C3B33225  43.097   1.652   7.990
 2308POPC   C4B33226  43.286   1.905   7.719
 2309POPC   NC333227  24.519  34.485   9.625
 2309POPC   PO433228  24.719  35.161   9.471
 2309POPC   GL133229  24.545  34.864   9.176
 2309POPC   GL233230  24.433  34.516   9.125
 2309POPC   C1A33231  24.313  34.881   8.798
 2309POPC   D2A33232  24.442  34.889   8.408
 2309POPC   C3A33233  24.397  34.599   8.101
 2309POPC   C4A33234  24.711  34.671   7.851
 2309POPC   C1B33235  24.663  34.226   8.829
 2309POPC   C2B33236  24.541  34.145   8.398
 2309POPC   C3B33237  24.664  34.173   7.952
 2309POPC   C4B33238  24.317  34.257   7.657
 2310POPC   NC333239  13.857  17.749   9.604
 2310POPC   PO433240  13.385  17.312   9.444
 2310POPC   GL133241  13.574  17.567   9.167
 2310POPC   GL233242  13.261  17.665   9.001
 2310POPC   C1A33243  13.767  17.429   8.777
 2310POPC   D2A33244  13.564  17.417   8.366
 2310POPC   C3A33245  13.841  17.414   8.036
 2310POPC   C4A33246  13.848  17.607   7.628
 2310POPC   C1B33247  13.546  17.909   8.737
 2310POPC   C2B33248  13.607  18.104   8.331
 2310POPC   C3B33249  13.564  17.856   7.966
 2310POPC   C4B33250  13.369  17.456   7.792
 2311POPC   NC333251  11.341  36.449   9.595
 2311POPC   PO433252  11.451  35.793   9.523
 2311POPC   GL133253  11.405  36.067   9.214
 2311POPC   GL233254  11.044  35.998   9.112
 2311POPC   C1A33255  11.457  36.092   8.786
 2311POPC   D2A33256  11.664  36.111   8.406
 2311POPC   C3A33257  11.367  36.270   8.131
 2311POPC   C4A33258  11.363  36.536   7.822
 2311POPC   C1B33259  10.921  35.967   8.662
 2311POPC   C2B33260  11.069  35.824   8.241
 2311POPC   C3B33261  11.470  35.792   8.042
 2311POPC   C4B33262  11.614  36.053   7.701
 2312POPC   NC333263   7.718  19.383   9.490
 2312POPC   PO433264   7.225  19.798   9.557
 2312POPC   GL133265   7.432  19.759   9.162
 2312POPC   GL233266   7.624  20.067   9.079
 2312POPC   C1A33267   7.494  19.510   8.821
 2312POPC   D2A33268   7.749  19.622   8.490
 2312POPC   C3A33269   7.636  19.518   8.081
 2312POPC   C4A33270   7.592  19.598   7.685
 2312POPC   C1B33271   7.417  20.045   8.686
 2312POPC   C2B33272   7.327  20.216   8.278
 2312POPC   C3B33273   7.523  20.006   7.990
 2312POPC   C4B33274   7.822  20.126   7.727
 2313POPC   NC333275  40.640  29.078   9.423
 2313POPC   PO433276  40.783  29.715   9.377
 2313POPC   GL133277  40.730  29.418   9.017
 2313POPC   GL233278  40.929  29.093   9.001
 2313POPC   C1A33279  40.774  29.648   8.629
 2313POPC   D2A33280  40.950  29.513   8.249
 2313POPC   C3A33281  40.717  29.550   7.891
 2313POPC   C4A33282  40.288  29.498   7.899
 2313POPC   C1B33283  40.764  29.141   8.569
 2313POPC   C2B33284  40.549  29.138   8.159
 2313POPC   C3B33285  40.549  28.831   7.827
 2313POPC   C4B33286  40.876  28.715   7.532
 2314POPC   NC333287   2.140  36.437   9.509
 2314POPC   PO433288   2.374  35.804   9.362
 2314POPC   GL133289   2.106  36.097   9.104
 2314POPC   GL233290   1.741  36.072   9.121
 2314POPC   C1A33291   2.014  35.969   8.689
 2314POPC   D2A33292   2.139  35.756   8.330
 2314POPC   C3A33293   2.030  36.003   8.005
 2314POPC   C4A33294   1.802  35.824   7.680
 2314POPC   C1B33295   1.655  36.373   8.774
 2314POPC   C2B33296   1.780  36.292   8.371
 2314POPC   C3B33297   1.732  36.418   7.954
 2314POPC   C4B33298   1.806  36.316   7.524
 2315POPC   NC333299  41.921  44.585   9.742
 2315POPC   PO433300  41.318  44.706   9.549
 2315POPC   GL133301  41.545  44.718   9.170
 2315POPC   GL233302  41.565   0.061   9.037
 2315POPC   C1A33303  41.606  44.463   8.792
 2315POPC   D2A33304  41.335  44.380   8.440
 2315POPC   C3A33305  41.462  44.539   8.061
 2315POPC   C4A33306  41.709  44.400   7.717
 2315POPC   C1B33307  41.263  44.838   8.747
 2315POPC   C2B33308  41.267  44.932   8.354
 2315POPC   C3B33309  41.444   0.029   7.989
 2315POPC   C4B33310  41.412  44.810   7.602
 2316POPC   NC333311  30.603  41.793   9.449
 2316POPC   PO433312  31.001  41.309   9.569
 2316POPC   GL133313  30.792  41.171   9.180
 2316POPC   GL233314  30.507  41.384   9.088
 2316POPC   C1A33315  30.743  41.058   8.768
 2316POPC   D2A33316  30.502  41.308   8.493
 2316POPC   C3A33317  30.683  41.465   8.124
 2316POPC   C4A33318  30.780  41.403   7.707
 2316POPC   C1B33319  30.531  41.754   8.784
 2316POPC   C2B33320  30.513  41.920   8.347
 2316POPC   C3B33321  30.520  41.876   7.861
 2316POPC   C4B33322  30.433  41.637   7.435
 2317POPC   NC333323  43.467  28.046   9.738
 2317POPC   PO433324  43.188  28.535   9.615
 2317POPC   GL133325  43.228  28.592   9.173
 2317POPC   GL233326  43.245  28.233   9.103
 2317POPC   C1A33327  43.129  28.641   8.728
 2317POPC   D2A33328  42.879  28.453   8.381
 2317POPC   C3A33329  43.022  28.593   7.952
 2317POPC   C4A33330  43.397  28.776   7.804
 2317POPC   C1B33331  43.225  28.155   8.650
 2317POPC   C2B33332  43.382  28.409   8.279
 2317POPC   C3B33333  43.428  28.254   7.841
 2317POPC   C4B33334  43.366  27.925   7.504
 2318POPC   NC333335  10.465  41.312   9.372
 2318POPC   PO433336  11.117  41.357   9.255
 2318POPC   GL133337  10.757  41.651   9.051
 2318POPC   GL233338  10.406  41.559   8.950
 2318POPC   C1A33339  10.659  41.841   8.631
 2318POPC   D2A33340  10.487  41.555   8.440
 2318POPC   C3A33341  10.771  41.377   8.155
 2318POPC   C4A33342  10.662  41.199   7.774
 2318POPC   C1B33343  10.110  41.814   8.717
 2318POPC   C2B33344  10.124  41.939   8.302
 2318POPC   C3B33345  10.502  41.902   8.073
 2318POPC   C4B33346  10.707  42.006   7.716
 2319POPC   NC333347  24.255  40.560   9.622
 2319POPC   PO433348  24.592  41.068   9.606
 2319POPC   GL133349  24.404  40.839   9.215
 2319POPC   GL233350  24.329  40.461   9.127
 2319POPC   C1A33351  24.154  40.910   8.851
 2319POPC   D2A33352  24.122  41.120   8.460
 2319POPC   C3A33353  24.120  40.862   8.106
 2319POPC   C4A33354  24.340  40.931   7.778
 2319POPC   C1B33355  24.671  40.482   8.811
 2319POPC   C2B33356  24.750  40.601   8.367
 2319POPC   C3B33357  24.651  40.533   7.923
 2319POPC   C4B33358  24.544  40.585   7.471
 2320POPC   NC333359   3.969  15.871   9.322
 2320POPC   PO433360   4.522  16.150   9.622
 2320POPC   GL133361   4.365  16.217   9.182
 2320POPC   GL233362   4.090  16.150   8.917
 2320POPC   C1A33363   4.577  16.175   8.772
 2320POPC   D2A33364   4.298  16.115   8.408
 2320POPC   C3A33365   4.417  16.081   7.977
 2320POPC   C4A33366   4.218  16.338   7.631
 2320POPC   C1B33367   4.306  15.731   8.734
 2320POPC   C2B33368   4.464  15.613   8.301
 2320POPC   C3B33369   4.295  15.549   7.893
 2320POPC   C4B33370   3.913  15.616   7.673
 2321POPC   NC333371   5.566  12.650   9.822
 2321POPC   PO433372   4.966  12.845   9.514
 2321POPC   GL133373   5.059  12.918   9.112
 2321POPC   GL233374   5.260  12.664   9.096
 2321POPC   C1A33375   5.054  13.013   8.673
 2321POPC   D2A33376   5.169  12.905   8.272
 2321POPC   C3A33377   4.872  13.032   7.975
 2321POPC   C4A33378   4.888  12.860   7.627
 2321POPC   C1B33379   4.875  12.550   8.820
 2321POPC   C2B33380   4.798  12.375   8.423
 2321POPC   C3B33381   4.910  12.514   8.064
 2321POPC   C4B33382   4.797  12.356   7.700
 2322POPC   NC333383  33.503  16.918   9.581
 2322POPC   PO433384  32.862  16.701   9.524
 2322POPC   GL133385  32.960  16.655   9.136
 2322POPC   GL233386  32.775  16.331   9.157
 2322POPC   C1A33387  33.159  16.839   8.813
 2322POPC   D2A33388  33.035  16.695   8.455
 2322POPC   C3A33389  33.080  16.894   8.085
 2322POPC   C4A33390  32.968  16.774   7.704
 2322POPC   C1B33391  32.979  16.259   8.817
 2322POPC   C2B33392  32.921  16.190   8.425
 2322POPC   C3B33393  33.021  16.352   8.040
 2322POPC   C4B33394  33.124  16.271   7.607
 2323POPC   NC333395   9.140  11.201   9.413
 2323POPC   PO433396   8.599  11.494   9.519
 2323POPC   GL133397   8.745  11.399   9.109
 2323POPC   GL233398   8.766  11.043   9.082
 2323POPC   C1A33399   8.846  11.329   8.663
 2323POPC   D2A33400   8.808  11.440   8.229
 2323POPC   C3A33401   9.108  11.508   7.921
 2323POPC   C4A33402   8.833  11.710   7.615
 2323POPC   C1B33403   9.085  10.858   8.812
 2323POPC   C2B33404   9.102  10.711   8.396
 2323POPC   C3B33405   8.989  10.983   8.024
 2323POPC   C4B33406   8.711  11.226   7.740
 2324POPC   NC333407   2.380   6.480   9.588
 2324POPC   PO433408   2.873   6.912   9.478
 2324POPC   GL133409   2.690   6.663   9.173
 2324POPC   GL233410   2.986   6.572   9.002
 2324POPC   C1A33411   2.527   6.736   8.760
 2324POPC   D2A33412   2.436   6.635   8.345
 2324POPC   C3A33413   2.591   6.828   7.980
 2324POPC   C4A33414   2.580   6.995   7.571
 2324POPC   C1B33415   2.870   6.374   8.594
 2324POPC   C2B33416   2.776   6.316   8.162
 2324POPC   C3B33417   2.929   6.461   7.770
 2324POPC   C4B33418   3.016   6.764   7.461
 2325POPC   NC333419  37.888   1.429   9.394
 2325POPC   PO433420  37.529   0.861   9.446
 2325POPC   GL133421  37.557   1.075   9.110
 2325POPC   GL233422  37.886   1.031   9.082
 2325POPC   C1A33423  37.453   1.008   8.700
 2325POPC   D2A33424  37.506   0.809   8.317
 2325POPC   C3A33425  37.434   1.045   7.927
 2325POPC   C4A33426  37.696   1.076   7.543
 2325POPC   C1B33427  37.812   1.372   8.760
 2325POPC   C2B33428  37.753   1.298   8.342
 2325POPC   C3B33429  37.865   1.368   7.941
 2325POPC   C4B33430  37.805   1.625   7.598
 2326POPC   NC333431  30.189   5.203   9.923
 2326POPC   PO433432  30.809   5.019   9.721
 2326POPC   GL133433  30.883   4.987   9.265
 2326POPC   GL233434  30.613   5.186   9.150
 2326POPC   C1A33435  30.785   4.894   8.773
 2326POPC   D2A33436  30.530   5.002   8.388
 2326POPC   C3A33437  30.537   4.822   7.962
 2326POPC   C4A33438  30.886   4.894   7.703
 2326POPC   C1B33439  30.379   5.405   8.834
 2326POPC   C2B33440  30.446   5.545   8.388
 2326POPC   C3B33441  30.710   5.352   8.049
 2326POPC   C4B33442  30.530   5.265   7.657
 2327POPC   NC333443   8.617   0.947   9.603
 2327POPC   PO433444   9.266   1.115   9.510
 2327POPC   GL133445   8.957   1.106   9.190
 2327POPC   GL233446   8.695   1.350   9.236
 2327POPC   C1A33447   9.007   0.982   8.755
 2327POPC   D2A33448   9.278   1.010   8.393
 2327POPC   C3A33449   9.012   0.961   8.063
 2327POPC   C4A33450   8.861   1.002   7.665
 2327POPC   C1B33451   8.843   1.459   8.806
 2327POPC   C2B33452   8.792   1.300   8.379
 2327POPC   C3B33453   8.727   1.403   7.960
 2327POPC   C4B33454   8.745   1.450   7.467
 2328POPC   NC333455  41.549  10.159   9.567
 2328POPC   PO433456  41.789  10.740   9.423
 2328POPC   GL133457  41.468  10.502   9.186
 2328POPC   GL233458  41.240  10.154   9.149
 2328POPC   C1A33459  41.392  10.500   8.784
 2328POPC   D2A33460  41.388  10.773   8.464
 2328POPC   C3A33461  41.492  10.626   8.071
 2328POPC   C4A33462  41.230  10.679   7.699
 2328POPC   C1B33463  41.028  10.142   8.764
 2328POPC   C2B33464  41.097  10.332   8.370
 2328POPC   C3B33465  41.229  10.203   7.957
 2328POPC   C4B33466  41.105  10.217   7.517
 2329POPC   NC333467  23.254  42.656   9.509
 2329POPC   PO433468  22.944  41.991   9.458
 2329POPC   GL133469  22.963  42.333   9.194
 2329POPC   GL233470  23.327  42.356   9.115
 2329POPC   C1A33471  22.946  42.569   8.811
 2329POPC   D2A33472  23.200  42.591   8.445
 2329POPC   C3A33473  23.005  42.407   8.063
 2329POPC   C4A33474  23.175  42.267   7.644
 2329POPC   C1B33475  23.180  42.104   8.784
 2329POPC   C2B33476  23.293  42.099   8.384
 2329POPC   C3B33477  23.263  41.941   8.030
 2329POPC   C4B33478  23.127  41.759   7.698
 2330POPC   NC333479  42.333  23.168   9.777
 2330POPC   PO433480  41.970  22.780   9.609
 2330POPC   GL133481  42.193  22.654   9.233
 2330POPC   GL233482  42.474  22.439   9.258
 2330POPC   C1A33483  42.155  22.657   8.783
 2330POPC   D2A33484  42.263  22.562   8.339
 2330POPC   C3A33485  42.129  22.718   7.932
 2330POPC   C4A33486  42.225  23.019   7.593
 2330POPC   C1B33487  42.592  22.368   8.809
 2330POPC   C2B33488  42.644  22.222   8.355
 2330POPC   C3B33489  42.542  22.377   7.922
 2330POPC   C4B33490  42.396  22.508   7.514
 2331POPC   NC333491   1.766  20.376   9.515
 2331POPC   PO433492   2.261  20.832   9.525
 2331POPC   GL133493   2.093  20.605   9.191
 2331POPC   GL233494   1.796  20.757   9.163
 2331POPC   C1A33495   2.159  20.705   8.763
 2331POPC   D2A33496   2.193  20.546   8.339
 2331POPC   C3A33497   1.978  20.357   7.991
 2331POPC   C4A33498   2.108  20.619   7.621
 2331POPC   C1B33499   1.708  20.489   8.822
 2331POPC   C2B33500   1.623  20.392   8.403
 2331POPC   C3B33501   1.470  20.432   8.017
 2331POPC   C4B33502   1.596  20.615   7.678
 2332POPC   NC333503  12.173   6.414   9.972
 2332POPC   PO433504  11.857   6.817   9.490
 2332POPC   GL133505  11.983   6.892   9.062
 2332POPC   GL233506  12.281   6.723   8.986
 2332POPC   C1A33507  11.973   6.913   8.622
 2332POPC   D2A33508  12.329   6.782   8.416
 2332POPC   C3A33509  12.248   6.761   7.995
 2332POPC   C4A33510  12.111   6.931   7.606
 2332POPC   C1B33511  12.095   6.409   8.700
 2332POPC   C2B33512  12.259   6.274   8.321
 2332POPC   C3B33513  12.215   6.247   7.922
 2332POPC   C4B33514  12.306   6.459   7.558
 2333POPC   NC333515   1.904  11.167   9.296
 2333POPC   PO433516   2.331  11.761   9.441
 2333POPC   GL133517   2.158  11.599   9.092
 2333POPC   GL233518   2.382  11.330   9.122
 2333POPC   C1A33519   1.900  11.574   8.714
 2333POPC   D2A33520   1.653  11.314   8.431
 2333POPC   C3A33521   1.733  11.450   8.019
 2333POPC   C4A33522   1.694  11.684   7.653
 2333POPC   C1B33523   2.267  11.208   8.702
 2333POPC   C2B33524   2.131  11.258   8.300
 2333POPC   C3B33525   2.130  11.114   7.905
 2333POPC   C4B33526   2.177  11.477   7.646
 2334POPC   NC333527   3.837  21.549   9.234
 2334POPC   PO433528   3.210  21.464   9.404
 2334POPC   GL133529   3.439  21.316   9.041
 2334POPC   GL233530   3.576  20.980   9.017
 2334POPC   C1A33531   3.631  21.432   8.612
 2334POPC   D2A33532   3.734  21.519   8.170
 2334POPC   C3A33533   3.447  21.529   7.838
 2334POPC   C4A33534   3.743  21.662   7.568
 2334POPC   C1B33535   3.305  21.027   8.657
 2334POPC   C2B33536   3.375  21.151   8.233
 2334POPC   C3B33537   3.646  21.069   7.882
 2334POPC   C4B33538   3.461  21.146   7.465
 2335POPC   NC333539   6.714  24.210   9.393
 2335POPC   PO433540   6.602  24.785   9.563
 2335POPC   GL133541   6.796  24.666   9.151
 2335POPC   GL233542   7.106  24.412   9.159
 2335POPC   C1A33543   6.520  24.515   8.821
 2335POPC   D2A33544   6.263  24.659   8.454
 2335POPC   C3A33545   6.465  24.526   8.086
 2335POPC   C4A33546   6.573  24.564   7.628
 2335POPC   C1B33547   7.036  24.455   8.717
 2335POPC   C2B33548   6.894  24.325   8.306
 2335POPC   C3B33549   7.007  24.426   7.881
 2335POPC   C4B33550   7.077  24.381   7.425
 2336POPC   NC333551   1.582  29.166   9.430
 2336POPC   PO433552   2.231  29.055   9.424
 2336POPC   GL133553   1.983  29.095   9.096
 2336POPC   GL233554   1.822  28.759   9.161
 2336POPC   C1A33555   2.098  29.276   8.704
 2336POPC   D2A33556   2.185  29.123   8.315
 2336POPC   C3A33557   2.007  29.209   7.912
 2336POPC   C4A33558   2.170  29.390   7.552
 2336POPC   C1B33559   1.718  28.839   8.728
 2336POPC   C2B33560   1.673  28.932   8.301
 2336POPC   C3B33561   1.691  28.788   7.907
 2336POPC   C4B33562   1.840  28.882   7.487
 2337POPC   NC333563  39.156  12.607   9.552
 2337POPC   PO433564  39.556  12.077   9.558
 2337POPC   GL133565  39.399  12.045   9.148
 2337POPC   GL233566  39.410  12.370   9.150
 2337POPC   C1A33567  39.148  12.040   8.763
 2337POPC   D2A33568  38.824  11.924   8.456
 2337POPC   C3A33569  38.910  11.744   8.028
 2337POPC   C4A33570  39.005  11.944   7.615
 2337POPC   C1B33571  39.593  12.287   8.737
 2337POPC   C2B33572  39.585  12.081   8.347
 2337POPC   C3B33573  39.381  11.966   7.998
 2337POPC   C4B33574  39.476  12.203   7.652
 2338POPC   NC333575  32.584  28.176   9.379
 2338POPC   PO433576  32.372  28.829   9.581
 2338POPC   GL133577  32.516  28.627   9.197
 2338POPC   GL233578  32.240  28.590   9.034
 2338POPC   C1A33579  32.553  28.328   8.773
 2338POPC   D2A33580  32.167  28.294   8.544
 2338POPC   C3A33581  32.177  28.267   8.108
 2338POPC   C4A33582  32.313  28.261   7.682
 2338POPC   C1B33583  32.035  28.822   8.785
 2338POPC   C2B33584  31.909  28.880   8.408
 2338POPC   C3B33585  31.806  28.623   8.123
 2338POPC   C4B33586  31.888  28.694   7.718
 2339POPC   NC333587   4.094  12.598   9.586
 2339POPC   PO433588   4.218  13.213   9.449
 2339POPC   GL133589   4.211  12.908   9.137
 2339POPC   GL233590   4.560  12.881   9.134
 2339POPC   C1A33591   4.329  12.868   8.685
 2339POPC   D2A33592   4.628  12.843   8.367
 2339POPC   C3A33593   4.469  12.717   7.931
 2339POPC   C4A33594   4.054  12.660   7.825
 2339POPC   C1B33595   4.616  13.256   8.819
 2339POPC   C2B33596   4.566  13.349   8.374
 2339POPC   C3B33597   4.360  13.206   8.017
 2339POPC   C4B33598   4.566  13.281   7.618
 2340POPC   NC333599  20.472  37.083   9.579
 2340POPC   PO433600  20.535  36.447   9.551
 2340POPC   GL133601  20.598  36.796   9.078
 2340POPC   GL233602  20.805  37.099   9.040
 2340POPC   C1A33603  20.729  36.728   8.654
 2340POPC   D2A33604  20.791  36.682   8.216
 2340POPC   C3A33605  20.491  36.676   7.854
 2340POPC   C4A33606  20.618  36.630   7.386
 2340POPC   C1B33607  20.439  37.172   8.762
 2340POPC   C2B33608  20.486  37.072   8.317
 2340POPC   C3B33609  20.716  37.109   7.902
 2340POPC   C4B33610  20.484  37.091   7.495
 2341POPC   NC333611  28.188  14.044   9.602
 2341POPC   PO433612  28.621  13.477   9.538
 2341POPC   GL133613  28.403  13.562   9.172
 2341POPC   GL233614  28.122  13.794   9.161
 2341POPC   C1A33615  28.207  13.403   8.809
 2341POPC   D2A33616  28.344  13.555   8.408
 2341POPC   C3A33617  28.172  13.429   8.028
 2341POPC   C4A33618  28.326  13.531   7.609
 2341POPC   C1B33619  28.370  13.895   8.781
 2341POPC   C2B33620  28.355  14.098   8.369
 2341POPC   C3B33621  28.389  13.913   7.955
 2341POPC   C4B33622  28.462  14.015   7.492
 2342POPC   NC333623  17.788  41.545   9.512
 2342POPC   PO433624  18.361  41.918   9.494
 2342POPC   GL133625  18.231  41.731   9.135
 2342POPC   GL233626  18.166  41.364   9.166
 2342POPC   C1A33627  18.381  41.639   8.731
 2342POPC   D2A33628  18.198  41.561   8.327
 2342POPC   C3A33629  18.182  41.928   8.090
 2342POPC   C4A33630  18.597  41.897   7.926
 2342POPC   C1B33631  17.874  41.470   8.804
 2342POPC   C2B33632  17.741  41.345   8.372
 2342POPC   C3B33633  17.847  41.430   7.947
 2342POPC   C4B33634  18.215  41.545   7.764
 2343POPC   NC333635  12.613  31.349   9.824
 2343POPC   PO433636  13.110  31.683   9.577
 2343POPC   GL133637  12.753  31.500   9.296
 2343POPC   GL233638  12.890  31.722   9.059
 2343POPC   C1A33639  12.510  31.408   8.873
 2343POPC   D2A33640  12.566  31.502   8.413
 2343POPC   C3A33641  12.779  31.309   8.063
 2343POPC   C4A33642  12.457  31.363   7.773
 2343POPC   C1B33643  13.104  32.026   8.750
 2343POPC   C2B33644  13.337  32.004   8.339
 2343POPC   C3B33645  13.183  31.905   7.927
 2343POPC   C4B33646  13.228  31.741   7.476
 2344POPC   NC333647  29.974  22.673   9.540
 2344POPC   PO433648  29.933  23.288   9.553
 2344POPC   GL133649  29.751  23.073   9.217
 2344POPC   GL233650  29.915  22.825   9.073
 2344POPC   C1A33651  29.732  23.194   8.773
 2344POPC   D2A33652  29.494  23.174   8.406
 2344POPC   C3A33653  29.654  23.072   8.013
 2344POPC   C4A33654  29.658  23.290   7.617
 2344POPC   C1B33655  30.167  22.920   8.712
 2344POPC   C2B33656  30.031  22.938   8.338
 2344POPC   C3B33657  30.032  22.708   7.975
 2344POPC   C4B33658  29.847  22.789   7.611
 2345POPC   NC333659  31.796  25.613   9.419
 2345POPC   PO433660  31.207  25.292   9.518
 2345POPC   GL133661  31.326  25.352   9.120
 2345POPC   GL233662  31.657  25.233   9.112
 2345POPC   C1A33663  31.373  25.569   8.765
 2345POPC   D2A33664  31.454  25.656   8.351
 2345POPC   C3A33665  31.270  25.349   8.075
 2345POPC   C4A33666  31.288  25.361   7.657
 2345POPC   C1B33667  31.662  25.107   8.700
 2345POPC   C2B33668  31.809  25.292   8.325
 2345POPC   C3B33669  31.741  25.421   7.914
 2345POPC   C4B33670  31.732  25.117   7.593
 2346POPC   NC333671  40.366  13.914   9.258
 2346POPC   PO433672  39.788  13.610   9.504
 2346POPC   GL133673  39.968  13.572   9.096
 2346POPC   GL233674  40.291  13.445   9.048
 2346POPC   C1A33675  39.800  13.705   8.712
 2346POPC   D2A33676  39.849  13.547   8.319
 2346POPC   C3A33677  39.755  13.728   7.946
 2346POPC   C4A33678  40.050  13.900   7.715
 2346POPC   C1B33679  40.295  13.628   8.608
 2346POPC   C2B33680  40.272  13.827   8.184
 2346POPC   C3B33681  40.532  13.733   7.808
 2346POPC   C4B33682  40.519  13.595   7.365
 2347POPC   NC333683  32.995  13.418   9.608
 2347POPC   PO433684  33.039  14.101   9.781
 2347POPC   GL133685  32.898  13.873   9.377
 2347POPC   GL233686  33.183  13.749   9.219
 2347POPC   C1A33687  32.792  13.768   8.923
 2347POPC   D2A33688  32.720  13.921   8.496
 2347POPC   C3A33689  32.830  13.744   8.105
 2347POPC   C4A33690  32.770  13.616   7.689
 2347POPC   C1B33691  33.317  13.553   8.848
 2347POPC   C2B33692  33.163  13.469   8.445
 2347POPC   C3B33693  33.307  13.548   8.038
 2347POPC   C4B33694  33.243  13.447   7.654
 2348POPC   NC333695  19.207  40.729   9.421
 2348POPC   PO433696  18.582  41.049   9.382
 2348POPC   GL133697  18.823  40.851   9.033
 2348POPC   GL233698  19.007  40.528   9.012
 2348POPC   C1A33699  18.876  40.806   8.588
 2348POPC   D2A33700  18.647  40.796   8.213
 2348POPC   C3A33701  18.971  40.819   7.910
 2348POPC   C4A33702  18.953  40.939   7.482
 2348POPC   C1B33703  19.364  40.711   8.769
 2348POPC   C2B33704  19.509  40.561   8.368
 2348POPC   C3B33705  19.336  40.438   7.971
 2348POPC   C4B33706  19.308  40.609   7.546
 2349POPC   NC333707   2.537  17.134   9.541
 2349POPC   PO433708   2.994  16.636   9.627
 2349POPC   GL133709   2.750  16.708   9.278
 2349POPC   GL233710   2.835  17.004   9.153
 2349POPC   C1A33711   2.819  16.597   8.835
 2349POPC   D2A33712   2.855  16.832   8.443
 2349POPC   C3A33713   2.771  16.568   8.046
 2349POPC   C4A33714   3.017  16.476   7.659
 2349POPC   C1B33715   2.553  17.038   8.828
 2349POPC   C2B33716   2.400  17.015   8.393
 2349POPC   C3B33717   2.666  17.075   7.988
 2349POPC   C4B33718   2.449  17.114   7.568
 2350POPC   NC333719   0.676  17.379   9.487
 2350POPC   PO433720   0.305  17.857   9.495
 2350POPC   GL133721   0.381  17.594   9.117
 2350POPC   GL233722   0.700  17.688   9.084
 2350POPC   C1A33723   0.341  17.429   8.658
 2350POPC   D2A33724   0.349  17.658   8.245
 2350POPC   C3A33725   0.328  17.537   7.806
 2350POPC   C4A33726   0.654  17.820   7.555
 2350POPC   C1B33727   0.825  17.506   8.767
 2350POPC   C2B33728   0.801  17.429   8.362
 2350POPC   C3B33729   0.799  17.535   7.966
 2350POPC   C4B33730   0.741  17.341   7.558
 2351POPC   NC333731  12.213   1.047   9.643
 2351POPC   PO433732  11.664   1.441   9.634
 2351POPC   GL133733  11.941   1.294   9.295
 2351POPC   GL233734  11.767   1.551   9.145
 2351POPC   C1A33735  12.055   1.012   8.916
 2351POPC   D2A33736  11.947   0.991   8.437
 2351POPC   C3A33737  12.243   1.061   8.064
 2351POPC   C4A33738  12.373   1.120   7.614
 2351POPC   C1B33739  12.140   1.513   8.884
 2351POPC   C2B33740  12.185   1.459   8.437
 2351POPC   C3B33741  12.088   1.536   8.001
 2351POPC   C4B33742  12.299   1.792   7.732
 2352POPC   NC333743  11.961  44.947   9.483
 2352POPC   PO433744  12.195   0.603   9.508
 2352POPC   GL133745  11.890   0.529   9.200
 2352POPC   GL233746  12.109   0.253   9.084
 2352POPC   C1A33747  11.801   0.568   8.751
 2352POPC   D2A33748  12.107   0.483   8.414
 2352POPC   C3A33749  12.044   0.619   7.977
 2352POPC   C4A33750  12.383   0.615   7.661
 2352POPC   C1B33751  11.940   0.073   8.723
 2352POPC   C2B33752  11.703   0.157   8.349
 2352POPC   C3B33753  11.821   0.183   7.907
 2352POPC   C4B33754  12.176   0.132   7.629
 2353POPC   NC333755  17.383  34.950   9.498
 2353POPC   PO433756  17.705  35.594   9.481
 2353POPC   GL133757  17.695  35.561   9.091
 2353POPC   GL233758  17.606  35.233   9.119
 2353POPC   C1A33759  17.460  35.489   8.716
 2353POPC   D2A33760  17.322  35.179   8.455
 2353POPC   C3A33761  17.432  35.415   8.122
 2353POPC   C4A33762  17.349  35.397   7.715
 2353POPC   C1B33763  17.758  35.028   8.722
 2353POPC   C2B33764  17.848  35.129   8.292
 2353POPC   C3B33765  17.858  35.292   7.865
 2353POPC   C4B33766  17.800  35.070   7.469
 2354POPC   NC333767   3.974  22.407   9.472
 2354POPC   PO433768   4.605  21.989   9.455
 2354POPC   GL133769   4.300  22.181   9.137
 2354POPC   GL233770   4.336  22.587   9.127
 2354POPC   C1A33771   4.035  21.997   8.770
 2354POPC   D2A33772   4.143  21.718   8.404
 2354POPC   C3A33773   4.037  21.903   7.978
 2354POPC   C4A33774   4.380  22.173   7.861
 2354POPC   C1B33775   4.158  22.492   8.742
 2354POPC   C2B33776   4.142  22.281   8.353
 2354POPC   C3B33777   3.947  22.424   8.009
 2354POPC   C4B33778   4.063  22.533   7.595
 2355POPC   NC333779  11.777   4.242   9.599
 2355POPC   PO433780  12.322   4.560   9.799
 2355POPC   GL133781  12.082   4.538   9.343
 2355POPC   GL233782  12.048   4.161   9.183
 2355POPC   C1A33783  12.032   4.534   8.857
 2355POPC   D2A33784  12.317   4.392   8.505
 2355POPC   C3A33785  12.270   4.366   8.048
 2355POPC   C4A33786  12.249   4.008   7.754
 2355POPC   C1B33787  12.004   4.040   8.727
 2355POPC   C2B33788  11.951   3.996   8.264
 2355POPC   C3B33789  11.797   4.219   7.909
 2355POPC   C4B33790  11.804   4.111   7.485
 2356POPC   NC333791   2.735  10.699   9.346
 2356POPC   PO433792   2.297  10.121   9.430
 2356POPC   GL133793   2.544  10.266   9.079
 2356POPC   GL233794   2.900  10.248   9.126
 2356POPC   C1A33795   2.531  10.473   8.656
 2356POPC   D2A33796   2.828  10.780   8.459
 2356POPC   C3A33797   2.898  10.688   8.021
 2356POPC   C4A33798   2.745  10.491   7.610
 2356POPC   C1B33799   3.022  10.370   8.707
 2356POPC   C2B33800   3.057  10.220   8.248
 2356POPC   C3B33801   3.214  10.222   7.781
 2356POPC   C4B33802   3.143  10.298   7.292
 2357POPC   NC333803  19.789  31.318   9.562
 2357POPC   PO433804  20.275  31.752   9.413
 2357POPC   GL133805  20.039  31.482   9.160
 2357POPC   GL233806  19.717  31.662   9.178
 2357POPC   C1A33807  19.887  31.363   8.777
 2357POPC   D2A33808  19.887  31.520   8.389
 2357POPC   C3A33809  20.101  31.279   8.075
 2357POPC   C4A33810  19.920  31.227   7.694
 2357POPC   C1B33811  19.682  31.846   8.750
 2357POPC   C2B33812  19.466  31.864   8.343
 2357POPC   C3B33813  19.596  31.974   7.935
 2357POPC   C4B33814  19.775  31.700   7.602
 2358POPC   NC333815  36.159  11.987   9.622
 2358POPC   PO433816  35.823  11.525   9.397
 2358POPC   GL133817  36.092  11.869   9.127
 2358POPC   GL233818  36.247  12.232   9.187
 2358POPC   C1A33819  36.050  12.113   8.727
 2358POPC   D2A33820  36.070  12.447   8.396
 2358POPC   C3A33821  35.937  12.342   7.954
 2358POPC   C4A33822  35.987  11.938   7.717
 2358POPC   C1B33823  36.505  12.344   8.793
 2358POPC   C2B33824  36.584  12.538   8.369
 2358POPC   C3B33825  36.372  12.608   7.947
 2358POPC   C4B33826  36.303  12.318   7.584
 2359POPC   NC333827  26.526  38.905   9.881
 2359POPC   PO433828  25.928  39.182   9.578
 2359POPC   GL133829  25.961  38.946   9.200
 2359POPC   GL233830  26.110  39.263   9.098
 2359POPC   C1A33831  25.967  38.949   8.743
 2359POPC   D2A33832  25.950  39.271   8.382
 2359POPC   C3A33833  26.022  38.991   8.048
 2359POPC   C4A33834  25.870  38.952   7.650
 2359POPC   C1B33835  26.303  39.338   8.729
 2359POPC   C2B33836  26.320  39.682   8.419
 2359POPC   C3B33837  26.253  39.618   7.971
 2359POPC   C4B33838  26.308  39.257   7.693
 2360POPC   NC333839  37.999  12.293   9.386
 2360POPC   PO433840  37.556  11.725   9.478
 2360POPC   GL133841  37.657  11.992   9.145
 2360POPC   GL233842  37.491  12.295   9.296
 2360POPC   C1A33843  37.850  12.026   8.718
 2360POPC   D2A33844  37.926  12.111   8.252
 2360POPC   C3A33845  37.707  11.842   7.920
 2360POPC   C4A33846  37.551  11.796   7.461
 2360POPC   C1B33847  37.389  12.329   8.863
 2360POPC   C2B33848  37.404  12.178   8.432
 2360POPC   C3B33849  37.538  12.440   8.086
 2360POPC   C4B33850  37.867  12.313   7.770
 2361POPC   NC333851  44.511   0.979   9.528
 2361POPC   PO433852  44.861   1.447   9.833
 2361POPC   GL133853  44.783   1.349   9.310
 2361POPC   GL233854  44.551   1.530   9.119
 2361POPC   C1A33855  44.546   1.053   8.903
 2361POPC   D2A33856  44.385   1.065   8.434
 2361POPC   C3A33857  44.482   0.905   8.006
 2361POPC   C4A33858  44.723   1.115   7.688
 2361POPC   C1B33859  44.718   1.498   8.749
 2361POPC   C2B33860  44.473   1.579   8.415
 2361POPC   C3B33861  44.509   1.428   8.024
 2361POPC   C4B33862  44.542   1.575   7.610
 2362POPC   NC333863  40.294   8.334   9.424
 2362POPC   PO433864  40.938   8.070   9.533
 2362POPC   GL133865  40.773   8.243   9.157
 2362POPC   GL233866  41.078   8.118   8.996
 2362POPC   C1A33867  40.507   8.392   8.817
 2362POPC   D2A33868  40.399   8.183   8.421
 2362POPC   C3A33869  40.508   8.334   8.026
 2362POPC   C4A33870  40.725   8.375   7.674
 2362POPC   C1B33871  40.930   8.265   8.574
 2362POPC   C2B33872  41.023   8.462   8.152
 2362POPC   C3B33873  41.167   8.216   7.810
 2362POPC   C4B33874  41.168   7.780   7.728
 2363POPC   NC333875  11.591  29.895   9.654
 2363POPC   PO433876  12.234  30.045   9.648
 2363POPC   GL133877  11.945  29.990   9.291
 2363POPC   GL233878  11.764  30.275   9.145
 2363POPC   C1A33879  11.908  29.866   8.866
 2363POPC   D2A33880  11.841  30.156   8.505
 2363POPC   C3A33881  12.017  29.971   8.146
 2363POPC   C4A33882  12.019  29.681   7.810
 2363POPC   C1B33883  12.185  30.282   8.907
 2363POPC   C2B33884  12.338  30.278   8.497
 2363POPC   C3B33885  12.386  30.322   8.065
 2363POPC   C4B33886  12.143  30.176   7.684
 2364POPC   NC333887  28.306   9.764   9.504
 2364POPC   PO433888  28.785   9.428   9.155
 2364POPC   GL133889  28.470   9.596   8.996
 2364POPC   GL233890  28.143   9.543   9.086
 2364POPC   C1A33891  28.422   9.492   8.572
 2364POPC   D2A33892  28.647   9.309   8.225
 2364POPC   C3A33893  28.522   9.491   7.863
 2364POPC   C4A33894  28.516   9.910   7.842
 2364POPC   C1B33895  28.131   9.876   8.768
 2364POPC   C2B33896  28.204   9.901   8.325
 2364POPC   C3B33897  28.056   9.707   7.962
 2364POPC   C4B33898  28.094   9.708   7.510
 2365POPC   NC333899   4.319  42.846   9.661
 2365POPC   PO433900   4.016  43.377   9.527
 2365POPC   GL133901   4.122  43.201   9.143
 2365POPC   GL233902   4.151  42.874   9.179
 2365POPC   C1A33903   4.279  43.321   8.743
 2365POPC   D2A33904   4.582  43.200   8.429
 2365POPC   C3A33905   4.393  43.342   8.047
 2365POPC   C4A33906   4.087  43.628   7.866
 2365POPC   C1B33907   4.077  42.830   8.751
 2365POPC   C2B33908   4.117  42.986   8.364
 2365POPC   C3B33909   4.285  42.864   7.987
 2365POPC   C4B33910   4.685  42.941   7.796
 2366POPC   NC333911  31.895  23.182   9.476
 2366POPC   PO433912  32.284  22.596   9.445
 2366POPC   GL133913  31.996  22.602   9.064
 2366POPC   GL233914  32.053  22.953   9.044
 2366POPC   C1A33915  32.050  22.689   8.597
 2366POPC   D2A33916  32.403  22.899   8.341
 2366POPC   C3A33917  32.584  22.711   7.958
 2366POPC   C4A33918  32.480  22.577   7.552
 2366POPC   C1B33919  32.127  23.212   8.678
 2366POPC   C2B33920  31.966  23.171   8.281
 2366POPC   C3B33921  32.220  23.132   7.903
 2366POPC   C4B33922  32.411  23.493   7.772
 2367POPC   NC333923  30.606  36.483   9.761
 2367POPC   PO433924  30.743  37.135   9.630
 2367POPC   GL133925  30.852  36.929   9.170
 2367POPC   GL233926  30.566  36.849   8.915
 2367POPC   C1A33927  31.052  36.923   8.757
 2367POPC   D2A33928  30.835  37.016   8.379
 2367POPC   C3A33929  30.973  36.915   7.968
 2367POPC   C4A33930  30.786  37.037   7.589
 2367POPC   C1B33931  30.705  36.545   8.636
 2367POPC   C2B33932  30.795  36.500   8.211
 2367POPC   C3B33933  30.647  36.475   7.797
 2367POPC   C4B33934  30.656  36.570   7.360
 2368POPC   NC333935  21.631  26.127   9.628
 2368POPC   PO433936  21.309  25.641   9.707
 2368POPC   GL133937  21.412  25.832   9.241
 2368POPC   GL233938  21.527  26.199   9.138
 2368POPC   C1A33939  21.465  25.863   8.768
 2368POPC   D2A33940  21.552  26.093   8.379
 2368POPC   C3A33941  21.529  25.906   7.968
 2368POPC   C4A33942  21.214  25.972   7.683
 2368POPC   C1B33943  21.158  26.296   8.870
 2368POPC   C2B33944  21.090  26.415   8.452
 2368POPC   C3B33945  21.189  26.350   8.028
 2368POPC   C4B33946  20.937  26.449   7.688
 2369POPC   NC333947  20.351  44.432   9.571
 2369POPC   PO433948  20.894  44.839   9.554
 2369POPC   GL133949  20.582  44.744   9.200
 2369POPC   GL233950  20.410   0.036   9.092
 2369POPC   C1A33951  20.431  44.503   8.820
 2369POPC   D2A33952  20.491  44.276   8.408
 2369POPC   C3A33953  20.447  44.466   8.009
 2369POPC   C4A33954  20.795  44.555   7.765
 2369POPC   C1B33955  20.227  44.967   8.714
 2369POPC   C2B33956  20.468  44.820   8.388
 2369POPC   C3B33957  20.733  44.965   8.071
 2369POPC   C4B33958  20.396  44.965   7.803
 2370POPC   NC333959  21.983  10.388   9.382
 2370POPC   PO433960  21.624  10.865   9.709
 2370POPC   GL133961  21.501  10.582   9.340
 2370POPC   GL233962  21.193  10.670   9.182
 2370POPC   C1A33963  21.548  10.548   8.847
 2370POPC   D2A33964  21.313  10.606   8.424
 2370POPC   C3A33965  21.387  10.763   7.988
 2370POPC   C4A33966  21.510  10.574   7.588
 2370POPC   C1B33967  21.034  10.432   8.813
 2370POPC   C2B33968  20.813  10.381   8.423
 2370POPC   C3B33969  20.979  10.467   8.035
 2370POPC   C4B33970  20.929  10.602   7.596
 2371POPC   NC333971   9.135   8.789   9.492
 2371POPC   PO433972   8.578   9.111   9.313
 2371POPC   GL133973   8.908   8.950   9.046
 2371POPC   GL233974   9.167   9.132   9.078
 2371POPC   C1A33975   9.221   8.831   8.690
 2371POPC   D2A33976   9.234   8.630   8.278
 2371POPC   C3A33977   9.025   8.881   7.948
 2371POPC   C4A33978   8.711   9.235   7.954
 2371POPC   C1B33979   9.046   9.367   8.722
 2371POPC   C2B33980   9.172   9.288   8.283
 2371POPC   C3B33981   9.189   9.341   7.835
 2371POPC   C4B33982   9.375   9.094   7.549
 2372POPC   NC333983  27.033  18.318   9.502
 2372POPC   PO433984  26.594  17.780   9.496
 2372POPC   GL133985  26.623  18.033   9.133
 2372POPC   GL233986  26.333  17.827   9.052
 2372POPC   C1A33987  26.905  18.118   8.745
 2372POPC   D2A33988  27.074  18.017   8.315
 2372POPC   C3A33989  26.997  18.368   8.021
 2372POPC   C4A33990  26.642  18.528   7.777
 2372POPC   C1B33991  26.398  18.036   8.674
 2372POPC   C2B33992  26.593  18.189   8.316
 2372POPC   C3B33993  26.702  17.978   7.940
 2372POPC   C4B33994  26.437  18.036   7.660
 2373POPC   NC333995  11.156  27.996   9.667
 2373POPC   PO433996  11.434  28.579   9.530
 2373POPC   GL133997  11.308  28.380   9.120
 2373POPC   GL233998  11.348  28.038   9.103
 2373POPC   C1A33999  11.458  28.412   8.676
 2373POPC   D2A34000  11.624  28.318   8.246
 2373POPC   C3A34001  11.325  28.364   7.886
 2373POPC   C4A34002  11.059  28.319   7.543
 2373POPC   C1B34003  11.142  28.011   8.689
 2373POPC   C2B34004  11.116  28.198   8.326
 2373POPC   C3B34005  11.024  27.982   7.979
 2373POPC   C4B34006  11.097  27.822   7.599
 2374POPC   NC334007  10.355  36.153   9.564
 2374POPC   PO434008  10.023  36.730   9.415
 2374POPC   GL134009  10.334  36.428   9.137
 2374POPC   GL234010  10.459  36.043   9.089
 2374POPC   C1A34011  10.562  36.382   8.727
 2374POPC   D2A34012  10.360  36.327   8.314
 2374POPC   C3A34013  10.575  36.287   7.907
 2374POPC   C4A34014  10.588  36.331   7.443
 2374POPC   C1B34015  10.381  35.842   8.693
 2374POPC   C2B34016  10.554  35.827   8.290
 2374POPC   C3B34017  10.615  35.783   7.843
 2374POPC   C4B34018  10.321  35.915   7.530
 2375POPC   NC334019  40.179  39.526   9.456
 2375POPC   PO434020  39.757  39.029   9.559
 2375POPC   GL134021  39.833  39.248   9.181
 2375POPC   GL234022  39.546  39.137   9.035
 2375POPC   C1A34023  40.074  39.326   8.796
 2375POPC   D2A34024  40.000  39.375   8.361
 2375POPC   C3A34025  40.177  39.247   7.996
 2375POPC   C4A34026  40.585  39.277   7.824
 2375POPC   C1B34027  39.648  39.072   8.579
 2375POPC   C2B34028  39.676  39.077   8.094
 2375POPC   C3B34029  39.829  38.966   7.692
 2375POPC   C4B34030  39.912  38.886   7.270
 2376POPC   NC334031   9.022  22.336   9.732
 2376POPC   PO434032   9.395  21.957   9.351
 2376POPC   GL134033   9.037  22.001   9.095
 2376POPC   GL234034   8.895  22.347   9.172
 2376POPC   C1A34035   8.836  21.835   8.697
 2376POPC   D2A34036   8.618  21.940   8.290
 2376POPC   C3A34037   8.817  22.134   7.959
 2376POPC   C4A34038   9.233  21.998   7.817
 2376POPC   C1B34039   9.089  22.381   8.757
 2376POPC   C2B34040   9.169  22.201   8.361
 2376POPC   C3B34041   9.178  22.484   8.033
 2376POPC   C4B34042   9.075  22.464   7.651
 2377POPC   NC334043  11.709  17.480   9.580
 2377POPC   PO434044  11.104  17.343   9.416
 2377POPC   GL134045  11.246  17.508   9.090
 2377POPC   GL234046  11.590  17.444   9.079
 2377POPC   C1A34047  11.218  17.397   8.682
 2377POPC   D2A34048  11.158  17.669   8.345
 2377POPC   C3A34049  11.262  17.408   8.043
 2377POPC   C4A34050  11.132  17.285   7.682
 2377POPC   C1B34051  11.755  17.393   8.690
 2377POPC   C2B34052  11.865  17.656   8.380
 2377POPC   C3B34053  11.664  17.720   8.007
 2377POPC   C4B34054  11.592  17.539   7.638
 2378POPC   NC334055  35.542  15.641   9.398
 2378POPC   PO434056  35.268  16.291   9.407
 2378POPC   GL134057  35.228  15.957   9.155
 2378POPC   GL234058  35.561  16.025   9.050
 2378POPC   C1A34059  35.131  15.946   8.750
 2378POPC   D2A34060  35.034  16.286   8.465
 2378POPC   C3A34061  35.017  16.126   8.066
 2378POPC   C4A34062  35.094  16.188   7.638
 2378POPC   C1B34063  35.631  15.834   8.681
 2378POPC   C2B34064  35.395  15.862   8.308
 2378POPC   C3B34065  35.443  15.870   7.870
 2378POPC   C4B34066  35.605  16.051   7.479
 2379POPC   NC334067   9.710  25.029   9.630
 2379POPC   PO434068  10.140  25.359   9.202
 2379POPC   GL134069   9.870  25.094   8.956
 2379POPC   GL234070   9.573  25.122   9.149
 2379POPC   C1A34071   9.762  25.028   8.528
 2379POPC   D2A34072   9.622  25.370   8.304
 2379POPC   C3A34073   9.776  25.421   7.895
 2379POPC   C4A34074  10.034  25.183   7.598
 2379POPC   C1B34075   9.378  24.883   8.860
 2379POPC   C2B34076   9.267  24.966   8.441
 2379POPC   C3B34077   9.321  24.802   8.039
 2379POPC   C4B34078   9.488  25.056   7.690
 2380POPC   NC334079  25.843  12.621   9.814
 2380POPC   PO434080  25.671  13.208   9.491
 2380POPC   GL134081  26.048  13.120   9.205
 2380POPC   GL234082  26.050  12.814   8.998
 2380POPC   C1A34083  26.235  13.194   8.766
 2380POPC   D2A34084  26.061  12.912   8.421
 2380POPC   C3A34085  25.866  13.032   8.032
 2380POPC   C4A34086  25.862  13.089   7.582
 2380POPC   C1B34087  25.950  12.519   8.728
 2380POPC   C2B34088  26.029  12.336   8.402
 2380POPC   C3B34089  26.045  12.533   8.054
 2380POPC   C4B34090  25.751  12.611   7.728
 2381POPC   NC334091   2.409  28.652   9.575
 2381POPC   PO434092   2.894  29.167   9.509
 2381POPC   GL134093   2.845  29.122   9.090
 2381POPC   GL234094   2.608  28.893   9.137
 2381POPC   C1A34095   2.642  29.208   8.705
 2381POPC   D2A34096   2.817  29.381   8.328
 2381POPC   C3A34097   2.524  29.315   7.992
 2381POPC   C4A34098   2.540  29.038   7.644
 2381POPC   C1B34099   2.710  28.681   8.775
 2381POPC   C2B34100   2.591  28.788   8.373
 2381POPC   C3B34101   2.824  28.849   8.047
 2381POPC   C4B34102   3.079  28.773   7.705
 2382POPC   NC334103   9.151  44.030   9.700
 2382POPC   PO434104   8.737  43.595   9.423
 2382POPC   GL134105   8.839  43.849   9.102
 2382POPC   GL234106   9.101  44.094   9.168
 2382POPC   C1A34107   8.902  43.716   8.698
 2382POPC   D2A34108   8.728  43.820   8.324
 2382POPC   C3A34109   9.096  43.900   8.091
 2382POPC   C4A34110   9.216  43.778   7.704
 2382POPC   C1B34111   8.907  44.212   8.743
 2382POPC   C2B34112   8.852  44.310   8.295
 2382POPC   C3B34113   8.772  44.178   7.832
 2382POPC   C4B34114   8.964  44.086   7.382
 2383POPC   NC334115  16.229  37.740   9.439
 2383POPC   PO434116  15.506  37.827   9.537
 2383POPC   GL134117  15.758  37.746   9.173
 2383POPC   GL234118  15.948  37.426   9.135
 2383POPC   C1A34119  15.931  37.790   8.764
 2383POPC   D2A34120  16.074  37.539   8.440
 2383POPC   C3A34121  15.963  37.751   8.051
 2383POPC   C4A34122  16.173  37.693   7.676
 2383POPC   C1B34123  15.711  37.270   8.757
 2383POPC   C2B34124  15.647  37.283   8.293
 2383POPC   C3B34125  15.779  37.313   7.852
 2383POPC   C4B34126  15.745  37.211   7.396
 2384POPC   NC334127  19.549  10.774   9.479
 2384POPC   PO434128  20.199  10.446   9.385
 2384POPC   GL134129  19.863  10.495   9.134
 2384POPC   GL234130  19.946  10.838   9.137
 2384POPC   C1A34131  19.662  10.369   8.759
 2384POPC   D2A34132  19.874  10.293   8.397
 2384POPC   C3A34133  19.736  10.367   7.968
 2384POPC   C4A34134  19.538  10.327   7.590
 2384POPC   C1B34135  20.003  10.740   8.701
 2384POPC   C2B34136  19.845  10.774   8.259
 2384POPC   C3B34137  20.072  10.757   7.842
 2384POPC   C4B34138  20.037  10.836   7.376
 2385POPC   NC334139  35.780   3.733   9.495
 2385POPC   PO434140  35.243   3.527   9.696
 2385POPC   GL134141  35.353   3.564   9.240
 2385POPC   GL234142  35.571   3.316   9.158
 2385POPC   C1A34143  35.400   3.722   8.775
 2385POPC   D2A34144  35.322   3.750   8.309
 2385POPC   C3A34145  35.397   3.529   7.911
 2385POPC   C4A34146  35.585   3.645   7.490
 2385POPC   C1B34147  35.371   3.220   8.792
 2385POPC   C2B34148  35.492   3.265   8.394
 2385POPC   C3B34149  35.470   3.047   8.037
 2385POPC   C4B34150  35.358   3.105   7.634
 2386POPC   NC334151  22.494  42.239   9.486
 2386POPC   PO434152  22.010  42.757   9.505
 2386POPC   GL134153  22.186  42.531   9.124
 2386POPC   GL234154  22.166  42.133   9.102
 2386POPC   C1A34155  22.130  42.421   8.679
 2386POPC   D2A34156  22.191  42.041   8.436
 2386POPC   C3A34157  22.038  42.114   8.041
 2386POPC   C4A34158  22.093  42.483   7.851
 2386POPC   C1B34159  22.565  42.193   8.845
 2386POPC   C2B34160  22.617  42.378   8.450
 2386POPC   C3B34161  22.543  42.170   8.067
 2386POPC   C4B34162  22.670  42.208   7.674
 2387POPC   NC334163  33.091  30.204   9.914
 2387POPC   PO434164  32.914  29.686   9.505
 2387POPC   GL134165  33.105  29.953   9.208
 2387POPC   GL234166  32.805  29.872   9.007
 2387POPC   C1A34167  33.214  30.099   8.790
 2387POPC   D2A34168  32.920  29.964   8.486
 2387POPC   C3A34169  33.040  30.065   8.085
 2387POPC   C4A34170  33.338  30.319   7.840
 2387POPC   C1B34171  33.131  29.599   8.796
 2387POPC   C2B34172  33.255  29.542   8.352
 2387POPC   C3B34173  33.106  29.590   7.923
 2387POPC   C4B34174  32.996  29.457   7.520
 2388POPC   NC334175  40.795  31.708   9.515
 2388POPC   PO434176  40.311  31.344   9.872
 2388POPC   GL134177  40.590  31.267   9.360
 2388POPC   GL234178  40.965  31.219   9.321
 2388POPC   C1A34179  40.569  31.223   8.874
 2388POPC   D2A34180  40.360  31.435   8.514
 2388POPC   C3A34181  40.446  31.348   8.069
 2388POPC   C4A34182  40.628  31.615   7.756
 2388POPC   C1B34183  41.078  31.229   8.873
 2388POPC   C2B34184  40.918  31.270   8.414
 2388POPC   C3B34185  41.042  31.345   7.962
 2388POPC   C4B34186  41.191  31.630   7.611
 2389POPC   NC334187  24.589  31.674   9.517
 2389POPC   PO434188  24.072  31.847   9.382
 2389POPC   GL134189  24.297  31.535   9.124
 2389POPC   GL234190  24.479  31.806   9.017
 2389POPC   C1A34191  24.556  31.387   8.726
 2389POPC   D2A34192  24.556  31.232   8.279
 2389POPC   C3A34193  24.345  31.324   7.871
 2389POPC   C4A34194  24.618  31.329   7.493
 2389POPC   C1B34195  24.195  31.732   8.670
 2389POPC   C2B34196  24.100  31.485   8.303
 2389POPC   C3B34197  24.024  31.718   7.909
 2389POPC   C4B34198  24.216  31.697   7.523
 2390POPC   NC334199  22.736  11.744   9.481
 2390POPC   PO434200  23.336  12.134   9.390
 2390POPC   GL134201  23.044  11.973   9.119
 2390POPC   GL234202  22.744  11.842   9.001
 2390POPC   C1A34203  23.046  12.110   8.701
 2390POPC   D2A34204  23.181  12.323   8.340
 2390POPC   C3A34205  22.904  12.304   8.011
 2390POPC   C4A34206  22.932  12.156   7.622
 2390POPC   C1B34207  22.842  11.655   8.632
 2390POPC   C2B34208  22.726  11.927   8.314
 2390POPC   C3B34209  22.628  11.860   7.905
 2390POPC   C4B34210  22.441  11.632   7.585
 2391POPC   NC334211  24.108  28.372   9.461
 2391POPC   PO434212  24.496  28.707   9.215
 2391POPC   GL134213  24.497  28.316   9.011
 2391POPC   GL234214  24.178  28.303   8.953
 2391POPC   C1A34215  24.580  28.220   8.560
 2391POPC   D2A34216  24.525  28.507   8.204
 2391POPC   C3A34217  24.665  28.423   7.772
 2391POPC   C4A34218  24.504  28.534   7.374
 2391POPC   C1B34219  24.081  28.225   8.515
 2391POPC   C2B34220  24.241  28.095   8.125
 2391POPC   C3B34221  24.176  28.290   7.740
 2391POPC   C4B34222  24.181  28.134   7.318
 2392POPC   NC334223   8.378  20.858   9.548
 2392POPC   PO434224   8.393  21.499   9.385
 2392POPC   GL134225   8.214  21.526   9.034
 2392POPC   GL234226   8.099  21.183   9.056
 2392POPC   C1A34227   8.295  21.707   8.666
 2392POPC   D2A34228   8.433  21.474   8.312
 2392POPC   C3A34229   8.288  21.573   7.869
 2392POPC   C4A34230   8.381  21.530   7.379
 2392POPC   C1B34231   8.146  21.150   8.605
 2392POPC   C2B34232   8.166  21.093   8.131
 2392POPC   C3B34233   8.204  21.091   7.675
 2392POPC   C4B34234   8.019  20.873   7.294
 2393POPC   NC334235   2.475  12.213   9.528
 2393POPC   PO434236   3.092  11.998   9.311
 2393POPC   GL134237   2.696  12.007   9.128
 2393POPC   GL234238   2.737  11.690   9.027
 2393POPC   C1A34239   2.552  12.321   8.865
 2393POPC   D2A34240   2.626  12.117   8.504
 2393POPC   C3A34241   2.942  12.236   8.201
 2393POPC   C4A34242   2.889  12.229   7.760
 2393POPC   C1B34243   2.508  11.645   8.728
 2393POPC   C2B34244   2.372  11.693   8.372
 2393POPC   C3B34245   2.572  11.903   8.057
 2393POPC   C4B34246   2.541  11.832   7.666
 2394POPC   NC334247   1.610  12.653   9.492
 2394POPC   PO434248   1.044  13.046   9.632
 2394POPC   GL134249   1.043  12.964   9.171
 2394POPC   GL234250   1.368  12.820   9.090
 2394POPC   C1A34251   1.022  12.802   8.717
 2394POPC   D2A34252   1.213  12.626   8.341
 2394POPC   C3A34253   1.175  12.896   7.987
 2394POPC   C4A34254   0.896  13.238   7.890
 2394POPC   C1B34255   1.556  12.781   8.695
 2394POPC   C2B34256   1.557  13.027   8.320
 2394POPC   C3B34257   1.690  12.951   7.895
 2394POPC   C4B34258   1.447  12.699   7.610
 2395POPC   NC334259  16.965  43.351   9.609
 2395POPC   PO434260  16.339  43.009   9.544
 2395POPC   GL134261  16.669  43.051   9.232
 2395POPC   GL234262  16.814  43.365   9.143
 2395POPC   C1A34263  16.530  43.134   8.805
 2395POPC   D2A34264  16.806  43.140   8.490
 2395POPC   C3A34265  16.670  43.255   8.143
 2395POPC   C4A34266  16.713  43.190   7.745
 2395POPC   C1B34267  17.064  43.430   8.795
 2395POPC   C2B34268  16.997  43.592   8.375
 2395POPC   C3B34269  17.121  43.443   7.967
 2395POPC   C4B34270  17.123  43.415   7.493
 2396POPC   NC334271  33.371  35.598   9.459
 2396POPC   PO434272  33.213  36.285   9.470
 2396POPC   GL134273  33.295  36.065   9.094
 2396POPC   GL234274  33.126  36.309   8.928
 2396POPC   C1A34275  33.349  35.867   8.663
 2396POPC   D2A34276  33.311  35.858   8.196
 2396POPC   C3A34277  32.920  35.996   7.978
 2396POPC   C4A34278  32.836  36.155   7.560
 2396POPC   C1B34279  33.128  36.597   8.616
 2396POPC   C2B34280  32.917  36.389   8.304
 2396POPC   C3B34281  32.976  36.503   7.900
 2396POPC   C4B34282  32.723  36.649   7.550
 2397POPC   NC334283  29.823   5.373   9.458
 2397POPC   PO434284  30.068   4.807   9.742
 2397POPC   GL134285  30.172   4.972   9.288
 2397POPC   GL234286  29.919   5.169   9.023
 2397POPC   C1A34287  30.267   4.909   8.814
 2397POPC   D2A34288  30.065   5.212   8.478
 2397POPC   C3A34289  30.171   5.208   8.022
 2397POPC   C4A34290  30.091   5.032   7.595
 2397POPC   C1B34291  29.597   5.247   8.679
 2397POPC   C2B34292  29.628   5.240   8.191
 2397POPC   C3B34293  29.696   5.384   7.756
 2397POPC   C4B34294  29.712   5.397   7.274
 2398POPC   NC334295  36.658  25.784   9.720
 2398POPC   PO434296  37.134  26.163   9.670
 2398POPC   GL134297  36.964  26.203   9.209
 2398POPC   GL234298  36.596  26.258   9.158
 2398POPC   C1A34299  36.850  26.054   8.769
 2398POPC   D2A34300  36.820  25.850   8.390
 2398POPC   C3A34301  36.989  26.038   8.022
 2398POPC   C4A34302  36.939  25.964   7.565
 2398POPC   C1B34303  36.419  26.345   8.740
 2398POPC   C2B34304  36.603  26.354   8.294
 2398POPC   C3B34305  36.526  26.195   7.854
 2398POPC   C4B34306  36.546  26.265   7.393
 2399POPC   NC334307  37.916  36.552   9.457
 2399POPC   PO434308  37.360  36.827   9.451
 2399POPC   GL134309  37.435  36.484   9.140
 2399POPC   GL234310  37.176  36.645   8.991
 2399POPC   C1A34311  37.628  36.181   8.787
 2399POPC   D2A34312  37.674  35.999   8.323
 2399POPC   C3A34313  37.744  35.994   7.844
 2399POPC   C4A34314  37.546  35.676   7.549
 2399POPC   C1B34315  37.455  36.637   8.621
 2399POPC   C2B34316  37.434  36.443   8.198
 2399POPC   C3B34317  37.583  36.490   7.752
 2399POPC   C4B34318  37.707  36.462   7.317
 2400POPC   NC334319  10.244  30.623   9.577
 2400POPC   PO434320  10.816  31.046   9.509
 2400POPC   GL134321  10.583  30.783   9.244
 2400POPC   GL234322  10.779  30.480   9.283
 2400POPC   C1A34323  10.289  30.751   8.873
 2400POPC   D2A34324  10.210  30.573   8.471
 2400POPC   C3A34325  10.243  30.844   8.174
 2400POPC   C4A34326  10.486  30.834   7.802
 2400POPC   C1B34327  10.859  30.679   8.852
 2400POPC   C2B34328  10.716  30.707   8.418
 2400POPC   C3B34329  10.959  30.755   8.055
 2400POPC   C4B34330  10.905  30.618   7.639
 2401POPC   NC334331   1.151  10.306   9.534
 2401POPC   PO434332   1.572  10.809   9.430
 2401POPC   GL134333   1.362  10.551   9.137
 2401POPC   GL234334   1.102  10.761   9.079
 2401POPC   C1A34335   1.249  10.469   8.702
 2401POPC   D2A34336   1.512  10.630   8.378
 2401POPC   C3A34337   1.401  10.508   7.967
 2401POPC   C4A34338   1.473  10.707   7.589
 2401POPC   C1B34339   0.903  10.843   8.698
 2401POPC   C2B34340   0.988  10.624   8.275
 2401POPC   C3B34341   0.959  10.749   7.830
 2401POPC   C4B34342   0.646  10.621   7.520
 2402POPC   NC334343  40.280  12.255   9.546
 2402POPC   PO434344  40.040  11.538   9.433
 2402POPC   GL134345  40.208  11.896   9.196
 2402POPC   GL234346  39.936  12.177   9.150
 2402POPC   C1A34347  40.386  12.111   8.829
 2402POPC   D2A34348  40.252  12.045   8.379
 2402POPC   C3A34349  40.256  12.009   7.941
 2402POPC   C4A34350  39.926  12.270   7.880
 2402POPC   C1B34351  39.814  11.827   8.869
 2402POPC   C2B34352  39.683  11.629   8.510
 2402POPC   C3B34353  39.885  11.725   8.126
 2402POPC   C4B34354  39.768  11.792   7.715
 2403POPC   NC334355  35.739  16.429   9.348
 2403POPC   PO434356  36.278  16.866   9.396
 2403POPC   GL134357  36.366  16.753   8.990
 2403POPC   GL234358  36.057  16.569   8.955
 2403POPC   C1A34359  36.282  16.807   8.558
 2403POPC   D2A34360  35.929  16.614   8.398
 2403POPC   C3A34361  36.026  16.502   7.970
 2403POPC   C4A34362  36.250  16.766   7.678
 2403POPC   C1B34363  35.869  16.978   8.805
 2403POPC   C2B34364  35.742  17.127   8.425
 2403POPC   C3B34365  35.877  16.985   8.041
 2403POPC   C4B34366  35.817  17.012   7.655
 2404POPC   NC334367   9.894  11.774   9.432
 2404POPC   PO434368   9.590  11.121   9.482
 2404POPC   GL134369   9.721  11.349   9.142
 2404POPC   GL234370  10.059  11.372   9.103
 2404POPC   C1A34371   9.631  11.287   8.708
 2404POPC   D2A34372   9.296  11.192   8.401
 2404POPC   C3A34373   9.480  11.150   7.994
 2404POPC   C4A34374   9.661  11.422   7.721
 2404POPC   C1B34375  10.107  11.541   8.706
 2404POPC   C2B34376   9.962  11.632   8.272
 2404POPC   C3B34377  10.101  11.621   7.834
 2404POPC   C4B34378  10.090  11.341   7.433
 2405POPC   NC334379  31.656  23.984   9.523
 2405POPC   PO434380  31.447  23.347   9.421
 2405POPC   GL134381  31.200  23.560   9.124
 2405POPC   GL234382  31.205  23.915   9.239
 2405POPC   C1A34383  31.270  23.423   8.689
 2405POPC   D2A34384  31.447  23.266   8.308
 2405POPC   C3A34385  31.339  23.458   7.940
 2405POPC   C4A34386  31.582  23.568   7.573
 2405POPC   C1B34387  31.243  23.938   8.788
 2405POPC   C2B34388  31.214  23.811   8.353
 2405POPC   C3B34389  31.517  23.920   8.050
 2405POPC   C4B34390  31.633  24.086   7.680
 2406POPC   NC334391   7.728   1.139   9.454
 2406POPC   PO434392   8.369   1.344   9.690
 2406POPC   GL134393   8.206   1.241   9.302
 2406POPC   GL234394   8.216   0.901   9.278
 2406POPC   C1A34395   8.068   1.201   8.888
 2406POPC   D2A34396   8.297   1.249   8.527
 2406POPC   C3A34397   8.185   1.410   8.126
 2406POPC   C4A34398   7.949   1.399   7.731
 2406POPC   C1B34399   8.522   0.966   8.926
 2406POPC   C2B34400   8.576   0.855   8.482
 2406POPC   C3B34401   8.487   0.940   8.082
 2406POPC   C4B34402   8.380   1.159   7.719
 2407POPC   NC334403  36.454  35.772   9.465
 2407POPC   PO434404  36.476  36.367   9.368
 2407POPC   GL134405  36.063  36.315   9.141
 2407POPC   GL234406  36.098  35.940   9.117
 2407POPC   C1A34407  35.802  36.118   8.753
 2407POPC   D2A34408  35.922  35.817   8.404
 2407POPC   C3A34409  35.986  36.041   8.037
 2407POPC   C4A34410  35.708  36.264   7.831
 2407POPC   C1B34411  36.308  36.144   8.741
 2407POPC   C2B34412  36.395  36.021   8.334
 2407POPC   C3B34413  36.408  35.707   8.067
 2407POPC   C4B34414  36.543  35.502   7.708
 2408POPC   NC334415  31.876  43.995   9.578
 2408POPC   PO434416  31.332  44.206   9.538
 2408POPC   GL134417  31.583  44.129   9.168
 2408POPC   GL234418  31.739  43.762   9.132
 2408POPC   C1A34419  31.419  44.027   8.765
 2408POPC   D2A34420  31.237  43.892   8.393
 2408POPC   C3A34421  31.377  44.010   7.994
 2408POPC   C4A34422  31.358  44.129   7.570
 2408POPC   C1B34423  31.550  43.537   8.771
 2408POPC   C2B34424  31.535  43.387   8.347
 2408POPC   C3B34425  31.560  43.507   7.914
 2408POPC   C4B34426  31.308  43.638   7.587
 2409POPC   NC334427  24.824  18.456   9.441
 2409POPC   PO434428  25.528  18.432   9.571
 2409POPC   GL134429  25.272  18.344   9.160
 2409POPC   GL234430  25.423  18.027   8.979
 2409POPC   C1A34431  25.087  18.287   8.741
 2409POPC   D2A34432  25.249  18.001   8.405
 2409POPC   C3A34433  25.103  18.165   8.024
 2409POPC   C4A34434  24.983  18.493   7.736
 2409POPC   C1B34435  25.590  18.295   8.647
 2409POPC   C2B34436  25.762  18.508   8.283
 2409POPC   C3B34437  25.702  18.488   7.856
 2409POPC   C4B34438  25.466  18.172   7.663
 2410POPC   NC334439  24.132  15.566   9.492
 2410POPC   PO434440  23.661  15.107   9.478
 2410POPC   GL134441  23.751  15.107   9.066
 2410POPC   GL234442  23.875  15.423   9.085
 2410POPC   C1A34443  23.684  14.891   8.674
 2410POPC   D2A34444  23.833  15.071   8.315
 2410POPC   C3A34445  23.559  15.302   8.082
 2410POPC   C4A34446  23.601  15.195   7.685
 2410POPC   C1B34447  24.164  15.461   8.754
 2410POPC   C2B34448  24.255  15.326   8.369
 2410POPC   C3B34449  24.064  15.372   7.955
 2410POPC   C4B34450  24.310  15.577   7.699
 2411POPC   NC334451  22.220  27.051   9.683
 2411POPC   PO434452  21.839  26.536   9.674
 2411POPC   GL134453  21.826  26.848   9.294
 2411POPC   GL234454  22.183  26.875   9.207
 2411POPC   C1A34455  21.919  26.869   8.806
 2411POPC   D2A34456  22.132  26.576   8.575
 2411POPC   C3A34457  22.021  26.629   8.148
 2411POPC   C4A34458  22.237  26.465   7.818
 2411POPC   C1B34459  22.414  26.998   8.778
 2411POPC   C2B34460  22.459  26.892   8.324
 2411POPC   C3B34461  22.314  27.008   7.920
 2411POPC   C4B34462  22.549  27.119   7.570
 2412POPC   NC334463   3.453  12.179   9.533
 2412POPC   PO434464   3.166  11.687   9.823
 2412POPC   GL134465   3.513  11.721   9.353
 2412POPC   GL234466   3.841  11.944   9.285
 2412POPC   C1A34467   3.589  11.801   8.866
 2412POPC   D2A34468   3.332  12.034   8.545
 2412POPC   C3A34469   3.450  12.044   8.104
 2412POPC   C4A34470   3.341  12.000   7.682
 2412POPC   C1B34471   3.895  12.238   8.923
 2412POPC   C2B34472   3.854  12.153   8.458
 2412POPC   C3B34473   3.950  12.126   8.007
 2412POPC   C4B34474   3.787  12.280   7.605
 2413POPC   NC334475  39.791  43.600   9.343
 2413POPC   PO434476  39.636  44.245   9.445
 2413POPC   GL134477  39.901  44.153   9.100
 2413POPC   GL234478  40.181  43.928   9.206
 2413POPC   C1A34479  39.858  43.900   8.739
 2413POPC   D2A34480  39.858  43.708   8.324
 2413POPC   C3A34481  40.009  43.971   7.995
 2413POPC   C4A34482  39.852  44.126   7.580
 2413POPC   C1B34483  40.326  43.707   8.797
 2413POPC   C2B34484  40.404  43.496   8.372
 2413POPC   C3B34485  40.409  43.523   7.909
 2413POPC   C4B34486  40.106  43.674   7.586
 2414POPC   NC334487  34.927  39.663   9.499
 2414POPC   PO434488  34.852  40.377   9.414
 2414POPC   GL134489  34.763  40.062   9.063
 2414POPC   GL234490  34.446  39.861   9.061
 2414POPC   C1A34491  34.614  40.027   8.604
 2414POPC   D2A34492  34.492  40.271   8.264
 2414POPC   C3A34493  34.630  40.146   7.853
 2414POPC   C4A34494  34.772  40.328   7.481
 2414POPC   C1B34495  34.743  39.584   8.812
 2414POPC   C2B34496  34.797  39.574   8.361
 2414POPC   C3B34497  34.436  39.773   8.159
 2414POPC   C4B34498  34.243  39.818   7.748
 2415POPC   NC334499  39.357   4.657   9.506
 2415POPC   PO434500  39.219   5.342   9.664
 2415POPC   GL134501  39.204   5.178   9.257
 2415POPC   GL234502  39.033   4.912   9.204
 2415POPC   C1A34503  39.344   5.073   8.833
 2415POPC   D2A34504  39.351   5.272   8.444
 2415POPC   C3A34505  39.470   5.024   8.089
 2415POPC   C4A34506  39.304   5.190   7.690
 2415POPC   C1B34507  38.834   5.031   8.861
 2415POPC   C2B34508  38.968   4.927   8.450
 2415POPC   C3B34509  38.965   5.108   8.083
 2415POPC   C4B34510  38.872   4.902   7.714
 2416POPC   NC334511  37.960  32.861   9.712
 2416POPC   PO434512  38.407  32.404   9.500
 2416POPC   GL134513  38.318  32.311   9.114
 2416POPC   GL234514  37.981  32.461   9.142
 2416POPC   C1A34515  38.496  32.110   8.755
 2416POPC   D2A34516  38.721  32.190   8.392
 2416POPC   C3A34517  38.560  31.961   8.052
 2416POPC   C4A34518  38.352  31.976   7.674
 2416POPC   C1B34519  38.112  32.471   8.690
 2416POPC   C2B34520  38.213  32.241   8.312
 2416POPC   C3B34521  38.346  32.417   7.922
 2416POPC   C4B34522  38.111  32.418   7.554
 2417POPC   NC334523  21.827  11.333   9.552
 2417POPC   PO434524  22.212  10.763   9.599
 2417POPC   GL134525  22.373  11.084   9.247
 2417POPC   GL234526  22.297  11.409   9.229
 2417POPC   C1A34527  22.341  11.143   8.788
 2417POPC   D2A34528  22.146  11.070   8.363
 2417POPC   C3A34529  22.391  11.186   8.001
 2417POPC   C4A34530  22.217  11.169   7.593
 2417POPC   C1B34531  21.951  11.464   8.913
 2417POPC   C2B34532  21.883  11.542   8.474
 2417POPC   C3B34533  21.934  11.435   8.031
 2417POPC   C4B34534  21.766  11.581   7.645
 2418POPC   NC334535  35.564   0.474   9.509
 2418POPC   PO434536  35.617  44.995   9.085
 2418POPC   GL134537  35.623   0.395   8.992
 2418POPC   GL234538  35.285   0.433   9.081
 2418POPC   C1A34539  35.592   0.401   8.566
 2418POPC   D2A34540  35.334   0.251   8.271
 2418POPC   C3A34541  35.444   0.522   8.000
 2418POPC   C4A34542  35.655   0.438   7.655
 2418POPC   C1B34543  35.089   0.373   8.696
 2418POPC   C2B34544  35.074   0.698   8.366
 2418POPC   C3B34545  34.990   0.771   7.946
 2418POPC   C4B34546  35.108   0.476   7.608
 2419POPC   NC334547  19.361  36.609   9.476
 2419POPC   PO434548  19.064  37.200   9.500
 2419POPC   GL134549  19.011  36.901   9.211
 2419POPC   GL234550  18.648  36.853   9.214
 2419POPC   C1A34551  19.255  36.804   8.830
 2419POPC   D2A34552  19.427  36.827   8.423
 2419POPC   C3A34553  19.171  37.040   8.122
 2419POPC   C4A34554  19.168  37.005   7.683
 2419POPC   C1B34555  18.770  36.672   8.847
 2419POPC   C2B34556  18.863  36.813   8.469
 2419POPC   C3B34557  18.815  36.631   8.089
 2419POPC   C4B34558  18.696  36.880   7.783
 2420POPC   NC334559  25.066   6.319   9.571
 2420POPC   PO434560  25.016   5.694   9.711
 2420POPC   GL134561  25.220   5.806   9.292
 2420POPC   GL234562  25.546   5.641   9.277
 2420POPC   C1A34563  25.153   6.011   8.875
 2420POPC   D2A34564  24.876   6.205   8.552
 2420POPC   C3A34565  24.939   6.097   8.110
 2420POPC   C4A34566  25.094   5.702   7.934
 2420POPC   C1B34567  25.511   5.667   8.806
 2420POPC   C2B34568  25.334   5.840   8.388
 2420POPC   C3B34569  25.580   5.816   7.967
 2420POPC   C4B34570  25.760   5.997   7.605
 2421POPC   NC334571  18.117   0.443   9.517
 2421POPC   PO434572  18.669   0.202   9.270
 2421POPC   GL134573  18.393   0.402   9.062
 2421POPC   GL234574  18.035   0.350   9.025
 2421POPC   C1A34575  18.345   0.370   8.652
 2421POPC   D2A34576  18.100   0.559   8.413
 2421POPC   C3A34577  18.350   0.413   8.109
 2421POPC   C4A34578  18.285   0.477   7.725
 2421POPC   C1B34579  17.787   0.125   8.769
 2421POPC   C2B34580  17.599   0.332   8.457
 2421POPC   C3B34581  17.782   0.322   8.067
 2421POPC   C4B34582  17.803   0.255   7.657
 2422POPC   NC334583  39.428   1.138   9.574
 2422POPC   PO434584  38.779   1.373   9.587
 2422POPC   GL134585  39.072   1.331   9.210
 2422POPC   GL234586  39.423   1.511   9.195
 2422POPC   C1A34587  39.292   1.118   8.846
 2422POPC   D2A34588  39.390   0.933   8.419
 2422POPC   C3A34589  39.015   0.986   8.167
 2422POPC   C4A34590  39.042   1.004   7.730
 2422POPC   C1B34591  39.633   1.498   8.800
 2422POPC   C2B34592  39.413   1.446   8.418
 2422POPC   C3B34593  39.405   1.260   8.006
 2422POPC   C4B34594  39.331   1.452   7.593
 2423POPC   NC334595  21.809  35.747   9.557
 2423POPC   PO434596  22.154  36.281   9.555
 2423POPC   GL134597  21.974  36.284   9.162
 2423POPC   GL234598  21.704  36.544   9.080
 2423POPC   C1A34599  22.176  36.071   8.804
 2423POPC   D2A34600  22.459  35.970   8.468
 2423POPC   C3A34601  22.166  35.958   8.132
 2423POPC   C4A34602  22.168  35.942   7.672
 2423POPC   C1B34603  22.056  36.569   8.752
 2423POPC   C2B34604  22.252  36.440   8.345
 2423POPC   C3B34605  22.111  36.395   7.886
 2423POPC   C4B34606  22.066  36.428   7.396
 2424POPC   NC334607  14.496  15.600   9.527
 2424POPC   PO434608  14.402  16.320   9.514
 2424POPC   GL134609  14.429  16.031   9.211
 2424POPC   GL234610  14.762  15.922   9.243
 2424POPC   C1A34611  14.470  15.921   8.795
 2424POPC   D2A34612  14.340  16.078   8.405
 2424POPC   C3A34613  14.498  15.923   8.054
 2424POPC   C4A34614  14.377  15.815   7.662
 2424POPC   C1B34615  14.913  16.166   8.898
 2424POPC   C2B34616  14.813  16.242   8.491
 2424POPC   C3B34617  14.885  16.275   8.077
 2424POPC   C4B34618  14.618  16.320   7.736
 2425POPC   NC334619   5.310  30.095   9.511
 2425POPC   PO434620   5.258  29.434   9.674
 2425POPC   GL134621   5.222  29.676   9.251
 2425POPC   GL234622   4.892  29.896   9.256
 2425POPC   C1A34623   5.076  29.815   8.799
 2425POPC   D2A34624   5.121  30.149   8.494
 2425POPC   C3A34625   5.033  30.005   8.084
 2425POPC   C4A34626   5.029  29.790   7.680
 2425POPC   C1B34627   4.738  30.198   8.881
 2425POPC   C2B34628   4.599  30.159   8.433
 2425POPC   C3B34629   4.630  30.310   8.002
 2425POPC   C4B34630   4.952  30.304   7.661
 2426POPC   NC334631  37.222  21.928   9.353
 2426POPC   PO434632  36.649  22.302   9.460
 2426POPC   GL134633  36.818  22.133   9.121
 2426POPC   GL234634  37.033  22.384   9.108
 2426POPC   C1A34635  37.019  22.032   8.733
 2426POPC   D2A34636  37.011  21.773   8.409
 2426POPC   C3A34637  37.096  21.946   8.047
 2426POPC   C4A34638  36.908  21.945   7.676
 2426POPC   C1B34639  36.920  22.537   8.724
 2426POPC   C2B34640  37.103  22.405   8.353
 2426POPC   C3B34641  36.983  22.454   7.955
 2426POPC   C4B34642  37.126  22.390   7.566
 2427POPC   NC334643  21.960   5.015   9.670
 2427POPC   PO434644  22.384   5.451   9.494
 2427POPC   GL134645  22.065   5.242   9.213
 2427POPC   GL234646  21.896   4.864   9.190
 2427POPC   C1A34647  22.294   5.001   8.894
 2427POPC   D2A34648  22.425   5.059   8.485
 2427POPC   C3A34649  22.175   5.051   8.117
 2427POPC   C4A34650  22.307   5.014   7.731
 2427POPC   C1B34651  21.811   5.032   8.778
 2427POPC   C2B34652  21.733   4.953   8.367
 2427POPC   C3B34653  21.763   4.717   8.046
 2427POPC   C4B34654  21.798   4.942   7.735
 2428POPC   NC334655  13.462  35.417   9.472
 2428POPC   PO434656  14.145  35.525   9.322
 2428POPC   GL134657  13.749  35.565   9.085
 2428POPC   GL234658  13.647  35.233   9.011
 2428POPC   C1A34659  13.520  35.660   8.708
 2428POPC   D2A34660  13.741  35.657   8.310
 2428POPC   C3A34661  13.643  35.442   7.954
 2428POPC   C4A34662  13.610  35.644   7.588
 2428POPC   C1B34663  13.909  35.292   8.642
 2428POPC   C2B34664  13.928  35.063   8.230
 2428POPC   C3B34665  13.962  35.074   7.779
 2428POPC   C4B34666  13.761  35.184   7.419
 2429POPC   NC334667  22.913  16.100   9.351
 2429POPC   PO434668  23.269  15.698   9.752
 2429POPC   GL134669  23.140  15.594   9.293
 2429POPC   GL234670  23.285  15.833   9.145
 2429POPC   C1A34671  23.074  15.542   8.782
 2429POPC   D2A34672  23.104  15.472   8.305
 2429POPC   C3A34673  22.925  15.773   7.971
 2429POPC   C4A34674  22.616  15.621   7.658
 2429POPC   C1B34675  23.300  16.026   8.753
 2429POPC   C2B34676  23.156  15.979   8.406
 2429POPC   C3B34677  23.155  16.259   8.130
 2429POPC   C4B34678  23.181  16.161   7.735
 2430POPC   NC334679  36.449  28.047   9.268
 2430POPC   PO434680  35.813  28.282   9.440
 2430POPC   GL134681  36.121  28.446   9.138
 2430POPC   GL234682  36.460  28.570   9.102
 2430POPC   C1A34683  36.128  28.498   8.705
 2430POPC   D2A34684  36.004  28.786   8.423
 2430POPC   C3A34685  35.973  28.649   8.005
 2430POPC   C4A34686  35.743  28.721   7.628
 2430POPC   C1B34687  36.618  28.377   8.712
 2430POPC   C2B34688  36.511  28.075   8.415
 2430POPC   C3B34689  36.500  28.065   7.974
 2430POPC   C4B34690  36.402  28.461   7.781
 2431POPC   NC334691  33.043  27.735   9.515
 2431POPC   PO434692  32.938  27.096   9.645
 2431POPC   GL134693  32.891  27.208   9.186
 2431POPC   GL234694  33.167  27.429   9.118
 2431POPC   C1A34695  32.811  27.414   8.761
 2431POPC   D2A34696  32.893  27.638   8.394
 2431POPC   C3A34697  32.812  27.493   8.002
 2431POPC   C4A34698  33.069  27.194   7.880
 2431POPC   C1B34699  33.151  27.805   8.834
 2431POPC   C2B34700  33.028  28.111   8.510
 2431POPC   C3B34701  32.992  28.039   8.065
 2431POPC   C4B34702  33.195  27.764   7.796
 2432POPC   NC334703  30.900  12.704   9.555
 2432POPC   PO434704  31.032  13.394   9.448
 2432POPC   GL134705  30.742  13.192   9.144
 2432POPC   GL234706  30.675  12.864   9.130
 2432POPC   C1A34707  30.510  13.190   8.782
 2432POPC   D2A34708  30.456  12.998   8.390
 2432POPC   C3A34709  30.518  13.185   7.969
 2432POPC   C4A34710  30.438  13.155   7.523
 2432POPC   C1B34711  30.458  12.670   8.787
 2432POPC   C2B34712  30.491  12.493   8.357
 2432POPC   C3B34713  30.518  12.674   7.963
 2432POPC   C4B34714  30.778  12.782   7.615
 2433POPC   NC334715   7.201  44.444   9.543
 2433POPC   PO434716   7.636  44.985   9.417
 2433POPC   GL134717   7.325  44.823   9.181
 2433POPC   GL234718   7.492  44.523   9.098
 2433POPC   C1A34719   7.229  44.753   8.750
 2433POPC   D2A34720   7.370  44.878   8.395
 2433POPC   C3A34721   7.258  44.766   7.986
 2433POPC   C4A34722   7.608  44.692   7.732
 2433POPC   C1B34723   7.354  44.270   8.749
 2433POPC   C2B34724   7.196  44.368   8.356
 2433POPC   C3B34725   7.439  44.294   8.002
 2433POPC   C4B34726   7.771  44.199   7.736
 2434POPC   NC334727  29.159  10.462   9.699
 2434POPC   PO434728  28.990  10.789   9.234
 2434POPC   GL134729  29.018  10.387   9.153
 2434POPC   GL234730  28.691  10.351   8.999
 2434POPC   C1A34731  29.172  10.321   8.752
 2434POPC   D2A34732  29.044  10.258   8.330
 2434POPC   C3A34733  29.333  10.287   7.965
 2434POPC   C4A34734  29.232  10.368   7.509
 2434POPC   C1B34735  28.700  10.631   8.661
 2434POPC   C2B34736  28.835  10.734   8.268
 2434POPC   C3B34737  29.063  10.697   7.922
 2434POPC   C4B34738  28.967  10.782   7.522
 2435POPC   NC334739   9.780  19.935   9.748
 2435POPC   PO434740   9.687  19.405   9.402
 2435POPC   GL134741   9.920  19.696   9.159
 2435POPC   GL234742   9.889  20.040   9.243
 2435POPC   C1A34743  10.044  19.713   8.749
 2435POPC   D2A34744   9.819  19.815   8.383
 2435POPC   C3A34745   9.869  19.470   8.066
 2435POPC   C4A34746   9.920  19.742   7.774
 2435POPC   C1B34747   9.821  20.172   8.824
 2435POPC   C2B34748   9.833  20.380   8.429
 2435POPC   C3B34749   9.838  20.199   8.028
 2435POPC   C4B34750   9.515  20.227   7.728
 2436POPC   NC334751  15.456  41.674   9.206
 2436POPC   PO434752  15.966  41.699   9.635
 2436POPC   GL134753  15.952  41.623   9.198
 2436POPC   GL234754  15.774  41.282   9.132
 2436POPC   C1A34755  16.023  41.594   8.760
 2436POPC   D2A34756  16.115  41.338   8.405
 2436POPC   C3A34757  16.228  41.514   8.035
 2436POPC   C4A34758  15.948  41.602   7.709
 2436POPC   C1B34759  15.686  41.166   8.743
 2436POPC   C2B34760  15.609  41.250   8.330
 2436POPC   C3B34761  15.808  41.175   7.965
 2436POPC   C4B34762  15.687  41.171   7.531
 2437POPC   NC334763  10.137  32.279   9.503
 2437POPC   PO434764  10.726  31.892   9.547
 2437POPC   GL134765  10.621  32.238   9.282
 2437POPC   GL234766  10.856  32.527   9.214
 2437POPC   C1A34767  10.484  32.130   8.882
 2437POPC   D2A34768  10.692  32.167   8.502
 2437POPC   C3A34769  10.457  32.168   8.150
 2437POPC   C4A34770  10.631  32.107   7.736
 2437POPC   C1B34771  10.637  32.608   8.811
 2437POPC   C2B34772  10.467  32.653   8.364
 2437POPC   C3B34773  10.578  32.626   7.899
 2437POPC   C4B34774  10.659  32.544   7.441
 2438POPC   NC334775   6.087  36.794   9.418
 2438POPC   PO434776   5.645  37.206   9.709
 2438POPC   GL134777   5.809  37.267   9.272
 2438POPC   GL234778   6.177  37.261   9.223
 2438POPC   C1A34779   5.839  37.055   8.842
 2438POPC   D2A34780   5.688  36.858   8.438
 2438POPC   C3A34781   5.869  36.705   8.041
 2438POPC   C4A34782   5.790  36.953   7.663
 2438POPC   C1B34783   6.412  37.252   8.832
 2438POPC   C2B34784   6.183  37.147   8.467
 2438POPC   C3B34785   5.995  37.209   8.096
 2438POPC   C4B34786   5.967  37.443   7.755
 2439POPC   NC334787   3.363  21.014   9.471
 2439POPC   PO434788   3.823  20.491   9.569
 2439POPC   GL134789   3.610  20.470   9.155
 2439POPC   GL234790   3.287  20.338   9.141
 2439POPC   C1A34791   3.467  20.523   8.718
 2439POPC   D2A34792   3.590  20.711   8.378
 2439POPC   C3A34793   3.397  20.632   8.032
 2439POPC   C4A34794   3.512  20.643   7.640
 2439POPC   C1B34795   3.029  20.220   8.753
 2439POPC   C2B34796   3.038  20.388   8.328
 2439POPC   C3B34797   2.953  20.452   7.866
 2439POPC   C4B34798   3.015  20.392   7.386
 2440POPC   NC334799  44.393  31.197   9.484
 2440POPC   PO434800  44.820  31.814   9.411
 2440POPC   GL134801  44.622  31.526   9.166
 2440POPC   GL234802  44.554  31.721   8.891
 2440POPC   C1A34803  44.670  31.207   8.842
 2440POPC   D2A34804  44.451  31.128   8.447
 2440POPC   C3A34805  44.517  31.374   8.079
 2440POPC   C4A34806  44.404  31.422   7.625
 2440POPC   C1B34807  44.974  31.609   8.770
 2440POPC   C2B34808   0.120  31.501   8.377
 2440POPC   C3B34809  44.954  31.630   8.006
 2440POPC   C4B34810  44.914  31.671   7.589
 2441POPC   NC334811  27.601  23.814   9.737
 2441POPC   PO434812  27.952  23.312   9.470
 2441POPC   GL134813  27.723  23.690   9.257
 2441POPC   GL234814  27.369  23.661   9.128
 2441POPC   C1A34815  27.766  23.865   8.839
 2441POPC   D2A34816  27.861  23.643   8.455
 2441POPC   C3A34817  27.726  23.845   8.080
 2441POPC   C4A34818  27.715  23.789   7.636
 2441POPC   C1B34819  27.259  23.762   8.680
 2441POPC   C2B34820  27.221  23.779   8.213
 2441POPC   C3B34821  27.232  23.814   7.734
 2441POPC   C4B34822  27.374  24.044   7.340
 2442POPC   NC334823  35.186   6.159   9.557
 2442POPC   PO434824  35.303   5.567   9.385
 2442POPC   GL134825  35.277   5.804   9.027
 2442POPC   GL234826  35.009   6.045   9.086
 2442POPC   C1A34827  35.505   5.813   8.634
 2442POPC   D2A34828  35.814   5.851   8.317
 2442POPC   C3A34829  35.632   5.896   7.900
 2442POPC   C4A34830  35.360   5.852   7.559
 2442POPC   C1B34831  35.108   6.142   8.659
 2442POPC   C2B34832  35.295   6.148   8.253
 2442POPC   C3B34833  35.059   6.152   7.859
 2442POPC   C4B34834  34.873   5.915   7.477
 2443POPC   NC334835  41.658  19.740   9.846
 2443POPC   PO434836  41.238  20.083   9.674
 2443POPC   GL134837  41.477  20.094   9.250
 2443POPC   GL234838  41.696  19.802   9.130
 2443POPC   C1A34839  41.484  20.111   8.763
 2443POPC   D2A34840  41.236  20.121   8.351
 2443POPC   C3A34841  41.399  20.067   7.918
 2443POPC   C4A34842  41.439  19.754   7.556
 2443POPC   C1B34843  41.727  19.662   8.670
 2443POPC   C2B34844  41.601  19.709   8.221
 2443POPC   C3B34845  41.856  19.850   7.835
 2443POPC   C4B34846  41.944  19.838   7.363
 2444POPC   NC334847  23.479  40.615   9.646
 2444POPC   PO434848  24.040  40.975   9.555
 2444POPC   GL134849  23.875  40.703   9.259
 2444POPC   GL234850  23.552  40.799   9.165
 2444POPC   C1A34851  23.815  40.533   8.820
 2444POPC   D2A34852  23.741  40.798   8.438
 2444POPC   C3A34853  23.653  40.643   8.005
 2444POPC   C4A34854  23.908  40.696   7.634
 2444POPC   C1B34855  23.359  40.780   8.769
 2444POPC   C2B34856  23.283  40.999   8.386
 2444POPC   C3B34857  23.183  40.867   8.012
 2444POPC   C4B34858  23.257  40.593   7.653
 2445POPC   NC334859  12.874  40.373   9.386
 2445POPC   PO434860  12.763  39.756   9.493
 2445POPC   GL134861  12.741  39.953   9.110
 2445POPC   GL234862  13.073  39.989   9.102
 2445POPC   C1A34863  12.788  40.247   8.753
 2445POPC   D2A34864  12.742  40.472   8.382
 2445POPC   C3A34865  12.662  40.162   8.100
 2445POPC   C4A34866  12.714  40.021   7.729
 2445POPC   C1B34867  13.149  39.864   8.750
 2445POPC   C2B34868  13.007  39.916   8.357
 2445POPC   C3B34869  13.179  39.941   7.945
 2445POPC   C4B34870  13.226  39.734   7.544
 2446POPC   NC334871  18.712  15.053   9.417
 2446POPC   PO434872  19.312  14.763   9.372
 2446POPC   GL134873  19.060  14.891   9.063
 2446POPC   GL234874  19.120  15.240   9.144
 2446POPC   C1A34875  19.017  15.064   8.658
 2446POPC   D2A34876  19.071  14.946   8.243
 2446POPC   C3A34877  18.813  15.028   7.925
 2446POPC   C4A34878  18.717  15.411   7.760
 2446POPC   C1B34879  19.428  15.378   8.826
 2446POPC   C2B34880  19.376  15.374   8.385
 2446POPC   C3B34881  19.277  15.335   7.933
 2446POPC   C4B34882  19.484  15.488   7.551
 2447POPC   NC334883  44.821   9.551   9.184
 2447POPC   PO434884  44.721   8.954   9.477
 2447POPC   GL134885  44.652   8.811   9.105
 2447POPC   GL234886  44.999   8.823   9.024
 2447POPC   C1A34887  44.447   8.793   8.691
 2447POPC   D2A34888  44.645   8.693   8.284
 2447POPC   C3A34889  44.463   8.946   8.033
 2447POPC   C4A34890  44.462   8.905   7.658
 2447POPC   C1B34891  44.982   8.866   8.606
 2447POPC   C2B34892  44.922   9.128   8.226
 2447POPC   C3B34893  44.870   9.211   7.773
 2447POPC   C4B34894   0.095   9.287   7.348
 2448POPC   NC334895  21.982  31.703   9.465
 2448POPC   PO434896  22.491  31.282   9.574
 2448POPC   GL134897  22.201  31.345   9.176
 2448POPC   GL234898  21.915  31.147   9.091
 2448POPC   C1A34899  22.077  31.514   8.744
 2448POPC   D2A34900  22.327  31.759   8.423
 2448POPC   C3A34901  22.344  31.693   7.968
 2448POPC   C4A34902  22.141  31.697   7.552
 2448POPC   C1B34903  21.741  31.121   8.670
 2448POPC   C2B34904  21.717  31.201   8.229
 2448POPC   C3B34905  21.820  31.467   7.919
 2448POPC   C4B34906  21.778  31.335   7.500
 2449POPC   NC334907  29.427  13.578   9.255
 2449POPC   PO434908  30.035  13.461   9.465
 2449POPC   GL134909  29.897  13.392   9.082
 2449POPC   GL234910  29.882  13.749   9.039
 2449POPC   C1A34911  29.809  13.428   8.646
 2449POPC   D2A34912  29.634  13.688   8.352
 2449POPC   C3A34913  29.912  13.697   8.007
 2449POPC   C4A34914  30.050  13.344   7.780
 2449POPC   C1B34915  29.958  13.969   8.685
 2449POPC   C2B34916  29.768  14.174   8.362
 2449POPC   C3B34917  29.637  14.132   7.984
 2449POPC   C4B34918  29.627  14.004   7.585
 2450POPC   NC334919   3.446  30.895   9.309
 2450POPC   PO434920   3.664  31.511   9.572
 2450POPC   GL134921   3.536  31.411   9.166
 2450POPC   GL234922   3.823  31.221   9.136
 2450POPC   C1A34923   3.348  31.583   8.758
 2450POPC   D2A34924   3.060  31.538   8.390
 2450POPC   C3A34925   3.219  31.642   7.986
 2450POPC   C4A34926   3.397  31.557   7.586
 2450POPC   C1B34927   3.853  31.489   8.760
 2450POPC   C2B34928   3.715  31.715   8.404
 2450POPC   C3B34929   3.712  31.586   7.996
 2450POPC   C4B34930   3.895  31.370   7.647
 2451POPC   NC334931  43.519   4.128   9.352
 2451POPC   PO434932  43.062   3.594   9.636
 2451POPC   GL134933  43.074   3.429   9.236
 2451POPC   GL234934  43.281   3.700   9.185
 2451POPC   C1A34935  43.150   3.342   8.777
 2451POPC   D2A34936  43.359   3.407   8.313
 2451POPC   C3A34937  43.134   3.318   7.888
 2451POPC   C4A34938  42.974   3.486   7.457
 2451POPC   C1B34939  42.958   3.814   8.925
 2451POPC   C2B34940  43.044   3.757   8.527
 2451POPC   C3B34941  43.071   3.789   8.102
 2451POPC   C4B34942  42.795   3.984   7.828
 2452POPC   NC334943   3.800  19.377   9.505
 2452POPC   PO434944   3.248  18.972   9.340
 2452POPC   GL134945   3.454  19.007   9.038
 2452POPC   GL234946   3.789  18.984   9.157
 2452POPC   C1A34947   3.272  19.022   8.649
 2452POPC   D2A34948   3.188  18.829   8.280
 2452POPC   C3A34949   3.286  19.090   7.971
 2452POPC   C4A34950   3.427  18.821   7.677
 2452POPC   C1B34951   3.793  19.211   8.744
 2452POPC   C2B34952   3.661  19.212   8.315
 2452POPC   C3B34953   3.830  19.193   7.879
 2452POPC   C4B34954   3.851  18.932   7.489
 2453POPC   NC334955  25.159  43.717   9.559
 2453POPC   PO434956  24.812  44.253   9.364
 2453POPC   GL134957  25.022  43.915   9.110
 2453POPC   GL234958  24.911  43.578   9.120
 2453POPC   C1A34959  25.239  43.790   8.732
 2453POPC   D2A34960  25.130  43.960   8.329
 2453POPC   C3A34961  25.211  43.808   7.906
 2453POPC   C4A34962  25.268  44.166   7.634
 2453POPC   C1B34963  24.768  43.635   8.689
 2453POPC   C2B34964  24.845  43.539   8.235
 2453POPC   C3B34965  24.745  43.629   7.786
 2453POPC   C4B34966  24.812  43.545   7.352
 2454POPC   NC334967  26.446  22.878   9.470
 2454POPC   PO434968  27.049  23.249   9.444
 2454POPC   GL134969  26.884  23.020   9.142
 2454POPC   GL234970  26.887  22.658   9.180
 2454POPC   C1A34971  27.057  22.921   8.761
 2454POPC   D2A34972  26.863  22.891   8.414
 2454POPC   C3A34973  27.114  23.039   8.090
 2454POPC   C4A34974  26.874  22.890   7.732
 2454POPC   C1B34975  26.628  22.611   8.817
 2454POPC   C2B34976  26.338  22.722   8.492
 2454POPC   C3B34977  26.492  22.787   8.071
 2454POPC   C4B34978  26.580  22.443   7.833
 2455POPC   NC334979  16.405  41.769   9.505
 2455POPC   PO434980  16.211  41.228   9.368
 2455POPC   GL134981  16.433  41.473   9.063
 2455POPC   GL234982  16.780  41.557   9.116
 2455POPC   C1A34983  16.539  41.532   8.624
 2455POPC   D2A34984  16.836  41.621   8.299
 2455POPC   C3A34985  16.653  41.779   7.924
 2455POPC   C4A34986  16.454  41.589   7.569
 2455POPC   C1B34987  16.987  41.814   8.775
 2455POPC   C2B34988  17.212  41.984   8.374
 2455POPC   C3B34989  17.137  41.908   7.930
 2455POPC   C4B34990  17.000  41.569   7.605
 2456POPC   NC334991  37.507  29.515   9.665
 2456POPC   PO434992  37.783  30.091   9.470
 2456POPC   GL134993  37.608  29.828   9.174
 2456POPC   GL234994  37.380  30.106   9.100
 2456POPC   C1A34995  37.585  29.741   8.726
 2456POPC   D2A34996  37.611  29.488   8.353
 2456POPC   C3A34997  37.680  29.697   7.983
 2456POPC   C4A34998  37.517  30.015   7.773
 2456POPC   C1B34999  37.681  30.245   8.788
 2456POPC   C2B35000  37.728  30.186   8.355
 2456POPC   C3B35001  37.693  30.447   7.974
 2456POPC   C4B35002  37.953  30.528   7.646
 2457POPC   NC335003  15.310  37.489   9.295
 2457POPC   PO435004  14.857  37.835   9.711
 2457POPC   GL135005  15.053  37.917   9.270
 2457POPC   GL235006  14.860  37.747   9.005
 2457POPC   C1A35007  15.304  37.915   8.848
 2457POPC   D2A35008  15.472  37.725   8.483
 2457POPC   C3A35009  15.157  37.817   8.173
 2457POPC   C4A35010  15.128  37.890   7.726
 2457POPC   C1B35011  15.071  37.459   8.710
 2457POPC   C2B35012  15.138  37.279   8.314
 2457POPC   C3B35013  15.266  37.407   7.904
 2457POPC   C4B35014  15.262  37.457   7.453
 2458POPC   NC335015  14.983   0.003   9.793
 2458POPC   PO435016  15.356  44.521   9.532
 2458POPC   GL135017  15.322  44.301   9.137
 2458POPC   GL235018  15.012  44.465   9.063
 2458POPC   C1A35019  15.180  44.123   8.756
 2458POPC   D2A35020  14.902  44.269   8.480
 2458POPC   C3A35021  15.130  44.436   8.129
 2458POPC   C4A35022  14.857  44.558   7.802
 2458POPC   C1B35023  15.401  44.622   8.774
 2458POPC   C2B35024  15.520  44.804   8.369
 2458POPC   C3B35025  15.203  44.988   8.118
 2458POPC   C4B35026  14.954   0.047   7.764
 2459POPC   NC335027  33.657   0.245   9.569
 2459POPC   PO435028  34.253   0.519   9.600
 2459POPC   GL135029  33.968   0.474   9.228
 2459POPC   GL235030  33.667   0.652   9.225
 2459POPC   C1A35031  33.710   0.258   8.897
 2459POPC   D2A35032  33.493   0.124   8.530
 2459POPC   C3A35033  33.738   0.170   8.154
 2459POPC   C4A35034  33.689   0.285   7.750
 2459POPC   C1B35035  33.805   0.766   8.830
 2459POPC   C2B35036  33.705   0.603   8.452
 2459POPC   C3B35037  33.597   0.760   8.075
 2459POPC   C4B35038  33.915   0.702   7.888
 2460POPC   NC335039  32.105  30.610   9.747
 2460POPC   PO435040  32.587  31.068   9.485
 2460POPC   GL135041  32.246  30.787   9.270
 2460POPC   GL235042  32.179  31.019   9.037
 2460POPC   C1A35043  32.173  30.521   8.862
 2460POPC   D2A35044  32.264  30.676   8.454
 2460POPC   C3A35045  32.199  30.521   8.032
 2460POPC   C4A35046  32.224  30.828   7.700
 2460POPC   C1B35047  32.593  30.862   8.832
 2460POPC   C2B35048  32.720  30.891   8.420
 2460POPC   C3B35049  32.627  30.791   8.006
 2460POPC   C4B35050  32.722  30.766   7.566
 2461POPC   NC335051  24.203  23.697   9.509
 2461POPC   PO435052  23.515  23.596   9.422
 2461POPC   GL135053  23.756  23.783   9.159
 2461POPC   GL235054  23.655  24.101   9.155
 2461POPC   C1A35055  23.930  23.669   8.785
 2461POPC   D2A35056  23.756  23.542   8.393
 2461POPC   C3A35057  23.934  23.460   7.989
 2461POPC   C4A35058  23.587  23.348   7.725
 2461POPC   C1B35059  23.529  24.134   8.738
 2461POPC   C2B35060  23.604  24.244   8.306
 2461POPC   C3B35061  23.690  23.917   8.048
 2461POPC   C4B35062  23.761  23.817   7.651
 2462POPC   NC335063  25.813  23.948   9.534
 2462POPC   PO435064  26.227  23.348   9.377
 2462POPC   GL135065  26.244  23.561   9.022
 2462POPC   GL235066  25.969  23.802   9.063
 2462POPC   C1A35067  26.123  23.596   8.605
 2462POPC   D2A35068  26.282  23.614   8.202
 2462POPC   C3A35069  25.932  23.573   7.923
 2462POPC   C4A35070  26.009  23.685   7.483
 2462POPC   C1B35071  25.879  24.077   8.693
 2462POPC   C2B35072  25.929  23.994   8.249
 2462POPC   C3B35073  26.207  24.000   7.879
 2462POPC   C4B35074  25.958  24.185   7.575
 2463POPC   NC335075   4.714  37.618   9.326
 2463POPC   PO435076   4.051  37.518   9.538
 2463POPC   GL135077   4.190  37.461   9.131
 2463POPC   GL235078   4.308  37.771   9.103
 2463POPC   C1A35079   4.098  37.651   8.685
 2463POPC   D2A35080   4.303  37.566   8.315
 2463POPC   C3A35081   4.186  37.401   7.906
 2463POPC   C4A35082   4.017  37.628   7.555
 2463POPC   C1B35083   4.494  37.988   8.732
 2463POPC   C2B35084   4.481  38.075   8.284
 2463POPC   C3B35085   4.302  37.894   7.917
 2463POPC   C4B35086   4.537  37.669   7.602
 2464POPC   NC335087   2.627  26.102   9.493
 2464POPC   PO435088   3.020  25.608   9.457
 2464POPC   GL135089   2.709  25.761   9.121
 2464POPC   GL235090   2.656  26.152   8.994
 2464POPC   C1A35091   2.621  25.756   8.685
 2464POPC   D2A35092   2.747  26.088   8.421
 2464POPC   C3A35093   2.699  26.024   7.996
 2464POPC   C4A35094   2.391  25.832   7.776
 2464POPC   C1B35095   2.382  26.353   8.672
 2464POPC   C2B35096   2.341  26.551   8.273
 2464POPC   C3B35097   2.343  26.346   7.853
 2464POPC   C4B35098   2.248  26.188   7.425
 2465POPC   NC335099  11.300   1.645   9.425
 2465POPC   PO435100  11.094   2.231   9.411
 2465POPC   GL135101  11.095   1.943   9.084
 2465POPC   GL235102  11.465   1.996   9.070
 2465POPC   C1A35103  11.179   1.798   8.651
 2465POPC   D2A35104  10.894   1.918   8.337
 2465POPC   C3A35105  10.911   1.876   7.893
 2465POPC   C4A35106  10.932   2.134   7.545
 2465POPC   C1B35107  11.710   2.311   8.798
 2465POPC   C2B35108  11.578   2.287   8.388
 2465POPC   C3B35109  11.382   1.961   8.149
 2465POPC   C4B35110  11.382   1.924   7.703
 2466POPC   NC335111   0.108  13.541   9.481
 2466POPC   PO435112  44.534  13.218   9.545
 2466POPC   GL135113  44.741  13.393   9.175
 2466POPC   GL235114  44.751  13.729   9.141
 2466POPC   C1A35115  44.965  13.401   8.800
 2466POPC   D2A35116  44.784  13.548   8.419
 2466POPC   C3A35117  44.669  13.353   8.044
 2466POPC   C4A35118  44.423  13.572   7.762
 2466POPC   C1B35119  44.926  13.914   8.758
 2466POPC   C2B35120  44.789  14.078   8.395
 2466POPC   C3B35121  44.726  13.909   8.016
 2466POPC   C4B35122  44.611  14.030   7.612
 2467POPC   NC335123   2.388  44.333   9.528
 2467POPC   PO435124   2.982  44.671   9.474
 2467POPC   GL135125   2.796  44.841   9.109
 2467POPC   GL235126   2.491  44.678   9.122
 2467POPC   C1A35127   2.611   0.002   8.748
 2467POPC   D2A35128   2.441  44.878   8.359
 2467POPC   C3A35129   2.817  44.736   8.195
 2467POPC   C4A35130   3.043  44.792   7.807
 2467POPC   C1B35131   2.617  44.500   8.693
 2467POPC   C2B35132   2.493  44.314   8.275
 2467POPC   C3B35133   2.683  44.368   7.878
 2467POPC   C4B35134   2.508  44.793   7.785
 2468POPC   NC335135  34.095  35.562   9.463
 2468POPC   PO435136  33.626  35.108   9.462
 2468POPC   GL135137  33.743  35.322   9.156
 2468POPC   GL235138  34.059  35.195   9.091
 2468POPC   C1A35139  33.604  35.437   8.774
 2468POPC   D2A35140  33.713  35.550   8.373
 2468POPC   C3A35141  33.564  35.419   8.019
 2468POPC   C4A35142  33.369  35.376   7.671
 2468POPC   C1B35143  34.136  35.387   8.679
 2468POPC   C2B35144  34.148  35.350   8.207
 2468POPC   C3B35145  34.017  35.351   7.772
 2468POPC   C4B35146  34.078  35.344   7.300
 2469POPC   NC335147  22.525   1.869   9.533
 2469POPC   PO435148  21.926   2.130   9.458
 2469POPC   GL135149  22.187   1.897   9.122
 2469POPC   GL235150  22.031   1.555   9.000
 2469POPC   C1A35151  22.134   1.993   8.670
 2469POPC   D2A35152  21.985   1.847   8.263
 2469POPC   C3A35153  22.046   2.157   7.943
 2469POPC   C4A35154  22.399   2.429   7.889
 2469POPC   C1B35155  22.143   1.485   8.616
 2469POPC   C2B35156  22.436   1.617   8.329
 2469POPC   C3B35157  22.356   1.724   7.897
 2469POPC   C4B35158  22.486   1.581   7.489
 2470POPC   NC335159  44.955   2.816   9.540
 2470POPC   PO435160   0.664   2.702   9.489
 2470POPC   GL135161   0.360   2.821   9.203
 2470POPC   GL235162   0.268   3.166   9.263
 2470POPC   C1A35163   0.263   2.755   8.770
 2470POPC   D2A35164  44.982   2.761   8.426
 2470POPC   C3A35165   0.245   2.634   8.029
 2470POPC   C4A35166   0.272   2.654   7.535
 2470POPC   C1B35167   0.520   3.181   8.877
 2470POPC   C2B35168   0.432   3.144   8.465
 2470POPC   C3B35169   0.627   3.182   8.122
 2470POPC   C4B35170   0.460   3.039   7.776
 2471POPC   NC335171  25.418  17.986   9.490
 2471POPC   PO435172  25.179  17.442   9.850
 2471POPC   GL135173  25.167  17.326   9.374
 2471POPC   GL235174  25.207  17.628   9.194
 2471POPC   C1A35175  25.143  17.242   8.897
 2471POPC   D2A35176  25.168  17.462   8.465
 2471POPC   C3A35177  25.254  17.238   8.091
 2471POPC   C4A35178  25.355  17.334   7.658
 2471POPC   C1B35179  24.963  17.791   8.801
 2471POPC   C2B35180  24.777  17.782   8.350
 2471POPC   C3B35181  24.961  17.678   7.964
 2471POPC   C4B35182  25.382  17.735   7.968
 2472POPC   NC335183  10.013   9.267   9.470
 2472POPC   PO435184   9.300   9.293   9.524
 2472POPC   GL135185   9.614   9.338   9.170
 2472POPC   GL235186   9.770   9.013   9.088
 2472POPC   C1A35187   9.537   9.290   8.732
 2472POPC   D2A35188   9.711   9.100   8.391
 2472POPC   C3A35189   9.542   8.997   8.012
 2472POPC   C4A35190   9.637   8.669   7.705
 2472POPC   C1B35191  10.070   9.202   8.764
 2472POPC   C2B35192  10.205   9.213   8.296
 2472POPC   C3B35193  10.080   9.008   7.892
 2472POPC   C4B35194   9.889   9.104   7.503
 2473POPC   NC335195  34.551  21.071   9.444
 2473POPC   PO435196  34.328  20.413   9.582
 2473POPC   GL135197  34.510  20.554   9.171
 2473POPC   GL235198  34.656  20.867   8.990
 2473POPC   C1A35199  34.283  20.423   8.809
 2473POPC   D2A35200  34.360  20.432   8.418
 2473POPC   C3A35201  34.220  20.376   8.041
 2473POPC   C4A35202  34.527  20.387   7.774
 2473POPC   C1B35203  34.783  20.564   8.671
 2473POPC   C2B35204  34.789  20.552   8.205
 2473POPC   C3B35205  34.867  20.756   7.823
 2473POPC   C4B35206  34.597  21.071   7.630
 2474POPC   NC335207  29.361  35.701   9.322
 2474POPC   PO435208  28.749  35.751   9.431
 2474POPC   GL135209  28.863  35.549   9.076
 2474POPC   GL235210  29.002  35.205   9.143
 2474POPC   C1A35211  29.173  35.488   8.739
 2474POPC   D2A35212  29.265  35.219   8.390
 2474POPC   C3A35213  29.320  35.381   7.972
 2474POPC   C4A35214  29.210  35.120   7.593
 2474POPC   C1B35215  28.766  35.187   8.748
 2474POPC   C2B35216  28.781  35.409   8.374
 2474POPC   C3B35217  28.821  35.269   7.957
 2474POPC   C4B35218  28.978  35.554   7.621
 2475POPC   NC335219   1.183  19.574   9.501
 2475POPC   PO435220   1.084  20.206   9.576
 2475POPC   GL135221   1.151  20.013   9.176
 2475POPC   GL235222   1.512  19.959   9.180
 2475POPC   C1A35223   1.097  19.823   8.764
 2475POPC   D2A35224   1.260  19.573   8.402
 2475POPC   C3A35225   1.128  19.701   7.975
 2475POPC   C4A35226   0.961  19.869   7.567
 2475POPC   C1B35227   1.580  19.970   8.721
 2475POPC   C2B35228   1.659  19.883   8.265
 2475POPC   C3B35229   1.552  19.951   7.839
 2475POPC   C4B35230   1.343  20.199   7.549
 2476POPC   NC335231  18.326  34.682   9.496
 2476POPC   PO435232  17.929  34.061   9.503
 2476POPC   GL135233  18.056  34.330   9.175
 2476POPC   GL235234  18.405  34.275   9.181
 2476POPC   C1A35235  18.166  34.656   8.847
 2476POPC   D2A35236  18.472  34.723   8.513
 2476POPC   C3A35237  18.456  34.691   8.079
 2476POPC   C4A35238  18.519  34.706   7.652
 2476POPC   C1B35239  18.527  34.286   8.750
 2476POPC   C2B35240  18.562  34.227   8.298
 2476POPC   C3B35241  18.713  34.263   7.881
 2476POPC   C4B35242  18.471  34.248   7.505
 2477POPC   NC335243  41.457  33.924   9.986
 2477POPC   PO435244  41.747  33.550   9.688
 2477POPC   GL135245  41.747  33.721   9.209
 2477POPC   GL235246  41.537  34.022   9.082
 2477POPC   C1A35247  41.713  33.717   8.716
 2477POPC   D2A35248  41.494  33.739   8.302
 2477POPC   C3A35249  41.663  33.902   7.919
 2477POPC   C4A35250  41.486  33.936   7.492
 2477POPC   C1B35251  41.367  34.107   8.633
 2477POPC   C2B35252  41.513  34.283   8.222
 2477POPC   C3B35253  41.647  34.387   7.730
 2477POPC   C4B35254  41.585  34.372   7.237
 2478POPC   NC335255  34.641  38.893   9.473
 2478POPC   PO435256  34.465  39.554   9.471
 2478POPC   GL135257  34.439  39.250   9.153
 2478POPC   GL235258  34.791  39.188   9.093
 2478POPC   C1A35259  34.419  38.964   8.800
 2478POPC   D2A35260  34.668  38.976   8.414
 2478POPC   C3A35261  34.467  39.192   8.074
 2478POPC   C4A35262  34.651  39.494   7.805
 2478POPC   C1B35263  34.974  38.880   8.829
 2478POPC   C2B35264  35.176  38.869   8.435
 2478POPC   C3B35265  35.090  39.184   8.157
 2478POPC   C4B35266  34.895  39.063   7.819
 2479POPC   NC335267  36.692  44.620   9.302
 2479POPC   PO435268  36.985   0.055   9.679
 2479POPC   GL135269  37.089  44.987   9.191
 2479POPC   GL235270  37.164  44.626   9.085
 2479POPC   C1A35271  36.924  44.904   8.736
 2479POPC   D2A35272  36.715  44.678   8.344
 2479POPC   C3A35273  36.934  44.702   7.934
 2479POPC   C4A35274  37.212  44.789   7.563
 2479POPC   C1B35275  37.054  44.410   8.685
 2479POPC   C2B35276  37.020  44.245   8.252
 2479POPC   C3B35277  36.777  44.229   7.851
 2479POPC   C4B35278  36.510  44.546   7.696
 2480POPC   NC335279  22.568  24.742   9.904
 2480POPC   PO435280  23.100  24.475   9.587
 2480POPC   GL135281  22.913  24.272   9.244
 2480POPC   GL235282  23.220  24.362   9.108
 2480POPC   C1A35283  22.743  24.393   8.831
 2480POPC   D2A35284  22.789  24.724   8.492
 2480POPC   C3A35285  22.796  24.565   8.057
 2480POPC   C4A35286  22.843  24.732   7.650
 2480POPC   C1B35287  23.219  24.577   8.755
 2480POPC   C2B35288  23.116  24.324   8.404
 2480POPC   C3B35289  23.229  24.198   7.993
 2480POPC   C4B35290  23.008  24.253   7.663
 2481POPC   NC335291   2.826  43.441   9.418
 2481POPC   PO435292   2.461  42.918   9.357
 2481POPC   GL135293   2.528  43.226   9.069
 2481POPC   GL235294   2.885  43.138   9.028
 2481POPC   C1A35295   2.585  43.212   8.637
 2481POPC   D2A35296   2.682  43.155   8.247
 2481POPC   C3A35297   2.491  43.390   7.987
 2481POPC   C4A35298   2.423  43.154   7.652
 2481POPC   C1B35299   3.095  43.130   8.641
 2481POPC   C2B35300   3.179  42.997   8.247
 2481POPC   C3B35301   2.970  42.909   7.893
 2481POPC   C4B35302   2.941  43.286   7.790
 2482POPC   NC335303  23.004  21.658   9.526
 2482POPC   PO435304  22.690  22.309   9.572
 2482POPC   GL135305  22.956  22.303   9.190
 2482POPC   GL235306  23.196  22.053   9.229
 2482POPC   C1A35307  23.150  22.404   8.767
 2482POPC   D2A35308  23.288  22.290   8.303
 2482POPC   C3A35309  23.037  22.495   7.952
 2482POPC   C4A35310  22.617  22.562   7.757
 2482POPC   C1B35311  23.097  21.874   8.817
 2482POPC   C2B35312  23.279  21.769   8.402
 2482POPC   C3B35313  23.283  21.695   7.942
 2482POPC   C4B35314  22.997  21.924   7.643
 2483POPC   NC335315  40.815  42.539   9.703
 2483POPC   PO435316  40.426  42.150   9.219
 2483POPC   GL135317  40.612  42.447   9.010
 2483POPC   GL235318  40.859  42.582   9.203
 2483POPC   C1A35319  40.869  42.303   8.670
 2483POPC   D2A35320  40.788  42.254   8.269
 2483POPC   C3A35321  40.925  42.194   7.878
 2483POPC   C4A35322  40.722  42.461   7.552
 2483POPC   C1B35323  41.078  42.707   8.865
 2483POPC   C2B35324  41.064  42.736   8.428
 2483POPC   C3B35325  40.905  42.675   8.003
 2483POPC   C4B35326  41.084  42.805   7.609
 2484POPC   NC335327   8.949  20.490   9.782
 2484POPC   PO435328   9.425  20.231   9.379
 2484POPC   GL135329   9.193  20.517   9.063
 2484POPC   GL235330   8.859  20.583   9.207
 2484POPC   C1A35331   9.175  20.472   8.640
 2484POPC   D2A35332   9.351  20.319   8.244
 2484POPC   C3A35333   9.096  20.488   7.904
 2484POPC   C4A35334   8.794  20.292   7.626
 2484POPC   C1B35335   8.789  20.811   8.809
 2484POPC   C2B35336   8.578  20.932   8.415
 2484POPC   C3B35337   8.654  20.947   7.973
 2484POPC   C4B35338   9.079  20.994   7.833
 2485POPC   NC335339  23.612  31.849   9.399
 2485POPC   PO435340  23.360  31.252   9.528
 2485POPC   GL135341  23.628  31.321   9.131
 2485POPC   GL235342  23.799  31.609   8.983
 2485POPC   C1A35343  23.557  31.291   8.661
 2485POPC   D2A35344  23.610  31.520   8.269
 2485POPC   C3A35345  23.352  31.606   7.912
 2485POPC   C4A35346  23.316  32.043   7.727
 2485POPC   C1B35347  24.049  31.253   8.783
 2485POPC   C2B35348  24.042  30.990   8.413
 2485POPC   C3B35349  23.727  31.020   8.106
 2485POPC   C4B35350  23.774  31.309   7.815
 2486POPC   NC335351  17.840  43.826   9.514
 2486POPC   PO435352  17.290  44.035   9.518
 2486POPC   GL135353  17.512  43.991   9.142
 2486POPC   GL235354  17.343  43.676   9.128
 2486POPC   C1A35355  17.664  43.832   8.744
 2486POPC   D2A35356  17.456  43.820   8.352
 2486POPC   C3A35357  17.580  43.972   7.973
 2486POPC   C4A35358  17.514  43.655   7.728
 2486POPC   C1B35359  17.155  43.919   8.761
 2486POPC   C2B35360  17.009  44.107   8.393
 2486POPC   C3B35361  17.066  43.961   8.012
 2486POPC   C4B35362  16.982  44.130   7.666
 2487POPC   NC335363  36.468  12.543   9.573
 2487POPC   PO435364  36.881  13.012   9.472
 2487POPC   GL135365  37.076  13.066   9.061
 2487POPC   GL235366  37.209  12.716   9.193
 2487POPC   C1A35367  37.054  13.068   8.598
 2487POPC   D2A35368  36.728  13.032   8.309
 2487POPC   C3A35369  36.747  12.931   7.879
 2487POPC   C4A35370  36.606  12.693   7.470
 2487POPC   C1B35371  36.945  12.612   8.858
 2487POPC   C2B35372  37.108  12.582   8.468
 2487POPC   C3B35373  37.019  12.474   8.082
 2487POPC   C4B35374  37.020  12.552   7.703
 2488POPC   NC335375  12.232  39.318   9.496
 2488POPC   PO435376  11.629  39.561   9.376
 2488POPC   GL135377  11.946  39.415   9.059
 2488POPC   GL235378  12.042  39.042   9.065
 2488POPC   C1A35379  12.136  39.377   8.635
 2488POPC   D2A35380  12.149  38.961   8.430
 2488POPC   C3A35381  11.901  38.951   8.074
 2488POPC   C4A35382  11.998  39.327   7.846
 2488POPC   C1B35383  12.471  39.069   8.869
 2488POPC   C2B35384  12.612  39.170   8.449
 2488POPC   C3B35385  12.462  39.174   8.028
 2488POPC   C4B35386  12.274  38.938   7.702
 2489POPC   NC335387   1.071  24.872   9.440
 2489POPC   PO435388   1.467  24.357   9.340
 2489POPC   GL135389   1.204  24.543   9.059
 2489POPC   GL235390   1.469  24.725   8.916
 2489POPC   C1A35391   1.027  24.476   8.650
 2489POPC   D2A35392   1.244  24.591   8.276
 2489POPC   C3A35393   1.065  24.533   7.876
 2489POPC   C4A35394   0.929  24.448   7.428
 2489POPC   C1B35395   1.505  24.322   8.692
 2489POPC   C2B35396   1.483  24.129   8.327
 2489POPC   C3B35397   1.435  24.165   7.911
 2489POPC   C4B35398   1.554  24.497   7.699
 2490POPC   NC335399   5.818  14.539   9.496
 2490POPC   PO435400   6.022  13.841   9.391
 2490POPC   GL135401   5.841  14.153   9.169
 2490POPC   GL235402   6.161  14.321   9.173
 2490POPC   C1A35403   5.692  14.206   8.785
 2490POPC   D2A35404   5.992  14.103   8.479
 2490POPC   C3A35405   5.860  14.225   8.090
 2490POPC   C4A35406   6.047  14.366   7.698
 2490POPC   C1B35407   6.011  14.598   8.872
 2490POPC   C2B35408   5.967  14.705   8.478
 2490POPC   C3B35409   5.954  14.722   8.057
 2490POPC   C4B35410   5.581  14.729   7.832
 2491POPC   NC335411  13.251  23.994   9.504
 2491POPC   PO435412  12.758  23.573   9.537
 2491POPC   GL135413  12.906  23.736   9.177
 2491POPC   GL235414  13.082  24.010   9.025
 2491POPC   C1A35415  12.747  23.745   8.735
 2491POPC   D2A35416  12.936  23.804   8.336
 2491POPC   C3A35417  12.745  23.760   7.935
 2491POPC   C4A35418  12.925  23.911   7.532
 2491POPC   C1B35419  13.210  23.566   8.827
 2491POPC   C2B35420  13.206  23.365   8.397
 2491POPC   C3B35421  13.234  23.537   7.976
 2491POPC   C4B35422  13.340  23.582   7.542
 2492POPC   NC335423  14.815  28.267   9.525
 2492POPC   PO435424  14.264  28.194   9.519
 2492POPC   GL135425  14.485  28.359   9.132
 2492POPC   GL235426  14.820  28.205   9.018
 2492POPC   C1A35427  14.422  28.384   8.673
 2492POPC   D2A35428  14.090  28.414   8.366
 2492POPC   C3A35429  14.230  28.607   7.926
 2492POPC   C4A35430  14.466  28.320   7.648
 2492POPC   C1B35431  14.516  27.915   8.865
 2492POPC   C2B35432  14.322  27.904   8.463
 2492POPC   C3B35433  14.315  28.075   8.070
 2492POPC   C4B35434  13.954  28.205   7.911
 2493POPC   NC335435  44.044  39.541   9.683
 2493POPC   PO435436  43.408  39.271   9.597
 2493POPC   GL135437  43.766  39.319   9.286
 2493POPC   GL235438  44.002  39.070   9.380
 2493POPC   C1A35439  43.943  39.553   8.907
 2493POPC   D2A35440  44.108  39.506   8.457
 2493POPC   C3A35441  43.870  39.375   8.082
 2493POPC   C4A35442  44.010  39.232   7.654
 2493POPC   C1B35443  44.005  39.027   8.917
 2493POPC   C2B35444  44.156  39.009   8.479
 2493POPC   C3B35445  44.053  38.895   8.049
 2493POPC   C4B35446  43.794  38.763   7.694
 2494POPC   NC335447  12.540   0.333   9.367
 2494POPC   PO435448  13.107   0.108   9.540
 2494POPC   GL135449  13.045   0.357   9.178
 2494POPC   GL235450  12.868   0.099   9.048
 2494POPC   C1A35451  12.965   0.481   8.725
 2494POPC   D2A35452  12.756   0.629   8.349
 2494POPC   C3A35453  13.062   0.520   8.037
 2494POPC   C4A35454  13.229   0.384   7.659
 2494POPC   C1B35455  12.503   0.182   8.727
 2494POPC   C2B35456  12.306  45.000   8.364
 2494POPC   C3B35457  12.419   0.271   8.043
 2494POPC   C4B35458  12.741   0.251   7.724
 2495POPC   NC335459  14.831  24.695   9.612
 2495POPC   PO435460  14.253  24.488   9.611
 2495POPC   GL135461  14.519  24.305   9.306
 2495POPC   GL235462  14.544  24.601   9.119
 2495POPC   C1A35463  14.484  24.177   8.841
 2495POPC   D2A35464  14.328  24.164   8.420
 2495POPC   C3A35465  14.430  24.405   8.034
 2495POPC   C4A35466  14.358  24.453   7.568
 2495POPC   C1B35467  14.315  24.644   8.699
 2495POPC   C2B35468  14.052  24.632   8.303
 2495POPC   C3B35469  14.129  24.808   7.886
 2495POPC   C4B35470  13.884  24.962   7.497
 2496POPC   NC335471  32.890  14.524   9.903
 2496POPC   PO435472  33.408  14.550   9.543
 2496POPC   GL135473  33.047  14.357   9.290
 2496POPC   GL235474  33.285  14.253   9.082
 2496POPC   C1A35475  32.962  14.493   8.804
 2496POPC   D2A35476  33.223  14.437   8.421
 2496POPC   C3A35477  33.029  14.541   8.046
 2496POPC   C4A35478  33.111  14.445   7.633
 2496POPC   C1B35479  33.190  14.025   8.737
 2496POPC   C2B35480  33.346  13.950   8.340
 2496POPC   C3B35481  33.191  14.043   7.928
 2496POPC   C4B35482  32.729  14.127   7.756
 2497POPC   NC335483  24.280  41.391   9.521
 2497POPC   PO435484  24.582  42.003   9.537
 2497POPC   GL135485  24.569  41.772   9.182
 2497POPC   GL235486  24.246  41.723   9.127
 2497POPC   C1A35487  24.584  41.859   8.744
 2497POPC   D2A35488  24.632  41.601   8.354
 2497POPC   C3A35489  24.638  41.516   7.885
 2497POPC   C4A35490  24.668  41.835   7.556
 2497POPC   C1B35491  24.092  41.542   8.750
 2497POPC   C2B35492  24.112  41.604   8.326
 2497POPC   C3B35493  24.152  41.369   7.970
 2497POPC   C4B35494  23.952  41.232   7.587
 2498POPC   NC335495  23.211  15.205   9.612
 2498POPC   PO435496  22.553  15.305   9.384
 2498POPC   GL135497  22.831  15.177   9.060
 2498POPC   GL235498  23.209  15.109   9.099
 2498POPC   C1A35499  22.675  15.160   8.629
 2498POPC   D2A35500  22.585  14.941   8.230
 2498POPC   C3A35501  22.912  15.058   7.993
 2498POPC   C4A35502  23.139  15.350   7.781
 2498POPC   C1B35503  23.158  14.928   8.672
 2498POPC   C2B35504  23.365  14.847   8.253
 2498POPC   C3B35505  23.260  14.725   7.830
 2498POPC   C4B35506  23.160  14.884   7.416
 2499POPC   NC335507  39.389   7.518   9.595
 2499POPC   PO435508  38.919   7.017   9.528
 2499POPC   GL135509  39.188   7.229   9.227
 2499POPC   GL235510  39.190   7.610   9.150
 2499POPC   C1A35511  39.319   7.216   8.844
 2499POPC   D2A35512  39.179   7.419   8.512
 2499POPC   C3A35513  39.236   7.222   8.142
 2499POPC   C4A35514  39.440   7.279   7.758
 2499POPC   C1B35515  39.494   7.702   8.815
 2499POPC   C2B35516  39.670   7.694   8.451
 2499POPC   C3B35517  39.448   7.687   8.071
 2499POPC   C4B35518  39.162   7.827   7.752
 2500POPC   NC335519  35.516  23.256   9.521
 2500POPC   PO435520  34.994  22.722   9.492
 2500POPC   GL135521  35.202  22.930   9.164
 2500POPC   GL235522  35.518  23.076   9.050
 2500POPC   C1A35523  35.089  22.931   8.743
 2500POPC   D2A35524  34.956  23.161   8.381
 2500POPC   C3A35525  35.062  22.937   8.011
 2500POPC   C4A35526  35.402  22.836   7.779
 2500POPC   C1B35527  35.508  23.229   8.647
 2500POPC   C2B35528  35.564  23.077   8.229
 2500POPC   C3B35529  35.667  23.259   7.843
 2500POPC   C4B35530  35.657  23.611   7.574
 2501POPC   NC335531  35.377  31.978   9.476
 2501POPC   PO435532  35.504  31.273   9.494
 2501POPC   GL135533  35.433  31.377   9.077
 2501POPC   GL235534  35.469  31.735   9.001
 2501POPC   C1A35535  35.286  31.100   8.771
 2501POPC   D2A35536  35.190  31.044   8.353
 2501POPC   C3A35537  35.293  31.397   8.108
 2501POPC   C4A35538  35.085  31.624   7.805
 2501POPC   C1B35539  35.191  31.597   8.639
 2501POPC   C2B35540  35.106  31.840   8.280
 2501POPC   C3B35541  35.486  31.899   8.029
 2501POPC   C4B35542  35.677  32.110   7.679
 2502POPC   NC335543  42.977  43.623   9.399
 2502POPC   PO435544  42.968  43.044   9.773
 2502POPC   GL135545  43.178  43.041   9.320
 2502POPC   GL235546  43.333  43.300   9.235
 2502POPC   C1A35547  43.052  43.028   8.855
 2502POPC   D2A35548  43.236  43.064   8.434
 2502POPC   C3A35549  43.033  43.136   8.062
 2502POPC   C4A35550  43.105  43.187   7.649
 2502POPC   C1B35551  43.550  43.155   8.835
 2502POPC   C2B35552  43.660  43.322   8.419
 2502POPC   C3B35553  43.566  43.210   7.975
 2502POPC   C4B35554  43.575  43.391   7.540
 2503POPC   NC335555  37.167  18.666   9.693
 2503POPC   PO435556  37.079  17.995   9.535
 2503POPC   GL135557  36.837  18.240   9.280
 2503POPC   GL235558  37.059  18.498   9.217
 2503POPC   C1A35559  36.739  18.295   8.858
 2503POPC   D2A35560  36.886  18.377   8.462
 2503POPC   C3A35561  36.752  18.149   8.113
 2503POPC   C4A35562  36.864  18.164   7.684
 2503POPC   C1B35563  37.217  18.599   8.819
 2503POPC   C2B35564  37.328  18.634   8.394
 2503POPC   C3B35565  37.150  18.491   8.024
 2503POPC   C4B35566  37.245  18.532   7.618
 2504POPC   NC335567   7.546  39.778   9.618
 2504POPC   PO435568   7.742  40.414   9.359
 2504POPC   GL135569   7.528  40.045   9.159
 2504POPC   GL235570   7.353  39.708   9.148
 2504POPC   C1A35571   7.284  40.043   8.780
 2504POPC   D2A35572   7.388  39.828   8.439
 2504POPC   C3A35573   7.423  40.014   8.037
 2504POPC   C4A35574   7.424  39.873   7.598
 2504POPC   C1B35575   7.045  39.582   8.800
 2504POPC   C2B35576   6.996  39.532   8.327
 2504POPC   C3B35577   7.014  39.703   7.882
 2504POPC   C4B35578   6.936  39.781   7.400
 2505POPC   NC335579   4.381  40.787   9.447
 2505POPC   PO435580   3.778  41.085   9.541
 2505POPC   GL135581   3.966  40.935   9.146
 2505POPC   GL235582   4.281  41.080   9.062
 2505POPC   C1A35583   4.141  40.595   8.861
 2505POPC   D2A35584   4.298  40.407   8.470
 2505POPC   C3A35585   4.247  40.653   8.070
 2505POPC   C4A35586   3.901  40.929   7.906
 2505POPC   C1B35587   4.515  40.934   8.743
 2505POPC   C2B35588   4.540  41.071   8.336
 2505POPC   C3B35589   4.705  40.973   7.944
 2505POPC   C4B35590   4.623  41.014   7.545
 2506POPC   NC335591  38.818  30.430   9.874
 2506POPC   PO435592  38.935  30.848   9.355
 2506POPC   GL135593  39.218  30.749   9.065
 2506POPC   GL235594  39.332  30.477   9.132
 2506POPC   C1A35595  39.211  30.585   8.661
 2506POPC   D2A35596  39.279  30.760   8.267
 2506POPC   C3A35597  39.107  30.586   7.889
 2506POPC   C4A35598  39.034  30.856   7.548
 2506POPC   C1B35599  39.518  30.199   8.819
 2506POPC   C2B35600  39.571  30.314   8.387
 2506POPC   C3B35601  39.636  30.461   8.000
 2506POPC   C4B35602  39.636  30.231   7.642
 2507POPC   NC335603  34.040  27.780   9.569
 2507POPC   PO435604  33.455  27.434   9.647
 2507POPC   GL135605  33.665  27.476   9.238
 2507POPC   GL235606  33.927  27.671   9.094
 2507POPC   C1A35607  33.550  27.483   8.786
 2507POPC   D2A35608  33.427  27.720   8.385
 2507POPC   C3A35609  33.551  27.490   8.008
 2507POPC   C4A35610  33.914  27.510   7.742
 2507POPC   C1B35611  34.173  27.746   8.744
 2507POPC   C2B35612  34.182  27.604   8.333
 2507POPC   C3B35613  34.299  27.764   7.966
 2507POPC   C4B35614  34.133  28.019   7.652
 2508POPC   NC335615  12.432  37.725   9.455
 2508POPC   PO435616  12.861  38.153   9.466
 2508POPC   GL135617  12.977  37.852   9.163
 2508POPC   GL235618  12.908  37.490   9.226
 2508POPC   C1A35619  12.823  37.759   8.769
 2508POPC   D2A35620  12.690  37.835   8.383
 2508POPC   C3A35621  12.908  37.800   8.014
 2508POPC   C4A35622  12.744  37.814   7.623
 2508POPC   C1B35623  13.043  37.308   8.809
 2508POPC   C2B35624  12.812  37.287   8.377
 2508POPC   C3B35625  12.715  37.332   7.930
 2508POPC   C4B35626  12.978  37.366   7.566
 2509POPC   NC335627   6.838  17.734   9.497
 2509POPC   PO435628   6.304  17.912   9.711
 2509POPC   GL135629   6.466  17.739   9.187
 2509POPC   GL235630   6.608  17.375   9.165
 2509POPC   C1A35631   6.490  17.671   8.739
 2509POPC   D2A35632   6.769  17.428   8.465
 2509POPC   C3A35633   6.732  17.585   8.039
 2509POPC   C4A35634   6.373  17.616   7.798
 2509POPC   C1B35635   6.447  17.158   8.775
 2509POPC   C2B35636   6.276  17.291   8.387
 2509POPC   C3B35637   6.421  17.128   7.998
 2509POPC   C4B35638   6.842  17.101   7.841
 2510POPC   NC335639  15.842   9.220   9.456
 2510POPC   PO435640  16.230   8.804   9.275
 2510POPC   GL135641  15.918   8.956   9.026
 2510POPC   GL235642  15.672   8.755   8.934
 2510POPC   C1A35643  15.813   9.282   8.729
 2510POPC   D2A35644  15.651   9.500   8.316
 2510POPC   C3A35645  15.797   9.232   7.974
 2510POPC   C4A35646  16.170   9.108   7.734
 2510POPC   C1B35647  15.926   8.789   8.552
 2510POPC   C2B35648  16.025   8.804   8.139
 2510POPC   C3B35649  16.143   8.589   7.761
 2510POPC   C4B35650  16.142   8.714   7.308
 2511POPC   NC335651  12.090  30.450   9.515
 2511POPC   PO435652  11.685  30.875   9.550
 2511POPC   GL135653  11.876  30.795   9.167
 2511POPC   GL235654  12.221  30.785   9.152
 2511POPC   C1A35655  11.833  30.613   8.764
 2511POPC   D2A35656  12.030  30.651   8.384
 2511POPC   C3A35657  11.896  30.455   8.039
 2511POPC   C4A35658  11.812  30.607   7.684
 2511POPC   C1B35659  12.388  30.731   8.748
 2511POPC   C2B35660  12.564  30.742   8.341
 2511POPC   C3B35661  12.543  30.861   7.925
 2511POPC   C4B35662  12.412  30.592   7.642
 2512POPC   NC335663   0.420  10.207   9.499
 2512POPC   PO435664   0.818  10.707   9.494
 2512POPC   GL135665   0.627  10.549   9.135
 2512POPC   GL235666   0.285  10.468   9.085
 2512POPC   C1A35667   0.686  10.405   8.717
 2512POPC   D2A35668   0.505  10.693   8.402
 2512POPC   C3A35669   0.539  10.504   8.040
 2512POPC   C4A35670   0.217  10.513   7.823
 2512POPC   C1B35671   0.181  10.404   8.671
 2512POPC   C2B35672  44.880  10.196   8.439
 2512POPC   C3B35673  44.842  10.198   8.011
 2512POPC   C4B35674  44.904  10.218   7.563
 2513POPC   NC335675  43.539  32.397   9.468
 2513POPC   PO435676  43.008  32.027   9.476
 2513POPC   GL135677  43.237  32.178   9.118
 2513POPC   GL235678  43.551  31.991   9.088
 2513POPC   C1A35679  43.143  32.363   8.706
 2513POPC   D2A35680  42.823  32.333   8.380
 2513POPC   C3A35681  42.901  32.458   7.932
 2513POPC   C4A35682  43.023  32.548   7.490
 2513POPC   C1B35683  43.666  32.289   8.811
 2513POPC   C2B35684  43.576  32.317   8.415
 2513POPC   C3B35685  43.275  32.147   8.139
 2513POPC   C4B35686  43.427  32.298   7.748
 2514POPC   NC335687  21.095   4.899   9.636
 2514POPC   PO435688  21.616   5.372   9.611
 2514POPC   GL135689  21.538   5.244   9.231
 2514POPC   GL235690  21.203   5.268   9.234
 2514POPC   C1A35691  21.439   5.408   8.802
 2514POPC   D2A35692  21.676   5.432   8.453
 2514POPC   C3A35693  21.532   5.303   8.005
 2514POPC   C4A35694  21.595   5.370   7.523
 2514POPC   C1B35695  21.345   4.918   8.913
 2514POPC   C2B35696  21.276   4.814   8.501
 2514POPC   C3B35697  21.272   4.880   8.084
 2514POPC   C4B35698  21.248   4.994   7.635
 2515POPC   NC335699  43.466  12.992   9.461
 2515POPC   PO435700  44.128  12.710   9.605
 2515POPC   GL135701  44.020  12.702   9.176
 2515POPC   GL235702  43.669  12.773   9.053
 2515POPC   C1A35703  44.076  12.820   8.738
 2515POPC   D2A35704  43.819  12.978   8.378
 2515POPC   C3A35705  43.784  12.773   7.981
 2515POPC   C4A35706  44.116  12.703   7.704
 2515POPC   C1B35707  43.491  13.125   8.777
 2515POPC   C2B35708  43.359  13.208   8.326
 2515POPC   C3B35709  43.553  13.235   7.893
 2515POPC   C4B35710  43.736  13.030   7.508
 2516POPC   NC335711   9.748  31.299   9.546
 2516POPC   PO435712   9.724  32.000   9.621
 2516POPC   GL135713   9.833  31.714   9.233
 2516POPC   GL235714   9.722  31.378   9.062
 2516POPC   C1A35715   9.689  31.757   8.772
 2516POPC   D2A35716   9.526  31.565   8.418
 2516POPC   C3A35717   9.757  31.550   8.037
 2516POPC   C4A35718   9.667  31.716   7.624
 2516POPC   C1B35719   9.999  31.238   8.727
 2516POPC   C2B35720  10.161  31.348   8.306
 2516POPC   C3B35721  10.161  31.256   7.864
 2516POPC   C4B35722   9.830  31.235   7.537
 2517POPC   NC335723  24.529  27.572   9.557
 2517POPC   PO435724  24.038  28.004   9.746
 2517POPC   GL135725  24.252  27.908   9.296
 2517POPC   GL235726  24.138  27.570   9.195
 2517POPC   C1A35727  24.411  27.837   8.855
 2517POPC   D2A35728  24.232  27.697   8.457
 2517POPC   C3A35729  24.444  27.641   8.015
 2517POPC   C4A35730  24.539  27.937   7.645
 2517POPC   C1B35731  24.336  27.334   8.834
 2517POPC   C2B35732  24.528  27.258   8.409
 2517POPC   C3B35733  24.321  27.127   8.031
 2517POPC   C4B35734  24.176  27.304   7.638
 2518POPC   NC335735  23.268  40.016   9.510
 2518POPC   PO435736  23.857  40.308   9.642
 2518POPC   GL135737  23.684  40.225   9.229
 2518POPC   GL235738  23.678  39.892   9.238
 2518POPC   C1A35739  23.482  40.133   8.803
 2518POPC   D2A35740  23.454  40.380   8.420
 2518POPC   C3A35741  23.536  40.131   8.041
 2518POPC   C4A35742  23.856  40.162   7.720
 2518POPC   C1B35743  23.909  39.851   8.856
 2518POPC   C2B35744  23.739  39.823   8.431
 2518POPC   C3B35745  23.863  39.711   8.012
 2518POPC   C4B35746  23.667  39.560   7.649
 2519POPC   NC335747   8.260   1.799   9.984
 2519POPC   PO435748   7.983   2.251   9.521
 2519POPC   GL135749   8.286   2.059   9.192
 2519POPC   GL235750   8.361   1.750   9.368
 2519POPC   C1A35751   8.229   2.061   8.731
 2519POPC   D2A35752   8.028   1.872   8.350
 2519POPC   C3A35753   8.056   2.086   7.965
 2519POPC   C4A35754   8.354   2.203   7.627
 2519POPC   C1B35755   8.374   1.609   8.917
 2519POPC   C2B35756   8.490   1.698   8.464
 2519POPC   C3B35757   8.492   1.841   8.054
 2519POPC   C4B35758   8.364   1.694   7.699
 2520POPC   NC335759   2.513  29.410   9.389
 2520POPC   PO435760   2.425  30.049   9.450
 2520POPC   GL135761   2.757  30.029   9.157
 2520POPC   GL235762   2.872  29.690   9.156
 2520POPC   C1A35763   2.976  30.157   8.791
 2520POPC   D2A35764   3.252  30.173   8.435
 2520POPC   C3A35765   3.055  30.271   8.043
 2520POPC   C4A35766   2.978  30.138   7.643
 2520POPC   C1B35767   2.658  29.742   8.743
 2520POPC   C2B35768   2.804  29.915   8.357
 2520POPC   C3B35769   2.877  29.747   7.959
 2520POPC   C4B35770   2.637  29.615   7.593
 2521POPC   NC335771   5.900   9.434   9.447
 2521POPC   PO435772   6.302   9.954   9.462
 2521POPC   GL135773   5.911   9.986   9.209
 2521POPC   GL235774   5.773   9.689   9.024
 2521POPC   C1A35775   5.906  10.109   8.779
 2521POPC   D2A35776   5.835   9.796   8.434
 2521POPC   C3A35777   5.867   9.898   7.998
 2521POPC   C4A35778   6.248   9.840   7.744
 2521POPC   C1B35779   6.109   9.523   8.757
 2521POPC   C2B35780   6.209   9.489   8.272
 2521POPC   C3B35781   5.992   9.403   7.856
 2521POPC   C4B35782   5.916   9.576   7.448
 2522POPC   NC335783  33.305  27.107   9.943
 2522POPC   PO435784  33.020  26.626   9.470
 2522POPC   GL135785  33.092  26.704   9.096
 2522POPC   GL235786  32.799  26.593   8.988
 2522POPC   C1A35787  33.162  27.009   8.781
 2522POPC   D2A35788  33.276  27.221   8.424
 2522POPC   C3A35789  33.303  26.863   8.197
 2522POPC   C4A35790  33.341  26.782   7.789
 2522POPC   C1B35791  32.652  26.930   8.757
 2522POPC   C2B35792  32.782  27.088   8.371
 2522POPC   C3B35793  32.597  27.016   8.025
 2522POPC   C4B35794  32.749  26.803   7.749
 2523POPC   NC335795  22.255  30.903   9.776
 2523POPC   PO435796  21.764  30.625   9.377
 2523POPC   GL135797  22.072  30.651   9.115
 2523POPC   GL235798  22.334  30.856   9.226
 2523POPC   C1A35799  22.081  30.566   8.700
 2523POPC   D2A35800  22.029  30.810   8.357
 2523POPC   C3A35801  22.191  30.742   7.953
 2523POPC   C4A35802  21.781  30.767   7.869
 2523POPC   C1B35803  22.284  31.042   8.752
 2523POPC   C2B35804  22.240  31.265   8.293
 2523POPC   C3B35805  22.259  31.226   7.806
 2523POPC   C4B35806  22.518  30.999   7.522
 2524POPC   NC335807  34.889  37.831   9.744
 2524POPC   PO435808  34.282  37.599   9.546
 2524POPC   GL135809  34.469  37.475   9.182
 2524POPC   GL235810  34.785  37.578   9.213
 2524POPC   C1A35811  34.406  37.582   8.761
 2524POPC   D2A35812  34.186  37.649   8.375
 2524POPC   C3A35813  34.296  37.286   8.133
 2524POPC   C4A35814  34.646  37.131   7.879
 2524POPC   C1B35815  34.919  37.485   8.771
 2524POPC   C2B35816  34.732  37.404   8.372
 2524POPC   C3B35817  34.631  37.660   8.005
 2524POPC   C4B35818  34.839  37.766   7.613
 2525POPC   NC335819  28.528  23.659   9.461
 2525POPC   PO435820  27.967  24.110   9.597
 2525POPC   GL135821  28.170  23.925   9.191
 2525POPC   GL235822  28.476  24.070   9.043
 2525POPC   C1A35823  28.265  23.631   8.833
 2525POPC   D2A35824  28.508  23.557   8.447
 2525POPC   C3A35825  28.248  23.719   8.094
 2525POPC   C4A35826  27.979  23.434   7.864
 2525POPC   C1B35827  28.478  24.055   8.583
 2525POPC   C2B35828  28.687  23.964   8.182
 2525POPC   C3B35829  28.688  23.936   7.734
 2525POPC   C4B35830  28.861  23.855   7.316
 2526POPC   NC335831  34.808   3.472   9.804
 2526POPC   PO435832  34.370   3.873   9.770
 2526POPC   GL135833  34.551   3.681   9.308
 2526POPC   GL235834  34.838   3.447   9.313
 2526POPC   C1A35835  34.453   3.626   8.812
 2526POPC   D2A35836  34.219   3.392   8.439
 2526POPC   C3A35837  34.244   3.511   7.966
 2526POPC   C4A35838  34.572   3.405   7.657
 2526POPC   C1B35839  34.952   3.494   8.923
 2526POPC   C2B35840  34.948   3.408   8.515
 2526POPC   C3B35841  34.704   3.531   8.189
 2526POPC   C4B35842  34.929   3.695   7.869
 2527POPC   NC335843  13.078   3.326   9.687
 2527POPC   PO435844  12.778   3.746   9.439
 2527POPC   GL135845  12.905   3.407   9.164
 2527POPC   GL235846  12.617   3.324   8.992
 2527POPC   C1A35847  13.035   3.215   8.728
 2527POPC   D2A35848  12.911   3.328   8.284
 2527POPC   C3A35849  13.168   3.277   7.909
 2527POPC   C4A35850  13.108   3.513   7.486
 2527POPC   C1B35851  12.468   3.719   8.809
 2527POPC   C2B35852  12.425   3.893   8.402
 2527POPC   C3B35853  12.648   3.831   8.019
 2527POPC   C4B35854  12.692   3.435   7.812
 2528POPC   NC335855   2.091   8.877   9.513
 2528POPC   PO435856   1.933   9.558   9.603
 2528POPC   GL135857   1.887   9.304   9.214
 2528POPC   GL235858   1.710   8.966   9.195
 2528POPC   C1A35859   1.918   9.263   8.755
 2528POPC   D2A35860   2.066   9.018   8.390
 2528POPC   C3A35861   2.124   9.140   7.973
 2528POPC   C4A35862   1.796   9.217   7.690
 2528POPC   C1B35863   1.931   8.752   8.850
 2528POPC   C2B35864   1.809   8.587   8.431
 2528POPC   C3B35865   1.752   8.770   8.022
 2528POPC   C4B35866   1.868   8.712   7.625
 2529POPC   NC335867  44.202   3.401   9.428
 2529POPC   PO435868  43.624   3.727   9.579
 2529POPC   GL135869  43.736   3.466   9.217
 2529POPC   GL235870  43.793   3.772   9.082
 2529POPC   C1A35871  43.960   3.356   8.827
 2529POPC   D2A35872  43.859   3.467   8.417
 2529POPC   C3A35873  43.992   3.273   8.059
 2529POPC   C4A35874  44.090   3.550   7.754
 2529POPC   C1B35875  43.536   3.680   8.751
 2529POPC   C2B35876  43.531   3.899   8.378
 2529POPC   C3B35877  43.674   3.729   8.012
 2529POPC   C4B35878  43.561   3.504   7.703
 2530POPC   NC335879   2.921   0.132   9.510
 2530POPC   PO435880   2.330   0.495   9.474
 2530POPC   GL135881   2.587   0.338   9.132
 2530POPC   GL235882   2.936   0.421   9.077
 2530POPC   C1A35883   2.550   0.489   8.706
 2530POPC   D2A35884   2.382   0.387   8.312
 2530POPC   C3A35885   2.433   0.577   7.894
 2530POPC   C4A35886   2.658   0.552   7.495
 2530POPC   C1B35887   3.078   0.453   8.683
 2530POPC   C2B35888   2.866   0.230   8.371
 2530POPC   C3B35889   2.772   0.209   7.962
 2530POPC   C4B35890   3.082   0.296   7.684
 2531POPC   NC335891  19.723   9.091   9.705
 2531POPC   PO435892  20.217   8.768   9.646
 2531POPC   GL135893  20.095   8.982   9.248
 2531POPC   GL235894  19.785   9.159   9.151
 2531POPC   C1A35895  20.135   8.899   8.790
 2531POPC   D2A35896  20.300   8.863   8.335
 2531POPC   C3A35897  19.971   8.929   7.982
 2531POPC   C4A35898  19.773   8.959   7.541
 2531POPC   C1B35899  19.601   9.445   8.789
 2531POPC   C2B35900  19.443   9.464   8.314
 2531POPC   C3B35901  19.477   9.161   7.928
 2531POPC   C4B35902  19.266   9.029   7.524
 2532POPC   NC335903  14.665  44.160   9.680
 2532POPC   PO435904  14.000  44.024   9.647
 2532POPC   GL135905  14.310  44.032   9.301
 2532POPC   GL235906  14.282  43.707   9.183
 2532POPC   C1A35907  14.640  44.024   8.955
 2532POPC   D2A35908  14.670  43.798   8.542
 2532POPC   C3A35909  14.548  44.018   8.156
 2532POPC   C4A35910  14.667  44.090   7.714
 2532POPC   C1B35911  14.121  43.925   8.813
 2532POPC   C2B35912  13.957  43.851   8.408
 2532POPC   C3B35913  14.030  43.957   8.013
 2532POPC   C4B35914  14.172  44.139   7.647
 2533POPC   NC335915  15.859  14.283   9.494
 2533POPC   PO435916  15.605  14.979   9.699
 2533POPC   GL135917  15.829  14.760   9.314
 2533POPC   GL235918  15.638  14.540   9.094
 2533POPC   C1A35919  16.070  14.691   8.893
 2533POPC   D2A35920  15.813  14.567   8.523
 2533POPC   C3A35921  16.020  14.618   8.114
 2533POPC   C4A35922  15.817  14.588   7.717
 2533POPC   C1B35923  15.922  14.211   8.864
 2533POPC   C2B35924  15.888  14.066   8.445
 2533POPC   C3B35925  15.835  14.157   8.005
 2533POPC   C4B35926  16.155  14.117   7.683
 2534POPC   NC335927  17.903  43.042   9.453
 2534POPC   PO435928  17.247  42.940   9.571
 2534POPC   GL135929  17.293  43.143   9.197
 2534POPC   GL235930  17.111  42.964   8.952
 2534POPC   C1A35931  17.552  43.293   8.855
 2534POPC   D2A35932  17.400  43.277   8.440
 2534POPC   C3A35933  17.645  43.317   8.107
 2534POPC   C4A35934  17.477  43.142   7.730
 2534POPC   C1B35935  17.190  42.813   8.497
 2534POPC   C2B35936  17.103  42.927   8.063
 2534POPC   C3B35937  17.061  42.866   7.597
 2534POPC   C4B35938  17.023  43.034   7.146
 2535POPC   NC335939  11.559  43.113   9.739
 2535POPC   PO435940  11.086  42.720   9.520
 2535POPC   GL135941  11.189  43.043   9.205
 2535POPC   GL235942  11.149  43.408   9.341
 2535POPC   C1A35943  11.216  43.036   8.746
 2535POPC   D2A35944  11.474  43.066   8.389
 2535POPC   C3A35945  11.340  42.901   7.978
 2535POPC   C4A35946  11.674  42.795   7.683
 2535POPC   C1B35947  11.089  43.504   8.893
 2535POPC   C2B35948  11.085  43.425   8.439
 2535POPC   C3B35949  11.323  43.418   8.059
 2535POPC   C4B35950  11.499  43.291   7.649
 2536POPC   NC335951  33.789  37.577   9.525
 2536POPC   PO435952  33.648  38.271   9.402
 2536POPC   GL135953  33.645  37.885   9.154
 2536POPC   GL235954  33.999  37.712   9.077
 2536POPC   C1A35955  33.549  37.539   8.851
 2536POPC   D2A35956  33.662  37.564   8.411
 2536POPC   C3A35957  33.522  37.920   8.216
 2536POPC   C4A35958  33.563  37.801   7.806
 2536POPC   C1B35959  33.846  37.937   8.705
 2536POPC   C2B35960  33.929  38.199   8.379
 2536POPC   C3B35961  34.024  37.994   8.014
 2536POPC   C4B35962  34.031  37.607   7.853
 2537POPC   NC335963  33.690  42.281   9.402
 2537POPC   PO435964  34.226  42.424   9.680
 2537POPC   GL135965  34.165  42.449   9.185
 2537POPC   GL235966  34.096  42.117   9.044
 2537POPC   C1A35967  33.933  42.485   8.756
 2537POPC   D2A35968  33.579  42.398   8.488
 2537POPC   C3A35969  33.646  42.370   8.028
 2537POPC   C4A35970  33.788  42.613   7.673
 2537POPC   C1B35971  33.860  41.973   8.709
 2537POPC   C2B35972  34.030  42.118   8.336
 2537POPC   C3B35973  34.050  41.947   7.938
 2537POPC   C4B35974  33.940  42.129   7.570
 2538POPC   NC335975  14.519   0.810   9.509
 2538POPC   PO435976  14.265   1.466   9.537
 2538POPC   GL135977  14.394   1.294   9.124
 2538POPC   GL235978  14.327   0.959   9.066
 2538POPC   C1A35979  14.579   1.328   8.709
 2538POPC   D2A35980  14.481   1.680   8.403
 2538POPC   C3A35981  14.521   1.577   7.992
 2538POPC   C4A35982  14.537   1.208   7.802
 2538POPC   C1B35983  14.183   1.001   8.664
 2538POPC   C2B35984  14.334   0.848   8.269
 2538POPC   C3B35985  14.155   0.895   7.875
 2538POPC   C4B35986  14.045   1.327   7.732
 2539POPC   NC335987  30.659  37.587   9.699
 2539POPC   PO435988  31.097  38.070   9.620
 2539POPC   GL135989  30.860  37.833   9.291
 2539POPC   GL235990  30.841  37.439   9.232
 2539POPC   C1A35991  30.877  37.756   8.868
 2539POPC   D2A35992  30.704  37.754   8.505
 2539POPC   C3A35993  30.871  37.494   8.174
 2539POPC   C4A35994  30.847  37.536   7.715
 2539POPC   C1B35995  30.685  37.307   8.777
 2539POPC   C2B35996  30.407  37.360   8.399
 2539POPC   C3B35997  30.401  37.486   7.985
 2539POPC   C4B35998  30.273  37.290   7.643
 2540POPC   NC335999  35.498  20.514   9.352
 2540POPC   PO436000  35.013  20.947   9.356
 2540POPC   GL136001  35.148  20.699   9.026
 2540POPC   GL236002  35.045  20.345   9.082
 2540POPC   C1A36003  35.277  20.697   8.619
 2540POPC   D2A36004  35.285  20.593   8.215
 2540POPC   C3A36005  35.426  20.834   7.905
 2540POPC   C4A36006  35.358  20.731   7.487
 2540POPC   C1B36007  35.357  20.207   8.766
 2540POPC   C2B36008  35.595  20.201   8.376
 2540POPC   C3B36009  35.556  20.268   7.929
 2540POPC   C4B36010  35.836  20.346   7.567
 2541POPC   NC336011  17.830  11.077   9.515
 2541POPC   PO436012  17.158  11.305   9.655
 2541POPC   GL136013  17.444  11.337   9.303
 2541POPC   GL236014  17.232  11.187   9.094
 2541POPC   C1A36015  17.602  11.591   8.956
 2541POPC   D2A36016  17.799  11.610   8.553
 2541POPC   C3A36017  17.639  11.692   8.146
 2541POPC   C4A36018  17.490  11.464   7.808
 2541POPC   C1B36019  17.439  11.155   8.670
 2541POPC   C2B36020  17.655  11.170   8.243
 2541POPC   C3B36021  17.601  10.923   7.841
 2541POPC   C4B36022  17.517  10.645   7.482
 2542POPC   NC336023  29.427  22.246   9.588
 2542POPC   PO436024  28.739  22.418   9.357
 2542POPC   GL136025  28.844  22.152   9.059
 2542POPC   GL236026  29.182  22.111   9.160
 2542POPC   C1A36027  29.093  22.327   8.717
 2542POPC   D2A36028  29.330  22.217   8.380
 2542POPC   C3A36029  29.071  22.144   8.031
 2542POPC   C4A36030  29.062  22.448   7.692
 2542POPC   C1B36031  29.465  21.959   8.822
 2542POPC   C2B36032  29.473  21.718   8.406
 2542POPC   C3B36033  29.572  21.949   8.010
 2542POPC   C4B36034  29.370  22.045   7.640
 2543POPC   NC336035  25.297  36.465   9.301
 2543POPC   PO436036  25.589  35.917   9.556
 2543POPC   GL136037  25.443  35.980   9.131
 2543POPC   GL236038  25.097  35.948   9.074
 2543POPC   C1A36039  25.522  36.021   8.690
 2543POPC   D2A36040  25.484  35.832   8.266
 2543POPC   C3A36041  25.449  36.072   7.879
 2543POPC   C4A36042  25.517  36.530   7.869
 2543POPC   C1B36043  25.028  36.160   8.682
 2543POPC   C2B36044  25.156  36.270   8.271
 2543POPC   C3B36045  24.912  36.180   7.924
 2543POPC   C4B36046  24.973  35.897   7.621
 2544POPC   NC336047  10.470  23.953   9.497
 2544POPC   PO436048  10.337  23.283   9.493
 2544POPC   GL136049  10.439  23.548   9.138
 2544POPC   GL236050  10.235  23.863   9.064
 2544POPC   C1A36051  10.716  23.645   8.796
 2544POPC   D2A36052  10.648  23.935   8.460
 2544POPC   C3A36053  10.760  23.826   8.052
 2544POPC   C4A36054  10.694  23.985   7.646
 2544POPC   C1B36055  10.207  23.688   8.660
 2544POPC   C2B36056  10.267  23.654   8.225
 2544POPC   C3B36057  10.246  23.837   7.831
 2544POPC   C4B36058  10.268  23.912   7.370
 2545POPC   NC336059  28.482  17.595   9.537
 2545POPC   PO436060  27.870  17.732   9.587
 2545POPC   GL136061  28.139  17.561   9.162
 2545POPC   GL236062  28.498  17.344   9.121
 2545POPC   C1A36063  28.278  17.437   8.704
 2545POPC   D2A36064  28.473  17.645   8.321
 2545POPC   C3A36065  28.291  17.682   7.886
 2545POPC   C4A36066  28.442  17.882   7.499
 2545POPC   C1B36067  28.688  17.155   8.750
 2545POPC   C2B36068  28.824  17.271   8.329
 2545POPC   C3B36069  28.603  17.281   7.947
 2545POPC   C4B36070  28.744  17.108   7.593
 2546POPC   NC336071  22.278  22.558   9.571
 2546POPC   PO436072  21.887  23.177   9.457
 2546POPC   GL136073  22.188  23.090   9.159
 2546POPC   GL236074  22.133  22.764   9.136
 2546POPC   C1A36075  22.464  23.186   8.831
 2546POPC   D2A36076  22.408  23.285   8.397
 2546POPC   C3A36077  22.291  22.941   8.127
 2546POPC   C4A36078  22.247  22.922   7.678
 2546POPC   C1B36079  22.095  22.818   8.701
 2546POPC   C2B36080  21.876  22.714   8.321
 2546POPC   C3B36081  21.890  22.629   7.908
 2546POPC   C4B36082  21.767  22.854   7.539
 2547POPC   NC336083  29.094   7.950   9.477
 2547POPC   PO436084  29.087   8.648   9.444
 2547POPC   GL136085  29.195   8.278   9.115
 2547POPC   GL236086  29.373   7.906   9.073
 2547POPC   C1A36087  28.962   8.151   8.732
 2547POPC   D2A36088  28.705   8.281   8.362
 2547POPC   C3A36089  28.926   8.148   8.002
 2547POPC   C4A36090  29.201   8.284   7.673
 2547POPC   C1B36091  29.494   8.012   8.710
 2547POPC   C2B36092  29.311   8.053   8.346
 2547POPC   C3B36093  29.357   7.874   7.971
 2547POPC   C4B36094  29.571   7.937   7.604
 2548POPC   NC336095  13.454  40.529   9.649
 2548POPC   PO436096  13.715  41.148   9.619
 2548POPC   GL136097  13.530  40.916   9.277
 2548POPC   GL236098  13.707  40.600   9.194
 2548POPC   C1A36099  13.505  40.912   8.817
 2548POPC   D2A36100  13.491  41.168   8.460
 2548POPC   C3A36101  13.563  40.998   8.053
 2548POPC   C4A36102  13.943  40.987   7.894
 2548POPC   C1B36103  13.323  40.456   8.954
 2548POPC   C2B36104  13.248  40.340   8.544
 2548POPC   C3B36105  13.588  40.448   8.283
 2548POPC   C4B36106  13.703  40.519   7.860
 2549POPC   NC336107  38.064  28.715   9.438
 2549POPC   PO436108  37.342  28.592   9.515
 2549POPC   GL136109  37.646  28.377   9.235
 2549POPC   GL236110  37.373  28.377   9.036
 2549POPC   C1A36111  37.844  28.546   8.832
 2549POPC   D2A36112  37.788  28.782   8.443
 2549POPC   C3A36113  37.852  28.527   8.062
 2549POPC   C4A36114  37.783  28.430   7.640
 2549POPC   C1B36115  37.588  28.129   8.752
 2549POPC   C2B36116  37.818  28.134   8.397
 2549POPC   C3B36117  37.754  27.994   7.983
 2549POPC   C4B36118  37.513  27.869   7.639
 2550POPC   NC336119  27.444  40.298   9.454
 2550POPC   PO436120  27.750  40.859   9.599
 2550POPC   GL136121  27.684  40.960   9.179
 2550POPC   GL236122  27.429  40.734   9.184
 2550POPC   C1A36123  27.581  40.933   8.750
 2550POPC   D2A36124  27.708  40.822   8.355
 2550POPC   C3A36125  27.835  41.103   8.023
 2550POPC   C4A36126  27.588  41.055   7.645
 2550POPC   C1B36127  27.237  40.478   8.855
 2550POPC   C2B36128  27.221  40.540   8.431
 2550POPC   C3B36129  27.281  40.743   8.048
 2550POPC   C4B36130  27.416  40.560   7.664
 2551POPC   NC336131  30.994  24.989   9.259
 2551POPC   PO436132  30.571  25.487   9.421
 2551POPC   GL136133  30.781  25.409   9.078
 2551POPC   GL236134  30.559  25.136   9.029
 2551POPC   C1A36135  30.933  25.265   8.680
 2551POPC   D2A36136  30.852  25.032   8.318
 2551POPC   C3A36137  30.624  25.268   8.054
 2551POPC   C4A36138  30.815  25.170   7.698
 2551POPC   C1B36139  30.231  25.049   8.765
 2551POPC   C2B36140  30.279  24.991   8.342
 2551POPC   C3B36141  30.160  25.091   7.919
 2551POPC   C4B36142  30.382  24.940   7.563
 2552POPC   NC336143   5.511  33.505   9.550
 2552POPC   PO436144   6.020  33.883   9.461
 2552POPC   GL136145   5.937  33.775   9.064
 2552POPC   GL236146   5.765  33.479   9.081
 2552POPC   C1A36147   5.932  33.924   8.643
 2552POPC   D2A36148   5.955  33.599   8.304
 2552POPC   C3A36149   6.305  33.522   7.981
 2552POPC   C4A36150   5.978  33.586   7.708
 2552POPC   C1B36151   5.511  33.671   8.779
 2552POPC   C2B36152   5.477  33.803   8.392
 2552POPC   C3B36153   5.769  34.044   8.156
 2552POPC   C4B36154   5.802  34.059   7.725
 2553POPC   NC336155  10.737   2.085   9.664
 2553POPC   PO436156  10.189   1.717   9.470
 2553POPC   GL136157  10.482   1.982   9.231
 2553POPC   GL236158  10.229   1.957   8.994
 2553POPC   C1A36159  10.685   2.109   8.809
 2553POPC   D2A36160  10.407   1.921   8.500
 2553POPC   C3A36161  10.443   1.910   8.068
 2553POPC   C4A36162  10.458   1.937   7.631
 2553POPC   C1B36163  10.100   1.595   8.726
 2553POPC   C2B36164  10.166   1.527   8.268
 2553POPC   C3B36165  10.065   1.646   7.836
 2553POPC   C4B36166  10.226   1.458   7.470
 2554POPC   NC336167  43.348  38.825   9.712
 2554POPC   PO436168  42.789  38.743   9.549
 2554POPC   GL136169  43.123  38.816   9.223
 2554POPC   GL236170  43.494  38.883   9.201
 2554POPC   C1A36171  43.148  38.923   8.772
 2554POPC   D2A36172  43.261  38.670   8.405
 2554POPC   C3A36173  42.976  38.573   8.047
 2554POPC   C4A36174  42.939  38.207   7.758
 2554POPC   C1B36175  43.441  38.520   8.892
 2554POPC   C2B36176  43.419  38.200   8.535
 2554POPC   C3B36177  43.386  38.267   8.057
 2554POPC   C4B36178  43.333  38.552   7.675
 2555POPC   NC336179   2.020  30.239   9.567
 2555POPC   PO436180   1.690  29.595   9.592
 2555POPC   GL136181   1.882  29.636   9.186
 2555POPC   GL236182   1.859  30.012   9.159
 2555POPC   C1A36183   2.139  29.775   8.824
 2555POPC   D2A36184   1.941  29.845   8.439
 2555POPC   C3A36185   2.126  29.708   8.048
 2555POPC   C4A36186   1.801  29.701   7.730
 2555POPC   C1B36187   1.925  30.252   8.777
 2555POPC   C2B36188   1.742  30.319   8.392
 2555POPC   C3B36189   1.836  30.145   7.998
 2555POPC   C4B36190   1.817  30.426   7.664
 2556POPC   NC336191   0.507  21.651   9.405
 2556POPC   PO436192   0.537  21.033   9.697
 2556POPC   GL136193   0.329  21.131   9.284
 2556POPC   GL236194   0.076  21.406   9.297
 2556POPC   C1A36195   0.465  21.309   8.875
 2556POPC   D2A36196   0.333  21.350   8.473
 2556POPC   C3A36197   0.594  21.562   8.203
 2556POPC   C4A36198   0.601  21.530   7.769
 2556POPC   C1B36199   0.024  21.550   8.878
 2556POPC   C2B36200  44.824  21.427   8.519
 2556POPC   C3B36201  44.944  21.401   8.082
 2556POPC   C4B36202   0.118  21.447   7.643
 2557POPC   NC336203  17.821  40.006   9.380
 2557POPC   PO436204  17.211  39.740   9.448
 2557POPC   GL136205  17.442  39.881   9.059
 2557POPC   GL236206  17.341  40.206   9.109
 2557POPC   C1A36207  17.749  39.849   8.665
 2557POPC   D2A36208  18.028  39.777   8.282
 2557POPC   C3A36209  17.760  39.809   7.908
 2557POPC   C4A36210  17.357  39.636   7.705
 2557POPC   C1B36211  17.375  40.230   8.650
 2557POPC   C2B36212  17.381  40.062   8.232
 2557POPC   C3B36213  17.404  40.155   7.806
 2557POPC   C4B36214  17.747  40.448   7.735
 2558POPC   NC336215  13.409  42.900   9.544
 2558POPC   PO436216  14.032  43.191   9.475
 2558POPC   GL136217  13.738  43.195   9.143
 2558POPC   GL236218  13.393  43.064   9.079
 2558POPC   C1A36219  13.754  43.030   8.722
 2558POPC   D2A36220  13.444  42.964   8.391
 2558POPC   C3A36221  13.691  42.978   8.021
 2558POPC   C4A36222  14.085  42.761   7.881
 2558POPC   C1B36223  13.288  43.354   8.787
 2558POPC   C2B36224  13.322  43.614   8.435
 2558POPC   C3B36225  13.356  43.399   8.036
 2558POPC   C4B36226  13.452  43.453   7.609
 2559POPC   NC336227  43.307  13.905   9.442
 2559POPC   PO436228  42.685  14.017   9.437
 2559POPC   GL136229  42.931  13.805   9.101
 2559POPC   GL236230  43.119  13.475   9.143
 2559POPC   C1A36231  43.181  13.883   8.738
 2559POPC   D2A36232  43.302  13.717   8.328
 2559POPC   C3A36233  43.035  13.805   7.965
 2559POPC   C4A36234  43.211  13.837   7.565
 2559POPC   C1B36235  43.030  13.393   8.708
 2559POPC   C2B36236  42.870  13.441   8.293
 2559POPC   C3B36237  43.032  13.294   7.891
 2559POPC   C4B36238  42.853  13.222   7.496
 2560POPC   NC336239  15.342  17.234   9.369
 2560POPC   PO436240  15.544  17.872   9.450
 2560POPC   GL136241  15.220  17.854   9.093
 2560POPC   GL236242  15.060  17.518   9.008
 2560POPC   C1A36243  15.160  17.863   8.622
 2560POPC   D2A36244  14.922  17.663   8.261
 2560POPC   C3A36245  15.204  17.633   7.879
 2560POPC   C4A36246  15.379  17.685   7.442
 2560POPC   C1B36247  14.913  17.163   8.715
 2560POPC   C2B36248  14.740  17.178   8.277
 2560POPC   C3B36249  15.046  17.146   7.907
 2560POPC   C4B36250  15.108  17.249   7.458
 2561POPC   NC336251  25.013  21.560   9.698
 2561POPC   PO436252  24.388  21.280   9.677
 2561POPC   GL136253  24.563  21.283   9.214
 2561POPC   GL236254  24.638  21.629   9.097
 2561POPC   C1A36255  24.504  21.082   8.752
 2561POPC   D2A36256  24.632  21.336   8.375
 2561POPC   C3A36257  24.563  21.193   7.925
 2561POPC   C4A36258  24.781  21.366   7.553
 2561POPC   C1B36259  24.326  21.554   8.762
 2561POPC   C2B36260  24.131  21.379   8.401
 2561POPC   C3B36261  24.179  21.578   7.988
 2561POPC   C4B36262  24.286  21.477   7.576
 2562POPC   NC336263  37.546  30.486   9.430
 2562POPC   PO436264  37.809  31.077   9.632
 2562POPC   GL136265  37.614  30.991   9.197
 2562POPC   GL236266  37.280  30.808   9.088
 2562POPC   C1A36267  37.638  31.030   8.745
 2562POPC   D2A36268  37.682  30.786   8.354
 2562POPC   C3A36269  37.629  30.980   7.917
 2562POPC   C4A36270  37.619  30.882   7.471
 2562POPC   C1B36271  37.222  30.485   8.768
 2562POPC   C2B36272  37.288  30.449   8.322
 2562POPC   C3B36273  37.181  30.394   7.872
 2562POPC   C4B36274  37.450  30.407   7.464
 2563POPC   NC336275  21.936  13.021   9.448
 2563POPC   PO436276  22.529  12.831   9.596
 2563POPC   GL136277  22.200  12.709   9.175
 2563POPC   GL236278  21.965  12.446   9.041
 2563POPC   C1A36279  22.293  12.694   8.705
 2563POPC   D2A36280  22.382  12.954   8.325
 2563POPC   C3A36281  22.302  12.859   7.874
 2563POPC   C4A36282  22.265  12.653   7.438
 2563POPC   C1B36283  21.820  12.838   8.811
 2563POPC   C2B36284  21.857  12.978   8.387
 2563POPC   C3B36285  21.819  12.803   7.964
 2563POPC   C4B36286  21.920  13.000   7.545
 2564POPC   NC336287  30.818  24.202   9.405
 2564POPC   PO436288  30.557  23.599   9.422
 2564POPC   GL136289  30.680  23.825   9.075
 2564POPC   GL236290  30.317  23.914   9.086
 2564POPC   C1A36291  30.789  23.674   8.674
 2564POPC   D2A36292  30.484  23.557   8.352
 2564POPC   C3A36293  30.603  23.627   7.928
 2564POPC   C4A36294  30.620  23.425   7.519
 2564POPC   C1B36295  30.349  23.958   8.648
 2564POPC   C2B36296  30.124  23.965   8.266
 2564POPC   C3B36297  30.167  23.961   7.824
 2564POPC   C4B36298  30.468  23.910   7.516
 2565POPC   NC336299   8.394   2.426   9.522
 2565POPC   PO436300   8.739   2.901   9.435
 2565POPC   GL136301   8.602   2.589   9.098
 2565POPC   GL236302   8.220   2.559   9.065
 2565POPC   C1A36303   8.514   2.474   8.669
 2565POPC   D2A36304   8.431   2.274   8.295
 2565POPC   C3A36305   8.238   2.552   8.002
 2565POPC   C4A36306   7.913   2.518   7.682
 2565POPC   C1B36307   8.140   2.831   8.694
 2565POPC   C2B36308   8.004   2.936   8.254
 2565POPC   C3B36309   8.055   3.014   7.795
 2565POPC   C4B36310   8.338   3.193   7.450
 2566POPC   NC336311  43.219   4.051   9.751
 2566POPC   PO436312  43.341   4.561   9.244
 2566POPC   GL136313  43.105   4.282   9.109
 2566POPC   GL236314  43.334   4.126   8.881
 2566POPC   C1A36315  42.874   4.343   8.761
 2566POPC   D2A36316  42.842   4.176   8.377
 2566POPC   C3A36317  43.130   4.324   8.071
 2566POPC   C4A36318  43.031   4.403   7.648
 2566POPC   C1B36319  43.677   4.311   8.715
 2566POPC   C2B36320  43.728   4.370   8.318
 2566POPC   C3B36321  43.638   4.220   7.942
 2566POPC   C4B36322  43.316   3.981   7.699
 2567POPC   NC336323  16.296   1.418   9.491
 2567POPC   PO436324  15.688   1.001   9.513
 2567POPC   GL136325  15.884   1.152   9.169
 2567POPC   GL236326  15.881   1.507   9.167
 2567POPC   C1A36327  16.042   0.972   8.801
 2567POPC   D2A36328  16.207   1.095   8.395
 2567POPC   C3A36329  16.051   1.086   8.002
 2567POPC   C4A36330  16.075   0.757   7.723
 2567POPC   C1B36331  16.053   1.469   8.738
 2567POPC   C2B36332  15.851   1.472   8.331
 2567POPC   C3B36333  15.757   1.667   7.926
 2567POPC   C4B36334  15.919   1.495   7.524
 2568POPC   NC336335  31.014  32.478   9.420
 2568POPC   PO436336  30.879  31.855   9.689
 2568POPC   GL136337  30.790  31.861   9.224
 2568POPC   GL236338  30.740  32.211   9.089
 2568POPC   C1A36339  30.636  31.835   8.764
 2568POPC   D2A36340  30.705  32.143   8.430
 2568POPC   C3A36341  30.500  32.112   8.021
 2568POPC   C4A36342  30.197  32.411   7.821
 2568POPC   C1B36343  30.941  32.467   8.758
 2568POPC   C2B36344  30.942  32.582   8.305
 2568POPC   C3B36345  30.761  32.569   7.872
 2568POPC   C4B36346  30.905  32.646   7.421
 2569POPC   NC336347   0.937  21.409   9.777
 2569POPC   PO436348   1.414  21.077   9.414
 2569POPC   GL136349   1.115  21.372   9.282
 2569POPC   GL236350   0.844  21.163   9.320
 2569POPC   C1A36351   1.080  21.531   8.850
 2569POPC   D2A36352   1.342  21.353   8.474
 2569POPC   C3A36353   1.364  21.573   8.064
 2569POPC   C4A36354   1.540  21.486   7.660
 2569POPC   C1B36355   0.889  21.035   8.906
 2569POPC   C2B36356   0.856  21.198   8.502
 2569POPC   C3B36357   0.894  21.120   8.068
 2569POPC   C4B36358   1.042  21.323   7.692
 2570POPC   NC336359  11.165   4.364   9.778
 2570POPC   PO436360  11.649   4.681   9.708
 2570POPC   GL136361  11.451   4.506   9.311
 2570POPC   GL236362  11.121   4.350   9.253
 2570POPC   C1A36363  11.569   4.263   8.933
 2570POPC   D2A36364  11.536   4.210   8.460
 2570POPC   C3A36365  11.371   4.426   8.086
 2570POPC   C4A36366  11.321   4.226   7.663
 2570POPC   C1B36367  11.090   4.358   8.762
 2570POPC   C2B36368  11.007   4.156   8.338
 2570POPC   C3B36369  10.896   4.300   7.922
 2570POPC   C4B36370  11.020   4.733   7.831
 2571POPC   NC336371   4.788  39.347  10.039
 2571POPC   PO436372   4.320  39.408   9.595
 2571POPC   GL136373   4.337  39.237   9.197
 2571POPC   GL236374   3.992  39.270   9.158
 2571POPC   C1A36375   4.282  39.087   8.765
 2571POPC   D2A36376   4.076  39.036   8.363
 2571POPC   C3A36377   4.337  39.030   7.974
 2571POPC   C4A36378   4.509  39.285   7.648
 2571POPC   C1B36379   3.972  39.524   8.794
 2571POPC   C2B36380   3.828  39.520   8.381
 2571POPC   C3B36381   3.887  39.327   7.993
 2571POPC   C4B36382   3.916  39.534   7.618
 2572POPC   NC336383  22.809  40.762   9.629
 2572POPC   PO436384  23.224  40.439   9.321
 2572POPC   GL136385  22.991  40.798   9.146
 2572POPC   GL236386  22.795  41.113   9.222
 2572POPC   C1A36387  22.868  40.845   8.733
 2572POPC   D2A36388  22.982  40.587   8.405
 2572POPC   C3A36389  22.734  40.647   8.055
 2572POPC   C4A36390  22.760  40.819   7.709
 2572POPC   C1B36391  22.627  41.270   8.819
 2572POPC   C2B36392  22.791  41.194   8.356
 2572POPC   C3B36393  22.553  41.229   7.960
 2572POPC   C4B36394  22.588  41.215   7.475
 2573POPC   NC336395  17.284  29.976   9.558
 2573POPC   PO436396  17.375  30.515   9.586
 2573POPC   GL136397  17.485  30.268   9.182
 2573POPC   GL236398  17.140  30.248   9.110
 2573POPC   C1A36399  17.435  29.994   8.768
 2573POPC   D2A36400  17.685  29.909   8.356
 2573POPC   C3A36401  17.507  29.892   7.903
 2573POPC   C4A36402  17.123  29.755   7.675
 2573POPC   C1B36403  17.028  30.265   8.663
 2573POPC   C2B36404  17.200  30.080   8.278
 2573POPC   C3B36405  17.119  30.237   7.857
 2573POPC   C4B36406  17.089  30.210   7.405
 2574POPC   NC336407  31.618  20.447   9.292
 2574POPC   PO436408  31.260  19.880   9.436
 2574POPC   GL136409  31.579  19.870   9.091
 2574POPC   GL236410  31.709  20.147   8.883
 2574POPC   C1A36411  31.610  19.674   8.687
 2574POPC   D2A36412  31.646  19.925   8.320
 2574POPC   C3A36413  31.592  19.714   7.951
 2574POPC   C4A36414  31.303  19.452   7.759
 2574POPC   C1B36415  31.272  20.081   8.744
 2574POPC   C2B36416  30.982  20.022   8.397
 2574POPC   C3B36417  31.155  20.027   7.957
 2574POPC   C4B36418  31.197  19.911   7.494
 2575POPC   NC336419  18.826  35.771   9.584
 2575POPC   PO436420  18.916  36.488   9.536
 2575POPC   GL136421  19.051  36.343   9.159
 2575POPC   GL236422  19.389  36.145   9.237
 2575POPC   C1A36423  18.874  36.046   8.878
 2575POPC   D2A36424  18.746  35.853   8.503
 2575POPC   C3A36425  18.914  36.054   8.155
 2575POPC   C4A36426  18.749  35.933   7.767
 2575POPC   C1B36427  19.429  36.314   8.827
 2575POPC   C2B36428  19.151  36.382   8.504
 2575POPC   C3B36429  19.290  36.430   8.089
 2575POPC   C4B36430  19.140  36.501   7.687
 2576POPC   NC336431  28.288  35.790   9.502
 2576POPC   PO436432  28.365  36.472   9.459
 2576POPC   GL136433  28.202  36.169   9.144
 2576POPC   GL236434  28.488  35.956   9.050
 2576POPC   C1A36435  28.139  36.043   8.688
 2576POPC   D2A36436  28.080  36.184   8.267
 2576POPC   C3A36437  28.365  36.128   7.981
 2576POPC   C4A36438  28.353  35.829   7.702
 2576POPC   C1B36439  28.553  36.351   8.819
 2576POPC   C2B36440  28.522  36.426   8.402
 2576POPC   C3B36441  28.820  36.317   8.100
 2576POPC   C4B36442  28.645  36.498   7.734
 2577POPC   NC336443  44.195   2.624   9.524
 2577POPC   PO436444  44.634   3.160   9.507
 2577POPC   GL136445  44.564   2.834   9.199
 2577POPC   GL236446  44.859   2.877   9.051
 2577POPC   C1A36447  44.622   2.510   8.823
 2577POPC   D2A36448  44.337   2.419   8.474
 2577POPC   C3A36449  44.479   2.456   8.042
 2577POPC   C4A36450  44.863   2.353   7.836
 2577POPC   C1B36451  44.525   3.013   8.727
 2577POPC   C2B36452  44.451   2.907   8.293
 2577POPC   C3B36453  44.792   2.880   7.975
 2577POPC   C4B36454  44.788   2.764   7.549
 2578POPC   NC336455  35.875  18.948   9.574
 2578POPC   PO436456  35.137  18.948   9.498
 2578POPC   GL136457  35.288  19.007   9.144
 2578POPC   GL236458  35.459  19.331   9.166
 2578POPC   C1A36459  35.358  18.730   8.790
 2578POPC   D2A36460  35.383  18.858   8.363
 2578POPC   C3A36461  35.226  19.215   8.112
 2578POPC   C4A36462  35.306  19.016   7.713
 2578POPC   C1B36463  35.429  19.241   8.720
 2578POPC   C2B36464  35.664  19.303   8.377
 2578POPC   C3B36465  35.759  19.138   8.012
 2578POPC   C4B36466  35.804  19.390   7.671
 2579POPC   NC336467  29.796  12.709   9.514
 2579POPC   PO436468  30.457  12.825   9.611
 2579POPC   GL136469  30.191  12.959   9.241
 2579POPC   GL236470  30.077  12.612   9.112
 2579POPC   C1A36471  30.043  12.986   8.796
 2579POPC   D2A36472  30.041  12.675   8.464
 2579POPC   C3A36473  30.066  12.908   8.092
 2579POPC   C4A36474  30.074  12.770   7.703
 2579POPC   C1B36475  29.698  12.586   8.836
 2579POPC   C2B36476  29.576  12.462   8.401
 2579POPC   C3B36477  29.637  12.676   8.010
 2579POPC   C4B36478  29.580  12.705   7.538
 2580POPC   NC336479   2.248   9.826   9.788
 2580POPC   PO436480   1.545  10.023   9.568
 2580POPC   GL136481   1.801   9.861   9.181
 2580POPC   GL236482   2.122   9.976   8.952
 2580POPC   C1A36483   1.732   9.749   8.736
 2580POPC   D2A36484   2.008   9.845   8.375
 2580POPC   C3A36485   1.872   9.791   7.950
 2580POPC   C4A36486   1.804   9.852   7.515
 2580POPC   C1B36487   2.331   9.610   8.701
 2580POPC   C2B36488   2.327   9.460   8.325
 2580POPC   C3B36489   2.425   9.607   7.944
 2580POPC   C4B36490   2.182   9.545   7.620
 2581POPC   NC336491  18.751  39.868   9.195
 2581POPC   PO436492  18.222  40.149   9.589
 2581POPC   GL136493  18.248  40.011   9.126
 2581POPC   GL236494  18.058  39.696   9.039
 2581POPC   C1A36495  18.223  40.059   8.695
 2581POPC   D2A36496  18.508  39.998   8.364
 2581POPC   C3A36497  18.304  40.103   7.971
 2581POPC   C4A36498  18.399  40.275   7.588
 2581POPC   C1B36499  18.391  39.582   8.723
 2581POPC   C2B36500  18.598  39.460   8.370
 2581POPC   C3B36501  18.527  39.638   8.005
 2581POPC   C4B36502  18.197  39.662   7.694
 2582POPC   NC336503  40.153   9.754   9.456
 2582POPC   PO436504  39.640   9.456   9.049
 2582POPC   GL136505  40.091   9.612   8.985
 2582POPC   GL236506  40.389   9.387   8.994
 2582POPC   C1A36507  40.149   9.900   8.659
 2582POPC   D2A36508  39.774   9.826   8.393
 2582POPC   C3A36509  39.814   9.879   7.967
 2582POPC   C4A36510  39.821   9.659   7.606
 2582POPC   C1B36511  40.310   9.422   8.565
 2582POPC   C2B36512  40.240   9.649   8.203
 2582POPC   C3B36513  40.298   9.698   7.784
 2582POPC   C4B36514  40.284   9.450   7.420
 2583POPC   NC336515  44.810   1.834   9.601
 2583POPC   PO436516  44.648   2.459   9.547
 2583POPC   GL136517  44.635   2.112   9.195
 2583POPC   GL236518  44.910   1.864   9.099
 2583POPC   C1A36519  44.565   1.998   8.753
 2583POPC   D2A36520  44.771   2.143   8.391
 2583POPC   C3A36521  44.664   1.921   8.054
 2583POPC   C4A36522  44.459   2.052   7.722
 2583POPC   C1B36523   0.085   1.834   8.668
 2583POPC   C2B36524  44.972   1.592   8.305
 2583POPC   C3B36525  44.998   1.537   7.866
 2583POPC   C4B36526  44.939   1.891   7.612
 2584POPC   NC336527  38.858  31.278   9.533
 2584POPC   PO436528  39.424  31.693   9.569
 2584POPC   GL136529  39.145  31.626   9.192
 2584POPC   GL236530  39.134  31.260   9.109
 2584POPC   C1A36531  39.323  31.541   8.743
 2584POPC   D2A36532  39.196  31.316   8.375
 2584POPC   C3A36533  39.508  31.407   8.079
 2584POPC   C4A36534  39.677  31.730   7.801
 2584POPC   C1B36535  38.959  31.034   8.734
 2584POPC   C2B36536  38.683  31.144   8.392
 2584POPC   C3B36537  38.899  31.058   8.010
 2584POPC   C4B36538  39.165  31.307   7.736
 2585POPC   NC336539  35.550  24.051   9.507
 2585POPC   PO436540  35.106  23.544   9.516
 2585POPC   GL136541  35.357  23.584   9.160
 2585POPC   GL236542  35.100  23.410   8.986
 2585POPC   C1A36543  35.483  23.745   8.754
 2585POPC   D2A36544  35.460  24.003   8.373
 2585POPC   C3A36545  35.471  23.824   8.000
 2585POPC   C4A36546  35.328  23.994   7.642
 2585POPC   C1B36547  35.012  23.869   8.892
 2585POPC   C2B36548  34.983  23.935   8.491
 2585POPC   C3B36549  35.028  23.629   8.177
 2585POPC   C4B36550  35.186  23.409   7.823
 2586POPC   NC336551  34.374  42.903   9.338
 2586POPC   PO436552  34.938  42.866   9.731
 2586POPC   GL136553  34.903  42.888   9.241
 2586POPC   GL236554  34.678  42.713   8.979
 2586POPC   C1A36555  34.865  43.185   8.876
 2586POPC   D2A36556  34.640  43.298   8.481
 2586POPC   C3A36557  34.805  43.472   8.114
 2586POPC   C4A36558  34.797  43.235   7.777
 2586POPC   C1B36559  34.607  42.811   8.601
 2586POPC   C2B36560  34.783  42.853   8.219
 2586POPC   C3B36561  34.615  42.720   7.855
 2586POPC   C4B36562  34.212  42.914   7.774
 2587POPC   NC336563  12.803  35.754   9.567
 2587POPC   PO436564  12.802  36.434   9.586
 2587POPC   GL136565  12.821  36.189   9.225
 2587POPC   GL236566  12.532  35.973   9.210
 2587POPC   C1A36567  12.933  36.334   8.813
 2587POPC   D2A36568  13.051  36.508   8.394
 2587POPC   C3A36569  13.040  36.187   8.113
 2587POPC   C4A36570  13.150  36.072   7.716
 2587POPC   C1B36571  12.478  36.083   8.820
 2587POPC   C2B36572  12.574  36.286   8.440
 2587POPC   C3B36573  12.524  36.146   8.035
 2587POPC   C4B36574  12.702  35.835   7.790
 2588POPC   NC336575  43.505   4.889   9.533
 2588POPC   PO436576  43.934   5.360   9.518
 2588POPC   GL136577  43.695   5.326   9.148
 2588POPC   GL236578  43.721   4.975   9.086
 2588POPC   C1A36579  43.797   5.328   8.694
 2588POPC   D2A36580  43.606   5.406   8.280
 2588POPC   C3A36581  43.854   5.218   7.978
 2588POPC   C4A36582  44.175   4.960   7.868
 2588POPC   C1B36583  43.613   4.826   8.700
 2588POPC   C2B36584  43.875   4.854   8.347
 2588POPC   C3B36585  43.687   4.739   7.961
 2588POPC   C4B36586  43.667   4.947   7.594
 2589POPC   NC336587  13.360  21.874   9.488
 2589POPC   PO436588  13.833  21.391   9.835
 2589POPC   GL136589  13.848  21.263   9.292
 2589POPC   GL236590  13.664  21.565   9.187
 2589POPC   C1A36591  13.730  21.258   8.808
 2589POPC   D2A36592  13.489  21.441   8.449
 2589POPC   C3A36593  13.649  21.394   8.019
 2589POPC   C4A36594  13.893  21.256   7.638
 2589POPC   C1B36595  13.763  21.765   8.780
 2589POPC   C2B36596  13.634  21.971   8.416
 2589POPC   C3B36597  13.499  21.912   8.000
 2589POPC   C4B36598  13.490  21.653   7.610
 2590POPC   NC336599  38.452   9.937   9.489
 2590POPC   PO436600  38.668  10.607   9.585
 2590POPC   GL136601  38.515  10.681   9.186
 2590POPC   GL236602  38.308  10.380   9.218
 2590POPC   C1A36603  38.498  10.516   8.754
 2590POPC   D2A36604  38.496  10.158   8.489
 2590POPC   C3A36605  38.425  10.259   8.093
 2590POPC   C4A36606  38.585  10.502   7.818
 2590POPC   C1B36607  38.066  10.274   8.830
 2590POPC   C2B36608  37.998  10.289   8.368
 2590POPC   C3B36609  38.000  10.485   7.930
 2590POPC   C4B36610  38.199  10.502   7.500
 2591POPC   NC336611  43.304  35.676   9.507
 2591POPC   PO436612  43.436  35.066   9.499
 2591POPC   GL136613  43.372  35.290   9.127
 2591POPC   GL236614  43.047  35.430   9.107
 2591POPC   C1A36615  43.348  35.273   8.669
 2591POPC   D2A36616  43.200  35.544   8.319
 2591POPC   C3A36617  43.188  35.419   7.880
 2591POPC   C4A36618  42.857  35.523   7.546
 2591POPC   C1B36619  42.829  35.292   8.710
 2591POPC   C2B36620  42.956  35.094   8.305
 2591POPC   C3B36621  43.385  35.036   8.166
 2591POPC   C4B36622  43.570  35.012   7.769
 2592POPC   NC336623   9.036   2.583   9.546
 2592POPC   PO436624   9.684   2.574   9.441
 2592POPC   GL136625   9.310   2.522   9.114
 2592POPC   GL236626   9.074   2.813   9.072
 2592POPC   C1A36627   9.031   2.464   8.732
 2592POPC   D2A36628   8.876   2.505   8.298
 2592POPC   C3A36629   8.982   2.647   7.867
 2592POPC   C4A36630   9.279   2.734   7.509
 2592POPC   C1B36631   8.741   2.926   8.740
 2592POPC   C2B36632   8.514   2.879   8.332
 2592POPC   C3B36633   8.551   2.925   7.873
 2592POPC   C4B36634   8.364   2.695   7.513
 2593POPC   NC336635  10.978  37.039   9.506
 2593POPC   PO436636  11.617  36.798   9.680
 2593POPC   GL136637  11.330  36.783   9.224
 2593POPC   GL236638  11.170  36.504   9.125
 2593POPC   C1A36639  11.261  36.970   8.799
 2593POPC   D2A36640  11.473  37.130   8.405
 2593POPC   C3A36641  11.313  37.019   7.984
 2593POPC   C4A36642  11.428  36.947   7.551
 2593POPC   C1B36643  11.112  36.465   8.720
 2593POPC   C2B36644  11.178  36.679   8.364
 2593POPC   C3B36645  10.895  36.679   8.064
 2593POPC   C4B36646  10.908  36.699   7.644
 2594POPC   NC336647   4.076   0.139   9.815
 2594POPC   PO436648   4.347   0.599   9.412
 2594POPC   GL136649   4.364   0.291   9.152
 2594POPC   GL236650   4.719   0.164   9.186
 2594POPC   C1A36651   4.232   0.348   8.736
 2594POPC   D2A36652   4.253   0.569   8.381
 2594POPC   C3A36653   4.295   0.338   8.020
 2594POPC   C4A36654   4.408   0.207   7.597
 2594POPC   C1B36655   4.719   0.504   8.861
 2594POPC   C2B36656   4.763   0.728   8.485
 2594POPC   C3B36657   4.634   0.709   8.069
 2594POPC   C4B36658   4.547   0.679   7.679
 2595POPC   NC336659  31.062  43.310   9.647
 2595POPC   PO436660  31.612  42.891   9.499
 2595POPC   GL136661  31.562  43.134   9.130
 2595POPC   GL236662  31.276  43.346   9.162
 2595POPC   C1A36663  31.720  43.031   8.720
 2595POPC   D2A36664  31.932  43.040   8.325
 2595POPC   C3A36665  31.635  43.006   7.975
 2595POPC   C4A36666  31.803  43.144   7.557
 2595POPC   C1B36667  31.210  43.160   8.729
 2595POPC   C2B36668  31.199  42.952   8.333
 2595POPC   C3B36669  31.122  43.161   7.937
 2595POPC   C4B36670  31.280  43.137   7.516
 2596POPC   NC336671  44.426   6.355   9.351
 2596POPC   PO436672  44.559   5.773   9.625
 2596POPC   GL136673  44.472   5.835   9.167
 2596POPC   GL236674  44.687   6.065   9.011
 2596POPC   C1A36675  44.400   5.782   8.687
 2596POPC   D2A36676  44.603   6.084   8.399
 2596POPC   C3A36677  44.504   6.062   7.956
 2596POPC   C4A36678  44.473   5.748   7.636
 2596POPC   C1B36679  44.881   5.766   8.780
 2596POPC   C2B36680  44.761   5.563   8.396
 2596POPC   C3B36681  44.878   5.682   7.988
 2596POPC   C4B36682  44.959   5.639   7.560
 2597POPC   NC336683  34.998  16.695   9.362
 2597POPC   PO436684  35.594  16.878   9.360
 2597POPC   GL136685  35.428  16.700   9.020
 2597POPC   GL236686  35.182  16.434   8.941
 2597POPC   C1A36687  35.350  16.820   8.629
 2597POPC   D2A36688  35.084  16.815   8.317
 2597POPC   C3A36689  35.378  16.935   8.054
 2597POPC   C4A36690  35.339  16.810   7.663
 2597POPC   C1B36691  35.527  16.344   8.658
 2597POPC   C2B36692  35.459  16.467   8.250
 2597POPC   C3B36693  35.531  16.377   7.865
 2597POPC   C4B36694  35.751  16.534   7.528
 2598POPC   NC336695   9.491  18.888   9.473
 2598POPC   PO436696  10.163  18.849   9.351
 2598POPC   GL136697   9.861  18.973   9.125
 2598POPC   GL236698  10.040  19.228   8.927
 2598POPC   C1A36699   9.579  19.031   8.810
 2598POPC   D2A36700   9.651  19.356   8.517
 2598POPC   C3A36701   9.422  19.262   8.121
 2598POPC   C4A36702   9.285  19.032   7.749
 2598POPC   C1B36703  10.017  18.854   8.657
 2598POPC   C2B36704   9.843  18.950   8.271
 2598POPC   C3B36705   9.759  18.907   7.866
 2598POPC   C4B36706   9.684  18.792   7.440
 2599POPC   NC336707  16.395   2.029   9.977
 2599POPC   PO436708  16.730   1.548   9.580
 2599POPC   GL136709  16.861   1.754   9.188
 2599POPC   GL236710  16.695   2.066   9.235
 2599POPC   C1A36711  16.953   2.005   8.796
 2599POPC   D2A36712  16.754   2.048   8.390
 2599POPC   C3A36713  16.749   1.802   8.009
 2599POPC   C4A36714  16.812   1.903   7.548
 2599POPC   C1B36715  16.483   2.222   8.840
 2599POPC   C2B36716  16.293   2.285   8.407
 2599POPC   C3B36717  16.475   2.234   7.995
 2599POPC   C4B36718  16.863   2.361   7.767
 2600POPC   NC336719  20.276  13.606   9.307
 2600POPC   PO436720  20.892  13.246   9.374
 2600POPC   GL136721  20.693  13.460   9.044
 2600POPC   GL236722  20.804  13.775   8.881
 2600POPC   C1A36723  20.551  13.380   8.661
 2600POPC   D2A36724  20.556  13.276   8.269
 2600POPC   C3A36725  20.614  13.605   7.977
 2600POPC   C4A36726  20.827  13.709   7.639
 2600POPC   C1B36727  20.433  13.885   8.597
 2600POPC   C2B36728  20.272  13.915   8.160
 2600POPC   C3B36729  20.405  14.037   7.694
 2600POPC   C4B36730  20.583  13.962   7.242
 2601POPC   NC336731  13.121  16.244   9.369
 2601POPC   PO436732  12.782  15.779   9.703
 2601POPC   GL136733  12.622  15.750   9.299
 2601POPC   GL236734  12.483  16.050   9.222
 2601POPC   C1A36735  12.524  15.681   8.857
 2601POPC   D2A36736  12.710  15.578   8.451
 2601POPC   C3A36737  12.647  15.798   8.051
 2601POPC   C4A36738  12.911  15.874   7.697
 2601POPC   C1B36739  12.667  16.208   8.822
 2601POPC   C2B36740  12.815  16.196   8.397
 2601POPC   C3B36741  13.060  16.180   8.059
 2601POPC   C4B36742  13.158  16.498   7.758
 2602POPC   NC336743  14.778  34.244   9.329
 2602POPC   PO436744  14.562  34.777   9.578
 2602POPC   GL136745  14.422  34.595   9.175
 2602POPC   GL236746  14.276  34.279   9.259
 2602POPC   C1A36747  14.634  34.581   8.757
 2602POPC   D2A36748  14.782  34.383   8.360
 2602POPC   C3A36749  14.596  34.571   7.992
 2602POPC   C4A36750  14.143  34.605   7.866
 2602POPC   C1B36751  14.250  34.228   8.805
 2602POPC   C2B36752  14.279  34.361   8.394
 2602POPC   C3B36753  14.332  34.138   8.020
 2602POPC   C4B36754  13.981  34.111   7.781
 2603POPC   NC336755  30.212  16.523   9.506
 2603POPC   PO436756  29.547  16.661   9.348
 2603POPC   GL136757  29.929  16.764   9.149
 2603POPC   GL236758  30.085  16.455   9.012
 2603POPC   C1A36759  30.064  16.900   8.738
 2603POPC   D2A36760  30.111  16.580   8.401
 2603POPC   C3A36761  30.039  16.706   7.978
 2603POPC   C4A36762  29.700  16.622   7.704
 2603POPC   C1B36763  30.323  16.185   8.737
 2603POPC   C2B36764  30.546  16.320   8.396
 2603POPC   C3B36765  30.311  16.194   8.057
 2603POPC   C4B36766  30.088  16.289   7.652
 2604POPC   NC336767   2.839  42.678   9.270
 2604POPC   PO436768   2.523  42.089   9.465
 2604POPC   GL136769   2.734  42.212   9.087
 2604POPC   GL236770   3.080  42.128   9.170
 2604POPC   C1A36771   2.581  42.498   8.712
 2604POPC   D2A36772   2.786  42.661   8.342
 2604POPC   C3A36773   2.513  42.705   7.984
 2604POPC   C4A36774   2.387  42.375   7.737
 2604POPC   C1B36775   3.075  42.349   8.739
 2604POPC   C2B36776   3.079  42.206   8.311
 2604POPC   C3B36777   2.909  42.330   7.898
 2604POPC   C4B36778   2.780  42.098   7.517
 2605POPC   NC336779  35.628  37.575   9.492
 2605POPC   PO436780  36.254  37.843   9.592
 2605POPC   GL136781  36.034  37.824   9.221
 2605POPC   GL236782  35.975  37.509   9.131
 2605POPC   C1A36783  36.014  37.857   8.757
 2605POPC   D2A36784  36.167  37.644   8.388
 2605POPC   C3A36785  36.012  37.812   8.004
 2605POPC   C4A36786  35.873  37.774   7.558
 2605POPC   C1B36787  35.912  37.343   8.719
 2605POPC   C2B36788  35.799  37.232   8.298
 2605POPC   C3B36789  35.970  37.310   7.898
 2605POPC   C4B36790  35.697  37.318   7.515
 2606POPC   NC336791  40.503  11.475   9.326
 2606POPC   PO436792  40.221  10.942   9.608
 2606POPC   GL136793  40.072  11.088   9.176
 2606POPC   GL236794  40.196  11.402   8.956
 2606POPC   C1A36795  39.767  11.201   8.834
 2606POPC   D2A36796  40.045  11.293   8.481
 2606POPC   C3A36797  39.947  11.230   8.086
 2606POPC   C4A36798  39.811  11.284   7.691
 2606POPC   C1B36799  40.411  11.625   8.607
 2606POPC   C2B36800  40.397  11.560   8.137
 2606POPC   C3B36801  40.239  11.565   7.681
 2606POPC   C4B36802  40.328  11.623   7.213
 2607POPC   NC336803  24.359  10.266   9.600
 2607POPC   PO436804  24.757  10.829   9.466
 2607POPC   GL136805  24.591  10.660   9.131
 2607POPC   GL236806  24.277  10.554   9.184
 2607POPC   C1A36807  24.481  10.586   8.716
 2607POPC   D2A36808  24.328  10.455   8.366
 2607POPC   C3A36809  24.506  10.583   8.013
 2607POPC   C4A36810  24.392  10.447   7.658
 2607POPC   C1B36811  24.035  10.752   8.867
 2607POPC   C2B36812  24.067  10.875   8.457
 2607POPC   C3B36813  24.003  10.733   8.048
 2607POPC   C4B36814  24.095  10.860   7.646
 2608POPC   NC336815  42.928  31.463   9.540
 2608POPC   PO436816  43.554  31.190   9.428
 2608POPC   GL136817  43.264  31.353   9.125
 2608POPC   GL236818  43.144  31.666   9.133
 2608POPC   C1A36819  43.075  31.367   8.698
 2608POPC   D2A36820  42.869  31.294   8.324
 2608POPC   C3A36821  43.093  31.136   8.001
 2608POPC   C4A36822  43.264  31.315   7.633
 2608POPC   C1B36823  43.101  31.864   8.754
 2608POPC   C2B36824  42.930  31.806   8.376
 2608POPC   C3B36825  43.043  31.693   7.999
 2608POPC   C4B36826  43.008  31.992   7.709
 2609POPC   NC336827  13.800  10.424   9.365
 2609POPC   PO436828  13.358  10.830   9.549
 2609POPC   GL136829  13.580  10.893   9.179
 2609POPC   GL236830  13.347  11.160   9.110
 2609POPC   C1A36831  13.668  10.639   8.790
 2609POPC   D2A36832  13.746  10.381   8.445
 2609POPC   C3A36833  13.665  10.493   8.024
 2609POPC   C4A36834  13.930  10.538   7.658
 2609POPC   C1B36835  13.257  10.917   8.765
 2609POPC   C2B36836  13.308  10.698   8.398
 2609POPC   C3B36837  13.308  10.857   8.014
 2609POPC   C4B36838  13.559  10.909   7.735
 2610POPC   NC336839   5.201  10.798   9.556
 2610POPC   PO436840   4.692  10.353   9.591
 2610POPC   GL136841   4.961  10.389   9.173
 2610POPC   GL236842   5.239  10.638   9.077
 2610POPC   C1A36843   5.071  10.351   8.708
 2610POPC   D2A36844   4.890  10.598   8.378
 2610POPC   C3A36845   5.034  10.611   7.931
 2610POPC   C4A36846   4.780  10.258   7.853
 2610POPC   C1B36847   5.270  10.833   8.667
 2610POPC   C2B36848   5.389  10.640   8.303
 2610POPC   C3B36849   5.257  10.222   8.184
 2610POPC   C4B36850   5.286  10.153   7.747
 2611POPC   NC336851  42.143  42.840   9.544
 2611POPC   PO436852  42.697  43.228   9.355
 2611POPC   GL136853  42.458  42.941   9.156
 2611POPC   GL236854  42.183  43.142   9.138
 2611POPC   C1A36855  42.307  42.708   8.806
 2611POPC   D2A36856  42.493  42.610   8.390
 2611POPC   C3A36857  42.430  42.856   8.003
 2611POPC   C4A36858  42.588  43.252   7.817
 2611POPC   C1B36859  42.168  43.230   8.760
 2611POPC   C2B36860  42.088  43.011   8.409
 2611POPC   C3B36861  42.147  43.268   8.112
 2611POPC   C4B36862  42.029  43.234   7.736
 2612POPC   NC336863  32.200  14.892   9.702
 2612POPC   PO436864  32.674  15.195   9.332
 2612POPC   GL136865  32.341  15.091   9.097
 2612POPC   GL236866  32.571  15.233   8.827
 2612POPC   C1A36867  32.123  15.059   8.695
 2612POPC   D2A36868  32.388  15.209   8.328
 2612POPC   C3A36869  32.168  15.164   7.933
 2612POPC   C4A36870  31.977  15.015   7.551
 2612POPC   C1B36871  32.287  15.552   8.725
 2612POPC   C2B36872  32.180  15.683   8.295
 2612POPC   C3B36873  32.465  15.585   7.944
 2612POPC   C4B36874  32.508  15.659   7.481
 2613POPC   NC336875  27.428  38.860   9.451
 2613POPC   PO436876  27.692  38.354   9.693
 2613POPC   GL136877  27.769  38.468   9.269
 2613POPC   GL236878  28.038  38.300   9.093
 2613POPC   C1A36879  27.542  38.480   8.875
 2613POPC   D2A36880  27.344  38.660   8.491
 2613POPC   C3A36881  27.451  38.456   8.101
 2613POPC   C4A36882  27.292  38.298   7.694
 2613POPC   C1B36883  28.008  38.497   8.665
 2613POPC   C2B36884  27.971  38.326   8.238
 2613POPC   C3B36885  27.871  38.502   7.832
 2613POPC   C4B36886  27.810  38.338   7.411
 2614POPC   NC336887  12.570  12.874   9.389
 2614POPC   PO436888  11.851  12.890   9.581
 2614POPC   GL136889  12.061  12.937   9.201
 2614POPC   GL236890  11.743  13.034   9.064
 2614POPC   C1A36891  12.193  12.951   8.759
 2614POPC   D2A36892  12.059  13.008   8.338
 2614POPC   C3A36893  12.254  13.284   8.077
 2614POPC   C4A36894  12.206  13.152   7.675
 2614POPC   C1B36895  11.679  12.856   8.662
 2614POPC   C2B36896  11.711  12.628   8.282
 2614POPC   C3B36897  12.000  12.459   7.998
 2614POPC   C4B36898  12.048  12.520   7.575
 2615POPC   NC336899  29.268  20.418   9.534
 2615POPC   PO436900  28.924  20.992   9.447
 2615POPC   GL136901  29.201  20.800   9.203
 2615POPC   GL236902  29.020  20.472   9.097
 2615POPC   C1A36903  29.326  20.748   8.812
 2615POPC   D2A36904  29.072  20.631   8.461
 2615POPC   C3A36905  29.209  20.779   8.055
 2615POPC   C4A36906  29.498  20.550   7.789
 2615POPC   C1B36907  28.662  20.347   8.835
 2615POPC   C2B36908  28.674  20.193   8.429
 2615POPC   C3B36909  29.017  20.196   8.168
 2615POPC   C4B36910  28.998  20.381   7.777
 2616POPC   NC336911  42.548  11.573   9.378
 2616POPC   PO436912  42.220  12.143   9.523
 2616POPC   GL136913  42.349  12.080   9.129
 2616POPC   GL236914  42.197  11.776   9.096
 2616POPC   C1A36915  42.384  12.232   8.708
 2616POPC   D2A36916  42.432  12.274   8.271
 2616POPC   C3A36917  42.267  12.111   7.928
 2616POPC   C4A36918  42.391  12.375   7.604
 2616POPC   C1B36919  42.414  11.712   8.745
 2616POPC   C2B36920  42.203  11.840   8.396
 2616POPC   C3B36921  41.829  11.849   8.179
 2616POPC   C4B36922  41.885  11.793   7.735
 2617POPC   NC336923  43.679   5.768   9.482
 2617POPC   PO436924  44.065   6.327   9.659
 2617POPC   GL136925  44.030   6.060   9.293
 2617POPC   GL236926  43.979   6.308   9.077
 2617POPC   C1A36927  43.954   5.800   8.894
 2617POPC   D2A36928  43.947   5.901   8.429
 2617POPC   C3A36929  43.955   5.703   8.025
 2617POPC   C4A36930  43.602   5.575   7.720
 2617POPC   C1B36931  44.197   6.252   8.705
 2617POPC   C2B36932  44.174   6.348   8.265
 2617POPC   C3B36933  43.983   6.197   7.887
 2617POPC   C4B36934  44.000   5.856   7.535
 2618POPC   NC336935   9.415  31.731   9.826
 2618POPC   PO436936   9.203  31.149   9.699
 2618POPC   GL136937   9.270  31.481   9.314
 2618POPC   GL236938   9.228  31.264   9.019
 2618POPC   C1A36939   9.101  31.725   8.884
 2618POPC   D2A36940   8.895  31.678   8.448
 2618POPC   C3A36941   9.150  31.590   8.060
 2618POPC   C4A36942   9.391  31.261   7.840
 2618POPC   C1B36943   8.782  31.285   8.808
 2618POPC   C2B36944   8.640  31.129   8.387
 2618POPC   C3B36945   8.814  31.182   7.982
 2618POPC   C4B36946   8.678  31.573   7.827
 2619POPC   NC336947  33.339   4.062   9.639
 2619POPC   PO436948  32.689   4.270   9.722
 2619POPC   GL136949  32.941   4.142   9.331
 2619POPC   GL236950  33.173   4.400   9.272
 2619POPC   C1A36951  33.094   4.000   8.923
 2619POPC   D2A36952  32.988   4.130   8.514
 2619POPC   C3A36953  33.148   4.054   8.104
 2619POPC   C4A36954  33.005   4.220   7.711
 2619POPC   C1B36955  33.255   4.480   8.818
 2619POPC   C2B36956  33.359   4.454   8.349
 2619POPC   C3B36957  33.330   4.586   7.869
 2619POPC   C4B36958  33.179   4.578   7.406
 2620POPC   NC336959  27.845  19.045   9.298
 2620POPC   PO436960  27.393  18.625   9.416
 2620POPC   GL136961  27.396  18.929   9.036
 2620POPC   GL236962  27.710  19.087   8.831
 2620POPC   C1A36963  27.297  18.946   8.586
 2620POPC   D2A36964  27.626  18.903   8.310
 2620POPC   C3A36965  27.483  18.778   7.916
 2620POPC   C4A36966  27.231  18.954   7.594
 2620POPC   C1B36967  28.098  18.905   8.630
 2620POPC   C2B36968  28.139  18.931   8.201
 2620POPC   C3B36969  27.874  19.102   7.898
 2620POPC   C4B36970  27.759  19.009   7.469
 2621POPC   NC336971  24.517  13.870   9.618
 2621POPC   PO436972  24.222  14.354   9.221
 2621POPC   GL136973  24.627  14.351   9.112
 2621POPC   GL236974  24.837  14.647   9.198
 2621POPC   C1A36975  24.779  14.184   8.728
 2621POPC   D2A36976  24.586  13.939   8.370
 2621POPC   C3A36977  24.455  14.118   7.996
 2621POPC   C4A36978  24.168  14.424   7.885
 2621POPC   C1B36979  24.643  14.716   8.778
 2621POPC   C2B36980  24.759  14.567   8.384
 2621POPC   C3B36981  24.654  14.602   7.965
 2621POPC   C4B36982  24.490  14.580   7.531
 2622POPC   NC336983  18.973  23.599   9.423
 2622POPC   PO436984  18.617  23.054   9.522
 2622POPC   GL136985  18.728  23.000   9.096
 2622POPC   GL236986  19.087  23.039   9.061
 2622POPC   C1A36987  18.771  23.252   8.722
 2622POPC   D2A36988  18.942  23.250   8.307
 2622POPC   C3A36989  18.949  23.088   7.875
 2622POPC   C4A36990  19.084  23.181   7.453
 2622POPC   C1B36991  19.069  22.845   8.634
 2622POPC   C2B36992  19.272  22.868   8.205
 2622POPC   C3B36993  19.365  22.835   7.727
 2622POPC   C4B36994  19.316  22.757   7.250
 2623POPC   NC336995  10.478  44.483   9.643
 2623POPC   PO436996  10.475  43.809   9.817
 2623POPC   GL136997  10.467  44.059   9.366
 2623POPC   GL236998  10.783  44.055   9.154
 2623POPC   C1A36999  10.387  44.040   8.880
 2623POPC   D2A37000  10.718  43.803   8.609
 2623POPC   C3A37001  10.608  43.855   8.172
 2623POPC   C4A37002  10.589  43.671   7.782
 2623POPC   C1B37003  10.834  44.276   8.733
 2623POPC   C2B37004  10.835  44.329   8.260
 2623POPC   C3B37005  10.733  44.217   7.799
 2623POPC   C4B37006  10.952  44.207   7.373
 2624POPC   NC337007  37.325  13.122   9.487
 2624POPC   PO437008  37.823  12.686   9.553
 2624POPC   GL137009  37.718  12.859   9.165
 2624POPC   GL237010  37.826  12.568   9.004
 2624POPC   C1A37011  37.459  12.837   8.784
 2624POPC   D2A37012  37.538  12.907   8.359
 2624POPC   C3A37013  37.210  12.943   8.096
 2624POPC   C4A37014  37.196  13.081   7.682
 2624POPC   C1B37015  37.766  12.496   8.570
 2624POPC   C2B37016  37.971  12.636   8.252
 2624POPC   C3B37017  37.876  12.821   7.865
 2624POPC   C4B37018  37.989  12.717   7.411
 2625POPC   NC337019  11.985  34.527   9.732
 2625POPC   PO437020  11.673  34.205   9.218
 2625POPC   GL137021  12.056  34.452   9.168
 2625POPC   GL237022  12.032  34.811   9.114
 2625POPC   C1A37023  12.237  34.503   8.745
 2625POPC   D2A37024  12.274  34.647   8.299
 2625POPC   C3A37025  11.966  34.519   7.971
 2625POPC   C4A37026  11.990  34.318   7.600
 2625POPC   C1B37027  12.219  35.032   8.713
 2625POPC   C2B37028  12.171  35.141   8.220
 2625POPC   C3B37029  12.259  34.889   7.806
 2625POPC   C4B37030  11.935  34.779   7.428
 2626POPC   NC337031  40.916   3.181   9.527
 2626POPC   PO437032  40.629   3.870   9.443
 2626POPC   GL137033  40.787   3.690   9.093
 2626POPC   GL237034  40.791   3.342   9.071
 2626POPC   C1A37035  41.038   3.667   8.735
 2626POPC   D2A37036  40.919   3.784   8.323
 2626POPC   C3A37037  40.945   3.531   7.962
 2626POPC   C4A37038  40.531   3.566   7.838
 2626POPC   C1B37039  40.744   3.219   8.663
 2626POPC   C2B37040  40.966   3.122   8.299
 2626POPC   C3B37041  40.754   3.025   7.934
 2626POPC   C4B37042  40.870   3.079   7.534
 2627POPC   NC337043  10.289  33.944   9.465
 2627POPC   PO437044  10.899  33.611   9.440
 2627POPC   GL137045  10.676  33.815   9.143
 2627POPC   GL237046  10.696  34.139   9.205
 2627POPC   C1A37047  10.322  33.822   8.829
 2627POPC   D2A37048  10.334  34.041   8.430
 2627POPC   C3A37049  10.591  33.763   8.210
 2627POPC   C4A37050  10.570  33.602   7.814
 2627POPC   C1B37051  10.742  34.098   8.738
 2627POPC   C2B37052  10.940  34.121   8.314
 2627POPC   C3B37053  10.725  34.165   7.918
 2627POPC   C4B37054  10.304  34.044   7.861
 2628POPC   NC337055   1.764  37.911   9.287
 2628POPC   PO437056   1.385  37.367   9.553
 2628POPC   GL137057   1.289  37.687   9.177
 2628POPC   GL237058   1.510  37.740   8.860
 2628POPC   C1A37059   1.161  38.083   8.917
 2628POPC   D2A37060   1.136  38.207   8.476
 2628POPC   C3A37061   1.155  37.823   8.209
 2628POPC   C4A37062   1.145  37.811   7.786
 2628POPC   C1B37063   1.652  37.469   8.528
 2628POPC   C2B37064   1.389  37.288   8.212
 2628POPC   C3B37065   1.334  37.362   7.805
 2628POPC   C4B37066   1.565  37.712   7.524
 2629POPC   NC337067   6.735  23.447   9.325
 2629POPC   PO437068   6.300  23.034   9.533
 2629POPC   GL137069   6.550  22.983   9.146
 2629POPC   GL237070   6.482  23.226   8.949
 2629POPC   C1A37071   6.858  22.769   8.860
 2629POPC   D2A37072   6.940  22.586   8.468
 2629POPC   C3A37073   6.557  22.612   8.255
 2629POPC   C4A37074   6.576  22.700   7.835
 2629POPC   C1B37075   6.848  23.259   8.685
 2629POPC   C2B37076   6.817  23.087   8.277
 2629POPC   C3B37077   6.654  23.198   7.857
 2629POPC   C4B37078   6.503  23.185   7.398
 2630POPC   NC337079  21.927   9.595   9.438
 2630POPC   PO437080  22.218  10.133   9.692
 2630POPC   GL137081  22.194   9.965   9.207
 2630POPC   GL237082  21.870   9.989   9.084
 2630POPC   C1A37083  22.399   9.962   8.780
 2630POPC   D2A37084  22.619   9.929   8.360
 2630POPC   C3A37085  22.397   9.706   8.061
 2630POPC   C4A37086  22.483   9.893   7.680
 2630POPC   C1B37087  21.950  10.244   8.736
 2630POPC   C2B37088  21.784  10.153   8.342
 2630POPC   C3B37089  21.951  10.010   7.967
 2630POPC   C4B37090  21.944   9.578   7.843
 2631POPC   NC337091  43.732  30.101   9.603
 2631POPC   PO437092  44.301  29.890   9.533
 2631POPC   GL137093  44.066  30.097   9.223
 2631POPC   GL237094  43.823  29.805   9.176
 2631POPC   C1A37095  43.837  30.180   8.824
 2631POPC   D2A37096  43.804  29.864   8.463
 2631POPC   C3A37097  43.862  29.975   8.019
 2631POPC   C4A37098  43.957  29.666   7.703
 2631POPC   C1B37099  44.134  29.762   8.847
 2631POPC   C2B37100  44.383  29.796   8.502
 2631POPC   C3B37101  44.311  29.731   8.092
 2631POPC   C4B37102  44.376  29.944   7.739
 2632POPC   NC337103  37.120  11.815   9.407
 2632POPC   PO437104  36.604  12.101   9.636
 2632POPC   GL137105  36.771  12.199   9.238
 2632POPC   GL237106  36.631  11.877   9.156
 2632POPC   C1A37107  36.954  12.089   8.824
 2632POPC   D2A37108  36.874  12.111   8.411
 2632POPC   C3A37109  37.128  11.975   8.047
 2632POPC   C4A37110  37.348  12.166   7.722
 2632POPC   C1B37111  36.492  11.838   8.730
 2632POPC   C2B37112  36.381  12.044   8.323
 2632POPC   C3B37113  36.626  12.167   7.957
 2632POPC   C4B37114  36.818  12.113   7.551
 2633POPC   NC337115  33.499  38.699   9.529
 2633POPC   PO437116  34.172  38.841   9.453
 2633POPC   GL137117  33.929  38.722   9.112
 2633POPC   GL237118  33.609  38.717   9.027
 2633POPC   C1A37119  34.080  38.543   8.749
 2633POPC   D2A37120  34.270  38.653   8.374
 2633POPC   C3A37121  34.116  38.500   8.012
 2633POPC   C4A37122  33.984  38.329   7.649
 2633POPC   C1B37123  33.592  38.381   8.741
 2633POPC   C2B37124  33.469  38.443   8.336
 2633POPC   C3B37125  33.593  38.393   7.949
 2633POPC   C4B37126  33.482  38.240   7.543
 2634POPC   NC337127  15.370  16.709  10.220
 2634POPC   PO437128  15.017  16.732   9.751
 2634POPC   GL137129  15.240  16.692   9.323
 2634POPC   GL237130  14.943  16.741   9.176
 2634POPC   C1A37131  15.311  16.682   8.821
 2634POPC   D2A37132  15.451  16.595   8.352
 2634POPC   C3A37133  15.248  16.649   7.936
 2634POPC   C4A37134  15.364  16.805   7.513
 2634POPC   C1B37135  14.794  16.659   8.789
 2634POPC   C2B37136  14.949  16.722   8.380
 2634POPC   C3B37137  14.742  16.749   7.993
 2634POPC   C4B37138  14.871  16.756   7.591
 2635POPC   NC337139  27.352  13.372   9.627
 2635POPC   PO437140  27.318  14.040   9.497
 2635POPC   GL137141  27.605  13.705   9.285
 2635POPC   GL237142  27.510  13.393   9.152
 2635POPC   C1A37143  27.760  13.675   8.826
 2635POPC   D2A37144  27.897  13.800   8.413
 2635POPC   C3A37145  27.678  13.648   8.043
 2635POPC   C4A37146  27.593  13.964   7.757
 2635POPC   C1B37147  27.378  13.302   8.730
 2635POPC   C2B37148  27.545  13.200   8.308
 2635POPC   C3B37149  27.320  13.203   7.921
 2635POPC   C4B37150  27.052  13.262   7.566
 2636POPC   NC337151  13.978  39.880   9.410
 2636POPC   PO437152  13.249  40.119   9.549
 2636POPC   GL137153  13.559  40.084   9.218
 2636POPC   GL237154  13.556  39.730   9.104
 2636POPC   C1A37155  13.647  40.101   8.769
 2636POPC   D2A37156  13.506  39.908   8.392
 2636POPC   C3A37157  13.697  40.015   8.032
 2636POPC   C4A37158  13.614  40.052   7.631
 2636POPC   C1B37159  13.858  39.635   8.778
 2636POPC   C2B37160  13.999  39.835   8.444
 2636POPC   C3B37161  14.151  39.808   8.061
 2636POPC   C4B37162  13.976  39.664   7.692
 2637POPC   NC337163  15.154  39.639   9.503
 2637POPC   PO437164  15.104  40.341   9.566
 2637POPC   GL137165  15.276  40.265   9.185
 2637POPC   GL237166  15.033  39.998   9.151
 2637POPC   C1A37167  15.126  40.295   8.767
 2637POPC   D2A37168  14.986  40.039   8.428
 2637POPC   C3A37169  15.103  40.187   8.027
 2637POPC   C4A37170  14.911  40.138   7.700
 2637POPC   C1B37171  15.344  39.828   8.852
 2637POPC   C2B37172  15.350  39.666   8.436
 2637POPC   C3B37173  15.178  39.672   8.035
 2637POPC   C4B37174  15.265  39.761   7.623
 2638POPC   NC337175  34.799   2.508   9.430
 2638POPC   PO437176  34.927   3.047   9.681
 2638POPC   GL137177  34.619   2.974   9.282
 2638POPC   GL237178  34.353   2.685   9.221
 2638POPC   C1A37179  34.449   3.092   8.858
 2638POPC   D2A37180  34.597   3.023   8.428
 2638POPC   C3A37181  34.359   3.032   8.056
 2638POPC   C4A37182  34.542   2.917   7.681
 2638POPC   C1B37183  34.558   2.554   8.837
 2638POPC   C2B37184  34.682   2.453   8.444
 2638POPC   C3B37185  34.569   2.569   8.056
 2638POPC   C4B37186  34.572   2.404   7.656
 2639POPC   NC337187  19.064  34.879   9.346
 2639POPC   PO437188  19.267  35.552   9.531
 2639POPC   GL137189  18.978  35.394   9.243
 2639POPC   GL237190  19.238  35.261   9.036
 2639POPC   C1A37191  18.822  35.481   8.847
 2639POPC   D2A37192  19.027  35.413   8.474
 2639POPC   C3A37193  18.820  35.526   8.097
 2639POPC   C4A37194  19.023  35.479   7.717
 2639POPC   C1B37195  19.410  34.925   8.797
 2639POPC   C2B37196  19.328  34.860   8.384
 2639POPC   C3B37197  19.283  35.176   8.075
 2639POPC   C4B37198  19.365  35.092   7.682
 2640POPC   NC337199   6.156  42.533   9.478
 2640POPC   PO437200   6.761  42.332   9.604
 2640POPC   GL137201   6.768  42.331   9.174
 2640POPC   GL237202   6.459  42.456   9.090
 2640POPC   C1A37203   6.755  42.170   8.740
 2640POPC   D2A37204   6.483  42.092   8.385
 2640POPC   C3A37205   6.645  42.070   7.946
 2640POPC   C4A37206   6.920  42.404   7.762
 2640POPC   C1B37207   6.280  42.469   8.699
 2640POPC   C2B37208   6.494  42.618   8.343
 2640POPC   C3B37209   6.388  42.538   7.953
 2640POPC   C4B37210   6.417  42.392   7.569
 2641POPC   NC337211   1.292  33.440   9.585
 2641POPC   PO437212   1.609  34.018   9.405
 2641POPC   GL137213   1.188  33.827   9.183
 2641POPC   GL237214   1.123  33.469   9.109
 2641POPC   C1A37215   0.990  33.740   8.733
 2641POPC   D2A37216   1.082  33.429   8.421
 2641POPC   C3A37217   1.066  33.623   8.032
 2641POPC   C4A37218   1.151  33.686   7.627
 2641POPC   C1B37219   1.468  33.523   8.840
 2641POPC   C2B37220   1.589  33.293   8.497
 2641POPC   C3B37221   1.545  33.446   8.119
 2641POPC   C4B37222   1.497  33.344   7.736
 2642POPC   NC337223  13.529  34.420   9.441
 2642POPC   PO437224  13.763  35.025   9.472
 2642POPC   GL137225  13.943  34.799   9.116
 2642POPC   GL237226  13.844  34.447   9.046
 2642POPC   C1A37227  13.872  34.761   8.657
 2642POPC   D2A37228  13.813  34.525   8.300
 2642POPC   C3A37229  13.606  34.725   7.953
 2642POPC   C4A37230  13.717  34.686   7.524
 2642POPC   C1B37231  13.439  34.496   8.787
 2642POPC   C2B37232  13.336  34.334   8.385
 2642POPC   C3B37233  13.519  34.219   8.016
 2642POPC   C4B37234  13.491  34.140   7.596
 2643POPC   NC337235  17.537  44.419   9.437
 2643POPC   PO437236  17.767   0.003   9.601
 2643POPC   GL137237  17.706  44.848   9.191
 2643POPC   GL237238  17.920  44.545   9.104
 2643POPC   C1A37239  17.446  44.705   8.849
 2643POPC   D2A37240  17.423  44.344   8.563
 2643POPC   C3A37241  17.364  44.431   8.100
 2643POPC   C4A37242  17.208  44.784   7.792
 2643POPC   C1B37243  17.895  44.612   8.651
 2643POPC   C2B37244  17.622  44.818   8.364
 2643POPC   C3B37245  17.706  44.795   7.946
 2643POPC   C4B37246  17.842  44.383   7.821
 2644POPC   NC337247  30.008  19.904   9.741
 2644POPC   PO437248  29.580  19.407   9.562
 2644POPC   GL137249  29.742  19.704   9.258
 2644POPC   GL237250  30.075  19.811   9.245
 2644POPC   C1A37251  29.742  19.831   8.836
 2644POPC   D2A37252  29.609  20.115   8.514
 2644POPC   C3A37253  29.667  19.871   8.139
 2644POPC   C4A37254  29.802  19.838   7.692
 2644POPC   C1B37255  30.248  19.733   8.837
 2644POPC   C2B37256  30.088  19.883   8.447
 2644POPC   C3B37257  30.174  19.862   8.046
 2644POPC   C4B37258  30.310  19.816   7.642
 2645POPC   NC337259   8.889  24.044   9.447
 2645POPC   PO437260   9.398  23.533   9.452
 2645POPC   GL137261   9.126  23.686   9.165
 2645POPC   GL237262   9.289  23.995   9.106
 2645POPC   C1A37263   8.979  23.512   8.793
 2645POPC   D2A37264   8.797  23.338   8.424
 2645POPC   C3A37265   9.028  23.433   8.063
 2645POPC   C4A37266   9.007  23.482   7.648
 2645POPC   C1B37267   9.044  24.028   8.738
 2645POPC   C2B37268   8.908  23.881   8.335
 2645POPC   C3B37269   8.828  23.896   7.913
 2645POPC   C4B37270   9.250  23.903   7.766
 2646POPC   NC337271  22.068  25.214   9.549
 2646POPC   PO437272  22.714  25.117   9.653
 2646POPC   GL137273  22.467  25.305   9.233
 2646POPC   GL237274  22.140  25.155   9.047
 2646POPC   C1A37275  22.327  25.576   8.851
 2646POPC   D2A37276  22.119  25.401   8.461
 2646POPC   C3A37277  22.218  25.449   8.030
 2646POPC   C4A37278  22.441  25.070   7.855
 2646POPC   C1B37279  21.802  25.472   8.849
 2646POPC   C2B37280  21.629  25.563   8.386
 2646POPC   C3B37281  21.706  25.387   7.967
 2646POPC   C4B37282  21.916  25.496   7.559
 2647POPC   NC337283  11.585   7.155   9.647
 2647POPC   PO437284  11.113   7.460   9.669
 2647POPC   GL137285  11.377   7.510   9.259
 2647POPC   GL237286  11.662   7.790   9.216
 2647POPC   C1A37287  11.130   7.443   8.849
 2647POPC   D2A37288  10.874   7.533   8.461
 2647POPC   C3A37289  11.005   7.338   8.067
 2647POPC   C4A37290  11.388   7.431   7.835
 2647POPC   C1B37291  11.487   7.777   8.794
 2647POPC   C2B37292  11.385   7.615   8.380
 2647POPC   C3B37293  11.563   7.854   8.055
 2647POPC   C4B37294  11.760   7.814   7.628
 2648POPC   NC337295  24.871  38.466   9.239
 2648POPC   PO437296  25.462  38.297   9.600
 2648POPC   GL137297  25.368  38.378   9.173
 2648POPC   GL237298  25.470  38.729   9.174
 2648POPC   C1A37299  25.238  38.223   8.743
 2648POPC   D2A37300  25.013  38.050   8.377
 2648POPC   C3A37301  25.221  38.196   8.010
 2648POPC   C4A37302  25.309  38.444   7.615
 2648POPC   C1B37303  25.250  38.783   8.797
 2648POPC   C2B37304  25.118  38.615   8.408
 2648POPC   C3B37305  25.261  38.720   8.036
 2648POPC   C4B37306  25.116  38.930   7.687
 2649POPC   NC337307  19.890   1.517   9.318
 2649POPC   PO437308  19.977   0.829   9.278
 2649POPC   GL137309  19.920   1.130   9.010
 2649POPC   GL237310  19.574   1.151   9.098
 2649POPC   C1A37311  19.953   1.399   8.638
 2649POPC   D2A37312  19.920   1.316   8.206
 2649POPC   C3A37313  19.684   0.995   8.041
 2649POPC   C4A37314  19.902   1.109   7.687
 2649POPC   C1B37315  19.566   1.035   8.664
 2649POPC   C2B37316  19.457   1.327   8.391
 2649POPC   C3B37317  19.459   1.445   7.993
 2649POPC   C4B37318  19.414   1.245   7.594
 2650POPC   NC337319  34.113  38.359   9.398
 2650POPC   PO437320  34.837  38.421   9.417
 2650POPC   GL137321  34.569  38.353   9.121
 2650POPC   GL237322  34.459  37.999   9.194
 2650POPC   C1A37323  34.628  38.500   8.708
 2650POPC   D2A37324  34.811  38.489   8.302
 2650POPC   C3A37325  34.597  38.685   7.974
 2650POPC   C4A37326  34.407  38.568   7.587
 2650POPC   C1B37327  34.323  38.085   8.761
 2650POPC   C2B37328  34.436  38.138   8.331
 2650POPC   C3B37329  34.543  38.169   7.903
 2650POPC   C4B37330  34.358  37.928   7.596
 2651POPC   NC337331  23.306  17.003   9.352
 2651POPC   PO437332  23.325  16.340   9.409
 2651POPC   GL137333  23.108  16.404   9.013
 2651POPC   GL237334  23.051  16.748   8.976
 2651POPC   C1A37335  22.947  16.428   8.581
 2651POPC   D2A37336  22.937  16.774   8.288
 2651POPC   C3A37337  23.083  16.697   7.887
 2651POPC   C4A37338  22.763  16.437   7.820
 2651POPC   C1B37339  23.234  17.028   8.654
 2651POPC   C2B37340  23.188  17.213   8.245
 2651POPC   C3B37341  22.988  17.187   7.815
 2651POPC   C4B37342  23.163  17.009   7.411
 2652POPC   NC337343   2.131  37.426   9.468
 2652POPC   PO437344   2.217  38.086   9.359
 2652POPC   GL137345   2.184  37.772   9.038
 2652POPC   GL237346   2.258  37.412   8.978
 2652POPC   C1A37347   2.056  37.917   8.670
 2652POPC   D2A37348   2.408  38.053   8.431
 2652POPC   C3A37349   2.386  37.963   7.999
 2652POPC   C4A37350   1.997  37.960   7.758
 2652POPC   C1B37351   2.211  37.387   8.561
 2652POPC   C2B37352   2.071  37.652   8.246
 2652POPC   C3B37353   1.743  37.608   8.013
 2652POPC   C4B37354   1.812  37.307   7.714
 2653POPC   NC337355  19.750  38.675   9.597
 2653POPC   PO437356  20.328  38.263   9.579
 2653POPC   GL137357  20.088  38.443   9.252
 2653POPC   GL237358  19.969  38.127   9.178
 2653POPC   C1A37359  19.801  38.548   8.873
 2653POPC   D2A37360  19.720  38.751   8.437
 2653POPC   C3A37361  19.975  38.713   8.066
 2653POPC   C4A37362  19.777  38.772   7.680
 2653POPC   C1B37363  19.857  38.052   8.759
 2653POPC   C2B37364  19.911  38.300   8.406
 2653POPC   C3B37365  19.886  38.212   7.987
 2653POPC   C4B37366  19.920  37.958   7.623
 2654POPC   NC337367   5.086  10.010   9.517
 2654POPC   PO437368   5.472   9.392   9.624
 2654POPC   GL137369   5.292   9.670   9.203
 2654POPC   GL237370   5.391  10.052   9.095
 2654POPC   C1A37371   4.974   9.828   8.837
 2654POPC   D2A37372   4.851   9.628   8.420
 2654POPC   C3A37373   5.014   9.784   7.999
 2654POPC   C4A37374   4.910   9.837   7.562
 2654POPC   C1B37375   5.420   9.985   8.647
 2654POPC   C2B37376   5.365   9.647   8.354
 2654POPC   C3B37377   5.493   9.556   7.946
 2654POPC   C4B37378   5.430   9.706   7.546
 2655POPC   NC337379  31.923  42.532   9.428
 2655POPC   PO437380  32.506  42.304   9.714
 2655POPC   GL137381  32.421  42.439   9.281
 2655POPC   GL237382  32.225  42.158   9.223
 2655POPC   C1A37383  32.225  42.559   8.853
 2655POPC   D2A37384  32.290  42.663   8.411
 2655POPC   C3A37385  32.270  42.348   8.077
 2655POPC   C4A37386  32.281  42.384   7.645
 2655POPC   C1B37387  32.110  42.057   8.810
 2655POPC   C2B37388  31.972  42.104   8.424
 2655POPC   C3B37389  31.948  41.927   8.041
 2655POPC   C4B37390  32.122  41.912   7.671
 2656POPC   NC337391  11.620  21.347   9.530
 2656POPC   PO437392  12.285  21.132   9.432
 2656POPC   GL137393  12.172  21.404   9.100
 2656POPC   GL237394  11.833  21.376   9.072
 2656POPC   C1A37395  12.261  21.562   8.690
 2656POPC   D2A37396  12.273  21.407   8.270
 2656POPC   C3A37397  12.284  21.665   7.873
 2656POPC   C4A37398  12.173  21.810   7.460
 2656POPC   C1B37399  11.839  21.273   8.658
 2656POPC   C2B37400  11.731  21.480   8.255
 2656POPC   C3B37401  11.935  21.302   7.898
 2656POPC   C4B37402  12.314  21.104   7.845
 2657POPC   NC337403   0.011   7.137   9.495
 2657POPC   PO437404  44.424   7.555   9.630
 2657POPC   GL137405  44.583   7.353   9.288
 2657POPC   GL237406  44.833   7.600   9.223
 2657POPC   C1A37407  44.463   7.237   8.861
 2657POPC   D2A37408  44.355   7.495   8.505
 2657POPC   C3A37409  44.488   7.427   8.087
 2657POPC   C4A37410  44.488   7.706   7.761
 2657POPC   C1B37411  44.955   7.447   8.833
 2657POPC   C2B37412   0.142   7.244   8.481
 2657POPC   C3B37413   0.017   7.351   8.108
 2657POPC   C4B37414  44.942   7.479   7.728
 2658POPC   NC337415   9.886  13.848   9.462
 2658POPC   PO437416  10.263  13.326   9.471
 2658POPC   GL137417   9.846  13.386   9.217
 2658POPC   GL237418  10.014  13.626   9.011
 2658POPC   C1A37419   9.539  13.585   8.863
 2658POPC   D2A37420   9.721  13.597   8.454
 2658POPC   C3A37421   9.493  13.694   8.112
 2658POPC   C4A37422   9.638  13.671   7.714
 2658POPC   C1B37423   9.896  13.987   8.750
 2658POPC   C2B37424  10.144  14.123   8.385
 2658POPC   C3B37425  10.046  13.911   8.000
 2658POPC   C4B37426   9.971  13.996   7.558
 2659POPC   NC337427  44.468   6.247   9.868
 2659POPC   PO437428  44.952   6.196   9.420
 2659POPC   GL137429  44.834   6.540   9.135
 2659POPC   GL237430  44.661   6.843   9.191
 2659POPC   C1A37431  44.639   6.501   8.742
 2659POPC   D2A37432  44.870   6.540   8.398
 2659POPC   C3A37433  44.608   6.565   8.113
 2659POPC   C4A37434  44.709   6.523   7.743
 2659POPC   C1B37435  44.871   6.938   8.786
 2659POPC   C2B37436  44.689   7.027   8.353
 2659POPC   C3B37437  44.730   7.009   7.868
 2659POPC   C4B37438  44.815   7.109   7.398
 2660POPC   NC337439  43.309  41.890   9.718
 2660POPC   PO437440  42.810  41.486   9.519
 2660POPC   GL137441  43.152  41.630   9.275
 2660POPC   GL237442  43.439  41.391   9.313
 2660POPC   C1A37443  43.078  41.715   8.843
 2660POPC   D2A37444  43.283  41.696   8.453
 2660POPC   C3A37445  43.014  41.778   8.105
 2660POPC   C4A37446  42.735  41.713   7.742
 2660POPC   C1B37447  43.467  41.348   8.852
 2660POPC   C2B37448  43.643  41.342   8.435
 2660POPC   C3B37449  43.502  41.168   8.066
 2660POPC   C4B37450  43.114  41.347   7.843
 2661POPC   NC337451  32.027  33.772   9.610
 2661POPC   PO437452  31.807  34.309   9.312
 2661POPC   GL137453  32.089  33.926   9.107
 2661POPC   GL237454  32.251  33.560   9.161
 2661POPC   C1A37455  32.087  33.769   8.713
 2661POPC   D2A37456  31.967  33.911   8.326
 2661POPC   C3A37457  31.853  33.578   8.091
 2661POPC   C4A37458  32.100  33.602   7.783
 2661POPC   C1B37459  32.528  33.550   8.775
 2661POPC   C2B37460  32.327  33.516   8.338
 2661POPC   C3B37461  32.562  33.473   8.001
 2661POPC   C4B37462  32.691  33.752   7.736
 2662POPC   NC337463  12.810  10.289   9.414
 2662POPC   PO437464  12.612  10.901   9.512
 2662POPC   GL137465  12.907  10.839   9.143
 2662POPC   GL237466  13.175  10.567   9.132
 2662POPC   C1A37467  12.817  10.642   8.758
 2662POPC   D2A37468  12.878  10.429   8.393
 2662POPC   C3A37469  12.839  10.700   8.079
 2662POPC   C4A37470  12.641  10.577   7.765
 2662POPC   C1B37471  13.261  10.301   8.741
 2662POPC   C2B37472  13.308  10.178   8.282
 2662POPC   C3B37473  13.155  10.370   7.878
 2662POPC   C4B37474  13.406  10.476   7.504
 2663POPC   NC337475  29.695  34.908   9.390
 2663POPC   PO437476  30.077  34.364   9.548
 2663POPC   GL137477  30.136  34.645   9.225
 2663POPC   GL237478  29.835  34.489   9.108
 2663POPC   C1A37479  30.113  34.814   8.784
 2663POPC   D2A37480  30.222  34.739   8.323
 2663POPC   C3A37481  29.882  34.786   8.003
 2663POPC   C4A37482  29.555  34.778   7.677
 2663POPC   C1B37483  30.183  34.301   8.855
 2663POPC   C2B37484  30.277  34.236   8.439
 2663POPC   C3B37485  30.011  34.282   8.079
 2663POPC   C4B37486  29.877  34.382   7.688
 2664POPC   NC337487  20.289  41.263   9.528
 2664POPC   PO437488  20.690  41.774   9.570
 2664POPC   GL137489  20.486  41.669   9.168
 2664POPC   GL237490  20.302  41.342   9.037
 2664POPC   C1A37491  20.602  41.648   8.748
 2664POPC   D2A37492  20.448  41.604   8.334
 2664POPC   C3A37493  20.709  41.667   8.007
 2664POPC   C4A37494  20.487  41.833   7.693
 2664POPC   C1B37495  20.379  41.175   8.600
 2664POPC   C2B37496  20.339  41.138   8.124
 2664POPC   C3B37497  20.460  41.309   7.732
 2664POPC   C4B37498  20.364  41.410   7.317
 2665POPC   NC337499  32.807  42.672   9.661
 2665POPC   PO437500  33.263  42.167   9.514
 2665POPC   GL137501  33.231  42.414   9.167
 2665POPC   GL237502  32.919  42.574   9.175
 2665POPC   C1A37503  33.127  42.246   8.787
 2665POPC   D2A37504  32.858  42.302   8.472
 2665POPC   C3A37505  33.137  42.392   8.186
 2665POPC   C4A37506  33.073  42.241   7.830
 2665POPC   C1B37507  32.717  42.677   8.808
 2665POPC   C2B37508  32.785  42.822   8.412
 2665POPC   C3B37509  32.709  42.615   8.057
 2665POPC   C4B37510  32.634  42.747   7.693
 2666POPC   NC337511   8.517  35.170   9.342
 2666POPC   PO437512   9.139  35.358   9.581
 2666POPC   GL137513   9.128  35.351   9.139
 2666POPC   GL237514   8.971  35.019   9.122
 2666POPC   C1A37515   8.829  35.361   8.760
 2666POPC   D2A37516   8.622  35.157   8.421
 2666POPC   C3A37517   8.863  35.164   8.035
 2666POPC   C4A37518   9.161  35.370   7.770
 2666POPC   C1B37519   9.217  35.041   8.738
 2666POPC   C2B37520   9.346  35.142   8.328
 2666POPC   C3B37521   9.359  34.920   7.974
 2666POPC   C4B37522   9.380  34.946   7.529
 2667POPC   NC337523  13.167   1.300   9.803
 2667POPC   PO437524  12.485   1.426   9.610
 2667POPC   GL137525  12.482   1.211   9.196
 2667POPC   GL237526  12.823   1.335   9.121
 2667POPC   C1A37527  12.695   0.925   8.838
 2667POPC   D2A37528  13.105   0.998   8.576
 2667POPC   C3A37529  13.086   1.036   8.123
 2667POPC   C4A37530  12.734   0.902   7.896
 2667POPC   C1B37531  12.621   1.412   8.733
 2667POPC   C2B37532  12.635   1.182   8.357
 2667POPC   C3B37533  12.598   1.420   7.962
 2667POPC   C4B37534  12.673   1.540   7.522
 2668POPC   NC337535  21.143  41.783   9.547
 2668POPC   PO437536  21.484  41.181   9.435
 2668POPC   GL137537  21.427  41.607   9.157
 2668POPC   GL237538  21.100  41.800   9.051
 2668POPC   C1A37539  21.564  41.820   8.770
 2668POPC   D2A37540  21.551  41.559   8.392
 2668POPC   C3A37541  21.804  41.664   8.070
 2668POPC   C4A37542  21.765  41.838   7.662
 2668POPC   C1B37543  21.090  41.684   8.630
 2668POPC   C2B37544  21.096  41.896   8.263
 2668POPC   C3B37545  21.324  41.773   7.929
 2668POPC   C4B37546  21.425  41.352   7.913
 2669POPC   NC337547  19.303  43.268   9.365
 2669POPC   PO437548  19.038  42.653   9.510
 2669POPC   GL137549  18.997  42.874   9.120
 2669POPC   GL237550  18.876  43.203   9.016
 2669POPC   C1A37551  19.066  42.847   8.709
 2669POPC   D2A37552  19.360  42.862   8.438
 2669POPC   C3A37553  19.122  42.960   8.154
 2669POPC   C4A37554  19.092  42.783   7.807
 2669POPC   C1B37555  19.264  43.314   8.703
 2669POPC   C2B37556  19.391  43.400   8.262
 2669POPC   C3B37557  19.257  43.309   7.797
 2669POPC   C4B37558  18.859  43.157   7.565
 2670POPC   NC337559  24.971  41.747   9.505
 2670POPC   PO437560  25.358  42.296   9.476
 2670POPC   GL137561  25.311  42.144   9.114
 2670POPC   GL237562  24.932  42.135   9.098
 2670POPC   C1A37563  25.532  42.046   8.722
 2670POPC   D2A37564  25.382  42.064   8.296
 2670POPC   C3A37565  25.265  42.310   7.962
 2670POPC   C4A37566  25.003  42.214   7.651
 2670POPC   C1B37567  25.098  42.324   8.703
 2670POPC   C2B37568  25.037  42.566   8.348
 2670POPC   C3B37569  25.021  42.754   7.943
 2670POPC   C4B37570  24.761  42.691   7.624
 2671POPC   NC337571   0.746  14.099   9.670
 2671POPC   PO437572   0.137  13.990   9.344
 2671POPC   GL137573   0.328  14.153   9.023
 2671POPC   GL237574   0.577  14.315   9.228
 2671POPC   C1A37575   0.385  14.199   8.583
 2671POPC   D2A37576   0.544  14.173   8.172
 2671POPC   C3A37577   0.315  14.318   7.848
 2671POPC   C4A37578   0.314  14.618   7.584
 2671POPC   C1B37579   0.735  14.486   8.835
 2671POPC   C2B37580   0.600  14.636   8.412
 2671POPC   C3B37581   0.696  14.635   7.975
 2671POPC   C4B37582   0.853  14.565   7.569
 2672POPC   NC337583  30.265  28.284   9.746
 2672POPC   PO437584  30.949  28.216   9.517
 2672POPC   GL137585  30.828  28.175   9.119
 2672POPC   GL237586  30.577  28.412   9.149
 2672POPC   C1A37587  30.969  28.282   8.702
 2672POPC   D2A37588  31.034  28.018   8.334
 2672POPC   C3A37589  30.831  28.212   8.029
 2672POPC   C4A37590  30.933  28.339   7.644
 2672POPC   C1B37591  30.418  28.471   8.744
 2672POPC   C2B37592  30.471  28.276   8.379
 2672POPC   C3B37593  30.339  28.050   8.021
 2672POPC   C4B37594  30.428  28.260   7.665
 2673POPC   NC337595  32.002  21.354   9.493
 2673POPC   PO437596  32.622  21.408   9.804
 2673POPC   GL137597  32.485  21.390   9.293
 2673POPC   GL237598  32.230  21.176   9.085
 2673POPC   C1A37599  32.304  21.667   8.868
 2673POPC   D2A37600  32.210  21.889   8.471
 2673POPC   C3A37601  32.393  21.856   8.064
 2673POPC   C4A37602  32.180  21.608   7.741
 2673POPC   C1B37603  32.151  21.250   8.653
 2673POPC   C2B37604  32.331  21.398   8.273
 2673POPC   C3B37605  32.413  21.178   7.894
 2673POPC   C4B37606  32.221  20.960   7.581
 2674POPC   NC337607   1.065  30.202   9.589
 2674POPC   PO437608   0.995  29.586   9.290
 2674POPC   GL137609   1.380  29.793   9.206
 2674POPC   GL237610   1.347  30.118   9.173
 2674POPC   C1A37611   1.560  29.843   8.795
 2674POPC   D2A37612   1.316  29.708   8.469
 2674POPC   C3A37613   1.401  29.826   8.057
 2674POPC   C4A37614   1.159  29.655   7.731
 2674POPC   C1B37615   1.379  30.332   8.803
 2674POPC   C2B37616   1.224  30.207   8.399
 2674POPC   C3B37617   1.363  30.344   7.991
 2674POPC   C4B37618   1.376  30.173   7.578
 2675POPC   NC337619  20.894  36.150   9.571
 2675POPC   PO437620  20.913  36.802   9.450
 2675POPC   GL137621  20.764  36.337   9.126
 2675POPC   GL237622  20.407  36.182   9.146
 2675POPC   C1A37623  20.714  36.055   8.766
 2675POPC   D2A37624  20.865  36.234   8.423
 2675POPC   C3A37625  20.717  36.093   8.071
 2675POPC   C4A37626  20.722  36.262   7.718
 2675POPC   C1B37627  20.342  36.398   8.747
 2675POPC   C2B37628  20.361  36.398   8.314
 2675POPC   C3B37629  20.209  36.237   7.936
 2675POPC   C4B37630  20.195  36.400   7.524
 2676POPC   NC337631  39.070   5.818   9.611
 2676POPC   PO437632  39.611   6.295   9.515
 2676POPC   GL137633  39.573   5.957   9.158
 2676POPC   GL237634  39.335   5.675   9.197
 2676POPC   C1A37635  39.472   5.857   8.719
 2676POPC   D2A37636  39.585   5.741   8.305
 2676POPC   C3A37637  39.424   5.880   7.897
 2676POPC   C4A37638  39.489   5.862   7.462
 2676POPC   C1B37639  39.077   5.536   8.841
 2676POPC   C2B37640  39.089   5.706   8.404
 2676POPC   C3B37641  39.036   5.589   7.966
 2676POPC   C4B37642  38.990   5.759   7.572
 2677POPC   NC337643  44.794  10.143   9.659
 2677POPC   PO437644  44.455   9.835   9.182
 2677POPC   GL137645  44.640   9.978   8.840
 2677POPC   GL237646  44.986  10.018   8.961
 2677POPC   C1A37647  44.557   9.810   8.423
 2677POPC   D2A37648  44.515   9.444   8.169
 2677POPC   C3A37649  44.380   9.459   7.758
 2677POPC   C4A37650  44.510   9.745   7.415
 2677POPC   C1B37651   0.036   9.713   8.599
 2677POPC   C2B37652   0.011   9.658   8.171
 2677POPC   C3B37653  44.862   9.734   7.777
 2677POPC   C4B37654   0.075   9.789   7.381
 2678POPC   NC337655  26.193  20.233   5.482
 2678POPC   PO437656  25.827  19.716   5.274
 2678POPC   GL137657  26.037  19.698   5.681
 2678POPC   GL237658  25.873  19.974   5.854
 2678POPC   C1A37659  26.185  19.588   6.112
 2678POPC   D2A37660  25.957  19.735   6.505
 2678POPC   C3A37661  26.172  19.660   6.901
 2678POPC   C4A37662  26.153  19.707   7.332
 2678POPC   C1B37663  26.173  20.097   6.210
 2678POPC   C2B37664  26.267  20.121   6.674
 2678POPC   C3B37665  26.030  20.146   7.076
 2678POPC   C4B37666  26.142  20.174   7.553
 2679POPC   NC337667  13.969   8.151   5.616
 2679POPC   PO437668  13.562   8.444   5.211
 2679POPC   GL137669  13.542   8.387   5.772
 2679POPC   GL237670  13.752   8.224   6.044
 2679POPC   C1A37671  13.455   8.545   6.265
 2679POPC   D2A37672  13.743   8.242   6.544
 2679POPC   C3A37673  13.732   8.268   6.975
 2679POPC   C4A37674  13.417   8.529   7.095
 2679POPC   C1B37675  13.347   8.066   6.253
 2679POPC   C2B37676  13.237   8.230   6.685
 2679POPC   C3B37677  13.284   8.041   7.112
 2679POPC   C4B37678  13.651   7.906   7.368
 2680POPC   NC337679  13.313   4.314   5.377
 2680POPC   PO437680  12.723   4.063   5.432
 2680POPC   GL137681  12.722   4.204   5.858
 2680POPC   GL237682  13.029   4.425   5.901
 2680POPC   C1A37683  12.519   4.126   6.277
 2680POPC   D2A37684  12.397   4.220   6.717
 2680POPC   C3A37685  12.713   4.353   7.024
 2680POPC   C4A37686  12.626   4.529   7.436
 2680POPC   C1B37687  13.102   4.659   6.322
 2680POPC   C2B37688  13.046   4.814   6.786
 2680POPC   C3B37689  13.082   4.658   7.224
 2680POPC   C4B37690  13.067   4.272   7.483
 2681POPC   NC337691  23.269   2.483   5.384
 2681POPC   PO437692  22.633   2.434   5.261
 2681POPC   GL137693  22.743   2.650   5.696
 2681POPC   GL237694  23.025   2.466   5.828
 2681POPC   C1A37695  22.811   2.819   6.173
 2681POPC   D2A37696  23.062   2.950   6.593
 2681POPC   C3A37697  22.928   2.989   7.052
 2681POPC   C4A37698  23.232   3.033   7.427
 2681POPC   C1B37699  22.899   2.311   6.226
 2681POPC   C2B37700  22.775   2.507   6.610
 2681POPC   C3B37701  22.895   2.471   7.031
 2681POPC   C4B37702  22.935   2.629   7.449
 2682POPC   NC337703  12.998  24.763   5.306
 2682POPC   PO437704  12.363  24.545   5.402
 2682POPC   GL137705  12.597  24.735   5.738
 2682POPC   GL237706  12.816  24.458   5.740
 2682POPC   C1A37707  12.775  24.768   6.158
 2682POPC   D2A37708  12.893  24.554   6.536
 2682POPC   C3A37709  12.813  24.629   6.924
 2682POPC   C4A37710  12.691  24.755   7.299
 2682POPC   C1B37711  12.838  24.246   6.135
 2682POPC   C2B37712  13.149  24.140   6.455
 2682POPC   C3B37713  12.975  24.105   6.881
 2682POPC   C4B37714  13.084  24.324   7.272
 2683POPC   NC337715  34.915  26.006   5.234
 2683POPC   PO437716  35.614  25.843   5.254
 2683POPC   GL137717  35.426  25.851   5.649
 2683POPC   GL237718  35.560  26.139   5.802
 2683POPC   C1A37719  35.444  25.724   6.093
 2683POPC   D2A37720  35.478  25.819   6.531
 2683POPC   C3A37721  35.171  25.840   6.866
 2683POPC   C4A37722  35.269  25.925   7.270
 2683POPC   C1B37723  35.387  26.227   6.200
 2683POPC   C2B37724  35.151  26.243   6.551
 2683POPC   C3B37725  35.313  26.325   6.956
 2683POPC   C4B37726  35.314  26.569   7.316
 2684POPC   NC337727  29.494  13.660   5.467
 2684POPC   PO437728  30.177  13.858   5.550
 2684POPC   GL137729  29.848  13.719   5.839
 2684POPC   GL237730  29.524  13.879   5.926
 2684POPC   C1A37731  29.926  13.615   6.239
 2684POPC   D2A37732  29.900  13.794   6.619
 2684POPC   C3A37733  30.198  13.630   6.906
 2684POPC   C4A37734  30.176  13.539   7.311
 2684POPC   C1B37735  29.422  13.570   6.233
 2684POPC   C2B37736  29.493  13.503   6.664
 2684POPC   C3B37737  29.615  13.733   7.058
 2684POPC   C4B37738  29.682  13.535   7.441
 2685POPC   NC337739  12.048  38.029   5.576
 2685POPC   PO437740  11.620  37.388   5.480
 2685POPC   GL137741  11.874  37.608   5.788
 2685POPC   GL237742  12.246  37.617   5.814
 2685POPC   C1A37743  11.904  37.796   6.222
 2685POPC   D2A37744  12.051  37.591   6.606
 2685POPC   C3A37745  11.988  37.770   6.997
 2685POPC   C4A37746  11.822  37.615   7.373
 2685POPC   C1B37747  12.411  37.552   6.232
 2685POPC   C2B37748  12.520  37.769   6.612
 2685POPC   C3B37749  12.496  37.845   7.024
 2685POPC   C4B37750  12.290  37.795   7.418
 2686POPC   NC337751  38.629   8.570   5.314
 2686POPC   PO437752  38.667   9.209   5.216
 2686POPC   GL137753  38.478   8.960   5.598
 2686POPC   GL237754  38.145   8.804   5.650
 2686POPC   C1A37755  38.552   8.858   6.028
 2686POPC   D2A37756  38.471   9.189   6.345
 2686POPC   C3A37757  38.424   9.117   6.796
 2686POPC   C4A37758  38.597   9.314   7.173
 2686POPC   C1B37759  38.065   8.938   6.098
 2686POPC   C2B37760  38.189   8.764   6.501
 2686POPC   C3B37761  38.384   8.605   6.880
 2686POPC   C4B37762  38.311   8.860   7.213
 2687POPC   NC337763  21.621  22.819   5.491
 2687POPC   PO437764  20.898  22.890   5.313
 2687POPC   GL137765  21.186  23.019   5.707
 2687POPC   GL237766  21.189  22.733   5.896
 2687POPC   C1A37767  21.449  23.116   6.126
 2687POPC   D2A37768  21.788  22.944   6.409
 2687POPC   C3A37769  21.816  23.015   6.863
 2687POPC   C4A37770  21.507  23.107   7.197
 2687POPC   C1B37771  21.344  22.674   6.336
 2687POPC   C2B37772  21.352  22.881   6.717
 2687POPC   C3B37773  21.081  22.814   7.032
 2687POPC   C4B37774  20.915  22.423   7.217
 2688POPC   NC337775   9.333  11.556   5.328
 2688POPC   PO437776   9.797  11.158   5.302
 2688POPC   GL137777   9.787  11.454   5.680
 2688POPC   GL237778   9.448  11.514   5.834
 2688POPC   C1A37779   9.849  11.420   6.150
 2688POPC   D2A37780   9.723  11.149   6.498
 2688POPC   C3A37781   9.844  11.237   6.916
 2688POPC   C4A37782   9.625  11.154   7.291
 2688POPC   C1B37783   9.329  11.486   6.276
 2688POPC   C2B37784   9.471  11.582   6.693
 2688POPC   C3B37785   9.308  11.483   7.058
 2688POPC   C4B37786   9.293  11.607   7.449
 2689POPC   NC337787  13.632  14.639   5.345
 2689POPC   PO437788  13.497  14.057   5.485
 2689POPC   GL137789  13.438  14.368   5.814
 2689POPC   GL237790  13.469  14.738   5.809
 2689POPC   C1A37791  13.469  14.440   6.261
 2689POPC   D2A37792  13.807  14.488   6.563
 2689POPC   C3A37793  13.580  14.440   6.939
 2689POPC   C4A37794  13.780  14.223   7.273
 2689POPC   C1B37795  13.738  14.867   6.146
 2689POPC   C2B37796  13.566  14.924   6.556
 2689POPC   C3B37797  13.673  14.975   6.965
 2689POPC   C4B37798  13.812  14.733   7.310
 2690POPC   NC337799  10.247  18.867   5.479
 2690POPC   PO437800  10.383  18.150   5.299
 2690POPC   GL137801  10.611  18.196   5.674
 2690POPC   GL237802  10.634  18.551   5.661
 2690POPC   C1A37803  10.669  18.130   6.134
 2690POPC   D2A37804  10.402  18.127   6.522
 2690POPC   C3A37805  10.488  18.218   6.966
 2690POPC   C4A37806  10.272  18.285   7.390
 2690POPC   C1B37807  10.833  18.614   6.083
 2690POPC   C2B37808  10.783  18.480   6.510
 2690POPC   C3B37809  10.709  18.674   6.904
 2690POPC   C4B37810  10.720  18.553   7.304
 2691POPC   NC337811  27.000  13.237   5.507
 2691POPC   PO437812  26.402  12.893   5.316
 2691POPC   GL137813  26.681  12.891   5.744
 2691POPC   GL237814  27.064  12.796   5.791
 2691POPC   C1A37815  26.781  12.770   6.213
 2691POPC   D2A37816  26.987  12.814   6.633
 2691POPC   C3A37817  26.899  12.530   6.986
 2691POPC   C4A37818  26.592  12.514   7.321
 2691POPC   C1B37819  27.147  13.125   6.139
 2691POPC   C2B37820  27.232  13.257   6.571
 2691POPC   C3B37821  26.872  13.286   6.820
 2691POPC   C4B37822  26.850  13.005   7.153
 2692POPC   NC337823  20.353  11.547   5.283
 2692POPC   PO437824  20.808  11.089   5.127
 2692POPC   GL137825  20.620  11.178   5.522
 2692POPC   GL237826  20.526  10.913   5.740
 2692POPC   C1A37827  20.641  11.389   5.917
 2692POPC   D2A37828  20.575  11.382   6.383
 2692POPC   C3A37829  20.642  11.309   6.837
 2692POPC   C4A37830  20.379  11.345   7.241
 2692POPC   C1B37831  20.354  10.993   6.130
 2692POPC   C2B37832  20.471  10.847   6.549
 2692POPC   C3B37833  20.389  10.890   6.989
 2692POPC   C4B37834  20.798  10.902   7.185
 2693POPC   NC337835  19.124  39.849   5.355
 2693POPC   PO437836  19.322  40.552   5.391
 2693POPC   GL137837  19.303  40.145   5.749
 2693POPC   GL237838  19.116  39.792   5.852
 2693POPC   C1A37839  19.402  39.968   6.202
 2693POPC   D2A37840  19.254  39.710   6.523
 2693POPC   C3A37841  19.307  39.932   6.874
 2693POPC   C4A37842  19.440  39.844   7.251
 2693POPC   C1B37843  18.876  39.953   6.245
 2693POPC   C2B37844  18.823  40.056   6.709
 2693POPC   C3B37845  18.880  39.953   7.166
 2693POPC   C4B37846  18.753  39.864   7.618
 2694POPC   NC337847   2.924  33.321   5.519
 2694POPC   PO437848   2.426  32.864   5.325
 2694POPC   GL137849   2.633  32.911   5.692
 2694POPC   GL237850   2.468  32.638   5.825
 2694POPC   C1A37851   2.879  32.940   6.093
 2694POPC   D2A37852   3.011  33.159   6.492
 2694POPC   C3A37853   2.868  32.999   6.900
 2694POPC   C4A37854   2.746  32.660   7.187
 2694POPC   C1B37855   2.386  32.911   6.154
 2694POPC   C2B37856   2.456  33.142   6.518
 2694POPC   C3B37857   2.359  32.975   6.891
 2694POPC   C4B37858   2.508  33.126   7.253
 2695POPC   NC337859  19.507  32.164   5.575
 2695POPC   PO437860  20.076  32.582   5.581
 2695POPC   GL137861  19.909  32.276   5.881
 2695POPC   GL237862  20.170  32.121   6.038
 2695POPC   C1A37863  19.633  32.142   6.228
 2695POPC   D2A37864  19.480  32.286   6.637
 2695POPC   C3A37865  19.700  32.211   6.989
 2695POPC   C4A37866  20.052  32.410   7.183
 2695POPC   C1B37867  20.086  32.292   6.427
 2695POPC   C2B37868  19.936  31.937   6.595
 2695POPC   C3B37869  20.145  31.707   6.861
 2695POPC   C4B37870  20.047  31.884   7.228
 2696POPC   NC337871   5.873  15.327   5.438
 2696POPC   PO437872   6.137  14.681   5.535
 2696POPC   GL137873   6.149  14.929   5.905
 2696POPC   GL237874   5.956  15.219   5.915
 2696POPC   C1A37875   6.090  14.985   6.342
 2696POPC   D2A37876   6.060  15.222   6.706
 2696POPC   C3A37877   6.044  15.104   7.123
 2696POPC   C4A37878   6.027  14.745   7.371
 2696POPC   C1B37879   5.899  15.483   6.269
 2696POPC   C2B37880   5.677  15.553   6.661
 2696POPC   C3B37881   5.669  15.458   7.112
 2696POPC   C4B37882   5.681  15.514   7.578
 2697POPC   NC337883  43.379   0.566   5.552
 2697POPC   PO437884  42.812   0.179   5.460
 2697POPC   GL137885  42.974   0.338   5.793
 2697POPC   GL237886  42.939   0.695   5.847
 2697POPC   C1A37887  43.223   0.326   6.153
 2697POPC   D2A37888  43.165   0.549   6.511
 2697POPC   C3A37889  43.215   0.342   6.916
 2697POPC   C4A37890  43.129   0.465   7.351
 2697POPC   C1B37891  42.773   0.850   6.255
 2697POPC   C2B37892  42.843   0.907   6.717
 2697POPC   C3B37893  42.947   0.922   7.184
 2697POPC   C4B37894  42.801   0.762   7.613
 2698POPC   NC337895  32.859  34.308   5.596
 2698POPC   PO437896  33.273  34.881   5.395
 2698POPC   GL137897  33.169  34.706   5.799
 2698POPC   GL237898  33.274  34.362   5.888
 2698POPC   C1A37899  32.987  34.615   6.218
 2698POPC   D2A37900  33.170  34.485   6.593
 2698POPC   C3A37901  32.935  34.441   6.990
 2698POPC   C4A37902  32.797  34.807   7.214
 2698POPC   C1B37903  33.283  34.099   6.278
 2698POPC   C2B37904  33.157  34.001   6.732
 2698POPC   C3B37905  33.320  34.124   7.150
 2698POPC   C4B37906  33.310  34.164   7.635
 2699POPC   NC337907  24.646   4.734   4.923
 2699POPC   PO437908  24.209   4.649   5.406
 2699POPC   GL137909  24.278   4.580   5.866
 2699POPC   GL237910  24.536   4.347   5.913
 2699POPC   C1A37911  24.154   4.326   6.255
 2699POPC   D2A37912  24.171   4.208   6.700
 2699POPC   C3A37913  24.397   4.407   7.037
 2699POPC   C4A37914  24.433   4.744   7.351
 2699POPC   C1B37915  24.592   4.603   6.312
 2699POPC   C2B37916  24.691   4.704   6.757
 2699POPC   C3B37917  24.891   4.582   7.178
 2699POPC   C4B37918  24.932   4.515   7.645
 2700POPC   NC337919  15.597   1.267   5.110
 2700POPC   PO437920  14.999   1.524   5.428
 2700POPC   GL137921  14.947   1.357   5.833
 2700POPC   GL237922  14.722   1.070   5.909
 2700POPC   C1A37923  15.148   1.202   6.220
 2700POPC   D2A37924  15.175   0.996   6.619
 2700POPC   C3A37925  15.262   1.266   6.978
 2700POPC   C4A37926  15.225   0.955   7.275
 2700POPC   C1B37927  14.661   1.349   6.241
 2700POPC   C2B37928  14.847   1.375   6.643
 2700POPC   C3B37929  14.785   1.110   7.025
 2700POPC   C4B37930  14.886   1.300   7.454
 2701POPC   NC337931  29.069  28.058   5.011
 2701POPC   PO437932  29.386  28.485   5.348
 2701POPC   GL137933  29.397  28.299   5.817
 2701POPC   GL237934  29.382  27.917   5.837
 2701POPC   C1A37935  29.277  28.268   6.297
 2701POPC   D2A37936  29.015  28.109   6.689
 2701POPC   C3A37937  29.072  28.364   7.086
 2701POPC   C4A37938  28.895  28.579   7.457
 2701POPC   C1B37939  29.318  27.767   6.280
 2701POPC   C2B37940  29.490  27.939   6.701
 2701POPC   C3B37941  29.276  27.896   7.115
 2701POPC   C4B37942  29.070  28.081   7.520
 2702POPC   NC337943  30.888  18.746   5.432
 2702POPC   PO437944  30.480  18.210   5.378
 2702POPC   GL137945  30.620  18.441   5.775
 2702POPC   GL237946  30.920  18.296   5.941
 2702POPC   C1A37947  30.443  18.328   6.213
 2702POPC   D2A37948  30.329  18.298   6.649
 2702POPC   C3A37949  30.703  18.425   6.892
 2702POPC   C4A37950  30.921  18.236   7.229
 2702POPC   C1B37951  30.890  18.461   6.384
 2702POPC   C2B37952  31.166  18.622   6.716
 2702POPC   C3B37953  31.193  18.655   7.153
 2702POPC   C4B37954  31.083  18.593   7.640
 2703POPC   NC337955   6.041  28.283   5.391
 2703POPC   PO437956   5.404  28.523   5.552
 2703POPC   GL137957   5.689  28.288   5.830
 2703POPC   GL237958   5.944  28.022   5.803
 2703POPC   C1A37959   5.847  28.467   6.234
 2703POPC   D2A37960   6.071  28.577   6.626
 2703POPC   C3A37961   5.877  28.437   7.035
 2703POPC   C4A37962   5.950  28.379   7.504
 2703POPC   C1B37963   5.858  27.963   6.214
 2703POPC   C2B37964   5.974  28.075   6.618
 2703POPC   C3B37965   5.826  27.911   6.975
 2703POPC   C4B37966   6.062  27.929   7.319
 2704POPC   NC337967  20.170  36.287   5.636
 2704POPC   PO437968  20.124  35.748   5.166
 2704POPC   GL137969  19.964  35.776   5.641
 2704POPC   GL237970  19.692  35.997   5.789
 2704POPC   C1A37971  19.893  35.661   6.107
 2704POPC   D2A37972  19.670  35.679   6.505
 2704POPC   C3A37973  19.831  36.023   6.770
 2704POPC   C4A37974  20.072  36.096   7.143
 2704POPC   C1B37975  19.412  36.210   6.112
 2704POPC   C2B37976  19.469  36.412   6.540
 2704POPC   C3B37977  19.343  36.428   6.970
 2704POPC   C4B37978  19.435  36.202   7.344
 2705POPC   NC337979  21.033   0.101   5.501
 2705POPC   PO437980  20.764  44.501   5.522
 2705POPC   GL137981  20.608  44.604   5.931
 2705POPC   GL237982  20.635  44.924   5.882
 2705POPC   C1A37983  20.519  44.743   6.354
 2705POPC   D2A37984  20.678  44.513   6.693
 2705POPC   C3A37985  20.368  44.533   7.015
 2705POPC   C4A37986  20.368  44.655   7.425
 2705POPC   C1B37987  20.875   0.109   6.178
 2705POPC   C2B37988  20.776   0.140   6.598
 2705POPC   C3B37989  20.583   0.001   6.985
 2705POPC   C4B37990  20.764  44.942   7.411
 2706POPC   NC337991  10.091  22.528   5.357
 2706POPC   PO437992  10.490  21.922   5.347
 2706POPC   GL137993  10.339  22.117   5.744
 2706POPC   GL237994  10.420  22.462   5.767
 2706POPC   C1A37995  10.457  22.016   6.194
 2706POPC   D2A37996  10.750  21.824   6.488
 2706POPC   C3A37997  10.637  21.899   6.896
 2706POPC   C4A37998  10.453  21.930   7.274
 2706POPC   C1B37999  10.347  22.517   6.219
 2706POPC   C2B38000  10.343  22.336   6.644
 2706POPC   C3B38001  10.466  22.385   7.094
 2706POPC   C4B38002  10.550  22.410   7.574
 2707POPC   NC338003  28.821  40.755   5.420
 2707POPC   PO438004  29.452  40.904   5.544
 2707POPC   GL138005  29.178  40.664   5.826
 2707POPC   GL238006  28.837  40.521   5.876
 2707POPC   C1A38007  29.035  40.890   6.192
 2707POPC   D2A38008  29.180  41.015   6.582
 2707POPC   C3A38009  29.170  40.887   6.985
 2707POPC   C4A38010  28.904  40.948   7.315
 2707POPC   C1B38011  29.052  40.399   6.265
 2707POPC   C2B38012  28.918  40.549   6.670
 2707POPC   C3B38013  28.911  40.480   7.130
 2707POPC   C4B38014  28.887  40.537   7.615
 2708POPC   NC338015  27.793  40.103   5.304
 2708POPC   PO438016  27.157  39.782   5.319
 2708POPC   GL138017  27.389  39.999   5.684
 2708POPC   GL238018  27.769  39.910   5.772
 2708POPC   C1A38019  27.391  39.822   6.121
 2708POPC   D2A38020  27.280  39.830   6.576
 2708POPC   C3A38021  27.603  39.916   6.910
 2708POPC   C4A38022  27.797  39.702   7.260
 2708POPC   C1B38023  28.078  40.081   6.078
 2708POPC   C2B38024  27.989  40.177   6.517
 2708POPC   C3B38025  27.991  40.370   6.907
 2708POPC   C4B38026  28.037  40.184   7.317
 2709POPC   NC338027  33.242  21.813   5.516
 2709POPC   PO438028  33.164  21.098   5.526
 2709POPC   GL138029  32.963  21.456   5.738
 2709POPC   GL238030  32.984  21.234   5.980
 2709POPC   C1A38031  33.058  21.702   6.143
 2709POPC   D2A38032  32.967  21.387   6.469
 2709POPC   C3A38033  33.069  21.459   6.865
 2709POPC   C4A38034  32.962  21.324   7.264
 2709POPC   C1B38035  32.707  21.009   6.185
 2709POPC   C2B38036  32.502  21.094   6.551
 2709POPC   C3B38037  32.653  21.095   6.950
 2709POPC   C4B38038  32.664  20.870   7.346
 2710POPC   NC338039  32.894  14.715   5.353
 2710POPC   PO438040  32.811  14.000   5.356
 2710POPC   GL138041  32.753  14.346   5.668
 2710POPC   GL238042  33.102  14.505   5.748
 2710POPC   C1A38043  32.774  14.428   6.121
 2710POPC   D2A38044  32.982  14.230   6.478
 2710POPC   C3A38045  32.908  14.432   6.872
 2710POPC   C4A38046  32.785  14.313   7.273
 2710POPC   C1B38047  33.352  14.529   6.112
 2710POPC   C2B38048  33.492  14.377   6.510
 2710POPC   C3B38049  33.397  14.302   6.909
 2710POPC   C4B38050  33.267  14.601   7.192
 2711POPC   NC338051  22.929  15.486   5.395
 2711POPC   PO438052  22.637  14.801   5.236
 2711POPC   GL138053  22.660  15.068   5.623
 2711POPC   GL238054  23.031  15.077   5.666
 2711POPC   C1A38055  22.683  15.279   6.054
 2711POPC   D2A38056  22.704  15.277   6.540
 2711POPC   C3A38057  22.946  15.237   6.937
 2711POPC   C4A38058  22.845  15.266   7.367
 2711POPC   C1B38059  23.164  15.146   6.089
 2711POPC   C2B38060  23.260  15.149   6.518
 2711POPC   C3B38061  23.475  15.330   6.851
 2711POPC   C4B38062  23.351  15.352   7.274
 2712POPC   NC338063  42.112  41.444   5.640
 2712POPC   PO438064  42.530  41.517   5.168
 2712POPC   GL138065  42.552  41.643   5.684
 2712POPC   GL238066  42.321  41.884   5.809
 2712POPC   C1A38067  42.594  41.626   6.150
 2712POPC   D2A38068  42.405  41.367   6.489
 2712POPC   C3A38069  42.482  41.594   6.868
 2712POPC   C4A38070  42.480  41.600   7.300
 2712POPC   C1B38071  42.102  41.705   6.222
 2712POPC   C2B38072  41.997  41.652   6.672
 2712POPC   C3B38073  41.995  41.513   7.089
 2712POPC   C4B38074  42.060  41.886   7.330
 2713POPC   NC338075  11.328  13.478   5.356
 2713POPC   PO438076  11.284  14.054   5.534
 2713POPC   GL138077  11.428  13.718   5.802
 2713POPC   GL238078  11.166  13.455   5.842
 2713POPC   C1A38079  11.572  13.731   6.218
 2713POPC   D2A38080  11.412  13.728   6.616
 2713POPC   C3A38081  11.550  13.651   7.012
 2713POPC   C4A38082  11.342  13.739   7.424
 2713POPC   C1B38083  11.424  13.257   6.170
 2713POPC   C2B38084  11.255  13.234   6.581
 2713POPC   C3B38085  11.097  13.441   6.936
 2713POPC   C4B38086  11.065  13.304   7.344
 2714POPC   NC338087  24.261  24.940   5.340
 2714POPC   PO438088  24.700  25.346   5.067
 2714POPC   GL138089  24.644  25.412   5.559
 2714POPC   GL238090  24.473  25.118   5.762
 2714POPC   C1A38091  24.629  25.519   6.038
 2714POPC   D2A38092  24.388  25.454   6.444
 2714POPC   C3A38093  24.464  25.339   6.892
 2714POPC   C4A38094  24.518  25.423   7.331
 2714POPC   C1B38095  24.290  24.877   6.133
 2714POPC   C2B38096  24.330  24.944   6.564
 2714POPC   C3B38097  24.274  24.795   6.972
 2714POPC   C4B38098  24.464  24.800   7.379
 2715POPC   NC338099  11.705   3.619   5.196
 2715POPC   PO438100  12.312   3.351   5.377
 2715POPC   GL138101  12.097   3.448   5.728
 2715POPC   GL238102  11.849   3.262   5.616
 2715POPC   C1A38103  12.044   3.646   6.124
 2715POPC   D2A38104  12.171   3.815   6.506
 2715POPC   C3A38105  12.127   3.651   6.904
 2715POPC   C4A38106  12.107   3.707   7.329
 2715POPC   C1B38107  11.810   3.200   6.101
 2715POPC   C2B38108  11.884   3.341   6.548
 2715POPC   C3B38109  11.728   3.300   6.982
 2715POPC   C4B38110  11.714   3.387   7.424
 2716POPC   NC338111   3.174  30.000   5.474
 2716POPC   PO438112   2.573  29.651   5.261
 2716POPC   GL138113   2.667  29.879   5.688
 2716POPC   GL238114   2.745  29.680   6.015
 2716POPC   C1A38115   2.738  30.185   6.057
 2716POPC   D2A38116   2.873  30.057   6.489
 2716POPC   C3A38117   2.687  30.227   6.876
 2716POPC   C4A38118   2.680  30.021   7.267
 2716POPC   C1B38119   3.135  29.622   6.307
 2716POPC   C2B38120   3.364  29.825   6.650
 2716POPC   C3B38121   3.243  29.667   7.076
 2716POPC   C4B38122   3.148  29.656   7.515
 2717POPC   NC338123  30.363  38.074   5.433
 2717POPC   PO438124  30.364  37.367   5.410
 2717POPC   GL138125  30.434  37.653   5.725
 2717POPC   GL238126  30.760  37.783   5.636
 2717POPC   C1A38127  30.397  37.816   6.147
 2717POPC   D2A38128  30.484  37.643   6.550
 2717POPC   C3A38129  30.358  37.767   6.967
 2717POPC   C4A38130  30.538  37.567   7.315
 2717POPC   C1B38131  30.892  37.650   6.072
 2717POPC   C2B38132  30.976  37.847   6.492
 2717POPC   C3B38133  30.911  37.772   6.940
 2717POPC   C4B38134  30.888  37.941   7.372
 2718POPC   NC338135  13.666   3.032   5.441
 2718POPC   PO438136  13.470   2.482   5.117
 2718POPC   GL138137  13.590   2.554   5.613
 2718POPC   GL238138  13.323   2.731   5.831
 2718POPC   C1A38139  13.738   2.547   6.070
 2718POPC   D2A38140  13.835   2.678   6.513
 2718POPC   C3A38141  13.832   2.870   6.905
 2718POPC   C4A38142  13.737   2.719   7.283
 2718POPC   C1B38143  13.181   2.774   6.271
 2718POPC   C2B38144  13.347   2.797   6.704
 2718POPC   C3B38145  13.339   3.058   7.094
 2718POPC   C4B38146  13.462   3.053   7.554
 2719POPC   NC338147   3.657  10.840   5.638
 2719POPC   PO438148   3.468  10.294   5.260
 2719POPC   GL138149   3.306  10.340   5.740
 2719POPC   GL238150   3.419  10.574   5.970
 2719POPC   C1A38151   3.152  10.227   6.197
 2719POPC   D2A38152   3.149  10.395   6.661
 2719POPC   C3A38153   3.524  10.506   6.910
 2719POPC   C4A38154   3.605  10.560   7.336
 2719POPC   C1B38155   3.640  10.728   6.337
 2719POPC   C2B38156   3.838  10.924   6.704
 2719POPC   C3B38157   3.805  11.002   7.151
 2719POPC   C4B38158   3.540  11.058   7.518
 2720POPC   NC338159  31.338  38.089   5.656
 2720POPC   PO438160  31.547  37.588   5.311
 2720POPC   GL138161  31.791  37.830   5.634
 2720POPC   GL238162  31.570  37.640   5.842
 2720POPC   C1A38163  31.921  37.916   6.087
 2720POPC   D2A38164  31.936  37.760   6.538
 2720POPC   C3A38165  31.806  38.024   6.950
 2720POPC   C4A38166  31.751  37.945   7.453
 2720POPC   C1B38167  31.454  37.724   6.277
 2720POPC   C2B38168  31.450  37.738   6.731
 2720POPC   C3B38169  31.354  37.560   7.114
 2720POPC   C4B38170  30.945  37.312   7.163
 2721POPC   NC338171   4.937  26.437   5.388
 2721POPC   PO438172   5.140  25.828   5.361
 2721POPC   GL138173   5.062  26.047   5.717
 2721POPC   GL238174   5.309  26.322   5.731
 2721POPC   C1A38175   4.957  25.857   6.095
 2721POPC   D2A38176   5.115  25.818   6.503
 2721POPC   C3A38177   4.879  25.926   6.872
 2721POPC   C4A38178   5.036  25.956   7.278
 2721POPC   C1B38179   5.307  26.227   6.184
 2721POPC   C2B38180   5.096  26.336   6.576
 2721POPC   C3B38181   5.111  26.396   7.018
 2721POPC   C4B38182   5.452  26.417   7.339
 2722POPC   NC338183  21.788  34.090   5.288
 2722POPC   PO438184  21.116  33.752   5.388
 2722POPC   GL138185  21.355  33.776   5.767
 2722POPC   GL238186  21.150  34.016   5.967
 2722POPC   C1A38187  21.593  33.893   6.144
 2722POPC   D2A38188  21.368  34.092   6.467
 2722POPC   C3A38189  21.469  33.964   6.870
 2722POPC   C4A38190  21.475  33.944   7.298
 2722POPC   C1B38191  21.128  33.668   6.249
 2722POPC   C2B38192  21.033  33.756   6.682
 2722POPC   C3B38193  21.004  34.197   6.837
 2722POPC   C4B38194  21.082  34.383   7.221
 2723POPC   NC338195  13.592  42.014   5.424
 2723POPC   PO438196  13.880  41.379   5.396
 2723POPC   GL138197  13.607  41.561   5.696
 2723POPC   GL238198  13.223  41.607   5.633
 2723POPC   C1A38199  13.734  41.499   6.118
 2723POPC   D2A38200  13.666  41.338   6.509
 2723POPC   C3A38201  13.701  41.583   6.875
 2723POPC   C4A38202  13.669  41.706   7.289
 2723POPC   C1B38203  13.224  41.496   6.101
 2723POPC   C2B38204  13.287  41.661   6.550
 2723POPC   C3B38205  13.206  41.589   7.026
 2723POPC   C4B38206  13.185  41.770   7.477
 2724POPC   NC338207  29.352  19.738   5.471
 2724POPC   PO438208  29.102  20.356   5.298
 2724POPC   GL138209  29.026  20.109   5.692
 2724POPC   GL238210  29.367  20.053   5.867
 2724POPC   C1A38211  28.856  20.007   6.128
 2724POPC   D2A38212  29.049  19.933   6.556
 2724POPC   C3A38213  28.828  19.939   6.966
 2724POPC   C4A38214  28.950  19.938   7.414
 2724POPC   C1B38215  29.302  19.701   6.153
 2724POPC   C2B38216  29.330  19.502   6.577
 2724POPC   C3B38217  29.228  19.625   7.001
 2724POPC   C4B38218  29.451  19.855   7.295
 2725POPC   NC338219  13.090  29.471   5.416
 2725POPC   PO438220  12.602  29.889   5.388
 2725POPC   GL138221  12.777  29.883   5.783
 2725POPC   GL238222  12.737  30.187   5.929
 2725POPC   C1A38223  12.645  29.786   6.223
 2725POPC   D2A38224  12.476  29.929   6.597
 2725POPC   C3A38225  12.654  29.847   6.994
 2725POPC   C4A38226  12.784  29.672   7.394
 2725POPC   C1B38227  12.936  30.224   6.303
 2725POPC   C2B38228  12.853  30.249   6.714
 2725POPC   C3B38229  12.985  30.232   7.090
 2725POPC   C4B38230  13.105  30.065   7.445
 2726POPC   NC338231  11.141  41.822   5.393
 2726POPC   PO438232  11.406  41.217   5.418
 2726POPC   GL138233  11.391  41.524   5.778
 2726POPC   GL238234  11.639  41.764   5.776
 2726POPC   C1A38235  11.314  41.509   6.260
 2726POPC   D2A38236  11.390  41.313   6.696
 2726POPC   C3A38237  11.220  41.436   7.072
 2726POPC   C4A38238  11.431  41.637   7.424
 2726POPC   C1B38239  11.622  41.912   6.184
 2726POPC   C2B38240  11.627  41.775   6.604
 2726POPC   C3B38241  11.413  41.895   6.972
 2726POPC   C4B38242  11.490  42.133   7.358
 2727POPC   NC338243   1.138  33.590   5.425
 2727POPC   PO438244   1.415  34.266   5.450
 2727POPC   GL138245   1.295  33.976   5.766
 2727POPC   GL238246   0.932  33.978   5.736
 2727POPC   C1A38247   1.222  33.737   6.151
 2727POPC   D2A38248   1.084  33.530   6.535
 2727POPC   C3A38249   1.170  33.704   6.961
 2727POPC   C4A38250   0.860  33.531   7.247
 2727POPC   C1B38251   0.947  34.173   6.153
 2727POPC   C2B38252   1.009  34.042   6.583
 2727POPC   C3B38253   1.068  34.202   7.018
 2727POPC   C4B38254   0.892  34.053   7.415
 2728POPC   NC338255  15.453  23.463   5.476
 2728POPC   PO438256  15.160  22.815   5.330
 2728POPC   GL138257  15.123  22.861   5.783
 2728POPC   GL238258  14.852  22.640   5.858
 2728POPC   C1A38259  15.258  22.930   6.231
 2728POPC   D2A38260  15.574  22.921   6.608
 2728POPC   C3A38261  15.494  22.855   7.065
 2728POPC   C4A38262  15.372  22.991   7.512
 2728POPC   C1B38263  14.756  22.775   6.262
 2728POPC   C2B38264  15.022  22.795   6.665
 2728POPC   C3B38265  15.000  22.913   7.111
 2728POPC   C4B38266  14.930  22.718   7.518
 2729POPC   NC338267  35.495   5.734   5.483
 2729POPC   PO438268  35.033   5.363   5.520
 2729POPC   GL138269  35.244   5.543   5.898
 2729POPC   GL238270  35.204   5.916   5.904
 2729POPC   C1A38271  35.352   5.682   6.343
 2729POPC   D2A38272  35.240   6.043   6.646
 2729POPC   C3A38273  35.405   5.990   7.073
 2729POPC   C4A38274  35.725   6.153   7.391
 2729POPC   C1B38275  34.950   6.167   6.232
 2729POPC   C2B38276  34.745   6.258   6.650
 2729POPC   C3B38277  34.914   6.252   7.079
 2729POPC   C4B38278  35.219   6.342   7.409
 2730POPC   NC338279  13.287  40.416   5.414
 2730POPC   PO438280  13.625  39.907   5.552
 2730POPC   GL138281  13.543  40.005   5.894
 2730POPC   GL238282  13.520  40.347   5.864
 2730POPC   C1A38283  13.625  39.795   6.255
 2730POPC   D2A38284  13.499  39.934   6.637
 2730POPC   C3A38285  13.836  39.932   6.881
 2730POPC   C4A38286  13.704  39.752   7.246
 2730POPC   C1B38287  13.647  40.320   6.272
 2730POPC   C2B38288  13.613  40.471   6.647
 2730POPC   C3B38289  13.517  40.320   7.012
 2730POPC   C4B38290  13.543  40.473   7.378
 2731POPC   NC338291  16.666  35.711   5.358
 2731POPC   PO438292  16.791  35.050   5.497
 2731POPC   GL138293  16.714  35.351   5.810
 2731POPC   GL238294  16.978  35.616   5.767
 2731POPC   C1A38295  16.712  35.214   6.251
 2731POPC   D2A38296  16.494  35.240   6.632
 2731POPC   C3A38297  16.729  35.132   6.993
 2731POPC   C4A38298  16.480  35.295   7.284
 2731POPC   C1B38299  16.847  35.721   6.176
 2731POPC   C2B38300  16.925  35.606   6.602
 2731POPC   C3B38301  16.734  35.660   7.007
 2731POPC   C4B38302  16.923  35.619   7.404
 2732POPC   NC338303  21.765  26.985   5.365
 2732POPC   PO438304  22.122  27.682   5.399
 2732POPC   GL138305  22.205  27.590   5.807
 2732POPC   GL238306  22.127  27.227   5.739
 2732POPC   C1A38307  22.045  27.688   6.213
 2732POPC   D2A38308  22.030  27.465   6.599
 2732POPC   C3A38309  22.319  27.615   6.877
 2732POPC   C4A38310  22.019  27.675   7.171
 2732POPC   C1B38311  22.203  27.206   6.177
 2732POPC   C2B38312  22.523  27.292   6.495
 2732POPC   C3B38313  22.579  27.165   6.916
 2732POPC   C4B38314  22.245  27.188   7.155
 2733POPC   NC338315  26.806  39.811   5.616
 2733POPC   PO438316  26.798  39.255   5.278
 2733POPC   GL138317  26.896  39.085   5.694
 2733POPC   GL238318  26.968  39.402   5.855
 2733POPC   C1A38319  26.773  39.028   6.145
 2733POPC   D2A38320  26.881  39.017   6.578
 2733POPC   C3A38321  26.661  39.213   6.932
 2733POPC   C4A38322  26.765  39.292   7.303
 2733POPC   C1B38323  27.139  39.396   6.279
 2733POPC   C2B38324  27.268  39.327   6.713
 2733POPC   C3B38325  27.235  39.557   7.113
 2733POPC   C4B38326  27.320  39.611   7.562
 2734POPC   NC338327  28.752  43.418   5.470
 2734POPC   PO438328  28.106  43.584   5.498
 2734POPC   GL138329  28.233  43.749   5.885
 2734POPC   GL238330  28.609  43.682   5.923
 2734POPC   C1A38331  28.258  43.564   6.293
 2734POPC   D2A38332  28.539  43.567   6.608
 2734POPC   C3A38333  28.332  43.780   6.901
 2734POPC   C4A38334  28.476  43.701   7.249
 2734POPC   C1B38335  28.524  43.988   6.284
 2734POPC   C2B38336  28.624  44.136   6.693
 2734POPC   C3B38337  28.649  44.177   7.158
 2734POPC   C4B38338  28.542  44.436   7.536
 2735POPC   NC338339  32.546  16.569   5.371
 2735POPC   PO438340  32.959  17.107   5.391
 2735POPC   GL138341  32.872  16.850   5.727
 2735POPC   GL238342  33.023  16.524   5.725
 2735POPC   C1A38343  32.938  16.892   6.162
 2735POPC   D2A38344  33.250  17.014   6.499
 2735POPC   C3A38345  33.160  16.799   6.857
 2735POPC   C4A38346  32.934  16.968   7.172
 2735POPC   C1B38347  32.985  16.332   6.130
 2735POPC   C2B38348  32.882  16.533   6.504
 2735POPC   C3B38349  32.777  16.463   6.922
 2735POPC   C4B38350  33.072  16.254   7.104
 2736POPC   NC338351  28.632   5.404   5.438
 2736POPC   PO438352  28.102   5.773   5.492
 2736POPC   GL138353  28.349   5.676   5.850
 2736POPC   GL238354  28.510   5.964   5.917
 2736POPC   C1A38355  28.303   5.665   6.327
 2736POPC   D2A38356  28.447   5.920   6.688
 2736POPC   C3A38357  28.424   5.814   7.155
 2736POPC   C4A38358  28.077   5.904   7.481
 2736POPC   C1B38359  28.311   6.194   6.244
 2736POPC   C2B38360  28.190   6.396   6.611
 2736POPC   C3B38361  28.141   6.197   6.986
 2736POPC   C4B38362  28.341   6.312   7.329
 2737POPC   NC338363   2.357  26.143   5.410
 2737POPC   PO438364   3.003  26.027   5.313
 2737POPC   GL138365   2.793  26.103   5.743
 2737POPC   GL238366   2.587  25.805   5.745
 2737POPC   C1A38367   2.790  26.257   6.218
 2737POPC   D2A38368   2.760  26.097   6.678
 2737POPC   C3A38369   2.964  26.285   7.078
 2737POPC   C4A38370   2.931  26.436   7.556
 2737POPC   C1B38371   2.792  25.747   6.186
 2737POPC   C2B38372   2.898  25.587   6.612
 2737POPC   C3B38373   2.817  25.716   7.056
 2737POPC   C4B38374   2.733  25.987   7.420
 2738POPC   NC338375  28.504  36.305   5.404
 2738POPC   PO438376  27.870  36.044   5.567
 2738POPC   GL138377  28.255  36.062   5.821
 2738POPC   GL238378  28.527  35.818   5.825
 2738POPC   C1A38379  28.103  35.974   6.233
 2738POPC   D2A38380  28.079  36.169   6.624
 2738POPC   C3A38381  27.920  35.981   6.951
 2738POPC   C4A38382  28.070  35.973   7.325
 2738POPC   C1B38383  28.604  36.038   6.224
 2738POPC   C2B38384  28.788  36.004   6.608
 2738POPC   C3B38385  28.497  36.021   6.943
 2738POPC   C4B38386  28.526  36.198   7.333
 2739POPC   NC338387  17.897  32.770   5.430
 2739POPC   PO438388  18.553  33.013   5.437
 2739POPC   GL138389  18.290  32.910   5.780
 2739POPC   GL238390  18.043  33.175   5.830
 2739POPC   C1A38391  18.367  32.874   6.213
 2739POPC   D2A38392  18.148  32.748   6.575
 2739POPC   C3A38393  18.347  32.838   6.915
 2739POPC   C4A38394  18.279  32.984   7.317
 2739POPC   C1B38395  17.883  32.960   6.173
 2739POPC   C2B38396  17.718  33.007   6.570
 2739POPC   C3B38397  17.851  33.029   7.001
 2739POPC   C4B38398  17.786  33.120   7.458
 2740POPC   NC338399   3.779   9.971   5.432
 2740POPC   PO438400   4.426   9.791   5.364
 2740POPC   GL138401   4.310   9.971   5.727
 2740POPC   GL238402   4.123   9.699   5.845
 2740POPC   C1A38403   4.458   9.982   6.151
 2740POPC   D2A38404   4.649   9.778   6.529
 2740POPC   C3A38405   4.438   9.820   6.900
 2740POPC   C4A38406   4.511   9.668   7.318
 2740POPC   C1B38407   4.000   9.486   6.229
 2740POPC   C2B38408   4.220   9.431   6.628
 2740POPC   C3B38409   4.166   9.392   7.085
 2740POPC   C4B38410   4.208   9.305   7.505
 2741POPC   NC338411  25.145   9.540   5.653
 2741POPC   PO438412  25.384  10.168   5.449
 2741POPC   GL138413  25.224  10.022   5.821
 2741POPC   GL238414  25.541   9.820   5.896
 2741POPC   C1A38415  25.176   9.866   6.259
 2741POPC   D2A38416  25.182  10.074   6.655
 2741POPC   C3A38417  25.292   9.883   7.048
 2741POPC   C4A38418  25.167   9.912   7.476
 2741POPC   C1B38419  25.634   9.526   6.257
 2741POPC   C2B38420  25.453   9.458   6.630
 2741POPC   C3B38421  25.663   9.530   6.983
 2741POPC   C4B38422  25.489   9.514   7.377
 2742POPC   NC338423  27.305  21.274   5.181
 2742POPC   PO438424  27.842  21.169   5.555
 2742POPC   GL138425  27.579  21.426   5.835
 2742POPC   GL238426  27.200  21.403   5.772
 2742POPC   C1A38427  27.656  21.686   6.205
 2742POPC   D2A38428  27.537  21.564   6.608
 2742POPC   C3A38429  27.753  21.557   7.005
 2742POPC   C4A38430  27.722  21.195   7.268
 2742POPC   C1B38431  27.126  21.533   6.230
 2742POPC   C2B38432  27.108  21.282   6.642
 2742POPC   C3B38433  27.245  21.359   7.074
 2742POPC   C4B38434  27.203  21.674   7.373
 2743POPC   NC338435  27.249  39.324   5.370
 2743POPC   PO438436  27.791  39.014   5.419
 2743POPC   GL138437  27.800  39.207   5.834
 2743POPC   GL238438  27.435  39.203   5.901
 2743POPC   C1A38439  27.734  39.324   6.295
 2743POPC   D2A38440  27.741  39.106   6.692
 2743POPC   C3A38441  27.920  39.233   7.097
 2743POPC   C4A38442  27.638  39.245   7.455
 2743POPC   C1B38443  27.353  38.927   6.297
 2743POPC   C2B38444  27.313  38.781   6.749
 2743POPC   C3B38445  27.254  39.022   7.149
 2743POPC   C4B38446  27.148  39.141   7.597
 2744POPC   NC338447  36.258  21.421   5.279
 2744POPC   PO438448  35.790  21.040   5.539
 2744POPC   GL138449  36.098  21.302   5.752
 2744POPC   GL238450  36.489  21.217   5.679
 2744POPC   C1A38451  36.071  21.590   6.098
 2744POPC   D2A38452  36.290  21.645   6.506
 2744POPC   C3A38453  36.027  21.648   6.858
 2744POPC   C4A38454  36.139  21.576   7.270
 2744POPC   C1B38455  36.521  21.324   6.118
 2744POPC   C2B38456  36.434  21.155   6.540
 2744POPC   C3B38457  36.238  21.169   6.925
 2744POPC   C4B38458  36.459  21.202   7.346
 2745POPC   NC338459   9.526  19.235   5.197
 2745POPC   PO438460   9.871  18.683   5.301
 2745POPC   GL138461   9.744  18.878   5.702
 2745POPC   GL238462   9.981  19.111   5.868
 2745POPC   C1A38463   9.561  18.994   6.135
 2745POPC   D2A38464   9.326  18.904   6.523
 2745POPC   C3A38465   9.527  18.914   6.938
 2745POPC   C4A38466   9.457  19.228   7.251
 2745POPC   C1B38467  10.084  19.041   6.304
 2745POPC   C2B38468   9.931  19.153   6.713
 2745POPC   C3B38469   9.955  19.198   7.151
 2745POPC   C4B38470   9.933  19.273   7.571
 2746POPC   NC338471  38.907  40.035   5.361
 2746POPC   PO438472  39.533  40.183   5.343
 2746POPC   GL138473  39.245  40.161   5.740
 2746POPC   GL238474  39.042  39.833   5.856
 2746POPC   C1A38475  39.298  40.141   6.188
 2746POPC   D2A38476  39.460  40.067   6.593
 2746POPC   C3A38477  39.273  40.183   6.981
 2746POPC   C4A38478  39.002  40.031   7.327
 2746POPC   C1B38479  39.054  39.741   6.337
 2746POPC   C2B38480  39.105  39.737   6.805
 2746POPC   C3B38481  39.169  39.561   7.210
 2746POPC   C4B38482  39.192  39.607   7.656
 2747POPC   NC338483  19.393  26.241   5.188
 2747POPC   PO438484  19.124  25.669   5.334
 2747POPC   GL138485  19.343  25.939   5.650
 2747POPC   GL238486  19.399  25.673   5.838
 2747POPC   C1A38487  19.271  26.112   6.111
 2747POPC   D2A38488  19.151  26.002   6.573
 2747POPC   C3A38489  19.120  26.192   7.029
 2747POPC   C4A38490  19.122  26.178   7.503
 2747POPC   C1B38491  19.606  25.736   6.177
 2747POPC   C2B38492  19.488  25.604   6.562
 2747POPC   C3B38493  19.430  25.791   6.947
 2747POPC   C4B38494  19.175  25.691   7.300
 2748POPC   NC338495   1.790  27.427   4.743
 2748POPC   PO438496   2.259  27.502   5.221
 2748POPC   GL138497   2.066  27.688   5.633
 2748POPC   GL238498   1.859  27.420   5.778
 2748POPC   C1A38499   2.199  27.778   6.116
 2748POPC   D2A38500   2.107  27.659   6.558
 2748POPC   C3A38501   2.030  27.937   6.915
 2748POPC   C4A38502   2.074  27.993   7.365
 2748POPC   C1B38503   1.726  27.584   6.199
 2748POPC   C2B38504   1.609  27.618   6.673
 2748POPC   C3B38505   1.727  27.575   7.091
 2748POPC   C4B38506   2.090  27.400   7.247
 2749POPC   NC338507  12.015  30.855   4.888
 2749POPC   PO438508  12.151  30.389   5.323
 2749POPC   GL138509  12.074  30.505   5.736
 2749POPC   GL238510  11.716  30.352   5.749
 2749POPC   C1A38511  12.184  30.790   6.095
 2749POPC   D2A38512  11.932  30.874   6.455
 2749POPC   C3A38513  12.121  30.779   6.852
 2749POPC   C4A38514  12.126  30.665   7.252
 2749POPC   C1B38515  11.830  30.426   6.176
 2749POPC   C2B38516  11.639  30.461   6.551
 2749POPC   C3B38517  11.794  30.409   6.938
 2749POPC   C4B38518  11.822  30.246   7.307
 2750POPC   NC338519  29.371  42.187   5.423
 2750POPC   PO438520  28.733  42.002   5.478
 2750POPC   GL138521  28.967  42.240   5.833
 2750POPC   GL238522  29.331  42.156   5.926
 2750POPC   C1A38523  29.035  42.411   6.243
 2750POPC   D2A38524  29.320  42.256   6.554
 2750POPC   C3A38525  29.178  42.280   6.983
 2750POPC   C4A38526  28.920  42.361   7.338
 2750POPC   C1B38527  29.450  42.610   6.017
 2750POPC   C2B38528  29.375  42.749   6.407
 2750POPC   C3B38529  29.282  42.757   6.828
 2750POPC   C4B38530  29.415  42.616   7.254
 2751POPC   NC338531  36.251  33.448   5.452
 2751POPC   PO438532  35.927  32.884   5.434
 2751POPC   GL138533  35.947  33.119   5.771
 2751POPC   GL238534  36.066  32.774   5.932
 2751POPC   C1A38535  36.088  33.210   6.147
 2751POPC   D2A38536  36.128  32.922   6.458
 2751POPC   C3A38537  36.120  33.156   6.823
 2751POPC   C4A38538  36.112  33.321   7.247
 2751POPC   C1B38539  36.352  32.522   6.203
 2751POPC   C2B38540  36.430  32.517   6.644
 2751POPC   C3B38541  36.165  32.670   6.973
 2751POPC   C4B38542  36.199  32.810   7.410
 2752POPC   NC338543  28.593  17.652   5.451
 2752POPC   PO438544  28.004  17.319   5.353
 2752POPC   GL138545  28.237  17.440   5.753
 2752POPC   GL238546  28.156  17.206   5.986
 2752POPC   C1A38547  28.560  17.427   6.151
 2752POPC   D2A38548  28.542  17.583   6.601
 2752POPC   C3A38549  28.610  17.366   7.017
 2752POPC   C4A38550  28.359  17.379   7.405
 2752POPC   C1B38551  28.104  17.620   6.215
 2752POPC   C2B38552  28.004  17.720   6.632
 2752POPC   C3B38553  28.205  17.768   7.024
 2752POPC   C4B38554  27.982  17.725   7.383
 2753POPC   NC338555   1.551  15.085   5.374
 2753POPC   PO438556   0.850  15.039   5.351
 2753POPC   GL138557   1.003  14.875   5.757
 2753POPC   GL238558   1.280  15.111   5.822
 2753POPC   C1A38559   1.232  14.796   6.209
 2753POPC   D2A38560   1.266  15.058   6.579
 2753POPC   C3A38561   1.108  14.965   6.990
 2753POPC   C4A38562   1.380  15.097   7.341
 2753POPC   C1B38563   1.505  15.306   6.192
 2753POPC   C2B38564   1.663  15.390   6.645
 2753POPC   C3B38565   1.593  15.514   7.100
 2753POPC   C4B38566   1.653  15.474   7.571
 2754POPC   NC338567  19.445  32.208   5.065
 2754POPC   PO438568  19.095  32.403   5.543
 2754POPC   GL138569  19.043  32.460   5.931
 2754POPC   GL238570  19.191  32.146   5.966
 2754POPC   C1A38571  19.090  32.421   6.360
 2754POPC   D2A38572  18.971  32.117   6.659
 2754POPC   C3A38573  19.142  32.168   7.041
 2754POPC   C4A38574  19.290  32.567   7.081
 2754POPC   C1B38575  19.193  31.883   6.272
 2754POPC   C2B38576  19.389  31.781   6.628
 2754POPC   C3B38577  19.640  31.683   6.930
 2754POPC   C4B38578  19.462  31.812   7.241
 2755POPC   NC338579  17.177  22.212   5.505
 2755POPC   PO438580  16.508  22.090   5.508
 2755POPC   GL138581  16.536  22.179   5.902
 2755POPC   GL238582  16.804  21.957   5.920
 2755POPC   C1A38583  16.598  22.220   6.344
 2755POPC   D2A38584  16.728  22.069   6.739
 2755POPC   C3A38585  16.598  22.281   7.090
 2755POPC   C4A38586  16.654  22.402   7.533
 2755POPC   C1B38587  16.875  21.782   6.302
 2755POPC   C2B38588  16.995  21.594   6.693
 2755POPC   C3B38589  17.041  21.819   7.071
 2755POPC   C4B38590  16.731  21.895   7.381
 2756POPC   NC338591  18.875  14.223   5.324
 2756POPC   PO438592  19.487  13.983   5.454
 2756POPC   GL138593  19.298  14.222   5.793
 2756POPC   GL238594  18.911  14.234   5.846
 2756POPC   C1A38595  19.245  14.352   6.240
 2756POPC   D2A38596  19.223  14.593   6.647
 2756POPC   C3A38597  18.962  14.589   7.007
 2756POPC   C4A38598  18.812  14.645   7.492
 2756POPC   C1B38599  18.721  14.309   6.263
 2756POPC   C2B38600  18.532  14.229   6.678
 2756POPC   C3B38601  18.616  14.254   7.111
 2756POPC   C4B38602  19.001  14.199   7.334
 2757POPC   NC338603   3.685  31.048   5.352
 2757POPC   PO438604   3.416  30.453   5.462
 2757POPC   GL138605   3.527  30.681   5.780
 2757POPC   GL238606   3.280  30.946   5.677
 2757POPC   C1A38607   3.580  30.591   6.219
 2757POPC   D2A38608   3.631  30.720   6.654
 2757POPC   C3A38609   3.733  30.395   6.950
 2757POPC   C4A38610   3.832  30.495   7.371
 2757POPC   C1B38611   3.317  31.052   6.101
 2757POPC   C2B38612   3.187  30.952   6.508
 2757POPC   C3B38613   3.315  31.039   6.905
 2757POPC   C4B38614   3.413  30.707   7.178
 2758POPC   NC338615  31.485  35.613   5.309
 2758POPC   PO438616  31.157  35.021   5.289
 2758POPC   GL138617  31.432  35.210   5.676
 2758POPC   GL238618  31.763  35.428   5.737
 2758POPC   C1A38619  31.493  35.231   6.139
 2758POPC   D2A38620  31.611  35.362   6.546
 2758POPC   C3A38621  31.303  35.532   6.812
 2758POPC   C4A38622  31.406  35.299   7.154
 2758POPC   C1B38623  31.656  35.721   6.122
 2758POPC   C2B38624  31.726  35.859   6.585
 2758POPC   C3B38625  31.745  35.688   7.048
 2758POPC   C4B38626  31.712  35.540   7.504
 2759POPC   NC338627  33.612  37.897   5.481
 2759POPC   PO438628  33.855  37.297   5.728
 2759POPC   GL138629  33.526  37.608   5.903
 2759POPC   GL238630  33.723  37.919   5.983
 2759POPC   C1A38631  33.412  37.755   6.341
 2759POPC   D2A38632  33.784  37.699   6.602
 2759POPC   C3A38633  33.774  37.472   7.004
 2759POPC   C4A38634  33.770  37.415   7.444
 2759POPC   C1B38635  34.011  38.170   6.237
 2759POPC   C2B38636  34.124  38.081   6.674
 2759POPC   C3B38637  33.833  37.985   7.020
 2759POPC   C4B38638  33.893  37.899   7.438
 2760POPC   NC338639  12.598  39.522   5.202
 2760POPC   PO438640  12.986  39.166   5.587
 2760POPC   GL138641  12.767  39.176   5.932
 2760POPC   GL238642  12.643  39.550   5.924
 2760POPC   C1A38643  12.967  39.152   6.315
 2760POPC   D2A38644  13.204  39.470   6.538
 2760POPC   C3A38645  12.996  39.477   6.924
 2760POPC   C4A38646  13.069  39.309   7.312
 2760POPC   C1B38647  12.477  39.352   6.321
 2760POPC   C2B38648  12.556  39.104   6.698
 2760POPC   C3B38649  12.540  39.164   7.160
 2760POPC   C4B38650  12.420  39.392   7.543
 2761POPC   NC338651  17.661  39.188   5.149
 2761POPC   PO438652  17.080  39.462   5.436
 2761POPC   GL138653  17.350  39.275   5.795
 2761POPC   GL238654  17.521  39.599   5.853
 2761POPC   C1A38655  17.533  39.070   6.214
 2761POPC   D2A38656  17.622  38.873   6.666
 2761POPC   C3A38657  17.676  39.110   7.088
 2761POPC   C4A38658  17.443  39.144   7.502
 2761POPC   C1B38659  17.319  39.541   6.270
 2761POPC   C2B38660  17.386  39.390   6.704
 2761POPC   C3B38661  17.334  39.491   7.151
 2761POPC   C4B38662  17.765  39.545   7.395
 2762POPC   NC338663  40.752  11.359   5.282
 2762POPC   PO438664  40.438  10.831   5.286
 2762POPC   GL138665  40.522  11.089   5.667
 2762POPC   GL238666  40.861  10.970   5.756
 2762POPC   C1A38667  40.641  11.333   6.077
 2762POPC   D2A38668  40.559  11.150   6.495
 2762POPC   C3A38669  40.685  11.348   6.899
 2762POPC   C4A38670  40.876  11.650   7.160
 2762POPC   C1B38671  40.960  10.941   6.229
 2762POPC   C2B38672  41.034  11.015   6.701
 2762POPC   C3B38673  41.143  11.221   7.124
 2762POPC   C4B38674  41.110  11.165   7.594
 2763POPC   NC338675  35.081  36.483   5.258
 2763POPC   PO438676  35.546  35.851   5.263
 2763POPC   GL138677  35.473  35.940   5.716
 2763POPC   GL238678  35.316  36.266   5.752
 2763POPC   C1A38679  35.524  36.083   6.178
 2763POPC   D2A38680  35.348  35.978   6.594
 2763POPC   C3A38681  35.633  35.940   6.951
 2763POPC   C4A38682  35.738  36.044   7.376
 2763POPC   C1B38683  35.107  36.413   6.131
 2763POPC   C2B38684  35.031  36.456   6.565
 2763POPC   C3B38685  35.197  36.337   6.956
 2763POPC   C4B38686  35.029  36.039   7.225
 2764POPC   NC338687  32.814  20.798   5.518
 2764POPC   PO438688  32.954  20.122   5.594
 2764POPC   GL138689  32.893  20.460   5.902
 2764POPC   GL238690  33.208  20.674   5.830
 2764POPC   C1A38691  32.864  20.508   6.358
 2764POPC   D2A38692  33.196  20.385   6.679
 2764POPC   C3A38693  33.281  20.386   7.132
 2764POPC   C4A38694  33.629  20.157   7.302
 2764POPC   C1B38695  33.226  20.865   6.223
 2764POPC   C2B38696  33.036  20.911   6.616
 2764POPC   C3B38697  33.214  20.863   6.986
 2764POPC   C4B38698  33.195  20.913   7.406
 2765POPC   NC338699  13.170   6.350   5.563
 2765POPC   PO438700  12.587   6.429   5.166
 2765POPC   GL138701  12.588   6.620   5.700
 2765POPC   GL238702  12.446   6.946   5.783
 2765POPC   C1A38703  12.737   6.565   6.208
 2765POPC   D2A38704  12.676   6.348   6.661
 2765POPC   C3A38705  12.818   6.599   7.005
 2765POPC   C4A38706  13.050   6.966   7.175
 2765POPC   C1B38707  12.377   6.992   6.225
 2765POPC   C2B38708  12.563   6.862   6.609
 2765POPC   C3B38709  12.558   7.046   7.016
 2765POPC   C4B38710  12.586   6.852   7.409
 2766POPC   NC338711  43.553   5.692   5.568
 2766POPC   PO438712  44.201   5.925   5.663
 2766POPC   GL138713  43.922   5.806   5.945
 2766POPC   GL238714  43.682   6.066   5.899
 2766POPC   C1A38715  43.885   5.878   6.390
 2766POPC   D2A38716  44.037   5.901   6.825
 2766POPC   C3A38717  44.123   5.549   7.115
 2766POPC   C4A38718  44.132   5.354   7.544
 2766POPC   C1B38719  43.500   6.246   6.279
 2766POPC   C2B38720  43.419   6.420   6.683
 2766POPC   C3B38721  43.616   6.156   6.972
 2766POPC   C4B38722  43.583   5.822   7.253
 2767POPC   NC338723  10.848  17.838   5.313
 2767POPC   PO438724  10.351  17.472   5.588
 2767POPC   GL138725  10.736  17.469   5.764
 2767POPC   GL238726  10.780  17.133   5.712
 2767POPC   C1A38727  10.850  17.577   6.192
 2767POPC   D2A38728  10.856  17.870   6.539
 2767POPC   C3A38729  10.782  17.719   6.943
 2767POPC   C4A38730  10.405  17.760   7.165
 2767POPC   C1B38731  10.583  17.137   6.169
 2767POPC   C2B38732  10.545  17.311   6.637
 2767POPC   C3B38733  10.509  17.246   7.110
 2767POPC   C4B38734  10.561  17.126   7.592
 2768POPC   NC338735  33.843   0.495   5.549
 2768POPC   PO438736  33.228   0.385   5.280
 2768POPC   GL138737  33.328   0.688   5.758
 2768POPC   GL238738  33.666   0.796   5.904
 2768POPC   C1A38739  33.376   0.629   6.262
 2768POPC   D2A38740  33.419   0.601   6.707
 2768POPC   C3A38741  33.728   0.499   6.994
 2768POPC   C4A38742  33.672   0.657   7.404
 2768POPC   C1B38743  33.875   0.514   6.226
 2768POPC   C2B38744  34.093   0.427   6.599
 2768POPC   C3B38745  34.083   0.109   6.919
 2768POPC   C4B38746  33.932   0.143   7.330
 2769POPC   NC338747  39.960  43.786   5.413
 2769POPC   PO438748  39.940  44.435   5.409
 2769POPC   GL138749  40.054  44.173   5.790
 2769POPC   GL238750  40.199  43.811   5.840
 2769POPC   C1A38751  39.945  44.220   6.246
 2769POPC   D2A38752  39.697  44.342   6.644
 2769POPC   C3A38753  39.832  44.196   7.061
 2769POPC   C4A38754  40.255  44.153   7.257
 2769POPC   C1B38755  40.173  43.756   6.255
 2769POPC   C2B38756  40.057  43.917   6.648
 2769POPC   C3B38757  40.076  43.737   7.024
 2769POPC   C4B38758  39.711  43.726   7.267
 2770POPC   NC338759  29.994  24.222   5.430
 2770POPC   PO438760  29.825  24.855   5.395
 2770POPC   GL138761  29.799  24.611   5.784
 2770POPC   GL238762  29.614  24.310   5.798
 2770POPC   C1A38763  30.012  24.482   6.193
 2770POPC   D2A38764  29.932  24.239   6.588
 2770POPC   C3A38765  30.043  24.463   7.000
 2770POPC   C4A38766  30.284  24.853   7.070
 2770POPC   C1B38767  29.513  24.398   6.258
 2770POPC   C2B38768  29.535  24.564   6.699
 2770POPC   C3B38769  29.572  24.521   7.163
 2770POPC   C4B38770  29.727  24.312   7.582
 2771POPC   NC338771   7.075  43.045   5.538
 2771POPC   PO438772   7.713  43.245   5.320
 2771POPC   GL138773   7.610  43.161   5.738
 2771POPC   GL238774   7.537  42.846   5.650
 2771POPC   C1A38775   7.558  43.389   6.160
 2771POPC   D2A38776   7.524  43.647   6.557
 2771POPC   C3A38777   7.414  43.337   6.828
 2771POPC   C4A38778   7.460  43.221   7.228
 2771POPC   C1B38779   7.514  42.801   6.108
 2771POPC   C2B38780   7.398  42.852   6.556
 2771POPC   C3B38781   7.212  42.796   6.995
 2771POPC   C4B38782   7.402  42.773   7.431
 2772POPC   NC338783  34.970  30.894   5.593
 2772POPC   PO438784  34.432  30.511   5.468
 2772POPC   GL138785  34.637  30.533   5.858
 2772POPC   GL238786  34.928  30.323   5.833
 2772POPC   C1A38787  34.522  30.734   6.272
 2772POPC   D2A38788  34.712  30.896   6.656
 2772POPC   C3A38789  34.599  30.638   7.007
 2772POPC   C4A38790  34.379  30.750   7.362
 2772POPC   C1B38791  34.902  30.369   6.300
 2772POPC   C2B38792  35.019  30.481   6.734
 2772POPC   C3B38793  34.986  30.333   7.173
 2772POPC   C4B38794  34.794  30.533   7.551
 2773POPC   NC338795   4.115   9.400   5.405
 2773POPC   PO438796   4.346   8.798   5.451
 2773POPC   GL138797   4.213   9.059   5.798
 2773POPC   GL238798   4.460   9.320   5.765
 2773POPC   C1A38799   4.169   9.008   6.232
 2773POPC   D2A38800   4.025   8.870   6.621
 2773POPC   C3A38801   4.331   8.968   6.854
 2773POPC   C4A38802   4.350   8.926   7.228
 2773POPC   C1B38803   4.504   9.437   6.171
 2773POPC   C2B38804   4.680   9.245   6.530
 2773POPC   C3B38805   4.674   9.351   6.954
 2773POPC   C4B38806   4.718   9.209   7.380
 2774POPC   NC338807   3.879  13.969   5.403
 2774POPC   PO438808   4.351  13.537   5.178
 2774POPC   GL138809   4.267  13.518   5.679
 2774POPC   GL238810   4.052  13.759   5.876
 2774POPC   C1A38811   4.151  13.272   6.096
 2774POPC   D2A38812   4.127  13.058   6.531
 2774POPC   C3A38813   4.224  13.332   6.884
 2774POPC   C4A38814   4.556  13.489   7.154
 2774POPC   C1B38815   4.204  14.047   6.210
 2774POPC   C2B38816   4.281  13.991   6.647
 2774POPC   C3B38817   4.254  13.948   7.090
 2774POPC   C4B38818   3.992  14.030   7.483
 2775POPC   NC338819  36.783   1.224   5.330
 2775POPC   PO438820  37.393   0.973   5.396
 2775POPC   GL138821  37.092   1.093   5.746
 2775POPC   GL238822  36.695   1.116   5.820
 2775POPC   C1A38823  37.007   1.467   6.025
 2775POPC   D2A38824  36.824   1.491   6.446
 2775POPC   C3A38825  36.984   1.136   6.729
 2775POPC   C4A38826  37.155   1.170   7.151
 2775POPC   C1B38827  36.898   0.989   6.213
 2775POPC   C2B38828  36.776   0.683   6.494
 2775POPC   C3B38829  36.650   0.688   6.872
 2775POPC   C4B38830  36.787   0.834   7.249
 2776POPC   NC338831   6.770  21.324   5.496
 2776POPC   PO438832   6.388  21.866   5.506
 2776POPC   GL138833   6.526  21.602   5.870
 2776POPC   GL238834   6.385  21.252   5.827
 2776POPC   C1A38835   6.899  21.603   6.173
 2776POPC   D2A38836   7.158  21.629   6.580
 2776POPC   C3A38837   6.930  21.547   6.960
 2776POPC   C4A38838   6.506  21.503   7.160
 2776POPC   C1B38839   6.539  21.229   6.247
 2776POPC   C2B38840   6.573  21.288   6.683
 2776POPC   C3B38841   6.687  21.053   7.057
 2776POPC   C4B38842   6.601  21.143   7.502
 2777POPC   NC338843  39.862  30.256   5.579
 2777POPC   PO438844  39.487  29.651   5.513
 2777POPC   GL138845  39.790  29.797   5.846
 2777POPC   GL238846  40.173  29.921   5.811
 2777POPC   C1A38847  39.922  29.944   6.245
 2777POPC   D2A38848  40.086  30.078   6.611
 2777POPC   C3A38849  39.987  29.960   6.990
 2777POPC   C4A38850  39.615  30.103   7.153
 2777POPC   C1B38851  40.393  30.122   6.191
 2777POPC   C2B38852  40.561  29.926   6.602
 2777POPC   C3B38853  40.582  29.894   7.055
 2777POPC   C4B38854  40.436  29.642   7.427
 2778POPC   NC338855  13.138  33.049   5.458
 2778POPC   PO438856  12.601  32.743   5.187
 2778POPC   GL138857  12.648  32.813   5.633
 2778POPC   GL238858  12.602  33.167   5.647
 2778POPC   C1A38859  12.795  32.817   6.089
 2778POPC   D2A38860  13.005  33.049   6.428
 2778POPC   C3A38861  12.856  32.927   6.832
 2778POPC   C4A38862  13.022  32.864   7.208
 2778POPC   C1B38863  12.512  33.252   6.099
 2778POPC   C2B38864  12.475  33.073   6.537
 2778POPC   C3B38865  12.496  33.250   7.001
 2778POPC   C4B38866  12.240  33.143   7.404
 2779POPC   NC338867   6.483  42.502   5.393
 2779POPC   PO438868   6.915  41.952   5.231
 2779POPC   GL138869   6.777  42.176   5.681
 2779POPC   GL238870   6.448  42.250   5.839
 2779POPC   C1A38871   6.806  42.212   6.174
 2779POPC   D2A38872   6.564  42.200   6.570
 2779POPC   C3A38873   6.800  42.219   6.957
 2779POPC   C4A38874   6.764  42.073   7.390
 2779POPC   C1B38875   6.431  42.594   6.188
 2779POPC   C2B38876   6.268  42.716   6.567
 2779POPC   C3B38877   6.339  42.504   6.943
 2779POPC   C4B38878   6.315  42.137   7.145
 2780POPC   NC338879  29.294  34.749   5.290
 2780POPC   PO438880  28.651  34.958   5.343
 2780POPC   GL138881  29.011  34.881   5.677
 2780POPC   GL238882  29.080  34.510   5.734
 2780POPC   C1A38883  29.374  34.837   5.995
 2780POPC   D2A38884  29.240  34.774   6.441
 2780POPC   C3A38885  29.405  34.792   6.860
 2780POPC   C4A38886  29.236  34.774   7.224
 2780POPC   C1B38887  29.298  34.344   6.135
 2780POPC   C2B38888  29.540  34.360   6.553
 2780POPC   C3B38889  29.409  34.297   6.990
 2780POPC   C4B38890  29.012  34.276   7.199
 2781POPC   NC338891   6.927   0.602   5.357
 2781POPC   PO438892   6.436   0.187   5.504
 2781POPC   GL138893   6.641   0.555   5.785
 2781POPC   GL238894   7.036   0.667   5.860
 2781POPC   C1A38895   6.682   0.537   6.225
 2781POPC   D2A38896   6.536   0.407   6.609
 2781POPC   C3A38897   6.774   0.607   6.916
 2781POPC   C4A38898   6.766   0.581   7.337
 2781POPC   C1B38899   7.033   0.238   6.026
 2781POPC   C2B38900   6.843   0.061   6.415
 2781POPC   C3B38901   6.925   0.116   6.861
 2781POPC   C4B38902   6.846   0.077   7.292
 2782POPC   NC338903  11.216   2.952   5.556
 2782POPC   PO438904  11.493   2.417   5.198
 2782POPC   GL138905  11.498   2.553   5.718
 2782POPC   GL238906  11.697   2.812   5.755
 2782POPC   C1A38907  11.234   2.623   6.150
 2782POPC   D2A38908  11.096   2.859   6.496
 2782POPC   C3A38909  11.058   2.735   6.888
 2782POPC   C4A38910  11.167   2.823   7.260
 2782POPC   C1B38911  11.722   2.704   6.166
 2782POPC   C2B38912  11.604   2.889   6.497
 2782POPC   C3B38913  11.555   2.818   6.898
 2782POPC   C4B38914  11.660   2.645   7.249
 2783POPC   NC338915  21.607  37.442   5.450
 2783POPC   PO438916  21.271  38.094   5.417
 2783POPC   GL138917  21.279  37.769   5.661
 2783POPC   GL238918  21.634  37.814   5.797
 2783POPC   C1A38919  21.176  37.602   6.050
 2783POPC   D2A38920  21.383  37.747   6.418
 2783POPC   C3A38921  21.156  37.918   6.752
 2783POPC   C4A38922  21.284  37.736   7.106
 2783POPC   C1B38923  21.696  37.473   6.094
 2783POPC   C2B38924  21.811  37.441   6.514
 2783POPC   C3B38925  21.561  37.431   6.823
 2783POPC   C4B38926  21.462  37.234   7.183
 2784POPC   NC338927  28.667  42.504   5.516
 2784POPC   PO438928  27.948  42.228   5.425
 2784POPC   GL138929  28.243  42.282   5.796
 2784POPC   GL238930  28.429  41.974   5.885
 2784POPC   C1A38931  28.146  42.475   6.228
 2784POPC   D2A38932  27.886  42.440   6.638
 2784POPC   C3A38933  28.179  42.380   6.981
 2784POPC   C4A38934  28.548  42.617   7.113
 2784POPC   C1B38935  28.583  42.186   6.250
 2784POPC   C2B38936  28.739  42.335   6.669
 2784POPC   C3B38937  28.629  42.100   7.024
 2784POPC   C4B38938  28.261  41.878   7.085
 2785POPC   NC338939  12.798  26.543   5.249
 2785POPC   PO438940  12.704  27.116   5.573
 2785POPC   GL138941  12.767  26.770   5.894
 2785POPC   GL238942  12.862  26.444   5.789
 2785POPC   C1A38943  12.792  26.648   6.347
 2785POPC   D2A38944  12.543  26.613   6.745
 2785POPC   C3A38945  12.635  26.934   7.105
 2785POPC   C4A38946  12.700  27.078   7.567
 2785POPC   C1B38947  13.048  26.215   6.142
 2785POPC   C2B38948  12.983  26.239   6.601
 2785POPC   C3B38949  12.979  26.494   6.984
 2785POPC   C4B38950  13.064  26.772   7.335
 2786POPC   NC338951  28.905  22.857   5.364
 2786POPC   PO438952  28.326  23.097   5.366
 2786POPC   GL138953  28.200  22.940   5.776
 2786POPC   GL238954  28.202  22.571   5.812
 2786POPC   C1A38955  28.543  22.832   6.115
 2786POPC   D2A38956  28.540  22.618   6.515
 2786POPC   C3A38957  28.661  22.840   6.878
 2786POPC   C4A38958  28.549  22.911   7.256
 2786POPC   C1B38959  28.056  22.725   6.236
 2786POPC   C2B38960  28.108  22.833   6.693
 2786POPC   C3B38961  28.058  22.873   7.142
 2786POPC   C4B38962  27.814  22.881   7.518
 2787POPC   NC338963   4.152  37.870   5.384
 2787POPC   PO438964   4.267  37.159   5.200
 2787POPC   GL138965   4.309  37.340   5.691
 2787POPC   GL238966   4.213  37.671   5.830
 2787POPC   C1A38967   4.207  37.352   6.199
 2787POPC   D2A38968   4.414  37.499   6.594
 2787POPC   C3A38969   4.324  37.570   7.057
 2787POPC   C4A38970   4.301  37.258   7.395
 2787POPC   C1B38971   4.418  37.829   6.207
 2787POPC   C2B38972   4.378  38.014   6.639
 2787POPC   C3B38973   4.127  38.069   7.001
 2787POPC   C4B38974   4.270  38.043   7.407
 2788POPC   NC338975   1.566   7.909   5.360
 2788POPC   PO438976   1.048   8.352   5.311
 2788POPC   GL138977   1.185   8.170   5.702
 2788POPC   GL238978   1.408   8.424   5.779
 2788POPC   C1A38979   0.986   8.081   6.134
 2788POPC   D2A38980   1.088   8.310   6.541
 2788POPC   C3A38981   0.986   8.130   6.953
 2788POPC   C4A38982   1.185   7.780   7.200
 2788POPC   C1B38983   1.463   8.211   6.180
 2788POPC   C2B38984   1.607   8.233   6.628
 2788POPC   C3B38985   1.468   8.276   7.076
 2788POPC   C4B38986   1.387   8.563   7.463
 2789POPC   NC338987  11.031  14.460   5.505
 2789POPC   PO438988  10.367  14.271   5.460
 2789POPC   GL138989  10.593  14.476   5.801
 2789POPC   GL238990  10.857  14.222   5.907
 2789POPC   C1A38991  10.680  14.570   6.248
 2789POPC   D2A38992  10.931  14.447   6.610
 2789POPC   C3A38993  10.706  14.657   6.955
 2789POPC   C4A38994  10.576  14.558   7.390
 2789POPC   C1B38995  10.634  14.058   6.262
 2789POPC   C2B38996  10.517  14.192   6.628
 2789POPC   C3B38997  10.650  14.163   7.007
 2789POPC   C4B38998  10.397  14.089   7.310
 2790POPC   NC338999  41.058  37.299   5.201
 2790POPC   PO439000  40.892  37.836   5.332
 2790POPC   GL139001  40.880  37.849   5.799
 2790POPC   GL239002  40.525  37.798   5.841
 2790POPC   C1A39003  40.901  37.728   6.273
 2790POPC   D2A39004  40.746  37.533   6.678
 2790POPC   C3A39005  40.921  37.550   7.129
 2790POPC   C4A39006  40.859  37.839   7.504
 2790POPC   C1B39007  40.388  37.666   6.284
 2790POPC   C2B39008  40.268  37.734   6.750
 2790POPC   C3B39009  40.435  37.673   7.188
 2790POPC   C4B39010  40.522  37.473   7.603
 2791POPC   NC339011  34.795  20.757   5.354
 2791POPC   PO439012  34.114  20.955   5.492
 2791POPC   GL139013  34.541  20.841   5.777
 2791POPC   GL239014  34.695  20.482   5.801
 2791POPC   C1A39015  34.600  20.791   6.197
 2791POPC   D2A39016  34.837  20.663   6.530
 2791POPC   C3A39017  34.633  20.673   6.913
 2791POPC   C4A39018  34.448  20.593   7.315
 2791POPC   C1B39019  34.607  20.250   6.192
 2791POPC   C2B39020  34.513  20.221   6.622
 2791POPC   C3B39021  34.679  20.181   7.023
 2791POPC   C4B39022  34.514  20.050   7.399
 2792POPC   NC339023  38.511   6.427   5.537
 2792POPC   PO439024  38.054   7.090   5.497
 2792POPC   GL139025  38.260   6.807   5.766
 2792POPC   GL239026  38.622   6.839   5.814
 2792POPC   C1A39027  38.269   6.555   6.120
 2792POPC   D2A39028  38.241   6.609   6.532
 2792POPC   C3A39029  38.247   6.663   6.968
 2792POPC   C4A39030  38.105   6.605   7.382
 2792POPC   C1B39031  38.772   6.680   6.207
 2792POPC   C2B39032  38.732   6.589   6.650
 2792POPC   C3B39033  38.713   6.886   6.991
 2792POPC   C4B39034  38.681   7.002   7.445
 2793POPC   NC339035  14.583  12.436   5.560
 2793POPC   PO439036  14.152  11.939   5.473
 2793POPC   GL139037  14.282  12.099   5.829
 2793POPC   GL239038  14.638  11.966   5.795
 2793POPC   C1A39039  14.114  12.043   6.260
 2793POPC   D2A39040  14.036  12.221   6.671
 2793POPC   C3A39041  14.101  11.956   7.027
 2793POPC   C4A39042  14.210  12.230   7.400
 2793POPC   C1B39043  14.600  12.139   6.222
 2793POPC   C2B39044  14.485  11.976   6.627
 2793POPC   C3B39045  14.556  12.156   7.024
 2793POPC   C4B39046  14.686  11.900   7.382
 2794POPC   NC339047  20.367   7.973   5.496
 2794POPC   PO439048  19.695   8.082   5.476
 2794POPC   GL139049  19.914   7.969   5.841
 2794POPC   GL239050  20.113   8.237   5.863
 2794POPC   C1A39051  19.877   8.101   6.304
 2794POPC   D2A39052  19.750   8.244   6.740
 2794POPC   C3A39053  19.828   8.055   7.153
 2794POPC   C4A39054  19.595   8.091   7.548
 2794POPC   C1B39055  20.369   8.233   6.241
 2794POPC   C2B39056  20.266   8.144   6.683
 2794POPC   C3B39057  20.219   8.373   7.070
 2794POPC   C4B39058  19.967   8.465   7.464
 2795POPC   NC339059  31.282  44.398   5.432
 2795POPC   PO439060  31.793  44.850   5.414
 2795POPC   GL139061  31.563  44.705   5.772
 2795POPC   GL239062  31.302  44.976   5.809
 2795POPC   C1A39063  31.436  44.379   6.106
 2795POPC   D2A39064  31.570  44.164   6.476
 2795POPC   C3A39065  31.511  44.273   6.902
 2795POPC   C4A39066  31.654  44.415   7.307
 2795POPC   C1B39067  31.461  44.870   6.245
 2795POPC   C2B39068  31.357  44.670   6.597
 2795POPC   C3B39069  31.437  44.779   7.017
 2795POPC   C4B39070  31.174  44.984   7.269
 2796POPC   NC339071  28.723  15.369   5.569
 2796POPC   PO439072  28.169  15.134   5.242
 2796POPC   GL139073  28.455  14.973   5.714
 2796POPC   GL239074  28.795  14.946   5.850
 2796POPC   C1A39075  28.455  15.086   6.194
 2796POPC   D2A39076  28.065  15.185   6.395
 2796POPC   C3A39077  28.042  15.337   6.800
 2796POPC   C4A39078  28.270  15.337   7.174
 2796POPC   C1B39079  29.006  15.106   6.234
 2796POPC   C2B39080  28.814  15.209   6.628
 2796POPC   C3B39081  28.722  15.113   7.048
 2796POPC   C4B39082  28.860  14.842   7.387
 2797POPC   NC339083  42.506  12.183   5.030
 2797POPC   PO439084  42.428  12.814   5.385
 2797POPC   GL139085  42.226  12.836   5.791
 2797POPC   GL239086  42.279  12.517   5.794
 2797POPC   C1A39087  42.268  12.740   6.261
 2797POPC   D2A39088  42.497  12.815   6.645
 2797POPC   C3A39089  42.190  12.999   6.972
 2797POPC   C4A39090  42.293  13.253   7.348
 2797POPC   C1B39091  41.862  12.545   6.025
 2797POPC   C2B39092  41.785  12.431   6.463
 2797POPC   C3B39093  42.106  12.513   6.737
 2797POPC   C4B39094  42.359  12.545   7.125
 2798POPC   NC339095   1.486   9.626   5.145
 2798POPC   PO439096   2.070   9.904   5.342
 2798POPC   GL139097   1.932   9.719   5.718
 2798POPC   GL239098   2.039   9.994   5.941
 2798POPC   C1A39099   2.016   9.485   6.104
 2798POPC   D2A39100   2.022   9.753   6.449
 2798POPC   C3A39101   2.018   9.621   6.854
 2798POPC   C4A39102   1.896   9.417   7.233
 2798POPC   C1B39103   2.308  10.145   6.300
 2798POPC   C2B39104   2.310  10.070   6.790
 2798POPC   C3B39105   2.220   9.895   7.233
 2798POPC   C4B39106   2.264  10.062   7.677
 2799POPC   NC339107  35.183  14.122   5.384
 2799POPC   PO439108  35.103  14.786   5.314
 2799POPC   GL139109  35.273  14.479   5.711
 2799POPC   GL239110  35.010  14.202   5.833
 2799POPC   C1A39111  35.501  14.453   6.145
 2799POPC   D2A39112  35.618  14.335   6.575
 2799POPC   C3A39113  35.496  14.635   6.870
 2799POPC   C4A39114  35.345  14.563   7.251
 2799POPC   C1B39115  34.993  14.394   6.162
 2799POPC   C2B39116  35.132  14.512   6.530
 2799POPC   C3B39117  35.162  14.243   6.861
 2799POPC   C4B39118  34.932  14.245   7.233
 2800POPC   NC339119  16.041  22.024   5.498
 2800POPC   PO439120  16.139  22.617   5.371
 2800POPC   GL139121  16.079  22.411   5.811
 2800POPC   GL239122  15.765  22.413   5.978
 2800POPC   C1A39123  16.102  22.140   6.237
 2800POPC   D2A39124  16.173  22.225   6.705
 2800POPC   C3A39125  16.194  21.961   7.068
 2800POPC   C4A39126  16.261  22.039   7.512
 2800POPC   C1B39127  15.564  22.094   6.229
 2800POPC   C2B39128  15.605  22.193   6.645
 2800POPC   C3B39129  15.713  22.324   7.038
 2800POPC   C4B39130  15.779  22.044   7.360
 2801POPC   NC339131  15.427   8.607   5.347
 2801POPC   PO439132  15.336   9.229   5.270
 2801POPC   GL139133  15.294   9.004   5.694
 2801POPC   GL239134  15.329   8.666   5.854
 2801POPC   C1A39135  15.140   9.109   6.124
 2801POPC   D2A39136  15.176   9.305   6.555
 2801POPC   C3A39137  15.357   9.155   6.981
 2801POPC   C4A39138  15.296   9.233   7.436
 2801POPC   C1B39139  15.127   8.610   6.267
 2801POPC   C2B39140  15.201   8.780   6.662
 2801POPC   C3B39141  15.186   8.619   7.065
 2801POPC   C4B39142  15.314   8.696   7.475
 2802POPC   NC339143   2.656  16.583   5.324
 2802POPC   PO439144   3.367  16.624   5.349
 2802POPC   GL139145   2.979  16.733   5.711
 2802POPC   GL239146   2.593  16.648   5.807
 2802POPC   C1A39147   2.853  16.894   6.153
 2802POPC   D2A39148   2.987  16.936   6.580
 2802POPC   C3A39149   2.863  16.676   6.905
 2802POPC   C4A39150   2.719  16.737   7.354
 2802POPC   C1B39151   2.396  16.654   6.200
 2802POPC   C2B39152   2.449  16.538   6.624
 2802POPC   C3B39153   2.411  16.475   7.062
 2802POPC   C4B39154   2.215  16.653   7.454
 2803POPC   NC339155   3.799  21.657   5.562
 2803POPC   PO439156   3.327  21.234   5.591
 2803POPC   GL139157   3.681  21.288   5.880
 2803POPC   GL239158   3.765  21.600   6.059
 2803POPC   C1A39159   3.869  21.112   6.230
 2803POPC   D2A39160   3.755  21.322   6.620
 2803POPC   C3A39161   3.758  21.138   7.024
 2803POPC   C4A39162   3.943  21.194   7.448
 2803POPC   C1B39163   3.384  21.460   6.273
 2803POPC   C2B39164   3.283  21.540   6.712
 2803POPC   C3B39165   3.418  21.567   7.157
 2803POPC   C4B39166   3.291  21.875   7.481
 2804POPC   NC339167  32.298  14.066   5.229
 2804POPC   PO439168  32.365  14.732   5.362
 2804POPC   GL139169  32.259  14.497   5.749
 2804POPC   GL239170  32.280  14.111   5.754
 2804POPC   C1A39171  32.249  14.419   6.197
 2804POPC   D2A39172  32.510  14.428   6.572
 2804POPC   C3A39173  32.413  14.550   7.004
 2804POPC   C4A39174  32.036  14.633   7.228
 2804POPC   C1B39175  32.009  13.949   6.119
 2804POPC   C2B39176  32.111  14.066   6.567
 2804POPC   C3B39177  32.098  14.147   7.015
 2804POPC   C4B39178  32.295  14.217   7.417
 2805POPC   NC339179  17.491  35.973   5.419
 2805POPC   PO439180  17.419  36.646   5.651
 2805POPC   GL139181  17.566  36.285   5.841
 2805POPC   GL239182  17.308  36.029   5.878
 2805POPC   C1A39183  17.619  36.233   6.256
 2805POPC   D2A39184  17.505  36.467   6.609
 2805POPC   C3A39185  17.517  36.287   7.012
 2805POPC   C4A39186  17.343  36.532   7.320
 2805POPC   C1B39187  17.334  35.817   6.244
 2805POPC   C2B39188  17.266  36.006   6.638
 2805POPC   C3B39189  17.258  35.749   6.994
 2805POPC   C4B39190  17.379  35.814   7.437
 2806POPC   NC339191  18.157  13.369   5.361
 2806POPC   PO439192  18.471  13.968   5.480
 2806POPC   GL139193  18.314  13.758   5.848
 2806POPC   GL239194  18.082  13.593   5.812
 2806POPC   C1A39195  18.306  13.479   6.257
 2806POPC   D2A39196  17.995  13.360   6.632
 2806POPC   C3A39197  18.238  13.403   7.050
 2806POPC   C4A39198  18.715  13.322   7.078
 2806POPC   C1B39199  17.844  13.660   6.214
 2806POPC   C2B39200  17.660  13.734   6.644
 2806POPC   C3B39201  17.802  13.688   7.074
 2806POPC   C4B39202  17.860  13.365   7.393
 2807POPC   NC339203  43.702   2.132   5.276
 2807POPC   PO439204  44.203   1.680   5.391
 2807POPC   GL139205  44.034   2.001   5.709
 2807POPC   GL239206  43.677   1.948   5.803
 2807POPC   C1A39207  44.196   2.209   6.112
 2807POPC   D2A39208  44.424   2.092   6.511
 2807POPC   C3A39209  44.166   2.043   6.887
 2807POPC   C4A39210  44.062   2.099   7.328
 2807POPC   C1B39211  43.669   2.238   6.193
 2807POPC   C2B39212  43.727   2.422   6.649
 2807POPC   C3B39213  43.601   2.445   7.110
 2807POPC   C4B39214  43.618   2.247   7.530
 2808POPC   NC339215  18.670  43.091   5.411
 2808POPC   PO439216  18.026  42.929   5.163
 2808POPC   GL139217  18.082  42.983   5.610
 2808POPC   GL239218  17.932  42.709   5.778
 2808POPC   C1A39219  18.128  43.238   6.012
 2808POPC   D2A39220  17.992  43.192   6.479
 2808POPC   C3A39221  18.282  43.336   6.806
 2808POPC   C4A39222  18.484  43.270   7.211
 2808POPC   C1B39223  18.166  42.758   6.172
 2808POPC   C2B39224  18.372  42.792   6.578
 2808POPC   C3B39225  18.119  42.870   6.917
 2808POPC   C4B39226  18.000  43.063   7.262
 2809POPC   NC339227  29.511  40.453   5.478
 2809POPC   PO439228  30.113  40.893   5.363
 2809POPC   GL139229  29.905  40.806   5.752
 2809POPC   GL239230  29.938  40.453   5.802
 2809POPC   C1A39231  30.053  40.769   6.195
 2809POPC   D2A39232  30.087  40.423   6.496
 2809POPC   C3A39233  30.240  40.502   6.922
 2809POPC   C4A39234  30.108  40.801   7.198
 2809POPC   C1B39235  29.593  40.569   6.127
 2809POPC   C2B39236  29.591  41.026   6.291
 2809POPC   C3B39237  29.624  41.203   6.742
 2809POPC   C4B39238  29.617  41.023   7.187
 2810POPC   NC339239  38.528  41.089   5.657
 2810POPC   PO439240  38.597  40.462   5.364
 2810POPC   GL139241  38.374  40.589   5.736
 2810POPC   GL239242  38.706  40.658   5.861
 2810POPC   C1A39243  38.354  40.612   6.200
 2810POPC   D2A39244  38.701  40.600   6.521
 2810POPC   C3A39245  38.493  40.642   6.878
 2810POPC   C4A39246  38.161  40.513   7.142
 2810POPC   C1B39247  38.740  40.991   6.228
 2810POPC   C2B39248  38.399  41.065   6.497
 2810POPC   C3B39249  38.234  41.085   6.884
 2810POPC   C4B39250  38.374  40.978   7.262
 2811POPC   NC339251  23.698  39.383   5.377
 2811POPC   PO439252  23.198  39.031   5.682
 2811POPC   GL139253  23.563  39.233   5.903
 2811POPC   GL239254  23.914  39.422   5.823
 2811POPC   C1A39255  23.558  39.069   6.332
 2811POPC   D2A39256  23.323  39.196   6.697
 2811POPC   C3A39257  23.522  39.488   6.983
 2811POPC   C4A39258  23.548  39.216   7.287
 2811POPC   C1B39259  24.016  39.285   6.212
 2811POPC   C2B39260  23.822  39.476   6.550
 2811POPC   C3B39261  24.006  39.630   6.902
 2811POPC   C4B39262  24.006  39.402   7.262
 2812POPC   NC339263  44.345  13.651   5.127
 2812POPC   PO439264  43.788  13.560   5.561
 2812POPC   GL139265  44.062  13.543   5.861
 2812POPC   GL239266  44.221  13.225   5.806
 2812POPC   C1A39267  43.998  13.726   6.257
 2812POPC   D2A39268  43.908  13.541   6.655
 2812POPC   C3A39269  43.893  13.738   7.065
 2812POPC   C4A39270  43.495  13.894   7.152
 2812POPC   C1B39271  44.156  13.219   6.258
 2812POPC   C2B39272  44.099  13.074   6.679
 2812POPC   C3B39273  44.215  13.337   7.008
 2812POPC   C4B39274  44.097  13.384   7.432
 2813POPC   NC339275  32.002  43.633   5.514
 2813POPC   PO439276  32.397  44.113   5.557
 2813POPC   GL139277  32.208  43.897   5.901
 2813POPC   GL239278  31.889  44.069   5.957
 2813POPC   C1A39279  32.279  43.514   6.179
 2813POPC   D2A39280  32.151  43.441   6.609
 2813POPC   C3A39281  32.418  43.460   6.980
 2813POPC   C4A39282  32.483  43.847   7.209
 2813POPC   C1B39283  32.036  43.971   6.375
 2813POPC   C2B39284  32.013  44.188   6.765
 2813POPC   C3B39285  32.111  44.196   7.197
 2813POPC   C4B39286  32.208  44.049   7.628
 2814POPC   NC339287   1.446  37.233   5.360
 2814POPC   PO439288   1.253  37.854   5.342
 2814POPC   GL139289   1.396  37.637   5.723
 2814POPC   GL239290   1.546  37.926   5.784
 2814POPC   C1A39291   1.288  37.530   6.198
 2814POPC   D2A39292   1.094  37.681   6.595
 2814POPC   C3A39293   1.292  37.666   7.002
 2814POPC   C4A39294   1.114  37.515   7.373
 2814POPC   C1B39295   1.185  38.011   6.087
 2814POPC   C2B39296   0.968  38.165   6.497
 2814POPC   C3B39297   0.986  38.072   6.953
 2814POPC   C4B39298   1.254  38.063   7.330
 2815POPC   NC339299  37.125   3.789   5.632
 2815POPC   PO439300  37.622   3.260   5.524
 2815POPC   GL139301  37.715   3.217   5.915
 2815POPC   GL239302  37.724   3.576   5.994
 2815POPC   C1A39303  37.528   3.231   6.322
 2815POPC   D2A39304  37.545   3.562   6.617
 2815POPC   C3A39305  37.788   3.436   6.953
 2815POPC   C4A39306  37.925   3.354   7.390
 2815POPC   C1B39307  37.515   3.905   6.209
 2815POPC   C2B39308  37.329   4.038   6.577
 2815POPC   C3B39309  37.381   3.931   7.016
 2815POPC   C4B39310  37.803   3.881   7.255
 2816POPC   NC339311   8.679  18.959   5.149
 2816POPC   PO439312   8.071  19.077   5.474
 2816POPC   GL139313   8.302  19.223   5.807
 2816POPC   GL239314   8.040  19.378   5.923
 2816POPC   C1A39315   8.555  19.219   6.156
 2816POPC   D2A39316   8.362  19.268   6.542
 2816POPC   C3A39317   8.391  18.929   6.803
 2816POPC   C4A39318   8.247  19.058   7.136
 2816POPC   C1B39319   7.826  19.552   6.247
 2816POPC   C2B39320   7.634  19.410   6.630
 2816POPC   C3B39321   7.881  19.405   7.007
 2816POPC   C4B39322   7.924  19.294   7.449
 2817POPC   NC339323  23.556  44.600   5.483
 2817POPC   PO439324  24.197  44.579   5.514
 2817POPC   GL139325  23.932  44.409   5.866
 2817POPC   GL239326  23.607  44.244   5.909
 2817POPC   C1A39327  23.722  44.677   6.197
 2817POPC   D2A39328  23.603  44.641   6.640
 2817POPC   C3A39329  23.974  44.719   6.894
 2817POPC   C4A39330  24.011  44.682   7.344
 2817POPC   C1B39331  23.706  44.199   6.356
 2817POPC   C2B39332  23.501  44.135   6.755
 2817POPC   C3B39333  23.689  44.350   7.079
 2817POPC   C4B39334  23.573  44.477   7.505
 2818POPC   NC339335  17.491  34.266   5.384
 2818POPC   PO439336  18.004  34.723   5.450
 2818POPC   GL139337  17.839  34.438   5.776
 2818POPC   GL239338  17.461  34.531   5.813
 2818POPC   C1A39339  17.790  34.407   6.242
 2818POPC   D2A39340  17.693  34.616   6.657
 2818POPC   C3A39341  17.791  34.373   7.071
 2818POPC   C4A39342  17.629  34.475   7.509
 2818POPC   C1B39343  17.356  34.674   6.228
 2818POPC   C2B39344  17.155  34.485   6.584
 2818POPC   C3B39345  17.295  34.425   6.984
 2818POPC   C4B39346  17.527  34.807   7.116
 2819POPC   NC339347  11.644  40.889   5.653
 2819POPC   PO439348  11.026  40.724   5.658
 2819POPC   GL139349  11.235  40.776   5.967
 2819POPC   GL239350  11.186  41.107   5.981
 2819POPC   C1A39351  11.227  40.587   6.358
 2819POPC   D2A39352  10.991  40.559   6.751
 2819POPC   C3A39353  11.216  40.822   7.006
 2819POPC   C4A39354  11.438  40.541   7.215
 2819POPC   C1B39355  11.517  41.025   6.294
 2819POPC   C2B39356  11.627  40.831   6.675
 2819POPC   C3B39357  11.705  41.003   7.086
 2819POPC   C4B39358  11.436  41.137   7.403
 2820POPC   NC339359  35.564  23.907   5.297
 2820POPC   PO439360  35.070  23.481   5.375
 2820POPC   GL139361  35.130  23.547   5.792
 2820POPC   GL239362  35.311  23.850   5.748
 2820POPC   C1A39363  35.082  23.610   6.237
 2820POPC   D2A39364  35.409  23.719   6.544
 2820POPC   C3A39365  35.440  23.603   6.973
 2820POPC   C4A39366  35.145  23.680   7.299
 2820POPC   C1B39367  35.603  23.856   6.084
 2820POPC   C2B39368  35.829  23.993   6.452
 2820POPC   C3B39369  35.757  24.191   6.861
 2820POPC   C4B39370  35.669  24.003   7.261
 2821POPC   NC339371  13.953  31.779   5.036
 2821POPC   PO439372  13.432  31.642   5.448
 2821POPC   GL139373  13.433  31.810   5.848
 2821POPC   GL239374  13.758  31.704   5.911
 2821POPC   C1A39375  13.285  31.794   6.267
 2821POPC   D2A39376  13.323  31.586   6.659
 2821POPC   C3A39377  13.701  31.673   6.864
 2821POPC   C4A39378  13.780  31.658   7.276
 2821POPC   C1B39379  13.773  31.618   6.350
 2821POPC   C2B39380  14.083  31.440   6.617
 2821POPC   C3B39381  13.984  31.258   7.029
 2821POPC   C4B39382  14.034  31.094   7.461
 2822POPC   NC339383   7.832  11.040   5.588
 2822POPC   PO439384   7.386  10.579   5.321
 2822POPC   GL139385   7.446  10.435   5.798
 2822POPC   GL239386   7.481  10.764   5.921
 2822POPC   C1A39387   7.330  10.432   6.281
 2822POPC   D2A39388   7.344  10.632   6.712
 2822POPC   C3A39389   7.517  10.469   7.071
 2822POPC   C4A39390   7.275  10.284   7.338
 2822POPC   C1B39391   7.475  10.942   6.339
 2822POPC   C2B39392   7.684  11.008   6.730
 2822POPC   C3B39393   7.701  10.943   7.192
 2822POPC   C4B39394   7.828  10.917   7.640
 2823POPC   NC339395   7.547  15.096   5.387
 2823POPC   PO439396   6.887  15.291   5.280
 2823POPC   GL139397   7.189  15.338   5.668
 2823POPC   GL239398   7.223  15.026   5.784
 2823POPC   C1A39399   7.420  15.379   6.097
 2823POPC   D2A39400   7.681  15.360   6.514
 2823POPC   C3A39401   7.525  15.479   6.927
 2823POPC   C4A39402   7.120  15.439   7.152
 2823POPC   C1B39403   7.052  14.862   6.108
 2823POPC   C2B39404   7.036  14.948   6.536
 2823POPC   C3B39405   7.360  15.022   6.784
 2823POPC   C4B39406   7.384  15.018   7.215
 2824POPC   NC339407   4.669  13.818   5.356
 2824POPC   PO439408   5.255  14.020   5.200
 2824POPC   GL139409   5.067  13.732   5.645
 2824POPC   GL239410   4.733  13.693   5.830
 2824POPC   C1A39411   5.157  13.627   6.119
 2824POPC   D2A39412   5.376  13.563   6.544
 2824POPC   C3A39413   5.134  13.541   6.959
 2824POPC   C4A39414   5.420  13.661   7.342
 2824POPC   C1B39415   4.576  13.668   6.255
 2824POPC   C2B39416   4.685  13.666   6.698
 2824POPC   C3B39417   4.797  14.001   6.999
 2824POPC   C4B39418   4.784  14.216   7.412
 2825POPC   NC339419  32.890  36.107   5.548
 2825POPC   PO439420  33.321  35.874   5.053
 2825POPC   GL139421  33.391  36.005   5.612
 2825POPC   GL239422  33.377  35.754   5.829
 2825POPC   C1A39423  33.254  36.166   6.088
 2825POPC   D2A39424  33.049  35.989   6.495
 2825POPC   C3A39425  33.143  36.189   6.915
 2825POPC   C4A39426  32.825  36.425   7.118
 2825POPC   C1B39427  33.293  35.577   6.244
 2825POPC   C2B39428  33.329  35.604   6.695
 2825POPC   C3B39429  33.097  35.692   7.073
 2825POPC   C4B39430  33.273  35.937   7.396
 2826POPC   NC339431   0.805  28.072   5.471
 2826POPC   PO439432   0.355  28.594   5.365
 2826POPC   GL139433   0.613  28.484   5.715
 2826POPC   GL239434   0.332  28.481   5.919
 2826POPC   C1A39435   0.816  28.465   6.130
 2826POPC   D2A39436   0.707  28.698   6.508
 2826POPC   C3A39437   0.580  28.433   6.849
 2826POPC   C4A39438   0.631  28.366   7.300
 2826POPC   C1B39439   0.368  28.362   6.344
 2826POPC   C2B39440   0.256  28.076   6.649
 2826POPC   C3B39441   0.275  27.965   7.046
 2826POPC   C4B39442   0.453  27.900   7.410
 2827POPC   NC339443  34.195  24.639   5.363
 2827POPC   PO439444  33.648  24.232   5.447
 2827POPC   GL139445  33.650  24.655   5.661
 2827POPC   GL239446  33.955  24.724   5.841
 2827POPC   C1A39447  33.540  24.812   6.106
 2827POPC   D2A39448  33.509  24.577   6.523
 2827POPC   C3A39449  33.575  24.782   6.919
 2827POPC   C4A39450  33.779  24.796   7.303
 2827POPC   C1B39451  33.814  24.378   6.111
 2827POPC   C2B39452  33.788  24.151   6.521
 2827POPC   C3B39453  33.702  24.241   6.974
 2827POPC   C4B39454  33.860  24.297   7.425
 2828POPC   NC339455  10.308  24.932   5.516
 2828POPC   PO439456  10.223  25.601   5.652
 2828POPC   GL139457  10.493  25.390   5.952
 2828POPC   GL239458  10.584  25.069   5.932
 2828POPC   C1A39459  10.579  25.501   6.346
 2828POPC   D2A39460  10.408  25.327   6.699
 2828POPC   C3A39461  10.550  25.541   7.043
 2828POPC   C4A39462  10.473  25.404   7.418
 2828POPC   C1B39463  10.422  24.994   6.292
 2828POPC   C2B39464  10.483  24.814   6.670
 2828POPC   C3B39465  10.585  25.003   7.064
 2828POPC   C4B39466  10.665  24.821   7.460
 2829POPC   NC339467  19.751  40.382   5.496
 2829POPC   PO439468  19.663  39.673   5.451
 2829POPC   GL139469  19.762  39.830   5.849
 2829POPC   GL239470  19.785  40.180   5.954
 2829POPC   C1A39471  19.950  39.830   6.271
 2829POPC   D2A39472  20.008  40.156   6.584
 2829POPC   C3A39473  19.858  39.950   6.950
 2829POPC   C4A39474  19.953  39.903   7.374
 2829POPC   C1B39475  19.610  40.400   6.339
 2829POPC   C2B39476  19.571  40.370   6.798
 2829POPC   C3B39477  19.618  40.315   7.275
 2829POPC   C4B39478  19.665  40.138   7.718
 2830POPC   NC339479  20.887  27.287   5.486
 2830POPC   PO439480  21.140  27.850   5.495
 2830POPC   GL139481  20.813  27.718   5.734
 2830POPC   GL239482  20.501  27.482   5.756
 2830POPC   C1A39483  20.804  27.685   6.140
 2830POPC   D2A39484  20.693  27.966   6.452
 2830POPC   C3A39485  20.647  27.900   6.862
 2830POPC   C4A39486  20.608  27.869   7.295
 2830POPC   C1B39487  20.516  27.268   6.148
 2830POPC   C2B39488  20.597  27.472   6.564
 2830POPC   C3B39489  20.523  27.432   7.013
 2830POPC   C4B39490  20.775  27.412   7.432
 2831POPC   NC339491  24.950  41.640   5.475
 2831POPC   PO439492  25.603  41.459   5.391
 2831POPC   GL139493  25.344  41.508   5.776
 2831POPC   GL239494  25.563  41.744   5.852
 2831POPC   C1A39495  25.204  41.656   6.213
 2831POPC   D2A39496  25.337  41.466   6.609
 2831POPC   C3A39497  25.133  41.442   7.009
 2831POPC   C4A39498  25.126  41.076   7.244
 2831POPC   C1B39499  25.722  41.582   6.242
 2831POPC   C2B39500  25.713  41.812   6.644
 2831POPC   C3B39501  25.294  41.926   6.850
 2831POPC   C4B39502  25.084  41.907   7.243
 2832POPC   NC339503  35.910  43.460   5.451
 2832POPC   PO439504  36.362  44.044   5.495
 2832POPC   GL139505  36.211  43.781   5.800
 2832POPC   GL239506  35.880  43.929   5.809
 2832POPC   C1A39507  36.200  43.903   6.231
 2832POPC   D2A39508  36.212  43.687   6.597
 2832POPC   C3A39509  36.234  43.849   6.993
 2832POPC   C4A39510  36.361  43.557   7.287
 2832POPC   C1B39511  35.768  44.178   6.191
 2832POPC   C2B39512  35.788  44.025   6.628
 2832POPC   C3B39513  35.701  43.885   7.027
 2832POPC   C4B39514  35.917  43.787   7.409
 2833POPC   NC339515   7.325  40.226   5.292
 2833POPC   PO439516   7.562  39.614   5.338
 2833POPC   GL139517   7.637  39.863   5.739
 2833POPC   GL239518   7.634  40.237   5.705
 2833POPC   C1A39519   7.545  39.853   6.214
 2833POPC   D2A39520   7.280  39.900   6.601
 2833POPC   C3A39521   7.450  39.932   7.027
 2833POPC   C4A39522   7.295  40.268   7.257
 2833POPC   C1B39523   7.661  40.353   6.150
 2833POPC   C2B39524   7.809  40.179   6.562
 2833POPC   C3B39525   7.869  40.260   6.999
 2833POPC   C4B39526   7.811  40.184   7.419
 2834POPC   NC339527  30.244  19.351   5.706
 2834POPC   PO439528  29.788  19.085   5.290
 2834POPC   GL139529  29.705  18.859   5.687
 2834POPC   GL239530  29.679  19.188   5.849
 2834POPC   C1A39531  29.606  18.764   6.136
 2834POPC   D2A39532  29.549  19.006   6.534
 2834POPC   C3A39533  29.686  18.875   6.929
 2834POPC   C4A39534  29.965  19.058   7.209
 2834POPC   C1B39535  29.751  19.396   6.252
 2834POPC   C2B39536  30.151  19.464   6.474
 2834POPC   C3B39537  30.282  19.254   6.845
 2834POPC   C4B39538  30.184  19.518   7.165
 2835POPC   NC339539  14.982  39.579   5.464
 2835POPC   PO439540  15.417  39.157   5.213
 2835POPC   GL139541  15.226  39.129   5.672
 2835POPC   GL239542  15.433  39.247   5.943
 2835POPC   C1A39543  14.992  39.135   6.130
 2835POPC   D2A39544  14.837  39.363   6.550
 2835POPC   C3A39545  15.080  39.447   6.960
 2835POPC   C4A39546  15.201  39.075   7.213
 2835POPC   C1B39547  15.296  39.545   6.206
 2835POPC   C2B39548  15.364  39.334   6.559
 2835POPC   C3B39549  15.596  39.293   6.925
 2835POPC   C4B39550  15.515  39.457   7.305
 2836POPC   NC339551  24.599  20.092   5.425
 2836POPC   PO439552  24.685  19.432   5.269
 2836POPC   GL139553  24.724  19.573   5.754
 2836POPC   GL239554  24.473  19.824   5.822
 2836POPC   C1A39555  24.757  19.816   6.235
 2836POPC   D2A39556  24.516  19.981   6.635
 2836POPC   C3A39557  24.629  20.027   7.094
 2836POPC   C4A39558  24.685  19.726   7.447
 2836POPC   C1B39559  24.200  19.895   6.199
 2836POPC   C2B39560  23.983  19.946   6.577
 2836POPC   C3B39561  23.959  19.788   6.965
 2836POPC   C4B39562  24.169  19.903   7.325
 2837POPC   NC339563  37.475  19.008   5.421
 2837POPC   PO439564  38.181  18.749   5.521
 2837POPC   GL139565  37.923  18.946   5.846
 2837POPC   GL239566  37.662  19.186   5.854
 2837POPC   C1A39567  37.872  19.098   6.292
 2837POPC   D2A39568  37.900  18.944   6.710
 2837POPC   C3A39569  37.821  19.247   7.042
 2837POPC   C4A39570  37.707  19.462   7.384
 2837POPC   C1B39571  37.462  18.859   6.100
 2837POPC   C2B39572  37.288  19.007   6.477
 2837POPC   C3B39573  37.420  19.018   6.873
 2837POPC   C4B39574  37.670  18.782   7.181
 2838POPC   NC339575   6.778  26.506   5.492
 2838POPC   PO439576   6.478  27.114   5.238
 2838POPC   GL139577   6.628  26.955   5.708
 2838POPC   GL239578   6.360  26.938   5.946
 2838POPC   C1A39579   6.794  26.731   6.129
 2838POPC   D2A39580   6.738  26.901   6.552
 2838POPC   C3A39581   6.883  26.717   6.939
 2838POPC   C4A39582   6.898  26.892   7.363
 2838POPC   C1B39583   6.291  26.676   6.334
 2838POPC   C2B39584   6.194  26.776   6.783
 2838POPC   C3B39585   6.230  26.921   7.227
 2838POPC   C4B39586   6.243  26.745   7.647
 2839POPC   NC339587  18.066  44.808   5.535
 2839POPC   PO439588  18.445  44.255   5.553
 2839POPC   GL139589  18.356  44.448   5.899
 2839POPC   GL239590  18.473  44.771   5.838
 2839POPC   C1A39591  18.263  44.535   6.310
 2839POPC   D2A39592  18.456  44.689   6.661
 2839POPC   C3A39593  18.138  44.554   6.947
 2839POPC   C4A39594  17.954  44.454   7.330
 2839POPC   C1B39595  18.436   0.008   6.199
 2839POPC   C2B39596  18.361   0.198   6.576
 2839POPC   C3B39597  18.242   0.062   6.959
 2839POPC   C4B39598  18.535  44.780   7.185
 2840POPC   NC339599  37.660  36.418   5.493
 2840POPC   PO439600  38.017  35.834   5.264
 2840POPC   GL139601  37.777  35.938   5.655
 2840POPC   GL239602  37.386  35.997   5.703
 2840POPC   C1A39603  37.763  36.095   6.107
 2840POPC   D2A39604  37.599  36.246   6.547
 2840POPC   C3A39605  37.660  36.022   6.968
 2840POPC   C4A39606  37.909  35.980   7.345
 2840POPC   C1B39607  37.238  36.239   6.101
 2840POPC   C2B39608  37.087  36.323   6.554
 2840POPC   C3B39609  37.284  36.362   6.980
 2840POPC   C4B39610  37.322  36.129   7.409
 2841POPC   NC339611  35.345   1.332   5.422
 2841POPC   PO439612  35.726   0.776   5.538
 2841POPC   GL139613  35.562   1.088   5.808
 2841POPC   GL239614  35.177   1.086   5.851
 2841POPC   C1A39615  35.542   1.297   6.186
 2841POPC   D2A39616  35.432   1.138   6.561
 2841POPC   C3A39617  35.556   1.410   6.863
 2841POPC   C4A39618  35.490   1.161   7.215
 2841POPC   C1B39619  35.048   1.453   6.119
 2841POPC   C2B39620  35.102   1.538   6.559
 2841POPC   C3B39621  35.055   1.358   6.989
 2841POPC   C4B39622  35.243   1.586   7.361
 2842POPC   NC339623   3.311   0.320   5.524
 2842POPC   PO439624   3.878   0.038   5.652
 2842POPC   GL139625   3.627   0.340   5.924
 2842POPC   GL239626   3.481   0.695   5.809
 2842POPC   C1A39627   3.267   0.330   6.238
 2842POPC   D2A39628   3.136   0.229   6.682
 2842POPC   C3A39629   3.487   0.150   7.000
 2842POPC   C4A39630   3.513   0.309   7.428
 2842POPC   C1B39631   3.599   0.724   6.250
 2842POPC   C2B39632   3.562   0.533   6.653
 2842POPC   C3B39633   3.445   0.690   7.060
 2842POPC   C4B39634   3.699   0.788   7.414
 2843POPC   NC339635  23.432  41.946   5.446
 2843POPC   PO439636  23.210  41.338   5.293
 2843POPC   GL139637  23.395  41.502   5.723
 2843POPC   GL239638  23.298  41.793   5.887
 2843POPC   C1A39639  23.745  41.339   6.032
 2843POPC   D2A39640  23.947  41.502   6.416
 2843POPC   C3A39641  23.739  41.511   6.823
 2843POPC   C4A39642  23.870  41.637   7.245
 2843POPC   C1B39643  23.474  41.707   6.248
 2843POPC   C2B39644  23.429  41.906   6.606
 2843POPC   C3B39645  23.270  41.761   6.963
 2843POPC   C4B39646  23.414  41.876   7.322
 2844POPC   NC339647  33.891  17.765   5.399
 2844POPC   PO439648  33.579  17.174   5.564
 2844POPC   GL139649  33.872  17.350   5.817
 2844POPC   GL239650  33.854  17.693   5.896
 2844POPC   C1A39651  33.898  17.321   6.253
 2844POPC   D2A39652  33.982  17.610   6.557
 2844POPC   C3A39653  34.036  17.328   6.837
 2844POPC   C4A39654  33.959  17.333   7.235
 2844POPC   C1B39655  33.576  17.759   6.219
 2844POPC   C2B39656  33.464  17.499   6.558
 2844POPC   C3B39657  33.582  17.558   6.969
 2844POPC   C4B39658  33.497  17.535   7.392
 2845POPC   NC339659   0.670  43.021   5.477
 2845POPC   PO439660   0.074  42.885   5.514
 2845POPC   GL139661   0.306  43.171   5.836
 2845POPC   GL239662   0.698  43.237   5.915
 2845POPC   C1A39663   0.330  43.128   6.285
 2845POPC   D2A39664   0.389  43.296   6.724
 2845POPC   C3A39665   0.265  43.090   7.142
 2845POPC   C4A39666   0.223  43.277   7.569
 2845POPC   C1B39667   0.791  42.878   6.122
 2845POPC   C2B39668   0.713  42.910   6.554
 2845POPC   C3B39669   0.743  43.006   6.963
 2845POPC   C4B39670   0.910  42.726   7.238
 2846POPC   NC339671   6.424  30.371   5.030
 2846POPC   PO439672   6.650  30.880   5.441
 2846POPC   GL139673   6.508  30.866   5.859
 2846POPC   GL239674   6.194  30.707   5.748
 2846POPC   C1A39675   6.744  31.023   6.252
 2846POPC   D2A39676   6.731  31.007   6.717
 2846POPC   C3A39677   6.582  30.654   6.876
 2846POPC   C4A39678   6.544  30.585   7.320
 2846POPC   C1B39679   6.110  30.664   6.197
 2846POPC   C2B39680   6.100  30.593   6.650
 2846POPC   C3B39681   6.134  30.763   7.079
 2846POPC   C4B39682   6.457  31.053   7.181
 2847POPC   NC339683  30.242  42.646   5.597
 2847POPC   PO439684  30.146  43.301   5.433
 2847POPC   GL139685  29.992  43.060   5.796
 2847POPC   GL239686  30.306  42.986   5.994
 2847POPC   C1A39687  29.830  42.948   6.230
 2847POPC   D2A39688  29.797  42.763   6.661
 2847POPC   C3A39689  29.690  42.999   7.035
 2847POPC   C4A39690  29.961  43.322   7.152
 2847POPC   C1B39691  30.226  42.599   6.252
 2847POPC   C2B39692  30.191  42.457   6.683
 2847POPC   C3B39693  30.183  42.811   7.011
 2847POPC   C4B39694  29.999  42.894   7.427
 2848POPC   NC339695  15.957  41.441   5.336
 2848POPC   PO439696  15.669  41.923   5.766
 2848POPC   GL139697  16.055  41.616   5.855
 2848POPC   GL239698  16.209  41.271   5.742
 2848POPC   C1A39699  16.264  41.578   6.271
 2848POPC   D2A39700  16.116  41.607   6.736
 2848POPC   C3A39701  15.753  41.833   6.932
 2848POPC   C4A39702  15.608  41.806   7.332
 2848POPC   C1B39703  16.014  41.142   6.103
 2848POPC   C2B39704  16.133  41.146   6.505
 2848POPC   C3B39705  16.045  41.122   6.923
 2848POPC   C4B39706  16.001  41.470   7.226
 2849POPC   NC339707  41.357  44.792   5.376
 2849POPC   PO439708  41.924  44.442   5.292
 2849POPC   GL139709  41.792  44.491   5.724
 2849POPC   GL239710  41.422  44.502   5.806
 2849POPC   C1A39711  41.788  44.643   6.173
 2849POPC   D2A39712  41.581  44.582   6.548
 2849POPC   C3A39713  41.732  44.681   6.930
 2849POPC   C4A39714  41.856  44.734   7.333
 2849POPC   C1B39715  41.215  44.603   6.193
 2849POPC   C2B39716  41.092  44.688   6.591
 2849POPC   C3B39717  41.225  44.429   6.896
 2849POPC   C4B39718  41.462  44.417   7.265
 2850POPC   NC339719  22.665  22.637   5.552
 2850POPC   PO439720  22.077  22.854   5.343
 2850POPC   GL139721  22.102  22.908   5.786
 2850POPC   GL239722  22.415  23.050   5.858
 2850POPC   C1A39723  22.214  22.726   6.204
 2850POPC   D2A39724  22.255  22.579   6.659
 2850POPC   C3A39725  22.092  22.654   7.098
 2850POPC   C4A39726  22.144  22.463   7.494
 2850POPC   C1B39727  22.174  23.240   6.188
 2850POPC   C2B39728  22.251  23.091   6.588
 2850POPC   C3B39729  22.360  23.070   6.993
 2850POPC   C4B39730  22.101  23.164   7.267
 2851POPC   NC339731  30.950   5.361   5.379
 2851POPC   PO439732  30.690   5.948   5.093
 2851POPC   GL139733  30.539   5.838   5.600
 2851POPC   GL239734  30.358   6.098   5.850
 2851POPC   C1A39735  30.602   5.761   6.110
 2851POPC   D2A39736  30.353   5.834   6.512
 2851POPC   C3A39737  30.471   5.780   6.941
 2851POPC   C4A39738  30.613   5.690   7.385
 2851POPC   C1B39739  30.478   6.275   6.275
 2851POPC   C2B39740  30.712   6.165   6.677
 2851POPC   C3B39741  30.810   6.108   7.153
 2851POPC   C4B39742  30.667   6.147   7.617
 2852POPC   NC339743  10.981  32.289   5.323
 2852POPC   PO439744  11.519  31.906   5.445
 2852POPC   GL139745  11.206  32.061   5.780
 2852POPC   GL239746  11.368  32.296   6.009
 2852POPC   C1A39747  10.898  32.181   6.156
 2852POPC   D2A39748  10.984  32.421   6.569
 2852POPC   C3A39749  11.223  32.173   6.890
 2852POPC   C4A39750  11.046  32.070   7.305
 2852POPC   C1B39751  11.625  31.985   6.210
 2852POPC   C2B39752  11.649  31.864   6.644
 2852POPC   C3B39753  11.604  31.868   7.082
 2852POPC   C4B39754  11.527  32.225   7.375
 2853POPC   NC339755   0.802  19.362   5.444
 2853POPC   PO439756   1.456  19.053   5.410
 2853POPC   GL139757   1.159  19.115   5.739
 2853POPC   GL239758   1.113  19.450   5.873
 2853POPC   C1A39759   1.055  19.045   6.174
 2853POPC   D2A39760   1.144  19.207   6.584
 2853POPC   C3A39761   1.249  18.877   6.904
 2853POPC   C4A39762   0.972  18.722   7.234
 2853POPC   C1B39763   1.495  19.283   6.149
 2853POPC   C2B39764   1.629  19.397   6.587
 2853POPC   C3B39765   1.436  19.351   7.030
 2853POPC   C4B39766   1.352  19.069   7.378
 2854POPC   NC339767  21.549  23.812   5.396
 2854POPC   PO439768  21.763  23.277   5.592
 2854POPC   GL139769  21.494  23.570   5.876
 2854POPC   GL239770  21.540  23.929   5.888
 2854POPC   C1A39771  21.231  23.714   6.278
 2854POPC   D2A39772  21.141  23.888   6.732
 2854POPC   C3A39773  21.344  23.584   7.027
 2854POPC   C4A39774  21.786  23.496   7.034
 2854POPC   C1B39775  21.712  23.870   6.285
 2854POPC   C2B39776  21.648  23.892   6.723
 2854POPC   C3B39777  21.618  23.998   7.155
 2854POPC   C4B39778  21.715  24.179   7.553
 2855POPC   NC339779  22.610  19.572   5.328
 2855POPC   PO439780  23.242  19.395   5.472
 2855POPC   GL139781  23.098  19.155   5.849
 2855POPC   GL239782  22.745  19.035   5.795
 2855POPC   C1A39783  22.951  19.170   6.313
 2855POPC   D2A39784  22.809  19.267   6.761
 2855POPC   C3A39785  22.984  19.499   7.130
 2855POPC   C4A39786  22.932  19.594   7.577
 2855POPC   C1B39787  22.642  18.784   6.189
 2855POPC   C2B39788  22.782  18.762   6.649
 2855POPC   C3B39789  22.737  18.879   7.096
 2855POPC   C4B39790  22.683  18.626   7.477
 2856POPC   NC339791  37.217   3.032   5.545
 2856POPC   PO439792  36.582   3.046   5.572
 2856POPC   GL139793  36.651   2.795   5.925
 2856POPC   GL239794  37.009   2.851   5.964
 2856POPC   C1A39795  36.777   2.503   6.281
 2856POPC   D2A39796  36.813   2.512   6.740
 2856POPC   C3A39797  36.818   2.929   6.879
 2856POPC   C4A39798  36.692   2.963   7.299
 2856POPC   C1B39799  37.143   2.885   6.375
 2856POPC   C2B39800  37.371   2.832   6.743
 2856POPC   C3B39801  37.196   2.709   7.131
 2856POPC   C4B39802  37.099   2.729   7.558
 2857POPC   NC339803  22.689  41.437   5.273
 2857POPC   PO439804  22.927  42.049   5.462
 2857POPC   GL139805  22.838  41.664   5.723
 2857POPC   GL239806  22.906  41.265   5.712
 2857POPC   C1A39807  22.936  41.517   6.149
 2857POPC   D2A39808  23.070  41.546   6.541
 2857POPC   C3A39809  22.817  41.479   6.892
 2857POPC   C4A39810  22.954  41.497   7.291
 2857POPC   C1B39811  23.257  41.130   6.026
 2857POPC   C2B39812  23.461  41.226   6.442
 2857POPC   C3B39813  23.308  41.229   6.879
 2857POPC   C4B39814  23.436  41.359   7.265
 2858POPC   NC339815  15.768  14.570   5.367
 2858POPC   PO439816  16.418  14.592   5.486
 2858POPC   GL139817  16.127  14.481   5.810
 2858POPC   GL239818  16.069  14.136   5.809
 2858POPC   C1A39819  16.077  14.614   6.243
 2858POPC   D2A39820  15.865  14.831   6.587
 2858POPC   C3A39821  16.104  14.769   6.963
 2858POPC   C4A39822  16.144  14.487   7.318
 2858POPC   C1B39823  16.049  14.092   6.207
 2858POPC   C2B39824  15.813  14.071   6.569
 2858POPC   C3B39825  15.928  14.183   6.974
 2858POPC   C4B39826  15.741  14.188   7.375
 2859POPC   NC339827  23.636  19.622   5.465
 2859POPC   PO439828  24.139  20.013   5.338
 2859POPC   GL139829  23.951  19.871   5.765
 2859POPC   GL239830  24.055  19.535   5.791
 2859POPC   C1A39831  23.674  19.788   6.191
 2859POPC   D2A39832  23.364  19.699   6.595
 2859POPC   C3A39833  23.408  19.819   7.058
 2859POPC   C4A39834  23.673  20.122   7.252
 2859POPC   C1B39835  23.949  19.366   6.201
 2859POPC   C2B39836  23.801  19.434   6.617
 2859POPC   C3B39837  23.642  19.384   7.026
 2859POPC   C4B39838  23.753  19.614   7.406
 2860POPC   NC339839  34.636  23.548   5.200
 2860POPC   PO439840  34.668  22.852   5.321
 2860POPC   GL139841  34.729  22.944   5.757
 2860POPC   GL239842  34.393  23.084   5.696
 2860POPC   C1A39843  34.843  22.934   6.239
 2860POPC   D2A39844  34.742  23.071   6.676
 2860POPC   C3A39845  34.816  22.821   7.057
 2860POPC   C4A39846  35.032  22.881   7.444
 2860POPC   C1B39847  34.319  22.898   6.080
 2860POPC   C2B39848  34.269  22.961   6.497
 2860POPC   C3B39849  34.320  22.856   6.920
 2860POPC   C4B39850  34.470  23.184   7.140
 2861POPC   NC339851   4.530  38.828   5.441
 2861POPC   PO439852   4.598  38.078   5.416
 2861POPC   GL139853   4.331  38.190   5.796
 2861POPC   GL239854   4.359  38.573   5.829
 2861POPC   C1A39855   4.415  38.326   6.246
 2861POPC   D2A39856   4.243  38.555   6.596
 2861POPC   C3A39857   4.421  38.477   6.975
 2861POPC   C4A39858   4.241  38.552   7.334
 2861POPC   C1B39859   4.483  38.830   6.200
 2861POPC   C2B39860   4.515  38.991   6.639
 2861POPC   C3B39861   4.404  38.983   7.114
 2861POPC   C4B39862   4.608  38.812   7.527
 2862POPC   NC339863  37.893  22.908   5.422
 2862POPC   PO439864  38.553  23.081   5.384
 2862POPC   GL139865  38.547  22.880   5.806
 2862POPC   GL239866  38.216  22.886   5.890
 2862POPC   C1A39867  38.535  22.866   6.296
 2862POPC   D2A39868  38.317  22.796   6.731
 2862POPC   C3A39869  38.503  22.796   7.159
 2862POPC   C4A39870  38.834  22.988   7.444
 2862POPC   C1B39871  38.022  22.969   6.309
 2862POPC   C2B39872  37.911  23.129   6.723
 2862POPC   C3B39873  38.110  23.122   7.114
 2862POPC   C4B39874  38.108  23.361   7.471
 2863POPC   NC339875   2.754  29.255   5.502
 2863POPC   PO439876   3.415  28.879   5.444
 2863POPC   GL139877   3.039  28.888   5.786
 2863POPC   GL239878   2.906  29.182   5.972
 2863POPC   C1A39879   2.673  28.759   6.112
 2863POPC   D2A39880   2.435  28.699   6.522
 2863POPC   C3A39881   2.629  28.820   6.896
 2863POPC   C4A39882   2.817  28.735   7.274
 2863POPC   C1B39883   3.145  29.074   6.285
 2863POPC   C2B39884   3.035  29.060   6.674
 2863POPC   C3B39885   3.165  29.055   7.053
 2863POPC   C4B39886   2.901  29.243   7.333
 2864POPC   NC339887  21.621  24.744   5.433
 2864POPC   PO439888  21.252  24.159   5.439
 2864POPC   GL139889  21.374  24.398   5.800
 2864POPC   GL239890  21.166  24.592   5.900
 2864POPC   C1A39891  21.304  24.233   6.262
 2864POPC   D2A39892  21.494  24.389   6.652
 2864POPC   C3A39893  21.333  24.404   7.079
 2864POPC   C4A39894  21.351  24.662   7.433
 2864POPC   C1B39895  21.367  24.738   6.272
 2864POPC   C2B39896  21.668  24.883   6.585
 2864POPC   C3B39897  21.445  24.905   6.979
 2864POPC   C4B39898  20.977  24.804   7.090
 2865POPC   NC339899  38.861  40.827   5.206
 2865POPC   PO439900  39.446  41.120   5.352
 2865POPC   GL139901  39.278  40.791   5.673
 2865POPC   GL239902  39.060  41.005   5.831
 2865POPC   C1A39903  39.118  40.599   6.116
 2865POPC   D2A39904  39.247  40.544   6.545
 2865POPC   C3A39905  39.016  40.613   6.965
 2865POPC   C4A39906  39.225  40.515   7.386
 2865POPC   C1B39907  39.239  41.074   6.265
 2865POPC   C2B39908  39.180  41.038   6.706
 2865POPC   C3B39909  39.278  41.049   7.142
 2865POPC   C4B39910  39.262  41.049   7.578
 2866POPC   NC339911  43.627   4.928   5.198
 2866POPC   PO439912  42.995   5.238   5.177
 2866POPC   GL139913  43.197   5.177   5.590
 2866POPC   GL239914  43.172   4.822   5.682
 2866POPC   C1A39915  43.138   5.146   6.073
 2866POPC   D2A39916  43.003   4.866   6.451
 2866POPC   C3A39917  43.095   5.016   6.876
 2866POPC   C4A39918  43.217   5.296   7.206
 2866POPC   C1B39919  43.398   4.702   6.125
 2866POPC   C2B39920  43.535   4.722   6.607
 2866POPC   C3B39921  43.501   4.784   7.097
 2866POPC   C4B39922  43.185   4.861   7.460
 2867POPC   NC339923  32.502   2.555   5.430
 2867POPC   PO439924  32.192   3.161   5.278
 2867POPC   GL139925  32.125   2.868   5.652
 2867POPC   GL239926  32.078   2.476   5.693
 2867POPC   C1A39927  32.323   2.830   6.081
 2867POPC   D2A39928  32.261   2.985   6.530
 2867POPC   C3A39929  32.239   3.019   7.003
 2867POPC   C4A39930  31.917   2.816   7.230
 2867POPC   C1B39931  32.068   2.370   6.128
 2867POPC   C2B39932  32.436   2.459   6.433
 2867POPC   C3B39933  32.522   2.651   6.815
 2867POPC   C4B39934  32.364   2.568   7.249
 2868POPC   NC339935   1.016   5.678   5.383
 2868POPC   PO439936   1.420   6.299   5.179
 2868POPC   GL139937   1.299   6.073   5.575
 2868POPC   GL239938   1.462   5.773   5.685
 2868POPC   C1A39939   1.170   5.981   6.033
 2868POPC   D2A39940   0.908   5.871   6.428
 2868POPC   C3A39941   0.894   5.915   6.909
 2868POPC   C4A39942   1.177   5.981   7.290
 2868POPC   C1B39943   1.474   5.571   6.092
 2868POPC   C2B39944   1.451   5.814   6.459
 2868POPC   C3B39945   1.363   5.732   6.871
 2868POPC   C4B39946   1.497   5.431   7.136
 2869POPC   NC339947  36.753  27.628   5.308
 2869POPC   PO439948  37.353  27.671   5.374
 2869POPC   GL139949  37.080  27.524   5.706
 2869POPC   GL239950  36.841  27.761   5.811
 2869POPC   C1A39951  37.041  27.391   6.164
 2869POPC   D2A39952  36.825  27.402   6.568
 2869POPC   C3A39953  37.003  27.618   6.879
 2869POPC   C4A39954  37.123  27.318   7.172
 2869POPC   C1B39955  36.703  27.765   6.231
 2869POPC   C2B39956  36.614  27.891   6.651
 2869POPC   C3B39957  36.492  27.943   7.073
 2869POPC   C4B39958  36.545  27.818   7.521
 2870POPC   NC339959  36.373  38.617   5.415
 2870POPC   PO439960  35.786  38.298   5.434
 2870POPC   GL139961  36.015  38.351   5.823
 2870POPC   GL239962  36.059  38.701   5.898
 2870POPC   C1A39963  35.940  38.387   6.281
 2870POPC   D2A39964  36.187  38.196   6.612
 2870POPC   C3A39965  35.944  38.233   6.980
 2870POPC   C4A39966  35.782  38.579   7.195
 2870POPC   C1B39967  36.401  38.538   6.177
 2870POPC   C2B39968  36.681  38.585   6.566
 2870POPC   C3B39969  36.599  38.382   6.966
 2870POPC   C4B39970  36.299  38.533   7.231
 2871POPC   NC339971  24.951  10.388   5.455
 2871POPC   PO439972  24.308  10.693   5.269
 2871POPC   GL139973  24.562  10.664   5.660
 2871POPC   GL239974  24.593  10.303   5.811
 2871POPC   C1A39975  24.500  10.723   6.105
 2871POPC   D2A39976  24.315  10.694   6.519
 2871POPC   C3A39977  24.597  10.641   6.875
 2871POPC   C4A39978  24.693  10.657   7.305
 2871POPC   C1B39979  24.779  10.280   6.245
 2871POPC   C2B39980  24.677  10.160   6.697
 2871POPC   C3B39981  24.904  10.241   7.104
 2871POPC   C4B39982  24.841  10.256   7.603
 2872POPC   NC339983  26.799  28.319   5.190
 2872POPC   PO439984  27.203  27.945   5.412
 2872POPC   GL139985  26.949  28.246   5.721
 2872POPC   GL239986  26.824  28.607   5.651
 2872POPC   C1A39987  26.819  28.274   6.196
 2872POPC   D2A39988  26.682  28.426   6.633
 2872POPC   C3A39989  26.694  28.184   7.045
 2872POPC   C4A39990  27.003  28.060   7.377
 2872POPC   C1B39991  26.990  28.742   6.092
 2872POPC   C2B39992  27.149  28.633   6.525
 2872POPC   C3B39993  27.066  28.538   6.993
 2872POPC   C4B39994  26.789  28.570   7.377
 2873POPC   NC339995   4.411  13.123   5.388
 2873POPC   PO439996   4.168  12.554   5.173
 2873POPC   GL139997   4.283  12.591   5.723
 2873POPC   GL239998   4.446  12.920   5.847
 2873POPC   C1A39999   4.206  12.647   6.191
 2873POPC   D2A40000   4.072  12.536   6.599
 2873POPC   C3A40001   4.252  12.763   6.956
 2873POPC   C4A40002   4.215  13.059   7.324
 2873POPC   C1B40003   4.667  12.859   6.277
 2873POPC   C2B40004   4.668  13.030   6.722
 2873POPC   C3B40005   4.691  12.980   7.171
 2873POPC   C4B40006   4.479  12.630   7.402
 2874POPC   NC340007   0.272  33.946   5.540
 2874POPC   PO440008   0.480  34.578   5.572
 2874POPC   GL140009   0.490  34.537   5.949
 2874POPC   GL240010   0.135  34.460   5.950
 2874POPC   C1A40011   0.374  34.756   6.310
 2874POPC   D2A40012   0.281  34.782   6.736
 2874POPC   C3A40013   0.653  34.782   7.023
 2874POPC   C4A40014   0.679  34.745   7.485
 2874POPC   C1B40015  44.988  34.410   6.379
 2874POPC   C2B40016   0.158  34.271   6.755
 2874POPC   C3B40017   0.091  34.282   7.154
 2874POPC   C4B40018   0.223  34.650   7.231
 2875POPC   NC340019  42.083   5.893   5.408
 2875POPC   PO440020  42.750   5.846   5.464
 2875POPC   GL140021  42.621   5.933   5.878
 2875POPC   GL240022  42.329   6.105   5.812
 2875POPC   C1A40023  42.440   5.900   6.309
 2875POPC   D2A40024  42.340   5.682   6.705
 2875POPC   C3A40025  42.353   5.827   7.146
 2875POPC   C4A40026  42.559   5.617   7.532
 2875POPC   C1B40027  42.055   6.222   6.147
 2875POPC   C2B40028  41.987   6.058   6.552
 2875POPC   C3B40029  41.973   6.236   6.942
 2875POPC   C4B40030  41.911   6.040   7.323
 2876POPC   NC340031  31.291  38.037   5.063
 2876POPC   PO440032  31.651  38.411   5.503
 2876POPC   GL140033  31.491  38.581   5.885
 2876POPC   GL240034  31.598  38.294   6.034
 2876POPC   C1A40035  31.401  38.628   6.374
 2876POPC   D2A40036  31.647  38.601   6.806
 2876POPC   C3A40037  31.420  38.635   7.217
 2876POPC   C4A40038  31.205  38.717   7.658
 2876POPC   C1B40039  31.631  38.182   6.462
 2876POPC   C2B40040  31.290  38.218   6.757
 2876POPC   C3B40041  31.331  38.083   7.162
 2876POPC   C4B40042  31.359  38.243   7.576
 2877POPC   NC340043   8.190  31.868   5.014
 2877POPC   PO440044   8.284  32.557   5.361
 2877POPC   GL140045   8.253  32.347   5.825
 2877POPC   GL240046   8.530  32.103   5.926
 2877POPC   C1A40047   8.105  32.034   6.205
 2877POPC   D2A40048   7.782  31.963   6.545
 2877POPC   C3A40049   7.867  32.194   6.953
 2877POPC   C4A40050   8.177  32.290   7.279
 2877POPC   C1B40051   8.466  32.379   6.323
 2877POPC   C2B40052   8.382  32.348   6.782
 2877POPC   C3B40053   8.582  32.547   7.167
 2877POPC   C4B40054   8.550  32.439   7.609
 2878POPC   NC340055  39.145  13.242   5.420
 2878POPC   PO440056  39.045  12.614   5.275
 2878POPC   GL140057  39.010  12.779   5.719
 2878POPC   GL240058  39.202  12.506   5.893
 2878POPC   C1A40059  38.946  12.848   6.190
 2878POPC   D2A40060  39.042  12.637   6.618
 2878POPC   C3A40061  38.924  12.884   7.001
 2878POPC   C4A40062  38.833  13.014   7.423
 2878POPC   C1B40063  39.438  12.678   6.234
 2878POPC   C2B40064  39.573  12.774   6.647
 2878POPC   C3B40065  39.397  12.633   7.033
 2878POPC   C4B40066  39.525  12.653   7.457
 2879POPC   NC340067  38.908  32.565   5.448
 2879POPC   PO440068  39.116  31.958   5.514
 2879POPC   GL140069  39.035  31.959   5.933
 2879POPC   GL240070  38.995  32.314   5.925
 2879POPC   C1A40071  39.191  31.986   6.347
 2879POPC   D2A40072  39.138  32.136   6.771
 2879POPC   C3A40073  39.415  32.058   7.103
 2879POPC   C4A40074  39.386  32.167   7.547
 2879POPC   C1B40075  38.923  32.441   6.360
 2879POPC   C2B40076  38.850  32.559   6.803
 2879POPC   C3B40077  39.020  32.430   7.232
 2879POPC   C4B40078  39.166  32.616   7.646
 2880POPC   NC340079   4.103  26.474   5.495
 2880POPC   PO440080   4.247  25.768   5.457
 2880POPC   GL140081   4.537  26.190   5.662
 2880POPC   GL240082   4.381  26.475   5.901
 2880POPC   C1A40083   4.807  26.336   6.075
 2880POPC   D2A40084   4.664  26.107   6.445
 2880POPC   C3A40085   4.560  26.332   6.819
 2880POPC   C4A40086   4.466  26.225   7.261
 2880POPC   C1B40087   4.284  26.073   6.098
 2880POPC   C2B40088   4.231  25.832   6.470
 2880POPC   C3B40089   4.225  25.927   6.897
 2880POPC   C4B40090   4.100  25.779   7.295
 2881POPC   NC340091  40.197  20.670   5.475
 2881POPC   PO440092  40.848  20.783   5.383
 2881POPC   GL140093  40.894  20.616   5.753
 2881POPC   GL240094  41.072  20.867   5.911
 2881POPC   C1A40095  40.687  20.609   6.159
 2881POPC   D2A40096  40.855  20.721   6.567
 2881POPC   C3A40097  40.668  20.639   6.962
 2881POPC   C4A40098  40.823  20.680   7.369
 2881POPC   C1B40099  41.188  20.503   6.200
 2881POPC   C2B40100  41.172  20.290   6.627
 2881POPC   C3B40101  41.183  20.391   7.089
 2881POPC   C4B40102  41.125  20.314   7.557
 2882POPC   NC340103   7.685  43.698   5.187
 2882POPC   PO440104   7.225  44.114   5.391
 2882POPC   GL140105   7.342  43.880   5.751
 2882POPC   GL240106   7.231  43.514   5.783
 2882POPC   C1A40107   7.225  43.852   6.198
 2882POPC   D2A40108   7.254  44.153   6.547
 2882POPC   C3A40109   7.487  44.120   6.928
 2882POPC   C4A40110   7.437  44.064   7.376
 2882POPC   C1B40111   7.047  43.385   6.219
 2882POPC   C2B40112   6.994  43.649   6.612
 2882POPC   C3B40113   7.155  43.747   7.013
 2882POPC   C4B40114   7.197  43.605   7.416
 2883POPC   NC340115  36.166  15.394   5.491
 2883POPC   PO440116  35.657  14.903   5.435
 2883POPC   GL140117  36.002  14.969   5.741
 2883POPC   GL240118  36.292  14.782   5.804
 2883POPC   C1A40119  36.053  15.137   6.162
 2883POPC   D2A40120  36.334  14.985   6.516
 2883POPC   C3A40121  36.335  15.223   6.914
 2883POPC   C4A40122  35.920  15.373   7.109
 2883POPC   C1B40123  36.002  14.635   6.160
 2883POPC   C2B40124  35.832  14.809   6.527
 2883POPC   C3B40125  35.945  14.901   6.887
 2883POPC   C4B40126  36.117  14.934   7.255
 2884POPC   NC340127   4.719  40.066   5.399
 2884POPC   PO440128   4.087  39.868   5.254
 2884POPC   GL140129   4.292  39.833   5.691
 2884POPC   GL240130   4.307  40.183   5.834
 2884POPC   C1A40131   4.238  39.779   6.163
 2884POPC   D2A40132   4.101  40.021   6.543
 2884POPC   C3A40133   4.055  39.798   6.913
 2884POPC   C4A40134   4.036  39.962   7.341
 2884POPC   C1B40135   4.514  40.192   6.266
 2884POPC   C2B40136   4.610  39.958   6.663
 2884POPC   C3B40137   4.505  39.945   7.108
 2884POPC   C4B40138   4.461  40.272   7.437
 2885POPC   NC340139  39.098   0.554   5.239
 2885POPC   PO440140  39.527   0.050   5.520
 2885POPC   GL140141  39.300   0.182   5.884
 2885POPC   GL240142  39.190   0.502   5.753
 2885POPC   C1A40143  39.229   0.189   6.325
 2885POPC   D2A40144  39.330   0.514   6.593
 2885POPC   C3A40145  39.525   0.430   6.960
 2885POPC   C4A40146  39.349   0.199   7.282
 2885POPC   C1B40147  38.937   0.588   6.118
 2885POPC   C2B40148  38.818   0.595   6.570
 2885POPC   C3B40149  38.999   0.432   6.984
 2885POPC   C4B40150  39.060   0.642   7.385
 2886POPC   NC340151  44.737  43.383   5.477
 2886POPC   PO440152  44.417  42.795   5.305
 2886POPC   GL140153  44.574  42.976   5.718
 2886POPC   GL240154  44.289  43.095   5.898
 2886POPC   C1A40155  44.753  43.078   6.156
 2886POPC   D2A40156  44.634  42.904   6.569
 2886POPC   C3A40157  44.766  43.084   6.949
 2886POPC   C4A40158  44.765  42.971   7.361
 2886POPC   C1B40159  44.397  43.427   6.186
 2886POPC   C2B40160  44.571  43.413   6.578
 2886POPC   C3B40161  44.366  43.407   6.952
 2886POPC   C4B40162  44.344  43.254   7.348
 2887POPC   NC340163   4.179   2.366   5.177
 2887POPC   PO440164   4.477   1.862   5.385
 2887POPC   GL140165   4.350   2.040   5.750
 2887POPC   GL240166   4.061   2.207   5.714
 2887POPC   C1A40167   4.591   2.081   6.130
 2887POPC   D2A40168   4.531   1.895   6.508
 2887POPC   C3A40169   4.590   2.060   6.916
 2887POPC   C4A40170   4.608   1.902   7.345
 2887POPC   C1B40171   4.077   2.084   6.210
 2887POPC   C2B40172   4.108   2.117   6.690
 2887POPC   C3B40173   4.154   1.858   7.091
 2887POPC   C4B40174   4.069   1.920   7.547
 2888POPC   NC340175  37.068  37.222   5.547
 2888POPC   PO440176  36.441  37.038   5.379
 2888POPC   GL140177  36.753  36.917   5.785
 2888POPC   GL240178  37.042  36.723   5.764
 2888POPC   C1A40179  36.757  37.126   6.255
 2888POPC   D2A40180  36.444  37.173   6.646
 2888POPC   C3A40181  36.642  37.181   7.064
 2888POPC   C4A40182  37.021  37.135   7.361
 2888POPC   C1B40183  36.824  36.605   6.181
 2888POPC   C2B40184  36.725  36.717   6.640
 2888POPC   C3B40185  36.850  36.695   7.094
 2888POPC   C4B40186  37.212  36.637   7.391
 2889POPC   NC340187  14.846  40.275   5.320
 2889POPC   PO440188  15.429  39.863   5.513
 2889POPC   GL140189  15.268  40.041   5.872
 2889POPC   GL240190  14.948  40.006   5.748
 2889POPC   C1A40191  15.221  40.044   6.338
 2889POPC   D2A40192  15.370  39.814   6.695
 2889POPC   C3A40193  15.346  39.948   7.119
 2889POPC   C4A40194  15.363  40.228   7.465
 2889POPC   C1B40195  14.821  39.731   6.101
 2889POPC   C2B40196  14.753  39.858   6.513
 2889POPC   C3B40197  14.894  40.003   6.881
 2889POPC   C4B40198  14.862  39.889   7.278
 2890POPC   NC340199  41.893  43.989   5.116
 2890POPC   PO440200  41.366  43.724   5.403
 2890POPC   GL140201  41.500  43.593   5.830
 2890POPC   GL240202  41.764  43.843   5.825
 2890POPC   C1A40203  41.407  43.701   6.263
 2890POPC   D2A40204  41.438  44.090   6.529
 2890POPC   C3A40205  41.512  44.003   6.970
 2890POPC   C4A40206  41.482  43.618   7.190
 2890POPC   C1B40207  41.939  43.675   6.207
 2890POPC   C2B40208  42.122  43.818   6.609
 2890POPC   C3B40209  41.969  43.778   7.034
 2890POPC   C4B40210  41.892  44.148   7.298
 2891POPC   NC340211  24.062   5.893   5.444
 2891POPC   PO440212  24.712   6.150   5.374
 2891POPC   GL140213  24.522   6.227   5.777
 2891POPC   GL240214  24.860   6.275   5.900
 2891POPC   C1A40215  24.322   5.987   6.173
 2891POPC   D2A40216  24.140   5.812   6.593
 2891POPC   C3A40217  24.374   5.894   7.007
 2891POPC   C4A40218  24.332   5.699   7.424
 2891POPC   C1B40219  24.742   6.277   6.343
 2891POPC   C2B40220  24.713   6.279   6.796
 2891POPC   C3B40221  24.856   6.038   7.164
 2891POPC   C4B40222  24.798   6.016   7.614
 2892POPC   NC340223  34.034  14.555   4.940
 2892POPC   PO440224  33.352  14.597   5.280
 2892POPC   GL140225  33.594  14.362   5.663
 2892POPC   GL240226  33.728  14.689   5.790
 2892POPC   C1A40227  33.817  14.257   6.122
 2892POPC   D2A40228  34.001  14.413   6.595
 2892POPC   C3A40229  33.877  14.238   7.053
 2892POPC   C4A40230  33.570  14.264   7.417
 2892POPC   C1B40231  33.804  14.760   6.241
 2892POPC   C2B40232  33.600  14.868   6.631
 2892POPC   C3B40233  33.733  14.717   7.025
 2892POPC   C4B40234  33.971  14.614   7.407
 2893POPC   NC340235   3.895  39.517   5.537
 2893POPC   PO440236   3.455  39.095   5.204
 2893POPC   GL140237   3.538  39.162   5.645
 2893POPC   GL240238   3.303  39.419   5.777
 2893POPC   C1A40239   3.613  38.979   6.060
 2893POPC   D2A40240   3.537  39.142   6.487
 2893POPC   C3A40241   3.505  38.991   6.904
 2893POPC   C4A40242   3.465  39.187   7.324
 2893POPC   C1B40243   3.570  39.494   6.120
 2893POPC   C2B40244   3.859  39.541   6.469
 2893POPC   C3B40245   3.621  39.508   6.841
 2893POPC   C4B40246   3.645  39.674   7.212
 2894POPC   NC340247   8.392  11.669   5.100
 2894POPC   PO440248   7.978  11.171   5.168
 2894POPC   GL140249   8.278  11.264   5.587
 2894POPC   GL240250   8.073  11.514   5.794
 2894POPC   C1A40251   8.324  11.179   6.090
 2894POPC   D2A40252   8.297  10.990   6.541
 2894POPC   C3A40253   8.131  11.122   6.931
 2894POPC   C4A40254   8.234  11.060   7.340
 2894POPC   C1B40255   8.310  11.665   6.185
 2894POPC   C2B40256   8.333  11.486   6.635
 2894POPC   C3B40257   8.211  11.595   7.076
 2894POPC   C4B40258   8.374  11.521   7.491
 2895POPC   NC340259  34.715  37.362   4.954
 2895POPC   PO440260  34.756  36.815   5.343
 2895POPC   GL140261  34.591  37.059   5.690
 2895POPC   GL240262  34.592  36.772   5.853
 2895POPC   C1A40263  34.392  37.147   6.108
 2895POPC   D2A40264  34.583  37.270   6.477
 2895POPC   C3A40265  34.522  37.128   6.910
 2895POPC   C4A40266  34.670  37.019   7.346
 2895POPC   C1B40267  34.636  36.619   6.252
 2895POPC   C2B40268  34.524  36.654   6.668
 2895POPC   C3B40269  34.818  36.686   6.980
 2895POPC   C4B40270  34.871  36.503   7.390
 2896POPC   NC340271  29.368  36.435   5.497
 2896POPC   PO440272  28.851  35.889   5.448
 2896POPC   GL140273  29.015  36.135   5.783
 2896POPC   GL240274  28.748  36.305   5.838
 2896POPC   C1A40275  29.134  36.074   6.215
 2896POPC   D2A40276  29.273  35.844   6.602
 2896POPC   C3A40277  29.325  36.102   6.991
 2896POPC   C4A40278  29.282  35.995   7.434
 2896POPC   C1B40279  28.845  36.512   6.209
 2896POPC   C2B40280  29.074  36.433   6.589
 2896POPC   C3B40281  28.873  36.382   6.970
 2896POPC   C4B40282  29.005  36.420   7.368
 2897POPC   NC340283   4.568  12.437   5.345
 2897POPC   PO440284   4.239  11.852   5.258
 2897POPC   GL140285   4.066  12.152   5.551
 2897POPC   GL240286   4.407  12.088   5.706
 2897POPC   C1A40287   3.985  12.231   6.002
 2897POPC   D2A40288   4.127  12.052   6.407
 2897POPC   C3A40289   3.978  11.918   6.823
 2897POPC   C4A40290   4.091  11.994   7.252
 2897POPC   C1B40291   4.506  12.236   6.100
 2897POPC   C2B40292   4.545  12.365   6.508
 2897POPC   C3B40293   4.381  12.240   6.903
 2897POPC   C4B40294   4.615  12.114   7.264
 2898POPC   NC340295  23.510  16.631   5.546
 2898POPC   PO440296  24.134  16.608   5.783
 2898POPC   GL140297  23.865  16.942   5.935
 2898POPC   GL240298  23.494  16.964   5.903
 2898POPC   C1A40299  23.975  16.975   6.329
 2898POPC   D2A40300  23.828  16.681   6.683
 2898POPC   C3A40301  23.886  16.864   7.083
 2898POPC   C4A40302  24.076  16.925   7.468
 2898POPC   C1B40303  23.475  16.840   6.321
 2898POPC   C2B40304  23.324  16.839   6.738
 2898POPC   C3B40305  23.440  16.621   7.079
 2898POPC   C4B40306  23.555  16.688   7.495
 2899POPC   NC340307  33.137  41.678   5.339
 2899POPC   PO440308  33.569  41.417   5.718
 2899POPC   GL140309  33.279  41.743   5.863
 2899POPC   GL240310  32.936  41.673   5.816
 2899POPC   C1A40311  33.147  41.729   6.290
 2899POPC   D2A40312  33.096  41.337   6.472
 2899POPC   C3A40313  33.023  41.304   6.886
 2899POPC   C4A40314  33.263  41.240   7.276
 2899POPC   C1B40315  32.659  41.786   6.164
 2899POPC   C2B40316  32.595  41.590   6.554
 2899POPC   C3B40317  32.522  41.697   6.978
 2899POPC   C4B40318  32.811  41.579   7.247
 2900POPC   NC340319  35.112  31.803   5.605
 2900POPC   PO440320  35.169  32.316   5.277
 2900POPC   GL140321  35.292  32.294   5.722
 2900POPC   GL240322  35.020  32.513   5.796
 2900POPC   C1A40323  35.245  32.118   6.174
 2900POPC   D2A40324  34.958  32.229   6.537
 2900POPC   C3A40325  35.066  32.080   6.955
 2900POPC   C4A40326  35.424  32.187   7.233
 2900POPC   C1B40327  35.195  32.619   6.201
 2900POPC   C2B40328  35.402  32.465   6.586
 2900POPC   C3B40329  35.391  32.635   7.004
 2900POPC   C4B40330  35.278  32.897   7.347
 2901POPC   NC340331  30.849  35.368   5.252
 2901POPC   PO440332  30.258  35.454   5.367
 2901POPC   GL140333  30.556  35.420   5.736
 2901POPC   GL240334  30.934  35.363   5.750
 2901POPC   C1A40335  30.683  35.435   6.187
 2901POPC   D2A40336  30.429  35.545   6.541
 2901POPC   C3A40337  30.604  35.326   6.893
 2901POPC   C4A40338  30.468  35.386   7.315
 2901POPC   C1B40339  31.016  35.037   6.084
 2901POPC   C2B40340  31.167  34.998   6.526
 2901POPC   C3B40341  31.014  34.961   6.971
 2901POPC   C4B40342  30.938  35.258   7.276
 2902POPC   NC340343   7.003  11.596   5.649
 2902POPC   PO440344   6.651  11.165   5.278
 2902POPC   GL140345   6.618  11.257   5.709
 2902POPC   GL240346   6.902  11.069   5.764
 2902POPC   C1A40347   6.651  11.325   6.177
 2902POPC   D2A40348   6.408  11.273   6.570
 2902POPC   C3A40349   6.523  11.440   6.994
 2902POPC   C4A40350   6.498  11.187   7.384
 2902POPC   C1B40351   6.980  10.880   6.159
 2902POPC   C2B40352   6.915  11.052   6.571
 2902POPC   C3B40353   6.734  10.967   6.970
 2902POPC   C4B40354   6.959  10.884   7.371
 2903POPC   NC340355  23.533  31.189   5.401
 2903POPC   PO440356  24.008  31.507   5.319
 2903POPC   GL140357  23.756  31.542   5.721
 2903POPC   GL240358  23.758  31.228   5.858
 2903POPC   C1A40359  23.840  31.598   6.213
 2903POPC   D2A40360  23.849  31.402   6.649
 2903POPC   C3A40361  23.901  31.636   7.068
 2903POPC   C4A40362  23.703  31.750   7.494
 2903POPC   C1B40363  23.613  31.120   6.273
 2903POPC   C2B40364  23.549  30.990   6.720
 2903POPC   C3B40365  23.617  31.226   7.087
 2903POPC   C4B40366  23.450  31.324   7.443
 2904POPC   NC340367  15.294  12.057   5.210
 2904POPC   PO440368  15.158  12.672   5.174
 2904POPC   GL140369  15.205  12.364   5.624
 2904POPC   GL240370  15.311  12.011   5.707
 2904POPC   C1A40371  15.473  12.363   6.046
 2904POPC   D2A40372  15.481  12.113   6.452
 2904POPC   C3A40373  15.371  12.290   6.868
 2904POPC   C4A40374  15.446  12.003   7.228
 2904POPC   C1B40375  15.075  12.044   6.086
 2904POPC   C2B40376  14.992  11.988   6.539
 2904POPC   C3B40377  15.001  11.900   6.968
 2904POPC   C4B40378  14.995  12.263   7.235
 2905POPC   NC340379  13.155  25.709   5.587
 2905POPC   PO440380  12.728  25.222   5.399
 2905POPC   GL140381  12.881  25.168   5.792
 2905POPC   GL240382  13.121  24.889   5.801
 2905POPC   C1A40383  12.704  25.275   6.187
 2905POPC   D2A40384  12.832  25.260   6.584
 2905POPC   C3A40385  12.668  25.148   6.962
 2905POPC   C4A40386  12.702  25.313   7.365
 2905POPC   C1B40387  13.185  25.072   6.244
 2905POPC   C2B40388  13.195  24.925   6.702
 2905POPC   C3B40389  13.169  24.893   7.176
 2905POPC   C4B40390  13.390  25.040   7.547
 2906POPC   NC340391  41.433   0.671   5.548
 2906POPC   PO440392  41.747   1.165   5.179
 2906POPC   GL140393  41.666   1.213   5.639
 2906POPC   GL240394  41.879   0.948   5.800
 2906POPC   C1A40395  41.421   1.478   5.991
 2906POPC   D2A40396  41.371   1.653   6.436
 2906POPC   C3A40397  41.423   1.388   6.820
 2906POPC   C4A40398  41.526   1.419   7.253
 2906POPC   C1B40399  41.879   1.291   6.127
 2906POPC   C2B40400  42.071   1.389   6.550
 2906POPC   C3B40401  42.056   1.208   6.993
 2906POPC   C4B40402  41.902   1.088   7.406
 2907POPC   NC340403  10.938  26.496   5.570
 2907POPC   PO440404  11.185  25.842   5.524
 2907POPC   GL140405  11.204  26.086   5.900
 2907POPC   GL240406  11.454  26.285   5.697
 2907POPC   C1A40407  11.224  25.921   6.355
 2907POPC   D2A40408  11.220  26.021   6.832
 2907POPC   C3A40409  10.998  25.785   7.187
 2907POPC   C4A40410  10.869  25.655   7.634
 2907POPC   C1B40411  11.606  26.365   6.107
 2907POPC   C2B40412  11.597  26.237   6.537
 2907POPC   C3B40413  11.611  26.295   6.964
 2907POPC   C4B40414  11.410  26.100   7.307
 2908POPC   NC340415   1.223  13.514   5.402
 2908POPC   PO440416   1.221  14.133   5.551
 2908POPC   GL140417   1.222  13.750   5.862
 2908POPC   GL240418   0.993  13.425   5.843
 2908POPC   C1A40419   1.339  13.507   6.244
 2908POPC   D2A40420   1.342  13.712   6.626
 2908POPC   C3A40421   1.412  13.441   6.942
 2908POPC   C4A40422   1.590  13.519   7.322
 2908POPC   C1B40423   0.856  13.607   6.240
 2908POPC   C2B40424   0.927  13.415   6.667
 2908POPC   C3B40425   0.946  13.572   7.099
 2908POPC   C4B40426   1.020  13.639   7.566
 2909POPC   NC340427  26.453  38.889   5.424
 2909POPC   PO440428  25.813  39.041   5.462
 2909POPC   GL140429  25.934  39.155   5.848
 2909POPC   GL240430  26.132  39.454   5.790
 2909POPC   C1A40431  26.252  39.062   6.134
 2909POPC   D2A40432  26.383  39.217   6.520
 2909POPC   C3A40433  26.109  39.090   6.859
 2909POPC   C4A40434  26.008  39.242   7.268
 2909POPC   C1B40435  26.104  39.553   6.232
 2909POPC   C2B40436  26.310  39.747   6.598
 2909POPC   C3B40437  26.277  39.573   6.999
 2909POPC   C4B40438  26.424  39.678   7.417
 2910POPC   NC340439  40.036  10.874   5.034
 2910POPC   PO440440  40.347  10.271   5.329
 2910POPC   GL140441  40.167  10.223   5.765
 2910POPC   GL240442  39.941  10.484   5.936
 2910POPC   C1A40443  40.318  10.269   6.192
 2910POPC   D2A40444  40.101  10.316   6.592
 2910POPC   C3A40445  40.300  10.350   6.996
 2910POPC   C4A40446  40.139  10.366   7.437
 2910POPC   C1B40447  40.007  10.734   6.301
 2910POPC   C2B40448  40.031  10.790   6.751
 2910POPC   C3B40449  39.882  10.707   7.148
 2910POPC   C4B40450  39.880  10.765   7.602
 2911POPC   NC340451  13.853   1.341   5.392
 2911POPC   PO440452  13.313   0.970   5.592
 2911POPC   GL140453  13.405   1.251   5.865
 2911POPC   GL240454  13.738   1.141   5.925
 2911POPC   C1A40455  13.399   1.142   6.307
 2911POPC   D2A40456  13.753   1.216   6.563
 2911POPC   C3A40457  13.661   1.297   6.952
 2911POPC   C4A40458  13.926   1.399   7.240
 2911POPC   C1B40459  13.816   0.805   6.253
 2911POPC   C2B40460  13.685   0.690   6.678
 2911POPC   C3B40461  13.919   0.852   7.034
 2911POPC   C4B40462  13.847   0.948   7.456
 2912POPC   NC340463  20.662  33.717   5.242
 2912POPC   PO440464  20.220  34.167   5.228
 2912POPC   GL140465  20.382  33.955   5.662
 2912POPC   GL240466  20.735  33.880   5.724
 2912POPC   C1A40467  20.470  34.094   6.101
 2912POPC   D2A40468  20.336  33.876   6.483
 2912POPC   C3A40469  20.568  33.932   6.817
 2912POPC   C4A40470  20.744  33.946   7.206
 2912POPC   C1B40471  20.648  33.635   6.127
 2912POPC   C2B40472  20.664  33.414   6.547
 2912POPC   C3B40473  20.736  33.467   7.009
 2912POPC   C4B40474  20.716  33.317   7.453
 2913POPC   NC340475  34.218  20.527   5.596
 2913POPC   PO440476  33.648  20.354   5.289
 2913POPC   GL140477  33.717  20.526   5.746
 2913POPC   GL240478  33.685  20.878   5.951
 2913POPC   C1A40479  33.592  20.430   6.186
 2913POPC   D2A40480  33.593  20.705   6.543
 2913POPC   C3A40481  33.708  20.553   6.931
 2913POPC   C4A40482  33.866  20.702   7.322
 2913POPC   C1B40483  34.038  20.708   6.187
 2913POPC   C2B40484  34.254  20.651   6.555
 2913POPC   C3B40485  34.154  20.812   6.932
 2913POPC   C4B40486  34.286  21.075   7.240
 2914POPC   NC340487  21.705   2.025   5.559
 2914POPC   PO440488  22.309   1.732   5.443
 2914POPC   GL140489  22.129   1.890   5.844
 2914POPC   GL240490  22.020   2.265   5.881
 2914POPC   C1A40491  22.166   1.733   6.271
 2914POPC   D2A40492  22.303   1.601   6.685
 2914POPC   C3A40493  22.169   1.719   7.078
 2914POPC   C4A40494  22.103   1.907   7.480
 2914POPC   C1B40495  21.760   2.045   6.231
 2914POPC   C2B40496  21.814   1.886   6.673
 2914POPC   C3B40497  21.796   2.071   7.090
 2914POPC   C4B40498  21.779   2.282   7.495
 2915POPC   NC340499   1.819  22.718   5.656
 2915POPC   PO440500   1.433  23.249   5.478
 2915POPC   GL140501   1.241  23.042   5.850
 2915POPC   GL240502   1.091  22.697   5.788
 2915POPC   C1A40503   1.234  23.107   6.315
 2915POPC   D2A40504   1.232  23.259   6.744
 2915POPC   C3A40505   1.307  22.978   7.090
 2915POPC   C4A40506   1.062  22.900   7.442
 2915POPC   C1B40507   1.228  22.597   6.212
 2915POPC   C2B40508   1.165  22.690   6.668
 2915POPC   C3B40509   0.975  22.581   7.060
 2915POPC   C4B40510   1.277  22.422   7.366
 2916POPC   NC340511  16.528  15.945   5.577
 2916POPC   PO440512  17.175  15.958   5.681
 2916POPC   GL140513  16.837  15.748   5.933
 2916POPC   GL240514  16.439  15.610   5.934
 2916POPC   C1A40515  16.669  15.997   6.238
 2916POPC   D2A40516  16.859  16.235   6.519
 2916POPC   C3A40517  16.768  16.071   6.870
 2916POPC   C4A40518  16.946  16.097   7.244
 2916POPC   C1B40519  16.494  15.520   6.338
 2916POPC   C2B40520  16.840  15.640   6.601
 2916POPC   C3B40521  16.978  15.639   7.036
 2916POPC   C4B40522  16.665  15.702   7.381
 2917POPC   NC340523  37.119  11.995   5.458
 2917POPC   PO440524  36.498  11.841   5.382
 2917POPC   GL140525  36.680  12.069   5.744
 2917POPC   GL240526  36.804  12.416   5.675
 2917POPC   C1A40527  36.929  11.959   6.141
 2917POPC   D2A40528  37.142  11.848   6.559
 2917POPC   C3A40529  36.956  12.003   6.956
 2917POPC   C4A40530  36.663  12.340   7.103
 2917POPC   C1B40531  37.080  12.436   6.062
 2917POPC   C2B40532  37.036  12.361   6.500
 2917POPC   C3B40533  37.234  12.425   6.880
 2917POPC   C4B40534  37.194  12.320   7.276
 2918POPC   NC340535  13.940  10.770   5.400
 2918POPC   PO440536  14.464  10.283   5.428
 2918POPC   GL140537  14.365  10.404   5.872
 2918POPC   GL240538  14.267  10.765   5.822
 2918POPC   C1A40539  14.427  10.540   6.334
 2918POPC   D2A40540  14.677  10.737   6.683
 2918POPC   C3A40541  14.685  10.529   7.091
 2918POPC   C4A40542  14.372  10.226   7.242
 2918POPC   C1B40543  13.981  10.694   6.149
 2918POPC   C2B40544  13.899  10.570   6.573
 2918POPC   C3B40545  14.214  10.592   6.878
 2918POPC   C4B40546  14.273  10.720   7.304
 2919POPC   NC340547   1.128  18.668   5.470
 2919POPC   PO440548   1.363  18.057   5.403
 2919POPC   GL140549   1.492  18.292   5.771
 2919POPC   GL240550   1.204  18.171   5.954
 2919POPC   C1A40551   1.374  18.635   6.098
 2919POPC   D2A40552   1.089  18.632   6.472
 2919POPC   C3A40553   1.207  18.332   6.784
 2919POPC   C4A40554   1.358  18.404   7.176
 2919POPC   C1B40555   1.107  17.948   6.360
 2919POPC   C2B40556   1.020  17.841   6.787
 2919POPC   C3B40557   0.950  18.063   7.164
 2919POPC   C4B40558   0.615  18.283   7.380
 2920POPC   NC340559   6.197  43.185   5.323
 2920POPC   PO440560   6.727  43.291   5.668
 2920POPC   GL140561   6.609  43.063   5.981
 2920POPC   GL240562   6.705  42.755   5.823
 2920POPC   C1A40563   6.618  43.096   6.415
 2920POPC   D2A40564   6.986  43.132   6.661
 2920POPC   C3A40565   6.952  43.276   7.085
 2920POPC   C4A40566   6.609  43.209   7.369
 2920POPC   C1B40567   6.951  42.734   6.208
 2920POPC   C2B40568   6.778  42.661   6.613
 2920POPC   C3B40569   6.648  42.887   6.953
 2920POPC   C4B40570   6.756  42.678   7.314
 2921POPC   NC340571  31.299  32.178   5.280
 2921POPC   PO440572  31.842  32.141   5.623
 2921POPC   GL140573  31.441  32.199   5.823
 2921POPC   GL240574  31.225  31.923   5.716
 2921POPC   C1A40575  31.345  32.350   6.269
 2921POPC   D2A40576  31.509  32.460   6.705
 2921POPC   C3A40577  31.691  32.141   6.957
 2921POPC   C4A40578  31.618  32.060   7.367
 2921POPC   C1B40579  31.346  31.825   6.159
 2921POPC   C2B40580  31.357  31.954   6.605
 2921POPC   C3B40581  31.310  31.789   7.040
 2921POPC   C4B40582  31.256  31.750   7.510
 2922POPC   NC340583   2.557  38.530   5.433
 2922POPC   PO440584   3.204  38.359   5.516
 2922POPC   GL140585   2.842  38.369   5.835
 2922POPC   GL240586   2.575  38.109   5.779
 2922POPC   C1A40587   2.611  38.616   6.187
 2922POPC   D2A40588   2.362  38.678   6.609
 2922POPC   C3A40589   2.595  38.647   7.040
 2922POPC   C4A40590   2.660  38.807   7.492
 2922POPC   C1B40591   2.692  38.081   6.242
 2922POPC   C2B40592   2.540  38.177   6.656
 2922POPC   C3B40593   2.723  38.144   7.068
 2922POPC   C4B40594   2.866  38.354   7.433
 2923POPC   NC340595   7.912  33.833   5.403
 2923POPC   PO440596   8.408  34.196   5.253
 2923POPC   GL140597   8.341  33.929   5.707
 2923POPC   GL240598   8.068  33.680   5.858
 2923POPC   C1A40599   8.470  33.777   6.150
 2923POPC   D2A40600   8.153  33.667   6.487
 2923POPC   C3A40601   8.243  33.702   6.933
 2923POPC   C4A40602   7.995  33.634   7.303
 2923POPC   C1B40603   8.041  34.065   6.147
 2923POPC   C2B40604   7.891  34.184   6.595
 2923POPC   C3B40605   7.923  34.096   7.077
 2923POPC   C4B40606   7.869  34.036   7.568
 2924POPC   NC340607  18.974  42.304   5.411
 2924POPC   PO440608  19.363  42.795   5.247
 2924POPC   GL140609  19.338  42.560   5.721
 2924POPC   GL240610  19.040  42.333   5.896
 2924POPC   C1A40611  19.235  42.691   6.177
 2924POPC   D2A40612  18.991  42.818   6.536
 2924POPC   C3A40613  19.116  42.595   6.900
 2924POPC   C4A40614  19.097  42.749   7.308
 2924POPC   C1B40615  19.207  41.999   6.142
 2924POPC   C2B40616  19.269  42.053   6.577
 2924POPC   C3B40617  19.030  42.039   6.941
 2924POPC   C4B40618  19.071  42.206   7.356
 2925POPC   NC340619  28.660   9.144   5.514
 2925POPC   PO440620  27.967   9.020   5.547
 2925POPC   GL140621  28.310   8.847   5.778
 2925POPC   GL240622  28.536   8.577   5.649
 2925POPC   C1A40623  28.320   8.999   6.209
 2925POPC   D2A40624  28.136   9.043   6.639
 2925POPC   C3A40625  28.505   9.101   6.935
 2925POPC   C4A40626  28.839   9.420   6.974
 2925POPC   C1B40627  28.530   8.511   6.095
 2925POPC   C2B40628  28.411   8.607   6.529
 2925POPC   C3B40629  28.525   8.574   6.950
 2925POPC   C4B40630  28.552   8.784   7.344
 2926POPC   NC340631  14.523  14.626   5.475
 2926POPC   PO440632  14.203  14.117   5.354
 2926POPC   GL140633  14.274  14.259   5.795
 2926POPC   GL240634  14.601  14.349   5.902
 2926POPC   C1A40635  14.226  14.454   6.240
 2926POPC   D2A40636  14.396  14.620   6.662
 2926POPC   C3A40637  14.214  14.449   7.069
 2926POPC   C4A40638  14.163  14.456   7.565
 2926POPC   C1B40639  14.685  14.700   6.170
 2926POPC   C2B40640  14.758  14.982   6.501
 2926POPC   C3B40641  14.740  14.887   6.965
 2926POPC   C4B40642  14.593  14.659   7.346
 2927POPC   NC340643  43.604  13.125   5.504
 2927POPC   PO440644  44.060  12.603   5.524
 2927POPC   GL140645  43.862  12.867   5.869
 2927POPC   GL240646  43.496  12.913   5.951
 2927POPC   C1A40647  43.859  12.806   6.300
 2927POPC   D2A40648  43.847  12.478   6.563
 2927POPC   C3A40649  44.121  12.611   6.882
 2927POPC   C4A40650  44.192  12.899   7.228
 2927POPC   C1B40651  43.389  12.609   6.271
 2927POPC   C2B40652  43.367  12.651   6.697
 2927POPC   C3B40653  43.679  12.803   6.981
 2927POPC   C4B40654  43.815  12.562   7.307
 2928POPC   NC340655  18.708   5.772   5.389
 2928POPC   PO440656  19.282   5.644   5.252
 2928POPC   GL140657  19.175   5.822   5.703
 2928POPC   GL240658  18.830   5.936   5.864
 2928POPC   C1A40659  19.195   5.821   6.197
 2928POPC   D2A40660  19.026   5.738   6.642
 2928POPC   C3A40661  19.155   6.002   7.029
 2928POPC   C4A40662  19.225   6.029   7.481
 2928POPC   C1B40663  18.719   6.064   6.326
 2928POPC   C2B40664  18.689   6.080   6.807
 2928POPC   C3B40665  18.747   5.708   7.102
 2928POPC   C4B40666  18.942   5.555   7.495
 2929POPC   NC340667  22.012   6.228   5.366
 2929POPC   PO440668  22.212   5.659   5.308
 2929POPC   GL140669  22.072   5.738   5.747
 2929POPC   GL240670  22.387   5.749   5.946
 2929POPC   C1A40671  21.864   5.940   6.124
 2929POPC   D2A40672  22.052   5.926   6.530
 2929POPC   C3A40673  21.884   5.833   6.922
 2929POPC   C4A40674  22.133   5.680   7.232
 2929POPC   C1B40675  22.374   6.155   6.180
 2929POPC   C2B40676  22.272   6.387   6.559
 2929POPC   C3B40677  22.288   6.175   6.961
 2929POPC   C4B40678  22.367   6.097   7.392
 2930POPC   NC340679   6.255  31.138   5.342
 2930POPC   PO440680   5.560  31.391   5.369
 2930POPC   GL140681   5.902  31.483   5.659
 2930POPC   GL240682   6.118  31.227   5.812
 2930POPC   C1A40683   5.853  31.548   6.114
 2930POPC   D2A40684   5.784  31.380   6.538
 2930POPC   C3A40685   5.681  31.700   6.857
 2930POPC   C4A40686   5.915  31.914   7.211
 2930POPC   C1B40687   6.245  31.167   6.228
 2930POPC   C2B40688   6.212  31.105   6.671
 2930POPC   C3B40689   6.096  31.383   7.002
 2930POPC   C4B40690   6.045  31.210   7.415
 2931POPC   NC340691   6.205  29.026   5.584
 2931POPC   PO440692   5.613  29.298   5.417
 2931POPC   GL140693   5.781  29.164   5.817
 2931POPC   GL240694   5.826  28.792   5.826
 2931POPC   C1A40695   5.738  29.308   6.234
 2931POPC   D2A40696   5.438  29.370   6.558
 2931POPC   C3A40697   5.647  29.381   6.947
 2931POPC   C4A40698   5.582  29.122   7.295
 2931POPC   C1B40699   6.099  28.914   6.208
 2931POPC   C2B40700   6.125  29.108   6.620
 2931POPC   C3B40701   5.942  28.944   6.987
 2931POPC   C4B40702   6.002  28.864   7.432
 2932POPC   NC340703   3.821  25.718   5.275
 2932POPC   PO440704   3.672  26.306   5.417
 2932POPC   GL140705   3.540  26.109   5.746
 2932POPC   GL240706   3.846  26.237   5.892
 2932POPC   C1A40707   3.270  26.066   6.102
 2932POPC   D2A40708   3.237  26.224   6.511
 2932POPC   C3A40709   3.231  25.933   6.822
 2932POPC   C4A40710   3.267  25.897   7.263
 2932POPC   C1B40711   3.775  25.883   6.160
 2932POPC   C2B40712   3.687  25.937   6.577
 2932POPC   C3B40713   3.711  25.941   7.008
 2932POPC   C4B40714   3.918  26.260   7.236
 2933POPC   NC340715  37.637   6.895   5.409
 2933POPC   PO440716  38.065   6.367   5.487
 2933POPC   GL140717  37.840   6.344   5.860
 2933POPC   GL240718  37.770   6.679   5.870
 2933POPC   C1A40719  37.829   6.372   6.338
 2933POPC   D2A40720  37.895   6.288   6.787
 2933POPC   C3A40721  37.666   6.508   7.112
 2933POPC   C4A40722  37.590   6.445   7.547
 2933POPC   C1B40723  37.899   6.885   6.256
 2933POPC   C2B40724  37.813   6.821   6.712
 2933POPC   C3B40725  37.848   6.990   7.142
 2933POPC   C4B40726  37.763   6.938   7.589
 2934POPC   NC340727  29.304  18.051   5.374
 2934POPC   PO440728  28.951  18.695   5.372
 2934POPC   GL140729  28.975  18.400   5.711
 2934POPC   GL240730  29.340  18.375   5.797
 2934POPC   C1A40731  28.970  18.154   6.074
 2934POPC   D2A40732  28.872  18.177   6.508
 2934POPC   C3A40733  29.061  18.131   6.900
 2934POPC   C4A40734  28.845  18.103   7.279
 2934POPC   C1B40735  29.462  18.013   6.092
 2934POPC   C2B40736  29.370  17.897   6.537
 2934POPC   C3B40737  29.519  17.856   6.969
 2934POPC   C4B40738  29.452  18.180   7.254
 2935POPC   NC340739  40.662  40.355   5.491
 2935POPC   PO440740  40.334  39.770   5.479
 2935POPC   GL140741  40.526  40.011   5.840
 2935POPC   GL240742  40.445  40.361   5.961
 2935POPC   C1A40743  40.718  40.000   6.260
 2935POPC   D2A40744  40.938  39.807   6.608
 2935POPC   C3A40745  40.765  39.911   7.008
 2935POPC   C4A40746  40.920  40.015   7.422
 2935POPC   C1B40747  40.304  40.258   6.391
 2935POPC   C2B40748  40.360  40.312   6.834
 2935POPC   C3B40749  40.511  40.280   7.247
 2935POPC   C4B40750  40.396  40.163   7.631
 2936POPC   NC340751   8.987  30.644   5.350
 2936POPC   PO440752   9.221  30.224   5.776
 2936POPC   GL140753   9.176  30.651   5.853
 2936POPC   GL240754   8.837  30.689   5.818
 2936POPC   C1A40755   9.285  30.919   6.203
 2936POPC   D2A40756   9.085  30.948   6.608
 2936POPC   C3A40757   9.134  30.600   6.878
 2936POPC   C4A40758   9.307  30.898   7.131
 2936POPC   C1B40759   8.803  30.763   6.216
 2936POPC   C2B40760   8.755  30.569   6.551
 2936POPC   C3B40761   8.569  30.669   6.914
 2936POPC   C4B40762   8.790  30.794   7.198
 2937POPC   NC340763  19.768  42.625   5.435
 2937POPC   PO440764  19.734  43.307   5.447
 2937POPC   GL140765  19.939  43.280   5.822
 2937POPC   GL240766  19.907  42.925   5.843
 2937POPC   C1A40767  19.961  43.418   6.262
 2937POPC   D2A40768  19.707  43.386   6.625
 2937POPC   C3A40769  19.922  43.464   6.979
 2937POPC   C4A40770  19.742  43.390   7.355
 2937POPC   C1B40771  20.039  42.800   6.248
 2937POPC   C2B40772  20.037  42.990   6.662
 2937POPC   C3B40773  19.930  42.967   7.119
 2937POPC   C4B40774  20.044  43.050   7.567
 2938POPC   NC340775  25.850  35.933   5.548
 2938POPC   PO440776  25.994  35.352   5.248
 2938POPC   GL140777  26.065  35.325   5.718
 2938POPC   GL240778  26.075  35.616   5.869
 2938POPC   C1A40779  26.229  35.250   6.178
 2938POPC   D2A40780  26.397  35.342   6.603
 2938POPC   C3A40781  26.164  35.269   6.993
 2938POPC   C4A40782  26.114  34.933   7.286
 2938POPC   C1B40783  26.064  35.722   6.313
 2938POPC   C2B40784  26.030  35.690   6.743
 2938POPC   C3B40785  25.794  35.729   7.118
 2938POPC   C4B40786  25.801  35.712   7.609
 2939POPC   NC340787  34.346  31.602   5.345
 2939POPC   PO440788  34.945  31.369   5.506
 2939POPC   GL140789  34.700  31.554   5.851
 2939POPC   GL240790  34.347  31.706   5.858
 2939POPC   C1A40791  34.616  31.485   6.305
 2939POPC   D2A40792  34.414  31.488   6.713
 2939POPC   C3A40793  34.636  31.732   7.020
 2939POPC   C4A40794  34.756  31.553   7.418
 2939POPC   C1B40795  34.199  31.309   6.060
 2939POPC   C2B40796  34.119  31.121   6.493
 2939POPC   C3B40797  34.285  31.039   6.925
 2939POPC   C4B40798  34.693  31.127   7.155
 2940POPC   NC340799  12.369  43.338   5.481
 2940POPC   PO440800  11.787  43.008   5.362
 2940POPC   GL140801  12.035  42.933   5.745
 2940POPC   GL240802  12.324  43.107   5.925
 2940POPC   C1A40803  11.857  42.811   6.155
 2940POPC   D2A40804  11.775  42.856   6.597
 2940POPC   C3A40805  12.149  43.025   6.797
 2940POPC   C4A40806  12.139  43.137   7.219
 2940POPC   C1B40807  11.929  43.334   6.043
 2940POPC   C2B40808  11.685  43.329   6.397
 2940POPC   C3B40809  11.751  43.330   6.829
 2940POPC   C4B40810  11.732  43.463   7.238
 2941POPC   NC340811   6.934  12.367   5.465
 2941POPC   PO440812   6.585  11.794   5.626
 2941POPC   GL140813   6.738  11.994   5.922
 2941POPC   GL240814   6.562  12.297   5.866
 2941POPC   C1A40815   6.650  12.062   6.339
 2941POPC   D2A40816   6.574  12.424   6.566
 2941POPC   C3A40817   6.312  12.238   6.820
 2941POPC   C4A40818   6.428  11.923   7.167
 2941POPC   C1B40819   6.937  12.429   6.144
 2941POPC   C2B40820   7.071  12.262   6.569
 2941POPC   C3B40821   6.832  12.190   6.967
 2941POPC   C4B40822   6.519  12.467   7.207
 2942POPC   NC340823  44.707  15.360   5.470
 2942POPC   PO440824  44.480  14.777   5.441
 2942POPC   GL140825  44.817  14.900   5.785
 2942POPC   GL240826  44.862  15.251   5.939
 2942POPC   C1A40827  44.867  14.895   6.276
 2942POPC   D2A40828  44.932  15.155   6.678
 2942POPC   C3A40829  44.729  15.055   7.083
 2942POPC   C4A40830  44.933  14.668   7.265
 2942POPC   C1B40831  44.624  15.373   6.332
 2942POPC   C2B40832  44.594  15.517   6.798
 2942POPC   C3B40833  44.865  15.710   7.117
 2942POPC   C4B40834  44.864  15.901   7.530
 2943POPC   NC340835  19.773  32.879   5.357
 2943POPC   PO440836  20.003  33.352   5.617
 2943POPC   GL140837  19.924  33.021   5.914
 2943POPC   GL240838  19.705  32.747   5.868
 2943POPC   C1A40839  19.842  33.128   6.340
 2943POPC   D2A40840  20.155  33.271   6.681
 2943POPC   C3A40841  20.008  33.258   7.121
 2943POPC   C4A40842  20.073  32.868   7.418
 2943POPC   C1B40843  19.721  32.635   6.290
 2943POPC   C2B40844  19.597  32.802   6.679
 2943POPC   C3B40845  19.677  32.882   7.100
 2943POPC   C4B40846  19.607  32.676   7.503
 2944POPC   NC340847  21.307  33.257   5.561
 2944POPC   PO440848  20.841  32.808   5.568
 2944POPC   GL140849  21.140  32.881   5.917
 2944POPC   GL240850  21.502  32.930   6.008
 2944POPC   C1A40851  21.168  33.137   6.324
 2944POPC   D2A40852  21.415  33.021   6.692
 2944POPC   C3A40853  21.275  32.635   6.934
 2944POPC   C4A40854  21.362  32.668   7.377
 2944POPC   C1B40855  21.560  33.391   6.153
 2944POPC   C2B40856  21.503  33.562   6.568
 2944POPC   C3B40857  21.387  33.453   7.013
 2944POPC   C4B40858  21.585  33.466   7.450
 2945POPC   NC340859  36.735  43.762   5.530
 2945POPC   PO440860  37.184  44.286   5.461
 2945POPC   GL140861  37.039  44.056   5.844
 2945POPC   GL240862  36.688  43.974   5.984
 2945POPC   C1A40863  37.140  43.828   6.230
 2945POPC   D2A40864  37.129  43.622   6.631
 2945POPC   C3A40865  37.114  43.955   6.957
 2945POPC   C4A40866  36.737  44.061   7.206
 2945POPC   C1B40867  36.560  43.540   6.149
 2945POPC   C2B40868  36.609  43.374   6.549
 2945POPC   C3B40869  36.692  43.653   6.885
 2945POPC   C4B40870  36.964  43.562   7.230
 2946POPC   NC340871  14.632  25.683   5.651
 2946POPC   PO440872  14.597  25.182   5.392
 2946POPC   GL140873  14.623  25.174   5.844
 2946POPC   GL240874  14.274  25.220   5.964
 2946POPC   C1A40875  14.651  25.297   6.300
 2946POPC   D2A40876  14.328  25.243   6.618
 2946POPC   C3A40877  14.419  25.137   7.043
 2946POPC   C4A40878  14.379  24.946   7.437
 2946POPC   C1B40879  14.236  25.603   6.252
 2946POPC   C2B40880  14.417  25.756   6.661
 2946POPC   C3B40881  14.476  25.647   7.116
 2946POPC   C4B40882  14.681  25.367   7.437
 2947POPC   NC340883   6.482  16.554   5.245
 2947POPC   PO440884   7.089  16.920   5.189
 2947POPC   GL140885   6.856  16.798   5.605
 2947POPC   GL240886   6.485  16.821   5.704
 2947POPC   C1A40887   6.840  16.771   6.099
 2947POPC   D2A40888   6.853  16.524   6.493
 2947POPC   C3A40889   6.930  16.716   6.884
 2947POPC   C4A40890   6.844  16.655   7.280
 2947POPC   C1B40891   6.329  16.719   6.143
 2947POPC   C2B40892   6.132  16.803   6.542
 2947POPC   C3B40893   6.319  16.733   6.920
 2947POPC   C4B40894   6.365  16.571   7.330
 2948POPC   NC340895  38.950  15.437   4.821
 2948POPC   PO440896  38.456  15.310   5.248
 2948POPC   GL140897  38.155  15.239   5.672
 2948POPC   GL240898  38.250  14.935   5.839
 2948POPC   C1A40899  38.117  15.297   6.162
 2948POPC   D2A40900  38.429  15.354   6.527
 2948POPC   C3A40901  38.379  15.297   6.991
 2948POPC   C4A40902  38.277  15.280   7.439
 2948POPC   C1B40903  38.453  14.899   6.239
 2948POPC   C2B40904  38.429  14.869   6.667
 2948POPC   C3B40905  38.399  14.795   7.060
 2948POPC   C4B40906  38.007  14.849   7.210
 2949POPC   NC340907   3.815  44.647   5.401
 2949POPC   PO440908   3.146  44.573   5.207
 2949POPC   GL140909   3.330  44.532   5.667
 2949POPC   GL240910   3.419  44.857   5.826
 2949POPC   C1A40911   3.321  44.473   6.151
 2949POPC   D2A40912   3.373  44.304   6.577
 2949POPC   C3A40913   3.427  44.557   6.948
 2949POPC   C4A40914   3.694  44.301   7.185
 2949POPC   C1B40915   3.575  44.904   6.277
 2949POPC   C2B40916   3.822  44.905   6.679
 2949POPC   C3B40917   3.883  44.764   7.114
 2949POPC   C4B40918   3.664  44.820   7.513
 2950POPC   NC340919   9.713  34.794   5.346
 2950POPC   PO440920   9.446  35.411   5.573
 2950POPC   GL140921   9.641  35.503   5.963
 2950POPC   GL240922   9.877  35.226   5.881
 2950POPC   C1A40923   9.848  35.431   6.377
 2950POPC   D2A40924   9.946  35.689   6.736
 2950POPC   C3A40925   9.598  35.702   7.016
 2950POPC   C4A40926   9.357  35.367   7.228
 2950POPC   C1B40927   9.535  35.041   6.147
 2950POPC   C2B40928   9.429  35.161   6.579
 2950POPC   C3B40929   9.752  35.223   6.898
 2950POPC   C4B40930   9.796  35.105   7.318
 2951POPC   NC340931  44.496  22.400   5.322
 2951POPC   PO440932  44.891  21.927   5.441
 2951POPC   GL140933  44.615  21.984   5.797
 2951POPC   GL240934  44.523  22.326   5.815
 2951POPC   C1A40935  44.611  22.039   6.268
 2951POPC   D2A40936  44.793  22.118   6.685
 2951POPC   C3A40937  44.524  22.087   7.062
 2951POPC   C4A40938  44.914  22.243   7.200
 2951POPC   C1B40939  44.461  22.585   6.150
 2951POPC   C2B40940  44.422  22.449   6.572
 2951POPC   C3B40941  44.533  22.574   6.983
 2951POPC   C4B40942  44.337  22.495   7.352
 2952POPC   NC340943  26.157  42.736   5.348
 2952POPC   PO440944  26.283  42.108   5.362
 2952POPC   GL140945  26.269  42.381   5.755
 2952POPC   GL240946  25.996  42.619   5.860
 2952POPC   C1A40947  26.202  42.319   6.221
 2952POPC   D2A40948  26.029  42.228   6.625
 2952POPC   C3A40949  26.220  42.344   7.035
 2952POPC   C4A40950  26.018  42.231   7.436
 2952POPC   C1B40951  25.770  42.593   6.293
 2952POPC   C2B40952  25.801  42.702   6.774
 2952POPC   C3B40953  25.839  42.671   7.244
 2952POPC   C4B40954  26.063  42.862   7.603
 2953POPC   NC340955  17.086  37.345   5.493
 2953POPC   PO440956  16.628  36.910   5.260
 2953POPC   GL140957  16.799  36.989   5.754
 2953POPC   GL240958  16.999  36.739   5.910
 2953POPC   C1A40959  16.880  37.074   6.243
 2953POPC   D2A40960  16.885  37.146   6.710
 2953POPC   C3A40961  16.539  37.138   7.052
 2953POPC   C4A40962  16.633  36.968   7.499
 2953POPC   C1B40963  16.670  36.597   6.242
 2953POPC   C2B40964  16.522  36.647   6.677
 2953POPC   C3B40965  16.559  36.620   7.114
 2953POPC   C4B40966  16.807  36.486   7.427
 2954POPC   NC340967  43.572  24.851   5.167
 2954POPC   PO440968  44.056  25.114   5.324
 2954POPC   GL140969  44.047  25.280   5.737
 2954POPC   GL240970  44.026  25.002   5.944
 2954POPC   C1A40971  44.112  25.423   6.204
 2954POPC   D2A40972  44.246  25.309   6.647
 2954POPC   C3A40973  43.975  25.411   7.019
 2954POPC   C4A40974  44.065  25.514   7.449
 2954POPC   C1B40975  43.957  24.949   6.392
 2954POPC   C2B40976  43.912  24.932   6.837
 2954POPC   C3B40977  44.123  24.955   7.214
 2954POPC   C4B40978  44.054  24.738   7.601
 2955POPC   NC340979   6.241  12.974   5.534
 2955POPC   PO440980   5.625  13.156   5.542
 2955POPC   GL140981   5.826  12.837   5.821
 2955POPC   GL240982   6.107  13.013   6.004
 2955POPC   C1A40983   5.833  12.657   6.243
 2955POPC   D2A40984   5.531  12.640   6.567
 2955POPC   C3A40985   5.666  12.743   6.943
 2955POPC   C4A40986   5.959  12.744   7.203
 2955POPC   C1B40987   5.761  13.200   6.217
 2955POPC   C2B40988   5.681  13.138   6.627
 2955POPC   C3B40989   5.523  13.235   7.025
 2955POPC   C4B40990   5.665  13.216   7.427
 2956POPC   NC340991  18.119  10.916   5.443
 2956POPC   PO440992  18.642  11.345   5.559
 2956POPC   GL140993  18.381  11.194   5.840
 2956POPC   GL240994  18.029  11.301   5.818
 2956POPC   C1A40995  18.374  11.308   6.248
 2956POPC   D2A40996  18.238  11.554   6.580
 2956POPC   C3A40997  18.297  11.407   6.993
 2956POPC   C4A40998  18.236  11.587   7.393
 2956POPC   C1B40999  17.895  11.172   6.248
 2956POPC   C2B41000  17.905  11.163   6.730
 2956POPC   C3B41001  17.880  11.193   7.187
 2956POPC   C4B41002  17.942  11.260   7.667
 2957POPC   NC341003   9.163  24.289   5.363
 2957POPC   PO441004   8.488  24.175   5.341
 2957POPC   GL141005   8.615  24.401   5.718
 2957POPC   GL241006   8.903  24.309   5.796
 2957POPC   C1A41007   8.749  24.713   6.060
 2957POPC   D2A41008   9.010  24.801   6.432
 2957POPC   C3A41009   8.806  24.732   6.799
 2957POPC   C4A41010   8.871  24.808   7.202
 2957POPC   C1B41011   9.162  24.367   6.174
 2957POPC   C2B41012   9.059  24.314   6.605
 2957POPC   C3B41013   9.070  24.354   7.042
 2957POPC   C4B41014   8.640  24.343   7.177
 2958POPC   NC341015  40.879   7.269   5.510
 2958POPC   PO441016  40.389   7.690   5.537
 2958POPC   GL141017  40.509   7.412   5.846
 2958POPC   GL241018  40.851   7.562   5.928
 2958POPC   C1A41019  40.628   7.164   6.203
 2958POPC   D2A41020  40.833   7.046   6.584
 2958POPC   C3A41021  40.704   7.265   6.963
 2958POPC   C4A41022  40.999   7.530   7.192
 2958POPC   C1B41023  40.568   7.713   6.244
 2958POPC   C2B41024  40.484   7.589   6.641
 2958POPC   C3B41025  40.539   7.755   7.045
 2958POPC   C4B41026  40.558   7.562   7.427
 2959POPC   NC341027   9.084  27.493   5.315
 2959POPC   PO441028   8.670  28.051   5.357
 2959POPC   GL141029   8.832  27.777   5.703
 2959POPC   GL241030   8.775  27.420   5.757
 2959POPC   C1A41031   8.848  27.784   6.161
 2959POPC   D2A41032   8.699  27.656   6.584
 2959POPC   C3A41033   8.844  27.797   6.994
 2959POPC   C4A41034   8.598  27.912   7.304
 2959POPC   C1B41035   8.719  27.280   6.197
 2959POPC   C2B41036   8.781  27.130   6.631
 2959POPC   C3B41037   8.720  27.283   7.076
 2959POPC   C4B41038   8.764  27.225   7.534
 2960POPC   NC341039   5.197  39.241   5.331
 2960POPC   PO441040   4.460  39.307   5.352
 2960POPC   GL141041   4.812  39.150   5.742
 2960POPC   GL241042   5.223  39.046   5.792
 2960POPC   C1A41043   4.980  39.155   6.210
 2960POPC   D2A41044   5.054  38.957   6.619
 2960POPC   C3A41045   4.864  39.147   6.997
 2960POPC   C4A41046   4.786  39.519   7.274
 2960POPC   C1B41047   5.530  38.998   6.154
 2960POPC   C2B41048   5.593  38.851   6.602
 2960POPC   C3B41049   5.367  38.895   7.026
 2960POPC   C4B41050   5.295  39.320   7.180
 2961POPC   NC341051   4.763   2.211   5.514
 2961POPC   PO441052   5.166   1.745   5.344
 2961POPC   GL141053   5.055   1.853   5.775
 2961POPC   GL241054   5.290   1.636   5.927
 2961POPC   C1A41055   5.098   2.080   6.192
 2961POPC   D2A41056   4.961   2.238   6.613
 2961POPC   C3A41057   5.078   2.064   7.051
 2961POPC   C4A41058   5.103   1.900   7.484
 2961POPC   C1B41059   5.361   1.679   6.355
 2961POPC   C2B41060   5.461   1.902   6.732
 2961POPC   C3B41061   5.570   1.987   7.188
 2961POPC   C4B41062   5.513   2.190   7.577
 2962POPC   NC341063   2.452   3.383   5.350
 2962POPC   PO441064   2.772   3.948   5.650
 2962POPC   GL141065   2.787   3.499   5.749
 2962POPC   GL241066   3.126   3.327   5.680
 2962POPC   C1A41067   2.618   3.429   6.156
 2962POPC   D2A41068   2.645   3.721   6.498
 2962POPC   C3A41069   2.809   3.662   6.898
 2962POPC   C4A41070   2.466   3.638   7.182
 2962POPC   C1B41071   3.074   3.167   6.128
 2962POPC   C2B41072   3.035   3.269   6.615
 2962POPC   C3B41073   3.047   3.230   7.107
 2962POPC   C4B41074   3.138   3.188   7.637
 2963POPC   NC341075  33.867  22.103   5.426
 2963POPC   PO441076  33.251  22.304   5.584
 2963POPC   GL141077  33.594  22.288   5.849
 2963POPC   GL241078  33.627  21.922   5.847
 2963POPC   C1A41079  33.708  22.237   6.302
 2963POPC   D2A41080  33.926  22.055   6.678
 2963POPC   C3A41081  33.766  22.220   7.066
 2963POPC   C4A41082  33.317  22.265   7.190
 2963POPC   C1B41083  33.858  21.759   6.173
 2963POPC   C2B41084  33.728  21.609   6.563
 2963POPC   C3B41085  33.494  21.770   6.908
 2963POPC   C4B41086  33.536  21.812   7.327
 2964POPC   NC341087   5.592   1.653   5.506
 2964POPC   PO441088   5.460   2.297   5.342
 2964POPC   GL141089   5.533   2.077   5.767
 2964POPC   GL241090   5.882   1.931   5.812
 2964POPC   C1A41091   5.619   2.079   6.215
 2964POPC   D2A41092   5.929   1.980   6.490
 2964POPC   C3A41093   5.874   2.191   6.846
 2964POPC   C4A41094   6.084   2.120   7.223
 2964POPC   C1B41095   5.851   1.605   6.145
 2964POPC   C2B41096   5.786   1.483   6.565
 2964POPC   C3B41097   5.925   1.680   6.915
 2964POPC   C4B41098   5.985   1.615   7.318
 2965POPC   NC341099  38.855  42.343   4.847
 2965POPC   PO441100  38.310  42.318   5.304
 2965POPC   GL141101  38.415  42.218   5.761
 2965POPC   GL241102  38.168  42.024   5.765
 2965POPC   C1A41103  38.478  42.401   6.202
 2965POPC   D2A41104  38.746  42.444   6.597
 2965POPC   C3A41105  38.534  42.472   7.033
 2965POPC   C4A41106  38.323  42.530   7.453
 2965POPC   C1B41107  38.187  41.942   6.178
 2965POPC   C2B41108  38.019  42.041   6.581
 2965POPC   C3B41109  38.185  41.908   6.954
 2965POPC   C4B41110  38.367  42.025   7.300
 2966POPC   NC341111  11.881  33.957   5.469
 2966POPC   PO441112  12.388  33.523   5.319
 2966POPC   GL141113  12.289  33.820   5.729
 2966POPC   GL241114  11.941  33.838   5.949
 2966POPC   C1A41115  12.415  33.857   6.164
 2966POPC   D2A41116  12.177  33.912   6.547
 2966POPC   C3A41117  12.413  33.804   6.912
 2966POPC   C4A41118  12.334  33.621   7.307
 2966POPC   C1B41119  11.725  34.084   6.287
 2966POPC   C2B41120  11.789  34.247   6.690
 2966POPC   C3B41121  11.928  33.960   7.009
 2966POPC   C4B41122  11.893  33.866   7.415
 2967POPC   NC341123   0.478  38.973   5.190
 2967POPC   PO441124   0.639  38.434   5.508
 2967POPC   GL141125   0.480  38.577   5.852
 2967POPC   GL241126   0.315  38.310   5.963
 2967POPC   C1A41127   0.624  38.790   6.250
 2967POPC   D2A41128   0.742  38.616   6.630
 2967POPC   C3A41129   0.591  38.767   6.983
 2967POPC   C4A41130   0.448  38.531   7.288
 2967POPC   C1B41131   0.468  38.279   6.362
 2967POPC   C2B41132   0.508  38.057   6.758
 2967POPC   C3B41133   0.360  38.000   7.210
 2967POPC   C4B41134   0.366  38.182   7.662
 2968POPC   NC341135  14.674  13.150   5.526
 2968POPC   PO441136  14.195  12.688   5.445
 2968POPC   GL141137  14.385  12.826   5.819
 2968POPC   GL241138  14.297  13.161   5.863
 2968POPC   C1A41139  14.307  12.632   6.219
 2968POPC   D2A41140  14.477  12.483   6.607
 2968POPC   C3A41141  14.256  12.592   6.976
 2968POPC   C4A41142  14.451  12.723   7.324
 2968POPC   C1B41143  14.544  13.118   6.224
 2968POPC   C2B41144  14.491  12.995   6.649
 2968POPC   C3B41145  14.566  13.185   7.037
 2968POPC   C4B41146  14.922  13.204   7.264
 2969POPC   NC341147  23.290  24.954   5.557
 2969POPC   PO441148  22.737  25.351   5.404
 2969POPC   GL141149  22.896  25.200   5.791
 2969POPC   GL241150  23.158  25.398   5.913
 2969POPC   C1A41151  22.770  25.205   6.230
 2969POPC   D2A41152  23.019  25.373   6.555
 2969POPC   C3A41153  23.082  25.592   6.933
 2969POPC   C4A41154  22.825  25.499   7.225
 2969POPC   C1B41155  23.297  25.086   6.239
 2969POPC   C2B41156  23.152  24.872   6.616
 2969POPC   C3B41157  23.076  25.074   7.010
 2969POPC   C4B41158  23.225  24.998   7.418
 2970POPC   NC341159   9.836  30.217   5.361
 2970POPC   PO441160   9.437  30.759   5.218
 2970POPC   GL141161   9.646  30.649   5.644
 2970POPC   GL241162   9.569  30.992   5.782
 2970POPC   C1A41163   9.685  30.571   6.139
 2970POPC   D2A41164   9.564  30.715   6.615
 2970POPC   C3A41165   9.618  30.501   7.060
 2970POPC   C4A41166   9.637  30.726   7.476
 2970POPC   C1B41167   9.789  31.067   6.206
 2970POPC   C2B41168  10.049  30.782   6.500
 2970POPC   C3B41169  10.084  30.646   6.919
 2970POPC   C4B41170   9.806  30.989   7.064
 2971POPC   NC341171  34.186  21.493   5.437
 2971POPC   PO441172  34.842  21.198   5.498
 2971POPC   GL141173  34.701  21.318   5.883
 2971POPC   GL241174  34.335  21.281   5.870
 2971POPC   C1A41175  34.711  21.278   6.322
 2971POPC   D2A41176  34.467  21.111   6.630
 2971POPC   C3A41177  34.552  21.379   6.929
 2971POPC   C4A41178  34.838  21.370   7.255
 2971POPC   C1B41179  34.349  21.615   6.141
 2971POPC   C2B41180  34.235  21.621   6.561
 2971POPC   C3B41181  34.210  21.763   6.990
 2971POPC   C4B41182  34.374  21.572   7.374
 2972POPC   NC341183   8.310  30.771   5.114
 2972POPC   PO441184   8.200  31.392   5.274
 2972POPC   GL141185   8.299  31.543   5.737
 2972POPC   GL241186   8.123  31.335   5.976
 2972POPC   C1A41187   8.468  31.630   6.198
 2972POPC   D2A41188   8.344  31.515   6.617
 2972POPC   C3A41189   8.513  31.685   6.998
 2972POPC   C4A41190   8.108  31.793   7.175
 2972POPC   C1B41191   7.934  30.972   6.220
 2972POPC   C2B41192   8.032  31.020   6.661
 2972POPC   C3B41193   7.956  31.310   6.989
 2972POPC   C4B41194   7.984  31.103   7.374
 2973POPC   NC341195   5.158  44.331   5.441
 2973POPC   PO441196   4.829  43.719   5.474
 2973POPC   GL141197   5.026  43.963   5.779
 2973POPC   GL241198   4.844  44.264   5.840
 2973POPC   C1A41199   5.247  43.914   6.153
 2973POPC   D2A41200   5.232  43.648   6.507
 2973POPC   C3A41201   5.321  43.779   6.932
 2973POPC   C4A41202   5.631  43.642   7.230
 2973POPC   C1B41203   4.777  44.168   6.250
 2973POPC   C2B41204   5.050  44.141   6.590
 2973POPC   C3B41205   5.267  44.319   6.898
 2973POPC   C4B41206   5.053  44.142   7.227
 2974POPC   NC341207  11.940  19.232   5.350
 2974POPC   PO441208  12.594  19.342   5.310
 2974POPC   GL141209  12.283  19.219   5.717
 2974POPC   GL241210  11.934  18.987   5.795
 2974POPC   C1A41211  12.261  19.100   6.161
 2974POPC   D2A41212  12.107  19.199   6.576
 2974POPC   C3A41213  12.271  18.947   6.889
 2974POPC   C4A41214  12.361  19.132   7.256
 2974POPC   C1B41215  11.733  19.117   6.213
 2974POPC   C2B41216  11.547  19.066   6.626
 2974POPC   C3B41217  11.673  18.854   6.982
 2974POPC   C4B41218  11.991  18.765   7.260
 2975POPC   NC341219  40.714   9.994   5.495
 2975POPC   PO441220  41.190   9.499   5.382
 2975POPC   GL141221  40.974   9.653   5.797
 2975POPC   GL241222  41.090   9.967   5.845
 2975POPC   C1A41223  40.718   9.919   6.187
 2975POPC   D2A41224  40.495  10.017   6.600
 2975POPC   C3A41225  40.670   9.934   6.982
 2975POPC   C4A41226  40.595   9.842   7.394
 2975POPC   C1B41227  41.238   9.833   6.213
 2975POPC   C2B41228  41.081   9.754   6.611
 2975POPC   C3B41229  41.188   9.989   6.968
 2975POPC   C4B41230  41.082   9.748   7.318
 2976POPC   NC341231  37.681  13.384   5.350
 2976POPC   PO441232  38.047  13.969   5.485
 2976POPC   GL141233  37.767  13.869   5.857
 2976POPC   GL241234  37.820  13.539   5.889
 2976POPC   C1A41235  37.574  13.796   6.291
 2976POPC   D2A41236  37.694  13.552   6.645
 2976POPC   C3A41237  37.533  13.660   7.062
 2976POPC   C4A41238  37.681  13.631   7.500
 2976POPC   C1B41239  38.067  13.678   6.263
 2976POPC   C2B41240  38.216  13.568   6.650
 2976POPC   C3B41241  38.040  13.627   7.027
 2976POPC   C4B41242  38.101  13.409   7.377
 2977POPC   NC341243   2.048  33.198   5.288
 2977POPC   PO441244   1.664  32.645   5.151
 2977POPC   GL141245   1.783  32.865   5.590
 2977POPC   GL241246   2.104  33.039   5.757
 2977POPC   C1A41247   1.700  32.940   6.046
 2977POPC   D2A41248   1.954  32.995   6.406
 2977POPC   C3A41249   1.898  32.782   6.772
 2977POPC   C4A41250   1.862  33.100   7.065
 2977POPC   C1B41251   2.174  33.366   6.112
 2977POPC   C2B41252   2.070  33.515   6.532
 2977POPC   C3B41253   2.236  33.470   6.927
 2977POPC   C4B41254   2.068  33.498   7.327
 2978POPC   NC341255  17.325  44.142   5.460
 2978POPC   PO441256  17.762  43.691   5.337
 2978POPC   GL141257  17.671  43.884   5.757
 2978POPC   GL241258  17.340  43.720   5.770
 2978POPC   C1A41259  17.778  44.063   6.192
 2978POPC   D2A41260  17.552  44.002   6.602
 2978POPC   C3A41261  17.693  43.832   7.003
 2978POPC   C4A41262  17.767  43.983   7.442
 2978POPC   C1B41263  17.305  43.852   6.183
 2978POPC   C2B41264  17.103  43.715   6.553
 2978POPC   C3B41265  17.166  43.959   6.922
 2978POPC   C4B41266  17.286  43.885   7.337
 2979POPC   NC341267  12.547   6.016   4.974
 2979POPC   PO441268  12.753   6.163   5.608
 2979POPC   GL141269  12.594   6.130   6.000
 2979POPC   GL241270  12.390   5.875   5.909
 2979POPC   C1A41271  12.918   6.048   6.336
 2979POPC   D2A41272  13.202   5.926   6.706
 2979POPC   C3A41273  13.083   6.132   7.087
 2979POPC   C4A41274  13.168   6.061   7.543
 2979POPC   C1B41275  12.485   5.732   6.347
 2979POPC   C2B41276  12.707   5.789   6.740
 2979POPC   C3B41277  12.555   5.770   7.126
 2979POPC   C4B41278  12.406   5.437   7.405
 2980POPC   NC341279  29.934  27.034   5.505
 2980POPC   PO441280  30.011  26.357   5.452
 2980POPC   GL141281  29.818  26.610   5.774
 2980POPC   GL241282  30.113  26.736   5.888
 2980POPC   C1A41283  29.705  26.696   6.211
 2980POPC   D2A41284  29.881  26.574   6.591
 2980POPC   C3A41285  29.866  26.799   6.971
 2980POPC   C4A41286  30.185  26.788   7.260
 2980POPC   C1B41287  30.028  27.106   6.151
 2980POPC   C2B41288  29.966  27.114   6.578
 2980POPC   C3B41289  30.202  27.197   6.946
 2980POPC   C4B41290  30.337  27.265   7.371
 2981POPC   NC341291  38.496  34.744   4.969
 2981POPC   PO441292  38.141  34.405   5.219
 2981POPC   GL141293  38.275  34.391   5.673
 2981POPC   GL241294  38.360  34.728   5.788
 2981POPC   C1A41295  38.182  34.351   6.145
 2981POPC   D2A41296  38.093  34.519   6.596
 2981POPC   C3A41297  38.373  34.431   6.957
 2981POPC   C4A41298  38.334  34.158   7.326
 2981POPC   C1B41299  38.285  34.857   6.237
 2981POPC   C2B41300  38.338  34.979   6.692
 2981POPC   C3B41301  38.343  34.908   7.136
 2981POPC   C4B41302  38.109  34.634   7.396
 2982POPC   NC341303  26.948  21.688   5.421
 2982POPC   PO441304  26.870  21.029   5.367
 2982POPC   GL141305  26.629  21.329   5.615
 2982POPC   GL241306  26.691  21.180   5.895
 2982POPC   C1A41307  26.573  21.655   6.004
 2982POPC   D2A41308  26.608  21.857   6.436
 2982POPC   C3A41309  26.822  21.671   6.802
 2982POPC   C4A41310  26.736  21.798   7.222
 2982POPC   C1B41311  26.677  21.272   6.340
 2982POPC   C2B41312  26.517  21.245   6.757
 2982POPC   C3B41313  26.573  21.338   7.167
 2982POPC   C4B41314  26.899  21.288   7.501
 2983POPC   NC341315  16.331  10.923   5.427
 2983POPC   PO441316  15.805  11.412   5.432
 2983POPC   GL141317  15.947  11.255   5.790
 2983POPC   GL241318  16.276  11.327   5.752
 2983POPC   C1A41319  15.838  11.292   6.221
 2983POPC   D2A41320  15.602  11.117   6.550
 2983POPC   C3A41321  15.767  11.130   6.962
 2983POPC   C4A41322  15.818  11.519   7.191
 2983POPC   C1B41323  16.291  11.070   6.141
 2983POPC   C2B41324  16.102  10.921   6.532
 2983POPC   C3B41325  16.228  10.872   6.952
 2983POPC   C4B41326  16.153  11.109   7.315
 2984POPC   NC341327   3.850  42.946   5.483
 2984POPC   PO441328   3.334  43.356   5.590
 2984POPC   GL141329   3.516  43.061   5.868
 2984POPC   GL241330   3.798  43.295   5.914
 2984POPC   C1A41331   3.539  43.110   6.316
 2984POPC   D2A41332   3.613  43.452   6.616
 2984POPC   C3A41333   3.467  43.333   7.022
 2984POPC   C4A41334   3.599  42.952   7.259
 2984POPC   C1B41335   4.029  43.213   6.286
 2984POPC   C2B41336   4.031  43.092   6.701
 2984POPC   C3B41337   3.982  43.309   7.089
 2984POPC   C4B41338   3.796  43.375   7.489
 2985POPC   NC341339  28.889  20.623   5.612
 2985POPC   PO441340  29.451  20.876   5.362
 2985POPC   GL141341  29.374  20.557   5.731
 2985POPC   GL241342  29.257  20.815   5.942
 2985POPC   C1A41343  29.170  20.398   6.182
 2985POPC   D2A41344  29.228  20.599   6.584
 2985POPC   C3A41345  29.154  20.330   6.936
 2985POPC   C4A41346  29.285  20.328   7.370
 2985POPC   C1B41347  28.857  20.827   6.246
 2985POPC   C2B41348  28.863  20.951   6.689
 2985POPC   C3B41349  29.060  20.821   7.089
 2985POPC   C4B41350  29.137  20.809   7.536
 2986POPC   NC341351  13.201  11.444   5.375
 2986POPC   PO441352  12.761  11.036   5.358
 2986POPC   GL141353  12.794  11.263   5.735
 2986POPC   GL241354  13.084  11.171   5.961
 2986POPC   C1A41355  12.694  11.476   6.130
 2986POPC   D2A41356  12.947  11.322   6.466
 2986POPC   C3A41357  12.798  11.397   6.869
 2986POPC   C4A41358  12.938  11.163   7.203
 2986POPC   C1B41359  12.693  10.972   6.172
 2986POPC   C2B41360  12.493  11.074   6.558
 2986POPC   C3B41361  12.468  10.787   6.905
 2986POPC   C4B41362  12.580  10.811   7.326
 2987POPC   NC341363  33.618  33.665   5.495
 2987POPC   PO441364  33.936  34.156   5.206
 2987POPC   GL141365  33.967  33.990   5.687
 2987POPC   GL241366  33.646  33.966   5.903
 2987POPC   C1A41367  34.049  33.743   6.103
 2987POPC   D2A41368  33.729  33.723   6.450
 2987POPC   C3A41369  33.747  33.780   6.918
 2987POPC   C4A41370  33.693  33.594   7.325
 2987POPC   C1B41371  33.806  34.178   6.247
 2987POPC   C2B41372  33.633  34.203   6.644
 2987POPC   C3B41373  33.756  34.340   7.025
 2987POPC   C4B41374  33.763  34.090   7.400
 2988POPC   NC341375  36.062   4.879   5.479
 2988POPC   PO441376  35.915   5.566   5.448
 2988POPC   GL141377  36.123   5.279   5.807
 2988POPC   GL241378  35.970   4.978   5.952
 2988POPC   C1A41379  36.249   5.246   6.269
 2988POPC   D2A41380  36.307   5.307   6.728
 2988POPC   C3A41381  36.232   5.109   7.129
 2988POPC   C4A41382  36.252   5.281   7.547
 2988POPC   C1B41383  35.802   4.983   6.332
 2988POPC   C2B41384  35.932   4.982   6.723
 2988POPC   C3B41385  35.723   4.970   7.120
 2988POPC   C4B41386  35.765   5.154   7.521
 2989POPC   NC341387  29.862  33.340   5.475
 2989POPC   PO441388  30.178  33.862   5.242
 2989POPC   GL141389  29.983  33.820   5.631
 2989POPC   GL241390  30.064  34.121   5.777
 2989POPC   C1A41391  29.874  33.727   6.061
 2989POPC   D2A41392  29.963  33.549   6.459
 2989POPC   C3A41393  29.805  33.690   6.854
 2989POPC   C4A41394  29.766  33.527   7.281
 2989POPC   C1B41395  29.836  34.236   6.133
 2989POPC   C2B41396  29.973  34.063   6.507
 2989POPC   C3B41397  29.903  34.194   6.905
 2989POPC   C4B41398  29.825  34.053   7.295
 2990POPC   NC341399  35.561  29.630   5.452
 2990POPC   PO441400  36.031  30.054   5.401
 2990POPC   GL141401  35.963  29.912   5.818
 2990POPC   GL241402  36.193  30.128   5.975
 2990POPC   C1A41403  36.128  29.716   6.240
 2990POPC   D2A41404  36.513  29.728   6.549
 2990POPC   C3A41405  36.387  29.642   6.987
 2990POPC   C4A41406  36.035  29.874   7.156
 2990POPC   C1B41407  35.882  30.247   6.291
 2990POPC   C2B41408  35.940  30.510   6.679
 2990POPC   C3B41409  35.986  30.386   7.119
 2990POPC   C4B41410  36.101  30.209   7.546
 2991POPC   NC341411  44.462  33.224   5.409
 2991POPC   PO441412  44.984  32.737   5.449
 2991POPC   GL141413  44.669  32.807   5.769
 2991POPC   GL241414  44.764  33.142   5.900
 2991POPC   C1A41415  44.634  32.745   6.220
 2991POPC   D2A41416  44.781  32.980   6.570
 2991POPC   C3A41417  44.557  32.865   6.932
 2991POPC   C4A41418  44.728  32.636   7.246
 2991POPC   C1B41419   0.090  33.288   6.209
 2991POPC   C2B41420   0.195  33.344   6.649
 2991POPC   C3B41421  44.903  33.244   7.013
 2991POPC   C4B41422  44.626  33.145   7.374
 2992POPC   NC341423  26.635  16.717   5.408
 2992POPC   PO441424  27.042  16.182   5.472
 2992POPC   GL141425  27.000  16.603   5.760
 2992POPC   GL241426  26.640  16.635   5.908
 2992POPC   C1A41427  27.019  16.728   6.228
 2992POPC   D2A41428  26.847  16.409   6.539
 2992POPC   C3A41429  26.730  16.433   6.994
 2992POPC   C4A41430  26.783  16.492   7.487
 2992POPC   C1B41431  26.513  16.782   6.340
 2992POPC   C2B41432  26.773  16.903   6.714
 2992POPC   C3B41433  26.728  16.926   7.157
 2992POPC   C4B41434  26.551  17.166   7.521
 2993POPC   NC341435  34.293  18.213   5.310
 2993POPC   PO441436  34.852  18.350   5.373
 2993POPC   GL141437  34.848  18.307   5.783
 2993POPC   GL241438  34.558  18.066   5.778
 2993POPC   C1A41439  34.651  18.554   6.107
 2993POPC   D2A41440  34.357  18.495   6.445
 2993POPC   C3A41441  34.607  18.453   6.816
 2993POPC   C4A41442  34.511  18.526   7.231
 2993POPC   C1B41443  34.652  18.066   6.213
 2993POPC   C2B41444  34.861  18.058   6.616
 2993POPC   C3B41445  34.629  17.974   6.998
 2993POPC   C4B41446  34.163  17.798   7.069
 2994POPC   NC341447   8.316   7.735   5.734
 2994POPC   PO441448   8.594   8.154   5.519
 2994POPC   GL141449   8.936   8.213   5.811
 2994POPC   GL241450   9.209   8.486   5.734
 2994POPC   C1A41451   8.827   8.210   6.248
 2994POPC   D2A41452   8.893   8.352   6.661
 2994POPC   C3A41453   8.875   8.106   7.023
 2994POPC   C4A41454   9.037   7.783   7.326
 2994POPC   C1B41455   9.190   8.555   6.171
 2994POPC   C2B41456   9.355   8.541   6.582
 2994POPC   C3B41457   9.232   8.501   7.031
 2994POPC   C4B41458   9.160   8.640   7.494
 2995POPC   NC341459  29.033  33.855   5.258
 2995POPC   PO441460  29.410  33.257   5.450
 2995POPC   GL141461  29.455  33.652   5.769
 2995POPC   GL241462  29.212  33.962   5.762
 2995POPC   C1A41463  29.426  33.845   6.244
 2995POPC   D2A41464  29.212  33.956   6.653
 2995POPC   C3A41465  29.355  33.800   7.079
 2995POPC   C4A41466  29.406  33.827   7.517
 2995POPC   C1B41467  28.931  33.956   6.145
 2995POPC   C2B41468  28.809  33.670   6.501
 2995POPC   C3B41469  28.889  33.618   6.963
 2995POPC   C4B41470  28.906  33.814   7.384
 2996POPC   NC341471  39.956  13.897   5.218
 2996POPC   PO441472  39.846  13.285   5.402
 2996POPC   GL141473  39.996  13.525   5.825
 2996POPC   GL241474  39.938  13.869   5.900
 2996POPC   C1A41475  39.882  13.589   6.303
 2996POPC   D2A41476  40.009  13.828   6.673
 2996POPC   C3A41477  39.868  13.608   7.019
 2996POPC   C4A41478  40.027  13.498   7.422
 2996POPC   C1B41479  39.600  14.001   6.218
 2996POPC   C2B41480  39.511  13.888   6.637
 2996POPC   C3B41481  39.593  14.051   7.030
 2996POPC   C4B41482  39.629  13.853   7.409
 2997POPC   NC341483   2.246  36.703   5.641
 2997POPC   PO441484   1.625  36.836   5.529
 2997POPC   GL141485   1.798  36.763   5.919
 2997POPC   GL241486   1.955  37.068   5.872
 2997POPC   C1A41487   2.040  36.819   6.315
 2997POPC   D2A41488   2.264  36.734   6.712
 2997POPC   C3A41489   1.971  36.824   7.051
 2997POPC   C4A41490   1.528  36.692   7.112
 2997POPC   C1B41491   2.150  37.305   6.171
 2997POPC   C2B41492   2.059  37.285   6.571
 2997POPC   C3B41493   2.102  37.309   6.973
 2997POPC   C4B41494   1.707  37.252   7.220
 2998POPC   NC341495  20.320  44.699   5.531
 2998POPC   PO441496  19.655  44.895   5.458
 2998POPC   GL141497  19.889  44.782   5.785
 2998POPC   GL241498  19.770  44.501   5.938
 2998POPC   C1A41499  20.003  44.916   6.180
 2998POPC   D2A41500  19.884  44.748   6.550
 2998POPC   C3A41501  20.045  44.905   6.923
 2998POPC   C4A41502  19.918  44.795   7.285
 2998POPC   C1B41503  20.162  44.426   6.156
 2998POPC   C2B41504  20.187  44.318   6.588
 2998POPC   C3B41505  19.876  44.395   6.932
 2998POPC   C4B41506  20.025  44.300   7.345
 2999POPC   NC341507   2.519  12.792   5.295
 2999POPC   PO441508   3.192  12.727   5.303
 2999POPC   GL141509   2.911  12.898   5.648
 2999POPC   GL241510   2.687  12.620   5.773
 2999POPC   C1A41511   2.780  13.056   6.065
 2999POPC   D2A41512   2.715  12.845   6.453
 2999POPC   C3A41513   2.795  12.879   6.897
 2999POPC   C4A41514   2.673  13.022   7.308
 2999POPC   C1B41515   3.008  12.536   6.088
 2999POPC   C2B41516   3.168  12.556   6.522
 2999POPC   C3B41517   3.048  12.429   6.930
 2999POPC   C4B41518   2.949  12.591   7.349
 3000POPC   NC341519  34.713  32.570   5.380
 3000POPC   PO441520  34.228  32.026   5.451
 3000POPC   GL141521  34.630  32.106   5.682
 3000POPC   GL241522  34.461  32.407   5.792
 3000POPC   C1A41523  34.744  31.972   6.134
 3000POPC   D2A41524  34.527  31.956   6.550
 3000POPC   C3A41525  34.544  32.234   6.936
 3000POPC   C4A41526  34.281  32.240   7.319
 3000POPC   C1B41527  34.671  32.470   6.170
 3000POPC   C2B41528  34.726  32.724   6.503
 3000POPC   C3B41529  34.899  32.596   6.900
 3000POPC   C4B41530  35.018  32.458   7.300
 3001POPC   NC341531  32.059  31.837   5.358
 3001POPC   PO441532  32.206  31.141   5.427
 3001POPC   GL141533  32.392  31.442   5.718
 3001POPC   GL241534  32.524  31.082   5.790
 3001POPC   C1A41535  32.400  31.743   6.067
 3001POPC   D2A41536  32.293  31.610   6.486
 3001POPC   C3A41537  32.481  31.721   6.873
 3001POPC   C4A41538  32.198  31.778   7.235
 3001POPC   C1B41539  32.297  31.202   6.157
 3001POPC   C2B41540  32.470  31.128   6.556
 3001POPC   C3B41541  32.283  31.248   6.935
 3001POPC   C4B41542  32.446  31.005   7.242
 3002POPC   NC341543  26.219  13.331   5.385
 3002POPC   PO441544  25.872  13.991   5.346
 3002POPC   GL141545  25.952  13.776   5.725
 3002POPC   GL241546  26.286  13.908   5.793
 3002POPC   C1A41547  25.888  13.907   6.173
 3002POPC   D2A41548  26.144  13.905   6.539
 3002POPC   C3A41549  25.912  13.740   6.880
 3002POPC   C4A41550  25.774  13.362   7.149
 3002POPC   C1B41551  26.256  13.572   6.104
 3002POPC   C2B41552  26.080  13.375   6.480
 3002POPC   C3B41553  26.268  13.365   6.897
 3002POPC   C4B41554  26.213  13.626   7.277
 3003POPC   NC341555  30.150  19.365   5.164
 3003POPC   PO441556  29.773  19.930   5.352
 3003POPC   GL141557  30.097  19.845   5.617
 3003POPC   GL241558  29.820  19.721   5.838
 3003POPC   C1A41559  30.200  20.050   6.006
 3003POPC   D2A41560  30.243  20.012   6.453
 3003POPC   C3A41561  30.123  20.211   6.839
 3003POPC   C4A41562  29.924  19.940   7.170
 3003POPC   C1B41563  29.764  19.910   6.252
 3003POPC   C2B41564  29.779  19.785   6.689
 3003POPC   C3B41565  29.702  19.436   6.977
 3003POPC   C4B41566  29.702  19.415   7.440
 3004POPC   NC341567  35.882  19.739   5.520
 3004POPC   PO441568  36.119  20.297   5.552
 3004POPC   GL141569  36.320  19.923   5.746
 3004POPC   GL241570  36.064  19.750   5.992
 3004POPC   C1A41571  36.544  19.842   6.148
 3004POPC   D2A41572  36.319  19.972   6.530
 3004POPC   C3A41573  36.478  19.938   6.942
 3004POPC   C4A41574  36.404  19.593   7.213
 3004POPC   C1B41575  35.705  19.474   6.131
 3004POPC   C2B41576  35.623  19.248   6.520
 3004POPC   C3B41577  35.854  19.266   6.900
 3004POPC   C4B41578  35.899  19.599   7.220
 3005POPC   NC341579   4.383  27.962   5.017
 3005POPC   PO441580   4.293  28.494   5.513
 3005POPC   GL141581   4.428  28.359   5.889
 3005POPC   GL241582   4.478  27.996   5.978
 3005POPC   C1A41583   4.347  28.456   6.275
 3005POPC   D2A41584   4.607  28.553   6.565
 3005POPC   C3A41585   4.523  28.753   6.912
 3005POPC   C4A41586   4.387  28.674   7.294
 3005POPC   C1B41587   4.082  28.011   6.179
 3005POPC   C2B41588   4.104  28.099   6.608
 3005POPC   C3B41589   4.380  28.171   6.945
 3005POPC   C4B41590   4.178  28.039   7.327
 3006POPC   NC341591   6.962  31.557   5.472
 3006POPC   PO441592   6.318  31.598   5.313
 3006POPC   GL141593   6.418  31.631   5.769
 3006POPC   GL241594   6.634  31.372   5.868
 3006POPC   C1A41595   6.339  31.691   6.216
 3006POPC   D2A41596   6.572  31.449   6.527
 3006POPC   C3A41597   6.649  31.460   6.978
 3006POPC   C4A41598   6.387  31.583   7.384
 3006POPC   C1B41599   6.850  31.683   6.152
 3006POPC   C2B41600   7.071  31.841   6.529
 3006POPC   C3B41601   6.950  31.926   6.943
 3006POPC   C4B41602   6.862  31.763   7.330
 3007POPC   NC341603  23.386   5.807   5.534
 3007POPC   PO441604  23.971   6.362   5.423
 3007POPC   GL141605  23.991   6.194   5.843
 3007POPC   GL241606  23.746   5.942   5.863
 3007POPC   C1A41607  23.854   6.205   6.276
 3007POPC   D2A41608  23.653   6.003   6.616
 3007POPC   C3A41609  23.911   6.094   6.979
 3007POPC   C4A41610  23.892   5.966   7.426
 3007POPC   C1B41611  23.789   5.685   6.232
 3007POPC   C2B41612  23.619   5.487   6.639
 3007POPC   C3B41613  23.632   5.671   7.028
 3007POPC   C4B41614  23.424   6.072   7.083
 3008POPC   NC341615   0.258   6.432   5.486
 3008POPC   PO441616   0.676   6.954   5.316
 3008POPC   GL141617   0.615   6.715   5.729
 3008POPC   GL241618   0.259   6.740   5.895
 3008POPC   C1A41619   0.665   6.525   6.157
 3008POPC   D2A41620   0.441   6.686   6.507
 3008POPC   C3A41621   0.631   6.767   6.892
 3008POPC   C4A41622   0.527   6.626   7.278
 3008POPC   C1B41623   0.034   6.958   6.226
 3008POPC   C2B41624   0.133   7.082   6.643
 3008POPC   C3B41625   0.172   6.960   7.061
 3008POPC   C4B41626   0.031   6.659   7.376
 3009POPC   NC341627  17.210  39.900   5.540
 3009POPC   PO441628  17.786  40.257   5.470
 3009POPC   GL141629  17.569  40.156   5.831
 3009POPC   GL241630  17.242  40.242   5.894
 3009POPC   C1A41631  17.677  39.955   6.198
 3009POPC   D2A41632  17.636  40.100   6.585
 3009POPC   C3A41633  17.625  39.825   6.918
 3009POPC   C4A41634  17.480  39.957   7.333
 3009POPC   C1B41635  17.159  40.034   6.276
 3009POPC   C2B41636  17.154  39.892   6.705
 3009POPC   C3B41637  17.067  40.122   7.091
 3009POPC   C4B41638  16.978  39.916   7.496
 3010POPC   NC341639  30.509  44.894   5.229
 3010POPC   PO441640  30.820  44.293   5.423
 3010POPC   GL141641  30.806  44.590   5.705
 3010POPC   GL241642  30.428  44.617   5.679
 3010POPC   C1A41643  31.000  44.672   6.112
 3010POPC   D2A41644  30.910  44.886   6.471
 3010POPC   C3A41645  30.932  44.704   6.901
 3010POPC   C4A41646  31.118  44.416   7.216
 3010POPC   C1B41647  30.518  44.493   6.129
 3010POPC   C2B41648  30.550  44.521   6.582
 3010POPC   C3B41649  30.438  44.616   7.029
 3010POPC   C4B41650  30.260  44.668   7.458
 3011POPC   NC341651  13.149   2.694   5.363
 3011POPC   PO441652  12.478   2.579   5.259
 3011POPC   GL141653  12.610   2.754   5.671
 3011POPC   GL241654  12.825   2.542   5.794
 3011POPC   C1A41655  12.644   2.773   6.195
 3011POPC   D2A41656  12.555   2.672   6.686
 3011POPC   C3A41657  12.609   2.902   7.103
 3011POPC   C4A41658  12.459   2.959   7.533
 3011POPC   C1B41659  12.938   2.328   6.178
 3011POPC   C2B41660  12.988   2.404   6.608
 3011POPC   C3B41661  12.986   2.558   7.004
 3011POPC   C4B41662  13.227   2.638   7.340
 3012POPC   NC341663  25.953  26.655   5.422
 3012POPC   PO441664  26.441  27.013   5.485
 3012POPC   GL141665  26.263  26.770   5.828
 3012POPC   GL241666  26.147  27.092   5.957
 3012POPC   C1A41667  25.951  26.698   6.185
 3012POPC   D2A41668  25.785  26.692   6.590
 3012POPC   C3A41669  25.852  26.419   6.937
 3012POPC   C4A41670  25.976  26.721   7.233
 3012POPC   C1B41671  26.030  27.145   6.424
 3012POPC   C2B41672  26.002  27.077   6.874
 3012POPC   C3B41673  26.244  27.183   7.252
 3012POPC   C4B41674  26.152  27.400   7.666
 3013POPC   NC341675   8.852  19.724   5.513
 3013POPC   PO441676   9.478  19.687   5.322
 3013POPC   GL141677   9.298  19.732   5.756
 3013POPC   GL241678   9.106  20.089   5.813
 3013POPC   C1A41679   9.375  19.859   6.177
 3013POPC   D2A41680   9.251  20.168   6.472
 3013POPC   C3A41681   9.101  19.946   6.797
 3013POPC   C4A41682   9.244  19.685   7.104
 3013POPC   C1B41683   8.849  19.912   6.183
 3013POPC   C2B41684   8.754  19.617   6.535
 3013POPC   C3B41685   8.706  19.629   6.990
 3013POPC   C4B41686   8.806  20.007   7.213
 3014POPC   NC341687   1.444  29.655   5.408
 3014POPC   PO441688   1.051  30.127   5.491
 3014POPC   GL141689   1.195  29.854   5.808
 3014POPC   GL241690   0.904  29.645   5.901
 3014POPC   C1A41691   1.248  29.798   6.241
 3014POPC   D2A41692   0.917  29.774   6.543
 3014POPC   C3A41693   1.124  29.825   6.910
 3014POPC   C4A41694   1.337  29.751   7.272
 3014POPC   C1B41695   0.832  30.051   6.104
 3014POPC   C2B41696   0.981  30.319   6.432
 3014POPC   C3B41697   0.884  30.285   6.884
 3014POPC   C4B41698   1.069  30.472   7.237
 3015POPC   NC341699  35.873   4.231   5.524
 3015POPC   PO441700  35.262   4.509   5.260
 3015POPC   GL141701  35.349   4.258   5.652
 3015POPC   GL241702  35.222   4.531   5.847
 3015POPC   C1A41703  35.490   4.154   6.090
 3015POPC   D2A41704  35.371   4.186   6.527
 3015POPC   C3A41705  35.594   4.154   6.902
 3015POPC   C4A41706  35.439   4.104   7.307
 3015POPC   C1B41707  35.425   4.638   6.267
 3015POPC   C2B41708  35.575   4.633   6.701
 3015POPC   C3B41709  35.337   4.576   7.066
 3015POPC   C4B41710  34.920   4.702   7.157
 3016POPC   NC341711  13.326  38.883   5.448
 3016POPC   PO441712  13.802  39.330   5.608
 3016POPC   GL141713  13.660  38.997   5.839
 3016POPC   GL241714  13.955  38.772   5.824
 3016POPC   C1A41715  13.500  39.117   6.242
 3016POPC   D2A41716  13.714  39.392   6.564
 3016POPC   C3A41717  13.534  39.338   6.978
 3016POPC   C4A41718  13.360  38.927   7.090
 3016POPC   C1B41719  13.997  38.969   6.227
 3016POPC   C2B41720  14.091  39.043   6.633
 3016POPC   C3B41721  13.883  38.947   7.012
 3016POPC   C4B41722  13.746  38.886   7.445
 3017POPC   NC341723  14.494  36.648   5.505
 3017POPC   PO441724  14.089  37.261   5.453
 3017POPC   GL141725  14.253  37.069   5.846
 3017POPC   GL241726  14.022  36.785   5.848
 3017POPC   C1A41727  14.508  37.106   6.261
 3017POPC   D2A41728  14.485  36.976   6.668
 3017POPC   C3A41729  14.747  36.904   6.980
 3017POPC   C4A41730  14.525  37.057   7.330
 3017POPC   C1B41731  14.333  36.611   6.168
 3017POPC   C2B41732  14.306  36.510   6.621
 3017POPC   C3B41733  14.178  36.750   7.013
 3017POPC   C4B41734  14.163  36.731   7.471
 3018POPC   NC341735  24.530  14.859   5.378
 3018POPC   PO441736  24.085  15.384   5.495
 3018POPC   GL141737  24.430  15.312   5.771
 3018POPC   GL241738  24.400  14.974   5.841
 3018POPC   C1A41739  24.613  15.310   6.179
 3018POPC   D2A41740  24.422  15.244   6.572
 3018POPC   C3A41741  24.634  15.416   6.933
 3018POPC   C4A41742  24.457  15.266   7.289
 3018POPC   C1B41743  24.506  14.805   6.225
 3018POPC   C2B41744  24.844  14.874   6.507
 3018POPC   C3B41745  24.670  14.911   6.876
 3018POPC   C4B41746  24.311  14.792   7.103
 3019POPC   NC341747  16.970  10.478   5.616
 3019POPC   PO441748  16.319  10.455   5.401
 3019POPC   GL141749  16.410  10.609   5.829
 3019POPC   GL241750  16.653  10.841   5.868
 3019POPC   C1A41751  16.491  10.620   6.303
 3019POPC   D2A41752  16.813  10.527   6.628
 3019POPC   C3A41753  16.657  10.556   7.066
 3019POPC   C4A41754  16.537  10.311   7.454
 3019POPC   C1B41755  16.849  11.022   6.271
 3019POPC   C2B41756  16.942  10.993   6.759
 3019POPC   C3B41757  16.966  10.933   7.224
 3019POPC   C4B41758  16.590  10.829   7.502
 3020POPC   NC341759  30.247   5.856   5.095
 3020POPC   PO441760  29.675   5.685   5.337
 3020POPC   GL141761  29.986   5.796   5.645
 3020POPC   GL241762  29.823   6.096   5.752
 3020POPC   C1A41763  30.049   5.745   6.109
 3020POPC   D2A41764  29.847   5.883   6.537
 3020POPC   C3A41765  29.954   5.770   6.977
 3020POPC   C4A41766  29.756   5.879   7.375
 3020POPC   C1B41767  29.961   6.239   6.169
 3020POPC   C2B41768  30.089   6.332   6.591
 3020POPC   C3B41769  30.228   6.228   6.984
 3020POPC   C4B41770  30.247   6.015   7.345
 3021POPC   NC341771   7.511   1.812   5.489
 3021POPC   PO441772   8.019   2.151   5.417
 3021POPC   GL141773   8.375   1.899   5.674
 3021POPC   GL241774   8.122   1.853   5.928
 3021POPC   C1A41775   8.581   1.738   6.082
 3021POPC   D2A41776   8.386   1.875   6.450
 3021POPC   C3A41777   8.516   1.845   6.871
 3021POPC   C4A41778   8.308   1.877   7.230
 3021POPC   C1B41779   7.898   1.827   6.326
 3021POPC   C2B41780   7.986   1.872   6.771
 3021POPC   C3B41781   7.836   1.703   7.139
 3021POPC   C4B41782   7.884   1.860   7.550
 3022POPC   NC341783  22.229  23.282   5.444
 3022POPC   PO441784  21.996  23.916   5.354
 3022POPC   GL141785  22.037  23.785   5.773
 3022POPC   GL241786  22.346  23.586   5.844
 3022POPC   C1A41787  22.192  23.972   6.163
 3022POPC   D2A41788  22.151  23.739   6.555
 3022POPC   C3A41789  22.106  23.890   6.955
 3022POPC   C4A41790  22.017  23.768   7.380
 3022POPC   C1B41791  22.546  23.588   6.261
 3022POPC   C2B41792  22.559  23.471   6.731
 3022POPC   C3B41793  22.462  23.557   7.194
 3022POPC   C4B41794  22.317  23.454   7.650
 3023POPC   NC341795  39.530  13.509   5.643
 3023POPC   PO441796  38.922  13.633   5.271
 3023POPC   GL141797  39.097  13.638   5.787
 3023POPC   GL241798  39.184  13.262   5.941
 3023POPC   C1A41799  39.251  13.635   6.256
 3023POPC   D2A41800  39.065  13.660   6.663
 3023POPC   C3A41801  39.319  13.612   7.046
 3023POPC   C4A41802  38.987  13.388   7.130
 3023POPC   C1B41803  39.536  13.194   6.253
 3023POPC   C2B41804  39.567  13.368   6.657
 3023POPC   C3B41805  39.631  13.162   7.050
 3023POPC   C4B41806  39.328  13.076   7.293
 3024POPC   NC341807   9.395  10.074   5.200
 3024POPC   PO441808   9.564   9.424   5.368
 3024POPC   GL141809   9.640   9.639   5.761
 3024POPC   GL241810  10.001   9.632   5.749
 3024POPC   C1A41811   9.803   9.849   6.175
 3024POPC   D2A41812   9.918  10.156   6.505
 3024POPC   C3A41813   9.699  10.112   6.892
 3024POPC   C4A41814   9.409   9.858   7.134
 3024POPC   C1B41815  10.171   9.449   6.144
 3024POPC   C2B41816  10.214   9.483   6.596
 3024POPC   C3B41817   9.847   9.613   6.822
 3024POPC   C4B41818   9.880   9.742   7.248
 3025POPC   NC341819   6.804  41.667   5.584
 3025POPC   PO441820   7.489  41.635   5.431
 3025POPC   GL141821   7.423  41.644   5.818
 3025POPC   GL241822   7.214  41.940   5.788
 3025POPC   C1A41823   7.587  41.567   6.226
 3025POPC   D2A41824   7.861  41.622   6.559
 3025POPC   C3A41825   7.539  41.621   6.848
 3025POPC   C4A41826   7.588  41.543   7.253
 3025POPC   C1B41827   7.124  41.802   6.200
 3025POPC   C2B41828   7.086  41.886   6.624
 3025POPC   C3B41829   7.071  41.740   7.059
 3025POPC   C4B41830   7.238  41.887   7.406
 3026POPC   NC341831  38.396  23.509   5.445
 3026POPC   PO441832  38.293  24.000   5.679
 3026POPC   GL141833  38.276  24.012   6.121
 3026POPC   GL241834  38.664  24.092   6.089
 3026POPC   C1A41835  38.138  23.685   6.483
 3026POPC   D2A41836  38.359  23.278   6.550
 3026POPC   C3A41837  38.533  23.285   6.907
 3026POPC   C4A41838  38.261  23.636   7.035
 3026POPC   C1B41839  38.979  23.869   6.405
 3026POPC   C2B41840  38.831  23.713   6.840
 3026POPC   C3B41841  38.677  23.949   7.220
 3026POPC   C4B41842  38.719  23.970   7.703
 3027POPC   NC341843  24.369  11.135   5.136
 3027POPC   PO441844  24.893  11.347   5.505
 3027POPC   GL141845  24.545  11.265   5.751
 3027POPC   GL241846  24.321  11.561   5.643
 3027POPC   C1A41847  24.693  11.187   6.187
 3027POPC   D2A41848  24.837  11.071   6.619
 3027POPC   C3A41849  24.496  11.147   6.899
 3027POPC   C4A41850  24.151  11.065   7.180
 3027POPC   C1B41851  24.391  11.633   6.094
 3027POPC   C2B41852  24.664  11.616   6.455
 3027POPC   C3B41853  24.718  11.648   6.901
 3027POPC   C4B41854  24.481  11.503   7.265
 3028POPC   NC341855  18.868  36.547   5.521
 3028POPC   PO441856  19.020  37.093   5.263
 3028POPC   GL141857  19.063  37.123   5.734
 3028POPC   GL241858  18.800  37.322   5.878
 3028POPC   C1A41859  19.028  36.943   6.186
 3028POPC   D2A41860  19.189  36.852   6.623
 3028POPC   C3A41861  18.887  36.648   6.915
 3028POPC   C4A41862  18.838  36.701   7.330
 3028POPC   C1B41863  18.542  37.167   6.200
 3028POPC   C2B41864  18.680  36.985   6.591
 3028POPC   C3B41865  18.699  37.113   7.004
 3028POPC   C4B41866  18.810  37.228   7.409
 3029POPC   NC341867  30.942  12.633   5.442
 3029POPC   PO441868  31.660  12.721   5.339
 3029POPC   GL141869  31.474  12.709   5.769
 3029POPC   GL241870  31.139  12.804   5.884
 3029POPC   C1A41871  31.475  12.594   6.214
 3029POPC   D2A41872  31.785  12.721   6.536
 3029POPC   C3A41873  31.787  12.522   6.956
 3029POPC   C4A41874  31.649  12.668   7.377
 3029POPC   C1B41875  31.128  13.004   6.304
 3029POPC   C2B41876  31.293  12.816   6.674
 3029POPC   C3B41877  31.608  12.989   6.967
 3029POPC   C4B41878  31.664  13.235   7.322
 3030POPC   NC341879   2.579  35.017   5.482
 3030POPC   PO441880   2.751  34.388   5.519
 3030POPC   GL141881   2.642  34.634   5.863
 3030POPC   GL241882   2.840  34.923   5.905
 3030POPC   C1A41883   2.690  34.630   6.297
 3030POPC   D2A41884   2.932  34.637   6.641
 3030POPC   C3A41885   2.702  34.561   7.012
 3030POPC   C4A41886   2.604  34.820   7.340
 3030POPC   C1B41887   3.154  34.889   6.230
 3030POPC   C2B41888   3.382  34.893   6.635
 3030POPC   C3B41889   3.173  34.862   7.048
 3030POPC   C4B41890   3.171  34.723   7.472
 3031POPC   NC341891   1.552  20.364   5.465
 3031POPC   PO441892   1.157  20.790   5.493
 3031POPC   GL141893   1.460  20.765   5.829
 3031POPC   GL241894   1.333  20.457   5.916
 3031POPC   C1A41895   1.442  21.031   6.220
 3031POPC   D2A41896   1.632  21.031   6.630
 3031POPC   C3A41897   1.367  20.957   6.982
 3031POPC   C4A41898   1.310  20.603   7.234
 3031POPC   C1B41899   1.045  20.713   6.160
 3031POPC   C2B41900   1.095  20.769   6.587
 3031POPC   C3B41901   0.893  20.648   6.953
 3031POPC   C4B41902   0.913  20.323   7.313
 3032POPC   NC341903  11.552   1.313   5.673
 3032POPC   PO441904  11.062   1.134   5.275
 3032POPC   GL141905  11.092   1.144   5.708
 3032POPC   GL241906  11.380   0.872   5.833
 3032POPC   C1A41907  11.069   1.311   6.119
 3032POPC   D2A41908  11.163   1.145   6.538
 3032POPC   C3A41909  11.316   1.395   6.893
 3032POPC   C4A41910  11.519   1.391   7.316
 3032POPC   C1B41911  11.424   0.758   6.272
 3032POPC   C2B41912  11.533   0.833   6.720
 3032POPC   C3B41913  11.396   0.915   7.151
 3032POPC   C4B41914  11.354   0.994   7.618
 3033POPC   NC341915  22.500  30.041   5.456
 3033POPC   PO441916  23.158  30.139   5.518
 3033POPC   GL141917  22.870  29.983   5.832
 3033POPC   GL241918  22.738  30.307   5.906
 3033POPC   C1A41919  22.763  29.914   6.289
 3033POPC   D2A41920  22.936  29.989   6.730
 3033POPC   C3A41921  22.756  29.835   7.128
 3033POPC   C4A41922  22.525  29.729   7.515
 3033POPC   C1B41923  22.999  30.375   6.320
 3033POPC   C2B41924  23.119  30.474   6.787
 3033POPC   C3B41925  23.132  30.247   7.187
 3033POPC   C4B41926  22.829  30.202   7.513
 3034POPC   NC341927   1.152  23.570   5.650
 3034POPC   PO441928   1.472  24.146   5.368
 3034POPC   GL141929   1.400  23.982   5.807
 3034POPC   GL241930   1.589  23.672   5.909
 3034POPC   C1A41931   1.171  23.817   6.225
 3034POPC   D2A41932   0.907  23.949   6.586
 3034POPC   C3A41933   1.101  23.804   6.962
 3034POPC   C4A41934   1.130  23.442   7.213
 3034POPC   C1B41935   1.657  24.003   6.231
 3034POPC   C2B41936   1.423  24.052   6.600
 3034POPC   C3B41937   1.577  23.956   6.992
 3034POPC   C4B41938   1.603  23.623   7.269
 3035POPC   NC341939   3.908   8.703   5.576
 3035POPC   PO441940   3.285   8.654   5.471
 3035POPC   GL141941   3.339   8.368   5.828
 3035POPC   GL241942   3.017   8.236   5.856
 3035POPC   C1A41943   3.609   8.321   6.223
 3035POPC   D2A41944   3.845   8.291   6.639
 3035POPC   C3A41945   3.745   8.162   7.089
 3035POPC   C4A41946   3.708   8.377   7.504
 3035POPC   C1B41947   3.093   8.366   6.302
 3035POPC   C2B41948   3.329   8.280   6.711
 3035POPC   C3B41949   3.234   8.135   7.146
 3035POPC   C4B41950   3.187   8.356   7.534
 3036POPC   NC341951  43.629  33.373   4.876
 3036POPC   PO441952  44.050  33.055   5.282
 3036POPC   GL141953  44.146  32.885   5.695
 3036POPC   GL241954  44.251  33.187   5.870
 3036POPC   C1A41955  44.029  32.832   6.143
 3036POPC   D2A41956  44.216  32.806   6.551
 3036POPC   C3A41957  44.021  32.908   6.939
 3036POPC   C4A41958  43.638  33.052   7.122
 3036POPC   C1B41959  44.402  33.202   6.291
 3036POPC   C2B41960  44.288  33.283   6.722
 3036POPC   C3B41961  44.054  33.396   7.097
 3036POPC   C4B41962  44.148  33.265   7.494
 3037POPC   NC341963  34.001   4.568   5.368
 3037POPC   PO441964  34.054   5.194   5.413
 3037POPC   GL141965  33.919   4.935   5.795
 3037POPC   GL241966  33.623   4.767   5.691
 3037POPC   C1A41967  33.880   5.040   6.273
 3037POPC   D2A41968  33.903   5.283   6.677
 3037POPC   C3A41969  33.767   5.016   7.016
 3037POPC   C4A41970  33.654   4.751   7.353
 3037POPC   C1B41971  33.594   4.616   6.152
 3037POPC   C2B41972  33.558   4.698   6.623
 3037POPC   C3B41973  33.287   4.821   6.979
 3037POPC   C4B41974  33.286   5.091   7.385
 3038POPC   NC341975  13.519  30.374   5.448
 3038POPC   PO441976  13.457  29.734   5.467
 3038POPC   GL141977  13.522  30.002   5.843
 3038POPC   GL241978  13.229  30.184   5.844
 3038POPC   C1A41979  13.467  30.132   6.317
 3038POPC   D2A41980  13.384  30.122   6.788
 3038POPC   C3A41981  13.641  29.849   7.101
 3038POPC   C4A41982  13.766  29.399   7.234
 3038POPC   C1B41983  13.147  29.795   6.120
 3038POPC   C2B41984  13.044  29.790   6.580
 3038POPC   C3B41985  13.147  29.724   7.030
 3038POPC   C4B41986  13.328  29.604   7.448
 3039POPC   NC341987   8.406  21.933   5.440
 3039POPC   PO441988   8.977  22.331   5.463
 3039POPC   GL141989   8.988  22.046   5.824
 3039POPC   GL241990   8.637  22.022   5.964
 3039POPC   C1A41991   9.065  21.969   6.267
 3039POPC   D2A41992   8.851  21.953   6.664
 3039POPC   C3A41993   9.058  22.055   7.020
 3039POPC   C4A41994   8.872  22.071   7.429
 3039POPC   C1B41995   8.736  22.341   6.318
 3039POPC   C2B41996   8.883  22.469   6.740
 3039POPC   C3B41997   8.723  22.493   7.164
 3039POPC   C4B41998   8.565  22.447   7.610
 3040POPC   NC341999   5.746  37.677   5.399
 3040POPC   PO442000   6.380  37.549   5.625
 3040POPC   GL142001   6.002  37.557   5.824
 3040POPC   GL242002   5.940  37.929   5.791
 3040POPC   C1A42003   5.869  37.630   6.248
 3040POPC   D2A42004   6.111  37.720   6.613
 3040POPC   C3A42005   5.913  37.510   6.928
 3040POPC   C4A42006   5.901  37.650   7.317
 3040POPC   C1B42007   5.530  37.962   6.023
 3040POPC   C2B42008   5.441  38.013   6.453
 3040POPC   C3B42009   5.636  37.945   6.837
 3040POPC   C4B42010   5.603  38.041   7.277
 3041POPC   NC342011  41.570   3.358   5.347
 3041POPC   PO442012  41.699   4.018   5.366
 3041POPC   GL142013  41.585   3.742   5.758
 3041POPC   GL242014  41.367   3.432   5.833
 3041POPC   C1A42015  41.476   3.776   6.207
 3041POPC   D2A42016  41.674   3.820   6.604
 3041POPC   C3A42017  41.393   3.679   6.941
 3041POPC   C4A42018  41.616   3.745   7.310
 3041POPC   C1B42019  41.203   3.307   6.236
 3041POPC   C2B42020  41.059   3.432   6.632
 3041POPC   C3B42021  41.060   3.214   7.031
 3041POPC   C4B42022  41.286   3.358   7.387
 3042POPC   NC342023  29.938  37.529   5.445
 3042POPC   PO442024  29.330  37.464   5.424
 3042POPC   GL142025  29.598  37.632   5.814
 3042POPC   GL242026  29.946  37.741   5.909
 3042POPC   C1A42027  29.583  37.731   6.274
 3042POPC   D2A42028  29.903  37.875   6.584
 3042POPC   C3A42029  29.787  37.766   7.005
 3042POPC   C4A42030  29.633  37.558   7.389
 3042POPC   C1B42031  30.018  37.453   6.293
 3042POPC   C2B42032  30.038  37.403   6.753
 3042POPC   C3B42033  30.073  37.379   7.183
 3042POPC   C4B42034  30.087  37.748   7.468
 3043POPC   NC342035  34.830  24.527   5.143
 3043POPC   PO442036  34.457  24.059   5.342
 3043POPC   GL142037  34.586  24.349   5.621
 3043POPC   GL242038  34.275  24.304   5.818
 3043POPC   C1A42039  34.768  24.425   6.020
 3043POPC   D2A42040  34.803  24.343   6.470
 3043POPC   C3A42041  34.969  24.503   6.855
 3043POPC   C4A42042  34.748  24.569   7.237
 3043POPC   C1B42043  34.292  24.411   6.262
 3043POPC   C2B42044  34.038  24.594   6.606
 3043POPC   C3B42045  34.152  24.495   7.041
 3043POPC   C4B42046  34.287  24.769   7.358
 3044POPC   NC342047  18.862  25.272   5.397
 3044POPC   PO442048  19.460  25.034   5.379
 3044POPC   GL142049  19.300  25.172   5.735
 3044POPC   GL242050  19.073  24.929   5.825
 3044POPC   C1A42051  19.464  25.235   6.165
 3044POPC   D2A42052  19.604  25.111   6.598
 3044POPC   C3A42053  19.359  25.284   6.968
 3044POPC   C4A42054  19.165  24.974   7.231
 3044POPC   C1B42055  19.016  24.924   6.285
 3044POPC   C2B42056  18.990  25.058   6.715
 3044POPC   C3B42057  18.784  25.270   7.067
 3044POPC   C4B42058  18.490  25.093   7.391
 3045POPC   NC342059  15.289  19.523   5.385
 3045POPC   PO442060  14.932  19.986   5.055
 3045POPC   GL142061  14.898  19.968   5.559
 3045POPC   GL242062  14.946  19.651   5.758
 3045POPC   C1A42063  14.979  20.184   5.999
 3045POPC   D2A42064  15.258  20.226   6.391
 3045POPC   C3A42065  15.144  20.249   6.859
 3045POPC   C4A42066  15.107  20.156   7.333
 3045POPC   C1B42067  15.210  19.746   6.143
 3045POPC   C2B42068  15.361  19.755   6.580
 3045POPC   C3B42069  15.197  19.752   6.991
 3045POPC   C4B42070  14.785  19.704   7.153
 3046POPC   NC342071  12.390  40.237   5.559
 3046POPC   PO442072  12.134  39.593   5.284
 3046POPC   GL142073  12.165  39.756   5.663
 3046POPC   GL242074  11.927  40.020   5.756
 3046POPC   C1A42075  12.136  39.673   6.091
 3046POPC   D2A42076  12.336  39.836   6.470
 3046POPC   C3A42077  12.103  39.806   6.840
 3046POPC   C4A42078  12.240  39.746   7.239
 3046POPC   C1B42079  12.126  40.202   6.154
 3046POPC   C2B42080  12.049  40.263   6.601
 3046POPC   C3B42081  12.237  40.247   7.032
 3046POPC   C4B42082  12.119  40.153   7.503
 3047POPC   NC342083  23.888  14.102   5.499
 3047POPC   PO442084  23.500  14.579   5.401
 3047POPC   GL142085  23.708  14.513   5.776
 3047POPC   GL242086  23.384  14.411   5.903
 3047POPC   C1A42087  23.949  14.525   6.163
 3047POPC   D2A42088  23.892  14.340   6.582
 3047POPC   C3A42089  23.841  14.567   6.965
 3047POPC   C4A42090  23.996  14.532   7.401
 3047POPC   C1B42091  23.548  14.145   6.222
 3047POPC   C2B42092  23.501  14.020   6.665
 3047POPC   C3B42093  23.378  14.315   7.011
 3047POPC   C4B42094  23.500  14.500   7.421
 3048POPC   NC342095  23.335  17.237   5.359
 3048POPC   PO442096  23.385  17.820   5.341
 3048POPC   GL142097  23.250  17.633   5.771
 3048POPC   GL242098  23.124  17.298   5.809
 3048POPC   C1A42099  23.156  17.577   6.239
 3048POPC   D2A42100  23.235  17.342   6.620
 3048POPC   C3A42101  23.116  17.584   7.011
 3048POPC   C4A42102  22.926  17.880   7.328
 3048POPC   C1B42103  22.763  17.291   6.086
 3048POPC   C2B42104  22.736  17.340   6.556
 3048POPC   C3B42105  22.896  17.129   6.965
 3048POPC   C4B42106  22.784  17.351   7.363
 3049POPC   NC342107   3.177  23.153   5.446
 3049POPC   PO442108   3.809  22.889   5.230
 3049POPC   GL142109   3.772  22.883   5.660
 3049POPC   GL242110   3.660  23.228   5.637
 3049POPC   C1A42111   3.790  22.772   6.099
 3049POPC   D2A42112   3.825  22.835   6.534
 3049POPC   C3A42113   3.424  22.852   6.740
 3049POPC   C4A42114   3.372  23.018   7.113
 3049POPC   C1B42115   3.580  23.234   6.092
 3049POPC   C2B42116   3.498  23.308   6.524
 3049POPC   C3B42117   3.495  23.508   6.911
 3049POPC   C4B42118   3.254  23.460   7.289
 3050POPC   NC342119   7.768  32.376   5.458
 3050POPC   PO442120   7.688  31.756   5.295
 3050POPC   GL142121   7.447  31.994   5.658
 3050POPC   GL242122   7.354  32.357   5.809
 3050POPC   C1A42123   7.291  31.954   6.081
 3050POPC   D2A42124   7.364  32.275   6.379
 3050POPC   C3A42125   7.374  32.191   6.789
 3050POPC   C4A42126   7.384  32.284   7.198
 3050POPC   C1B42127   7.752  32.378   6.089
 3050POPC   C2B42128   7.868  32.475   6.522
 3050POPC   C3B42129   7.643  32.676   6.876
 3050POPC   C4B42130   7.771  32.578   7.293
 3051POPC   NC342131  14.794   1.003   5.409
 3051POPC   PO442132  14.157   0.808   5.487
 3051POPC   GL142133  14.224   1.184   5.779
 3051POPC   GL242134  14.431   1.508   5.744
 3051POPC   C1A42135  14.149   1.241   6.230
 3051POPC   D2A42136  14.414   1.073   6.581
 3051POPC   C3A42137  14.282   1.219   6.933
 3051POPC   C4A42138  14.336   1.123   7.343
 3051POPC   C1B42139  14.317   1.705   6.158
 3051POPC   C2B42140  14.394   1.614   6.609
 3051POPC   C3B42141  14.626   1.595   7.048
 3051POPC   C4B42142  14.451   1.594   7.464
 3052POPC   NC342143  12.144  42.725   5.259
 3052POPC   PO442144  12.434  42.125   5.357
 3052POPC   GL142145  12.292  42.161   5.766
 3052POPC   GL242146  12.314  42.511   5.712
 3052POPC   C1A42147  12.008  42.252   6.132
 3052POPC   D2A42148  12.025  42.108   6.569
 3052POPC   C3A42149  11.882  42.127   6.997
 3052POPC   C4A42150  11.789  42.507   7.230
 3052POPC   C1B42151  12.346  42.647   6.112
 3052POPC   C2B42152  12.202  42.597   6.514
 3052POPC   C3B42153  12.215  42.562   6.978
 3052POPC   C4B42154  12.226  42.665   7.454
 3053POPC   NC342155  12.174  11.393   5.102
 3053POPC   PO442156  11.641  10.945   5.400
 3053POPC   GL142157  11.871  11.284   5.687
 3053POPC   GL242158  12.252  11.222   5.624
 3053POPC   C1A42159  11.972  11.575   6.102
 3053POPC   D2A42160  12.320  11.577   6.477
 3053POPC   C3A42161  12.238  11.382   6.915
 3053POPC   C4A42162  11.828  11.438   7.176
 3053POPC   C1B42163  12.234  11.152   6.091
 3053POPC   C2B42164  11.980  11.185   6.501
 3053POPC   C3B42165  11.972  10.936   6.890
 3053POPC   C4B42166  11.816  10.936   7.316
 3054POPC   NC342167  30.096  11.999   5.584
 3054POPC   PO442168  29.714  12.521   5.298
 3054POPC   GL142169  29.733  12.327   5.707
 3054POPC   GL242170  30.084  12.431   5.815
 3054POPC   C1A42171  29.611  12.059   6.082
 3054POPC   D2A42172  29.788  11.886   6.474
 3054POPC   C3A42173  29.643  12.100   6.853
 3054POPC   C4A42174  29.716  12.013   7.290
 3054POPC   C1B42175  30.049  12.277   6.222
 3054POPC   C2B42176  30.193  12.180   6.641
 3054POPC   C3B42177  30.111  11.896   6.957
 3054POPC   C4B42178  30.198  11.884   7.428
 3055POPC   NC342179  20.877  30.786   5.461
 3055POPC   PO442180  20.348  30.377   5.569
 3055POPC   GL142181  20.603  30.633   5.888
 3055POPC   GL242182  20.640  31.023   5.849
 3055POPC   C1A42183  20.524  30.590   6.333
 3055POPC   D2A42184  20.505  30.817   6.710
 3055POPC   C3A42185  20.648  30.550   7.035
 3055POPC   C4A42186  20.586  30.696   7.440
 3055POPC   C1B42187  20.686  31.068   6.285
 3055POPC   C2B42188  20.861  31.195   6.685
 3055POPC   C3B42189  20.842  31.015   7.087
 3055POPC   C4B42190  21.080  30.737   7.264
 3056POPC   NC342191  10.460  15.458   5.496
 3056POPC   PO442192  10.754  14.875   5.438
 3056POPC   GL142193  10.595  15.047   5.794
 3056POPC   GL242194  10.782  15.366   5.867
 3056POPC   C1A42195  10.355  14.980   6.171
 3056POPC   D2A42196  10.506  14.958   6.596
 3056POPC   C3A42197  10.223  15.020   6.952
 3056POPC   C4A42198  10.202  14.911   7.392
 3056POPC   C1B42199  10.889  15.561   6.237
 3056POPC   C2B42200  10.727  15.424   6.642
 3056POPC   C3B42201  10.750  15.185   7.024
 3056POPC   C4B42202  11.000  15.325   7.361
 3057POPC   NC342203  29.847  35.223   5.326
 3057POPC   PO442204  29.739  35.854   5.611
 3057POPC   GL142205  29.823  35.415   5.794
 3057POPC   GL242206  30.100  35.129   5.761
 3057POPC   C1A42207  29.698  35.239   6.178
 3057POPC   D2A42208  29.892  35.439   6.551
 3057POPC   C3A42209  29.713  35.402   6.941
 3057POPC   C4A42210  29.655  35.080   7.255
 3057POPC   C1B42211  30.206  35.250   6.169
 3057POPC   C2B42212  30.257  35.066   6.589
 3057POPC   C3B42213  30.133  35.150   7.023
 3057POPC   C4B42214  30.114  35.017   7.466
 3058POPC   NC342215   1.617  19.538   5.533
 3058POPC   PO442216   1.009  19.802   5.450
 3058POPC   GL142217   1.303  19.919   5.828
 3058POPC   GL242218   1.036  20.067   6.041
 3058POPC   C1A42219   1.332  19.744   6.292
 3058POPC   D2A42220   1.194  19.703   6.731
 3058POPC   C3A42221   1.310  19.852   7.175
 3058POPC   C4A42222   1.360  19.558   7.537
 3058POPC   C1B42223   1.237  20.270   6.403
 3058POPC   C2B42224   1.165  20.228   6.851
 3058POPC   C3B42225   0.837  19.938   6.997
 3058POPC   C4B42226   0.950  19.504   7.189
 3059POPC   NC342227  39.473  12.537   5.464
 3059POPC   PO442228  39.301  11.896   5.154
 3059POPC   GL142229  39.338  12.042   5.595
 3059POPC   GL242230  39.683  11.969   5.683
 3059POPC   C1A42231  39.313  12.005   6.074
 3059POPC   D2A42232  39.203  11.936   6.511
 3059POPC   C3A42233  39.189  12.143   6.926
 3059POPC   C4A42234  39.376  11.897   7.276
 3059POPC   C1B42235  39.733  12.278   6.021
 3059POPC   C2B42236  39.650  12.246   6.435
 3059POPC   C3B42237  39.671  12.108   6.819
 3059POPC   C4B42238  39.713  12.254   7.206
 3060POPC   NC342239   2.231  29.400   5.083
 3060POPC   PO442240   2.416  28.913   5.445
 3060POPC   GL142241   2.025  28.961   5.727
 3060POPC   GL242242   1.741  29.205   5.606
 3060POPC   C1A42243   2.049  29.003   6.194
 3060POPC   D2A42244   2.044  29.216   6.601
 3060POPC   C3A42245   2.048  28.896   6.927
 3060POPC   C4A42246   2.302  28.753   7.287
 3060POPC   C1B42247   1.560  29.168   6.035
 3060POPC   C2B42248   1.596  29.028   6.464
 3060POPC   C3B42249   1.613  29.178   6.915
 3060POPC   C4B42250   1.979  29.400   7.088
 3061POPC   NC342251  41.316   4.291   5.095
 3061POPC   PO442252  40.655   4.421   5.186
 3061POPC   GL142253  40.671   4.314   5.665
 3061POPC   GL242254  40.892   4.495   5.900
 3061POPC   C1A42255  40.551   4.178   6.129
 3061POPC   D2A42256  40.468   4.328   6.576
 3061POPC   C3A42257  40.752   4.195   6.889
 3061POPC   C4A42258  41.057   4.055   7.192
 3061POPC   C1B42259  40.908   4.559   6.350
 3061POPC   C2B42260  41.082   4.825   6.698
 3061POPC   C3B42261  41.014   4.692   7.094
 3061POPC   C4B42262  40.704   4.494   7.305
 3062POPC   NC342263  24.543  22.319   5.548
 3062POPC   PO442264  24.520  21.650   5.564
 3062POPC   GL142265  24.390  21.914   5.846
 3062POPC   GL242266  24.723  22.007   5.957
 3062POPC   C1A42267  24.233  21.966   6.236
 3062POPC   D2A42268  24.296  22.204   6.605
 3062POPC   C3A42269  24.261  22.007   6.972
 3062POPC   C4A42270  24.279  22.272   7.277
 3062POPC   C1B42271  24.560  22.385   6.192
 3062POPC   C2B42272  24.680  22.576   6.582
 3062POPC   C3B42273  24.658  22.366   6.971
 3062POPC   C4B42274  24.782  22.225   7.428
 3063POPC   NC342275   0.589  44.923   5.021
 3063POPC   PO442276   0.692  44.466   5.508
 3063POPC   GL142277   0.415  44.680   5.823
 3063POPC   GL242278   0.471   0.034   5.983
 3063POPC   C1A42279   0.343  44.637   6.275
 3063POPC   D2A42280   0.455  44.792   6.668
 3063POPC   C3A42281   0.344  44.495   6.991
 3063POPC   C4A42282   0.179  44.514   7.392
 3063POPC   C1B42283   0.791   0.012   6.324
 3063POPC   C2B42284   0.958  44.893   6.757
 3063POPC   C3B42285   0.677  44.907   7.114
 3063POPC   C4B42286   0.247  44.997   7.156
 3064POPC   NC342287  16.702  14.924   5.306
 3064POPC   PO442288  16.299  15.565   5.434
 3064POPC   GL142289  16.739  15.307   5.668
 3064POPC   GL242290  16.839  14.933   5.794
 3064POPC   C1A42291  16.922  15.299   6.134
 3064POPC   D2A42292  16.770  15.145   6.539
 3064POPC   C3A42293  16.631  15.299   6.954
 3064POPC   C4A42294  16.875  15.216   7.325
 3064POPC   C1B42295  16.527  14.904   6.132
 3064POPC   C2B42296  16.499  14.732   6.557
 3064POPC   C3B42297  16.763  14.814   6.927
 3064POPC   C4B42298  16.501  14.865   7.286
 3065POPC   NC342299   0.132  30.596   5.378
 3065POPC   PO442300   0.647  30.935   5.527
 3065POPC   GL142301   0.411  30.690   5.817
 3065POPC   GL242302   0.667  30.495   5.927
 3065POPC   C1A42303   0.241  30.640   6.254
 3065POPC   D2A42304   0.054  30.381   6.571
 3065POPC   C3A42305   0.157  30.568   6.989
 3065POPC   C4A42306   0.270  31.024   7.041
 3065POPC   C1B42307   0.777  30.803   6.211
 3065POPC   C2B42308   0.666  31.043   6.569
 3065POPC   C3B42309   0.809  30.829   6.938
 3065POPC   C4B42310   0.592  30.678   7.272
 3066POPC   NC342311  20.351  32.967   5.613
 3066POPC   PO442312  20.297  33.462   5.159
 3066POPC   GL142313  20.481  33.444   5.681
 3066POPC   GL242314  20.762  33.239   5.836
 3066POPC   C1A42315  20.320  33.260   6.176
 3066POPC   D2A42316  20.228  32.817   6.405
 3066POPC   C3A42317  20.181  32.798   6.866
 3066POPC   C4A42318  20.462  33.036   7.136
 3066POPC   C1B42319  20.716  32.942   6.222
 3066POPC   C2B42320  20.857  32.914   6.662
 3066POPC   C3B42321  20.997  33.036   7.066
 3066POPC   C4B42322  20.868  32.828   7.425
 3067POPC   NC342323  40.791   4.843   5.291
 3067POPC   PO442324  41.070   5.341   5.617
 3067POPC   GL142325  40.816   5.024   5.879
 3067POPC   GL242326  40.527   4.848   5.732
 3067POPC   C1A42327  40.874   5.069   6.294
 3067POPC   D2A42328  40.813   5.280   6.665
 3067POPC   C3A42329  40.704   5.105   7.052
 3067POPC   C4A42330  40.685   5.262   7.469
 3067POPC   C1B42331  40.408   4.847   6.179
 3067POPC   C2B42332  40.545   4.834   6.615
 3067POPC   C3B42333  40.363   4.687   6.984
 3067POPC   C4B42334  40.370   4.878   7.393
 3068POPC   NC342335  31.664  22.017   5.302
 3068POPC   PO442336  31.126  22.456   5.503
 3068POPC   GL142337  31.411  22.211   5.760
 3068POPC   GL242338  31.761  22.324   5.700
 3068POPC   C1A42339  31.376  22.044   6.207
 3068POPC   D2A42340  31.436  22.002   6.689
 3068POPC   C3A42341  31.375  22.380   6.953
 3068POPC   C4A42342  31.128  22.396   7.327
 3068POPC   C1B42343  31.844  21.928   5.948
 3068POPC   C2B42344  31.795  21.788   6.381
 3068POPC   C3B42345  31.893  21.835   6.813
 3068POPC   C4B42346  31.689  22.024   7.163
 3069POPC   NC342347   9.263  17.336   5.261
 3069POPC   PO442348   8.789  17.801   5.322
 3069POPC   GL142349   8.793  17.573   5.709
 3069POPC   GL242350   9.144  17.666   5.756
 3069POPC   C1A42351   8.747  17.612   6.190
 3069POPC   D2A42352   8.600  17.362   6.574
 3069POPC   C3A42353   8.631  17.534   6.991
 3069POPC   C4A42354   8.911  17.802   7.202
 3069POPC   C1B42355   9.269  17.556   6.204
 3069POPC   C2B42356   9.171  17.567   6.663
 3069POPC   C3B42357   9.122  17.372   7.059
 3069POPC   C4B42358   9.289  17.117   7.371
 3070POPC   NC342359   5.984  41.072   5.382
 3070POPC   PO442360   5.709  40.505   5.641
 3070POPC   GL142361   5.994  40.768   5.806
 3070POPC   GL242362   6.244  40.538   5.734
 3070POPC   C1A42363   5.930  40.930   6.210
 3070POPC   D2A42364   5.734  40.839   6.602
 3070POPC   C3A42365   5.901  41.009   6.967
 3070POPC   C4A42366   5.997  40.824   7.355
 3070POPC   C1B42367   6.128  40.420   6.179
 3070POPC   C2B42368   6.065  40.416   6.631
 3070POPC   C3B42369   6.050  40.342   7.071
 3070POPC   C4B42370   6.299  40.434   7.442
 3071POPC   NC342371  11.685  10.363   5.651
 3071POPC   PO442372  12.090  10.755   5.197
 3071POPC   GL142373  11.998  10.770   5.711
 3071POPC   GL242374  12.284  10.627   5.959
 3071POPC   C1A42375  11.859  10.823   6.140
 3071POPC   D2A42376  12.161  10.701   6.455
 3071POPC   C3A42377  12.058  10.405   6.748
 3071POPC   C4A42378  12.003  10.477   7.185
 3071POPC   C1B42379  12.266  10.230   6.251
 3071POPC   C2B42380  12.524  10.179   6.630
 3071POPC   C3B42381  12.376  10.118   7.038
 3071POPC   C4B42382  12.396  10.272   7.436
 3072POPC   NC342383  35.673   0.347   5.365
 3072POPC   PO442384  34.956   0.272   5.433
 3072POPC   GL142385  35.314   0.208   5.729
 3072POPC   GL242386  35.324   0.565   5.783
 3072POPC   C1A42387  35.456   0.209   6.163
 3072POPC   D2A42388  35.369   0.404   6.565
 3072POPC   C3A42389  35.576   0.256   6.923
 3072POPC   C4A42390  35.412   0.154   7.306
 3072POPC   C1B42391  35.483   0.742   6.168
 3072POPC   C2B42392  35.765   0.719   6.489
 3072POPC   C3B42393  35.636   0.770   6.892
 3072POPC   C4B42394  35.344   0.649   7.193
 3073POPC   NC342395  28.391  27.588   5.386
 3073POPC   PO442396  28.641  27.100   5.627
 3073POPC   GL142397  28.551  27.448   5.875
 3073POPC   GL242398  28.225  27.555   5.913
 3073POPC   C1A42399  28.556  27.612   6.301
 3073POPC   D2A42400  28.241  27.698   6.619
 3073POPC   C3A42401  28.403  27.664   7.027
 3073POPC   C4A42402  28.728  27.932   7.180
 3073POPC   C1B42403  28.078  27.329   6.297
 3073POPC   C2B42404  28.009  27.256   6.760
 3073POPC   C3B42405  27.950  27.483   7.164
 3073POPC   C4B42406  28.191  27.748   7.511
 3074POPC   NC342407  34.181  35.345   5.352
 3074POPC   PO442408  34.846  35.258   5.348
 3074POPC   GL142409  34.863  35.441   5.778
 3074POPC   GL242410  34.678  35.166   5.889
 3074POPC   C1A42411  34.712  35.562   6.210
 3074POPC   D2A42412  34.389  35.359   6.487
 3074POPC   C3A42413  34.340  35.574   6.867
 3074POPC   C4A42414  34.735  35.664   7.024
 3074POPC   C1B42415  34.777  35.057   6.318
 3074POPC   C2B42416  34.773  35.148   6.759
 3074POPC   C3B42417  34.455  35.093   7.041
 3074POPC   C4B42418  34.443  34.911   7.454
 3075POPC   NC342419  14.987   9.500   5.447
 3075POPC   PO442420  15.304  10.115   5.446
 3075POPC   GL142421  15.208   9.824   5.788
 3075POPC   GL242422  15.355   9.500   5.835
 3075POPC   C1A42423  14.981   9.694   6.168
 3075POPC   D2A42424  15.081   9.856   6.585
 3075POPC   C3A42425  15.087   9.602   6.985
 3075POPC   C4A42426  15.129   9.759   7.424
 3075POPC   C1B42427  15.479   9.625   6.278
 3075POPC   C2B42428  15.556   9.599   6.734
 3075POPC   C3B42429  15.575   9.599   7.186
 3075POPC   C4B42430  15.813   9.469   7.538
 3076POPC   NC342431  36.963  43.036   5.363
 3076POPC   PO442432  37.180  43.639   5.554
 3076POPC   GL142433  37.000  43.490   5.888
 3076POPC   GL242434  36.810  43.226   5.810
 3076POPC   C1A42435  37.032  43.274   6.263
 3076POPC   D2A42436  36.974  43.021   6.599
 3076POPC   C3A42437  37.141  43.175   6.946
 3076POPC   C4A42438  37.097  43.026   7.348
 3076POPC   C1B42439  36.617  42.983   6.141
 3076POPC   C2B42440  36.628  42.670   6.467
 3076POPC   C3B42441  36.583  42.701   6.904
 3076POPC   C4B42442  36.670  42.790   7.344
 3077POPC   NC342443  19.743  11.035   5.379
 3077POPC   PO442444  19.908  11.650   5.362
 3077POPC   GL142445  19.797  11.380   5.746
 3077POPC   GL242446  20.126  11.248   5.714
 3077POPC   C1A42447  19.869  11.163   6.179
 3077POPC   D2A42448  20.124  11.204   6.563
 3077POPC   C3A42449  19.929  11.170   6.971
 3077POPC   C4A42450  19.666  11.267   7.295
 3077POPC   C1B42451  20.177  11.534   6.046
 3077POPC   C2B42452  20.133  11.698   6.432
 3077POPC   C3B42453  20.140  11.640   6.860
 3077POPC   C4B42454  19.963  11.662   7.249
 3078POPC   NC342455  28.135  23.477   5.535
 3078POPC   PO442456  28.606  23.906   5.680
 3078POPC   GL142457  28.694  23.593   5.985
 3078POPC   GL242458  28.584  23.294   5.798
 3078POPC   C1A42459  28.566  23.661   6.420
 3078POPC   D2A42460  28.192  23.716   6.708
 3078POPC   C3A42461  28.335  23.788   7.133
 3078POPC   C4A42462  28.206  23.813   7.573
 3078POPC   C1B42463  28.293  23.276   6.172
 3078POPC   C2B42464  28.451  23.198   6.593
 3078POPC   C3B42465  28.576  23.357   7.014
 3078POPC   C4B42466  28.563  23.475   7.477
 3079POPC   NC342467   0.581   8.352   5.272
 3079POPC   PO442468   0.241   7.817   5.061
 3079POPC   GL142469   0.365   8.029   5.592
 3079POPC   GL242470   0.666   8.286   5.761
 3079POPC   C1A42471   0.430   8.004   6.115
 3079POPC   D2A42472   0.641   8.072   6.538
 3079POPC   C3A42473   0.450   7.984   6.951
 3079POPC   C4A42474   0.013   7.867   7.043
 3079POPC   C1B42475   0.767   8.544   6.164
 3079POPC   C2B42476   0.619   8.583   6.606
 3079POPC   C3B42477   0.340   8.486   6.956
 3079POPC   C4B42478   0.453   8.396   7.394
 3080POPC   NC342479  33.658  27.306   5.037
 3080POPC   PO442480  33.895  26.688   5.281
 3080POPC   GL142481  33.773  26.720   5.727
 3080POPC   GL242482  33.816  27.086   5.784
 3080POPC   C1A42483  33.743  26.785   6.203
 3080POPC   D2A42484  33.526  26.747   6.616
 3080POPC   C3A42485  33.751  26.612   6.985
 3080POPC   C4A42486  33.605  26.765   7.364
 3080POPC   C1B42487  34.136  27.162   6.096
 3080POPC   C2B42488  34.013  27.273   6.482
 3080POPC   C3B42489  33.912  27.060   6.833
 3080POPC   C4B42490  34.122  26.924   7.199
 3081POPC   NC342491  42.401  41.956   5.282
 3081POPC   PO442492  42.168  42.655   5.306
 3081POPC   GL142493  42.204  42.402   5.722
 3081POPC   GL242494  42.555  42.346   5.790
 3081POPC   C1A42495  42.170  42.211   6.154
 3081POPC   D2A42496  42.312  42.053   6.567
 3081POPC   C3A42497  42.191  42.281   6.962
 3081POPC   C4A42498  42.490  42.571   7.130
 3081POPC   C1B42499  42.623  42.510   6.227
 3081POPC   C2B42500  42.724  42.426   6.662
 3081POPC   C3B42501  42.679  42.089   6.950
 3081POPC   C4B42502  42.572  42.084   7.382
 3082POPC   NC342503  30.202  25.165   5.463
 3082POPC   PO442504  29.643  25.579   5.580
 3082POPC   GL142505  29.796  25.264   5.800
 3082POPC   GL242506  29.515  25.064   5.736
 3082POPC   C1A42507  30.026  25.299   6.189
 3082POPC   D2A42508  30.101  25.552   6.574
 3082POPC   C3A42509  30.119  25.394   6.976
 3082POPC   C4A42510  30.006  25.233   7.359
 3082POPC   C1B42511  29.639  24.918   6.164
 3082POPC   C2B42512  29.754  25.086   6.575
 3082POPC   C3B42513  29.760  24.969   6.991
 3082POPC   C4B42514  29.487  25.034   7.349
 3083POPC   NC342515   6.536  19.547   5.483
 3083POPC   PO442516   6.840  20.170   5.464
 3083POPC   GL142517   6.710  19.909   5.806
 3083POPC   GL242518   6.991  19.740   5.975
 3083POPC   C1A42519   6.522  19.690   6.165
 3083POPC   D2A42520   6.496  19.882   6.551
 3083POPC   C3A42521   6.755  19.786   6.853
 3083POPC   C4A42522   6.478  19.709   7.180
 3083POPC   C1B42523   6.918  20.047   6.311
 3083POPC   C2B42524   6.768  20.288   6.682
 3083POPC   C3B42525   6.758  20.210   7.140
 3083POPC   C4B42526   6.917  20.206   7.586
 3084POPC   NC342527  29.240  25.433   5.410
 3084POPC   PO442528  28.839  24.870   5.556
 3084POPC   GL142529  29.044  25.220   5.847
 3084POPC   GL242530  28.992  25.598   5.818
 3084POPC   C1A42531  29.376  25.373   6.171
 3084POPC   D2A42532  29.552  25.576   6.565
 3084POPC   C3A42533  29.444  25.387   6.958
 3084POPC   C4A42534  29.012  25.233   7.127
 3084POPC   C1B42535  28.933  25.635   6.236
 3084POPC   C2B42536  29.041  25.465   6.604
 3084POPC   C3B42537  28.927  25.698   6.923
 3084POPC   C4B42538  28.696  25.636   7.245
 3085POPC   NC342539  22.732  39.314   5.126
 3085POPC   PO442540  22.147  39.147   5.400
 3085POPC   GL142541  21.951  39.182   5.815
 3085POPC   GL242542  22.275  39.263   5.912
 3085POPC   C1A42543  21.891  39.397   6.229
 3085POPC   D2A42544  21.909  39.580   6.643
 3085POPC   C3A42545  22.046  39.370   7.010
 3085POPC   C4A42546  22.265  39.199   7.392
 3085POPC   C1B42547  22.378  39.570   6.214
 3085POPC   C2B42548  22.432  39.518   6.641
 3085POPC   C3B42549  22.567  39.306   6.999
 3085POPC   C4B42550  22.676  39.500   7.391
 3086POPC   NC342551  18.778  44.970   5.478
 3086POPC   PO442552  19.164   0.585   5.446
 3086POPC   GL142553  19.316   0.362   5.826
 3086POPC   GL242554  19.265   0.000   5.774
 3086POPC   C1A42555  19.399   0.316   6.262
 3086POPC   D2A42556  19.159   0.414   6.620
 3086POPC   C3A42557  19.292   0.374   7.031
 3086POPC   C4A42558  19.039   0.607   7.311
 3086POPC   C1B42559  18.963   0.069   6.115
 3086POPC   C2B42560  18.845   0.007   6.537
 3086POPC   C3B42561  19.013  44.935   6.926
 3086POPC   C4B42562  18.954   0.098   7.317
 3087POPC   NC342563  22.629   9.914   5.494
 3087POPC   PO442564  23.158   9.486   5.484
 3087POPC   GL142565  22.922   9.681   5.846
 3087POPC   GL242566  23.065  10.005   5.884
 3087POPC   C1A42567  22.753   9.958   6.253
 3087POPC   D2A42568  22.520   9.915   6.627
 3087POPC   C3A42569  22.716   9.597   6.871
 3087POPC   C4A42570  22.859   9.957   7.086
 3087POPC   C1B42571  23.202   9.693   6.264
 3087POPC   C2B42572  23.175   9.446   6.645
 3087POPC   C3B42573  23.192   9.566   7.084
 3087POPC   C4B42574  23.277   9.635   7.549
 3088POPC   NC342575   6.244  33.180   5.483
 3088POPC   PO442576   5.652  32.912   5.370
 3088POPC   GL142577   5.880  32.945   5.770
 3088POPC   GL242578   5.871  33.297   5.849
 3088POPC   C1A42579   5.918  32.862   6.234
 3088POPC   D2A42580   6.117  32.782   6.668
 3088POPC   C3A42581   5.875  32.918   7.037
 3088POPC   C4A42582   5.916  33.324   7.244
 3088POPC   C1B42583   5.799  33.388   6.304
 3088POPC   C2B42584   5.661  33.292   6.741
 3088POPC   C3B42585   5.430  33.295   7.152
 3088POPC   C4B42586   5.568  33.275   7.626
 3089POPC   NC342587   1.858  27.009   5.427
 3089POPC   PO442588   2.383  27.300   5.730
 3089POPC   GL142589   2.324  26.978   5.934
 3089POPC   GL242590   2.050  26.785   5.842
 3089POPC   C1A42591   2.309  26.948   6.360
 3089POPC   D2A42592   1.986  26.781   6.571
 3089POPC   C3A42593   2.127  26.766   6.968
 3089POPC   C4A42594   1.993  26.630   7.327
 3089POPC   C1B42595   1.841  27.044   6.126
 3089POPC   C2B42596   1.643  27.159   6.491
 3089POPC   C3B42597   1.769  27.121   6.893
 3089POPC   C4B42598   1.673  27.071   7.307
 3090POPC   NC342599   1.714  11.236   5.424
 3090POPC   PO442600   0.980  11.103   5.319
 3090POPC   GL142601   1.091  11.377   5.723
 3090POPC   GL242602   1.402  11.542   5.720
 3090POPC   C1A42603   1.242  11.283   6.180
 3090POPC   D2A42604   1.326  11.094   6.612
 3090POPC   C3A42605   1.093  11.198   6.989
 3090POPC   C4A42606   1.142  11.034   7.412
 3090POPC   C1B42607   1.566  11.684   6.114
 3090POPC   C2B42608   1.483  11.602   6.511
 3090POPC   C3B42609   1.512  11.502   6.904
 3090POPC   C4B42610   1.379  11.497   7.297
 3091POPC   NC342611  27.936  14.271   5.279
 3091POPC   PO442612  27.710  14.625   5.813
 3091POPC   GL142613  27.996  14.293   5.857
 3091POPC   GL242614  27.776  14.052   5.714
 3091POPC   C1A42615  28.073  14.231   6.303
 3091POPC   D2A42616  27.731  14.334   6.595
 3091POPC   C3A42617  27.746  14.455   7.026
 3091POPC   C4A42618  27.621  14.377   7.468
 3091POPC   C1B42619  27.493  14.056   6.117
 3091POPC   C2B42620  27.266  14.154   6.512
 3091POPC   C3B42621  27.365  14.127   6.974
 3091POPC   C4B42622  27.206  14.058   7.415
 3092POPC   NC342623  30.372  42.117   5.346
 3092POPC   PO442624  29.827  42.558   5.393
 3092POPC   GL142625  29.812  42.294   5.754
 3092POPC   GL242626  30.125  42.136   5.811
 3092POPC   C1A42627  29.805  42.309   6.208
 3092POPC   D2A42628  29.809  42.106   6.573
 3092POPC   C3A42629  29.692  42.339   6.915
 3092POPC   C4A42630  29.648  42.136   7.287
 3092POPC   C1B42631  30.175  41.923   6.191
 3092POPC   C2B42632  30.285  41.944   6.624
 3092POPC   C3B42633  30.104  42.059   7.025
 3092POPC   C4B42634  30.078  42.408   7.279
 3093POPC   NC342635  25.380  18.529   5.442
 3093POPC   PO442636  25.062  17.956   5.394
 3093POPC   GL142637  25.092  18.163   5.823
 3093POPC   GL242638  25.355  18.404   5.940
 3093POPC   C1A42639  24.978  18.258   6.241
 3093POPC   D2A42640  25.305  18.353   6.506
 3093POPC   C3A42641  25.100  18.243   6.889
 3093POPC   C4A42642  24.970  18.196   7.332
 3093POPC   C1B42643  25.565  18.737   6.206
 3093POPC   C2B42644  25.605  18.809   6.644
 3093POPC   C3B42645  25.543  18.490   6.943
 3093POPC   C4B42646  25.374  18.515   7.323
 3094POPC   NC342647  24.606  40.692   5.370
 3094POPC   PO442648  24.003  40.923   5.386
 3094POPC   GL142649  24.233  40.975   5.796
 3094POPC   GL242650  24.590  40.901   5.846
 3094POPC   C1A42651  24.300  41.147   6.196
 3094POPC   D2A42652  24.429  41.015   6.599
 3094POPC   C3A42653  24.165  41.192   6.931
 3094POPC   C4A42654  24.226  40.940   7.283
 3094POPC   C1B42655  24.829  40.851   6.260
 3094POPC   C2B42656  24.954  40.909   6.714
 3094POPC   C3B42657  24.895  40.659   7.098
 3094POPC   C4B42658  25.025  40.692   7.562
 3095POPC   NC342659   4.330  29.528   5.510
 3095POPC   PO442660   4.290  30.187   5.582
 3095POPC   GL142661   4.131  29.876   5.892
 3095POPC   GL242662   3.904  29.558   5.808
 3095POPC   C1A42663   4.286  29.942   6.321
 3095POPC   D2A42664   4.447  30.204   6.679
 3095POPC   C3A42665   4.211  30.213   7.084
 3095POPC   C4A42666   4.083  29.946   7.402
 3095POPC   C1B42667   4.126  29.431   6.207
 3095POPC   C2B42668   4.140  29.535   6.673
 3095POPC   C3B42669   4.398  29.743   6.999
 3095POPC   C4B42670   4.598  29.535   7.384
 3096POPC   NC342671  26.088   8.591   5.375
 3096POPC   PO442672  25.819   9.214   5.189
 3096POPC   GL142673  25.918   8.990   5.658
 3096POPC   GL242674  26.244   9.040   5.833
 3096POPC   C1A42675  25.831   9.029   6.155
 3096POPC   D2A42676  25.917   9.211   6.598
 3096POPC   C3A42677  25.926   8.888   6.918
 3096POPC   C4A42678  25.727   8.744   7.310
 3096POPC   C1B42679  26.288   8.882   6.290
 3096POPC   C2B42680  26.399   9.051   6.705
 3096POPC   C3B42681  26.363   8.996   7.146
 3096POPC   C4B42682  26.221   8.599   7.272
 3097POPC   NC342683  36.458  30.809   5.719
 3097POPC   PO442684  36.234  30.464   5.193
 3097POPC   GL142685  36.061  30.520   5.681
 3097POPC   GL242686  35.842  30.804   5.628
 3097POPC   C1A42687  36.238  30.573   6.225
 3097POPC   D2A42688  36.459  30.833   6.540
 3097POPC   C3A42689  36.387  30.716   6.962
 3097POPC   C4A42690  36.472  30.451   7.283
 3097POPC   C1B42691  35.793  30.782   6.075
 3097POPC   C2B42692  36.014  31.045   6.393
 3097POPC   C3B42693  36.065  31.095   6.835
 3097POPC   C4B42694  35.779  30.872   7.077
 3098POPC   NC342695   5.367  12.744   5.514
 3098POPC   PO442696   4.842  13.183   5.559
 3098POPC   GL142697   4.979  12.835   5.833
 3098POPC   GL242698   4.788  12.549   5.815
 3098POPC   C1A42699   5.261  12.865   6.196
 3098POPC   D2A42700   5.172  13.094   6.588
 3098POPC   C3A42701   5.160  12.891   6.970
 3098POPC   C4A42702   5.372  12.822   7.345
 3098POPC   C1B42703   4.976  12.434   6.204
 3098POPC   C2B42704   5.013  12.586   6.581
 3098POPC   C3B42705   4.788  12.536   6.930
 3098POPC   C4B42706   4.970  12.523   7.277
 3099POPC   NC342707  43.039   2.347   5.536
 3099POPC   PO442708  43.291   2.978   5.315
 3099POPC   GL142709  43.196   2.955   5.765
 3099POPC   GL242710  43.449   3.195   5.854
 3099POPC   C1A42711  43.092   2.722   6.188
 3099POPC   D2A42712  42.862   2.699   6.642
 3099POPC   C3A42713  42.894   2.653   7.131
 3099POPC   C4A42714  43.153   2.440   7.470
 3099POPC   C1B42715  43.555   2.972   6.232
 3099POPC   C2B42716  43.366   2.810   6.621
 3099POPC   C3B42717  43.345   2.898   7.046
 3099POPC   C4B42718  43.425   3.241   7.301
 3100POPC   NC342719  25.263   8.031   5.305
 3100POPC   PO442720  25.121   8.673   5.455
 3100POPC   GL142721  25.119   8.324   5.730
 3100POPC   GL242722  25.407   8.105   5.802
 3100POPC   C1A42723  24.998   8.167   6.139
 3100POPC   D2A42724  25.243   8.166   6.485
 3100POPC   C3A42725  25.204   8.149   6.878
 3100POPC   C4A42726  24.903   8.188   7.165
 3100POPC   C1B42727  25.641   8.181   6.185
 3100POPC   C2B42728  25.692   8.001   6.621
 3100POPC   C3B42729  25.626   7.849   6.990
 3100POPC   C4B42730  25.371   7.998   7.319
 3101POPC   NC342731  33.372   2.704   5.344
 3101POPC   PO442732  32.765   2.932   5.330
 3101POPC   GL142733  32.985   2.727   5.708
 3101POPC   GL242734  33.089   2.354   5.651
 3101POPC   C1A42735  33.157   2.880   6.150
 3101POPC   D2A42736  33.181   3.227   6.510
 3101POPC   C3A42737  33.095   3.133   6.977
 3101POPC   C4A42738  32.834   2.806   7.207
 3101POPC   C1B42739  32.872   2.371   6.085
 3101POPC   C2B42740  32.957   2.396   6.558
 3101POPC   C3B42741  32.799   2.282   6.989
 3101POPC   C4B42742  32.772   2.321   7.419
 3102POPC   NC342743  44.300  30.696   5.313
 3102POPC   PO442744  44.942  31.100   5.356
 3102POPC   GL142745  44.912  30.877   5.743
 3102POPC   GL242746  44.620  30.643   5.724
 3102POPC   C1A42747  44.816  30.927   6.157
 3102POPC   D2A42748  44.692  30.741   6.520
 3102POPC   C3A42749  44.761  30.897   6.913
 3102POPC   C4A42750  44.682  30.588   7.223
 3102POPC   C1B42751  44.383  30.629   6.122
 3102POPC   C2B42752  44.171  30.838   6.489
 3102POPC   C3B42753  44.230  30.899   6.938
 3102POPC   C4B42754  44.094  31.171   7.275
 3103POPC   NC342755  32.582  19.922   5.414
 3103POPC   PO442756  32.376  19.310   5.520
 3103POPC   GL142757  32.326  19.712   5.798
 3103POPC   GL242758  32.566  19.992   5.906
 3103POPC   C1A42759  32.163  19.763   6.229
 3103POPC   D2A42760  32.169  19.449   6.570
 3103POPC   C3A42761  32.365  19.522   6.953
 3103POPC   C4A42762  32.514  19.828   7.230
 3103POPC   C1B42763  32.550  20.092   6.343
 3103POPC   C2B42764  32.306  19.986   6.740
 3103POPC   C3B42765  32.051  19.938   7.127
 3103POPC   C4B42766  32.063  20.061   7.580
 3104POPC   NC342767  16.647  44.494   5.069
 3104POPC   PO442768  16.870   0.074   5.298
 3104POPC   GL142769  16.881  44.784   5.734
 3104POPC   GL242770  16.575  44.647   5.938
 3104POPC   C1A42771  17.008  44.820   6.196
 3104POPC   D2A42772  17.342  44.880   6.516
 3104POPC   C3A42773  17.237  44.694   6.896
 3104POPC   C4A42774  17.114  44.831   7.288
 3104POPC   C1B42775  16.604  44.594   6.407
 3104POPC   C2B42776  16.771  44.889   6.731
 3104POPC   C3B42777  16.623  44.837   7.138
 3104POPC   C4B42778  16.431  44.432   7.189
 3105POPC   NC342779  15.373   1.810   5.293
 3105POPC   PO442780  14.892   2.292   5.372
 3105POPC   GL142781  15.005   1.982   5.756
 3105POPC   GL242782  15.295   1.772   5.814
 3105POPC   C1A42783  14.914   1.790   6.179
 3105POPC   D2A42784  14.850   1.907   6.632
 3105POPC   C3A42785  15.184   1.944   6.937
 3105POPC   C4A42786  15.103   1.714   7.287
 3105POPC   C1B42787  15.469   1.598   6.220
 3105POPC   C2B42788  15.498   1.637   6.683
 3105POPC   C3B42789  15.599   1.621   7.136
 3105POPC   C4B42790  15.525   1.866   7.517
 3106POPC   NC342791  44.465   7.032   5.595
 3106POPC   PO442792  44.627   7.566   5.134
 3106POPC   GL142793  44.545   7.550   5.665
 3106POPC   GL242794  44.716   7.299   5.937
 3106POPC   C1A42795  44.573   7.722   6.159
 3106POPC   D2A42796  44.812   7.447   6.456
 3106POPC   C3A42797  44.808   7.386   6.918
 3106POPC   C4A42798  44.663   7.582   7.302
 3106POPC   C1B42799  44.334   7.284   6.234
 3106POPC   C2B42800  44.259   7.366   6.691
 3106POPC   C3B42801  44.341   7.201   7.132
 3106POPC   C4B42802  44.372   7.229   7.597
 3107POPC   NC342803   5.692  16.310   5.435
 3107POPC   PO442804   5.934  15.727   5.193
 3107POPC   GL142805   6.057  15.742   5.692
 3107POPC   GL242806   5.918  16.079   5.850
 3107POPC   C1A42807   6.248  15.836   6.137
 3107POPC   D2A42808   6.048  15.919   6.555
 3107POPC   C3A42809   6.128  15.672   6.934
 3107POPC   C4A42810   6.043  15.747   7.349
 3107POPC   C1B42811   5.644  15.952   6.216
 3107POPC   C2B42812   5.474  16.018   6.618
 3107POPC   C3B42813   5.685  15.969   6.974
 3107POPC   C4B42814   5.508  15.912   7.329
 3108POPC   NC342815   4.768  44.938   5.329
 3108POPC   PO442816   5.480  44.667   5.374
 3108POPC   GL142817   5.480  44.490   5.812
 3108POPC   GL242818   5.177  44.700   5.861
 3108POPC   C1A42819   5.309  44.411   6.247
 3108POPC   D2A42820   4.988  44.655   6.443
 3108POPC   C3A42821   4.905  44.701   6.894
 3108POPC   C4A42822   4.994  44.639   7.326
 3108POPC   C1B42823   5.423  44.901   6.244
 3108POPC   C2B42824   5.434  44.780   6.711
 3108POPC   C3B42825   5.478  44.736   7.191
 3108POPC   C4B42826   5.366  44.861   7.642
 3109POPC   NC342827  21.106   2.263   5.383
 3109POPC   PO442828  21.449   1.653   5.555
 3109POPC   GL142829  21.334   1.844   5.931
 3109POPC   GL242830  21.309   2.190   5.849
 3109POPC   C1A42831  21.119   1.946   6.324
 3109POPC   D2A42832  21.305   2.104   6.709
 3109POPC   C3A42833  21.374   1.790   7.019
 3109POPC   C4A42834  21.525   1.821   7.456
 3109POPC   C1B42835  21.039   2.403   6.114
 3109POPC   C2B42836  20.868   2.367   6.575
 3109POPC   C3B42837  20.965   2.389   7.023
 3109POPC   C4B42838  21.362   2.320   7.187
 3110POPC   NC342839  37.823  20.616   4.973
 3110POPC   PO442840  37.692  20.309   5.622
 3110POPC   GL142841  37.530  20.543   5.886
 3110POPC   GL242842  37.467  20.884   5.907
 3110POPC   C1A42843  37.726  20.621   6.280
 3110POPC   D2A42844  37.766  20.326   6.635
 3110POPC   C3A42845  37.534  20.311   7.028
 3110POPC   C4A42846  37.534  20.259   7.501
 3110POPC   C1B42847  37.215  20.701   6.234
 3110POPC   C2B42848  37.387  20.692   6.649
 3110POPC   C3B42849  37.679  20.816   6.970
 3110POPC   C4B42850  37.463  20.739   7.343
 3111POPC   NC342851  43.616  28.480   5.266
 3111POPC   PO442852  43.537  27.951   5.363
 3111POPC   GL142853  43.447  28.300   5.727
 3111POPC   GL242854  43.559  28.664   5.783
 3111POPC   C1A42855  43.215  28.447   6.124
 3111POPC   D2A42856  43.057  28.359   6.551
 3111POPC   C3A42857  43.197  28.509   6.977
 3111POPC   C4A42858  43.139  28.381   7.433
 3111POPC   C1B42859  43.687  28.570   6.256
 3111POPC   C2B42860  43.587  28.353   6.658
 3111POPC   C3B42861  43.597  28.228   7.114
 3111POPC   C4B42862  43.641  28.518   7.447
 3112POPC   NC342863   4.877  37.182   5.371
 3112POPC   PO442864   5.271  37.661   5.458
 3112POPC   GL142865   5.067  37.801   5.840
 3112POPC   GL242866   4.720  37.759   5.797
 3112POPC   C1A42867   5.120  37.660   6.279
 3112POPC   D2A42868   5.329  37.555   6.680
 3112POPC   C3A42869   5.223  37.761   7.075
 3112POPC   C4A42870   4.992  37.867   7.426
 3112POPC   C1B42871   4.718  37.400   6.102
 3112POPC   C2B42872   4.879  37.274   6.525
 3112POPC   C3B42873   4.832  37.522   6.875
 3112POPC   C4B42874   4.814  37.414   7.279
 3113POPC   NC342875  20.298   3.644   5.128
 3113POPC   PO442876  20.842   3.129   5.347
 3113POPC   GL142877  20.813   3.344   5.813
 3113POPC   GL242878  20.880   3.685   5.889
 3113POPC   C1A42879  20.509   3.353   6.193
 3113POPC   D2A42880  20.336   3.381   6.621
 3113POPC   C3A42881  20.599   3.310   6.939
 3113POPC   C4A42882  20.423   3.186   7.303
 3113POPC   C1B42883  20.727   3.779   6.338
 3113POPC   C2B42884  20.854   3.759   6.783
 3113POPC   C3B42885  20.719   3.719   7.209
 3113POPC   C4B42886  20.283   3.685   7.267
 3114POPC   NC342887   8.760  32.502   5.447
 3114POPC   PO442888   8.958  31.884   5.416
 3114POPC   GL142889   9.018  32.172   5.772
 3114POPC   GL242890   9.208  32.498   5.793
 3114POPC   C1A42891   8.958  32.216   6.217
 3114POPC   D2A42892   8.741  31.975   6.528
 3114POPC   C3A42893   8.834  32.154   6.913
 3114POPC   C4A42894   8.853  32.129   7.344
 3114POPC   C1B42895   9.114  32.698   6.231
 3114POPC   C2B42896   8.856  32.642   6.627
 3114POPC   C3B42897   9.048  32.676   7.066
 3114POPC   C4B42898   8.974  32.693   7.542
 3115POPC   NC342899  12.235   0.656   5.374
 3115POPC   PO442900  11.652   0.330   5.201
 3115POPC   GL142901  11.836   0.455   5.669
 3115POPC   GL242902  12.178   0.300   5.742
 3115POPC   C1A42903  11.926   0.656   6.154
 3115POPC   D2A42904  12.043   0.755   6.630
 3115POPC   C3A42905  11.889   0.847   7.088
 3115POPC   C4A42906  11.920   0.593   7.466
 3115POPC   C1B42907  12.419   0.566   6.031
 3115POPC   C2B42908  12.478   0.499   6.491
 3115POPC   C3B42909  12.310   0.341   6.882
 3115POPC   C4B42910  12.519   0.292   7.265
 3116POPC   NC342911  25.912  24.148   5.514
 3116POPC   PO442912  26.392  24.624   5.445
 3116POPC   GL142913  26.116  24.510   5.796
 3116POPC   GL242914  25.758  24.587   5.725
 3116POPC   C1A42915  26.106  24.383   6.239
 3116POPC   D2A42916  26.358  24.547   6.562
 3116POPC   C3A42917  26.240  24.539   6.961
 3116POPC   C4A42918  26.298  24.792   7.274
 3116POPC   C1B42919  25.613  24.501   6.120
 3116POPC   C2B42920  25.605  24.290   6.504
 3116POPC   C3B42921  25.756  24.466   6.857
 3116POPC   C4B42922  25.795  24.528   7.249
 3117POPC   NC342923  41.775  19.646   5.396
 3117POPC   PO442924  41.474  20.091   5.283
 3117POPC   GL142925  41.593  20.051   5.757
 3117POPC   GL242926  41.874  19.833   5.888
 3117POPC   C1A42927  41.524  20.082   6.246
 3117POPC   D2A42928  41.442  19.835   6.651
 3117POPC   C3A42929  41.510  19.978   7.091
 3117POPC   C4A42930  41.628  20.230   7.469
 3117POPC   C1B42931  41.866  19.696   6.350
 3117POPC   C2B42932  41.736  19.422   6.705
 3117POPC   C3B42933  41.648  19.464   7.152
 3117POPC   C4B42934  41.824  19.387   7.580
 3118POPC   NC342935   6.795   8.431   5.282
 3118POPC   PO442936   6.883   7.901   5.294
 3118POPC   GL142937   6.613   8.105   5.680
 3118POPC   GL242938   6.513   8.478   5.734
 3118POPC   C1A42939   6.527   8.124   6.155
 3118POPC   D2A42940   6.503   8.297   6.598
 3118POPC   C3A42941   6.676   8.115   6.994
 3118POPC   C4A42942   6.922   8.027   7.380
 3118POPC   C1B42943   6.597   8.632   6.173
 3118POPC   C2B42944   6.589   8.792   6.617
 3118POPC   C3B42945   6.544   8.625   7.051
 3118POPC   C4B42946   6.396   8.742   7.478
 3119POPC   NC342947  26.824  22.639   5.271
 3119POPC   PO442948  26.555  22.022   5.391
 3119POPC   GL142949  26.831  22.217   5.684
 3119POPC   GL242950  27.173  22.388   5.718
 3119POPC   C1A42951  26.947  22.011   6.071
 3119POPC   D2A42952  27.067  22.074   6.510
 3119POPC   C3A42953  26.842  22.172   6.884
 3119POPC   C4A42954  27.090  22.155   7.275
 3119POPC   C1B42955  26.905  22.518   6.089
 3119POPC   C2B42956  26.779  22.620   6.498
 3119POPC   C3B42957  26.752  22.667   6.919
 3119POPC   C4B42958  26.959  22.666   7.283
 3120POPC   NC342959  23.945  22.681   5.369
 3120POPC   PO442960  23.283  22.836   5.392
 3120POPC   GL142961  23.560  22.953   5.731
 3120POPC   GL242962  23.830  23.144   5.619
 3120POPC   C1A42963  23.670  22.759   6.135
 3120POPC   D2A42964  23.507  22.718   6.545
 3120POPC   C3A42965  23.625  22.859   6.940
 3120POPC   C4A42966  23.483  23.068   7.290
 3120POPC   C1B42967  23.890  23.200   6.071
 3120POPC   C2B42968  23.881  23.102   6.523
 3120POPC   C3B42969  24.009  23.197   6.964
 3120POPC   C4B42970  23.950  23.275   7.396
 3121POPC   NC342971   4.490  16.715   5.505
 3121POPC   PO442972   3.964  17.109   5.513
 3121POPC   GL142973   4.166  16.914   5.839
 3121POPC   GL242974   4.123  16.568   5.830
 3121POPC   C1A42975   4.354  16.765   6.241
 3121POPC   D2A42976   4.212  17.006   6.583
 3121POPC   C3A42977   4.396  16.916   6.974
 3121POPC   C4A42978   4.541  16.526   7.186
 3121POPC   C1B42979   3.839  16.757   6.176
 3121POPC   C2B42980   3.683  16.853   6.582
 3121POPC   C3B42981   3.874  16.859   6.977
 3121POPC   C4B42982   4.116  16.737   7.349
 3122POPC   NC342983  23.840  43.563   5.279
 3122POPC   PO442984  23.566  44.137   5.388
 3122POPC   GL142985  23.794  43.829   5.712
 3122POPC   GL242986  23.528  43.684   5.915
 3122POPC   C1A42987  23.942  43.797   6.168
 3122POPC   D2A42988  23.737  43.707   6.590
 3122POPC   C3A42989  23.924  43.801   7.008
 3122POPC   C4A42990  23.867  44.020   7.409
 3122POPC   C1B42991  23.286  43.465   6.244
 3122POPC   C2B42992  23.348  43.369   6.691
 3122POPC   C3B42993  23.445  43.614   7.054
 3122POPC   C4B42994  23.352  43.581   7.516
 3123POPC   NC342995  40.337  42.946   5.433
 3123POPC   PO442996  39.774  42.616   5.438
 3123POPC   GL142997  39.931  42.919   5.771
 3123POPC   GL242998  39.995  43.288   5.672
 3123POPC   C1A42999  40.010  42.877   6.235
 3123POPC   D2A43000  39.780  42.744   6.602
 3123POPC   C3A43001  39.947  42.884   6.973
 3123POPC   C4A43002  40.303  42.878   7.262
 3123POPC   C1B43003  39.876  43.360   6.105
 3123POPC   C2B43004  39.703  43.243   6.496
 3123POPC   C3B43005  39.702  43.368   6.908
 3123POPC   C4B43006  39.975  43.301   7.253
 3124POPC   NC343007  33.988   2.220   5.377
 3124POPC   PO443008  34.041   1.634   5.465
 3124POPC   GL143009  33.868   1.799   5.870
 3124POPC   GL243010  34.060   2.100   5.872
 3124POPC   C1A43011  33.681   1.715   6.321
 3124POPC   D2A43012  33.585   1.527   6.761
 3124POPC   C3A43013  33.577   1.795   7.188
 3124POPC   C4A43014  33.374   1.727   7.647
 3124POPC   C1B43015  33.760   2.204   6.193
 3124POPC   C2B43016  33.678   2.156   6.626
 3124POPC   C3B43017  33.809   2.280   7.043
 3124POPC   C4B43018  34.084   2.321   7.402
 3125POPC   NC343019  31.811  40.401   5.596
 3125POPC   PO443020  31.861  41.024   5.315
 3125POPC   GL143021  31.706  41.007   5.771
 3125POPC   GL243022  31.452  40.729   5.790
 3125POPC   C1A43023  31.443  41.047   6.194
 3125POPC   D2A43024  31.347  41.170   6.631
 3125POPC   C3A43025  31.355  40.877   7.004
 3125POPC   C4A43026  31.213  40.408   7.029
 3125POPC   C1B43027  31.391  40.528   6.208
 3125POPC   C2B43028  31.532  40.577   6.616
 3125POPC   C3B43029  31.716  40.499   6.983
 3125POPC   C4B43030  32.077  40.344   7.142
 3126POPC   NC343031   7.642  17.187   5.520
 3126POPC   PO443032   7.204  17.809   5.401
 3126POPC   GL143033   7.162  17.619   5.797
 3126POPC   GL243034   7.484  17.526   5.930
 3126POPC   C1A43035   7.050  17.485   6.225
 3126POPC   D2A43036   7.257  17.506   6.609
 3126POPC   C3A43037   6.989  17.498   6.946
 3126POPC   C4A43038   7.294  17.557   7.253
 3126POPC   C1B43039   7.686  17.308   6.291
 3126POPC   C2B43040   7.758  17.384   6.741
 3126POPC   C3B43041   7.642  17.790   6.905
 3126POPC   C4B43042   7.548  18.051   7.253
 3127POPC   NC343043  36.308  27.996   5.519
 3127POPC   PO443044  35.785  28.415   5.453
 3127POPC   GL143045  36.118  28.452   5.761
 3127POPC   GL243046  36.044  28.138   5.909
 3127POPC   C1A43047  36.282  28.512   6.193
 3127POPC   D2A43048  36.217  28.389   6.636
 3127POPC   C3A43049  36.391  28.455   7.032
 3127POPC   C4A43050  36.124  28.542   7.359
 3127POPC   C1B43051  36.258  28.010   6.287
 3127POPC   C2B43052  36.109  27.905   6.699
 3127POPC   C3B43053  35.971  28.097   7.098
 3127POPC   C4B43054  36.070  28.063   7.573
 3128POPC   NC343055  13.351  12.248   5.431
 3128POPC   PO443056  12.732  12.035   5.327
 3128POPC   GL143057  12.824  12.248   5.750
 3128POPC   GL243058  13.162  12.124   5.891
 3128POPC   C1A43059  12.717  12.156   6.211
 3128POPC   D2A43060  12.767  11.827   6.558
 3128POPC   C3A43061  12.613  11.929   6.994
 3128POPC   C4A43062  12.825  12.117   7.416
 3128POPC   C1B43063  13.137  11.751   6.170
 3128POPC   C2B43064  13.292  11.665   6.604
 3128POPC   C3B43065  13.099  11.825   6.982
 3128POPC   C4B43066  12.889  11.636   7.341
 3129POPC   NC343067  16.745  38.033   5.382
 3129POPC   PO443068  16.610  37.411   5.536
 3129POPC   GL143069  16.798  37.475   5.922
 3129POPC   GL243070  16.848  37.776   5.812
 3129POPC   C1A43071  16.695  37.518   6.375
 3129POPC   D2A43072  16.546  37.840   6.634
 3129POPC   C3A43073  16.554  37.727   7.063
 3129POPC   C4A43074  16.595  37.483   7.459
 3129POPC   C1B43075  16.914  37.921   6.181
 3129POPC   C2B43076  17.066  37.817   6.573
 3129POPC   C3B43077  16.995  37.987   6.970
 3129POPC   C4B43078  16.943  37.832   7.384
 3130POPC   NC343079  17.130  32.982   5.453
 3130POPC   PO443080  17.753  33.217   5.421
 3130POPC   GL143081  17.486  33.218   5.768
 3130POPC   GL243082  17.539  32.898   5.825
 3130POPC   C1A43083  17.287  33.386   6.154
 3130POPC   D2A43084  17.064  33.200   6.527
 3130POPC   C3A43085  17.344  33.162   6.867
 3130POPC   C4A43086  17.296  33.298   7.263
 3130POPC   C1B43087  17.361  32.880   6.222
 3130POPC   C2B43088  17.364  32.651   6.608
 3130POPC   C3B43089  17.173  32.654   6.985
 3130POPC   C4B43090  17.437  32.814   7.251
 3131POPC   NC343091   4.923  34.181   5.427
 3131POPC   PO443092   5.062  33.580   5.473
 3131POPC   GL143093   5.042  33.840   5.838
 3131POPC   GL243094   5.276  34.086   5.836
 3131POPC   C1A43095   5.107  33.759   6.276
 3131POPC   D2A43096   4.867  33.691   6.634
 3131POPC   C3A43097   5.103  33.680   7.019
 3131POPC   C4A43098   5.147  33.580   7.470
 3131POPC   C1B43099   5.236  34.253   6.256
 3131POPC   C2B43100   5.141  34.152   6.701
 3131POPC   C3B43101   5.382  34.097   7.092
 3131POPC   C4B43102   5.321  34.092   7.529
 3132POPC   NC343103  35.401  28.683   5.439
 3132POPC   PO443104  35.016  28.155   5.531
 3132POPC   GL143105  35.234  28.366   5.878
 3132POPC   GL243106  35.614  28.460   5.933
 3132POPC   C1A43107  35.332  28.250   6.306
 3132POPC   D2A43108  35.519  28.520   6.676
 3132POPC   C3A43109  35.633  28.545   7.132
 3132POPC   C4A43110  35.324  28.514   7.470
 3132POPC   C1B43111  35.822  28.264   6.329
 3132POPC   C2B43112  35.619  28.012   6.659
 3132POPC   C3B43113  35.410  28.111   7.016
 3132POPC   C4B43114  35.559  28.059   7.426
 3133POPC   NC343115  12.706  18.694   4.999
 3133POPC   PO443116  12.973  18.215   5.360
 3133POPC   GL143117  12.965  18.348   5.763
 3133POPC   GL243118  12.823  18.030   5.863
 3133POPC   C1A43119  12.686  18.462   6.106
 3133POPC   D2A43120  12.430  18.330   6.457
 3133POPC   C3A43121  12.590  18.509   6.822
 3133POPC   C4A43122  12.817  18.354   7.142
 3133POPC   C1B43123  12.810  18.003   6.319
 3133POPC   C2B43124  12.747  17.982   6.761
 3133POPC   C3B43125  12.985  17.879   7.100
 3133POPC   C4B43126  13.300  18.195   7.216
 3134POPC   NC343127   5.408  16.964   5.588
 3134POPC   PO443128   6.038  16.715   5.326
 3134POPC   GL143129   5.956  16.642   5.771
 3134POPC   GL243130   5.611  16.529   5.893
 3134POPC   C1A43131   5.858  16.921   6.121
 3134POPC   D2A43132   5.606  16.838   6.482
 3134POPC   C3A43133   5.750  16.829   6.922
 3134POPC   C4A43134   5.998  16.897   7.277
 3134POPC   C1B43135   5.883  16.417   6.246
 3134POPC   C2B43136   5.841  16.383   6.668
 3134POPC   C3B43137   5.986  16.374   7.063
 3134POPC   C4B43138   5.867  16.454   7.488
 3135POPC   NC343139  28.292  34.675   5.383
 3135POPC   PO443140  28.785  34.166   5.488
 3135POPC   GL143141  28.539  34.444   5.782
 3135POPC   GL243142  28.540  34.803   5.820
 3135POPC   C1A43143  28.287  34.561   6.183
 3135POPC   D2A43144  28.161  34.391   6.589
 3135POPC   C3A43145  28.320  34.624   6.945
 3135POPC   C4A43146  28.692  34.681   7.192
 3135POPC   C1B43147  28.822  34.641   6.152
 3135POPC   C2B43148  28.734  34.717   6.588
 3135POPC   C3B43149  28.898  35.020   6.864
 3135POPC   C4B43150  28.803  35.183   7.286
 3136POPC   NC343151  41.038  42.624   5.470
 3136POPC   PO443152  40.688  43.228   5.500
 3136POPC   GL143153  40.723  42.899   5.799
 3136POPC   GL243154  40.407  42.778   5.909
 3136POPC   C1A43155  40.779  42.907   6.256
 3136POPC   D2A43156  40.754  43.323   6.457
 3136POPC   C3A43157  40.899  43.354   6.868
 3136POPC   C4A43158  40.807  43.056   7.204
 3136POPC   C1B43159  40.372  43.215   6.103
 3136POPC   C2B43160  40.217  43.327   6.535
 3136POPC   C3B43161  40.391  43.311   6.953
 3136POPC   C4B43162  40.483  43.390   7.399
 3137POPC   NC343163  32.428   4.935   5.679
 3137POPC   PO443164  32.150   5.429   5.313
 3137POPC   GL143165  32.161   5.359   5.808
 3137POPC   GL243166  31.991   5.028   5.905
 3137POPC   C1A43167  32.287   5.289   6.279
 3137POPC   D2A43168  32.378   5.303   6.738
 3137POPC   C3A43169  32.023   5.324   7.032
 3137POPC   C4A43170  31.996   5.182   7.491
 3137POPC   C1B43171  32.194   4.796   6.289
 3137POPC   C2B43172  32.079   4.893   6.726
 3137POPC   C3B43173  32.181   4.825   7.147
 3137POPC   C4B43174  32.473   4.842   7.475
 3138POPC   NC343175  12.279  20.990   5.250
 3138POPC   PO443176  11.898  21.525   5.404
 3138POPC   GL143177  12.067  21.246   5.772
 3138POPC   GL243178  11.809  21.005   5.970
 3138POPC   C1A43179  12.077  21.417   6.211
 3138POPC   D2A43180  12.317  21.608   6.575
 3138POPC   C3A43181  12.171  21.550   7.022
 3138POPC   C4A43182  12.454  21.394   7.417
 3138POPC   C1B43183  11.876  20.994   6.405
 3138POPC   C2B43184  12.261  21.051   6.610
 3138POPC   C3B43185  12.321  21.084   7.035
 3138POPC   C4B43186  11.979  21.200   7.354
 3139POPC   NC343187  37.310  20.384   5.385
 3139POPC   PO443188  36.733  20.085   5.452
 3139POPC   GL143189  36.950  19.913   5.790
 3139POPC   GL243190  37.280  20.083   5.825
 3139POPC   C1A43191  37.070  19.822   6.214
 3139POPC   D2A43192  37.094  19.492   6.484
 3139POPC   C3A43193  36.734  19.581   6.700
 3139POPC   C4A43194  36.885  19.658   7.128
 3139POPC   C1B43195  37.490  20.133   6.233
 3139POPC   C2B43196  37.405  19.936   6.640
 3139POPC   C3B43197  37.081  20.070   6.959
 3139POPC   C4B43198  37.073  20.365   7.322
 3140POPC   NC343199  17.042  12.442   5.489
 3140POPC   PO443200  16.624  11.914   5.500
 3140POPC   GL143201  16.775  11.895   5.909
 3140POPC   GL243202  17.132  11.929   5.870
 3140POPC   C1A43203  16.661  11.908   6.362
 3140POPC   D2A43204  16.880  11.835   6.755
 3140POPC   C3A43205  16.613  11.938   7.094
 3140POPC   C4A43206  16.295  12.279   7.090
 3140POPC   C1B43207  17.073  12.205   6.240
 3140POPC   C2B43208  17.154  12.349   6.677
 3140POPC   C3B43209  17.047  12.179   7.102
 3140POPC   C4B43210  17.046  12.169   7.595
 3141POPC   NC343211  23.326  38.614   5.523
 3141POPC   PO443212  23.878  38.985   5.538
 3141POPC   GL143213  23.714  38.734   5.897
 3141POPC   GL243214  23.680  38.374   5.818
 3141POPC   C1A43215  23.498  38.529   6.274
 3141POPC   D2A43216  23.254  38.650   6.647
 3141POPC   C3A43217  23.520  38.801   6.971
 3141POPC   C4A43218  23.907  38.860   7.174
 3141POPC   C1B43219  23.718  38.037   6.130
 3141POPC   C2B43220  23.651  38.062   6.572
 3141POPC   C3B43221  23.469  38.259   6.923
 3141POPC   C4B43222  23.750  38.346   7.257
 3142POPC   NC343223  24.437  16.436   5.466
 3142POPC   PO443224  24.748  17.040   5.645
 3142POPC   GL143225  24.632  16.723   5.930
 3142POPC   GL243226  24.750  16.356   5.842
 3142POPC   C1A43227  24.590  16.788   6.398
 3142POPC   D2A43228  24.282  16.915   6.729
 3142POPC   C3A43229  24.442  16.888   7.090
 3142POPC   C4A43230  24.888  16.920   7.043
 3142POPC   C1B43231  24.525  16.304   6.194
 3142POPC   C2B43232  24.682  16.272   6.541
 3142POPC   C3B43233  24.666  16.449   6.937
 3142POPC   C4B43234  24.386  16.251   7.184
 3143POPC   NC343235   3.852  32.026   5.479
 3143POPC   PO443236   3.164  32.177   5.412
 3143POPC   GL143237   3.448  32.236   5.726
 3143POPC   GL243238   3.565  32.565   5.742
 3143POPC   C1A43239   3.489  32.133   6.141
 3143POPC   D2A43240   3.520  32.342   6.546
 3143POPC   C3A43241   3.672  32.106   6.893
 3143POPC   C4A43242   3.397  31.960   7.214
 3143POPC   C1B43243   3.744  32.610   6.159
 3143POPC   C2B43244   3.971  32.587   6.592
 3143POPC   C3B43245   3.723  32.639   6.977
 3143POPC   C4B43246   3.671  32.390   7.351
 3144POPC   NC343247   1.215  40.525   5.401
 3144POPC   PO443248   0.979  41.067   5.547
 3144POPC   GL143249   1.015  40.733   5.829
 3144POPC   GL243250   1.389  40.784   5.810
 3144POPC   C1A43251   0.955  40.624   6.261
 3144POPC   D2A43252   1.226  40.627   6.609
 3144POPC   C3A43253   1.039  40.686   7.005
 3144POPC   C4A43254   1.053  40.904   7.394
 3144POPC   C1B43255   1.570  40.921   6.201
 3144POPC   C2B43256   1.686  40.857   6.641
 3144POPC   C3B43257   1.523  40.897   7.072
 3144POPC   C4B43258   1.549  40.949   7.545
 3145POPC   NC343259  42.912   6.277   5.563
 3145POPC   PO443260  43.311   6.836   5.499
 3145POPC   GL143261  43.543   6.717   5.865
 3145POPC   GL243262  43.341   6.446   5.855
 3145POPC   C1A43263  43.534   6.766   6.305
 3145POPC   D2A43264  43.171   6.908   6.552
 3145POPC   C3A43265  43.255   6.889   6.970
 3145POPC   C4A43266  43.514   6.608   7.159
 3145POPC   C1B43267  43.074   6.544   6.189
 3145POPC   C2B43268  42.909   6.432   6.599
 3145POPC   C3B43269  42.952   6.478   7.045
 3145POPC   C4B43270  42.672   6.761   7.263
 3146POPC   NC343271  30.846  14.423   5.096
 3146POPC   PO443272  30.492  14.798   5.533
 3146POPC   GL143273  30.714  14.589   5.823
 3146POPC   GL243274  30.710  14.251   5.812
 3146POPC   C1A43275  30.515  14.455   6.219
 3146POPC   D2A43276  30.286  14.545   6.584
 3146POPC   C3A43277  30.600  14.376   6.883
 3146POPC   C4A43278  30.746  14.567   7.237
 3146POPC   C1B43279  30.935  14.018   6.116
 3146POPC   C2B43280  30.877  14.103   6.536
 3146POPC   C3B43281  30.654  13.863   6.850
 3146POPC   C4B43282  30.487  13.970   7.253
 3147POPC   NC343283  40.092  21.649   5.448
 3147POPC   PO443284  39.842  20.992   5.429
 3147POPC   GL143285  39.764  21.326   5.696
 3147POPC   GL243286  40.109  21.276   5.794
 3147POPC   C1A43287  39.711  21.318   6.145
 3147POPC   D2A43288  39.895  21.106   6.528
 3147POPC   C3A43289  39.796  21.193   6.974
 3147POPC   C4A43290  39.793  21.467   7.340
 3147POPC   C1B43291  40.223  21.385   6.209
 3147POPC   C2B43292  40.182  21.553   6.622
 3147POPC   C3B43293  40.244  21.410   7.021
 3147POPC   C4B43294  40.296  21.528   7.416
 3148POPC   NC343295   0.459   1.790   5.210
 3148POPC   PO443296   0.732   2.237   5.604
 3148POPC   GL143297   0.379   2.073   5.803
 3148POPC   GL243298   0.422   1.760   5.791
 3148POPC   C1A43299   0.303   2.163   6.219
 3148POPC   D2A43300   0.567   2.201   6.581
 3148POPC   C3A43301   0.333   2.202   6.948
 3148POPC   C4A43302   0.320   1.922   7.279
 3148POPC   C1B43303   0.680   1.764   6.198
 3148POPC   C2B43304   0.720   1.693   6.652
 3148POPC   C3B43305   0.839   1.760   7.088
 3148POPC   C4B43306   0.922   1.562   7.517
 3149POPC   NC343307  35.010  39.503   5.669
 3149POPC   PO443308  34.487  39.108   5.400
 3149POPC   GL143309  34.684  39.118   5.791
 3149POPC   GL243310  34.517  39.452   5.819
 3149POPC   C1A43311  34.710  39.211   6.246
 3149POPC   D2A43312  34.456  39.040   6.602
 3149POPC   C3A43313  34.508  39.128   7.055
 3149POPC   C4A43314  34.476  39.067   7.546
 3149POPC   C1B43315  34.574  39.723   6.172
 3149POPC   C2B43316  34.557  39.590   6.596
 3149POPC   C3B43317  34.665  39.635   7.010
 3149POPC   C4B43318  34.423  39.536   7.364
 3150POPC   NC343319  24.062  26.494   5.486
 3150POPC   PO443320  24.540  26.938   5.481
 3150POPC   GL143321  24.219  26.863   5.778
 3150POPC   GL243322  24.045  27.156   5.919
 3150POPC   C1A43323  24.099  26.715   6.168
 3150POPC   D2A43324  24.224  26.946   6.524
 3150POPC   C3A43325  24.323  26.819   6.907
 3150POPC   C4A43326  24.129  26.551   7.172
 3150POPC   C1B43327  24.459  27.146   6.131
 3150POPC   C2B43328  24.651  27.200   6.548
 3150POPC   C3B43329  24.728  27.188   6.991
 3150POPC   C4B43330  24.493  27.041   7.329
 3151POPC   NC343331   9.249  18.835   5.430
 3151POPC   PO443332   8.677  19.299   5.463
 3151POPC   GL143333   9.033  19.215   5.755
 3151POPC   GL243334   9.111  18.865   5.910
 3151POPC   C1A43335   9.086  19.283   6.218
 3151POPC   D2A43336   8.855  19.100   6.578
 3151POPC   C3A43337   8.961  19.171   7.001
 3151POPC   C4A43338   8.710  18.899   7.260
 3151POPC   C1B43339   9.294  18.530   6.167
 3151POPC   C2B43340   9.049  18.444   6.507
 3151POPC   C3B43341   9.048  18.681   6.891
 3151POPC   C4B43342   9.188  18.792   7.311
 3152POPC   NC343343  36.986  18.443   5.448
 3152POPC   PO443344  36.990  17.733   5.396
 3152POPC   GL143345  37.018  17.912   5.818
 3152POPC   GL243346  36.744  18.172   5.841
 3152POPC   C1A43347  36.960  18.028   6.282
 3152POPC   D2A43348  36.684  18.197   6.618
 3152POPC   C3A43349  36.883  18.261   7.029
 3152POPC   C4A43350  37.317  18.401   7.126
 3152POPC   C1B43351  36.577  18.481   6.170
 3152POPC   C2B43352  36.450  18.656   6.601
 3152POPC   C3B43353  36.548  18.724   7.050
 3152POPC   C4B43354  36.770  18.590   7.422
 3153POPC   NC343355  38.707  20.741   5.395
 3153POPC   PO443356  38.125  20.389   5.290
 3153POPC   GL143357  38.360  20.471   5.672
 3153POPC   GL243358  38.140  20.337   5.851
 3153POPC   C1A43359  38.514  20.672   6.100
 3153POPC   D2A43360  38.713  20.977   6.438
 3153POPC   C3A43361  38.630  20.820   6.878
 3153POPC   C4A43362  38.540  20.472   7.136
 3153POPC   C1B43363  38.138  20.303   6.260
 3153POPC   C2B43364  38.306  20.398   6.650
 3153POPC   C3B43365  38.100  20.277   7.006
 3153POPC   C4B43366  37.939  20.485   7.309
 3154POPC   NC343367  44.635  38.287   5.082
 3154POPC   PO443368   0.138  38.687   5.371
 3154POPC   GL143369  44.799  38.643   5.670
 3154POPC   GL243370  44.820  38.365   5.761
 3154POPC   C1A43371  44.627  38.772   6.104
 3154POPC   D2A43372  44.737  38.843   6.575
 3154POPC   C3A43373  44.650  38.524   6.950
 3154POPC   C4A43374  44.490  38.366   7.389
 3154POPC   C1B43375  44.867  38.315   6.182
 3154POPC   C2B43376  44.956  38.228   6.574
 3154POPC   C3B43377   0.127  38.334   6.929
 3154POPC   C4B43378  44.987  38.347   7.322
 3155POPC   NC343379  31.217  33.786   5.095
 3155POPC   PO443380  31.763  33.432   5.272
 3155POPC   GL143381  31.566  33.592   5.675
 3155POPC   GL243382  31.246  33.533   5.601
 3155POPC   C1A43383  31.395  33.848   6.076
 3155POPC   D2A43384  31.240  34.065   6.478
 3155POPC   C3A43385  31.281  33.841   6.879
 3155POPC   C4A43386  31.111  33.707   7.275
 3155POPC   C1B43387  31.203  33.379   6.023
 3155POPC   C2B43388  31.128  33.562   6.455
 3155POPC   C3B43389  31.209  33.335   6.857
 3155POPC   C4B43390  31.454  33.343   7.227
 3156POPC   NC343391   4.336  40.984   5.503
 3156POPC   PO443392   4.801  40.476   5.603
 3156POPC   GL143393   4.514  40.664   5.930
 3156POPC   GL243394   4.140  40.685   5.883
 3156POPC   C1A43395   4.376  40.665   6.378
 3156POPC   D2A43396   4.368  40.430   6.784
 3156POPC   C3A43397   4.480  40.685   7.151
 3156POPC   C4A43398   4.214  40.733   7.548
 3156POPC   C1B43399   4.135  41.061   6.140
 3156POPC   C2B43400   4.244  41.140   6.549
 3156POPC   C3B43401   4.117  40.931   6.898
 3156POPC   C4B43402   4.268  41.158   7.229
 3157POPC   NC343403  11.371  29.345   5.527
 3157POPC   PO443404  11.104  28.739   5.535
 3157POPC   GL143405  11.108  28.949   5.915
 3157POPC   GL243406  11.100  29.296   5.974
 3157POPC   C1A43407  11.189  28.978   6.366
 3157POPC   D2A43408  11.078  28.827   6.752
 3157POPC   C3A43409  11.384  28.937   7.036
 3157POPC   C4A43410  11.712  29.210   7.221
 3157POPC   C1B43411  11.134  29.532   6.340
 3157POPC   C2B43412  11.053  29.379   6.743
 3157POPC   C3B43413  11.217  29.398   7.168
 3157POPC   C4B43414  11.338  29.565   7.579
 3158POPC   NC343415   1.328   1.568   5.017
 3158POPC   PO443416   1.216   1.362   5.627
 3158POPC   GL143417   1.026   1.229   5.987
 3158POPC   GL243418   1.052   0.907   5.891
 3158POPC   C1A43419   1.017   1.337   6.393
 3158POPC   D2A43420   1.394   1.284   6.637
 3158POPC   C3A43421   1.214   1.431   6.982
 3158POPC   C4A43422   1.372   1.470   7.335
 3158POPC   C1B43423   1.205   0.869   6.337
 3158POPC   C2B43424   1.046   0.943   6.764
 3158POPC   C3B43425   1.339   0.976   7.134
 3158POPC   C4B43426   1.546   0.802   7.526
 3159POPC   NC343427  32.656   3.386   5.462
 3159POPC   PO443428  33.346   3.249   5.378
 3159POPC   GL143429  33.096   3.446   5.724
 3159POPC   GL243430  32.869   3.205   5.877
 3159POPC   C1A43431  32.994   3.612   6.166
 3159POPC   D2A43432  33.088   3.882   6.534
 3159POPC   C3A43433  32.976   3.667   6.918
 3159POPC   C4A43434  33.101   3.546   7.333
 3159POPC   C1B43435  32.680   3.204   6.297
 3159POPC   C2B43436  32.647   3.273   6.766
 3159POPC   C3B43437  32.639   3.307   7.236
 3159POPC   C4B43438  32.725   3.258   7.691
 3160POPC   NC343439  26.786  24.294   5.435
 3160POPC   PO443440  27.182  24.920   5.484
 3160POPC   GL143441  26.930  24.646   5.770
 3160POPC   GL243442  27.023  24.347   5.903
 3160POPC   C1A43443  26.665  24.607   6.146
 3160POPC   D2A43444  26.863  24.453   6.529
 3160POPC   C3A43445  26.750  24.651   6.897
 3160POPC   C4A43446  26.665  24.409   7.225
 3160POPC   C1B43447  27.250  24.209   6.251
 3160POPC   C2B43448  27.281  24.209   6.694
 3160POPC   C3B43449  27.156  24.407   7.070
 3160POPC   C4B43450  27.060  24.435   7.534
 3161POPC   NC343451   8.951  16.150   5.212
 3161POPC   PO443452   9.045  16.862   5.262
 3161POPC   GL143453   8.831  16.728   5.656
 3161POPC   GL243454   8.998  16.434   5.775
 3161POPC   C1A43455   8.914  16.852   6.096
 3161POPC   D2A43456   9.048  17.104   6.472
 3161POPC   C3A43457   9.230  16.910   6.852
 3161POPC   C4A43458   8.953  16.761   7.172
 3161POPC   C1B43459   9.138  16.406   6.219
 3161POPC   C2B43460   9.015  16.485   6.646
 3161POPC   C3B43461   9.107  16.285   7.035
 3161POPC   C4B43462   9.040  16.348   7.488
 3162POPC   NC343463  14.192  35.886   5.412
 3162POPC   PO443464  14.718  36.258   5.355
 3162POPC   GL143465  14.592  35.997   5.757
 3162POPC   GL243466  14.357  35.693   5.838
 3162POPC   C1A43467  14.439  36.043   6.214
 3162POPC   D2A43468  14.435  35.996   6.676
 3162POPC   C3A43469  14.331  36.224   7.050
 3162POPC   C4A43470  14.598  36.493   7.259
 3162POPC   C1B43471  14.223  35.533   6.224
 3162POPC   C2B43472  14.111  35.593   6.633
 3162POPC   C3B43473  14.278  35.678   7.040
 3162POPC   C4B43474  14.490  35.880   7.400
 3163POPC   NC343475  27.813  12.656   5.481
 3163POPC   PO443476  27.464  13.239   5.449
 3163POPC   GL143477  27.571  13.040   5.848
 3163POPC   GL243478  27.913  12.956   5.859
 3163POPC   C1A43479  27.595  12.997   6.314
 3163POPC   D2A43480  27.537  12.675   6.620
 3163POPC   C3A43481  27.364  12.820   7.000
 3163POPC   C4A43482  27.302  13.246   7.106
 3163POPC   C1B43483  27.938  12.663   6.197
 3163POPC   C2B43484  28.056  12.872   6.590
 3163POPC   C3B43485  27.904  12.878   7.034
 3163POPC   C4B43486  28.002  12.733   7.460
 3164POPC   NC343487  26.616  17.503   5.516
 3164POPC   PO443488  27.059  16.996   5.396
 3164POPC   GL143489  26.858  17.124   5.805
 3164POPC   GL243490  26.989  17.480   5.882
 3164POPC   C1A43491  26.759  17.231   6.271
 3164POPC   D2A43492  26.404  17.290   6.609
 3164POPC   C3A43493  26.563  17.405   7.044
 3164POPC   C4A43494  27.002  17.327   7.234
 3164POPC   C1B43495  27.149  17.612   6.334
 3164POPC   C2B43496  27.055  17.635   6.812
 3164POPC   C3B43497  27.163  17.796   7.259
 3164POPC   C4B43498  27.193  17.914   7.749
 3165POPC   NC343499  15.412  11.250   5.630
 3165POPC   PO443500  14.970  11.738   5.367
 3165POPC   GL143501  15.015  11.588   5.809
 3165POPC   GL243502  14.925  11.239   5.874
 3165POPC   C1A43503  15.256  11.587   6.217
 3165POPC   D2A43504  15.142  11.428   6.625
 3165POPC   C3A43505  15.359  11.526   6.981
 3165POPC   C4A43506  15.160  11.563   7.357
 3165POPC   C1B43507  15.189  11.083   6.223
 3165POPC   C2B43508  15.153  10.915   6.642
 3165POPC   C3B43509  15.277  11.027   7.072
 3165POPC   C4B43510  15.518  11.204   7.447
 3166POPC   NC343511  26.439  35.444   5.346
 3166POPC   PO443512  26.911  35.030   5.483
 3166POPC   GL143513  26.921  35.368   5.829
 3166POPC   GL243514  26.573  35.481   5.846
 3166POPC   C1A43515  26.860  35.281   6.301
 3166POPC   D2A43516  26.892  35.094   6.736
 3166POPC   C3A43517  26.687  35.218   7.146
 3166POPC   C4A43518  26.692  35.192   7.621
 3166POPC   C1B43519  26.572  35.690   6.243
 3166POPC   C2B43520  26.797  35.652   6.652
 3166POPC   C3B43521  26.502  35.678   7.002
 3166POPC   C4B43522  26.621  35.656   7.419
 3167POPC   NC343523  27.309  26.243   5.401
 3167POPC   PO443524  27.759  25.732   5.392
 3167POPC   GL143525  27.821  25.883   5.814
 3167POPC   GL243526  27.691  26.223   5.825
 3167POPC   C1A43527  27.836  25.895   6.260
 3167POPC   D2A43528  27.466  26.072   6.490
 3167POPC   C3A43529  27.511  26.163   6.936
 3167POPC   C4A43530  27.817  25.960   7.235
 3167POPC   C1B43531  27.831  26.396   6.236
 3167POPC   C2B43532  27.931  26.295   6.686
 3167POPC   C3B43533  27.863  26.449   7.165
 3167POPC   C4B43534  27.537  26.315   7.486
 3168POPC   NC343535   1.972  17.192   4.980
 3168POPC   PO443536   2.298  17.704   5.371
 3168POPC   GL143537   1.977  17.593   5.731
 3168POPC   GL243538   2.240  17.601   5.911
 3168POPC   C1A43539   1.817  17.463   6.164
 3168POPC   D2A43540   1.999  17.336   6.575
 3168POPC   C3A43541   1.775  17.448   6.951
 3168POPC   C4A43542   1.565  17.380   7.349
 3168POPC   C1B43543   2.461  17.556   6.283
 3168POPC   C2B43544   2.388  17.627   6.684
 3168POPC   C3B43545   2.404  17.407   7.065
 3168POPC   C4B43546   2.412  17.604   7.467
 3169POPC   NC343547  18.680  32.590   5.584
 3169POPC   PO443548  18.107  32.281   5.443
 3169POPC   GL143549  18.334  32.246   5.823
 3169POPC   GL243550  18.656  32.110   5.748
 3169POPC   C1A43551  18.279  32.382   6.250
 3169POPC   D2A43552  18.625  32.544   6.534
 3169POPC   C3A43553  18.665  32.399   6.956
 3169POPC   C4A43554  18.371  32.478   7.283
 3169POPC   C1B43555  18.713  32.120   6.189
 3169POPC   C2B43556  18.477  32.016   6.554
 3169POPC   C3B43557  18.255  32.105   6.929
 3169POPC   C4B43558  18.354  31.949   7.314
 3170POPC   NC343559   4.630  33.362   5.459
 3170POPC   PO443560   4.473  34.048   5.445
 3170POPC   GL143561   4.538  33.798   5.761
 3170POPC   GL243562   4.224  33.880   5.885
 3170POPC   C1A43563   4.600  33.680   6.183
 3170POPC   D2A43564   4.288  33.716   6.534
 3170POPC   C3A43565   4.473  33.743   6.938
 3170POPC   C4A43566   4.698  33.775   7.327
 3170POPC   C1B43567   3.918  34.146   6.124
 3170POPC   C2B43568   3.869  34.059   6.549
 3170POPC   C3B43569   4.103  34.118   6.901
 3170POPC   C4B43570   4.004  34.283   7.286
 3171POPC   NC343571  22.200  14.915   5.099
 3171POPC   PO443572  22.157  15.420   5.495
 3171POPC   GL143573  22.216  15.245   5.896
 3171POPC   GL243574  22.249  14.910   5.979
 3171POPC   C1A43575  22.222  15.193   6.379
 3171POPC   D2A43576  22.385  14.906   6.720
 3171POPC   C3A43577  22.412  15.206   7.060
 3171POPC   C4A43578  22.567  15.616   7.131
 3171POPC   C1B43579  21.919  14.769   6.268
 3171POPC   C2B43580  21.712  14.793   6.632
 3171POPC   C3B43581  21.930  14.926   6.973
 3171POPC   C4B43582  22.090  14.931   7.368
 3172POPC   NC343583  35.198  16.730   5.462
 3172POPC   PO443584  35.912  16.520   5.444
 3172POPC   GL143585  35.741  16.885   5.745
 3172POPC   GL243586  35.371  16.927   5.892
 3172POPC   C1A43587  35.741  16.946   6.222
 3172POPC   D2A43588  35.366  17.009   6.530
 3172POPC   C3A43589  35.347  16.804   6.896
 3172POPC   C4A43590  35.586  16.916   7.221
 3172POPC   C1B43591  35.153  16.667   6.223
 3172POPC   C2B43592  34.906  16.741   6.623
 3172POPC   C3B43593  34.889  16.963   7.057
 3172POPC   C4B43594  35.136  17.140   7.345
 3173POPC   NC343595  42.185   1.430   5.176
 3173POPC   PO443596  42.711   1.065   5.431
 3173POPC   GL143597  42.405   1.094   5.773
 3173POPC   GL243598  42.177   1.390   5.697
 3173POPC   C1A43599  42.269   0.951   6.194
 3173POPC   D2A43600  42.365   0.607   6.514
 3173POPC   C3A43601  42.235   0.684   6.956
 3173POPC   C4A43602  42.446   0.978   7.245
 3173POPC   C1B43603  42.337   1.507   6.107
 3173POPC   C2B43604  42.575   1.301   6.445
 3173POPC   C3B43605  42.569   1.325   6.877
 3173POPC   C4B43606  42.437   1.499   7.236
 3174POPC   NC343607  12.329  35.369   5.181
 3174POPC   PO443608  11.651  35.208   5.417
 3174POPC   GL143609  12.079  35.269   5.651
 3174POPC   GL243610  12.214  34.935   5.740
 3174POPC   C1A43611  12.289  35.355   6.082
 3174POPC   D2A43612  12.149  35.567   6.472
 3174POPC   C3A43613  12.266  35.442   6.895
 3174POPC   C4A43614  12.129  35.522   7.303
 3174POPC   C1B43615  12.335  34.827   6.165
 3174POPC   C2B43616  12.291  35.017   6.565
 3174POPC   C3B43617  12.218  34.932   6.997
 3174POPC   C4B43618  12.419  35.097   7.362
 3175POPC   NC343619  26.101  12.640   5.014
 3175POPC   PO443620  25.774  13.197   5.269
 3175POPC   GL143621  25.994  12.953   5.632
 3175POPC   GL243622  25.971  13.242   5.847
 3175POPC   C1A43623  25.931  12.775   6.079
 3175POPC   D2A43624  25.758  12.734   6.492
 3175POPC   C3A43625  25.955  12.960   6.816
 3175POPC   C4A43626  25.971  12.760   7.208
 3175POPC   C1B43627  26.345  13.076   6.089
 3175POPC   C2B43628  26.504  13.065   6.525
 3175POPC   C3B43629  26.440  12.850   6.922
 3175POPC   C4B43630  26.343  13.078   7.306
 3176POPC   NC343631  39.772  11.668   5.257
 3176POPC   PO443632  39.982  12.294   5.416
 3176POPC   GL143633  40.184  12.109   5.807
 3176POPC   GL243634  40.208  11.751   5.914
 3176POPC   C1A43635  40.208  12.214   6.244
 3176POPC   D2A43636  40.116  11.969   6.584
 3176POPC   C3A43637  40.145  12.077   7.013
 3176POPC   C4A43638  40.115  12.041   7.449
 3176POPC   C1B43639  39.828  11.789   6.140
 3176POPC   C2B43640  39.665  11.681   6.502
 3176POPC   C3B43641  39.856  11.642   6.888
 3176POPC   C4B43642  39.751  11.560   7.270
 3177POPC   NC343643  44.328   2.847   5.296
 3177POPC   PO443644  44.958   2.810   5.453
 3177POPC   GL143645  44.765   2.700   5.823
 3177POPC   GL243646  44.407   2.679   5.788
 3177POPC   C1A43647  44.863   2.759   6.253
 3177POPC   D2A43648  44.739   2.763   6.685
 3177POPC   C3A43649  44.970   2.677   7.059
 3177POPC   C4A43650  44.969   2.300   7.314
 3177POPC   C1B43651  44.448   3.018   6.094
 3177POPC   C2B43652  44.530   3.196   6.496
 3177POPC   C3B43653  44.336   3.021   6.858
 3177POPC   C4B43654  44.400   2.887   7.251
 3178POPC   NC343655  26.704  42.308   5.395
 3178POPC   PO443656  27.268  42.102   5.716
 3178POPC   GL143657  26.873  42.164   5.867
 3178POPC   GL243658  26.756  42.509   5.849
 3178POPC   C1A43659  26.638  42.057   6.213
 3178POPC   D2A43660  26.572  42.239   6.623
 3178POPC   C3A43661  26.951  42.234   6.878
 3178POPC   C4A43662  26.792  42.184   7.285
 3178POPC   C1B43663  26.644  42.574   6.247
 3178POPC   C2B43664  26.819  42.695   6.647
 3178POPC   C3B43665  26.709  42.648   7.075
 3178POPC   C4B43666  26.902  42.697   7.489
 3179POPC   NC343667  14.917  34.591   5.165
 3179POPC   PO443668  15.449  34.197   5.415
 3179POPC   GL143669  15.234  34.504   5.690
 3179POPC   GL243670  14.896  34.703   5.685
 3179POPC   C1A43671  15.341  34.644   6.112
 3179POPC   D2A43672  15.439  34.761   6.542
 3179POPC   C3A43673  15.334  34.436   6.841
 3179POPC   C4A43674  15.238  34.546   7.234
 3179POPC   C1B43675  14.817  34.561   6.132
 3179POPC   C2B43676  14.911  34.632   6.590
 3179POPC   C3B43677  14.774  34.561   7.043
 3179POPC   C4B43678  14.806  34.560   7.521
 3180POPC   NC343679  33.946  41.749   5.501
 3180POPC   PO443680  33.517  41.291   5.226
 3180POPC   GL143681  34.010  41.269   5.691
 3180POPC   GL243682  34.014  41.612   5.961
 3180POPC   C1A43683  33.936  41.202   6.217
 3180POPC   D2A43684  34.079  41.501   6.570
 3180POPC   C3A43685  33.889  41.479   7.015
 3180POPC   C4A43686  33.810  41.254   7.429
 3180POPC   C1B43687  33.676  41.718   6.278
 3180POPC   C2B43688  33.502  41.574   6.669
 3180POPC   C3B43689  33.354  41.717   7.066
 3180POPC   C4B43690  33.633  41.760   7.415
 3181POPC   NC343691  34.927  29.412   5.431
 3181POPC   PO443692  35.555  29.143   5.329
 3181POPC   GL143693  35.241  29.102   5.685
 3181POPC   GL243694  35.257  29.411   5.819
 3181POPC   C1A43695  35.183  28.931   6.110
 3181POPC   D2A43696  35.433  28.982   6.475
 3181POPC   C3A43697  35.288  29.008   6.882
 3181POPC   C4A43698  35.459  29.012   7.291
 3181POPC   C1B43699  35.337  29.417   6.238
 3181POPC   C2B43700  35.358  29.513   6.681
 3181POPC   C3B43701  35.201  29.456   7.117
 3181POPC   C4B43702  35.272  29.413   7.581
 3182POPC   NC343703   9.687  37.315   5.263
 3182POPC   PO443704  10.208  37.646   5.439
 3182POPC   GL143705   9.843  37.562   5.712
 3182POPC   GL243706   9.497  37.417   5.716
 3182POPC   C1A43707   9.751  37.709   6.104
 3182POPC   D2A43708   9.573  37.795   6.482
 3182POPC   C3A43709   9.754  37.625   6.841
 3182POPC   C4A43710   9.598  37.867   7.181
 3182POPC   C1B43711   9.500  37.185   6.055
 3182POPC   C2B43712   9.513  37.282   6.474
 3182POPC   C3B43713   9.556  37.138   6.885
 3182POPC   C4B43714   9.664  37.341   7.277
 3183POPC   NC343715  29.381  17.256   5.610
 3183POPC   PO443716  29.014  17.711   5.258
 3183POPC   GL143717  29.009  17.684   5.780
 3183POPC   GL243718  29.021  17.343   5.963
 3183POPC   C1A43719  28.970  17.699   6.290
 3183POPC   D2A43720  29.037  17.421   6.659
 3183POPC   C3A43721  29.055  17.643   7.070
 3183POPC   C4A43722  28.871  17.598   7.491
 3183POPC   C1B43723  29.250  17.106   6.234
 3183POPC   C2B43724  29.203  16.864   6.545
 3183POPC   C3B43725  29.320  17.048   6.915
 3183POPC   C4B43726  29.187  17.215   7.309
 3184POPC   NC343727   8.524  32.892   5.110
 3184POPC   PO443728   8.268  33.470   5.423
 3184POPC   GL143729   8.416  33.246   5.781
 3184POPC   GL243730   8.327  32.884   5.761
 3184POPC   C1A43731   8.274  33.263   6.193
 3184POPC   D2A43732   7.957  33.164   6.463
 3184POPC   C3A43733   7.995  33.251   6.852
 3184POPC   C4A43734   8.253  33.217   7.183
 3184POPC   C1B43735   8.120  32.755   6.147
 3184POPC   C2B43736   8.275  32.800   6.584
 3184POPC   C3B43737   8.143  32.757   7.010
 3184POPC   C4B43738   8.219  32.800   7.486
 3185POPC   NC343739  31.810  42.756   5.348
 3185POPC   PO443740  31.311  43.169   5.454
 3185POPC   GL143741  31.620  43.140   5.773
 3185POPC   GL243742  31.673  42.782   5.875
 3185POPC   C1A43743  31.424  43.138   6.183
 3185POPC   D2A43744  31.255  42.991   6.588
 3185POPC   C3A43745  31.382  43.309   6.880
 3185POPC   C4A43746  31.597  43.438   7.216
 3185POPC   C1B43747  31.627  42.688   6.340
 3185POPC   C2B43748  31.687  42.689   6.795
 3185POPC   C3B43749  31.528  42.881   7.153
 3185POPC   C4B43750  31.564  42.697   7.559
 3186POPC   NC343751  31.143  20.788   5.388
 3186POPC   PO443752  30.971  20.185   5.427
 3186POPC   GL143753  30.894  20.487   5.770
 3186POPC   GL243754  30.680  20.748   5.656
 3186POPC   C1A43755  31.007  20.597   6.216
 3186POPC   D2A43756  31.132  20.497   6.636
 3186POPC   C3A43757  30.945  20.703   7.007
 3186POPC   C4A43758  31.011  20.905   7.440
 3186POPC   C1B43759  30.516  20.713   6.093
 3186POPC   C2B43760  30.655  20.842   6.528
 3186POPC   C3B43761  30.446  20.763   6.929
 3186POPC   C4B43762  30.170  20.646   7.249
 3187POPC   NC343763  31.649  12.255   5.252
 3187POPC   PO443764  31.264  11.756   5.175
 3187POPC   GL143765  31.324  11.928   5.653
 3187POPC   GL243766  31.169  12.267   5.787
 3187POPC   C1A43767  31.571  12.025   6.081
 3187POPC   D2A43768  31.516  11.852   6.542
 3187POPC   C3A43769  31.601  12.034   6.993
 3187POPC   C4A43770  31.329  12.097   7.393
 3187POPC   C1B43771  31.114  12.143   6.235
 3187POPC   C2B43772  31.320  12.310   6.619
 3187POPC   C3B43773  31.266  12.459   7.036
 3187POPC   C4B43774  30.883  12.440   7.251
 3188POPC   NC343775   1.851   5.346   5.549
 3188POPC   PO443776   1.763   4.625   5.441
 3188POPC   GL143777   1.755   4.859   5.855
 3188POPC   GL243778   2.081   4.987   5.895
 3188POPC   C1A43779   1.782   5.184   6.231
 3188POPC   D2A43780   1.680   5.358   6.641
 3188POPC   C3A43781   1.944   5.217   6.994
 3188POPC   C4A43782   1.979   4.857   7.278
 3188POPC   C1B43783   2.311   5.151   6.278
 3188POPC   C2B43784   2.396   5.164   6.722
 3188POPC   C3B43785   2.421   5.132   7.170
 3188POPC   C4B43786   2.372   5.077   7.618
 3189POPC   NC343787  31.976  12.902   5.627
 3189POPC   PO443788  32.573  13.053   5.573
 3189POPC   GL143789  32.388  12.784   5.947
 3189POPC   GL243790  32.072  12.912   6.117
 3189POPC   C1A43791  32.368  12.661   6.436
 3189POPC   D2A43792  32.645  12.630   6.817
 3189POPC   C3A43793  32.477  12.860   7.131
 3189POPC   C4A43794  32.066  12.933   7.220
 3189POPC   C1B43795  32.440  13.154   6.274
 3189POPC   C2B43796  32.582  13.141   6.686
 3189POPC   C3B43797  32.511  13.365   7.084
 3189POPC   C4B43798  32.317  13.307   7.511
 3190POPC   NC343799  36.288   2.666   5.503
 3190POPC   PO443800  35.898   3.136   5.212
 3190POPC   GL143801  36.017   3.052   5.725
 3190POPC   GL243802  35.971   2.731   5.911
 3190POPC   C1A43803  36.261   3.065   6.169
 3190POPC   D2A43804  36.379   2.864   6.606
 3190POPC   C3A43805  36.247   3.051   7.069
 3190POPC   C4A43806  36.267   3.087   7.580
 3190POPC   C1B43807  36.281   2.490   6.165
 3190POPC   C2B43808  36.394   2.268   6.555
 3190POPC   C3B43809  36.320   2.482   6.963
 3190POPC   C4B43810  35.877   2.491   7.130
 3191POPC   NC343811  41.583   5.029   5.457
 3191POPC   PO443812  41.121   4.541   5.446
 3191POPC   GL143813  41.268   4.845   5.816
 3191POPC   GL243814  41.450   5.185   5.912
 3191POPC   C1A43815  41.354   4.829   6.254
 3191POPC   D2A43816  41.670   4.841   6.562
 3191POPC   C3A43817  41.527   4.879   6.979
 3191POPC   C4A43818  41.685   5.232   7.156
 3191POPC   C1B43819  41.303   5.373   6.281
 3191POPC   C2B43820  41.398   5.316   6.678
 3191POPC   C3B43821  41.183   5.389   7.005
 3191POPC   C4B43822  41.183   5.128   7.303
 3192POPC   NC343823  33.990  30.669   5.396
 3192POPC   PO443824  33.330  30.702   5.572
 3192POPC   GL143825  33.682  30.638   5.864
 3192POPC   GL243826  33.995  30.394   5.852
 3192POPC   C1A43827  33.720  30.824   6.276
 3192POPC   D2A43828  33.581  30.668   6.670
 3192POPC   C3A43829  33.600  30.950   7.031
 3192POPC   C4A43830  33.919  31.070   7.320
 3192POPC   C1B43831  33.952  30.369   6.316
 3192POPC   C2B43832  34.094  30.627   6.637
 3192POPC   C3B43833  33.997  30.635   7.044
 3192POPC   C4B43834  33.994  30.374   7.364
 3193POPC   NC343835  12.437  10.733   5.483
 3193POPC   PO443836  12.945  10.287   5.422
 3193POPC   GL143837  12.735  10.447   5.779
 3193POPC   GL243838  12.896  10.728   5.784
 3193POPC   C1A43839  12.736  10.404   6.215
 3193POPC   D2A43840  13.062  10.301   6.539
 3193POPC   C3A43841  12.944  10.191   6.960
 3193POPC   C4A43842  12.909  10.342   7.402
 3193POPC   C1B43843  13.114  10.712   6.200
 3193POPC   C2B43844  12.942  10.800   6.634
 3193POPC   C3B43845  13.052  10.694   7.078
 3193POPC   C4B43846  13.038  10.811   7.567
 3194POPC   NC343847  12.030  37.126   5.277
 3194POPC   PO443848  12.312  36.530   5.348
 3194POPC   GL143849  12.211  36.777   5.722
 3194POPC   GL243850  12.088  37.129   5.771
 3194POPC   C1A43851  12.188  36.829   6.171
 3194POPC   D2A43852  12.298  37.095   6.510
 3194POPC   C3A43853  12.175  36.880   6.868
 3194POPC   C4A43854  12.193  36.681   7.240
 3194POPC   C1B43855  11.967  37.295   6.170
 3194POPC   C2B43856  11.807  37.147   6.560
 3194POPC   C3B43857  11.868  37.270   6.997
 3194POPC   C4B43858  11.969  37.112   7.423
 3195POPC   NC343859  44.452  21.636   5.383
 3195POPC   PO443860  44.549  20.993   5.206
 3195POPC   GL143861  44.574  21.139   5.663
 3195POPC   GL243862  44.725  21.467   5.771
 3195POPC   C1A43863  44.671  21.049   6.127
 3195POPC   D2A43864  44.586  21.224   6.558
 3195POPC   C3A43865  44.580  20.969   6.944
 3195POPC   C4A43866  44.329  21.029   7.346
 3195POPC   C1B43867  44.955  21.665   6.120
 3195POPC   C2B43868  44.878  21.627   6.571
 3195POPC   C3B43869  44.639  21.618   6.945
 3195POPC   C4B43870  44.811  21.776   7.373
 3196POPC   NC343871  39.126  21.890   5.532
 3196POPC   PO443872  39.290  22.518   5.409
 3196POPC   GL143873  39.306  22.293   5.849
 3196POPC   GL243874  39.442  21.958   5.910
 3196POPC   C1A43875  39.197  22.166   6.320
 3196POPC   D2A43876  39.313  21.934   6.738
 3196POPC   C3A43877  39.164  22.168   7.084
 3196POPC   C4A43878  38.958  22.536   7.241
 3196POPC   C1B43879  39.408  21.714   6.254
 3196POPC   C2B43880  39.653  21.562   6.591
 3196POPC   C3B43881  39.801  21.745   6.931
 3196POPC   C4B43882  39.561  21.914   7.281
 3197POPC   NC343883  16.625  16.718   5.214
 3197POPC   PO443884  17.351  16.829   5.411
 3197POPC   GL143885  17.018  16.634   5.644
 3197POPC   GL243886  16.766  16.882   5.717
 3197POPC   C1A43887  16.904  16.539   6.103
 3197POPC   D2A43888  16.828  16.748   6.549
 3197POPC   C3A43889  16.904  16.554   6.984
 3197POPC   C4A43890  17.229  16.513   7.329
 3197POPC   C1B43891  16.580  16.928   6.136
 3197POPC   C2B43892  16.355  16.930   6.554
 3197POPC   C3B43893  16.502  16.877   6.977
 3197POPC   C4B43894  16.394  16.809   7.395
 3198POPC   NC343895  29.229  36.983   5.282
 3198POPC   PO443896  28.949  36.405   5.343
 3198POPC   GL143897  29.092  36.671   5.808
 3198POPC   GL243898  29.212  37.004   5.826
 3198POPC   C1A43899  29.355  36.675   6.196
 3198POPC   D2A43900  29.326  36.899   6.594
 3198POPC   C3A43901  29.452  36.640   6.949
 3198POPC   C4A43902  29.421  36.737   7.378
 3198POPC   C1B43903  28.963  37.015   6.213
 3198POPC   C2B43904  28.791  36.855   6.618
 3198POPC   C3B43905  28.964  36.886   7.038
 3198POPC   C4B43906  28.686  37.202   7.219
 3199POPC   NC343907  28.634  22.003   5.323
 3199POPC   PO443908  28.031  22.145   5.445
 3199POPC   GL143909  28.295  22.066   5.783
 3199POPC   GL243910  28.398  21.746   5.765
 3199POPC   C1A43911  28.449  22.224   6.198
 3199POPC   D2A43912  28.466  22.096   6.657
 3199POPC   C3A43913  28.362  22.444   6.971
 3199POPC   C4A43914  28.645  22.430   7.364
 3199POPC   C1B43915  28.211  21.754   6.184
 3199POPC   C2B43916  28.014  21.793   6.583
 3199POPC   C3B43917  28.053  21.989   6.964
 3199POPC   C4B43918  28.406  22.024   7.222
 3200POPC   NC343919   4.418  24.623   5.165
 3200POPC   PO443920   3.893  24.839   5.562
 3200POPC   GL143921   4.227  24.595   5.807
 3200POPC   GL243922   4.421  24.292   5.869
 3200POPC   C1A43923   4.476  24.632   6.216
 3200POPC   D2A43924   4.627  24.455   6.580
 3200POPC   C3A43925   4.417  24.581   6.923
 3200POPC   C4A43926   4.518  24.825   7.244
 3200POPC   C1B43927   4.065  24.270   6.155
 3200POPC   C2B43928   4.078  24.480   6.535
 3200POPC   C3B43929   4.023  24.243   6.890
 3200POPC   C4B43930   4.175  24.322   7.300
 3201POPC   NC343931   5.616   2.702   5.508
 3201POPC   PO443932   6.151   2.940   5.671
 3201POPC   GL143933   5.837   2.800   5.971
 3201POPC   GL243934   5.836   2.453   5.918
 3201POPC   C1A43935   5.623   2.890   6.369
 3201POPC   D2A43936   5.431   3.005   6.747
 3201POPC   C3A43937   5.600   2.895   7.128
 3201POPC   C4A43938   5.693   2.488   7.216
 3201POPC   C1B43939   5.923   2.477   6.368
 3201POPC   C2B43940   5.906   2.689   6.766
 3201POPC   C3B43941   6.172   2.634   7.131
 3201POPC   C4B43942   6.479   2.449   7.427
 3202POPC   NC343943  22.675   1.979   5.321
 3202POPC   PO443944  23.254   2.049   5.526
 3202POPC   GL143945  22.849   1.975   5.810
 3202POPC   GL243946  22.547   2.186   5.787
 3202POPC   C1A43947  22.684   1.777   6.210
 3202POPC   D2A43948  22.797   1.556   6.633
 3202POPC   C3A43949  23.004   1.804   6.972
 3202POPC   C4A43950  23.406   1.779   7.222
 3202POPC   C1B43951  22.394   2.206   6.238
 3202POPC   C2B43952  22.555   2.046   6.660
 3202POPC   C3B43953  22.577   2.038   7.130
 3202POPC   C4B43954  22.591   2.073   7.583
 3203POPC   NC343955  33.088  30.313   5.674
 3203POPC   PO443956  32.874  30.903   5.350
 3203POPC   GL143957  32.961  30.817   5.869
 3203POPC   GL243958  32.783  30.890   6.164
 3203POPC   C1A43959  33.218  30.626   6.254
 3203POPC   D2A43960  33.177  30.346   6.624
 3203POPC   C3A43961  33.254  30.493   7.036
 3203POPC   C4A43962  33.113  30.483   7.428
 3203POPC   C1B43963  33.097  31.103   6.395
 3203POPC   C2B43964  33.146  30.926   6.783
 3203POPC   C3B43965  33.114  30.958   7.223
 3203POPC   C4B43966  32.998  31.218   7.521
 3204POPC   NC343967  32.361  24.297   5.334
 3204POPC   PO443968  31.874  24.808   5.654
 3204POPC   GL143969  32.194  24.552   5.912
 3204POPC   GL243970  32.428  24.285   5.853
 3204POPC   C1A43971  32.162  24.277   6.311
 3204POPC   D2A43972  32.009  24.480   6.670
 3204POPC   C3A43973  32.154  24.545   7.060
 3204POPC   C4A43974  31.891  24.792   7.250
 3204POPC   C1B43975  32.598  24.525   6.219
 3204POPC   C2B43976  32.504  24.586   6.662
 3204POPC   C3B43977  32.647  24.387   7.052
 3204POPC   C4B43978  32.500  24.518   7.472
 3205POPC   NC343979  39.470   5.729   5.553
 3205POPC   PO443980  39.047   6.176   5.481
 3205POPC   GL143981  39.182   6.096   5.888
 3205POPC   GL243982  39.385   5.844   6.030
 3205POPC   C1A43983  38.960   6.056   6.279
 3205POPC   D2A43984  38.809   5.748   6.566
 3205POPC   C3A43985  38.947   5.756   6.985
 3205POPC   C4A43986  39.077   6.110   7.196
 3205POPC   C1B43987  39.111   5.557   6.184
 3205POPC   C2B43988  39.262   5.434   6.570
 3205POPC   C3B43989  39.554   5.404   6.910
 3205POPC   C4B43990  39.263   5.455   7.257
 3206POPC   NC343991  28.666  20.192   5.170
 3206POPC   PO443992  28.107  19.898   5.379
 3206POPC   GL143993  28.408  19.988   5.707
 3206POPC   GL243994  28.606  19.678   5.833
 3206POPC   C1A43995  28.302  19.978   6.153
 3206POPC   D2A43996  28.522  19.874   6.526
 3206POPC   C3A43997  28.305  19.899   6.916
 3206POPC   C4A43998  28.451  20.008   7.326
 3206POPC   C1B43999  28.821  19.502   6.249
 3206POPC   C2B44000  28.800  19.477   6.727
 3206POPC   C3B44001  28.560  19.515   7.125
 3206POPC   C4B44002  28.659  19.555   7.577
 3207POPC   NC344003  18.890   3.396   5.293
 3207POPC   PO444004  19.479   3.671   5.252
 3207POPC   GL144005  19.308   3.391   5.626
 3207POPC   GL244006  19.291   3.032   5.781
 3207POPC   C1A44007  19.078   3.426   6.059
 3207POPC   D2A44008  19.064   3.203   6.515
 3207POPC   C3A44009  19.011   3.473   6.874
 3207POPC   C4A44010  19.209   3.730   7.204
 3207POPC   C1B44011  18.880   2.972   6.089
 3207POPC   C2B44012  18.573   3.131   6.452
 3207POPC   C3B44013  18.529   3.291   6.893
 3207POPC   C4B44014  18.708   3.489   7.284
 3208POPC   NC344015  30.254  40.431   5.364
 3208POPC   PO444016  29.701  39.999   5.403
 3208POPC   GL144017  29.741  39.979   5.818
 3208POPC   GL244018  30.118  39.966   5.824
 3208POPC   C1A44019  29.854  39.826   6.230
 3208POPC   D2A44020  29.916  39.649   6.613
 3208POPC   C3A44021  29.820  39.909   6.984
 3208POPC   C4A44022  29.796  40.340   7.151
 3208POPC   C1B44023  30.322  40.025   6.271
 3208POPC   C2B44024  30.271  40.015   6.751
 3208POPC   C3B44025  30.255  40.064   7.226
 3208POPC   C4B44026  30.064  40.307   7.583
 3209POPC   NC344027  37.595  14.202   5.520
 3209POPC   PO444028  37.866  14.863   5.408
 3209POPC   GL144029  37.797  14.624   5.818
 3209POPC   GL244030  37.569  14.372   5.998
 3209POPC   C1A44031  37.807  14.720   6.281
 3209POPC   D2A44032  37.879  14.712   6.720
 3209POPC   C3A44033  37.627  14.547   7.047
 3209POPC   C4A44034  37.697  14.507   7.478
 3209POPC   C1B44035  37.893  14.173   6.251
 3209POPC   C2B44036  37.938  14.007   6.682
 3209POPC   C3B44037  37.848  14.075   7.162
 3209POPC   C4B44038  37.909  14.085   7.644
 3210POPC   NC344039  37.134  33.393   5.369
 3210POPC   PO444040  37.666  32.925   5.380
 3210POPC   GL144041  37.739  33.152   5.776
 3210POPC   GL244042  37.370  33.126   5.794
 3210POPC   C1A44043  37.889  33.396   6.177
 3210POPC   D2A44044  37.901  33.211   6.602
 3210POPC   C3A44045  37.659  33.258   6.955
 3210POPC   C4A44046  37.375  33.185   7.253
 3210POPC   C1B44047  37.482  33.122   6.231
 3210POPC   C2B44048  37.446  32.939   6.599
 3210POPC   C3B44049  37.734  32.738   6.838
 3210POPC   C4B44050  37.950  32.720   7.194
 3211POPC   NC344051  34.422  42.494   5.641
 3211POPC   PO444052  34.645  43.012   5.394
 3211POPC   GL144053  34.698  43.041   5.840
 3211POPC   GL244054  34.829  42.689   5.859
 3211POPC   C1A44055  34.464  43.138   6.263
 3211POPC   D2A44056  34.261  43.042   6.694
 3211POPC   C3A44057  34.552  43.250   6.960
 3211POPC   C4A44058  34.580  43.462   7.328
 3211POPC   C1B44059  34.677  42.649   6.266
 3211POPC   C2B44060  34.695  42.804   6.653
 3211POPC   C3B44061  34.555  42.747   7.048
 3211POPC   C4B44062  34.595  42.950   7.410
 3212POPC   NC344063  22.828  12.394   5.447
 3212POPC   PO444064  23.141  11.815   5.183
 3212POPC   GL144065  22.961  11.905   5.644
 3212POPC   GL244066  23.189  11.782   5.920
 3212POPC   C1A44067  22.716  11.746   6.031
 3212POPC   D2A44068  22.955  11.606   6.410
 3212POPC   C3A44069  22.900  11.760   6.845
 3212POPC   C4A44070  22.894  12.171   7.104
 3212POPC   C1B44071  23.115  12.070   6.231
 3212POPC   C2B44072  23.190  12.159   6.655
 3212POPC   C3B44073  23.404  12.282   7.005
 3212POPC   C4B44074  23.258  12.464   7.377
 3213POPC   NC344075  31.728  16.748   5.769
 3213POPC   PO444076  32.225  16.915   5.314
 3213POPC   GL144077  32.358  16.778   5.788
 3213POPC   GL244078  32.208  16.443   5.787
 3213POPC   C1A44079  32.416  16.871   6.266
 3213POPC   D2A44080  32.614  16.911   6.704
 3213POPC   C3A44081  32.396  17.082   7.071
 3213POPC   C4A44082  32.192  16.913   7.443
 3213POPC   C1B44083  32.487  16.376   6.145
 3213POPC   C2B44084  32.393  16.404   6.599
 3213POPC   C3B44085  32.244  16.569   7.028
 3213POPC   C4B44086  32.179  16.415   7.475
 3214POPC   NC344087   2.398  39.517   5.440
 3214POPC   PO444088   1.746  39.586   5.099
 3214POPC   GL144089   1.878  39.496   5.579
 3214POPC   GL244090   1.705  39.788   5.703
 3214POPC   C1A44091   2.106  39.388   6.043
 3214POPC   D2A44092   1.961  39.351   6.513
 3214POPC   C3A44093   2.190  39.209   6.895
 3214POPC   C4A44094   2.221  38.923   7.262
 3214POPC   C1B44095   1.633  39.545   6.107
 3214POPC   C2B44096   1.483  39.590   6.533
 3214POPC   C3B44097   1.605  39.414   6.937
 3214POPC   C4B44098   1.622  39.618   7.321
 3215POPC   NC344099  15.572  31.403   5.366
 3215POPC   PO444100  15.060  31.043   5.439
 3215POPC   GL144101  15.136  31.494   5.726
 3215POPC   GL244102  15.467  31.595   5.837
 3215POPC   C1A44103  15.096  31.723   6.145
 3215POPC   D2A44104  15.044  31.618   6.572
 3215POPC   C3A44105  15.250  31.776   6.938
 3215POPC   C4A44106  15.364  31.541   7.289
 3215POPC   C1B44107  15.457  31.391   6.276
 3215POPC   C2B44108  15.447  31.305   6.738
 3215POPC   C3B44109  15.517  31.077   7.144
 3215POPC   C4B44110  15.561  31.195   7.621
 3216POPC   NC344111   8.351   1.367   5.489
 3216POPC   PO444112   7.714   1.335   5.454
 3216POPC   GL144113   7.956   1.225   5.835
 3216POPC   GL244114   8.206   0.970   5.916
 3216POPC   C1A44115   8.161   1.394   6.200
 3216POPC   D2A44116   8.252   1.420   6.627
 3216POPC   C3A44117   8.057   1.230   6.957
 3216POPC   C4A44118   8.222   1.403   7.306
 3216POPC   C1B44119   8.314   0.899   6.335
 3216POPC   C2B44120   8.452   0.887   6.749
 3216POPC   C3B44121   8.197   0.733   7.063
 3216POPC   C4B44122   8.045   0.955   7.407
 3217POPC   NC344123  33.811  11.097   5.171
 3217POPC   PO444124  33.487  11.531   5.358
 3217POPC   GL144125  33.758  11.389   5.744
 3217POPC   GL244126  33.935  11.056   5.819
 3217POPC   C1A44127  33.725  11.466   6.221
 3217POPC   D2A44128  33.490  11.497   6.636
 3217POPC   C3A44129  33.713  11.537   7.043
 3217POPC   C4A44130  33.693  11.595   7.499
 3217POPC   C1B44131  34.032  11.065   6.301
 3217POPC   C2B44132  33.858  11.139   6.727
 3217POPC   C3B44133  33.928  11.081   7.184
 3217POPC   C4B44134  33.972  10.961   7.641
 3218POPC   NC344135  28.767  39.923   5.441
 3218POPC   PO444136  28.156  39.814   5.350
 3218POPC   GL144137  28.377  39.777   5.755
 3218POPC   GL244138  28.572  40.070   5.874
 3218POPC   C1A44139  28.415  39.698   6.199
 3218POPC   D2A44140  28.439  39.938   6.574
 3218POPC   C3A44141  28.188  39.877   6.936
 3218POPC   C4A44142  28.322  39.736   7.341
 3218POPC   C1B44143  28.520  40.323   6.230
 3218POPC   C2B44144  28.392  40.510   6.591
 3218POPC   C3B44145  28.491  40.296   6.940
 3218POPC   C4B44146  28.583  40.171   7.341
 3219POPC   NC344147  16.781   4.118   4.973
 3219POPC   PO444148  16.806   4.361   5.361
 3219POPC   GL144149  16.624   4.265   5.776
 3219POPC   GL244150  16.759   3.990   5.943
 3219POPC   C1A44151  16.454   4.335   6.215
 3219POPC   D2A44152  16.490   4.260   6.662
 3219POPC   C3A44153  16.624   4.464   7.027
 3219POPC   C4A44154  16.633   4.151   7.371
 3219POPC   C1B44155  16.873   4.075   6.401
 3219POPC   C2B44156  16.907   4.048   6.883
 3219POPC   C3B44157  17.085   4.331   7.224
 3219POPC   C4B44158  17.225   4.644   7.527
 3220POPC   NC344159  37.401  31.061   5.614
 3220POPC   PO444160  36.775  30.559   5.521
 3220POPC   GL144161  36.992  30.549   5.850
 3220POPC   GL244162  36.988  30.894   5.837
 3220POPC   C1A44163  36.899  30.598   6.282
 3220POPC   D2A44164  37.013  30.305   6.597
 3220POPC   C3A44165  37.021  30.524   6.961
 3220POPC   C4A44166  36.955  30.446   7.404
 3220POPC   C1B44167  37.077  31.083   6.194
 3220POPC   C2B44168  36.890  31.107   6.561
 3220POPC   C3B44169  37.029  31.058   6.926
 3220POPC   C4B44170  36.827  30.895   7.221
 3221POPC   NC344171   7.449  29.652   5.347
 3221POPC   PO444172   7.106  30.153   5.538
 3221POPC   GL144173   7.335  29.831   5.810
 3221POPC   GL244174   7.721  29.871   5.739
 3221POPC   C1A44175   7.234  29.583   6.200
 3221POPC   D2A44176   6.973  29.619   6.601
 3221POPC   C3A44177   7.224  29.766   6.953
 3221POPC   C4A44178   7.219  29.659   7.408
 3221POPC   C1B44179   7.715  29.790   6.168
 3221POPC   C2B44180   7.530  30.011   6.516
 3221POPC   C3B44181   7.677  30.187   6.899
 3221POPC   C4B44182   7.599  29.961   7.239
 3222POPC   NC344183  36.179   1.881   5.376
 3222POPC   PO444184  35.862   2.496   5.467
 3222POPC   GL144185  36.048   2.219   5.802
 3222POPC   GL244186  36.290   1.954   5.855
 3222POPC   C1A44187  35.979   2.047   6.249
 3222POPC   D2A44188  35.821   1.840   6.630
 3222POPC   C3A44189  36.081   2.037   6.947
 3222POPC   C4A44190  36.532   1.990   6.975
 3222POPC   C1B44191  36.496   1.850   6.213
 3222POPC   C2B44192  36.350   1.703   6.573
 3222POPC   C3B44193  36.160   1.557   6.908
 3222POPC   C4B44194  36.274   1.677   7.311
 3223POPC   NC344195  19.684   7.623   5.457
 3223POPC   PO444196  20.324   7.486   5.459
 3223POPC   GL144197  20.021   7.444   5.800
 3223POPC   GL244198  20.010   7.132   5.987
 3223POPC   C1A44199  19.842   7.593   6.210
 3223POPC   D2A44200  19.906   7.745   6.666
 3223POPC   C3A44201  19.731   7.555   7.042
 3223POPC   C4A44202  19.940   7.286   7.313
 3223POPC   C1B44203  19.936   7.158   6.475
 3223POPC   C2B44204  19.723   7.042   6.890
 3223POPC   C3B44205  19.588   6.921   7.317
 3223POPC   C4B44206  19.855   6.960   7.691
 3224POPC   NC344207  17.184  13.428   5.583
 3224POPC   PO444208  17.755  13.636   5.310
 3224POPC   GL144209  17.598  13.638   5.752
 3224POPC   GL244210  17.651  13.286   5.752
 3224POPC   C1A44211  17.346  13.614   6.185
 3224POPC   D2A44212  17.150  13.751   6.569
 3224POPC   C3A44213  17.267  13.560   6.974
 3224POPC   C4A44214  17.393  13.718   7.374
 3224POPC   C1B44215  17.640  13.172   6.180
 3224POPC   C2B44216  17.439  13.268   6.570
 3224POPC   C3B44217  17.597  13.166   6.977
 3224POPC   C4B44218  17.411  13.127   7.371
 3225POPC   NC344219  38.279  28.304   5.429
 3225POPC   PO444220  37.918  27.976   5.864
 3225POPC   GL144221  38.313  28.244   5.973
 3225POPC   GL244222  38.556  28.096   6.178
 3225POPC   C1A44223  38.432  28.544   6.352
 3225POPC   D2A44224  38.414  28.428   6.804
 3225POPC   C3A44225  38.722  28.449   7.142
 3225POPC   C4A44226  38.534  28.440   7.552
 3225POPC   C1B44227  38.148  28.130   6.443
 3225POPC   C2B44228  37.899  27.828   6.673
 3225POPC   C3B44229  38.063  27.753   7.053
 3225POPC   C4B44230  38.375  28.068   7.199
 3226POPC   NC344231   4.246  27.161   5.183
 3226POPC   PO444232   4.586  26.709   5.477
 3226POPC   GL144233   4.408  26.985   5.742
 3226POPC   GL244234   4.070  26.883   5.874
 3226POPC   C1A44235   4.456  26.996   6.183
 3226POPC   D2A44236   4.406  26.733   6.514
 3226POPC   C3A44237   4.557  26.937   6.854
 3226POPC   C4A44238   4.693  26.677   7.167
 3226POPC   C1B44239   4.006  26.565   6.236
 3226POPC   C2B44240   4.030  26.406   6.684
 3226POPC   C3B44241   4.182  26.644   7.052
 3226POPC   C4B44242   4.151  26.626   7.524
 3227POPC   NC344243   8.054  30.292   5.428
 3227POPC   PO444244   7.911  29.604   5.347
 3227POPC   GL144245   8.239  29.763   5.665
 3227POPC   GL244246   8.511  30.052   5.681
 3227POPC   C1A44247   8.216  29.944   6.104
 3227POPC   D2A44248   8.032  30.095   6.499
 3227POPC   C3A44249   8.252  29.963   6.882
 3227POPC   C4A44250   8.087  30.073   7.266
 3227POPC   C1B44251   8.586  30.302   6.080
 3227POPC   C2B44252   8.537  30.128   6.495
 3227POPC   C3B44253   8.719  30.197   6.916
 3227POPC   C4B44254   8.541  30.299   7.264
 3228POPC   NC344255  25.885  22.901   4.978
 3228POPC   PO444256  25.936  22.709   5.599
 3228POPC   GL144257  25.905  23.058   5.917
 3228POPC   GL244258  26.243  23.164   6.012
 3228POPC   C1A44259  25.855  23.138   6.388
 3228POPC   D2A44260  26.063  23.267   6.795
 3228POPC   C3A44261  25.829  23.015   7.103
 3228POPC   C4A44262  25.762  22.555   7.181
 3228POPC   C1B44263  26.200  22.767   6.255
 3228POPC   C2B44264  26.075  22.738   6.698
 3228POPC   C3B44265  26.320  22.883   7.042
 3228POPC   C4B44266  26.450  22.780   7.466
 3229POPC   NC344267  10.633  42.596   5.617
 3229POPC   PO444268  10.684  41.907   5.457
 3229POPC   GL144269  10.409  42.099   5.748
 3229POPC   GL244270  10.689  42.162   5.926
 3229POPC   C1A44271  10.270  42.217   6.196
 3229POPC   D2A44272  10.501  42.455   6.522
 3229POPC   C3A44273  10.476  42.375   6.956
 3229POPC   C4A44274  10.197  42.396   7.321
 3229POPC   C1B44275  10.933  42.412   6.210
 3229POPC   C2B44276  10.973  42.687   6.567
 3229POPC   C3B44277  10.931  42.671   7.008
 3229POPC   C4B44278  10.808  42.387   7.371
 3230POPC   NC344279  31.283  43.606   5.347
 3230POPC   PO444280  31.659  44.105   5.497
 3230POPC   GL144281  31.569  43.700   5.784
 3230POPC   GL244282  31.246  43.507   5.860
 3230POPC   C1A44283  31.756  43.559   6.191
 3230POPC   D2A44284  31.691  43.670   6.643
 3230POPC   C3A44285  31.951  43.737   7.013
 3230POPC   C4A44286  31.771  43.873   7.439
 3230POPC   C1B44287  31.298  43.795   6.229
 3230POPC   C2B44288  31.214  43.822   6.676
 3230POPC   C3B44289  31.300  43.845   7.099
 3230POPC   C4B44290  30.951  43.924   7.329
 3231POPC   NC344291  30.431  29.367   5.450
 3231POPC   PO444292  29.922  29.062   5.506
 3231POPC   GL144293  30.196  29.147   5.873
 3231POPC   GL244294  30.268  29.514   5.910
 3231POPC   C1A44295  30.127  28.907   6.261
 3231POPC   D2A44296  30.335  28.864   6.642
 3231POPC   C3A44297  30.121  28.852   7.012
 3231POPC   C4A44298  29.885  29.014   7.376
 3231POPC   C1B44299  30.141  29.429   6.345
 3231POPC   C2B44300  29.973  29.267   6.741
 3231POPC   C3B44301  29.846  29.482   7.157
 3231POPC   C4B44302  29.832  29.831   7.488
 3232POPC   NC344303   4.854  17.642   5.423
 3232POPC   PO444304   5.050  18.251   5.476
 3232POPC   GL144305   5.156  18.385   5.845
 3232POPC   GL244306   5.355  18.653   5.845
 3232POPC   C1A44307   5.006  18.182   6.189
 3232POPC   D2A44308   4.851  17.955   6.535
 3232POPC   C3A44309   5.001  18.109   6.943
 3232POPC   C4A44310   4.873  18.310   7.337
 3232POPC   C1B44311   5.512  18.438   6.211
 3232POPC   C2B44312   5.344  18.227   6.555
 3232POPC   C3B44313   5.511  18.266   6.923
 3232POPC   C4B44314   5.363  18.239   7.303
 3233POPC   NC344315  36.423   3.813   5.189
 3233POPC   PO444316  36.294   4.478   5.412
 3233POPC   GL144317  36.189   4.515   5.828
 3233POPC   GL244318  36.426   4.757   5.847
 3233POPC   C1A44319  35.975   4.507   6.245
 3233POPC   D2A44320  36.016   4.316   6.640
 3233POPC   C3A44321  36.133   4.598   6.983
 3233POPC   C4A44322  35.814   4.486   7.234
 3233POPC   C1B44323  36.497   4.485   6.232
 3233POPC   C2B44324  36.521   4.353   6.669
 3233POPC   C3B44325  36.334   4.142   7.020
 3233POPC   C4B44326  35.950   3.962   7.225
 3234POPC   NC344327  17.119   0.375   5.068
 3234POPC   PO444328  16.732   0.922   5.301
 3234POPC   GL144329  16.718   0.562   5.597
 3234POPC   GL244330  17.088   0.590   5.641
 3234POPC   C1A44331  16.548   0.422   6.073
 3234POPC   D2A44332  16.329   0.427   6.532
 3234POPC   C3A44333  16.375   0.333   7.026
 3234POPC   C4A44334  16.429   0.446   7.490
 3234POPC   C1B44335  16.886   0.803   6.005
 3234POPC   C2B44336  16.889   0.820   6.452
 3234POPC   C3B44337  16.774   0.560   6.775
 3234POPC   C4B44338  16.880   0.299   7.128
 3235POPC   NC344339  11.853  26.847   5.373
 3235POPC   PO444340  11.135  26.903   5.458
 3235POPC   GL144341  11.050  26.972   5.881
 3235POPC   GL244342  11.238  26.685   5.951
 3235POPC   C1A44343  11.112  26.952   6.355
 3235POPC   D2A44344  11.288  26.739   6.713
 3235POPC   C3A44345  11.179  27.029   7.035
 3235POPC   C4A44346  11.007  27.424   7.025
 3235POPC   C1B44347  11.130  26.430   6.320
 3235POPC   C2B44348  10.892  26.408   6.734
 3235POPC   C3B44349  11.124  26.498   7.132
 3235POPC   C4B44350  11.569  26.749   7.170
 3236POPC   NC344351  30.933  40.369   5.496
 3236POPC   PO444352  30.441  39.892   5.381
 3236POPC   GL144353  30.644  39.985   5.742
 3236POPC   GL244354  30.501  40.321   5.799
 3236POPC   C1A44355  30.722  39.757   6.120
 3236POPC   D2A44356  30.825  39.880   6.555
 3236POPC   C3A44357  30.655  39.773   6.978
 3236POPC   C4A44358  30.802  39.857   7.390
 3236POPC   C1B44359  30.524  40.508   6.202
 3236POPC   C2B44360  30.640  40.359   6.623
 3236POPC   C3B44361  30.697  40.287   7.076
 3236POPC   C4B44362  30.486  40.539   7.410
 3237POPC   NC344363  21.118  12.067   5.422
 3237POPC   PO444364  21.585  12.440   5.401
 3237POPC   GL144365  21.642  12.225   5.834
 3237POPC   GL244366  21.419  11.935   5.837
 3237POPC   C1A44367  21.438  12.217   6.272
 3237POPC   D2A44368  21.485  11.971   6.656
 3237POPC   C3A44369  21.440  12.194   7.053
 3237POPC   C4A44370  21.195  11.932   7.368
 3237POPC   C1B44371  21.024  12.013   6.069
 3237POPC   C2B44372  20.874  12.177   6.462
 3237POPC   C3B44373  20.960  12.117   6.903
 3237POPC   C4B44374  20.779  12.275   7.311
 3238POPC   NC344375  11.878  41.179   5.185
 3238POPC   PO444376  12.126  40.530   5.312
 3238POPC   GL144377  11.987  40.532   5.758
 3238POPC   GL244378  12.248  40.708   5.897
 3238POPC   C1A44379  11.886  40.652   6.227
 3238POPC   D2A44380  12.240  40.717   6.505
 3238POPC   C3A44381  12.081  40.716   6.895
 3238POPC   C4A44382  11.930  40.561   7.272
 3238POPC   C1B44383  12.253  41.110   6.184
 3238POPC   C2B44384  12.392  41.211   6.583
 3238POPC   C3B44385  12.233  41.196   6.982
 3238POPC   C4B44386  12.218  40.990   7.335
 3239POPC   NC344387  42.351  15.097   5.246
 3239POPC   PO444388  42.016  14.961   5.524
 3239POPC   GL144389  41.988  15.196   5.908
 3239POPC   GL244390  42.206  15.484   5.822
 3239POPC   C1A44391  42.063  15.105   6.372
 3239POPC   D2A44392  42.365  15.001   6.724
 3239POPC   C3A44393  42.244  15.052   7.180
 3239POPC   C4A44394  42.209  14.892   7.623
 3239POPC   C1B44395  42.257  15.566   6.282
 3239POPC   C2B44396  42.190  15.475   6.718
 3239POPC   C3B44397  42.392  15.548   7.115
 3239POPC   C4B44398  42.393  15.858   7.454
 3240POPC   NC344399  20.866  37.919   5.245
 3240POPC   PO444400  20.438  37.418   5.421
 3240POPC   GL144401  20.464  37.648   5.787
 3240POPC   GL244402  20.764  37.838   5.758
 3240POPC   C1A44403  20.455  37.691   6.210
 3240POPC   D2A44404  20.664  37.853   6.552
 3240POPC   C3A44405  20.410  37.812   6.898
 3240POPC   C4A44406  20.459  37.466   7.158
 3240POPC   C1B44407  20.770  38.139   6.105
 3240POPC   C2B44408  20.656  38.348   6.517
 3240POPC   C3B44409  20.761  38.201   6.947
 3240POPC   C4B44410  20.808  37.860   7.231
 3241POPC   NC344411  33.032  32.051   5.276
 3241POPC   PO444412  32.567  32.490   5.272
 3241POPC   GL144413  32.854  32.324   5.688
 3241POPC   GL244414  33.175  32.141   5.751
 3241POPC   C1A44415  32.711  32.314   6.130
 3241POPC   D2A44416  32.561  32.051   6.474
 3241POPC   C3A44417  32.709  32.199   6.887
 3241POPC   C4A44418  32.711  31.952   7.277
 3241POPC   C1B44419  33.327  32.289   6.127
 3241POPC   C2B44420  33.377  32.518   6.508
 3241POPC   C3B44421  33.402  32.367   6.910
 3241POPC   C4B44422  33.173  32.151   7.178
 3242POPC   NC344423   8.362  35.571   5.560
 3242POPC   PO444424   8.146  35.007   5.222
 3242POPC   GL144425   8.032  35.198   5.706
 3242POPC   GL244426   8.312  35.253   5.980
 3242POPC   C1A44427   7.867  35.069   6.125
 3242POPC   D2A44428   7.896  35.289   6.527
 3242POPC   C3A44429   8.020  35.107   6.922
 3242POPC   C4A44430   8.265  35.241   7.252
 3242POPC   C1B44431   8.190  35.620   6.206
 3242POPC   C2B44432   8.286  35.807   6.606
 3242POPC   C3B44433   8.186  35.687   7.007
 3242POPC   C4B44434   8.024  35.705   7.412
 3243POPC   NC344435  21.455   6.606   5.282
 3243POPC   PO444436  21.074   7.115   5.443
 3243POPC   GL144437  21.292   6.822   5.727
 3243POPC   GL244438  21.192   6.458   5.760
 3243POPC   C1A44439  21.580   6.838   6.066
 3243POPC   D2A44440  21.382   6.785   6.445
 3243POPC   C3A44441  21.436   6.713   6.866
 3243POPC   C4A44442  21.476   6.967   7.227
 3243POPC   C1B44443  21.456   6.347   6.152
 3243POPC   C2B44444  21.664   6.282   6.528
 3243POPC   C3B44445  21.491   6.171   6.903
 3243POPC   C4B44446  21.404   6.381   7.252
 3244POPC   NC344447  13.856  12.381   5.473
 3244POPC   PO444448  13.481  11.801   5.464
 3244POPC   GL144449  13.717  11.993   5.804
 3244POPC   GL244450  13.835  12.327   5.956
 3244POPC   C1A44451  13.605  11.973   6.233
 3244POPC   D2A44452  13.789  11.793   6.581
 3244POPC   C3A44453  13.580  11.981   6.928
 3244POPC   C4A44454  13.292  12.271   7.183
 3244POPC   C1B44455  13.794  12.539   6.326
 3244POPC   C2B44456  13.622  12.503   6.752
 3244POPC   C3B44457  13.795  12.372   7.147
 3244POPC   C4B44458  13.707  12.285   7.608
 3245POPC   NC344459   1.806  31.047   5.264
 3245POPC   PO444460   2.269  30.588   5.431
 3245POPC   GL144461   2.071  30.778   5.818
 3245POPC   GL244462   1.693  30.720   5.872
 3245POPC   C1A44463   1.978  30.859   6.274
 3245POPC   D2A44464   1.760  30.619   6.575
 3245POPC   C3A44465   1.938  30.788   6.956
 3245POPC   C4A44466   2.204  31.103   7.181
 3245POPC   C1B44467   1.951  30.382   6.112
 3245POPC   C2B44468   1.937  30.147   6.473
 3245POPC   C3B44469   1.933  30.253   6.889
 3245POPC   C4B44470   2.128  30.397   7.269
 3246POPC   NC344471  26.444  20.825   5.420
 3246POPC   PO444472  25.804  20.439   5.360
 3246POPC   GL144473  25.933  20.636   5.708
 3246POPC   GL244474  25.662  20.845   5.785
 3246POPC   C1A44475  26.213  20.590   6.060
 3246POPC   D2A44476  26.055  20.555   6.473
 3246POPC   C3A44477  26.325  20.631   6.798
 3246POPC   C4A44478  26.298  20.539   7.228
 3246POPC   C1B44479  25.615  20.626   6.166
 3246POPC   C2B44480  25.601  20.781   6.598
 3246POPC   C3B44481  25.780  20.737   6.995
 3246POPC   C4B44482  25.709  21.030   7.332
 3247POPC   NC344483  30.225  13.422   5.663
 3247POPC   PO444484  30.685  13.013   5.383
 3247POPC   GL144485  30.633  12.870   5.821
 3247POPC   GL244486  30.690  12.508   5.870
 3247POPC   C1A44487  30.617  13.047   6.250
 3247POPC   D2A44488  30.332  12.969   6.590
 3247POPC   C3A44489  30.339  13.108   7.010
 3247POPC   C4A44490  30.386  12.739   7.274
 3247POPC   C1B44491  30.876  12.583   6.279
 3247POPC   C2B44492  30.777  12.735   6.699
 3247POPC   C3B44493  30.829  12.950   7.090
 3247POPC   C4B44494  31.200  12.912   7.295
 3248POPC   NC344495  42.808  32.148   5.466
 3248POPC   PO444496  43.369  32.326   5.354
 3248POPC   GL144497  43.206  32.391   5.770
 3248POPC   GL244498  42.898  32.563   5.890
 3248POPC   C1A44499  43.249  32.175   6.143
 3248POPC   D2A44500  43.428  32.259   6.543
 3248POPC   C3A44501  43.201  32.386   6.922
 3248POPC   C4A44502  43.262  32.161   7.288
 3248POPC   C1B44503  42.998  32.541   6.363
 3248POPC   C2B44504  42.935  32.144   6.556
 3248POPC   C3B44505  42.803  32.041   6.926
 3248POPC   C4B44506  42.759  32.135   7.308
 3249POPC   NC344507  10.143  27.312   5.138
 3249POPC   PO444508   9.545  27.571   5.407
 3249POPC   GL144509   9.613  27.631   5.844
 3249POPC   GL244510   9.607  27.268   5.888
 3249POPC   C1A44511   9.734  27.624   6.284
 3249POPC   D2A44512   9.687  27.866   6.683
 3249POPC   C3A44513   9.832  27.656   7.078
 3249POPC   C4A44514  10.075  27.310   7.275
 3249POPC   C1B44515   9.209  27.439   6.039
 3249POPC   C2B44516   9.151  27.450   6.452
 3249POPC   C3B44517   9.187  27.399   6.890
 3249POPC   C4B44518   9.338  27.583   7.269
 3250POPC   NC344519  27.288  18.167   5.684
 3250POPC   PO444520  26.607  17.981   5.574
 3250POPC   GL144521  26.785  18.273   5.873
 3250POPC   GL244522  26.948  17.970   6.002
 3250POPC   C1A44523  26.971  18.363   6.297
 3250POPC   D2A44524  26.954  18.123   6.665
 3250POPC   C3A44525  26.819  18.404   6.956
 3250POPC   C4A44526  26.879  18.672   7.327
 3250POPC   C1B44527  26.642  17.765   6.257
 3250POPC   C2B44528  26.546  17.786   6.686
 3250POPC   C3B44529  26.698  17.924   7.088
 3250POPC   C4B44530  26.870  18.171   7.445
 3251POPC   NC344531   3.366  34.194   5.616
 3251POPC   PO444532   3.342  33.535   5.540
 3251POPC   GL144533   3.431  33.722   5.891
 3251POPC   GL244534   3.738  33.808   5.776
 3251POPC   C1A44535   3.440  33.951   6.267
 3251POPC   D2A44536   3.368  33.848   6.697
 3251POPC   C3A44537   3.593  34.048   7.000
 3251POPC   C4A44538   3.670  33.912   7.382
 3251POPC   C1B44539   3.874  33.632   6.188
 3251POPC   C2B44540   3.787  33.526   6.619
 3251POPC   C3B44541   3.956  33.648   7.006
 3251POPC   C4B44542   4.188  33.827   7.336
 3252POPC   NC344543  21.626  38.420   5.466
 3252POPC   PO444544  22.192  38.282   5.077
 3252POPC   GL144545  22.158  38.337   5.576
 3252POPC   GL244546  22.034  38.688   5.679
 3252POPC   C1A44547  22.075  38.313   6.073
 3252POPC   D2A44548  22.095  38.515   6.559
 3252POPC   C3A44549  22.030  38.338   7.018
 3252POPC   C4A44550  22.231  38.220   7.445
 3252POPC   C1B44551  22.108  38.823   6.130
 3252POPC   C2B44552  22.244  39.038   6.515
 3252POPC   C3B44553  22.198  38.890   6.941
 3252POPC   C4B44554  22.151  38.717   7.360
 3253POPC   NC344555   3.641  11.528   5.402
 3253POPC   PO444556   3.245  11.032   5.693
 3253POPC   GL144557   3.542  11.288   5.908
 3253POPC   GL244558   3.868  11.420   5.854
 3253POPC   C1A44559   3.530  11.245   6.332
 3253POPC   D2A44560   3.214  11.377   6.605
 3253POPC   C3A44561   3.355  11.282   7.012
 3253POPC   C4A44562   3.394  11.520   7.343
 3253POPC   C1B44563   3.930  11.580   6.277
 3253POPC   C2B44564   3.821  11.441   6.708
 3253POPC   C3B44565   3.863  11.510   7.148
 3253POPC   C4B44566   3.962  11.322   7.581
 3254POPC   NC344567  29.621   2.166   5.589
 3254POPC   PO444568  30.096   2.036   5.300
 3254POPC   GL144569  30.129   2.024   5.736
 3254POPC   GL244570  30.363   2.265   5.869
 3254POPC   C1A44571  30.142   1.875   6.175
 3254POPC   D2A44572  30.273   1.887   6.626
 3254POPC   C3A44573  29.966   1.836   6.978
 3254POPC   C4A44574  29.977   1.868   7.447
 3254POPC   C1B44575  30.306   2.342   6.344
 3254POPC   C2B44576  30.058   2.339   6.746
 3254POPC   C3B44577  29.982   2.301   7.179
 3254POPC   C4B44578  29.747   2.452   7.543
 3255POPC   NC344579  33.429  42.600   5.596
 3255POPC   PO444580  33.981  42.364   5.159
 3255POPC   GL144581  33.887  42.328   5.609
 3255POPC   GL244582  33.612  42.108   5.729
 3255POPC   C1A44583  33.878  42.400   6.067
 3255POPC   D2A44584  33.696  42.460   6.477
 3255POPC   C3A44585  33.977  42.577   6.798
 3255POPC   C4A44586  33.856  42.469   7.196
 3255POPC   C1B44587  33.406  42.166   6.158
 3255POPC   C2B44588  33.387  42.067   6.615
 3255POPC   C3B44589  33.335  42.251   7.050
 3255POPC   C4B44590  33.452  42.257   7.499
 3256POPC   NC344591   3.867  28.720   5.416
 3256POPC   PO444592   4.017  28.200   5.148
 3256POPC   GL144593   3.845  28.275   5.662
 3256POPC   GL244594   3.928  28.522   5.898
 3256POPC   C1A44595   3.596  28.136   6.062
 3256POPC   D2A44596   3.369  28.230   6.456
 3256POPC   C3A44597   3.616  28.297   6.806
 3256POPC   C4A44598   3.507  28.203   7.232
 3256POPC   C1B44599   3.846  28.474   6.353
 3256POPC   C2B44600   4.069  28.605   6.708
 3256POPC   C3B44601   3.978  28.468   7.110
 3256POPC   C4B44602   3.893  28.432   7.527
 3257POPC   NC344603  16.101  15.870   5.137
 3257POPC   PO444604  15.502  15.649   5.465
 3257POPC   GL144605  15.704  15.863   5.805
 3257POPC   GL244606  16.044  15.936   5.724
 3257POPC   C1A44607  15.722  15.697   6.222
 3257POPC   D2A44608  15.581  15.838   6.647
 3257POPC   C3A44609  15.775  15.698   7.019
 3257POPC   C4A44610  15.925  16.085   7.184
 3257POPC   C1B44611  16.156  15.954   6.183
 3257POPC   C2B44612  16.103  15.721   6.597
 3257POPC   C3B44613  16.345  15.760   6.974
 3257POPC   C4B44614  16.426  16.150   7.227
 3258POPC   NC344615  10.690  23.317   5.494
 3258POPC   PO444616  10.516  22.705   5.274
 3258POPC   GL144617  10.289  22.943   5.648
 3258POPC   GL244618  10.047  23.218   5.752
 3258POPC   C1A44619  10.488  23.024   6.068
 3258POPC   D2A44620  10.750  22.833   6.396
 3258POPC   C3A44621  10.645  22.787   6.828
 3258POPC   C4A44622  10.857  22.695   7.217
 3258POPC   C1B44623  10.168  23.405   6.194
 3258POPC   C2B44624  10.546  23.378   6.474
 3258POPC   C3B44625  10.720  23.308   6.893
 3258POPC   C4B44626  10.557  23.104   7.279
 3259POPC   NC344627  41.201   9.139   5.672
 3259POPC   PO444628  40.797   8.769   5.312
 3259POPC   GL144629  40.696   8.876   5.799
 3259POPC   GL244630  40.676   9.224   5.855
 3259POPC   C1A44631  40.645   8.954   6.308
 3259POPC   D2A44632  40.878   9.107   6.697
 3259POPC   C3A44633  40.953   8.997   7.149
 3259POPC   C4A44634  40.679   8.828   7.472
 3259POPC   C1B44635  40.804   9.431   6.251
 3259POPC   C2B44636  40.589   9.523   6.647
 3259POPC   C3B44637  40.668   9.419   7.091
 3259POPC   C4B44638  40.814   9.384   7.547
 3260POPC   NC344639   0.978   6.480   5.160
 3260POPC   PO444640   1.532   6.730   5.523
 3260POPC   GL144641   1.400   6.471   5.902
 3260POPC   GL244642   1.062   6.475   5.792
 3260POPC   C1A44643   1.151   6.381   6.323
 3260POPC   D2A44644   0.857   6.362   6.646
 3260POPC   C3A44645   0.980   6.406   7.066
 3260POPC   C4A44646   1.344   6.468   7.341
 3260POPC   C1B44647   1.087   6.826   6.105
 3260POPC   C2B44648   0.985   6.837   6.521
 3260POPC   C3B44649   1.192   6.865   6.912
 3260POPC   C4B44650   1.008   6.863   7.289
 3261POPC   NC344651  14.821  16.953   5.462
 3261POPC   PO444652  15.362  16.534   5.603
 3261POPC   GL144653  14.979  16.608   5.826
 3261POPC   GL244654  14.748  16.285   5.782
 3261POPC   C1A44655  15.039  16.845   6.239
 3261POPC   D2A44656  15.348  16.847   6.618
 3261POPC   C3A44657  15.170  16.775   7.039
 3261POPC   C4A44658  14.782  16.994   7.162
 3261POPC   C1B44659  14.910  16.329   6.229
 3261POPC   C2B44660  14.881  16.534   6.630
 3261POPC   C3B44661  14.917  16.344   7.017
 3261POPC   C4B44662  15.075  16.315   7.449
 3262POPC   NC344663  32.945  12.830   5.390
 3262POPC   PO444664  33.560  12.985   5.717
 3262POPC   GL144665  33.112  13.114   5.791
 3262POPC   GL244666  32.910  12.807   5.895
 3262POPC   C1A44667  32.940  13.229   6.199
 3262POPC   D2A44668  33.108  13.080   6.602
 3262POPC   C3A44669  32.956  13.012   7.024
 3262POPC   C4A44670  33.245  13.014   7.381
 3262POPC   C1B44671  32.852  12.741   6.340
 3262POPC   C2B44672  33.128  12.559   6.677
 3262POPC   C3B44673  33.173  12.549   7.122
 3262POPC   C4B44674  32.856  12.650   7.403
 3263POPC   NC344675  23.213  37.852   5.505
 3263POPC   PO444676  22.728  37.454   5.237
 3263POPC   GL144677  22.815  37.554   5.695
 3263POPC   GL244678  23.156  37.400   5.746
 3263POPC   C1A44679  22.951  37.774   6.113
 3263POPC   D2A44680  22.813  37.728   6.536
 3263POPC   C3A44681  23.011  37.814   6.931
 3263POPC   C4A44682  22.800  37.531   7.206
 3263POPC   C1B44683  23.038  37.280   6.153
 3263POPC   C2B44684  23.227  37.166   6.500
 3263POPC   C3B44685  23.111  37.332   6.850
 3263POPC   C4B44686  23.289  37.342   7.243
 3264POPC   NC344687   4.789  27.217   5.453
 3264POPC   PO444688   5.478  26.991   5.365
 3264POPC   GL144689   5.342  26.834   5.769
 3264POPC   GL244690   4.973  26.761   5.808
 3264POPC   C1A44691   5.293  26.748   6.217
 3264POPC   D2A44692   4.921  26.796   6.461
 3264POPC   C3A44693   5.064  26.897   6.853
 3264POPC   C4A44694   5.169  26.842   7.277
 3264POPC   C1B44695   4.955  27.145   6.077
 3264POPC   C2B44696   4.817  27.309   6.470
 3264POPC   C3B44697   4.960  27.408   6.887
 3264POPC   C4B44698   4.814  27.207   7.222
 3265POPC   NC344699  43.787  42.110   5.519
 3265POPC   PO444700  43.469  42.688   5.583
 3265POPC   GL144701  43.785  42.519   5.860
 3265POPC   GL244702  44.148  42.400   5.832
 3265POPC   C1A44703  43.931  42.602   6.255
 3265POPC   D2A44704  43.798  42.608   6.671
 3265POPC   C3A44705  44.009  42.421   7.001
 3265POPC   C4A44706  43.858  42.168   7.298
 3265POPC   C1B44707  44.191  42.150   6.262
 3265POPC   C2B44708  44.449  41.987   6.618
 3265POPC   C3B44709  44.363  42.031   7.072
 3265POPC   C4B44710  44.318  42.238   7.498
 3266POPC   NC344711  21.515  13.789   5.366
 3266POPC   PO444712  20.978  13.257   5.320
 3266POPC   GL144713  21.197  13.493   5.645
 3266POPC   GL244714  21.480  13.274   5.574
 3266POPC   C1A44715  21.363  13.677   6.078
 3266POPC   D2A44716  21.202  13.535   6.512
 3266POPC   C3A44717  21.319  13.755   6.917
 3266POPC   C4A44718  21.231  13.773   7.354
 3266POPC   C1B44719  21.447  13.191   6.029
 3266POPC   C2B44720  21.669  13.358   6.388
 3266POPC   C3B44721  21.607  13.331   6.836
 3266POPC   C4B44722  21.534  13.342   7.290
 3267POPC   NC344723  25.594  21.071   5.332
 3267POPC   PO444724  25.233  21.607   5.148
 3267POPC   GL144725  25.334  21.563   5.611
 3267POPC   GL244726  25.047  21.546   5.860
 3267POPC   C1A44727  25.549  21.417   6.002
 3267POPC   D2A44728  25.655  21.330   6.441
 3267POPC   C3A44729  25.591  21.250   6.887
 3267POPC   C4A44730  25.588  21.520   7.302
 3267POPC   C1B44731  25.124  21.516   6.298
 3267POPC   C2B44732  24.891  21.565   6.667
 3267POPC   C3B44733  24.931  21.438   7.060
 3267POPC   C4B44734  25.212  21.156   7.198
 3268POPC   NC344735  23.025  32.911   5.492
 3268POPC   PO444736  22.544  33.282   5.394
 3268POPC   GL144737  22.783  33.386   5.806
 3268POPC   GL244738  23.145  33.279   5.852
 3268POPC   C1A44739  22.811  33.324   6.270
 3268POPC   D2A44740  22.827  33.006   6.609
 3268POPC   C3A44741  22.919  33.102   7.039
 3268POPC   C4A44742  22.702  32.842   7.332
 3268POPC   C1B44743  23.200  33.004   6.226
 3268POPC   C2B44744  23.337  32.876   6.649
 3268POPC   C3B44745  23.158  32.653   7.010
 3268POPC   C4B44746  23.180  32.771   7.450
 3269POPC   NC344747  42.935  44.727   5.532
 3269POPC   PO444748  43.326  44.295   5.340
 3269POPC   GL144749  43.184  44.333   5.764
 3269POPC   GL244750  42.900  44.216   5.816
 3269POPC   C1A44751  43.212  44.636   6.158
 3269POPC   D2A44752  43.168  44.961   6.506
 3269POPC   C3A44753  43.032  44.858   6.920
 3269POPC   C4A44754  43.106  44.975   7.335
 3269POPC   C1B44755  42.808  44.348   6.202
 3269POPC   C2B44756  42.977  44.478   6.576
 3269POPC   C3B44757  43.149  44.353   6.925
 3269POPC   C4B44758  43.132  44.470   7.325
 3270POPC   NC344759  23.980  35.284   5.412
 3270POPC   PO444760  23.508  35.803   5.468
 3270POPC   GL144761  23.764  35.688   5.819
 3270POPC   GL244762  23.715  35.341   5.840
 3270POPC   C1A44763  23.707  35.617   6.257
 3270POPC   D2A44764  23.632  35.389   6.628
 3270POPC   C3A44765  23.777  35.448   7.017
 3270POPC   C4A44766  23.531  35.550   7.356
 3270POPC   C1B44767  23.868  35.134   6.211
 3270POPC   C2B44768  23.764  34.905   6.585
 3270POPC   C3B44769  23.582  34.935   6.980
 3270POPC   C4B44770  23.737  35.015   7.375
 3271POPC   NC344771  17.706  43.254   5.200
 3271POPC   PO444772  17.227  42.851   5.422
 3271POPC   GL144773  17.556  43.033   5.679
 3271POPC   GL244774  17.721  43.356   5.723
 3271POPC   C1A44775  17.665  43.022   6.121
 3271POPC   D2A44776  17.425  43.017   6.503
 3271POPC   C3A44777  17.652  43.089   6.884
 3271POPC   C4A44778  17.494  42.927   7.282
 3271POPC   C1B44779  17.731  43.543   6.154
 3271POPC   C2B44780  17.560  43.500   6.572
 3271POPC   C3B44781  17.315  43.462   6.968
 3271POPC   C4B44782  17.610  43.419   7.305
 3272POPC   NC344783   6.923  27.109   5.331
 3272POPC   PO444784   6.869  27.788   5.193
 3272POPC   GL144785   6.796  27.561   5.591
 3272POPC   GL244786   6.669  27.861   5.782
 3272POPC   C1A44787   6.952  27.540   6.043
 3272POPC   D2A44788   6.739  27.714   6.386
 3272POPC   C3A44789   6.818  27.651   6.838
 3272POPC   C4A44790   6.795  27.372   7.193
 3272POPC   C1B44791   6.362  27.929   6.089
 3272POPC   C2B44792   6.245  27.687   6.453
 3272POPC   C3B44793   6.306  27.749   6.875
 3272POPC   C4B44794   6.557  27.856   7.250
 3273POPC   NC344795   3.441  16.141   5.328
 3273POPC   PO444796   2.731  16.100   5.381
 3273POPC   GL144797   2.905  16.224   5.770
 3273POPC   GL244798   2.796  15.917   5.890
 3273POPC   C1A44799   2.810  16.358   6.208
 3273POPC   D2A44800   2.583  16.066   6.469
 3273POPC   C3A44801   2.655  16.044   6.912
 3273POPC   C4A44802   2.892  16.264   7.206
 3273POPC   C1B44803   2.862  15.605   6.171
 3273POPC   C2B44804   2.870  15.653   6.588
 3273POPC   C3B44805   2.746  15.549   6.988
 3273POPC   C4B44806   3.004  15.560   7.351
 3274POPC   NC344807  18.129  24.336   5.047
 3274POPC   PO444808  18.424  23.952   5.422
 3274POPC   GL144809  18.326  23.826   5.788
 3274POPC   GL244810  17.987  23.870   5.748
 3274POPC   C1A44811  18.225  23.639   6.148
 3274POPC   D2A44812  18.176  23.770   6.549
 3274POPC   C3A44813  18.315  23.534   6.867
 3274POPC   C4A44814  18.214  23.421   7.264
 3274POPC   C1B44815  17.923  24.031   6.172
 3274POPC   C2B44816  18.058  24.262   6.555
 3274POPC   C3B44817  18.118  24.078   6.972
 3274POPC   C4B44818  17.810  24.056   7.294
 3275POPC   NC344819  15.042  35.559   5.385
 3275POPC   PO444820  15.268  34.868   5.319
 3275POPC   GL144821  15.291  35.039   5.762
 3275POPC   GL244822  15.050  35.320   5.835
 3275POPC   C1A44823  15.295  35.149   6.231
 3275POPC   D2A44824  15.172  35.433   6.580
 3275POPC   C3A44825  15.515  35.370   6.904
 3275POPC   C4A44826  15.507  35.003   7.203
 3275POPC   C1B44827  14.815  35.636   6.087
 3275POPC   C2B44828  14.657  35.585   6.512
 3275POPC   C3B44829  14.789  35.717   6.931
 3275POPC   C4B44830  15.058  35.431   7.097
 3276POPC   NC344831  13.328  35.300   5.408
 3276POPC   PO444832  13.920  35.516   5.440
 3276POPC   GL144833  13.762  35.325   5.803
 3276POPC   GL244834  13.426  35.182   5.886
 3276POPC   C1A44835  13.648  35.485   6.218
 3276POPC   D2A44836  13.618  35.758   6.573
 3276POPC   C3A44837  13.745  35.561   6.988
 3276POPC   C4A44838  13.387  35.413   7.171
 3276POPC   C1B44839  13.367  34.987   6.296
 3276POPC   C2B44840  13.212  34.922   6.744
 3276POPC   C3B44841  13.374  34.913   7.190
 3276POPC   C4B44842  13.317  35.090   7.646
 3277POPC   NC344843  25.215  36.530   5.666
 3277POPC   PO444844  25.386  36.098   5.229
 3277POPC   GL144845  25.404  36.065   5.739
 3277POPC   GL244846  25.047  36.075   5.870
 3277POPC   C1A44847  25.435  35.887   6.179
 3277POPC   D2A44848  25.433  36.119   6.596
 3277POPC   C3A44849  25.344  36.016   7.038
 3277POPC   C4A44850  25.633  36.137   7.388
 3277POPC   C1B44851  25.022  36.206   6.295
 3277POPC   C2B44852  24.923  36.179   6.723
 3277POPC   C3B44853  25.046  36.445   7.064
 3277POPC   C4B44854  25.184  36.331   7.488
 3278POPC   NC344855  31.324  11.306   5.341
 3278POPC   PO444856  30.668  11.218   5.210
 3278POPC   GL144857  30.967  11.426   5.665
 3278POPC   GL244858  31.279  11.265   5.838
 3278POPC   C1A44859  31.211  11.656   6.088
 3278POPC   D2A44860  31.405  11.371   6.424
 3278POPC   C3A44861  31.339  11.459   6.898
 3278POPC   C4A44862  31.466  11.566   7.340
 3278POPC   C1B44863  31.650  11.092   6.052
 3278POPC   C2B44864  31.751  10.943   6.472
 3278POPC   C3B44865  31.602  11.004   6.905
 3278POPC   C4B44866  31.485  11.034   7.354
 3279POPC   NC344867  24.082  21.488   5.617
 3279POPC   PO444868  24.019  22.223   5.483
 3279POPC   GL144869  23.844  22.254   5.883
 3279POPC   GL244870  23.870  21.904   5.890
 3279POPC   C1A44871  23.905  22.350   6.319
 3279POPC   D2A44872  23.985  22.594   6.680
 3279POPC   C3A44873  23.841  22.409   7.053
 3279POPC   C4A44874  23.495  22.535   7.321
 3279POPC   C1B44875  23.696  21.877   6.256
 3279POPC   C2B44876  23.873  21.914   6.633
 3279POPC   C3B44877  23.744  21.908   7.040
 3279POPC   C4B44878  23.979  21.826   7.384
 3280POPC   NC344879   1.640  16.773   5.404
 3280POPC   PO444880   1.020  16.747   5.352
 3280POPC   GL144881   1.243  16.847   5.758
 3280POPC   GL244882   1.540  16.679   5.886
 3280POPC   C1A44883   1.174  16.711   6.228
 3280POPC   D2A44884   1.359  16.669   6.584
 3280POPC   C3A44885   1.204  16.843   6.935
 3280POPC   C4A44886   0.972  16.660   7.233
 3280POPC   C1B44887   1.503  17.064   6.133
 3280POPC   C2B44888   1.536  17.155   6.534
 3280POPC   C3B44889   1.699  16.949   6.878
 3280POPC   C4B44890   1.546  16.823   7.292
 3281POPC   NC344891  38.649   5.369   5.424
 3281POPC   PO444892  38.170   4.851   5.439
 3281POPC   GL144893  38.472   4.921   5.771
 3281POPC   GL244894  38.401   5.257   5.855
 3281POPC   C1A44895  38.541   4.946   6.238
 3281POPC   D2A44896  38.376   4.823   6.661
 3281POPC   C3A44897  38.504   4.959   7.081
 3281POPC   C4A44898  38.754   5.331   7.259
 3281POPC   C1B44899  38.052   5.158   6.133
 3281POPC   C2B44900  37.942   5.237   6.560
 3281POPC   C3B44901  38.140   5.282   6.943
 3281POPC   C4B44902  38.255   5.289   7.386
 3282POPC   NC344903  19.608  44.412   5.461
 3282POPC   PO444904  18.966  44.557   5.404
 3282POPC   GL144905  18.883  44.455   5.814
 3282POPC   GL244906  19.141  44.195   5.922
 3282POPC   C1A44907  18.773  44.599   6.213
 3282POPC   D2A44908  18.998  44.493   6.561
 3282POPC   C3A44909  18.834  44.458   6.942
 3282POPC   C4A44910  19.010  44.574   7.338
 3282POPC   C1B44911  19.285  44.609   6.121
 3282POPC   C2B44912  19.361  44.868   6.510
 3282POPC   C3B44913  19.519  44.809   6.936
 3282POPC   C4B44914  19.431  44.964   7.347
 3283POPC   NC344915   9.048   9.282   5.472
 3283POPC   PO444916   8.823   9.939   5.251
 3283POPC   GL144917   9.123   9.808   5.622
 3283POPC   GL244918   8.986   9.560   5.883
 3283POPC   C1A44919   9.309   9.918   6.072
 3283POPC   D2A44920   9.426   9.806   6.552
 3283POPC   C3A44921   9.025   9.862   6.807
 3283POPC   C4A44922   8.877   9.992   7.225
 3283POPC   C1B44923   9.048   9.530   6.340
 3283POPC   C2B44924   9.144   9.378   6.770
 3283POPC   C3B44925   9.065   9.486   7.214
 3283POPC   C4B44926   8.744   9.580   7.548
 3284POPC   NC344927  33.240  41.109   5.557
 3284POPC   PO444928  32.681  40.808   5.236
 3284POPC   GL144929  32.740  40.864   5.672
 3284POPC   GL244930  32.741  41.202   5.685
 3284POPC   C1A44931  32.979  40.769   6.067
 3284POPC   D2A44932  33.192  40.572   6.442
 3284POPC   C3A44933  33.078  40.779   6.828
 3284POPC   C4A44934  33.103  40.665   7.234
 3284POPC   C1B44935  32.741  41.278   6.116
 3284POPC   C2B44936  32.733  40.987   6.472
 3284POPC   C3B44937  32.586  40.972   6.872
 3284POPC   C4B44938  32.788  41.040   7.272
 3285POPC   NC344939   9.215  14.218   5.350
 3285POPC   PO444940   8.855  14.793   5.396
 3285POPC   GL144941   8.978  14.508   5.708
 3285POPC   GL244942   8.777  14.191   5.664
 3285POPC   C1A44943   9.183  14.415   6.112
 3285POPC   D2A44944   9.066  14.213   6.513
 3285POPC   C3A44945   9.194  14.339   6.938
 3285POPC   C4A44946   9.146  14.108   7.310
 3285POPC   C1B44947   8.659  14.291   6.102
 3285POPC   C2B44948   8.548  14.224   6.536
 3285POPC   C3B44949   8.705  14.458   6.881
 3285POPC   C4B44950   8.897  14.538   7.298
 3286POPC   NC344951  24.170  37.664   5.284
 3286POPC   PO444952  23.628  38.022   5.444
 3286POPC   GL144953  23.663  37.625   5.711
 3286POPC   GL244954  23.903  37.321   5.603
 3286POPC   C1A44955  23.485  37.563   6.132
 3286POPC   D2A44956  23.311  37.685   6.499
 3286POPC   C3A44957  23.529  37.645   6.869
 3286POPC   C4A44958  23.453  37.861   7.233
 3286POPC   C1B44959  23.974  37.382   6.051
 3286POPC   C2B44960  23.916  37.631   6.437
 3286POPC   C3B44961  24.045  37.708   6.872
 3286POPC   C4B44962  23.884  37.562   7.279
 3287POPC   NC344963  28.723  13.936   5.404
 3287POPC   PO444964  29.122  13.322   5.395
 3287POPC   GL144965  29.170  13.396   5.823
 3287POPC   GL244966  29.020  13.716   5.803
 3287POPC   C1A44967  28.940  13.391   6.258
 3287POPC   D2A44968  28.880  13.335   6.726
 3287POPC   C3A44969  29.160  13.480   7.049
 3287POPC   C4A44970  29.166  13.415   7.523
 3287POPC   C1B44971  29.041  13.925   6.182
 3287POPC   C2B44972  29.107  13.811   6.612
 3287POPC   C3B44973  28.936  13.965   6.985
 3287POPC   C4B44974  29.181  13.885   7.356
 3288POPC   NC344975   9.230  43.794   5.443
 3288POPC   PO444976   8.734  44.201   5.333
 3288POPC   GL144977   8.945  44.123   5.747
 3288POPC   GL244978   9.309  44.141   5.794
 3288POPC   C1A44979   8.940  44.154   6.229
 3288POPC   D2A44980   8.823  44.176   6.695
 3288POPC   C3A44981   8.893  43.800   6.961
 3288POPC   C4A44982   8.880  43.569   7.360
 3288POPC   C1B44983   9.441  43.922   6.152
 3288POPC   C2B44984   9.268  43.876   6.570
 3288POPC   C3B44985   9.384  43.668   6.954
 3288POPC   C4B44986   9.473  43.911   7.297
 3289POPC   NC344987  40.794  41.924   5.375
 3289POPC   PO444988  40.528  42.523   5.398
 3289POPC   GL144989  40.713  42.382   5.789
 3289POPC   GL244990  40.844  42.108   5.892
 3289POPC   C1A44991  40.579  42.415   6.224
 3289POPC   D2A44992  40.432  42.607   6.606
 3289POPC   C3A44993  40.815  42.688   6.852
 3289POPC   C4A44994  41.176  42.435   6.998
 3289POPC   C1B44995  40.748  41.942   6.319
 3289POPC   C2B44996  40.825  42.196   6.675
 3289POPC   C3B44997  40.713  42.218   7.096
 3289POPC   C4B44998  40.839  41.962   7.441
 3290POPC   NC344999  43.711  43.969   5.359
 3290POPC   PO445000  44.273  43.483   5.548
 3290POPC   GL145001  44.079  43.867   5.719
 3290POPC   GL245002  43.717  43.842   5.879
 3290POPC   C1A45003  44.077  44.034   6.135
 3290POPC   D2A45004  43.811  43.903   6.427
 3290POPC   C3A45005  43.954  43.700   6.806
 3290POPC   C4A45006  43.855  43.807   7.222
 3290POPC   C1B45007  43.485  44.163   6.121
 3290POPC   C2B45008  43.497  44.353   6.529
 3290POPC   C3B45009  43.546  44.042   6.845
 3290POPC   C4B45010  43.397  44.035   7.239
 3291POPC   NC345011  17.773  23.008   5.397
 3291POPC   PO445012  17.134  22.691   5.446
 3291POPC   GL145013  17.334  22.987   5.754
 3291POPC   GL245014  17.646  22.925   5.862
 3291POPC   C1A45015  17.333  23.107   6.212
 3291POPC   D2A45016  17.129  23.047   6.621
 3291POPC   C3A45017  17.359  23.090   7.027
 3291POPC   C4A45018  17.439  22.846   7.425
 3291POPC   C1B45019  17.779  22.783   6.250
 3291POPC   C2B45020  17.649  22.947   6.611
 3291POPC   C3B45021  17.749  22.759   6.985
 3291POPC   C4B45022  17.917  22.532   7.313
 3292POPC   NC345023  13.905  43.655   5.441
 3292POPC   PO445024  13.246  43.592   5.601
 3292POPC   GL145025  13.574  43.880   5.823
 3292POPC   GL245026  13.312  44.059   6.034
 3292POPC   C1A45027  13.789  44.162   6.157
 3292POPC   D2A45028  13.783  44.138   6.591
 3292POPC   C3A45029  13.822  43.686   6.691
 3292POPC   C4A45030  13.662  43.496   7.116
 3292POPC   C1B45031  13.486  43.698   6.283
 3292POPC   C2B45032  13.327  43.539   6.675
 3292POPC   C3B45033  13.432  43.906   6.900
 3292POPC   C4B45034  13.460  44.316   7.077
 3293POPC   NC345035  29.514   4.411   5.454
 3293POPC   PO445036  29.894   3.966   5.299
 3293POPC   GL145037  30.039   4.172   5.712
 3293POPC   GL245038  29.944   4.518   5.779
 3293POPC   C1A45039  30.223   4.238   6.158
 3293POPC   D2A45040  30.342   4.456   6.559
 3293POPC   C3A45041  30.194   4.346   6.996
 3293POPC   C4A45042  30.055   4.121   7.367
 3293POPC   C1B45043  29.799   4.537   6.234
 3293POPC   C2B45044  29.850   4.612   6.713
 3293POPC   C3B45045  29.743   4.505   7.174
 3293POPC   C4B45046  29.883   4.546   7.620
 3294POPC   NC345047  14.940  17.890   5.296
 3294POPC   PO445048  15.417  18.253   5.477
 3294POPC   GL145049  15.233  18.183   5.842
 3294POPC   GL245050  15.001  18.463   5.971
 3294POPC   C1A45051  15.341  18.225   6.277
 3294POPC   D2A45052  15.258  18.419   6.685
 3294POPC   C3A45053  15.409  18.150   7.028
 3294POPC   C4A45054  15.627  18.127   7.440
 3294POPC   C1B45055  14.857  18.071   6.152
 3294POPC   C2B45056  14.967  17.949   6.532
 3294POPC   C3B45057  14.913  18.100   6.912
 3294POPC   C4B45058  15.005  17.971   7.284
 3295POPC   NC345059  10.202  34.436   5.401
 3295POPC   PO445060  10.895  34.397   5.406
 3295POPC   GL145061  10.593  34.586   5.719
 3295POPC   GL245062  10.482  34.246   5.792
 3295POPC   C1A45063  10.592  34.816   6.139
 3295POPC   D2A45064  10.811  34.808   6.566
 3295POPC   C3A45065  10.586  34.793   6.968
 3295POPC   C4A45066  10.628  34.474   7.291
 3295POPC   C1B45067  10.320  34.373   6.173
 3295POPC   C2B45068  10.334  34.587   6.549
 3295POPC   C3B45069  10.289  34.385   6.928
 3295POPC   C4B45070  10.159  34.232   7.322
 3296POPC   NC345071  27.353  35.043   5.402
 3296POPC   PO445072  27.773  34.478   5.345
 3296POPC   GL145073  27.697  34.756   5.686
 3296POPC   GL245074  27.524  34.540   5.940
 3296POPC   C1A45075  27.681  35.026   6.063
 3296POPC   D2A45076  27.699  35.134   6.517
 3296POPC   C3A45077  27.399  34.971   6.855
 3296POPC   C4A45078  27.397  34.632   7.157
 3296POPC   C1B45079  27.730  34.598   6.353
 3296POPC   C2B45080  27.794  34.678   6.780
 3296POPC   C3B45081  27.872  34.444   7.128
 3296POPC   C4B45082  27.760  34.291   7.529
 3297POPC   NC345083  37.034  38.331   5.136
 3297POPC   PO445084  36.736  38.857   5.242
 3297POPC   GL145085  36.870  38.536   5.590
 3297POPC   GL245086  37.120  38.725   5.734
 3297POPC   C1A45087  36.865  38.378   6.069
 3297POPC   D2A45088  36.867  38.118   6.474
 3297POPC   C3A45089  37.067  38.212   6.882
 3297POPC   C4A45090  36.984  38.063   7.302
 3297POPC   C1B45091  37.139  38.819   6.179
 3297POPC   C2B45092  37.237  38.613   6.594
 3297POPC   C3B45093  37.050  38.704   7.018
 3297POPC   C4B45094  36.803  38.602   7.412
 3298POPC   NC345095  29.175  17.086   5.145
 3298POPC   PO445096  28.687  16.590   5.305
 3298POPC   GL145097  28.847  16.577   5.777
 3298POPC   GL245098  29.106  16.824   5.811
 3298POPC   C1A45099  28.997  16.467   6.226
 3298POPC   D2A45100  29.067  16.357   6.657
 3298POPC   C3A45101  28.946  16.683   6.936
 3298POPC   C4A45102  28.960  16.751   7.336
 3298POPC   C1B45103  29.455  16.646   6.070
 3298POPC   C2B45104  29.524  16.475   6.475
 3298POPC   C3B45105  29.476  16.485   6.903
 3298POPC   C4B45106  29.465  16.716   7.258
 3299POPC   NC345107  17.040  14.003   5.161
 3299POPC   PO445108  16.482  13.628   5.246
 3299POPC   GL145109  16.687  13.621   5.685
 3299POPC   GL245110  16.721  13.924   5.910
 3299POPC   C1A45111  16.843  13.465   6.116
 3299POPC   D2A45112  16.915  13.311   6.503
 3299POPC   C3A45113  16.771  13.501   6.840
 3299POPC   C4A45114  16.681  13.443   7.238
 3299POPC   C1B45115  16.609  13.858   6.360
 3299POPC   C2B45116  16.759  13.997   6.771
 3299POPC   C3B45117  16.924  13.885   7.201
 3299POPC   C4B45118  16.867  13.934   7.681
 3300POPC   NC345119  16.037  13.638   5.123
 3300POPC   PO445120  15.686  14.137   5.478
 3300POPC   GL145121  15.822  13.724   5.629
 3300POPC   GL245122  16.137  13.528   5.629
 3300POPC   C1A45123  15.847  13.648   6.074
 3300POPC   D2A45124  15.872  13.473   6.509
 3300POPC   C3A45125  15.775  13.673   6.917
 3300POPC   C4A45126  15.986  13.762   7.313
 3300POPC   C1B45127  16.335  13.467   6.053
 3300POPC   C2B45128  16.389  13.364   6.507
 3300POPC   C3B45129  16.271  13.546   6.908
 3300POPC   C4B45130  16.415  13.923   7.134
 3301POPC   NC345131  37.916  42.593   5.246
 3301POPC   PO445132  37.475  42.050   5.411
 3301POPC   GL145133  37.692  42.217   5.750
 3301POPC   GL245134  37.673  42.570   5.728
 3301POPC   C1A45135  37.692  42.080   6.183
 3301POPC   D2A45136  37.482  42.144   6.599
 3301POPC   C3A45137  37.688  42.020   6.991
 3301POPC   C4A45138  37.883  42.250   7.362
 3301POPC   C1B45139  37.563  42.567   6.148
 3301POPC   C2B45140  37.743  42.584   6.550
 3301POPC   C3B45141  37.675  42.524   6.966
 3301POPC   C4B45142  37.495  42.715   7.311
 3302POPC   NC345143  13.864   8.286   4.891
 3302POPC   PO445144  14.298   8.075   5.329
 3302POPC   GL145145  14.417   8.185   5.833
 3302POPC   GL245146  14.242   8.484   5.899
 3302POPC   C1A45147  14.214   8.196   6.303
 3302POPC   D2A45148  14.178   8.484   6.690
 3302POPC   C3A45149  14.253   8.307   7.079
 3302POPC   C4A45150  14.650   8.103   7.165
 3302POPC   C1B45151  14.512   8.605   6.267
 3302POPC   C2B45152  14.733   8.539   6.673
 3302POPC   C3B45153  14.675   8.620   7.126
 3302POPC   C4B45154  14.434   8.543   7.510
 3303POPC   NC345155  38.013   3.638   5.578
 3303POPC   PO445156  38.653   3.463   5.758
 3303POPC   GL145157  38.346   3.664   5.969
 3303POPC   GL245158  38.197   3.340   5.949
 3303POPC   C1A45159  38.452   3.775   6.375
 3303POPC   D2A45160  38.705   3.490   6.618
 3303POPC   C3A45161  38.804   3.622   7.040
 3303POPC   C4A45162  38.651   3.673   7.452
 3303POPC   C1B45163  38.041   3.425   6.349
 3303POPC   C2B45164  38.224   3.456   6.725
 3303POPC   C3B45165  38.289   3.563   7.113
 3303POPC   C4B45166  38.418   3.215   7.372
 3304POPC   NC345167   1.533  38.223   5.339
 3304POPC   PO445168   1.263  38.825   5.387
 3304POPC   GL145169   1.135  38.447   5.633
 3304POPC   GL245170   1.417  38.423   5.832
 3304POPC   C1A45171   0.970  38.463   6.079
 3304POPC   D2A45172   1.205  38.680   6.406
 3304POPC   C3A45173   1.190  38.517   6.823
 3304POPC   C4A45174   0.965  38.493   7.246
 3304POPC   C1B45175   1.661  38.222   6.170
 3304POPC   C2B45176   1.470  38.056   6.534
 3304POPC   C3B45177   1.548  38.157   6.927
 3304POPC   C4B45178   1.516  38.494   7.203
 3305POPC   NC345179  31.583  13.900   5.445
 3305POPC   PO445180  31.554  14.560   5.497
 3305POPC   GL145181  31.209  14.411   5.767
 3305POPC   GL245182  31.160  14.086   5.658
 3305POPC   C1A45183  31.072  14.500   6.193
 3305POPC   D2A45184  31.284  14.584   6.581
 3305POPC   C3A45185  31.112  14.377   6.917
 3305POPC   C4A45186  31.148  14.260   7.335
 3305POPC   C1B45187  31.433  14.110   6.098
 3305POPC   C2B45188  31.442  14.079   6.589
 3305POPC   C3B45189  31.580  14.197   7.035
 3305POPC   C4B45190  31.612  14.418   7.457
 3306POPC   NC345191   3.810  16.766   5.229
 3306POPC   PO445192   3.582  17.442   5.305
 3306POPC   GL145193   3.749  17.574   5.697
 3306POPC   GL245194   3.501  17.395   5.906
 3306POPC   C1A45195   3.635  17.852   6.066
 3306POPC   D2A45196   3.331  17.769   6.416
 3306POPC   C3A45197   3.513  17.713   6.809
 3306POPC   C4A45198   3.505  17.777   7.240
 3306POPC   C1B45199   3.807  17.288   6.243
 3306POPC   C2B45200   3.852  17.332   6.712
 3306POPC   C3B45201   3.855  17.376   7.141
 3306POPC   C4B45202   3.732  17.051   7.433
 3307POPC   NC345203  38.941  12.202   5.098
 3307POPC   PO445204  38.313  11.997   5.269
 3307POPC   GL145205  38.536  12.088   5.618
 3307POPC   GL245206  38.585  11.769   5.816
 3307POPC   C1A45207  38.463  12.198   6.059
 3307POPC   D2A45208  38.696  12.058   6.418
 3307POPC   C3A45209  38.537  12.007   6.844
 3307POPC   C4A45210  38.753  12.207   7.181
 3307POPC   C1B45211  38.356  11.680   6.229
 3307POPC   C2B45212  38.246  11.480   6.637
 3307POPC   C3B45213  38.292  11.584   7.079
 3307POPC   C4B45214  38.524  11.798   7.358
 3308POPC   NC345215  24.881  21.387   5.417
 3308POPC   PO445216  24.281  21.303   5.193
 3308POPC   GL145217  24.464  21.196   5.733
 3308POPC   GL245218  24.711  21.001   5.724
 3308POPC   C1A45219  24.436  21.458   6.176
 3308POPC   D2A45220  24.391  21.664   6.603
 3308POPC   C3A45221  24.421  21.497   7.011
 3308POPC   C4A45222  24.606  21.771   7.301
 3308POPC   C1B45223  24.812  21.133   6.143
 3308POPC   C2B45224  24.616  21.156   6.561
 3308POPC   C3B45225  24.700  20.993   6.975
 3308POPC   C4B45226  24.451  21.064   7.329
 3309POPC   NC345227  37.485   4.477   5.352
 3309POPC   PO445228  37.583   3.833   5.560
 3309POPC   GL145229  37.830   4.072   5.817
 3309POPC   GL245230  37.640   4.372   5.877
 3309POPC   C1A45231  38.032   4.010   6.200
 3309POPC   D2A45232  37.964   3.880   6.620
 3309POPC   C3A45233  37.774   4.203   6.832
 3309POPC   C4A45234  37.662   4.416   7.180
 3309POPC   C1B45235  37.679   4.372   6.342
 3309POPC   C2B45236  37.416   4.543   6.664
 3309POPC   C3B45237  37.357   4.805   7.023
 3309POPC   C4B45238  37.473   4.784   7.493
 3310POPC   NC345239  32.054  42.031   5.308
 3310POPC   PO445240  31.490  42.366   5.305
 3310POPC   GL145241  31.436  42.345   5.733
 3310POPC   GL245242  31.175  42.596   5.833
 3310POPC   C1A45243  31.717  42.238   6.060
 3310POPC   D2A45244  31.853  42.237   6.497
 3310POPC   C3A45245  31.561  42.099   6.810
 3310POPC   C4A45246  31.440  42.375   7.141
 3310POPC   C1B45247  31.220  42.377   6.243
 3310POPC   C2B45248  31.252  42.475   6.656
 3310POPC   C3B45249  31.054  42.684   6.994
 3310POPC   C4B45250  31.079  42.633   7.422
 3311POPC   NC345251  10.913  36.237   5.516
 3311POPC   PO445252  10.304  35.895   5.402
 3311POPC   GL145253  10.519  36.049   5.779
 3311POPC   GL245254  10.812  35.854   5.876
 3311POPC   C1A45255  10.537  36.077   6.239
 3311POPC   D2A45256  10.495  36.410   6.531
 3311POPC   C3A45257  10.471  36.188   6.951
 3311POPC   C4A45258  10.357  35.726   7.048
 3311POPC   C1B45259  10.949  35.758   6.346
 3311POPC   C2B45260  10.814  35.744   6.822
 3311POPC   C3B45261  10.796  35.885   7.295
 3311POPC   C4B45262  11.027  36.166   7.653
 3312POPC   NC345263   5.677   1.101   5.208
 3312POPC   PO445264   6.083   1.522   5.446
 3312POPC   GL145265   5.928   1.168   5.709
 3312POPC   GL245266   5.642   1.264   5.866
 3312POPC   C1A45267   5.887   0.941   6.143
 3312POPC   D2A45268   5.968   0.997   6.589
 3312POPC   C3A45269   5.675   1.010   6.947
 3312POPC   C4A45270   5.735   1.175   7.364
 3312POPC   C1B45271   5.451   1.190   6.265
 3312POPC   C2B45272   5.330   1.307   6.694
 3312POPC   C3B45273   5.472   1.506   7.075
 3312POPC   C4B45274   5.530   1.628   7.550
 3313POPC   NC345275   8.030  26.290   5.395
 3313POPC   PO445276   8.537  25.824   5.285
 3313POPC   GL145277   8.333  25.964   5.682
 3313POPC   GL245278   8.580  26.198   5.819
 3313POPC   C1A45279   8.106  26.135   6.071
 3313POPC   D2A45280   8.086  26.313   6.488
 3313POPC   C3A45281   7.979  26.092   6.884
 3313POPC   C4A45282   8.140  26.250   7.292
 3313POPC   C1B45283   8.541  25.849   6.150
 3313POPC   C2B45284   8.305  25.839   6.545
 3313POPC   C3B45285   8.438  25.856   6.985
 3313POPC   C4B45286   8.731  25.588   7.211
 3314POPC   NC345287  27.460  35.978   5.376
 3314POPC   PO445288  28.049  36.484   5.388
 3314POPC   GL145289  27.916  36.428   5.872
 3314POPC   GL245290  27.555  36.212   5.908
 3314POPC   C1A45291  27.818  36.432   6.282
 3314POPC   D2A45292  27.579  36.376   6.640
 3314POPC   C3A45293  27.794  36.493   7.003
 3314POPC   C4A45294  27.650  36.248   7.323
 3314POPC   C1B45295  27.576  35.963   6.291
 3314POPC   C2B45296  27.470  35.873   6.723
 3314POPC   C3B45297  27.475  35.791   7.160
 3314POPC   C4B45298  27.577  35.817   7.591
 3315POPC   NC345299  31.905  36.500   5.347
 3315POPC   PO445300  32.447  36.226   5.464
 3315POPC   GL145301  32.215  36.285   5.811
 3315POPC   GL245302  31.957  36.011   5.821
 3315POPC   C1A45303  32.403  36.462   6.191
 3315POPC   D2A45304  32.603  36.536   6.607
 3315POPC   C3A45305  32.339  36.425   6.955
 3315POPC   C4A45306  32.341  36.340   7.396
 3315POPC   C1B45307  32.147  35.900   6.207
 3315POPC   C2B45308  32.280  36.079   6.584
 3315POPC   C3B45309  32.648  35.996   6.869
 3315POPC   C4B45310  32.622  35.803   7.277
 3316POPC   NC345311  39.496   2.414   5.455
 3316POPC   PO445312  38.959   1.948   5.416
 3316POPC   GL145313  39.248   1.984   5.744
 3316POPC   GL245314  39.227   2.308   5.877
 3316POPC   C1A45315  39.269   1.865   6.174
 3316POPC   D2A45316  39.479   1.947   6.546
 3316POPC   C3A45317  39.338   1.884   6.926
 3316POPC   C4A45318  39.400   2.063   7.288
 3316POPC   C1B45319  39.335   2.399   6.303
 3316POPC   C2B45320  39.290   2.379   6.723
 3316POPC   C3B45321  39.029   2.324   7.042
 3316POPC   C4B45322  39.227   2.570   7.350
 3317POPC   NC345323  19.005  11.076   5.475
 3317POPC   PO445324  19.088  11.710   5.400
 3317POPC   GL145325  19.272  11.472   5.737
 3317POPC   GL245326  18.969  11.416   5.917
 3317POPC   C1A45327  19.376  11.294   6.163
 3317POPC   D2A45328  19.162  11.147   6.530
 3317POPC   C3A45329  19.299  11.231   6.956
 3317POPC   C4A45330  19.184  11.118   7.413
 3317POPC   C1B45331  18.802  11.559   6.291
 3317POPC   C2B45332  18.706  11.366   6.676
 3317POPC   C3B45333  18.778  11.257   7.112
 3317POPC   C4B45334  18.785  11.453   7.529
 3318POPC   NC345335  11.249  11.164   5.404
 3318POPC   PO445336  11.154  11.741   5.759
 3318POPC   GL145337  11.383  11.413   5.850
 3318POPC   GL245338  11.109  11.199   5.895
 3318POPC   C1A45339  11.560  11.265   6.212
 3318POPC   D2A45340  11.473  10.988   6.549
 3318POPC   C3A45341  11.484  11.074   6.947
 3318POPC   C4A45342  11.294  11.343   7.150
 3318POPC   C1B45343  10.896  11.071   6.252
 3318POPC   C2B45344  10.915  11.097   6.690
 3318POPC   C3B45345  10.992  10.903   7.072
 3318POPC   C4B45346  10.903  10.900   7.566
 3319POPC   NC345347  27.940  21.626   5.532
 3319POPC   PO445348  28.691  21.525   5.389
 3319POPC   GL145349  28.507  21.245   5.758
 3319POPC   GL245350  28.157  21.314   5.914
 3319POPC   C1A45351  28.566  21.310   6.221
 3319POPC   D2A45352  28.723  21.451   6.613
 3319POPC   C3A45353  28.435  21.584   6.947
 3319POPC   C4A45354  28.584  21.585   7.387
 3319POPC   C1B45355  28.027  21.302   6.367
 3319POPC   C2B45356  28.123  21.200   6.825
 3319POPC   C3B45357  28.235  21.211   7.290
 3319POPC   C4B45358  27.972  21.177   7.709
 3320POPC   NC345359  23.096  40.182   5.384
 3320POPC   PO445360  22.671  39.609   5.469
 3320POPC   GL145361  22.840  39.849   5.812
 3320POPC   GL245362  23.182  39.927   5.838
 3320POPC   C1A45363  22.831  39.814   6.255
 3320POPC   D2A45364  22.784  40.036   6.637
 3320POPC   C3A45365  22.616  39.856   6.985
 3320POPC   C4A45366  22.880  39.957   7.274
 3320POPC   C1B45367  23.387  39.917   6.232
 3320POPC   C2B45368  23.364  40.144   6.632
 3320POPC   C3B45369  23.322  40.035   7.074
 3320POPC   C4B45370  23.307  40.066   7.565
 3321POPC   NC345371  44.371   5.537   5.471
 3321POPC   PO445372  44.351   4.895   5.573
 3321POPC   GL145373  44.713   5.045   5.779
 3321POPC   GL245374  44.919   5.346   5.634
 3321POPC   C1A45375  44.705   4.961   6.217
 3321POPC   D2A45376  44.572   5.247   6.550
 3321POPC   C3A45377  44.512   5.047   6.955
 3321POPC   C4A45378  44.846   5.028   7.286
 3321POPC   C1B45379   0.034   5.386   6.074
 3321POPC   C2B45380   0.081   5.169   6.480
 3321POPC   C3B45381   0.024   5.318   6.888
 3321POPC   C4B45382   0.231   5.342   7.282
 3322POPC   NC345383   2.470  31.759   5.492
 3322POPC   PO445384   2.960  31.309   5.400
 3322POPC   GL145385   2.965  31.334   5.843
 3322POPC   GL245386   2.620  31.379   5.825
 3322POPC   C1A45387   2.789  31.151   6.256
 3322POPC   D2A45388   2.597  31.011   6.655
 3322POPC   C3A45389   2.826  31.160   7.013
 3322POPC   C4A45390   3.139  31.498   7.139
 3322POPC   C1B45391   2.588  31.639   6.223
 3322POPC   C2B45392   2.611  31.632   6.710
 3322POPC   C3B45393   2.596  31.581   7.188
 3322POPC   C4B45394   2.388  31.375   7.577
 3323POPC   NC345395   2.807  25.703   5.046
 3323POPC   PO445396   2.750  25.329   5.577
 3323POPC   GL145397   2.618  25.325   5.947
 3323POPC   GL245398   2.969  25.263   6.053
 3323POPC   C1A45399   2.554  25.281   6.359
 3323POPC   D2A45400   2.839  25.021   6.570
 3323POPC   C3A45401   2.857  25.205   6.964
 3323POPC   C4A45402   2.630  25.324   7.350
 3323POPC   C1B45403   3.280  25.550   6.222
 3323POPC   C2B45404   3.426  25.492   6.612
 3323POPC   C3B45405   3.288  25.458   6.996
 3323POPC   C4B45406   3.143  25.413   7.391
 3324POPC   NC345407   7.554  38.728   5.399
 3324POPC   PO445408   7.067  38.262   5.486
 3324POPC   GL145409   7.445  38.213   5.779
 3324POPC   GL245410   7.658  38.504   5.856
 3324POPC   C1A45411   7.627  38.125   6.214
 3324POPC   D2A45412   7.405  38.195   6.619
 3324POPC   C3A45413   7.545  38.392   6.992
 3324POPC   C4A45414   7.329  38.536   7.337
 3324POPC   C1B45415   7.444  38.602   6.267
 3324POPC   C2B45416   7.596  38.843   6.643
 3324POPC   C3B45417   7.539  38.911   7.087
 3324POPC   C4B45418   7.563  38.907   7.588
 3325POPC   NC345419   4.446  34.969   5.038
 3325POPC   PO445420   3.963  35.423   5.239
 3325POPC   GL145421   4.118  35.336   5.660
 3325POPC   GL245422   4.056  35.653   5.836
 3325POPC   C1A45423   4.189  35.119   6.067
 3325POPC   D2A45424   4.404  35.103   6.479
 3325POPC   C3A45425   4.217  35.141   6.898
 3325POPC   C4A45426   4.499  35.079   7.227
 3325POPC   C1B45427   4.201  35.590   6.279
 3325POPC   C2B45428   4.247  35.631   6.740
 3325POPC   C3B45429   4.454  35.672   7.136
 3325POPC   C4B45430   4.530  35.484   7.522
 3326POPC   NC345431  16.455  43.868   5.112
 3326POPC   PO445432  15.909  43.857   5.607
 3326POPC   GL145433  16.035  43.645   5.926
 3326POPC   GL245434  16.358  43.645   5.999
 3326POPC   C1A45435  16.065  43.790   6.369
 3326POPC   D2A45436  15.843  44.091   6.599
 3326POPC   C3A45437  15.660  43.972   7.006
 3326POPC   C4A45438  15.336  44.169   7.217
 3326POPC   C1B45439  16.434  44.106   6.219
 3326POPC   C2B45440  16.372  44.150   6.649
 3326POPC   C3B45441  16.175  43.840   6.914
 3326POPC   C4B45442  16.317  43.719   7.320
 3327POPC   NC345443  31.875   4.996   5.273
 3327POPC   PO445444  31.167   4.844   5.304
 3327POPC   GL145445  31.243   4.878   5.738
 3327POPC   GL245446  31.183   5.212   5.842
 3327POPC   C1A45447  31.277   4.810   6.190
 3327POPC   D2A45448  31.259   4.933   6.584
 3327POPC   C3A45449  31.631   5.134   6.719
 3327POPC   C4A45450  31.687   4.963   7.144
 3327POPC   C1B45451  31.351   5.322   6.263
 3327POPC   C2B45452  31.195   5.447   6.674
 3327POPC   C3B45453  31.253   5.226   7.030
 3327POPC   C4B45454  31.201   4.912   7.303
 3328POPC   NC345455  19.577  31.332   5.409
 3328POPC   PO445456  19.955  31.898   5.468
 3328POPC   GL145457  19.798  31.769   5.832
 3328POPC   GL245458  19.899  31.423   5.823
 3328POPC   C1A45459  19.683  31.638   6.237
 3328POPC   D2A45460  19.875  31.401   6.537
 3328POPC   C3A45461  20.039  31.110   6.818
 3328POPC   C4A45462  19.998  31.380   7.215
 3328POPC   C1B45463  19.695  31.129   6.120
 3328POPC   C2B45464  19.623  30.960   6.557
 3328POPC   C3B45465  19.574  31.189   6.944
 3328POPC   C4B45466  19.526  31.301   7.374
 3329POPC   NC345467  11.358  28.352   5.401
 3329POPC   PO445468  10.762  28.487   5.105
 3329POPC   GL145469  10.851  28.317   5.612
 3329POPC   GL245470  11.074  28.058   5.790
 3329POPC   C1A45471  10.974  28.474   6.118
 3329POPC   D2A45472  11.187  28.308   6.546
 3329POPC   C3A45473  11.276  28.434   7.014
 3329POPC   C4A45474  11.480  28.564   7.412
 3329POPC   C1B45475  11.310  27.904   6.192
 3329POPC   C2B45476  11.591  27.813   6.563
 3329POPC   C3B45477  11.558  28.004   6.986
 3329POPC   C4B45478  11.507  28.068   7.436
 3330POPC   NC345479  24.511  44.263   5.416
 3330POPC   PO445480  24.301  43.609   5.293
 3330POPC   GL145481  24.379  43.579   5.746
 3330POPC   GL245482  24.314  43.932   5.801
 3330POPC   C1A45483  24.359  43.503   6.222
 3330POPC   D2A45484  24.254  43.581   6.666
 3330POPC   C3A45485  24.474  43.810   7.017
 3330POPC   C4A45486  24.331  43.768   7.471
 3330POPC   C1B45487  24.370  44.048   6.247
 3330POPC   C2B45488  24.130  44.088   6.636
 3330POPC   C3B45489  24.188  44.250   7.058
 3330POPC   C4B45490  24.297  44.292   7.494
 3331POPC   NC345491   9.386  41.039   5.384
 3331POPC   PO445492   9.779  40.518   5.545
 3331POPC   GL145493   9.648  40.840   5.785
 3331POPC   GL245494   9.967  40.902   5.912
 3331POPC   C1A45495   9.575  41.077   6.166
 3331POPC   D2A45496   9.813  41.126   6.554
 3331POPC   C3A45497   9.679  40.915   6.953
 3331POPC   C4A45498   9.624  40.963   7.384
 3331POPC   C1B45499   9.862  40.648   6.264
 3331POPC   C2B45500  10.039  40.669   6.671
 3331POPC   C3B45501  10.005  40.432   7.050
 3331POPC   C4B45502  10.014  40.655   7.463
 3332POPC   NC345503  24.656   8.775   5.408
 3332POPC   PO445504  24.185   8.360   5.615
 3332POPC   GL145505  24.322   8.785   5.834
 3332POPC   GL245506  24.674   8.895   5.882
 3332POPC   C1A45507  24.360   9.066   6.231
 3332POPC   D2A45508  24.479   9.447   6.484
 3332POPC   C3A45509  24.542   9.327   6.895
 3332POPC   C4A45510  24.325   8.969   7.069
 3332POPC   C1B45511  24.793   8.703   6.267
 3332POPC   C2B45512  24.596   8.618   6.669
 3332POPC   C3B45513  24.716   8.652   7.074
 3332POPC   C4B45514  24.852   9.037   7.218
 3333POPC   NC345515  20.981   4.539   5.299
 3333POPC   PO445516  20.392   4.066   5.355
 3333POPC   GL145517  20.647   4.348   5.640
 3333POPC   GL245518  20.719   4.171   5.948
 3333POPC   C1A45519  20.589   4.648   5.987
 3333POPC   D2A45520  20.682   4.810   6.402
 3333POPC   C3A45521  20.799   4.627   6.776
 3333POPC   C4A45522  20.556   4.674   7.130
 3333POPC   C1B45523  20.630   4.300   6.372
 3333POPC   C2B45524  20.309   4.196   6.658
 3333POPC   C3B45525  20.363   4.186   7.084
 3333POPC   C4B45526  20.777   4.220   7.129
 3334POPC   NC345527  34.825  38.737   5.439
 3334POPC   PO445528  34.246  38.345   5.483
 3334POPC   GL145529  34.428  38.633   5.743
 3334POPC   GL245530  34.692  38.398   5.813
 3334POPC   C1A45531  34.497  38.737   6.168
 3334POPC   D2A45532  34.249  38.562   6.512
 3334POPC   C3A45533  34.379  38.520   6.932
 3334POPC   C4A45534  34.216  38.251   7.216
 3334POPC   C1B45535  34.519  38.187   6.177
 3334POPC   C2B45536  34.619  38.180   6.622
 3334POPC   C3B45537  34.596  37.984   7.016
 3334POPC   C4B45538  34.711  38.213   7.384
 3335POPC   NC345539  31.628  39.643   5.341
 3335POPC   PO445540  31.356  40.217   5.621
 3335POPC   GL145541  31.552  39.871   5.794
 3335POPC   GL245542  31.201  39.708   5.712
 3335POPC   C1A45543  31.741  39.897   6.223
 3335POPC   D2A45544  31.832  40.110   6.652
 3335POPC   C3A45545  31.622  40.006   7.062
 3335POPC   C4A45546  31.343  40.094   7.433
 3335POPC   C1B45547  31.236  39.766   6.176
 3335POPC   C2B45548  31.337  39.977   6.581
 3335POPC   C3B45549  31.144  39.889   6.978
 3335POPC   C4B45550  31.183  39.544   7.259
 3336POPC   NC345551   0.959  26.291   5.428
 3336POPC   PO445552   1.594  26.168   5.345
 3336POPC   GL145553   1.551  25.994   5.804
 3336POPC   GL245554   1.330  25.684   5.832
 3336POPC   C1A45555   1.475  26.030   6.301
 3336POPC   D2A45556   1.464  25.942   6.792
 3336POPC   C3A45557   1.269  26.163   7.143
 3336POPC   C4A45558   1.378  26.164   7.592
 3336POPC   C1B45559   1.034  25.809   6.184
 3336POPC   C2B45560   0.967  25.873   6.655
 3336POPC   C3B45561   1.043  25.691   7.073
 3336POPC   C4B45562   1.026  25.830   7.507
 3337POPC   NC345563  29.811  44.763   5.588
 3337POPC   PO445564  30.027  44.107   5.433
 3337POPC   GL145565  30.039  44.269   5.876
 3337POPC   GL245566  29.727  44.417   5.963
 3337POPC   C1A45567  30.067  44.385   6.355
 3337POPC   D2A45568  30.093  44.734   6.664
 3337POPC   C3A45569  29.930  44.723   7.072
 3337POPC   C4A45570  29.735  44.596   7.446
 3337POPC   C1B45571  29.565  44.476   6.379
 3337POPC   C2B45572  29.600  44.426   6.818
 3337POPC   C3B45573  29.307  44.553   7.154
 3337POPC   C4B45574  29.241  44.612   7.606
 3338POPC   NC345575   3.877   4.820   5.316
 3338POPC   PO445576   3.656   4.167   5.469
 3338POPC   GL145577   3.548   4.237   5.914
 3338POPC   GL245578   3.356   4.529   5.882
 3338POPC   C1A45579   3.402   4.135   6.349
 3338POPC   D2A45580   3.531   4.176   6.798
 3338POPC   C3A45581   3.312   3.996   7.150
 3338POPC   C4A45582   3.190   4.116   7.576
 3338POPC   C1B45583   3.165   4.592   6.297
 3338POPC   C2B45584   3.276   4.643   6.724
 3338POPC   C3B45585   3.558   4.633   7.097
 3338POPC   C4B45586   3.654   4.924   7.451
 3339POPC   NC345587  19.076  34.098   5.445
 3339POPC   PO445588  18.884  33.507   5.186
 3339POPC   GL145589  18.916  33.494   5.727
 3339POPC   GL245590  19.240  33.558   5.912
 3339POPC   C1A45591  18.814  33.577   6.223
 3339POPC   D2A45592  18.773  33.627   6.718
 3339POPC   C3A45593  19.149  33.805   6.957
 3339POPC   C4A45594  19.266  34.219   7.131
 3339POPC   C1B45595  19.356  33.343   6.331
 3339POPC   C2B45596  19.600  33.326   6.742
 3339POPC   C3B45597  19.483  33.443   7.159
 3339POPC   C4B45598  19.037  33.466   7.336
 3340POPC   NC345599  37.840  41.749   5.497
 3340POPC   PO445600  37.428  41.359   5.171
 3340POPC   GL145601  37.480  41.430   5.651
 3340POPC   GL245602  37.439  41.749   5.829
 3340POPC   C1A45603  37.768  41.411   6.081
 3340POPC   D2A45604  37.839  41.214   6.522
 3340POPC   C3A45605  37.903  41.449   6.936
 3340POPC   C4A45606  37.924  41.221   7.297
 3340POPC   C1B45607  37.382  41.684   6.263
 3340POPC   C2B45608  37.532  41.631   6.663
 3340POPC   C3B45609  37.446  41.594   7.118
 3340POPC   C4B45610  37.456  41.928   7.448
 3341POPC   NC345611  36.399  37.630   5.359
 3341POPC   PO445612  35.718  37.549   5.436
 3341POPC   GL145613  35.849  37.842   5.742
 3341POPC   GL245614  36.066  37.551   5.838
 3341POPC   C1A45615  36.031  37.920   6.152
 3341POPC   D2A45616  36.172  37.545   6.388
 3341POPC   C3A45617  36.244  37.698   6.813
 3341POPC   C4A45618  36.248  37.902   7.209
 3341POPC   C1B45619  35.910  37.144   6.099
 3341POPC   C2B45620  35.941  37.035   6.508
 3341POPC   C3B45621  35.953  37.296   6.849
 3341POPC   C4B45622  36.160  37.388   7.248
 3342POPC   NC345623  12.771  42.422   5.497
 3342POPC   PO445624  13.316  42.756   5.666
 3342POPC   GL145625  13.100  42.456   5.962
 3342POPC   GL245626  12.749  42.366   5.978
 3342POPC   C1A45627  13.026  42.333   6.395
 3342POPC   D2A45628  13.262  42.175   6.702
 3342POPC   C3A45629  13.103  42.488   6.975
 3342POPC   C4A45630  13.154  42.601   7.388
 3342POPC   C1B45631  12.508  42.175   6.258
 3342POPC   C2B45632  12.511  42.233   6.661
 3342POPC   C3B45633  12.410  42.097   7.005
 3342POPC   C4B45634  12.646  42.410   7.203
 3343POPC   NC345635  20.184   9.623   5.598
 3343POPC   PO445636  19.719   9.923   5.309
 3343POPC   GL145637  19.717   9.814   5.765
 3343POPC   GL245638  19.758   9.483   5.895
 3343POPC   C1A45639  19.989   9.935   6.132
 3343POPC   D2A45640  20.131   9.887   6.544
 3343POPC   C3A45641  19.907   9.974   6.904
 3343POPC   C4A45642  19.941   9.811   7.304
 3343POPC   C1B45643  19.669   9.576   6.318
 3343POPC   C2B45644  19.796   9.492   6.722
 3343POPC   C3B45645  19.554   9.624   7.068
 3343POPC   C4B45646  19.567   9.447   7.485
 3344POPC   NC345647   3.876  30.371   5.453
 3344POPC   PO445648   3.653  29.784   5.394
 3344POPC   GL145649   3.635  30.032   5.779
 3344POPC   GL245650   3.451  29.786   5.934
 3344POPC   C1A45651   3.764  30.042   6.257
 3344POPC   D2A45652   3.937  30.006   6.692
 3344POPC   C3A45653   3.746  29.799   7.046
 3344POPC   C4A45654   3.678  29.640   7.516
 3344POPC   C1B45655   3.269  30.130   6.162
 3344POPC   C2B45656   3.288  30.348   6.575
 3344POPC   C3B45657   3.228  30.213   6.997
 3344POPC   C4B45658   3.436  30.061   7.357
 3345POPC   NC345659  15.798  16.689   5.622
 3345POPC   PO445660  16.285  16.256   5.335
 3345POPC   GL145661  16.326  16.564   5.754
 3345POPC   GL245662  16.151  16.904   5.900
 3345POPC   C1A45663  16.308  16.505   6.241
 3345POPC   D2A45664  16.413  16.431   6.716
 3345POPC   C3A45665  16.098  16.561   7.058
 3345POPC   C4A45666  15.866  16.801   7.400
 3345POPC   C1B45667  15.931  17.023   6.294
 3345POPC   C2B45668  15.894  16.948   6.764
 3345POPC   C3B45669  16.083  17.178   7.131
 3345POPC   C4B45670  16.136  17.220   7.602
 3346POPC   NC345671   5.980  21.722   5.364
 3346POPC   PO445672   5.605  21.212   5.577
 3346POPC   GL145673   5.895  21.470   5.819
 3346POPC   GL245674   5.609  21.655   5.915
 3346POPC   C1A45675   6.113  21.568   6.220
 3346POPC   D2A45676   5.987  21.415   6.638
 3346POPC   C3A45677   6.015  21.594   7.042
 3346POPC   C4A45678   6.099  21.385   7.442
 3346POPC   C1B45679   5.619  21.372   6.274
 3346POPC   C2B45680   5.503  21.232   6.703
 3346POPC   C3B45681   5.485  21.457   7.080
 3346POPC   C4B45682   5.660  21.670   7.404
 3347POPC   NC345683  31.469  23.862   5.230
 3347POPC   PO445684  31.861  23.938   5.755
 3347POPC   GL145685  31.633  24.069   6.058
 3347POPC   GL245686  31.713  24.423   6.065
 3347POPC   C1A45687  31.378  23.856   6.379
 3347POPC   D2A45688  31.271  23.880   6.813
 3347POPC   C3A45689  31.255  23.491   7.059
 3347POPC   C4A45690  31.107  23.482   7.491
 3347POPC   C1B45691  31.572  24.315   6.484
 3347POPC   C2B45692  31.782  24.032   6.763
 3347POPC   C3B45693  31.692  23.801   7.125
 3347POPC   C4B45694  31.324  23.931   7.323
 3348POPC   NC345695  27.215   7.433   5.459
 3348POPC   PO445696  26.553   7.614   5.296
 3348POPC   GL145697  26.732   7.523   5.683
 3348POPC   GL245698  26.449   7.421   5.849
 3348POPC   C1A45699  26.888   7.343   6.085
 3348POPC   D2A45700  26.932   7.514   6.491
 3348POPC   C3A45701  26.854   7.257   6.845
 3348POPC   C4A45702  27.031   7.385   7.227
 3348POPC   C1B45703  26.574   7.772   6.148
 3348POPC   C2B45704  26.570   7.908   6.594
 3348POPC   C3B45705  26.638   7.694   6.980
 3348POPC   C4B45706  26.507   7.441   7.317
 3349POPC   NC345707  19.727  10.392   5.373
 3349POPC   PO445708  20.173  10.871   5.358
 3349POPC   GL145709  19.991  10.756   5.782
 3349POPC   GL245710  19.627  10.861   5.853
 3349POPC   C1A45711  19.993  10.645   6.244
 3349POPC   D2A45712  19.978  10.730   6.701
 3349POPC   C3A45713  20.078  10.436   7.047
 3349POPC   C4A45714  20.039  10.316   7.510
 3349POPC   C1B45715  19.496  10.807   6.305
 3349POPC   C2B45716  19.474  10.787   6.774
 3349POPC   C3B45717  19.543  10.779   7.236
 3349POPC   C4B45718  19.598  10.850   7.700
 3350POPC   NC345719  13.486  34.289   5.519
 3350POPC   PO445720  13.634  34.962   5.437
 3350POPC   GL145721  13.750  34.773   5.808
 3350POPC   GL245722  13.402  34.654   5.898
 3350POPC   C1A45723  13.785  34.547   6.203
 3350POPC   D2A45724  13.592  34.596   6.621
 3350POPC   C3A45725  13.858  34.466   6.954
 3350POPC   C4A45726  13.918  34.272   7.319
 3350POPC   C1B45727  13.153  34.521   6.291
 3350POPC   C2B45728  13.112  34.370   6.731
 3350POPC   C3B45729  13.330  34.409   7.145
 3350POPC   C4B45730  13.236  34.580   7.550
 3351POPC   NC345731  32.120  32.430   5.387
 3351POPC   PO445732  32.531  31.842   5.326
 3351POPC   GL145733  32.381  32.138   5.710
 3351POPC   GL245734  32.408  32.557   5.777
 3351POPC   C1A45735  32.208  32.249   6.140
 3351POPC   D2A45736  31.934  32.238   6.485
 3351POPC   C3A45737  32.183  32.125   6.832
 3351POPC   C4A45738  32.325  32.259   7.224
 3351POPC   C1B45739  32.028  32.731   6.021
 3351POPC   C2B45740  31.849  32.768   6.449
 3351POPC   C3B45741  31.988  32.598   6.862
 3351POPC   C4B45742  31.889  32.490   7.291
 3352POPC   NC345743  44.886  37.498   5.407
 3352POPC   PO445744  44.757  36.903   5.421
 3352POPC   GL145745  44.891  37.072   5.869
 3352POPC   GL245746  44.852  37.424   5.955
 3352POPC   C1A45747  44.927  36.929   6.333
 3352POPC   D2A45748  44.729  36.952   6.765
 3352POPC   C3A45749  44.993  36.983   7.134
 3352POPC   C4A45750   0.092  36.779   7.543
 3352POPC   C1B45751  44.711  37.374   6.409
 3352POPC   C2B45752  44.335  37.273   6.674
 3352POPC   C3B45753  44.341  37.102   7.114
 3352POPC   C4B45754  44.609  36.971   7.467
 3353POPC   NC345755  33.526  35.574   5.360
 3353POPC   PO445756  33.894  35.057   5.119
 3353POPC   GL145757  33.739  35.158   5.564
 3353POPC   GL245758  33.664  34.944   5.825
 3353POPC   C1A45759  33.741  35.442   5.969
 3353POPC   D2A45760  33.935  35.559   6.406
 3353POPC   C3A45761  33.814  35.462   6.826
 3353POPC   C4A45762  33.549  35.447   7.191
 3353POPC   C1B45763  33.799  35.057   6.277
 3353POPC   C2B45764  34.035  35.022   6.671
 3353POPC   C3B45765  33.790  34.993   7.061
 3353POPC   C4B45766  33.726  35.025   7.503
 3354POPC   NC345767  31.150  14.801   5.463
 3354POPC   PO445768  31.303  15.447   5.439
 3354POPC   GL145769  31.290  15.282   5.819
 3354POPC   GL245770  31.501  15.001   5.800
 3354POPC   C1A45771  31.262  15.453   6.216
 3354POPC   D2A45772  31.527  15.436   6.580
 3354POPC   C3A45773  31.391  15.333   6.991
 3354POPC   C4A45774  31.456  15.198   7.431
 3354POPC   C1B45775  31.352  14.952   6.218
 3354POPC   C2B45776  31.135  15.100   6.587
 3354POPC   C3B45777  31.129  14.892   6.967
 3354POPC   C4B45778  31.542  14.772   7.101
 3355POPC   NC345779  36.271   3.323   5.399
 3355POPC   PO445780  35.985   3.867   5.096
 3355POPC   GL145781  36.219   3.849   5.643
 3355POPC   GL245782  36.410   3.539   5.825
 3355POPC   C1A45783  36.086   3.788   6.145
 3355POPC   D2A45784  36.072   3.441   6.491
 3355POPC   C3A45785  35.902   3.485   6.927
 3355POPC   C4A45786  36.036   3.459   7.347
 3355POPC   C1B45787  36.585   3.686   6.229
 3355POPC   C2B45788  36.369   3.842   6.603
 3355POPC   C3B45789  36.369   3.656   7.022
 3355POPC   C4B45790  36.406   3.830   7.440
 3356POPC   NC345791  29.383   6.065   5.427
 3356POPC   PO445792  28.693   5.861   5.410
 3356POPC   GL145793  28.987   6.017   5.761
 3356POPC   GL245794  29.219   6.303   5.868
 3356POPC   C1A45795  28.972   5.920   6.192
 3356POPC   D2A45796  28.899   5.713   6.567
 3356POPC   C3A45797  28.915   5.957   6.930
 3356POPC   C4A45798  28.917   5.833   7.330
 3356POPC   C1B45799  29.470   6.079   6.169
 3356POPC   C2B45800  29.345   5.956   6.589
 3356POPC   C3B45801  29.403   5.821   7.007
 3356POPC   C4B45802  29.318   6.159   7.271
 3357POPC   NC345803  16.326   0.945   5.537
 3357POPC   PO445804  16.715   1.465   5.475
 3357POPC   GL145805  16.831   1.288   5.814
 3357POPC   GL245806  17.094   1.542   5.825
 3357POPC   C1A45807  16.573   1.178   6.146
 3357POPC   D2A45808  16.401   0.943   6.470
 3357POPC   C3A45809  16.507   1.102   6.894
 3357POPC   C4A45810  16.614   0.805   7.190
 3357POPC   C1B45811  16.951   1.542   6.228
 3357POPC   C2B45812  16.823   1.340   6.572
 3357POPC   C3B45813  16.870   1.460   6.984
 3357POPC   C4B45814  17.131   1.609   7.288
 3358POPC   NC345815  23.096  42.386   5.209
 3358POPC   PO445816  23.461  42.622   5.733
 3358POPC   GL145817  23.176  42.319   5.829
 3358POPC   GL245818  22.857  42.491   5.714
 3358POPC   C1A45819  23.085  42.085   6.224
 3358POPC   D2A45820  22.905  42.028   6.609
 3358POPC   C3A45821  23.035  42.232   6.955
 3358POPC   C4A45822  22.922  41.998   7.297
 3358POPC   C1B45823  22.697  42.404   6.121
 3358POPC   C2B45824  22.786  42.533   6.545
 3358POPC   C3B45825  22.629  42.588   6.963
 3358POPC   C4B45826  22.864  42.537   7.342
 3359POPC   NC345827  30.978  29.592   5.435
 3359POPC   PO445828  30.667  29.009   5.280
 3359POPC   GL145829  30.687  28.966   5.762
 3359POPC   GL245830  30.740  29.307   5.874
 3359POPC   C1A45831  30.970  28.916   6.155
 3359POPC   D2A45832  30.997  29.039   6.616
 3359POPC   C3A45833  30.720  28.965   7.001
 3359POPC   C4A45834  30.749  29.274   7.343
 3359POPC   C1B45835  30.571  29.175   6.284
 3359POPC   C2B45836  30.524  29.344   6.702
 3359POPC   C3B45837  30.314  29.310   7.115
 3359POPC   C4B45838  30.174  29.391   7.575
 3360POPC   NC345839   8.359  18.730   5.659
 3360POPC   PO445840   8.007  18.084   5.518
 3360POPC   GL145841   8.099  18.328   5.889
 3360POPC   GL245842   7.890  18.631   5.975
 3360POPC   C1A45843   8.165  18.330   6.322
 3360POPC   D2A45844   8.086  18.505   6.700
 3360POPC   C3A45845   8.052  18.185   6.982
 3360POPC   C4A45846   8.462  18.030   7.165
 3360POPC   C1B45847   8.179  18.849   6.280
 3360POPC   C2B45848   8.583  18.680   6.408
 3360POPC   C3B45849   8.597  18.432   6.805
 3360POPC   C4B45850   8.354  18.537   7.206
 3361POPC   NC345851   9.152  38.153   5.376
 3361POPC   PO445852   8.737  38.561   5.346
 3361POPC   GL145853   8.916  38.463   5.755
 3361POPC   GL245854   8.700  38.767   5.834
 3361POPC   C1A45855   9.042  38.294   6.173
 3361POPC   D2A45856   9.020  38.490   6.607
 3361POPC   C3A45857   9.063  38.365   7.052
 3361POPC   C4A45858   9.190  38.519   7.478
 3361POPC   C1B45859   8.657  38.674   6.263
 3361POPC   C2B45860   8.572  38.765   6.687
 3361POPC   C3B45861   8.820  38.864   7.028
 3361POPC   C4B45862   8.721  38.670   7.384
 3362POPC   NC345863  32.786  19.145   5.383
 3362POPC   PO445864  32.852  18.450   5.333
 3362POPC   GL145865  32.715  18.712   5.752
 3362POPC   GL245866  32.718  19.090   5.882
 3362POPC   C1A45867  32.842  18.706   6.221
 3362POPC   D2A45868  33.018  18.776   6.660
 3362POPC   C3A45869  32.929  19.005   7.074
 3362POPC   C4A45870  33.102  19.257   7.426
 3362POPC   C1B45871  32.919  19.200   6.284
 3362POPC   C2B45872  33.096  19.361   6.686
 3362POPC   C3B45873  32.893  19.536   7.058
 3362POPC   C4B45874  32.601  19.340   7.392
 3363POPC   NC345875  14.231   0.339   5.428
 3363POPC   PO445876  14.938   0.277   5.492
 3363POPC   GL145877  14.591   0.219   5.791
 3363POPC   GL245878  14.531   0.595   5.792
 3363POPC   C1A45879  14.466   0.305   6.224
 3363POPC   D2A45880  14.675   0.568   6.531
 3363POPC   C3A45881  14.676   0.273   6.845
 3363POPC   C4A45882  14.636   0.326   7.259
 3363POPC   C1B45883  14.337   0.781   6.165
 3363POPC   C2B45884  14.183   0.619   6.596
 3363POPC   C3B45885  14.406   0.706   7.004
 3363POPC   C4B45886  14.265   0.643   7.448
 3364POPC   NC345887   8.358  44.437   5.191
 3364POPC   PO445888   7.910  44.749   5.480
 3364POPC   GL145889   8.119  44.481   5.775
 3364POPC   GL245890   7.868  44.382   5.999
 3364POPC   C1A45891   8.321  44.502   6.212
 3364POPC   D2A45892   8.043  44.545   6.591
 3364POPC   C3A45893   8.255  44.484   6.972
 3364POPC   C4A45894   8.471  44.813   7.225
 3364POPC   C1B45895   7.940  44.829   6.166
 3364POPC   C2B45896   7.860   0.021   6.593
 3364POPC   C3B45897   7.970  44.896   7.002
 3364POPC   C4B45898   7.831  44.989   7.389
 3365POPC   NC345899   2.345  30.138   5.343
 3365POPC   PO445900   1.888  29.621   5.282
 3365POPC   GL145901   2.138  29.769   5.664
 3365POPC   GL245902   1.986  30.094   5.705
 3365POPC   C1A45903   2.251  29.897   6.139
 3365POPC   D2A45904   2.197  29.729   6.624
 3365POPC   C3A45905   2.224  29.882   7.080
 3365POPC   C4A45906   2.234  29.958   7.561
 3365POPC   C1B45907   1.732  29.881   6.037
 3365POPC   C2B45908   1.717  29.672   6.450
 3365POPC   C3B45909   1.700  29.775   6.899
 3365POPC   C4B45910   1.785  29.999   7.318
 3366POPC   NC345911  28.755  41.511   5.442
 3366POPC   PO445912  29.428  41.641   5.397
 3366POPC   GL145913  29.293  41.650   5.818
 3366POPC   GL245914  28.948  41.734   5.862
 3366POPC   C1A45915  29.179  41.399   6.183
 3366POPC   D2A45916  28.922  41.441   6.542
 3366POPC   C3A45917  29.167  41.418   6.915
 3366POPC   C4A45918  29.191  41.366   7.354
 3366POPC   C1B45919  29.014  41.902   6.277
 3366POPC   C2B45920  29.001  41.890   6.739
 3366POPC   C3B45921  29.053  41.845   7.205
 3366POPC   C4B45922  28.920  41.913   7.633
 3367POPC   NC345923  37.661  11.246   5.445
 3367POPC   PO445924  38.278  11.231   5.747
 3367POPC   GL145925  37.937  11.415   5.858
 3367POPC   GL245926  37.801  11.084   5.913
 3367POPC   C1A45927  37.774  11.576   6.235
 3367POPC   D2A45928  37.564  11.534   6.650
 3367POPC   C3A45929  37.783  11.561   7.049
 3367POPC   C4A45930  37.869  11.396   7.465
 3367POPC   C1B45931  38.021  11.105   6.313
 3367POPC   C2B45932  37.825  10.959   6.648
 3367POPC   C3B45933  37.584  11.090   6.969
 3367POPC   C4B45934  37.671  10.954   7.346
 3368POPC   NC345935   6.552  14.875   5.583
 3368POPC   PO445936   6.584  14.459   4.982
 3368POPC   GL145937   6.640  14.364   5.485
 3368POPC   GL245938   6.384  14.226   5.726
 3368POPC   C1A45939   6.824  14.360   5.959
 3368POPC   D2A45940   6.792  14.514   6.412
 3368POPC   C3A45941   6.672  14.367   6.826
 3368POPC   C4A45942   6.795  14.443   7.243
 3368POPC   C1B45943   6.352  14.489   6.135
 3368POPC   C2B45944   6.217  14.551   6.571
 3368POPC   C3B45945   6.102  14.387   6.960
 3368POPC   C4B45946   6.320  14.224   7.279
 3369POPC   NC345947  11.432  12.506   5.567
 3369POPC   PO445948  11.107  13.080   5.396
 3369POPC   GL145949  11.260  12.944   5.789
 3369POPC   GL245950  11.641  12.980   5.746
 3369POPC   C1A45951  11.054  12.910   6.196
 3369POPC   D2A45952  11.020  12.737   6.597
 3369POPC   C3A45953  11.189  12.884   6.977
 3369POPC   C4A45954  11.112  12.618   7.324
 3369POPC   C1B45955  11.679  12.795   6.160
 3369POPC   C2B45956  11.547  12.818   6.582
 3369POPC   C3B45957  11.689  12.650   6.966
 3369POPC   C4B45958  11.620  12.431   7.322
 3370POPC   NC345959  35.825  40.185   5.564
 3370POPC   PO445960  36.342  39.740   5.499
 3370POPC   GL145961  36.233  39.960   5.846
 3370POPC   GL245962  36.563  40.022   5.905
 3370POPC   C1A45963  36.122  39.902   6.282
 3370POPC   D2A45964  36.088  39.557   6.572
 3370POPC   C3A45965  36.110  39.764   6.923
 3370POPC   C4A45966  36.057  40.201   7.082
 3370POPC   C1B45967  36.667  40.030   6.330
 3370POPC   C2B45968  36.442  40.099   6.695
 3370POPC   C3B45969  36.513  40.021   7.121
 3370POPC   C4B45970  36.265  39.785   7.390
 3371POPC   NC345971  12.264  33.072   5.203
 3371POPC   PO445972  11.676  32.837   5.436
 3371POPC   GL145973  12.084  32.986   5.704
 3371POPC   GL245974  12.111  33.342   5.766
 3371POPC   C1A45975  12.120  32.918   6.191
 3371POPC   D2A45976  11.897  32.789   6.609
 3371POPC   C3A45977  12.129  32.917   6.940
 3371POPC   C4A45978  12.493  32.761   7.193
 3371POPC   C1B45979  12.054  33.446   6.231
 3371POPC   C2B45980  12.126  33.410   6.676
 3371POPC   C3B45981  11.920  33.427   7.066
 3371POPC   C4B45982  11.740  33.076   7.258
 3372POPC   NC345983  29.809  28.630   5.412
 3372POPC   PO445984  30.259  28.147   5.284
 3372POPC   GL145985  30.176  28.177   5.763
 3372POPC   GL245986  29.854  28.094   5.980
 3372POPC   C1A45987  30.235  28.330   6.203
 3372POPC   D2A45988  29.988  28.125   6.556
 3372POPC   C3A45989  29.959  28.365   6.940
 3372POPC   C4A45990  30.084  28.517   7.377
 3372POPC   C1B45991  29.751  28.490   6.228
 3372POPC   C2B45992  29.779  28.739   6.639
 3372POPC   C3B45993  29.606  28.685   7.096
 3372POPC   C4B45994  29.525  28.315   7.366
 3373POPC   NC345995  18.136  39.945   5.477
 3373POPC   PO445996  18.770  40.108   5.566
 3373POPC   GL145997  18.457  40.252   5.876
 3373POPC   GL245998  18.080  40.199   5.912
 3373POPC   C1A45999  18.377  40.159   6.325
 3373POPC   D2A46000  18.114  39.906   6.578
 3373POPC   C3A46001  18.406  39.775   6.880
 3373POPC   C4A46002  18.390  39.885   7.278
 3373POPC   C1B46003  17.939  40.421   6.284
 3373POPC   C2B46004  18.040  40.392   6.727
 3373POPC   C3B46005  17.993  40.124   7.066
 3373POPC   C4B46006  17.947  40.054   7.497
 3374POPC   NC346007  15.710  40.237   5.376
 3374POPC   PO446008  16.127  40.799   5.510
 3374POPC   GL146009  15.965  40.638   5.859
 3374POPC   GL246010  16.274  40.436   5.885
 3374POPC   C1A46011  15.672  40.773   6.192
 3374POPC   D2A46012  15.621  41.062   6.544
 3374POPC   C3A46013  15.605  40.820   6.916
 3374POPC   C4A46014  15.871  40.797   7.266
 3374POPC   C1B46015  16.259  40.695   6.255
 3374POPC   C2B46016  15.979  40.669   6.592
 3374POPC   C3B46017  16.167  40.580   6.935
 3374POPC   C4B46018  16.401  40.797   7.207
 3375POPC   NC346019  33.768  31.839   5.438
 3375POPC   PO446020  33.354  32.409   5.345
 3375POPC   GL146021  33.658  32.375   5.708
 3375POPC   GL246022  33.911  32.125   5.843
 3375POPC   C1A46023  33.755  32.593   6.105
 3375POPC   D2A46024  33.808  32.802   6.508
 3375POPC   C3A46025  33.890  32.484   6.792
 3375POPC   C4A46026  33.812  32.377   7.210
 3375POPC   C1B46027  33.638  31.881   6.130
 3375POPC   C2B46028  33.566  32.036   6.555
 3375POPC   C3B46029  33.565  31.864   6.974
 3375POPC   C4B46030  33.933  31.856   7.250
 3376POPC   NC346031  35.522   3.866   5.021
 3376POPC   PO446032  35.778   3.641   5.578
 3376POPC   GL146033  35.356   3.717   5.763
 3376POPC   GL246034  35.153   3.406   5.736
 3376POPC   C1A46035  35.337   3.692   6.231
 3376POPC   D2A46036  35.626   3.753   6.580
 3376POPC   C3A46037  35.425   3.670   6.990
 3376POPC   C4A46038  35.462   3.242   7.162
 3376POPC   C1B46039  34.969   3.333   6.142
 3376POPC   C2B46040  35.067   3.392   6.574
 3376POPC   C3B46041  34.979   3.415   6.993
 3376POPC   C4B46042  35.112   3.523   7.432
 3377POPC   NC346043  11.029  33.932   5.574
 3377POPC   PO446044  10.325  33.915   5.376
 3377POPC   GL146045  10.579  33.743   5.770
 3377POPC   GL246046  10.898  33.615   5.945
 3377POPC   C1A46047  10.584  33.913   6.215
 3377POPC   D2A46048  10.329  34.033   6.572
 3377POPC   C3A46049  10.445  33.885   7.006
 3377POPC   C4A46050  10.580  33.973   7.447
 3377POPC   C1B46051  10.552  33.405   6.162
 3377POPC   C2B46052  10.415  33.516   6.581
 3377POPC   C3B46053  10.510  33.314   6.945
 3377POPC   C4B46054  10.477  33.469   7.336
 3378POPC   NC346055  44.998  39.085   5.563
 3378POPC   PO446056  44.498  39.502   5.410
 3378POPC   GL146057  44.736  39.443   5.825
 3378POPC   GL246058   0.081  39.596   5.811
 3378POPC   C1A46059  44.648  39.298   6.297
 3378POPC   D2A46060  44.524  39.394   6.747
 3378POPC   C3A46061  44.578  39.034   7.048
 3378POPC   C4A46062  44.765  38.809   7.391
 3378POPC   C1B46063   0.128  39.438   6.192
 3378POPC   C2B46064   0.177  39.186   6.538
 3378POPC   C3B46065   0.008  39.326   6.907
 3378POPC   C4B46066  44.740  39.477   7.224
 3379POPC   NC346067  10.152  26.057   5.636
 3379POPC   PO446068   9.488  26.101   5.422
 3379POPC   GL146069   9.639  26.064   5.835
 3379POPC   GL246070   9.806  26.375   5.830
 3379POPC   C1A46071   9.612  25.799   6.232
 3379POPC   D2A46072   9.418  25.721   6.651
 3379POPC   C3A46073   9.659  25.797   6.996
 3379POPC   C4A46074   9.685  25.999   7.374
 3379POPC   C1B46075   9.790  26.299   6.265
 3379POPC   C2B46076   9.854  26.087   6.617
 3379POPC   C3B46077   9.897  26.310   6.972
 3379POPC   C4B46078  10.096  26.287   7.368
 3380POPC   NC346079  20.484   0.707   5.317
 3380POPC   PO446080  20.567   0.076   5.410
 3380POPC   GL146081  20.620   0.413   5.730
 3380POPC   GL246082  20.298   0.580   5.789
 3380POPC   C1A46083  20.741   0.616   6.120
 3380POPC   D2A46084  20.555   0.608   6.534
 3380POPC   C3A46085  20.754   0.503   6.949
 3380POPC   C4A46086  20.550   0.631   7.306
 3380POPC   C1B46087  20.366   0.271   6.146
 3380POPC   C2B46088  20.260   0.182   6.563
 3380POPC   C3B46089  20.228   0.399   6.956
 3380POPC   C4B46090  20.284   0.191   7.364
 3381POPC   NC346091   9.865  43.521   5.180
 3381POPC   PO446092   9.532  44.160   5.346
 3381POPC   GL146093   9.825  44.143   5.730
 3381POPC   GL246094   9.907  43.810   5.858
 3381POPC   C1A46095   9.875  44.262   6.166
 3381POPC   D2A46096   9.663  44.186   6.559
 3381POPC   C3A46097   9.790  44.206   6.982
 3381POPC   C4A46098   9.989  43.967   7.292
 3381POPC   C1B46099   9.910  43.766   6.325
 3381POPC   C2B46100   9.868  43.736   6.790
 3381POPC   C3B46101   9.838  43.498   7.183
 3381POPC   C4B46102  10.176  43.514   7.521
 3382POPC   NC346103  15.045  18.557   5.477
 3382POPC   PO446104  14.958  19.202   5.480
 3382POPC   GL146105  14.973  18.992   5.859
 3382POPC   GL246106  15.212  19.238   5.962
 3382POPC   C1A46107  15.029  18.849   6.321
 3382POPC   D2A46108  15.258  19.000   6.694
 3382POPC   C3A46109  15.216  18.785   7.084
 3382POPC   C4A46110  15.152  18.455   7.346
 3382POPC   C1B46111  14.897  19.342   6.267
 3382POPC   C2B46112  14.910  19.379   6.715
 3382POPC   C3B46113  15.049  19.270   7.110
 3382POPC   C4B46114  15.465  19.333   7.222
 3383POPC   NC346115  36.500  20.525   5.413
 3383POPC   PO446116  37.183  20.821   5.507
 3383POPC   GL146117  36.985  20.538   5.756
 3383POPC   GL246118  36.703  20.727   5.816
 3383POPC   C1A46119  36.875  20.317   6.116
 3383POPC   D2A46120  37.078  20.295   6.506
 3383POPC   C3A46121  36.951  20.538   6.863
 3383POPC   C4A46122  36.595  20.425   7.102
 3383POPC   C1B46123  36.725  20.859   6.209
 3383POPC   C2B46124  36.914  20.951   6.583
 3383POPC   C3B46125  36.707  20.956   6.996
 3383POPC   C4B46126  36.724  20.763   7.440
 3384POPC   NC346127  13.449  15.793   5.341
 3384POPC   PO446128  13.490  16.494   5.332
 3384POPC   GL146129  13.460  16.298   5.758
 3384POPC   GL246130  13.340  15.978   5.781
 3384POPC   C1A46131  13.635  16.141   6.160
 3384POPC   D2A46132  13.637  15.856   6.504
 3384POPC   C3A46133  13.718  16.043   6.923
 3384POPC   C4A46134  13.638  16.290   7.338
 3384POPC   C1B46135  13.242  15.737   6.110
 3384POPC   C2B46136  13.091  15.776   6.493
 3384POPC   C3B46137  13.304  15.738   6.862
 3384POPC   C4B46138  13.436  15.818   7.258
 3385POPC   NC346139  23.250  34.508   5.598
 3385POPC   PO446140  23.784  34.844   5.417
 3385POPC   GL146141  23.803  34.817   5.819
 3385POPC   GL246142  23.459  34.905   5.844
 3385POPC   C1A46143  23.968  34.631   6.197
 3385POPC   D2A46144  23.869  34.400   6.583
 3385POPC   C3A46145  23.925  34.576   7.005
 3385POPC   C4A46146  23.878  34.510   7.442
 3385POPC   C1B46147  23.452  34.689   6.217
 3385POPC   C2B46148  23.370  34.564   6.608
 3385POPC   C3B46149  23.237  34.395   6.975
 3385POPC   C4B46150  23.373  34.611   7.328
 3386POPC   NC346151  31.273   4.416   5.438
 3386POPC   PO446152  31.514   3.881   5.466
 3386POPC   GL146153  31.616   4.191   5.795
 3386POPC   GL246154  31.672   4.565   5.702
 3386POPC   C1A46155  31.589   4.200   6.247
 3386POPC   D2A46156  31.625   4.080   6.660
 3386POPC   C3A46157  31.452   4.146   7.051
 3386POPC   C4A46158  31.272   4.553   6.969
 3386POPC   C1B46159  31.748   4.651   6.121
 3386POPC   C2B46160  31.673   4.607   6.572
 3386POPC   C3B46161  31.820   4.486   6.982
 3386POPC   C4B46162  31.669   4.496   7.386
 3387POPC   NC346163  31.118  31.273   5.084
 3387POPC   PO446164  30.595  31.514   5.401
 3387POPC   GL146165  30.822  31.580   5.773
 3387POPC   GL246166  30.525  31.681   5.949
 3387POPC   C1A46167  30.816  31.351   6.183
 3387POPC   D2A46168  30.625  31.323   6.583
 3387POPC   C3A46169  30.909  31.518   6.847
 3387POPC   C4A46170  30.918  31.443   7.283
 3387POPC   C1B46171  30.400  31.749   6.389
 3387POPC   C2B46172  30.468  31.777   6.848
 3387POPC   C3B46173  30.421  31.767   7.297
 3387POPC   C4B46174  30.157  31.949   7.612
 3388POPC   NC346175  35.019  43.270   5.439
 3388POPC   PO446176  35.643  42.984   5.449
 3388POPC   GL146177  35.451  43.261   5.722
 3388POPC   GL246178  35.235  42.992   5.815
 3388POPC   C1A46179  35.413  43.309   6.173
 3388POPC   D2A46180  35.509  42.996   6.485
 3388POPC   C3A46181  35.497  43.143   6.906
 3388POPC   C4A46182  35.453  43.473   7.202
 3388POPC   C1B46183  35.035  42.990   6.227
 3388POPC   C2B46184  35.045  43.170   6.629
 3388POPC   C3B46185  35.021  42.967   7.020
 3388POPC   C4B46186  35.033  43.207   7.343
 3389POPC   NC346187   3.304  36.468   5.367
 3389POPC   PO446188   4.002  36.548   5.389
 3389POPC   GL146189   3.862  36.278   5.712
 3389POPC   GL246190   3.583  36.473   5.801
 3389POPC   C1A46191   3.732  36.075   6.126
 3389POPC   D2A46192   3.857  35.888   6.518
 3389POPC   C3A46193   3.682  35.945   6.923
 3389POPC   C4A46194   3.604  36.290   7.228
 3389POPC   C1B46195   3.267  36.254   6.057
 3389POPC   C2B46196   3.325  36.075   6.459
 3389POPC   C3B46197   3.270  36.228   6.858
 3389POPC   C4B46198   3.210  35.972   7.179
 3390POPC   NC346199  37.305   0.437   5.256
 3390POPC   PO446200  36.722   0.771   5.448
 3390POPC   GL146201  36.879   0.611   5.828
 3390POPC   GL246202  37.087   0.348   5.782
 3390POPC   C1A46203  36.695   0.294   6.130
 3390POPC   D2A46204  36.411   0.257   6.479
 3390POPC   C3A46205  36.612   0.153   6.883
 3390POPC   C4A46206  36.573   0.357   7.264
 3390POPC   C1B46207  37.168   0.492   6.236
 3390POPC   C2B46208  37.130   0.336   6.674
 3390POPC   C3B46209  37.171   0.590   7.055
 3390POPC   C4B46210  37.260   0.801   7.474
 3391POPC   NC346211  41.571  11.933   5.280
 3391POPC   PO446212  41.512  12.539   5.283
 3391POPC   GL146213  41.663  12.298   5.639
 3391POPC   GL246214  41.353  12.124   5.707
 3391POPC   C1A46215  41.698  12.070   6.072
 3391POPC   D2A46216  41.523  11.901   6.445
 3391POPC   C3A46217  41.660  12.019   6.841
 3391POPC   C4A46218  41.708  11.931   7.278
 3391POPC   C1B46219  41.154  11.977   6.076
 3391POPC   C2B46220  41.065  12.123   6.484
 3391POPC   C3B46221  41.151  11.974   6.872
 3391POPC   C4B46222  41.169  12.082   7.285
 3392POPC   NC346223   7.016  17.343   5.383
 3392POPC   PO446224   6.477  17.614   5.295
 3392POPC   GL146225   6.636  17.615   5.767
 3392POPC   GL246226   6.753  17.276   5.814
 3392POPC   C1A46227   6.599  17.720   6.260
 3392POPC   D2A46228   6.519  17.498   6.680
 3392POPC   C3A46229   6.511  17.594   7.150
 3392POPC   C4A46230   6.776  17.514   7.501
 3392POPC   C1B46231   6.557  17.203   6.196
 3392POPC   C2B46232   6.616  16.997   6.580
 3392POPC   C3B46233   6.635  17.113   7.026
 3392POPC   C4B46234   6.498  17.064   7.453
 3393POPC   NC346235  15.125  42.683   4.891
 3393POPC   PO446236  15.159  42.324   5.499
 3393POPC   GL146237  15.262  42.322   5.929
 3393POPC   GL246238  15.261  41.998   6.110
 3393POPC   C1A46239  15.181  42.606   6.271
 3393POPC   D2A46240  15.254  42.823   6.670
 3393POPC   C3A46241  15.105  42.544   6.998
 3393POPC   C4A46242  15.284  42.170   7.169
 3393POPC   C1B46243  14.865  42.185   6.281
 3393POPC   C2B46244  14.757  42.297   6.694
 3393POPC   C3B46245  14.785  42.069   7.088
 3393POPC   C4B46246  14.854  42.170   7.532
 3394POPC   NC346247  11.431  30.090   5.313
 3394POPC   PO446248  11.091  29.682   5.659
 3394POPC   GL146249  11.395  29.921   5.797
 3394POPC   GL246250  11.202  30.202   5.790
 3394POPC   C1A46251  11.478  30.066   6.193
 3394POPC   D2A46252  11.582  29.816   6.520
 3394POPC   C3A46253  11.340  29.800   6.864
 3394POPC   C4A46254  11.350  29.971   7.254
 3394POPC   C1B46255  10.948  30.022   6.164
 3394POPC   C2B46256  10.810  29.859   6.562
 3394POPC   C3B46257  10.898  30.035   6.952
 3394POPC   C4B46258  10.915  30.256   7.306
 3395POPC   NC346259  12.706   3.588   5.428
 3395POPC   PO446260  13.240   3.194   5.461
 3395POPC   GL146261  12.941   3.115   5.834
 3395POPC   GL246262  12.590   3.256   5.822
 3395POPC   C1A46263  12.850   3.221   6.288
 3395POPC   D2A46264  12.906   3.040   6.694
 3395POPC   C3A46265  12.878   3.336   7.026
 3395POPC   C4A46266  12.587   3.420   7.328
 3395POPC   C1B46267  12.556   3.615   6.127
 3395POPC   C2B46268  12.657   3.674   6.581
 3395POPC   C3B46269  12.610   3.819   7.016
 3395POPC   C4B46270  12.698   3.894   7.492
 3396POPC   NC346271  19.006  15.214   5.351
 3396POPC   PO446272  19.234  14.598   5.334
 3396POPC   GL146273  19.144  14.723   5.806
 3396POPC   GL246274  19.031  15.078   5.851
 3396POPC   C1A46275  18.944  14.775   6.250
 3396POPC   D2A46276  18.847  15.012   6.644
 3396POPC   C3A46277  18.910  15.070   7.096
 3396POPC   C4A46278  19.086  15.124   7.506
 3396POPC   C1B46279  19.163  15.240   6.271
 3396POPC   C2B46280  19.114  15.453   6.689
 3396POPC   C3B46281  19.178  15.496   7.138
 3396POPC   C4B46282  19.032  15.727   7.514
 3397POPC   NC346283  12.995  19.528   5.468
 3397POPC   PO446284  12.796  20.158   5.658
 3397POPC   GL146285  12.902  19.801   5.891
 3397POPC   GL246286  12.602  19.625   5.878
 3397POPC   C1A46287  13.104  19.772   6.292
 3397POPC   D2A46288  13.119  19.598   6.688
 3397POPC   C3A46289  13.047  19.773   7.073
 3397POPC   C4A46290  12.679  19.604   7.271
 3397POPC   C1B46291  12.611  19.914   6.284
 3397POPC   C2B46292  12.672  19.860   6.724
 3397POPC   C3B46293  12.452  20.027   7.050
 3397POPC   C4B46294  12.420  20.331   7.323
 3398POPC   NC346295  11.008  27.380   5.414
 3398POPC   PO446296  11.431  27.877   5.466
 3398POPC   GL146297  11.342  27.565   5.764
 3398POPC   GL246298  11.461  27.226   5.677
 3398POPC   C1A46299  11.176  27.414   6.122
 3398POPC   D2A46300  11.222  27.438   6.546
 3398POPC   C3A46301  11.109  27.829   6.728
 3398POPC   C4A46302  11.072  27.985   7.128
 3398POPC   C1B46303  11.562  27.088   6.104
 3398POPC   C2B46304  11.608  27.105   6.562
 3398POPC   C3B46305  11.549  27.355   6.931
 3398POPC   C4B46306  11.416  27.590   7.269
 3399POPC   NC346307   1.984  32.399   5.385
 3399POPC   PO446308   2.023  31.671   5.511
 3399POPC   GL146309   1.906  31.983   5.739
 3399POPC   GL246310   2.204  32.175   5.791
 3399POPC   C1A46311   1.817  32.042   6.177
 3399POPC   D2A46312   1.841  32.309   6.538
 3399POPC   C3A46313   1.977  32.075   6.888
 3399POPC   C4A46314   1.869  32.245   7.277
 3399POPC   C1B46315   2.081  32.495   6.121
 3399POPC   C2B46316   2.310  32.569   6.528
 3399POPC   C3B46317   2.316  32.456   6.963
 3399POPC   C4B46318   2.121  32.695   7.248
 3400POPC   NC346319  12.618  32.307   5.375
 3400POPC   PO446320  13.163  32.593   5.579
 3400POPC   GL146321  12.904  32.325   5.827
 3400POPC   GL246322  12.553  32.387   5.912
 3400POPC   C1A46323  12.992  32.212   6.236
 3400POPC   D2A46324  12.856  32.522   6.533
 3400POPC   C3A46325  12.806  32.438   6.972
 3400POPC   C4A46326  12.952  32.131   7.199
 3400POPC   C1B46327  12.502  32.186   6.306
 3400POPC   C2B46328  12.663  32.032   6.706
 3400POPC   C3B46329  12.493  31.962   7.123
 3400POPC   C4B46330  12.467  32.279   7.427
 3401POPC   NC346331  31.358  26.086   5.252
 3401POPC   PO446332  31.990  26.227   5.447
 3401POPC   GL146333  31.777  25.918   5.718
 3401POPC   GL246334  31.402  25.965   5.753
 3401POPC   C1A46335  31.681  25.952   6.170
 3401POPC   D2A46336  31.733  26.339   6.439
 3401POPC   C3A46337  31.695  26.244   6.862
 3401POPC   C4A46338  31.678  25.857   7.060
 3401POPC   C1B46339  31.218  26.187   6.136
 3401POPC   C2B46340  31.021  25.996   6.496
 3401POPC   C3B46341  31.070  26.121   6.919
 3401POPC   C4B46342  31.347  26.250   7.249
 3402POPC   NC346343  36.787  12.935   5.380
 3402POPC   PO446344  37.310  12.423   5.419
 3402POPC   GL146345  37.155  12.808   5.723
 3402POPC   GL246346  37.007  13.200   5.760
 3402POPC   C1A46347  37.141  12.949   6.176
 3402POPC   D2A46348  37.194  12.845   6.610
 3402POPC   C3A46349  36.867  12.785   6.901
 3402POPC   C4A46350  37.069  12.803   7.271
 3402POPC   C1B46351  36.740  13.288   6.114
 3402POPC   C2B46352  36.765  13.125   6.518
 3402POPC   C3B46353  36.700  13.279   6.918
 3402POPC   C4B46354  36.321  13.279   7.166
 3403POPC   NC346355  21.699  15.373   5.516
 3403POPC   PO446356  21.148  15.026   5.506
 3403POPC   GL146357  21.395  15.152   5.875
 3403POPC   GL246358  21.750  15.076   5.912
 3403POPC   C1A46359  21.429  15.092   6.304
 3403POPC   D2A46360  21.204  14.953   6.621
 3403POPC   C3A46361  21.412  15.071   6.982
 3403POPC   C4A46362  21.237  15.008   7.397
 3403POPC   C1B46363  21.789  15.440   6.199
 3403POPC   C2B46364  21.596  15.453   6.630
 3403POPC   C3B46365  21.806  15.423   7.025
 3403POPC   C4B46366  21.686  15.220   7.389
 3404POPC   NC346367   7.687  13.408   5.284
 3404POPC   PO446368   7.120  13.738   5.429
 3404POPC   GL146369   7.461  13.642   5.707
 3404POPC   GL246370   7.170  13.616   5.952
 3404POPC   C1A46371   7.618  13.564   6.148
 3404POPC   D2A46372   7.304  13.546   6.498
 3404POPC   C3A46373   7.470  13.383   6.894
 3404POPC   C4A46374   7.737  13.565   7.210
 3404POPC   C1B46375   7.057  13.963   6.254
 3404POPC   C2B46376   7.123  14.165   6.642
 3404POPC   C3B46377   7.151  14.078   7.053
 3404POPC   C4B46378   7.266  13.733   7.271
 3405POPC   NC346379  30.275  22.765   5.431
 3405POPC   PO446380  30.237  23.409   5.453
 3405POPC   GL146381  30.247  23.091   5.815
 3405POPC   GL246382  30.045  22.766   5.884
 3405POPC   C1A46383  30.098  23.138   6.209
 3405POPC   D2A46384  29.967  22.963   6.523
 3405POPC   C3A46385  30.059  23.232   6.848
 3405POPC   C4A46386  29.988  23.103   7.255
 3405POPC   C1B46387  29.911  22.524   6.250
 3405POPC   C2B46388  29.827  22.462   6.702
 3405POPC   C3B46389  29.812  22.490   7.153
 3405POPC   C4B46390  29.479  22.528   7.420
 3406POPC   NC346391   4.139  19.336   5.470
 3406POPC   PO446392   4.629  18.861   5.445
 3406POPC   GL146393   4.298  18.902   5.754
 3406POPC   GL246394   4.121  18.613   5.877
 3406POPC   C1A46395   4.278  18.983   6.194
 3406POPC   D2A46396   4.455  18.867   6.570
 3406POPC   C3A46397   4.449  19.191   6.855
 3406POPC   C4A46398   4.155  19.045   7.118
 3406POPC   C1B46399   4.515  18.520   6.113
 3406POPC   C2B46400   4.711  18.437   6.522
 3406POPC   C3B46401   4.640  18.519   6.937
 3406POPC   C4B46402   4.626  18.855   7.222
 3407POPC   NC346403  37.829   5.168   5.491
 3407POPC   PO446404  37.216   4.865   5.415
 3407POPC   GL146405  37.480   4.903   5.832
 3407POPC   GL246406  37.569   5.260   5.921
 3407POPC   C1A46407  37.611   4.900   6.317
 3407POPC   D2A46408  37.868   4.749   6.726
 3407POPC   C3A46409  37.842   4.940   7.161
 3407POPC   C4A46410  37.881   5.052   7.624
 3407POPC   C1B46411  37.566   5.473   6.309
 3407POPC   C2B46412  37.445   5.294   6.704
 3407POPC   C3B46413  37.480   5.315   7.139
 3407POPC   C4B46414  37.214   5.564   7.407
 3408POPC   NC346415  34.281  13.931   5.362
 3408POPC   PO446416  34.920  13.753   5.435
 3408POPC   GL146417  34.652  13.846   5.760
 3408POPC   GL246418  34.364  13.620   5.760
 3408POPC   C1A46419  34.754  13.907   6.189
 3408POPC   D2A46420  34.563  13.785   6.570
 3408POPC   C3A46421  34.753  13.880   6.926
 3408POPC   C4A46422  34.753  13.744   7.332
 3408POPC   C1B46423  34.335  13.512   6.208
 3408POPC   C2B46424  34.229  13.405   6.666
 3408POPC   C3B46425  34.363  13.447   7.132
 3408POPC   C4B46426  34.146  13.323   7.544
 3409POPC   NC346427  18.345  27.458   5.319
 3409POPC   PO446428  17.822  27.354   5.486
 3409POPC   GL146429  18.179  27.362   5.820
 3409POPC   GL246430  18.469  27.608   5.799
 3409POPC   C1A46431  18.196  27.430   6.307
 3409POPC   D2A46432  18.113  27.354   6.785
 3409POPC   C3A46433  17.995  27.697   7.089
 3409POPC   C4A46434  17.759  27.755   7.497
 3409POPC   C1B46435  18.673  27.366   6.128
 3409POPC   C2B46436  18.633  27.335   6.609
 3409POPC   C3B46437  18.541  27.334   7.072
 3409POPC   C4B46438  18.669  27.595   7.412
 3410POPC   NC346439  14.687  22.844   5.420
 3410POPC   PO446440  14.300  23.339   5.390
 3410POPC   GL146441  14.379  23.111   5.770
 3410POPC   GL246442  14.355  22.772   5.809
 3410POPC   C1A46443  14.318  23.147   6.209
 3410POPC   D2A46444  14.130  23.007   6.568
 3410POPC   C3A46445  14.230  23.150   6.991
 3410POPC   C4A46446  14.515  22.928   7.269
 3410POPC   C1B46447  14.206  22.613   6.193
 3410POPC   C2B46448  14.162  22.397   6.560
 3410POPC   C3B46449  14.225  22.509   6.993
 3410POPC   C4B46450  14.029  22.513   7.410
 3411POPC   NC346451  16.723  36.549   5.523
 3411POPC   PO446452  17.013  36.003   5.428
 3411POPC   GL146453  16.648  36.038   5.742
 3411POPC   GL246454  16.861  36.244   5.910
 3411POPC   C1A46455  16.499  36.077   6.183
 3411POPC   D2A46456  16.780  36.155   6.523
 3411POPC   C3A46457  16.607  36.147   6.908
 3411POPC   C4A46458  16.451  36.139   7.308
 3411POPC   C1B46459  17.140  36.387   6.235
 3411POPC   C2B46460  17.043  36.656   6.586
 3411POPC   C3B46461  17.022  36.436   6.941
 3411POPC   C4B46462  16.999  36.089   7.232
 3412POPC   NC346463  21.604  27.773   5.437
 3412POPC   PO446464  21.312  27.109   5.461
 3412POPC   GL146465  21.328  27.447   5.770
 3412POPC   GL246466  21.691  27.506   5.857
 3412POPC   C1A46467  21.305  27.624   6.194
 3412POPC   D2A46468  21.075  27.668   6.568
 3412POPC   C3A46469  21.042  27.603   7.008
 3412POPC   C4A46470  21.200  27.849   7.315
 3412POPC   C1B46471  21.683  27.279   6.243
 3412POPC   C2B46472  21.482  27.380   6.634
 3412POPC   C3B46473  21.549  27.504   7.030
 3412POPC   C4B46474  21.758  27.225   7.267
 3413POPC   NC346475  13.312   9.993   5.436
 3413POPC   PO446476  13.770   9.567   5.356
 3413POPC   GL146477  13.575   9.658   5.774
 3413POPC   GL246478  13.651  10.003   5.860
 3413POPC   C1A46479  13.623   9.607   6.254
 3413POPC   D2A46480  13.869   9.728   6.643
 3413POPC   C3A46481  13.650   9.735   7.048
 3413POPC   C4A46482  13.593   9.634   7.508
 3413POPC   C1B46483  13.976  10.175   6.149
 3413POPC   C2B46484  14.168  10.145   6.566
 3413POPC   C3B46485  13.945  10.159   6.956
 3413POPC   C4B46486  13.783  10.134   7.369
 3414POPC   NC346487   0.937  34.477   5.545
 3414POPC   PO446488   1.233  34.907   5.125
 3414POPC   GL146489   1.360  34.796   5.634
 3414POPC   GL246490   1.299  34.486   5.893
 3414POPC   C1A46491   1.242  34.921   6.119
 3414POPC   D2A46492   1.333  34.803   6.585
 3414POPC   C3A46493   1.181  34.716   7.026
 3414POPC   C4A46494   1.133  34.518   7.451
 3414POPC   C1B46495   1.478  34.217   6.223
 3414POPC   C2B46496   1.458  34.273   6.670
 3414POPC   C3B46497   1.563  34.059   7.037
 3414POPC   C4B46498   1.411  34.089   7.452
 3415POPC   NC346499  25.566  20.084   5.169
 3415POPC   PO446500  25.020  19.970   5.582
 3415POPC   GL146501  25.325  19.841   5.842
 3415POPC   GL246502  25.497  19.590   5.646
 3415POPC   C1A46503  25.262  19.762   6.284
 3415POPC   D2A46504  25.306  19.679   6.706
 3415POPC   C3A46505  25.020  19.687   7.043
 3415POPC   C4A46506  25.165  19.870   7.437
 3415POPC   C1B46507  25.675  19.528   6.084
 3415POPC   C2B46508  25.632  19.336   6.539
 3415POPC   C3B46509  25.696  19.518   7.009
 3415POPC   C4B46510  25.597  19.499   7.473
 3416POPC   NC346511  36.667  40.134   5.384
 3416POPC   PO446512  37.184  39.776   5.274
 3416POPC   GL146513  37.040  39.881   5.684
 3416POPC   GL246514  37.004  40.236   5.761
 3416POPC   C1A46515  37.107  39.812   6.122
 3416POPC   D2A46516  37.246  40.050   6.480
 3416POPC   C3A46517  36.948  40.061   6.843
 3416POPC   C4A46518  36.910  39.732   7.187
 3416POPC   C1B46519  36.731  40.486   6.056
 3416POPC   C2B46520  36.597  40.570   6.487
 3416POPC   C3B46521  36.600  40.525   6.949
 3416POPC   C4B46522  36.794  40.392   7.346
 3417POPC   NC346523   3.984  12.169   5.015
 3417POPC   PO446524   3.405  11.970   5.446
 3417POPC   GL146525   3.475  12.168   5.828
 3417POPC   GL246526   3.638  11.870   5.935
 3417POPC   C1A46527   3.535  12.407   6.197
 3417POPC   D2A46528   3.656  12.223   6.574
 3417POPC   C3A46529   3.750  12.398   6.979
 3417POPC   C4A46530   3.423  12.436   7.286
 3417POPC   C1B46531   3.457  11.782   6.349
 3417POPC   C2B46532   3.450  11.792   6.810
 3417POPC   C3B46533   3.578  11.960   7.198
 3417POPC   C4B46534   3.764  11.782   7.574
 3418POPC   NC346535   2.657  18.529   5.448
 3418POPC   PO446536   3.087  18.021   5.348
 3418POPC   GL146537   2.869  18.168   5.742
 3418POPC   GL246538   2.487  18.110   5.719
 3418POPC   C1A46539   2.834  18.468   6.123
 3418POPC   D2A46540   2.647  18.569   6.537
 3418POPC   C3A46541   2.774  18.381   6.908
 3418POPC   C4A46542   2.840  18.443   7.347
 3418POPC   C1B46543   2.364  18.293   6.127
 3418POPC   C2B46544   2.425  18.124   6.549
 3418POPC   C3B46545   2.290  18.245   6.944
 3418POPC   C4B46546   2.370  18.113   7.391
 3419POPC   NC346547  43.339  12.257   5.209
 3419POPC   PO446548  42.717  11.934   5.370
 3419POPC   GL146549  42.958  12.051   5.744
 3419POPC   GL246550  43.304  12.076   5.705
 3419POPC   C1A46551  43.113  12.186   6.150
 3419POPC   D2A46552  43.396  12.146   6.491
 3419POPC   C3A46553  43.146  12.168   6.830
 3419POPC   C4A46554  43.099  12.104   7.218
 3419POPC   C1B46555  43.389  11.757   6.071
 3419POPC   C2B46556  43.504  11.627   6.504
 3419POPC   C3B46557  43.439  11.754   6.950
 3419POPC   C4B46558  43.199  11.639   7.344
 3420POPC   NC346559  34.956  26.055   5.728
 3420POPC   PO446560  34.443  25.852   5.245
 3420POPC   GL146561  34.504  25.823   5.752
 3420POPC   GL246562  34.776  25.654   5.980
 3420POPC   C1A46563  34.432  26.016   6.190
 3420POPC   D2A46564  34.410  26.328   6.567
 3420POPC   C3A46565  34.768  26.363   6.860
 3420POPC   C4A46566  34.900  26.299   7.288
 3420POPC   C1B46567  34.988  25.788   6.349
 3420POPC   C2B46568  34.709  25.909   6.647
 3420POPC   C3B46569  34.699  25.886   7.080
 3420POPC   C4B46570  34.907  25.574   7.313
 3421POPC   NC346571  21.906  41.368   5.112
 3421POPC   PO446572  22.381  41.781   5.309
 3421POPC   GL146573  22.357  41.510   5.678
 3421POPC   GL246574  22.283  41.831   5.841
 3421POPC   C1A46575  22.289  41.436   6.147
 3421POPC   D2A46576  21.967  41.586   6.453
 3421POPC   C3A46577  21.902  41.355   6.835
 3421POPC   C4A46578  21.886  41.541   7.255
 3421POPC   C1B46579  22.602  41.897   6.132
 3421POPC   C2B46580  22.545  41.698   6.505
 3421POPC   C3B46581  22.290  41.703   6.848
 3421POPC   C4B46582  22.396  41.605   7.234
 3422POPC   NC346583  32.627  42.850   5.316
 3422POPC   PO446584  32.049  43.191   5.390
 3422POPC   GL146585  32.136  42.976   5.761
 3422POPC   GL246586  32.486  43.083   5.772
 3422POPC   C1A46587  31.962  43.083   6.188
 3422POPC   D2A46588  31.753  43.147   6.578
 3422POPC   C3A46589  31.959  43.122   6.999
 3422POPC   C4A46590  32.025  42.751   7.298
 3422POPC   C1B46591  32.445  42.947   6.184
 3422POPC   C2B46592  32.524  43.106   6.575
 3422POPC   C3B46593  32.431  42.933   6.956
 3422POPC   C4B46594  32.404  43.080   7.387
 3423POPC   NC346595  22.877   7.332   5.535
 3423POPC   PO446596  22.534   6.750   5.479
 3423POPC   GL146597  22.857   6.714   5.817
 3423POPC   GL246598  22.842   6.377   5.970
 3423POPC   C1A46599  23.059   6.816   6.225
 3423POPC   D2A46600  23.118   6.904   6.686
 3423POPC   C3A46601  22.961   6.955   7.137
 3423POPC   C4A46602  22.979   6.835   7.611
 3423POPC   C1B46603  22.893   6.353   6.414
 3423POPC   C2B46604  23.166   6.391   6.766
 3423POPC   C3B46605  23.109   6.466   7.209
 3423POPC   C4B46606  22.761   6.397   7.458
 3424POPC   NC346607   6.910  40.695   5.375
 3424POPC   PO446608   6.546  41.235   5.334
 3424POPC   GL146609   6.511  40.965   5.697
 3424POPC   GL246610   6.815  40.866   5.842
 3424POPC   C1A46611   6.423  40.844   6.147
 3424POPC   D2A46612   6.282  40.876   6.592
 3424POPC   C3A46613   6.444  40.650   6.974
 3424POPC   C4A46614   6.598  40.838   7.374
 3424POPC   C1B46615   7.018  40.726   6.208
 3424POPC   C2B46616   7.070  40.781   6.649
 3424POPC   C3B46617   7.030  40.751   7.099
 3424POPC   C4B46618   7.107  40.668   7.535
 3425POPC   NC346619  29.747  25.974   5.358
 3425POPC   PO446620  30.403  25.663   5.513
 3425POPC   GL146621  30.048  25.764   5.825
 3425POPC   GL246622  29.803  26.095   5.841
 3425POPC   C1A46623  29.847  25.793   6.216
 3425POPC   D2A46624  29.700  26.079   6.527
 3425POPC   C3A46625  29.879  25.890   6.886
 3425POPC   C4A46626  29.769  25.695   7.260
 3425POPC   C1B46627  30.068  26.277   6.191
 3425POPC   C2B46628  30.222  26.187   6.621
 3425POPC   C3B46629  30.075  26.325   7.058
 3425POPC   C4B46630  30.327  26.344   7.447
 3426POPC   NC346631  38.586  25.985   5.481
 3426POPC   PO446632  38.042  25.897   5.505
 3426POPC   GL146633  38.302  25.909   5.915
 3426POPC   GL246634  38.684  25.857   5.963
 3426POPC   C1A46635  38.376  26.104   6.344
 3426POPC   D2A46636  38.434  26.022   6.794
 3426POPC   C3A46637  38.635  26.239   7.160
 3426POPC   C4A46638  38.613  26.622   7.412
 3426POPC   C1B46639  38.759  25.756   6.409
 3426POPC   C2B46640  38.509  25.504   6.714
 3426POPC   C3B46641  38.241  25.636   7.053
 3426POPC   C4B46642  38.185  26.029   7.261
 3427POPC   NC346643  23.049  13.369   5.449
 3427POPC   PO446644  23.135  12.735   5.345
 3427POPC   GL146645  22.942  12.816   5.765
 3427POPC   GL246646  22.818  13.150   5.858
 3427POPC   C1A46647  23.077  12.810   6.200
 3427POPC   D2A46648  22.878  12.652   6.590
 3427POPC   C3A46649  23.130  12.730   6.949
 3427POPC   C4A46650  23.091  12.959   7.328
 3427POPC   C1B46651  22.629  13.038   6.282
 3427POPC   C2B46652  22.447  12.986   6.704
 3427POPC   C3B46653  22.622  12.793   7.071
 3427POPC   C4B46654  22.759  12.570   7.428
 3428POPC   NC346655  25.159   9.915   5.152
 3428POPC   PO446656  25.303  10.652   5.266
 3428POPC   GL146657  25.287  10.610   5.758
 3428POPC   GL246658  25.035  10.898   5.787
 3428POPC   C1A46659  25.336  10.371   6.188
 3428POPC   D2A46660  25.556  10.473   6.586
 3428POPC   C3A46661  25.403  10.377   7.006
 3428POPC   C4A46662  25.252  10.459   7.409
 3428POPC   C1B46663  25.009  10.767   6.219
 3428POPC   C2B46664  25.036  10.560   6.618
 3428POPC   C3B46665  25.088  10.769   7.007
 3428POPC   C4B46666  24.922  11.122   7.199
 3429POPC   NC346667  37.054  31.928   5.545
 3429POPC   PO446668  36.837  32.542   5.666
 3429POPC   GL146669  36.815  32.179   5.964
 3429POPC   GL246670  36.597  31.879   5.838
 3429POPC   C1A46671  36.973  32.173   6.412
 3429POPC   D2A46672  37.216  32.020   6.789
 3429POPC   C3A46673  37.174  32.150   7.233
 3429POPC   C4A46674  37.088  32.449   7.546
 3429POPC   C1B46675  36.553  31.834   6.292
 3429POPC   C2B46676  36.701  31.880   6.734
 3429POPC   C3B46677  36.799  32.294   6.926
 3429POPC   C4B46678  36.592  32.535   7.240
 3430POPC   NC346679  27.210  20.714   5.303
 3430POPC   PO446680  26.661  20.300   5.510
 3430POPC   GL146681  27.044  20.499   5.781
 3430POPC   GL246682  27.079  20.857   5.804
 3430POPC   C1A46683  27.088  20.387   6.243
 3430POPC   D2A46684  26.706  20.360   6.541
 3430POPC   C3A46685  26.774  20.492   6.996
 3430POPC   C4A46686  27.116  20.359   7.249
 3430POPC   C1B46687  26.765  20.765   6.163
 3430POPC   C2B46688  26.827  20.847   6.616
 3430POPC   C3B46689  26.893  20.973   7.049
 3430POPC   C4B46690  26.612  20.886   7.402
 3431POPC   NC346691  33.029  25.944   5.385
 3431POPC   PO446692  32.590  25.506   5.666
 3431POPC   GL146693  32.973  25.720   5.847
 3431POPC   GL246694  33.199  26.045   5.867
 3431POPC   C1A46695  33.091  25.764   6.270
 3431POPC   D2A46696  32.954  25.495   6.593
 3431POPC   C3A46697  33.004  25.661   7.021
 3431POPC   C4A46698  33.207  25.972   7.287
 3431POPC   C1B46699  33.410  26.212   6.277
 3431POPC   C2B46700  33.448  26.237   6.749
 3431POPC   C3B46701  33.289  26.447   7.129
 3431POPC   C4B46702  33.391  26.327   7.601
 3432POPC   NC346703   5.487  11.219   5.350
 3432POPC   PO446704   4.981  11.570   5.472
 3432POPC   GL146705   4.891  11.247   5.818
 3432POPC   GL246706   5.119  11.456   6.033
 3432POPC   C1A46707   5.057  10.967   6.193
 3432POPC   D2A46708   5.332  11.224   6.489
 3432POPC   C3A46709   5.194  11.400   6.898
 3432POPC   C4A46710   5.246  11.138   7.242
 3432POPC   C1B46711   4.784  11.377   6.324
 3432POPC   C2B46712   4.771  11.132   6.704
 3432POPC   C3B46713   4.742  11.254   7.125
 3432POPC   C4B46714   4.836  11.637   7.280
 3433POPC   NC346715   0.972  39.627   5.023
 3433POPC   PO446716   0.930  40.164   5.377
 3433POPC   GL146717   1.218  40.076   5.722
 3433POPC   GL246718   1.511  40.286   5.757
 3433POPC   C1A46719   1.301  39.922   6.143
 3433POPC   D2A46720   1.222  40.094   6.557
 3433POPC   C3A46721   1.286  39.859   6.918
 3433POPC   C4A46722   1.324  40.015   7.299
 3433POPC   C1B46723   1.425  40.415   6.166
 3433POPC   C2B46724   1.668  40.337   6.532
 3433POPC   C3B46725   1.493  40.347   6.943
 3433POPC   C4B46726   1.533  40.476   7.345
 3434POPC   NC346727  10.032  27.433   5.626
 3434POPC   PO446728  10.510  27.618   5.147
 3434POPC   GL146729  10.623  27.624   5.668
 3434POPC   GL246730  10.374  27.674   5.920
 3434POPC   C1A46731  10.680  27.313   6.101
 3434POPC   D2A46732  10.747  27.236   6.588
 3434POPC   C3A46733  10.500  27.398   6.971
 3434POPC   C4A46734  10.666  27.713   7.274
 3434POPC   C1B46735  10.201  27.904   6.276
 3434POPC   C2B46736  10.206  27.836   6.706
 3434POPC   C3B46737  10.253  27.966   7.098
 3434POPC   C4B46738  10.198  27.803   7.483
 3435POPC   NC346739   2.923  44.877   4.957
 3435POPC   PO446740   2.440  44.631   5.380
 3435POPC   GL146741   2.768  44.668   5.745
 3435POPC   GL246742   2.887  44.361   5.885
 3435POPC   C1A46743   2.918  44.826   6.158
 3435POPC   D2A46744   3.096  44.720   6.560
 3435POPC   C3A46745   2.942  44.831   6.972
 3435POPC   C4A46746   3.198  44.895   7.333
 3435POPC   C1B46747   2.894  44.200   6.278
 3435POPC   C2B46748   2.848  44.227   6.689
 3435POPC   C3B46749   2.971  44.317   7.087
 3435POPC   C4B46750   2.800  44.544   7.416
 3436POPC   NC346751   0.788  28.900   5.413
 3436POPC   PO446752   0.317  29.449   5.460
 3436POPC   GL146753   0.556  29.270   5.787
 3436POPC   GL246754   0.372  28.966   5.800
 3436POPC   C1A46755   0.589  29.139   6.246
 3436POPC   D2A46756   0.678  29.192   6.706
 3436POPC   C3A46757   0.360  29.313   7.057
 3436POPC   C4A46758   0.340  29.185   7.517
 3436POPC   C1B46759   0.163  28.841   6.229
 3436POPC   C2B46760   0.240  28.884   6.691
 3436POPC   C3B46761   0.407  28.824   7.118
 3436POPC   C4B46762   0.299  28.673   7.523
 3437POPC   NC346763  30.672  38.855   5.231
 3437POPC   PO446764  30.836  38.171   5.076
 3437POPC   GL146765  30.797  38.299   5.587
 3437POPC   GL246766  30.469  38.436   5.801
 3437POPC   C1A46767  30.800  38.163   6.064
 3437POPC   D2A46768  30.855  38.383   6.477
 3437POPC   C3A46769  30.775  38.259   6.913
 3437POPC   C4A46770  30.974  38.438   7.280
 3437POPC   C1B46771  30.483  38.688   6.243
 3437POPC   C2B46772  30.344  38.684   6.684
 3437POPC   C3B46773  30.560  38.705   7.094
 3437POPC   C4B46774  30.502  38.313   7.370
 3438POPC   NC346775  44.880  40.678   5.364
 3438POPC   PO446776  44.503  40.979   5.821
 3438POPC   GL146777  44.711  40.621   6.031
 3438POPC   GL246778  44.956  40.463   5.840
 3438POPC   C1A46779  44.854  40.647   6.461
 3438POPC   D2A46780  44.655  41.019   6.649
 3438POPC   C3A46781  44.613  41.032   7.061
 3438POPC   C4A46782  44.716  40.775   7.367
 3438POPC   C1B46783  44.977  40.202   6.226
 3438POPC   C2B46784   0.143  40.222   6.659
 3438POPC   C3B46785  44.925  40.396   7.076
 3438POPC   C4B46786  44.741  40.309   7.551
 3439POPC   NC346787  34.223  16.514   5.495
 3439POPC   PO446788  34.772  16.915   5.511
 3439POPC   GL146789  34.616  16.936   5.942
 3439POPC   GL246790  34.284  17.072   5.953
 3439POPC   C1A46791  34.468  16.670   6.302
 3439POPC   D2A46792  34.438  16.489   6.719
 3439POPC   C3A46793  34.792  16.451   7.039
 3439POPC   C4A46794  34.894  16.634   7.458
 3439POPC   C1B46795  34.405  17.175   6.379
 3439POPC   C2B46796  34.484  17.007   6.765
 3439POPC   C3B46797  34.413  16.804   7.154
 3439POPC   C4B46798  34.187  16.963   7.502
 3440POPC   NC346799   4.207  23.061   5.397
 3440POPC   PO446800   4.151  22.473   5.655
 3440POPC   GL146801   4.273  22.861   5.878
 3440POPC   GL246802   4.106  23.223   5.902
 3440POPC   C1A46803   4.548  22.914   6.227
 3440POPC   D2A46804   4.393  23.088   6.626
 3440POPC   C3A46805   4.600  23.075   7.032
 3440POPC   C4A46806   4.433  22.888   7.462
 3440POPC   C1B46807   4.021  23.358   6.360
 3440POPC   C2B46808   3.934  23.250   6.816
 3440POPC   C3B46809   4.008  22.930   7.145
 3440POPC   C4B46810   3.970  23.035   7.617
 3441POPC   NC346811  15.712  10.320   5.421
 3441POPC   PO446812  16.006  10.836   5.087
 3441POPC   GL146813  15.891  10.769   5.613
 3441POPC   GL246814  15.615  10.862   5.875
 3441POPC   C1A46815  15.990  10.649   6.103
 3441POPC   D2A46816  16.025  10.352   6.478
 3441POPC   C3A46817  16.185  10.370   6.933
 3441POPC   C4A46818  16.116  10.590   7.360
 3441POPC   C1B46819  15.471  10.646   6.241
 3441POPC   C2B46820  15.616  10.615   6.648
 3441POPC   C3B46821  15.693  10.444   7.021
 3441POPC   C4B46822  15.611  10.728   7.299
 3442POPC   NC346823  40.933  43.618   5.495
 3442POPC   PO446824  40.388  43.918   5.323
 3442POPC   GL146825  40.660  44.016   5.719
 3442POPC   GL246826  40.982  44.195   5.591
 3442POPC   C1A46827  40.701  43.815   6.182
 3442POPC   D2A46828  40.531  43.748   6.633
 3442POPC   C3A46829  40.607  43.780   7.070
 3442POPC   C4A46830  40.958  43.599   7.304
 3442POPC   C1B46831  41.077  44.145   6.039
 3442POPC   C2B46832  40.935  44.191   6.483
 3442POPC   C3B46833  41.019  43.944   6.839
 3442POPC   C4B46834  41.054  44.087   7.259
 3443POPC   NC346835  35.424  42.603   5.281
 3443POPC   PO446836  34.795  42.382   5.372
 3443POPC   GL146837  35.160  42.346   5.679
 3443POPC   GL246838  35.342  42.026   5.681
 3443POPC   C1A46839  35.291  42.533   6.107
 3443POPC   D2A46840  35.157  42.615   6.574
 3443POPC   C3A46841  35.403  42.606   6.987
 3443POPC   C4A46842  35.320  42.357   7.381
 3443POPC   C1B46843  35.462  41.981   6.126
 3443POPC   C2B46844  35.608  41.998   6.573
 3443POPC   C3B46845  35.600  42.095   7.041
 3443POPC   C4B46846  35.834  42.239   7.441
 3444POPC   NC346847  43.758  31.041   5.441
 3444POPC   PO446848  43.909  30.499   5.156
 3444POPC   GL146849  43.979  30.612   5.666
 3444POPC   GL246850  44.122  30.899   5.776
 3444POPC   C1A46851  43.894  30.502   6.124
 3444POPC   D2A46852  44.038  30.341   6.527
 3444POPC   C3A46853  43.783  30.471   6.906
 3444POPC   C4A46854  43.933  30.647   7.298
 3444POPC   C1B46855  43.791  30.986   6.113
 3444POPC   C2B46856  43.638  30.815   6.541
 3444POPC   C3B46857  43.667  30.997   6.989
 3444POPC   C4B46858  43.640  31.013   7.468
 3445POPC   NC346859  24.621  43.284   5.367
 3445POPC   PO446860  24.243  42.683   5.422
 3445POPC   GL146861  24.237  43.033   5.708
 3445POPC   GL246862  24.551  43.078   5.826
 3445POPC   C1A46863  24.197  43.025   6.195
 3445POPC   D2A46864  24.420  43.093   6.574
 3445POPC   C3A46865  24.271  43.056   6.960
 3445POPC   C4A46866  24.244  43.387   7.161
 3445POPC   C1B46867  24.767  43.083   6.207
 3445POPC   C2B46868  24.885  43.285   6.579
 3445POPC   C3B46869  24.770  43.200   6.970
 3445POPC   C4B46870  24.895  42.821   7.150
 3446POPC   NC346871  26.276  14.325   5.475
 3446POPC   PO446872  25.715  14.779   5.362
 3446POPC   GL146873  25.922  14.580   5.774
 3446POPC   GL246874  25.770  14.256   5.826
 3446POPC   C1A46875  26.191  14.336   6.138
 3446POPC   D2A46876  26.304  14.382   6.603
 3446POPC   C3A46877  26.188  14.189   7.000
 3446POPC   C4A46878  26.119  14.615   7.091
 3446POPC   C1B46879  25.702  14.399   6.265
 3446POPC   C2B46880  25.764  14.292   6.714
 3446POPC   C3B46881  25.685  14.393   7.157
 3446POPC   C4B46882  25.765  14.397   7.604
 3447POPC   NC346883  35.940  39.540   5.648
 3447POPC   PO446884  36.177  39.014   5.508
 3447POPC   GL146885  36.320  39.156   5.863
 3447POPC   GL246886  36.639  38.952   5.816
 3447POPC   C1A46887  36.092  39.084   6.262
 3447POPC   D2A46888  36.043  38.772   6.619
 3447POPC   C3A46889  36.068  38.976   7.026
 3447POPC   C4A46890  36.015  39.367   7.217
 3447POPC   C1B46891  36.597  38.991   6.249
 3447POPC   C2B46892  36.448  39.113   6.642
 3447POPC   C3B46893  36.591  38.923   7.000
 3447POPC   C4B46894  36.469  38.994   7.406
 3448POPC   NC346895  14.101  32.766   5.091
 3448POPC   PO446896  14.040  33.056   5.710
 3448POPC   GL146897  14.405  32.821   5.811
 3448POPC   GL246898  14.653  33.083   5.898
 3448POPC   C1A46899  14.395  32.781   6.246
 3448POPC   D2A46900  14.107  32.942   6.535
 3448POPC   C3A46901  14.281  32.898   6.958
 3448POPC   C4A46902  14.717  32.983   7.107
 3448POPC   C1B46903  14.377  33.314   6.227
 3448POPC   C2B46904  14.242  33.411   6.690
 3448POPC   C3B46905  14.402  33.383   7.112
 3448POPC   C4B46906  14.668  33.296   7.498
 3449POPC   NC346907  20.882  44.065   5.374
 3449POPC   PO446908  20.413  43.558   5.467
 3449POPC   GL146909  20.449  43.752   5.864
 3449POPC   GL246910  20.543  44.109   5.799
 3449POPC   C1A46911  20.568  43.648   6.297
 3449POPC   D2A46912  20.382  43.636   6.728
 3449POPC   C3A46913  20.468  43.644   7.209
 3449POPC   C4A46914  20.450  44.005   7.543
 3449POPC   C1B46915  20.659  44.189   6.240
 3449POPC   C2B46916  20.791  43.989   6.630
 3449POPC   C3B46917  20.596  44.083   7.002
 3449POPC   C4B46918  20.739  44.360   7.307
 3450POPC   NC346919   6.840  28.880   5.456
 3450POPC   PO446920   6.429  29.419   5.575
 3450POPC   GL146921   6.723  29.243   5.811
 3450POPC   GL246922   6.587  28.926   5.918
 3450POPC   C1A46923   6.806  29.282   6.238
 3450POPC   D2A46924   6.834  29.109   6.655
 3450POPC   C3A46925   6.593  29.293   6.976
 3450POPC   C4A46926   6.171  29.357   7.205
 3450POPC   C1B46927   6.827  28.746   6.271
 3450POPC   C2B46928   6.704  28.573   6.663
 3450POPC   C3B46929   6.440  28.788   6.924
 3450POPC   C4B46930   6.478  28.942   7.317
 3451POPC   NC346931  39.173  37.792   4.997
 3451POPC   PO446932  39.129  37.446   5.444
 3451POPC   GL146933  39.083  37.742   5.825
 3451POPC   GL246934  39.415  37.749   5.939
 3451POPC   C1A46935  39.041  37.870   6.286
 3451POPC   D2A46936  39.215  37.791   6.728
 3451POPC   C3A46937  39.032  37.893   7.159
 3451POPC   C4A46938  39.253  38.056   7.543
 3451POPC   C1B46939  39.597  37.839   6.349
 3451POPC   C2B46940  39.750  37.834   6.772
 3451POPC   C3B46941  39.590  37.864   7.195
 3451POPC   C4B46942  39.776  38.030   7.589
 3452POPC   NC346943  17.290  23.953   5.433
 3452POPC   PO446944  17.482  23.360   5.410
 3452POPC   GL146945  17.624  23.473   5.842
 3452POPC   GL246946  17.501  23.817   5.880
 3452POPC   C1A46947  17.707  23.585   6.300
 3452POPC   D2A46948  17.684  23.884   6.644
 3452POPC   C3A46949  17.571  23.689   7.023
 3452POPC   C4A46950  17.707  23.531   7.385
 3452POPC   C1B46951  17.383  24.062   6.238
 3452POPC   C2B46952  17.171  24.013   6.656
 3452POPC   C3B46953  17.351  24.145   7.064
 3452POPC   C4B46954  17.366  24.139   7.554
 3453POPC   NC346955   3.129  39.440   5.293
 3453POPC   PO446956   2.480  39.045   5.444
 3453POPC   GL146957   2.812  39.245   5.671
 3453POPC   GL246958   3.061  38.960   5.701
 3453POPC   C1A46959   2.688  39.396   6.077
 3453POPC   D2A46960   2.450  39.173   6.399
 3453POPC   C3A46961   2.703  39.089   6.741
 3453POPC   C4A46962   2.649  39.165   7.144
 3453POPC   C1B46963   3.121  39.141   6.153
 3453POPC   C2B46964   3.103  39.433   6.529
 3453POPC   C3B46965   3.121  39.327   6.969
 3453POPC   C4B46966   3.070  38.889   7.162
 3454POPC   NC346967  11.541   8.930   5.387
 3454POPC   PO446968  11.090   9.339   5.517
 3454POPC   GL146969  11.241   9.053   5.856
 3454POPC   GL246970  11.472   8.736   5.858
 3454POPC   C1A46971  11.430   9.039   6.277
 3454POPC   D2A46972  11.711   9.021   6.603
 3454POPC   C3A46973  11.455   9.041   6.920
 3454POPC   C4A46974  11.411   8.993   7.318
 3454POPC   C1B46975  11.267   8.554   6.227
 3454POPC   C2B46976  11.332   8.609   6.687
 3454POPC   C3B46977  11.302   8.527   7.125
 3454POPC   C4B46978  11.232   8.557   7.589
 3455POPC   NC346979  15.313  30.669   5.516
 3455POPC   PO446980  15.805  31.014   5.394
 3455POPC   GL146981  15.659  30.924   5.842
 3455POPC   GL246982  15.380  31.078   5.840
 3455POPC   C1A46983  15.452  30.880   6.304
 3455POPC   D2A46984  15.176  30.650   6.609
 3455POPC   C3A46985  15.165  30.677   7.074
 3455POPC   C4A46986  15.174  30.304   7.390
 3455POPC   C1B46987  15.034  31.166   6.118
 3455POPC   C2B46988  14.996  31.123   6.558
 3455POPC   C3B46989  15.014  31.268   6.988
 3455POPC   C4B46990  15.067  31.121   7.382
 3456POPC   NC346991  14.344  18.594   5.412
 3456POPC   PO446992  14.179  19.209   5.325
 3456POPC   GL146993  14.440  19.016   5.677
 3456POPC   GL246994  14.143  18.984   5.858
 3456POPC   C1A46995  14.565  18.803   6.079
 3456POPC   D2A46996  14.540  18.990   6.494
 3456POPC   C3A46997  14.767  18.854   6.834
 3456POPC   C4A46998  14.692  18.945   7.254
 3456POPC   C1B46999  14.403  19.301   6.120
 3456POPC   C2B47000  14.469  19.518   6.532
 3456POPC   C3B47001  14.454  19.292   6.929
 3456POPC   C4B47002  14.435  19.377   7.333
 3457POPC   NC347003  16.305  38.711   5.483
 3457POPC   PO447004  16.966  38.471   5.377
 3457POPC   GL147005  17.018  38.266   5.760
 3457POPC   GL247006  16.658  38.254   5.860
 3457POPC   C1A47007  17.061  38.397   6.190
 3457POPC   D2A47008  16.821  38.280   6.554
 3457POPC   C3A47009  16.794  38.565   6.884
 3457POPC   C4A47010  16.832  38.372   7.290
 3457POPC   C1B47011  16.356  38.034   6.166
 3457POPC   C2B47012  16.148  38.160   6.583
 3457POPC   C3B47013  16.400  38.235   6.986
 3457POPC   C4B47014  16.420  38.659   7.221
 3458POPC   NC347015  23.074  35.473   5.401
 3458POPC   PO447016  22.560  35.825   5.779
 3458POPC   GL147017  22.813  35.438   5.930
 3458POPC   GL247018  23.168  35.340   5.871
 3458POPC   C1A47019  22.868  35.339   6.363
 3458POPC   D2A47020  22.679  35.082   6.693
 3458POPC   C3A47021  22.698  35.255   7.110
 3458POPC   C4A47022  22.754  35.057   7.505
 3458POPC   C1B47023  23.353  35.201   6.239
 3458POPC   C2B47024  23.227  35.071   6.640
 3458POPC   C3B47025  23.229  35.284   7.023
 3458POPC   C4B47026  23.242  35.115   7.443
 3459POPC   NC347027  36.481  18.933   5.500
 3459POPC   PO447028  36.173  19.422   5.373
 3459POPC   GL147029  35.969  19.213   5.722
 3459POPC   GL247030  36.016  18.830   5.748
 3459POPC   C1A47031  36.132  19.191   6.144
 3459POPC   D2A47032  36.255  19.430   6.509
 3459POPC   C3A47033  36.383  19.184   6.860
 3459POPC   C4A47034  36.194  19.129   7.261
 3459POPC   C1B47035  36.093  18.677   6.171
 3459POPC   C2B47036  35.990  18.885   6.555
 3459POPC   C3B47037  36.013  18.754   6.965
 3459POPC   C4B47038  36.157  18.619   7.359
 3460POPC   NC347039  19.746  14.684   5.496
 3460POPC   PO447040  19.419  15.272   5.539
 3460POPC   GL147041  19.578  15.004   5.874
 3460POPC   GL247042  19.943  15.038   5.813
 3460POPC   C1A47043  19.504  14.838   6.297
 3460POPC   D2A47044  19.450  15.045   6.720
 3460POPC   C3A47045  19.849  15.235   6.893
 3460POPC   C4A47046  19.912  15.529   7.224
 3460POPC   C1B47047  20.028  14.811   6.183
 3460POPC   C2B47048  19.964  14.813   6.618
 3460POPC   C3B47049  20.122  14.814   7.044
 3460POPC   C4B47050  20.044  15.069   7.390
 3461POPC   NC347051  35.777  26.276   5.355
 3461POPC   PO447052  36.366  25.910   5.478
 3461POPC   GL147053  36.121  26.198   5.760
 3461POPC   GL247054  36.392  26.432   5.775
 3461POPC   C1A47055  35.916  26.160   6.199
 3461POPC   D2A47056  35.730  26.256   6.629
 3461POPC   C3A47057  35.713  25.964   6.966
 3461POPC   C4A47058  36.056  25.756   7.155
 3461POPC   C1B47059  36.484  26.218   6.154
 3461POPC   C2B47060  36.380  25.983   6.503
 3461POPC   C3B47061  36.431  26.081   6.918
 3461POPC   C4B47062  36.110  26.287   7.110
 3462POPC   NC347063  35.560  38.704   5.458
 3462POPC   PO447064  35.037  38.282   5.437
 3462POPC   GL147065  35.346  38.269   5.794
 3462POPC   GL247066  35.548  38.527   5.926
 3462POPC   C1A47067  35.528  38.077   6.181
 3462POPC   D2A47068  35.577  38.254   6.608
 3462POPC   C3A47069  35.213  38.353   6.845
 3462POPC   C4A47070  35.253  38.515   7.229
 3462POPC   C1B47071  35.637  38.788   6.262
 3462POPC   C2B47072  35.516  38.760   6.691
 3462POPC   C3B47073  35.518  38.985   7.049
 3462POPC   C4B47074  35.266  38.980   7.441
 3463POPC   NC347075  41.711  30.997   5.472
 3463POPC   PO447076  41.259  30.485   5.481
 3463POPC   GL147077  41.443  30.703   5.848
 3463POPC   GL247078  41.124  30.834   5.895
 3463POPC   C1A47079  41.538  30.843   6.298
 3463POPC   D2A47080  41.781  31.011   6.684
 3463POPC   C3A47081  41.717  30.815   7.091
 3463POPC   C4A47082  41.872  30.645   7.526
 3463POPC   C1B47083  40.994  30.750   6.302
 3463POPC   C2B47084  40.955  30.610   6.712
 3463POPC   C3B47085  41.222  30.661   7.062
 3463POPC   C4B47086  41.379  30.701   7.469
 3464POPC   NC347087  10.083  17.848   5.519
 3464POPC   PO447088   9.456  17.773   5.292
 3464POPC   GL147089   9.659  17.590   5.688
 3464POPC   GL247090   9.755  17.853   5.953
 3464POPC   C1A47091   9.751  17.361   6.095
 3464POPC   D2A47092   9.699  17.561   6.511
 3464POPC   C3A47093   9.583  17.314   6.857
 3464POPC   C4A47094   9.592  17.514   7.270
 3464POPC   C1B47095  10.120  17.709   6.240
 3464POPC   C2B47096  10.174  17.708   6.693
 3464POPC   C3B47097  10.041  17.451   7.013
 3464POPC   C4B47098  10.114  17.411   7.442
 3465POPC   NC347099  25.716  10.521   5.433
 3465POPC   PO447100  26.199  10.069   5.401
 3465POPC   GL147101  26.092  10.318   5.763
 3465POPC   GL247102  26.134  10.669   5.702
 3465POPC   C1A47103  25.881  10.400   6.178
 3465POPC   D2A47104  26.038  10.275   6.608
 3465POPC   C3A47105  25.871  10.557   6.996
 3465POPC   C4A47106  25.771  10.488   7.451
 3465POPC   C1B47107  26.029  10.879   6.095
 3465POPC   C2B47108  26.060  10.766   6.538
 3465POPC   C3B47109  26.355  10.553   6.886
 3465POPC   C4B47110  26.275  10.635   7.333
 3466POPC   NC347111   5.265  28.096   5.468
 3466POPC   PO447112   4.927  28.615   5.168
 3466POPC   GL147113   4.880  28.451   5.639
 3466POPC   GL247114   4.946  28.121   5.843
 3466POPC   C1A47115   4.884  28.538   6.117
 3466POPC   D2A47116   5.122  28.523   6.523
 3466POPC   C3A47117   4.936  28.414   6.921
 3466POPC   C4A47118   4.897  28.544   7.316
 3466POPC   C1B47119   5.293  28.210   6.142
 3466POPC   C2B47120   5.508  28.207   6.527
 3466POPC   C3B47121   5.411  28.212   6.947
 3466POPC   C4B47122   5.182  28.128   7.308
 3467POPC   NC347123  26.652  11.780   5.319
 3467POPC   PO447124  27.051  12.331   5.521
 3467POPC   GL147125  26.678  12.133   5.706
 3467POPC   GL247126  26.660  12.391   5.914
 3467POPC   C1A47127  26.543  11.951   6.144
 3467POPC   D2A47128  26.756  11.896   6.581
 3467POPC   C3A47129  26.603  12.086   6.994
 3467POPC   C4A47130  26.656  12.013   7.438
 3467POPC   C1B47131  26.995  12.239   6.163
 3467POPC   C2B47132  27.098  12.312   6.567
 3467POPC   C3B47133  27.122  12.060   6.926
 3467POPC   C4B47134  27.110  12.202   7.347
 3468POPC   NC347135  44.821  14.476   5.431
 3468POPC   PO447136  44.769  13.821   5.328
 3468POPC   GL147137  44.789  14.065   5.743
 3468POPC   GL247138   0.101  14.070   5.866
 3468POPC   C1A47139  44.794  14.396   6.128
 3468POPC   D2A47140  44.911  14.516   6.608
 3468POPC   C3A47141  44.571  14.591   6.912
 3468POPC   C4A47142  44.466  14.468   7.366
 3468POPC   C1B47143   0.051  13.996   6.293
 3468POPC   C2B47144  44.697  14.063   6.579
 3468POPC   C3B47145  44.758  14.142   7.057
 3468POPC   C4B47146   0.060  14.148   7.426
 3469POPC   NC347147  14.256  38.520   5.498
 3469POPC   PO447148  14.846  38.469   5.172
 3469POPC   GL147149  14.724  38.384   5.619
 3469POPC   GL247150  14.661  38.732   5.792
 3469POPC   C1A47151  14.770  38.237   6.075
 3469POPC   D2A47152  14.563  38.269   6.492
 3469POPC   C3A47153  14.684  38.241   6.934
 3469POPC   C4A47154  14.416  38.210   7.275
 3469POPC   C1B47155  14.362  38.607   6.146
 3469POPC   C2B47156  14.114  38.525   6.544
 3469POPC   C3B47157  14.245  38.597   6.984
 3469POPC   C4B47158  14.246  38.835   7.401
 3470POPC   NC347159  20.954  28.280   5.551
 3470POPC   PO447160  20.402  27.901   5.458
 3470POPC   GL147161  20.512  28.113   5.848
 3470POPC   GL247162  20.853  28.174   6.019
 3470POPC   C1A47163  20.383  28.286   6.231
 3470POPC   D2A47164  20.664  28.438   6.605
 3470POPC   C3A47165  20.479  28.552   6.995
 3470POPC   C4A47166  20.411  28.348   7.387
 3470POPC   C1B47167  21.180  28.135   6.336
 3470POPC   C2B47168  21.087  28.119   6.770
 3470POPC   C3B47169  20.884  28.285   7.102
 3470POPC   C4B47170  20.905  28.231   7.514
 3471POPC   NC347171   0.737   0.844   5.373
 3471POPC   PO447172   0.364   0.217   5.319
 3471POPC   GL147173   0.436   0.509   5.663
 3471POPC   GL247174   0.774   0.518   5.753
 3471POPC   C1A47175   0.408   0.526   6.120
 3471POPC   D2A47176   0.274   0.235   6.453
 3471POPC   C3A47177   0.023   0.477   6.742
 3471POPC   C4A47178   0.175   0.661   7.107
 3471POPC   C1B47179   0.919   0.480   6.160
 3471POPC   C2B47180   0.745   0.508   6.592
 3471POPC   C3B47181   0.691   0.411   7.059
 3471POPC   C4B47182   0.761   0.260   7.530
 3472POPC   NC347183  22.810   9.168   5.377
 3472POPC   PO447184  23.377   8.749   5.457
 3472POPC   GL147185  23.128   9.018   5.739
 3472POPC   GL247186  22.806   8.847   5.779
 3472POPC   C1A47187  22.959   9.237   6.112
 3472POPC   D2A47188  22.799   9.122   6.512
 3472POPC   C3A47189  23.062   8.965   6.837
 3472POPC   C4A47190  22.915   9.140   7.187
 3472POPC   C1B47191  22.841   8.696   6.204
 3472POPC   C2B47192  22.724   8.613   6.651
 3472POPC   C3B47193  22.580   8.726   7.087
 3472POPC   C4B47194  22.641   8.879   7.540
 3473POPC   NC347195   2.383   4.149   5.466
 3473POPC   PO447196   1.787   3.901   5.651
 3473POPC   GL147197   1.774   4.286   5.844
 3473POPC   GL247198   2.092   4.473   5.845
 3473POPC   C1A47199   1.903   4.210   6.241
 3473POPC   D2A47200   1.869   4.303   6.632
 3473POPC   C3A47201   1.787   4.508   6.954
 3473POPC   C4A47202   2.003   4.315   7.240
 3473POPC   C1B47203   2.025   4.695   6.303
 3473POPC   C2B47204   2.258   4.646   6.733
 3473POPC   C3B47205   2.418   4.618   7.180
 3473POPC   C4B47206   2.253   4.582   7.624
 3474POPC   NC347207  31.051  36.279   5.184
 3474POPC   PO447208  31.715  36.042   5.347
 3474POPC   GL147209  31.507  36.246   5.719
 3474POPC   GL247210  31.749  36.488   5.841
 3474POPC   C1A47211  31.419  36.175   6.186
 3474POPC   D2A47212  31.198  36.158   6.578
 3474POPC   C3A47213  31.388  36.064   6.966
 3474POPC   C4A47214  31.446  36.240   7.403
 3474POPC   C1B47215  31.888  36.339   6.229
 3474POPC   C2B47216  31.693  36.361   6.629
 3474POPC   C3B47217  31.870  36.212   7.002
 3474POPC   C4B47218  32.185  35.949   7.082
 3475POPC   NC347219  20.839  22.450   5.333
 3475POPC   PO447220  21.403  22.398   5.552
 3475POPC   GL147221  21.514  22.345   5.961
 3475POPC   GL247222  21.700  22.658   5.977
 3475POPC   C1A47223  21.368  22.179   6.387
 3475POPC   D2A47224  21.240  22.370   6.791
 3475POPC   C3A47225  21.337  22.140   7.170
 3475POPC   C4A47226  21.454  21.868   7.523
 3475POPC   C1B47227  21.818  22.433   6.352
 3475POPC   C2B47228  21.727  22.523   6.738
 3475POPC   C3B47229  21.572  22.600   7.129
 3475POPC   C4B47230  21.632  22.370   7.520
 3476POPC   NC347231  17.901   1.546   5.381
 3476POPC   PO447232  18.338   1.072   5.396
 3476POPC   GL147233  18.324   1.144   5.811
 3476POPC   GL247234  18.013   1.280   5.823
 3476POPC   C1A47235  18.283   0.995   6.227
 3476POPC   D2A47236  18.169   1.028   6.651
 3476POPC   C3A47237  18.485   1.100   6.936
 3476POPC   C4A47238  18.573   0.799   7.226
 3476POPC   C1B47239  17.827   1.208   6.253
 3476POPC   C2B47240  17.786   1.341   6.691
 3476POPC   C3B47241  18.009   1.314   7.110
 3476POPC   C4B47242  18.005   1.442   7.582
 3477POPC   NC347243  38.546  38.403   5.480
 3477POPC   PO447244  38.107  38.902   5.638
 3477POPC   GL147245  38.034  38.517   5.876
 3477POPC   GL247246  38.238  38.213   5.873
 3477POPC   C1A47247  38.171  38.518   6.303
 3477POPC   D2A47248  38.283  38.821   6.599
 3477POPC   C3A47249  38.375  38.705   6.993
 3477POPC   C4A47250  38.128  38.552   7.278
 3477POPC   C1B47251  38.428  38.078   6.279
 3477POPC   C2B47252  38.483  38.274   6.713
 3477POPC   C3B47253  38.536  38.247   7.176
 3477POPC   C4B47254  38.743  38.146   7.565
 3478POPC   NC347255  23.198  36.236   5.443
 3478POPC   PO447256  22.734  35.762   5.271
 3478POPC   GL147257  23.046  35.854   5.718
 3478POPC   GL247258  22.977  36.179   5.909
 3478POPC   C1A47259  23.159  35.752   6.165
 3478POPC   D2A47260  23.357  35.830   6.559
 3478POPC   C3A47261  23.126  35.778   6.932
 3478POPC   C4A47262  22.989  35.618   7.322
 3478POPC   C1B47263  23.143  36.274   6.358
 3478POPC   C2B47264  23.190  36.282   6.814
 3478POPC   C3B47265  23.033  36.392   7.237
 3478POPC   C4B47266  22.940  36.547   7.659
 3479POPC   NC347267  11.544  11.824   5.566
 3479POPC   PO447268  11.020  12.316   5.481
 3479POPC   GL147269  11.114  12.242   5.923
 3479POPC   GL247270  11.040  11.970   6.188
 3479POPC   C1A47271  11.328  12.420   6.273
 3479POPC   D2A47272  11.585  12.286   6.609
 3479POPC   C3A47273  11.290  12.340   6.937
 3479POPC   C4A47274  11.195  12.134   7.351
 3479POPC   C1B47275  11.130  11.542   6.376
 3479POPC   C2B47276  11.416  11.515   6.683
 3479POPC   C3B47277  11.506  11.824   7.019
 3479POPC   C4B47278  11.439  11.721   7.456
 3480POPC   NC347279  36.383  42.361   5.004
 3480POPC   PO447280  35.793  42.308   5.385
 3480POPC   GL147281  35.867  42.102   5.787
 3480POPC   GL247282  36.071  41.791   5.745
 3480POPC   C1A47283  36.002  42.275   6.223
 3480POPC   D2A47284  36.158  42.462   6.623
 3480POPC   C3A47285  35.929  42.535   6.996
 3480POPC   C4A47286  36.263  42.509   7.258
 3480POPC   C1B47287  35.948  41.780   6.191
 3480POPC   C2B47288  36.112  41.881   6.606
 3480POPC   C3B47289  36.116  42.055   7.033
 3480POPC   C4B47290  36.346  42.069   7.460
 3481POPC   NC347291   1.764   6.313   5.565
 3481POPC   PO447292   2.232   6.813   5.455
 3481POPC   GL147293   2.261   6.634   5.885
 3481POPC   GL247294   1.971   6.465   5.984
 3481POPC   C1A47295   2.196   6.691   6.363
 3481POPC   D2A47296   2.104   6.427   6.731
 3481POPC   C3A47297   2.147   6.645   7.137
 3481POPC   C4A47298   2.089   6.912   7.522
 3481POPC   C1B47299   1.723   6.782   6.155
 3481POPC   C2B47300   1.488   6.734   6.513
 3481POPC   C3B47301   1.669   6.671   6.910
 3481POPC   C4B47302   1.651   6.857   7.290
 3482POPC   NC347303   2.275  15.024   5.430
 3482POPC   PO447304   1.735  15.481   5.497
 3482POPC   GL147305   1.987  15.254   5.812
 3482POPC   GL247306   2.193  14.943   5.920
 3482POPC   C1A47307   2.022  15.282   6.269
 3482POPC   D2A47308   2.199  14.924   6.495
 3482POPC   C3A47309   2.059  14.881   6.909
 3482POPC   C4A47310   1.909  15.104   7.284
 3482POPC   C1B47311   1.759  14.869   6.071
 3482POPC   C2B47312   1.673  14.747   6.499
 3482POPC   C3B47313   1.573  14.803   6.929
 3482POPC   C4B47314   1.739  14.600   7.267
 3483POPC   NC347315   4.715  23.922   5.269
 3483POPC   PO447316   5.182  23.529   5.204
 3483POPC   GL147317   4.979  23.669   5.671
 3483POPC   GL247318   4.868  24.022   5.768
 3483POPC   C1A47319   4.983  23.718   6.179
 3483POPC   D2A47320   5.163  23.541   6.611
 3483POPC   C3A47321   5.437  23.747   6.946
 3483POPC   C4A47322   5.362  23.909   7.387
 3483POPC   C1B47323   4.846  24.219   6.180
 3483POPC   C2B47324   4.886  24.021   6.603
 3483POPC   C3B47325   4.980  23.975   7.047
 3483POPC   C4B47326   4.859  23.829   7.473
 3484POPC   NC347327  31.919  14.848   5.531
 3484POPC   PO447328  32.139  15.497   5.418
 3484POPC   GL147329  31.917  15.324   5.758
 3484POPC   GL247330  32.210  15.099   5.892
 3484POPC   C1A47331  31.807  15.247   6.193
 3484POPC   D2A47332  32.055  15.159   6.594
 3484POPC   C3A47333  31.883  15.171   7.029
 3484POPC   C4A47334  32.095  15.435   7.317
 3484POPC   C1B47335  32.466  14.889   6.260
 3484POPC   C2B47336  32.575  14.952   6.711
 3484POPC   C3B47337  32.379  15.050   7.133
 3484POPC   C4B47338  32.529  15.161   7.551
 3485POPC   NC347339  13.312  44.864   5.349
 3485POPC   PO447340  13.688  44.237   5.470
 3485POPC   GL147341  13.554  44.463   5.831
 3485POPC   GL247342  13.464  44.824   5.840
 3485POPC   C1A47343  13.823  44.673   6.186
 3485POPC   D2A47344  13.752  44.699   6.608
 3485POPC   C3A47345  13.960  44.510   6.933
 3485POPC   C4A47346  13.879  44.798   7.230
 3485POPC   C1B47347  13.296  44.600   6.232
 3485POPC   C2B47348  13.262  44.544   6.666
 3485POPC   C3B47349  13.386  44.814   6.998
 3485POPC   C4B47350  13.404  44.716   7.414
 3486POPC   NC347351   1.098  21.930   5.369
 3486POPC   PO447352   1.468  22.490   5.435
 3486POPC   GL147353   1.384  22.166   5.767
 3486POPC   GL247354   1.043  22.183   5.842
 3486POPC   C1A47355   1.330  22.038   6.230
 3486POPC   D2A47356   1.496  22.306   6.554
 3486POPC   C3A47357   1.273  22.212   6.905
 3486POPC   C4A47358   1.107  21.817   6.926
 3486POPC   C1B47359   0.835  22.250   6.268
 3486POPC   C2B47360   0.791  22.195   6.728
 3486POPC   C3B47361   0.779  22.119   7.180
 3486POPC   C4B47362   0.898  21.757   7.407
 3487POPC   NC347363  10.130  43.315   5.701
 3487POPC   PO447364   9.569  43.161   5.344
 3487POPC   GL147365   9.660  42.956   5.744
 3487POPC   GL247366   9.408  42.696   5.810
 3487POPC   C1A47367   9.762  43.021   6.178
 3487POPC   D2A47368   9.743  43.309   6.515
 3487POPC   C3A47369  10.017  43.148   6.815
 3487POPC   C4A47370  10.157  43.102   7.209
 3487POPC   C1B47371   9.266  42.993   6.103
 3487POPC   C2B47372   9.305  42.992   6.565
 3487POPC   C3B47373   9.515  43.141   6.945
 3487POPC   C4B47374   9.719  42.866   7.201
 3488POPC   NC347375  28.195  36.928   5.450
 3488POPC   PO447376  28.822  36.890   5.451
 3488POPC   GL147377  28.621  36.879   5.835
 3488POPC   GL247378  28.372  36.635   5.808
 3488POPC   C1A47379  28.449  36.967   6.242
 3488POPC   D2A47380  28.179  36.794   6.570
 3488POPC   C3A47381  28.305  36.995   6.930
 3488POPC   C4A47382  28.105  36.996   7.328
 3488POPC   C1B47383  28.323  36.459   6.188
 3488POPC   C2B47384  28.513  36.419   6.581
 3488POPC   C3B47385  28.343  36.497   6.962
 3488POPC   C4B47386  28.554  36.713   7.286
 3489POPC   NC347387   0.125  27.470   5.051
 3489POPC   PO447388   0.623  27.633   5.423
 3489POPC   GL147389   0.547  27.705   5.864
 3489POPC   GL247390   0.346  27.980   5.936
 3489POPC   C1A47391   0.684  27.579   6.297
 3489POPC   D2A47392   0.883  27.561   6.694
 3489POPC   C3A47393   0.619  27.492   7.051
 3489POPC   C4A47394   0.553  27.411   7.464
 3489POPC   C1B47395   0.190  27.720   6.288
 3489POPC   C2B47396   0.217  27.558   6.737
 3489POPC   C3B47397   0.111  27.516   7.218
 3489POPC   C4B47398   0.124  27.614   7.680
 3490POPC   NC347399  32.330  21.755   5.397
 3490POPC   PO447400  32.073  22.295   5.285
 3490POPC   GL147401  32.329  22.205   5.647
 3490POPC   GL247402  32.259  22.491   5.783
 3490POPC   C1A47403  32.375  22.009   6.068
 3490POPC   D2A47404  32.210  22.071   6.484
 3490POPC   C3A47405  32.350  22.022   6.922
 3490POPC   C4A47406  32.150  21.774   7.251
 3490POPC   C1B47407  32.011  22.396   6.130
 3490POPC   C2B47408  31.782  22.360   6.509
 3490POPC   C3B47409  32.036  22.417   6.864
 3490POPC   C4B47410  32.106  22.343   7.280
 3491POPC   NC347411   4.649  30.476   5.503
 3491POPC   PO447412   4.059  30.783   5.325
 3491POPC   GL147413   4.096  30.718   5.776
 3491POPC   GL247414   3.990  30.387   5.949
 3491POPC   C1A47415   4.045  30.812   6.206
 3491POPC   D2A47416   4.031  30.466   6.480
 3491POPC   C3A47417   4.170  30.645   6.819
 3491POPC   C4A47418   4.261  30.720   7.214
 3491POPC   C1B47419   4.417  30.451   6.150
 3491POPC   C2B47420   4.555  30.710   6.473
 3491POPC   C3B47421   4.685  30.618   6.886
 3491POPC   C4B47422   4.633  30.410   7.287
 3492POPC   NC347423  37.220  42.415   5.548
 3492POPC   PO447424  36.721  42.087   5.208
 3492POPC   GL147425  36.702  42.339   5.600
 3492POPC   GL247426  36.820  42.695   5.709
 3492POPC   C1A47427  36.535  42.405   6.027
 3492POPC   D2A47428  36.504  42.156   6.396
 3492POPC   C3A47429  36.752  42.247   6.774
 3492POPC   C4A47430  36.744  42.302   7.218
 3492POPC   C1B47431  37.078  42.769   6.101
 3492POPC   C2B47432  37.171  42.565   6.504
 3492POPC   C3B47433  37.115  42.632   6.945
 3492POPC   C4B47434  37.263  42.283   7.149
 3493POPC   NC347435  39.421  36.158   5.345
 3493POPC   PO447436  38.886  36.050   5.325
 3493POPC   GL147437  39.101  36.064   5.765
 3493POPC   GL247438  39.432  36.225   5.890
 3493POPC   C1A47439  39.051  36.111   6.237
 3493POPC   D2A47440  39.168  36.141   6.679
 3493POPC   C3A47441  39.006  35.855   6.959
 3493POPC   C4A47442  39.016  35.901   7.387
 3493POPC   C1B47443  39.573  36.142   6.360
 3493POPC   C2B47444  39.629  35.971   6.811
 3493POPC   C3B47445  39.429  36.144   7.191
 3493POPC   C4B47446  39.638  36.374   7.570
 3494POPC   NC347447   2.801  44.325   5.390
 3494POPC   PO447448   2.512  43.662   5.338
 3494POPC   GL147449   2.595  43.907   5.696
 3494POPC   GL247450   2.407  44.239   5.728
 3494POPC   C1A47451   2.781  43.702   6.082
 3494POPC   D2A47452   2.910  43.724   6.499
 3494POPC   C3A47453   2.961  43.408   6.806
 3494POPC   C4A47454   3.001  43.602   7.189
 3494POPC   C1B47455   2.410  44.037   6.147
 3494POPC   C2B47456   2.416  43.828   6.525
 3494POPC   C3B47457   2.623  43.820   6.912
 3494POPC   C4B47458   2.370  43.666   7.170
 3495POPC   NC347459   2.007  35.678   5.501
 3495POPC   PO447460   2.091  36.350   5.369
 3495POPC   GL147461   2.097  36.236   5.816
 3495POPC   GL247462   2.425  36.285   5.951
 3495POPC   C1A47463   1.911  36.330   6.239
 3495POPC   D2A47464   1.780  36.535   6.658
 3495POPC   C3A47465   1.941  36.318   7.019
 3495POPC   C4A47466   1.806  35.937   7.180
 3495POPC   C1B47467   2.254  35.945   6.277
 3495POPC   C2B47468   2.100  35.916   6.696
 3495POPC   C3B47469   2.311  35.927   7.084
 3495POPC   C4B47470   2.249  36.042   7.524
 3496POPC   NC347471   6.617  36.305   5.347
 3496POPC   PO447472   6.434  35.675   5.602
 3496POPC   GL147473   6.704  35.916   5.860
 3496POPC   GL247474   6.798  36.277   5.820
 3496POPC   C1A47475   6.651  35.896   6.302
 3496POPC   D2A47476   6.451  36.115   6.674
 3496POPC   C3A47477   6.661  35.982   7.051
 3496POPC   C4A47478   6.490  35.985   7.446
 3496POPC   C1B47479   6.736  36.384   6.252
 3496POPC   C2B47480   6.928  36.186   6.613
 3496POPC   C3B47481   6.799  36.434   6.918
 3496POPC   C4B47482   6.582  36.484   7.278
 3497POPC   NC347483  18.772   0.901   5.445
 3497POPC   PO447484  19.255   1.471   5.404
 3497POPC   GL147485  19.130   1.277   5.781
 3497POPC   GL247486  18.785   1.384   5.747
 3497POPC   C1A47487  19.149   1.080   6.207
 3497POPC   D2A47488  19.024   0.956   6.640
 3497POPC   C3A47489  19.314   1.043   6.952
 3497POPC   C4A47490  19.387   1.440   7.123
 3497POPC   C1B47491  18.687   1.328   6.180
 3497POPC   C2B47492  18.798   1.426   6.602
 3497POPC   C3B47493  18.882   1.434   7.036
 3497POPC   C4B47494  18.991   1.110   7.326
 3498POPC   NC347495   2.006  44.434   5.455
 3498POPC   PO447496   1.838   0.090   5.547
 3498POPC   GL147497   1.917  44.800   5.854
 3498POPC   GL247498   2.258  44.758   5.831
 3498POPC   C1A47499   2.013  44.769   6.285
 3498POPC   D2A47500   2.069  44.775   6.690
 3498POPC   C3A47501   1.810  44.533   6.853
 3498POPC   C4A47502   1.774  44.699   7.214
 3498POPC   C1B47503   2.471  44.552   6.151
 3498POPC   C2B47504   2.581  44.674   6.558
 3498POPC   C3B47505   2.496  44.524   6.965
 3498POPC   C4B47506   2.318  44.734   7.295
 3499POPC   NC347507  32.927   0.126   5.556
 3499POPC   PO447508  33.256  44.495   5.379
 3499POPC   GL147509  33.171  44.703   5.767
 3499POPC   GL247510  33.500  44.648   5.849
 3499POPC   C1A47511  32.989  44.822   6.189
 3499POPC   D2A47512  32.828  44.804   6.613
 3499POPC   C3A47513  33.029  44.937   6.976
 3499POPC   C4A47514  33.080  44.705   7.347
 3499POPC   C1B47515  33.445  44.596   6.242
 3499POPC   C2B47516  33.350  44.759   6.594
 3499POPC   C3B47517  33.358  44.539   6.960
 3499POPC   C4B47518  33.400  44.279   7.315
 3500POPC   NC347519  20.353   8.974   5.498
 3500POPC   PO447520  20.801   9.496   5.189
 3500POPC   GL147521  21.004   9.256   5.732
 3500POPC   GL247522  20.708   8.969   5.866
 3500POPC   C1A47523  20.920   9.196   6.243
 3500POPC   D2A47524  20.747   9.013   6.643
 3500POPC   C3A47525  20.672   9.237   7.006
 3500POPC   C4A47526  20.956   9.376   7.322
 3500POPC   C1B47527  20.403   8.968   6.290
 3500POPC   C2B47528  20.213   9.093   6.725
 3500POPC   C3B47529  20.276   8.901   7.141
 3500POPC   C4B47530  20.270   8.997   7.578
 3501POPC   NC347531   4.407  36.695   5.200
 3501POPC   PO447532   5.144  36.685   5.280
 3501POPC   GL147533   5.097  36.855   5.738
 3501POPC   GL247534   4.905  36.619   5.940
 3501POPC   C1A47535   5.195  37.148   6.120
 3501POPC   D2A47536   5.368  37.056   6.575
 3501POPC   C3A47537   5.182  37.169   7.009
 3501POPC   C4A47538   5.168  37.049   7.472
 3501POPC   C1B47539   4.934  36.780   6.345
 3501POPC   C2B47540   4.937  36.786   6.794
 3501POPC   C3B47541   5.032  36.598   7.217
 3501POPC   C4B47542   4.880  36.641   7.665
 3502POPC   NC347543   5.210  15.700   5.311
 3502POPC   PO447544   5.212  15.020   5.361
 3502POPC   GL147545   5.220  15.142   5.770
 3502POPC   GL247546   5.483  15.369   5.769
 3502POPC   C1A47547   4.997  15.086   6.149
 3502POPC   D2A47548   4.839  14.809   6.489
 3502POPC   C3A47549   5.067  14.958   6.816
 3502POPC   C4A47550   4.964  15.144   7.186
 3502POPC   C1B47551   5.380  15.445   6.215
 3502POPC   C2B47552   5.164  15.533   6.611
 3502POPC   C3B47553   5.187  15.620   7.046
 3502POPC   C4B47554   5.186  15.469   7.495
 3503POPC   NC347555  30.294  10.038   5.405
 3503POPC   PO447556  29.605   9.711   5.293
 3503POPC   GL147557  29.881   9.834   5.631
 3503POPC   GL247558  30.046   9.560   5.761
 3503POPC   C1A47559  29.915   9.946   6.089
 3503POPC   D2A47560  29.715  10.133   6.486
 3503POPC   C3A47561  29.952  10.092   6.851
 3503POPC   C4A47562  30.149  10.217   7.232
 3503POPC   C1B47563  29.654   9.487   5.972
 3503POPC   C2B47564  29.625   9.450   6.442
 3503POPC   C3B47565  29.788   9.531   6.872
 3503POPC   C4B47566  30.067   9.469   7.236
 3504POPC   NC347567   9.152  44.452   5.351
 3504POPC   PO447568   8.848   0.065   5.334
 3504POPC   GL147569   8.989  44.899   5.779
 3504POPC   GL247570   9.150  44.613   5.824
 3504POPC   C1A47571   8.876  44.701   6.236
 3504POPC   D2A47572   8.631  44.669   6.635
 3504POPC   C3A47573   8.909  44.626   6.988
 3504POPC   C4A47574   8.936  44.593   7.421
 3504POPC   C1B47575   9.367  44.423   6.196
 3504POPC   C2B47576   9.230  44.473   6.589
 3504POPC   C3B47577   9.262  44.236   6.955
 3504POPC   C4B47578   9.411  44.435   7.298
 3505POPC   NC347579  28.411  15.875   5.099
 3505POPC   PO447580  28.253  15.447   5.645
 3505POPC   GL147581  28.515  15.754   5.874
 3505POPC   GL247582  28.659  16.081   5.724
 3505POPC   C1A47583  28.397  15.759   6.314
 3505POPC   D2A47584  28.509  15.612   6.736
 3505POPC   C3A47585  28.328  15.854   7.059
 3505POPC   C4A47586  28.003  15.758   7.355
 3505POPC   C1B47587  28.491  16.289   6.116
 3505POPC   C2B47588  28.221  16.313   6.495
 3505POPC   C3B47589  28.342  16.362   6.913
 3505POPC   C4B47590  28.653  16.362   7.186
 3506POPC   NC347591  24.530  12.521   5.286
 3506POPC   PO447592  24.907  13.051   5.388
 3506POPC   GL147593  24.841  12.909   5.802
 3506POPC   GL247594  24.816  12.562   5.785
 3506POPC   C1A47595  24.508  13.013   6.105
 3506POPC   D2A47596  24.293  12.901   6.487
 3506POPC   C3A47597  24.554  13.029   6.822
 3506POPC   C4A47598  24.633  13.229   7.224
 3506POPC   C1B47599  24.457  12.503   6.046
 3506POPC   C2B47600  24.487  12.425   6.480
 3506POPC   C3B47601  24.357  12.533   6.860
 3506POPC   C4B47602  24.568  12.693   7.203
 3507POPC   NC347603  43.077  11.506   5.494
 3507POPC   PO447604  43.124  10.835   5.373
 3507POPC   GL147605  43.279  10.922   5.807
 3507POPC   GL247606  42.950  11.051   5.958
 3507POPC   C1A47607  43.364  11.230   6.176
 3507POPC   D2A47608  43.127  11.280   6.558
 3507POPC   C3A47609  43.275  11.270   6.968
 3507POPC   C4A47610  42.971  11.179   7.303
 3507POPC   C1B47611  42.927  11.515   6.135
 3507POPC   C2B47612  43.018  11.789   6.496
 3507POPC   C3B47613  42.915  11.708   6.922
 3507POPC   C4B47614  42.632  11.587   7.254
 3508POPC   NC347615  27.849   8.608   5.745
 3508POPC   PO447616  27.363   8.190   5.450
 3508POPC   GL147617  27.464   7.968   5.817
 3508POPC   GL247618  27.728   8.156   5.961
 3508POPC   C1A47619  27.411   7.933   6.272
 3508POPC   D2A47620  27.631   8.043   6.661
 3508POPC   C3A47621  27.413   8.263   6.975
 3508POPC   C4A47622  27.418   8.250   7.407
 3508POPC   C1B47623  27.715   8.438   6.354
 3508POPC   C2B47624  27.834   8.527   6.800
 3508POPC   C3B47625  27.879   8.286   7.204
 3508POPC   C4B47626  27.893   8.299   7.690
 3509POPC   NC347627  43.912  41.356   5.356
 3509POPC   PO447628  44.155  41.906   5.682
 3509POPC   GL147629  43.846  41.696   5.908
 3509POPC   GL247630  43.695  41.365   5.817
 3509POPC   C1A47631  43.936  41.683   6.361
 3509POPC   D2A47632  43.944  41.965   6.717
 3509POPC   C3A47633  43.936  41.724   7.075
 3509POPC   C4A47634  43.746  41.729   7.500
 3509POPC   C1B47635  43.754  41.213   6.278
 3509POPC   C2B47636  43.782  41.306   6.753
 3509POPC   C3B47637  43.517  41.430   7.136
 3509POPC   C4B47638  43.542  41.289   7.585
 3510POPC   NC347639   7.223  33.214   5.476
 3510POPC   PO447640   6.617  32.860   5.493
 3510POPC   GL147641   6.820  33.127   5.792
 3510POPC   GL247642   7.093  32.881   5.837
 3510POPC   C1A47643   6.748  33.307   6.223
 3510POPC   D2A47644   6.872  33.116   6.658
 3510POPC   C3A47645   6.723  33.288   7.052
 3510POPC   C4A47646   6.354  33.030   7.208
 3510POPC   C1B47647   7.146  32.997   6.231
 3510POPC   C2B47648   7.217  32.726   6.573
 3510POPC   C3B47649   7.105  32.620   6.948
 3510POPC   C4B47650   6.829  32.821   7.241
 3511POPC   NC347651  41.359  41.464   5.474
 3511POPC   PO447652  41.964  41.847   5.440
 3511POPC   GL147653  41.803  42.036   5.828
 3511POPC   GL247654  41.481  41.877   5.791
 3511POPC   C1A47655  41.688  41.974   6.278
 3511POPC   D2A47656  41.567  41.558   6.442
 3511POPC   C3A47657  41.486  41.514   6.907
 3511POPC   C4A47658  41.438  41.198   7.219
 3511POPC   C1B47659  41.216  41.839   6.146
 3511POPC   C2B47660  41.164  41.821   6.598
 3511POPC   C3B47661  40.936  41.706   6.949
 3511POPC   C4B47662  41.060  41.520   7.333
 3512POPC   NC347663  41.788   8.357   5.458
 3512POPC   PO447664  41.250   7.880   5.257
 3512POPC   GL147665  41.391   7.994   5.683
 3512POPC   GL247666  41.743   7.891   5.744
 3512POPC   C1A47667  41.437   8.233   6.090
 3512POPC   D2A47668  41.546   8.506   6.432
 3512POPC   C3A47669  41.409   8.351   6.828
 3512POPC   C4A47670  41.575   8.321   7.235
 3512POPC   C1B47671  41.532   7.723   6.116
 3512POPC   C2B47672  41.586   7.949   6.509
 3512POPC   C3B47673  41.705   7.898   6.937
 3512POPC   C4B47674  41.403   7.836   7.270
 3513POPC   NC347675  33.313  18.377   5.451
 3513POPC   PO447676  33.862  18.186   5.193
 3513POPC   GL147677  33.801  18.306   5.620
 3513POPC   GL247678  34.049  18.130   5.752
 3513POPC   C1A47679  33.717  18.400   6.073
 3513POPC   D2A47680  33.856  18.362   6.517
 3513POPC   C3A47681  33.734  18.014   6.796
 3513POPC   C4A47682  33.551  18.017   7.238
 3513POPC   C1B47683  34.114  18.069   6.190
 3513POPC   C2B47684  34.279  18.026   6.617
 3513POPC   C3B47685  34.135  18.308   6.969
 3513POPC   C4B47686  34.033  18.687   7.242
 3514POPC   NC347687  27.503  10.309   5.375
 3514POPC   PO447688  27.786  10.878   5.132
 3514POPC   GL147689  27.817  10.694   5.597
 3514POPC   GL247690  27.457  10.696   5.713
 3514POPC   C1A47691  27.792  10.622   6.105
 3514POPC   D2A47692  27.936  10.525   6.556
 3514POPC   C3A47693  27.753  10.414   6.960
 3514POPC   C4A47694  27.475  10.411   7.336
 3514POPC   C1B47695  27.306  10.773   6.122
 3514POPC   C2B47696  27.485  10.815   6.513
 3514POPC   C3B47697  27.342  10.743   6.906
 3514POPC   C4B47698  27.600  10.868   7.207
 3515POPC   NC347699  37.407  17.537   5.419
 3515POPC   PO447700  37.990  17.773   5.410
 3515POPC   GL147701  37.782  17.548   5.783
 3515POPC   GL247702  37.429  17.602   5.928
 3515POPC   C1A47703  37.805  17.487   6.239
 3515POPC   D2A47704  37.633  17.459   6.663
 3515POPC   C3A47705  37.930  17.418   7.010
 3515POPC   C4A47706  37.988  17.459   7.493
 3515POPC   C1B47707  37.390  17.193   6.148
 3515POPC   C2B47708  37.218  17.089   6.548
 3515POPC   C3B47709  37.202  17.241   6.957
 3515POPC   C4B47710  37.492  17.404   7.257
 3516POPC   NC347711  17.926  42.492   5.291
 3516POPC   PO447712  18.542  42.211   5.303
 3516POPC   GL147713  18.267  42.326   5.633
 3516POPC   GL247714  18.439  42.615   5.747
 3516POPC   C1A47715  18.062  42.277   6.046
 3516POPC   D2A47716  18.314  42.301   6.429
 3516POPC   C3A47717  18.156  42.376   6.867
 3516POPC   C4A47718  18.226  42.556   7.310
 3516POPC   C1B47719  18.660  42.579   6.153
 3516POPC   C2B47720  18.864  42.336   6.442
 3516POPC   C3B47721  18.667  42.385   6.809
 3516POPC   C4B47722  18.577  42.203   7.182
 3517POPC   NC347723   3.914   3.761   5.446
 3517POPC   PO447724   3.597   3.169   5.506
 3517POPC   GL147725   3.619   3.418   5.860
 3517POPC   GL247726   3.473   3.740   5.798
 3517POPC   C1A47727   3.448   3.467   6.300
 3517POPC   D2A47728   3.281   3.729   6.646
 3517POPC   C3A47729   3.459   3.534   6.991
 3517POPC   C4A47730   3.512   3.239   7.298
 3517POPC   C1B47731   3.775   3.825   6.155
 3517POPC   C2B47732   3.828   3.717   6.625
 3517POPC   C3B47733   3.847   3.864   7.070
 3517POPC   C4B47734   3.643   3.733   7.455
 3518POPC   NC347735   1.054  10.518   5.279
 3518POPC   PO447736   1.492  10.878   5.644
 3518POPC   GL147737   1.325  10.507   5.876
 3518POPC   GL247738   0.956  10.379   5.768
 3518POPC   C1A47739   1.373  10.668   6.303
 3518POPC   D2A47740   1.649  10.640   6.663
 3518POPC   C3A47741   1.420  10.630   7.031
 3518POPC   C4A47742   0.986  10.681   7.078
 3518POPC   C1B47743   1.019  10.287   6.218
 3518POPC   C2B47744   1.219  10.308   6.634
 3518POPC   C3B47745   1.150  10.190   7.046
 3518POPC   C4B47746   1.101  10.384   7.483
 3519POPC   NC347747  10.721  30.786   5.417
 3519POPC   PO447748  10.200  30.344   5.611
 3519POPC   GL147749  10.359  30.704   5.774
 3519POPC   GL247750  10.072  30.918   5.792
 3519POPC   C1A47751  10.677  30.658   6.111
 3519POPC   D2A47752  10.700  30.359   6.462
 3519POPC   C3A47753  10.806  30.541   6.846
 3519POPC   C4A47754  10.559  30.618   7.197
 3519POPC   C1B47755  10.323  31.021   6.170
 3519POPC   C2B47756  10.526  30.952   6.589
 3519POPC   C3B47757  10.335  31.088   6.983
 3519POPC   C4B47758  10.187  30.906   7.393
 3520POPC   NC347759  38.933  19.889   5.526
 3520POPC   PO447760  38.326  19.705   5.269
 3520POPC   GL147761  38.360  19.884   5.716
 3520POPC   GL247762  38.635  20.103   5.872
 3520POPC   C1A47763  38.323  19.831   6.173
 3520POPC   D2A47764  38.497  19.837   6.616
 3520POPC   C3A47765  38.385  19.868   7.054
 3520POPC   C4A47766  38.416  20.038   7.483
 3520POPC   C1B47767  38.644  20.199   6.302
 3520POPC   C2B47768  38.796  20.261   6.737
 3520POPC   C3B47769  38.845  20.084   7.182
 3520POPC   C4B47770  38.830  20.335   7.588
 3521POPC   NC347771  13.527  28.542   5.441
 3521POPC   PO447772  13.271  27.939   5.574
 3521POPC   GL147773  13.536  28.205   5.861
 3521POPC   GL247774  13.665  28.547   5.932
 3521POPC   C1A47775  13.579  28.217   6.327
 3521POPC   D2A47776  13.539  28.077   6.760
 3521POPC   C3A47777  13.487  28.400   7.040
 3521POPC   C4A47778  13.462  28.680   7.394
 3521POPC   C1B47779  13.882  28.622   6.327
 3521POPC   C2B47780  13.931  28.446   6.733
 3521POPC   C3B47781  13.928  28.630   7.129
 3521POPC   C4B47782  13.992  28.479   7.489
 3522POPC   NC347783  29.647  43.833   5.303
 3522POPC   PO447784  29.167  43.585   5.559
 3522POPC   GL147785  29.186  43.961   5.811
 3522POPC   GL247786  29.555  43.944   5.867
 3522POPC   C1A47787  29.062  44.128   6.257
 3522POPC   D2A47788  29.136  44.138   6.733
 3522POPC   C3A47789  28.901  43.776   6.952
 3522POPC   C4A47790  28.981  43.626   7.370
 3522POPC   C1B47791  29.331  43.696   6.212
 3522POPC   C2B47792  29.302  43.664   6.647
 3522POPC   C3B47793  29.395  43.817   7.070
 3522POPC   C4B47794  29.600  44.154   7.262
 3523POPC   NC347795  20.640  24.926   5.366
 3523POPC   PO447796  20.876  25.640   5.385
 3523POPC   GL147797  20.640  25.428   5.696
 3523POPC   GL247798  20.943  25.466   5.894
 3523POPC   C1A47799  20.488  25.259   6.119
 3523POPC   D2A47800  20.706  25.343   6.536
 3523POPC   C3A47801  20.593  25.171   6.952
 3523POPC   C4A47802  20.395  25.296   7.334
 3523POPC   C1B47803  21.031  25.671   6.304
 3523POPC   C2B47804  20.900  25.785   6.727
 3523POPC   C3B47805  20.772  25.616   7.114
 3523POPC   C4B47806  20.901  25.569   7.543
 3524POPC   NC347807  12.547  36.225   5.097
 3524POPC   PO447808  13.027  35.874   5.447
 3524POPC   GL147809  12.903  36.213   5.712
 3524POPC   GL247810  12.569  36.243   5.662
 3524POPC   C1A47811  12.912  36.193   6.155
 3524POPC   D2A47812  13.019  35.942   6.518
 3524POPC   C3A47813  12.895  36.126   6.913
 3524POPC   C4A47814  12.871  36.004   7.324
 3524POPC   C1B47815  12.450  36.404   6.046
 3524POPC   C2B47816  12.485  36.340   6.460
 3524POPC   C3B47817  12.429  36.387   6.879
 3524POPC   C4B47818  12.645  36.441   7.255
 3525POPC   NC347819  33.819  19.095   5.445
 3525POPC   PO447820  33.227  18.801   5.647
 3525POPC   GL147821  33.607  18.933   5.898
 3525POPC   GL247822  33.699  19.303   5.896
 3525POPC   C1A47823  33.889  18.881   6.272
 3525POPC   D2A47824  33.959  18.817   6.733
 3525POPC   C3A47825  33.728  19.059   7.079
 3525POPC   C4A47826  33.657  19.487   7.134
 3525POPC   C1B47827  34.051  19.387   6.175
 3525POPC   C2B47828  34.245  19.301   6.577
 3525POPC   C3B47829  34.144  19.356   6.997
 3525POPC   C4B47830  34.052  19.345   7.433
 3526POPC   NC347831   1.896  18.936   5.232
 3526POPC   PO447832   2.190  19.549   5.368
 3526POPC   GL147833   2.036  19.290   5.733
 3526POPC   GL247834   2.120  18.942   5.697
 3526POPC   C1A47835   2.032  19.323   6.206
 3526POPC   D2A47836   2.160  19.271   6.624
 3526POPC   C3A47837   1.948  19.271   6.997
 3526POPC   C4A47838   2.249  19.154   7.279
 3526POPC   C1B47839   1.829  18.890   6.039
 3526POPC   C2B47840   1.826  18.901   6.515
 3526POPC   C3B47841   2.165  18.807   6.864
 3526POPC   C4B47842   2.271  18.609   7.277
 3527POPC   NC347843  27.766  15.327   5.395
 3527POPC   PO447844  27.682  14.657   5.268
 3527POPC   GL147845  27.477  15.027   5.661
 3527POPC   GL247846  27.793  15.122   5.889
 3527POPC   C1A47847  27.413  15.369   6.079
 3527POPC   D2A47848  27.613  15.460   6.481
 3527POPC   C3A47849  27.517  15.250   6.869
 3527POPC   C4A47850  27.637  15.382   7.278
 3527POPC   C1B47851  27.604  14.968   6.326
 3527POPC   C2B47852  27.803  14.850   6.699
 3527POPC   C3B47853  27.881  14.949   7.119
 3527POPC   C4B47854  27.570  14.871   7.386
 3528POPC   NC347855  36.737  44.423   5.475
 3528POPC   PO447856  37.052   0.047   5.235
 3528POPC   GL147857  37.019  44.839   5.706
 3528POPC   GL247858  37.296  44.797   5.884
 3528POPC   C1A47859  36.937  44.510   6.100
 3528POPC   D2A47860  36.912  44.248   6.514
 3528POPC   C3A47861  36.673  44.452   6.872
 3528POPC   C4A47862  36.734  44.712   7.262
 3528POPC   C1B47863  37.105  44.997   6.193
 3528POPC   C2B47864  36.810  44.874   6.486
 3528POPC   C3B47865  37.031  44.819   6.854
 3528POPC   C4B47866  37.083   0.099   7.170
 3529POPC   NC347867  14.917  10.376   5.437
 3529POPC   PO447868  15.394  10.835   5.428
 3529POPC   GL147869  15.113  10.741   5.794
 3529POPC   GL247870  15.184  10.391   5.875
 3529POPC   C1A47871  14.931  10.660   6.227
 3529POPC   D2A47872  15.128  10.401   6.563
 3529POPC   C3A47873  15.181  10.525   6.962
 3529POPC   C4A47874  15.100  10.644   7.382
 3529POPC   C1B47875  15.343  10.122   6.186
 3529POPC   C2B47876  15.542  10.106   6.580
 3529POPC   C3B47877  15.369  10.033   6.966
 3529POPC   C4B47878  15.339  10.213   7.322
 3530POPC   NC347879   5.898  41.743   5.681
 3530POPC   PO447880   5.548  41.283   5.381
 3530POPC   GL147881   5.768  41.242   5.819
 3530POPC   GL247882   6.136  41.289   5.842
 3530POPC   C1A47883   5.775  41.419   6.255
 3530POPC   D2A47884   5.505  41.550   6.622
 3530POPC   C3A47885   5.685  41.494   7.042
 3530POPC   C4A47886   6.008  41.742   7.169
 3530POPC   C1B47887   6.277  41.316   6.289
 3530POPC   C2B47888   6.253  41.376   6.741
 3530POPC   C3B47889   6.302  41.250   7.163
 3530POPC   C4B47890   6.016  41.334   7.478
 3531POPC   NC347891  43.633   6.511   5.408
 3531POPC   PO447892  44.283   6.680   5.328
 3531POPC   GL147893  44.018   6.775   5.650
 3531POPC   GL247894  44.005   6.441   5.754
 3531POPC   C1A47895  43.988   6.893   6.084
 3531POPC   D2A47896  44.107   6.901   6.518
 3531POPC   C3A47897  43.887   6.803   6.881
 3531POPC   C4A47898  43.996   6.782   7.314
 3531POPC   C1B47899  44.008   6.375   6.182
 3531POPC   C2B47900  43.942   6.375   6.614
 3531POPC   C3B47901  44.081   6.355   7.056
 3531POPC   C4B47902  43.810   6.301   7.424
 3532POPC   NC347903  40.581  40.856   5.202
 3532POPC   PO447904  40.980  41.161   5.569
 3532POPC   GL147905  40.667  40.862   5.724
 3532POPC   GL247906  40.873  40.624   5.883
 3532POPC   C1A47907  40.507  40.965   6.126
 3532POPC   D2A47908  40.671  41.077   6.536
 3532POPC   C3A47909  40.655  40.769   6.879
 3532POPC   C4A47910  40.548  40.773   7.304
 3532POPC   C1B47911  40.724  40.557   6.333
 3532POPC   C2B47912  40.850  40.312   6.664
 3532POPC   C3B47913  40.965  40.402   7.062
 3532POPC   C4B47914  40.963  40.531   7.471
 3533POPC   NC347915  27.937  43.151   5.514
 3533POPC   PO447916  28.589  42.991   5.505
 3533POPC   GL147917  28.527  43.170   5.914
 3533POPC   GL247918  28.191  43.233   5.935
 3533POPC   C1A47919  28.497  43.099   6.376
 3533POPC   D2A47920  28.320  42.762   6.644
 3533POPC   C3A47921  28.150  42.930   7.025
 3533POPC   C4A47922  28.465  43.202   7.184
 3533POPC   C1B47923  27.999  43.112   6.347
 3533POPC   C2B47924  28.033  43.377   6.742
 3533POPC   C3B47925  28.018  43.475   7.199
 3533POPC   C4B47926  28.136  43.629   7.633
 3534POPC   NC347927  28.963   7.729   5.026
 3534POPC   PO447928  29.370   7.234   5.348
 3534POPC   GL147929  29.306   7.314   5.798
 3534POPC   GL247930  28.973   7.329   5.814
 3534POPC   C1A47931  29.400   7.351   6.264
 3534POPC   D2A47932  29.386   7.636   6.606
 3534POPC   C3A47933  29.217   7.595   6.967
 3534POPC   C4A47934  29.341   7.279   7.189
 3534POPC   C1B47935  28.881   7.399   6.255
 3534POPC   C2B47936  28.970   7.266   6.682
 3534POPC   C3B47937  28.817   7.321   7.132
 3534POPC   C4B47938  28.856   7.176   7.570
 3535POPC   NC347939  16.506  32.383   5.399
 3535POPC   PO447940  16.951  31.835   5.454
 3535POPC   GL147941  16.900  32.211   5.712
 3535POPC   GL247942  17.164  32.103   5.898
 3535POPC   C1A47943  16.680  32.336   6.132
 3535POPC   D2A47944  16.453  32.487   6.548
 3535POPC   C3A47945  16.663  32.477   7.010
 3535POPC   C4A47946  16.657  32.089   7.323
 3535POPC   C1B47947  17.180  32.410   6.185
 3535POPC   C2B47948  16.958  32.357   6.595
 3535POPC   C3B47949  17.074  32.154   7.014
 3535POPC   C4B47950  17.068  32.375   7.453
 3536POPC   NC347951  13.887  13.789   5.444
 3536POPC   PO447952  13.337  13.358   5.495
 3536POPC   GL147953  13.528  13.607   5.800
 3536POPC   GL247954  13.819  13.384   5.831
 3536POPC   C1A47955  13.426  13.911   6.161
 3536POPC   D2A47956  13.614  14.005   6.576
 3536POPC   C3A47957  13.450  13.896   6.992
 3536POPC   C4A47958  13.722  13.712   7.307
 3536POPC   C1B47959  13.715  13.498   6.257
 3536POPC   C2B47960  13.796  13.384   6.667
 3536POPC   C3B47961  13.553  13.309   7.015
 3536POPC   C4B47962  13.660  13.211   7.409
 3537POPC   NC347963   3.569  12.412   5.395
 3537POPC   PO447964   3.981  12.913   5.513
 3537POPC   GL147965   3.772  12.686   5.815
 3537POPC   GL247966   3.407  12.723   5.790
 3537POPC   C1A47967   3.757  12.873   6.223
 3537POPC   D2A47968   3.628  12.783   6.633
 3537POPC   C3A47969   3.789  13.002   6.998
 3537POPC   C4A47970   3.837  12.732   7.366
 3537POPC   C1B47971   3.271  12.964   6.168
 3537POPC   C2B47972   3.205  13.058   6.617
 3537POPC   C3B47973   3.287  12.889   7.035
 3537POPC   C4B47974   3.358  12.915   7.480
 3538POPC   NC347975  38.353  30.212   5.250
 3538POPC   PO447976  38.490  29.594   5.468
 3538POPC   GL147977  38.495  29.897   5.811
 3538POPC   GL247978  38.331  30.240   5.771
 3538POPC   C1A47979  38.249  29.948   6.208
 3538POPC   D2A47980  38.071  29.735   6.574
 3538POPC   C3A47981  38.292  29.854   6.935
 3538POPC   C4A47982  38.681  29.729   7.061
 3538POPC   C1B47983  38.585  30.330   6.154
 3538POPC   C2B47984  38.587  30.170   6.595
 3538POPC   C3B47985  38.634  30.230   7.032
 3538POPC   C4B47986  38.786  30.461   7.378
 3539POPC   NC347987  39.218  11.434   5.166
 3539POPC   PO447988  39.632  10.970   5.315
 3539POPC   GL147989  39.347  11.226   5.639
 3539POPC   GL247990  39.202  11.000   5.889
 3539POPC   C1A47991  39.375  11.466   6.075
 3539POPC   D2A47992  39.277  11.309   6.516
 3539POPC   C3A47993  39.318  11.594   6.870
 3539POPC   C4A47994  38.937  11.726   7.099
 3539POPC   C1B47995  39.033  10.852   6.282
 3539POPC   C2B47996  38.844  10.813   6.689
 3539POPC   C3B47997  39.013  10.871   7.042
 3539POPC   C4B47998  39.115  11.264   7.186
 3540POPC   NC347999   0.772   1.444   5.620
 3540POPC   PO448000   0.268   1.054   5.483
 3540POPC   GL148001   0.554   0.997   5.833
 3540POPC   GL248002   0.467   1.297   6.008
 3540POPC   C1A48003   0.688   0.943   6.274
 3540POPC   D2A48004   0.466   1.230   6.553
 3540POPC   C3A48005   0.488   1.060   6.966
 3540POPC   C4A48006   0.848   1.119   7.212
 3540POPC   C1B48007   0.193   1.594   6.215
 3540POPC   C2B48008   0.221   1.819   6.585
 3540POPC   C3B48009   0.291   1.556   6.925
 3540POPC   C4B48010   0.473   1.448   7.309
 3541POPC   NC348011  27.825  41.091   5.152
 3541POPC   PO448012  27.584  40.516   5.313
 3541POPC   GL148013  27.534  40.655   5.735
 3541POPC   GL248014  27.796  40.435   5.793
 3541POPC   C1A48015  27.487  40.774   6.191
 3541POPC   D2A48016  27.570  41.010   6.586
 3541POPC   C3A48017  27.322  40.825   6.870
 3541POPC   C4A48018  27.235  40.868   7.295
 3541POPC   C1B48019  27.617  40.284   6.175
 3541POPC   C2B48020  27.477  40.349   6.624
 3541POPC   C3B48021  27.520  40.406   7.061
 3541POPC   C4B48022  27.744  40.679   7.289
 3542POPC   NC348023  33.857  23.817   5.410
 3542POPC   PO448024  33.552  23.227   5.466
 3542POPC   GL148025  33.664  23.561   5.838
 3542POPC   GL248026  33.873  23.908   5.908
 3542POPC   C1A48027  33.620  23.674   6.292
 3542POPC   D2A48028  33.409  23.574   6.653
 3542POPC   C3A48029  33.506  23.464   7.075
 3542POPC   C4A48030  33.705  23.771   7.347
 3542POPC   C1B48031  34.118  23.798   6.300
 3542POPC   C2B48032  33.985  23.754   6.763
 3542POPC   C3B48033  34.125  23.956   7.149
 3542POPC   C4B48034  34.096  23.902   7.652
 3543POPC   NC348035   0.230  34.964   5.555
 3543POPC   PO448036   0.533  35.544   5.321
 3543POPC   GL148037   0.218  35.453   5.660
 3543POPC   GL248038   0.523  35.397   5.807
 3543POPC   C1A48039   0.173  35.230   6.118
 3543POPC   D2A48040   0.418  35.245   6.470
 3543POPC   C3A48041   0.433  35.247   6.897
 3543POPC   C4A48042   0.273  35.161   7.287
 3543POPC   C1B48043   0.681  35.566   6.176
 3543POPC   C2B48044   0.801  35.553   6.605
 3543POPC   C3B48045   0.738  35.654   7.052
 3543POPC   C4B48046   0.498  35.595   7.446
 3544POPC   NC348047   1.471  42.911   5.310
 3544POPC   PO448048   0.995  43.363   5.432
 3544POPC   GL148049   1.213  43.255   5.787
 3544POPC   GL248050   1.132  42.917   5.720
 3544POPC   C1A48051   1.190  43.158   6.257
 3544POPC   D2A48052   1.374  43.232   6.674
 3544POPC   C3A48053   1.197  43.170   7.095
 3544POPC   C4A48054   1.121  43.511   7.406
 3544POPC   C1B48055   1.511  42.856   5.983
 3544POPC   C2B48056   1.575  42.800   6.430
 3544POPC   C3B48057   1.360  42.730   6.845
 3544POPC   C4B48058   1.368  42.526   7.256
 3545POPC   NC348059  40.565   1.134   5.317
 3545POPC   PO448060  41.007   0.682   5.368
 3545POPC   GL148061  40.683   0.832   5.743
 3545POPC   GL248062  40.370   1.055   5.787
 3545POPC   C1A48063  40.710   1.032   6.188
 3545POPC   D2A48064  40.884   1.384   6.456
 3545POPC   C3A48065  40.929   1.201   6.877
 3545POPC   C4A48066  41.071   1.140   7.301
 3545POPC   C1B48067  40.268   1.285   6.212
 3545POPC   C2B48068  40.413   1.319   6.663
 3545POPC   C3B48069  40.537   1.422   7.113
 3545POPC   C4B48070  40.581   1.103   7.469
 3546POPC   NC348071  13.087  20.515   5.596
 3546POPC   PO448072  12.547  20.639   5.315
 3546POPC   GL148073  12.621  20.770   5.714
 3546POPC   GL248074  12.536  20.483   5.929
 3546POPC   C1A48075  12.842  20.905   6.082
 3546POPC   D2A48076  12.732  20.872   6.503
 3546POPC   C3A48077  12.986  20.778   6.848
 3546POPC   C4A48078  12.723  20.753   7.173
 3546POPC   C1B48079  12.874  20.413   6.253
 3546POPC   C2B48080  12.990  20.252   6.640
 3546POPC   C3B48081  12.909  20.278   7.068
 3546POPC   C4B48082  12.838  20.071   7.457
 3547POPC   NC348083  10.980  39.402   5.400
 3547POPC   PO448084  10.346  39.108   5.365
 3547POPC   GL148085  10.576  39.332   5.728
 3547POPC   GL248086  10.860  39.092   5.787
 3547POPC   C1A48087  10.786  39.452   6.134
 3547POPC   D2A48088  10.802  39.250   6.537
 3547POPC   C3A48089  10.588  39.384   6.874
 3547POPC   C4A48090  10.634  39.313   7.272
 3547POPC   C1B48091  10.601  38.967   6.151
 3547POPC   C2B48092  10.365  38.974   6.544
 3547POPC   C3B48093  10.433  38.919   6.975
 3547POPC   C4B48094  10.263  38.957   7.375
 3548POPC   NC348095   0.123   9.149   5.528
 3548POPC   PO448096  44.449   9.280   5.482
 3548POPC   GL148097  44.660   9.039   5.817
 3548POPC   GL248098  44.517   8.694   5.901
 3548POPC   C1A48099  44.897   9.008   6.219
 3548POPC   D2A48100   0.078   8.800   6.601
 3548POPC   C3A48101  44.893   8.970   6.947
 3548POPC   C4A48102  44.641   8.732   7.217
 3548POPC   C1B48103  44.561   8.619   6.340
 3548POPC   C2B48104  44.416   8.781   6.727
 3548POPC   C3B48105  44.437   9.180   6.914
 3548POPC   C4B48106  44.591   9.247   7.329
 3549POPC   NC348107   8.747  23.497   5.434
 3549POPC   PO448108   9.341  23.845   5.346
 3549POPC   GL148109   9.063  23.844   5.683
 3549POPC   GL248110   9.054  23.523   5.832
 3549POPC   C1A48111   8.907  23.924   6.125
 3549POPC   D2A48112   9.038  23.764   6.526
 3549POPC   C3A48113   8.831  23.934   6.898
 3549POPC   C4A48114   8.933  23.936   7.340
 3549POPC   C1B48115   9.000  23.306   6.208
 3549POPC   C2B48116   8.816  23.271   6.599
 3549POPC   C3B48117   8.980  23.443   6.964
 3549POPC   C4B48118   8.761  23.297   7.266
 3550POPC   NC348119   8.758  20.522   5.537
 3550POPC   PO448120   9.396  20.672   5.529
 3550POPC   GL148121   9.109  20.648   5.871
 3550POPC   GL248122   8.805  20.900   5.859
 3550POPC   C1A48123   8.898  20.438   6.204
 3550POPC   D2A48124   8.730  20.263   6.599
 3550POPC   C3A48125   8.985  20.424   6.946
 3550POPC   C4A48126   9.214  20.298   7.300
 3550POPC   C1B48127   9.019  20.970   6.234
 3550POPC   C2B48128   8.964  20.805   6.607
 3550POPC   C3B48129   8.911  20.952   7.013
 3550POPC   C4B48130   8.936  20.734   7.407
 3551POPC   NC348131   5.157   2.315   4.978
 3551POPC   PO448132   5.186   2.883   5.415
 3551POPC   GL148133   4.936   2.660   5.710
 3551POPC   GL248134   5.156   2.405   5.766
 3551POPC   C1A48135   4.849   2.560   6.155
 3551POPC   D2A48136   5.058   2.727   6.509
 3551POPC   C3A48137   4.918   3.040   6.772
 3551POPC   C4A48138   5.094   3.016   7.139
 3551POPC   C1B48139   5.375   2.513   6.145
 3551POPC   C2B48140   5.463   2.425   6.604
 3551POPC   C3B48141   5.235   2.547   6.987
 3551POPC   C4B48142   5.252   2.645   7.454
 3552POPC   NC348143  12.354  12.310   5.458
 3552POPC   PO448144  11.944  11.727   5.381
 3552POPC   GL148145  11.971  12.024   5.783
 3552POPC   GL248146  11.650  12.196   5.925
 3552POPC   C1A48147  12.055  12.094   6.237
 3552POPC   D2A48148  12.318  12.139   6.601
 3552POPC   C3A48149  12.145  12.358   6.963
 3552POPC   C4A48150  12.358  12.240   7.291
 3552POPC   C1B48151  11.571  11.887   6.263
 3552POPC   C2B48152  11.856  11.749   6.595
 3552POPC   C3B48153  12.075  11.854   6.961
 3552POPC   C4B48154  11.914  11.994   7.326
 3553POPC   NC348155   1.615   3.510   5.493
 3553POPC   PO448156   2.207   3.761   5.225
 3553POPC   GL148157   2.265   3.693   5.711
 3553POPC   GL248158   2.045   3.407   5.784
 3553POPC   C1A48159   2.179   3.735   6.186
 3553POPC   D2A48160   1.875   3.787   6.544
 3553POPC   C3A48161   2.083   3.893   6.931
 3553POPC   C4A48162   1.984   3.791   7.374
 3553POPC   C1B48163   2.144   3.192   6.195
 3553POPC   C2B48164   2.194   3.379   6.613
 3553POPC   C3B48165   1.959   3.407   7.006
 3553POPC   C4B48166   2.175   3.206   7.330
 3554POPC   NC348167  21.074  26.107   5.351
 3554POPC   PO448168  21.642  25.836   5.534
 3554POPC   GL148169  21.305  25.866   5.834
 3554POPC   GL248170  21.216  26.205   5.828
 3554POPC   C1A48171  21.407  26.005   6.263
 3554POPC   D2A48172  21.673  26.168   6.570
 3554POPC   C3A48173  21.548  25.921   6.905
 3554POPC   C4A48174  21.232  25.806   7.185
 3554POPC   C1B48175  20.947  26.196   6.190
 3554POPC   C2B48176  21.101  26.227   6.608
 3554POPC   C3B48177  21.310  26.417   6.941
 3554POPC   C4B48178  21.324  26.329   7.361
 3555POPC   NC348179  35.191  34.103   5.429
 3555POPC   PO448180  35.793  33.592   5.449
 3555POPC   GL148181  35.444  33.675   5.685
 3555POPC   GL248182  35.549  33.986   5.759
 3555POPC   C1A48183  35.213  33.714   6.078
 3555POPC   D2A48184  35.227  33.547   6.500
 3555POPC   C3A48185  35.336  33.736   6.884
 3555POPC   C4A48186  35.112  33.843   7.244
 3555POPC   C1B48187  35.641  34.019   6.149
 3555POPC   C2B48188  35.693  33.869   6.525
 3555POPC   C3B48189  35.707  34.099   6.888
 3555POPC   C4B48190  35.520  34.119   7.279
 3556POPC   NC348191  43.334  35.258   5.441
 3556POPC   PO448192  42.831  35.108   5.625
 3556POPC   GL148193  43.182  35.267   5.935
 3556POPC   GL248194  43.448  35.525   5.873
 3556POPC   C1A48195  43.264  35.322   6.379
 3556POPC   D2A48196  42.976  35.317   6.717
 3556POPC   C3A48197  43.142  35.077   7.034
 3556POPC   C4A48198  43.203  35.163   7.450
 3556POPC   C1B48199  43.273  35.802   6.222
 3556POPC   C2B48200  43.228  35.762   6.691
 3556POPC   C3B48201  43.171  35.580   7.123
 3556POPC   C4B48202  43.291  35.777   7.501
 3557POPC   NC348203  38.217  40.159   5.457
 3557POPC   PO448204  38.698  39.633   5.327
 3557POPC   GL148205  38.530  39.854   5.717
 3557POPC   GL248206  38.654  40.160   5.777
 3557POPC   C1A48207  38.286  40.034   6.109
 3557POPC   D2A48208  38.360  40.226   6.521
 3557POPC   C3A48209  38.178  40.074   6.866
 3557POPC   C4A48210  38.336  39.984   7.263
 3557POPC   C1B48211  38.782  40.189   6.183
 3557POPC   C2B48212  38.927  40.160   6.586
 3557POPC   C3B48213  38.707  40.169   6.937
 3557POPC   C4B48214  38.629  40.393   7.299
 3558POPC   NC348215  12.245  24.992   5.459
 3558POPC   PO448216  12.023  25.590   5.295
 3558POPC   GL148217  12.055  25.505   5.730
 3558POPC   GL248218  12.362  25.334   5.820
 3558POPC   C1A48219  11.983  25.415   6.185
 3558POPC   D2A48220  12.127  25.233   6.590
 3558POPC   C3A48221  12.056  25.444   6.987
 3558POPC   C4A48222  11.841  25.310   7.343
 3558POPC   C1B48223  12.295  24.967   6.143
 3558POPC   C2B48224  12.481  24.859   6.570
 3558POPC   C3B48225  12.303  24.778   6.981
 3558POPC   C4B48226  12.274  25.062   7.316
 3559POPC   NC348227  39.414  20.937   5.631
 3559POPC   PO448228  39.101  20.322   5.409
 3559POPC   GL148229  38.940  20.566   5.825
 3559POPC   GL248230  39.034  20.899   5.978
 3559POPC   C1A48231  38.986  20.543   6.314
 3559POPC   D2A48232  39.091  20.728   6.702
 3559POPC   C3A48233  39.050  20.538   7.114
 3559POPC   C4A48234  39.267  20.618   7.519
 3559POPC   C1B48235  39.426  20.798   6.276
 3559POPC   C2B48236  39.597  20.682   6.692
 3559POPC   C3B48237  39.436  20.846   7.069
 3559POPC   C4B48238  39.449  21.104   7.422
 3560POPC   NC348239  34.753  27.771   5.411
 3560POPC   PO448240  34.451  27.203   5.346
 3560POPC   GL148241  34.604  27.411   5.753
 3560POPC   GL248242  34.362  27.578   5.898
 3560POPC   C1A48243  34.770  27.655   6.159
 3560POPC   D2A48244  34.750  27.911   6.566
 3560POPC   C3A48245  34.692  27.744   7.017
 3560POPC   C4A48246  34.941  27.469   7.282
 3560POPC   C1B48247  34.257  27.686   6.271
 3560POPC   C2B48248  34.348  27.607   6.665
 3560POPC   C3B48249  34.296  27.378   6.998
 3560POPC   C4B48250  34.211  27.710   7.261
 3561POPC   NC348251  39.507  43.031   5.350
 3561POPC   PO448252  39.067  42.656   5.509
 3561POPC   GL148253  39.419  42.790   5.787
 3561POPC   GL248254  39.492  43.181   5.822
 3561POPC   C1A48255  39.497  42.841   6.199
 3561POPC   D2A48256  39.255  42.941   6.554
 3561POPC   C3A48257  39.418  42.952   6.953
 3561POPC   C4A48258  39.146  42.878   7.291
 3561POPC   C1B48259  39.341  43.401   6.167
 3561POPC   C2B48260  39.241  43.455   6.600
 3561POPC   C3B48261  38.967  43.265   6.914
 3561POPC   C4B48262  38.776  43.500   7.242
 3562POPC   NC348263   0.375  12.399   5.398
 3562POPC   PO448264   0.456  11.701   5.312
 3562POPC   GL148265   0.472  11.921   5.723
 3562POPC   GL248266   0.147  12.080   5.731
 3562POPC   C1A48267   0.619  12.018   6.157
 3562POPC   D2A48268   0.559  12.377   6.388
 3562POPC   C3A48269   0.588  12.324   6.812
 3562POPC   C4A48270   0.719  12.182   7.198
 3562POPC   C1B48271   0.114  11.971   6.156
 3562POPC   C2B48272   0.253  11.981   6.585
 3562POPC   C3B48273   0.291  11.889   7.022
 3562POPC   C4B48274   0.256  12.104   7.406
 3563POPC   NC348275  21.842  29.297   5.343
 3563POPC   PO448276  22.447  29.510   5.421
 3563POPC   GL148277  22.267  29.302   5.789
 3563POPC   GL248278  22.069  29.007   5.767
 3563POPC   C1A48279  22.132  29.348   6.220
 3563POPC   D2A48280  22.011  29.188   6.629
 3563POPC   C3A48281  22.267  29.372   6.952
 3563POPC   C4A48282  22.419  29.243   7.347
 3563POPC   C1B48283  22.028  28.830   6.212
 3563POPC   C2B48284  22.059  28.648   6.645
 3563POPC   C3B48285  22.139  28.893   7.066
 3563POPC   C4B48286  22.041  28.924   7.534
 3564POPC   NC348287  19.815  13.671   5.335
 3564POPC   PO448288  19.342  13.076   5.321
 3564POPC   GL148289  19.543  13.417   5.682
 3564POPC   GL248290  19.941  13.426   5.783
 3564POPC   C1A48291  19.652  13.444   6.163
 3564POPC   D2A48292  19.720  13.255   6.547
 3564POPC   C3A48293  19.751  13.478   6.924
 3564POPC   C4A48294  19.904  13.436   7.305
 3564POPC   C1B48295  20.089  13.724   6.178
 3564POPC   C2B48296  20.059  13.898   6.598
 3564POPC   C3B48297  20.132  13.836   7.050
 3564POPC   C4B48298  19.972  14.101   7.393
 3565POPC   NC348299  40.139  12.941   5.476
 3565POPC   PO448300  39.463  12.978   5.633
 3565POPC   GL148301  39.766  12.755   5.843
 3565POPC   GL248302  39.907  13.040   5.917
 3565POPC   C1A48303  39.953  12.667   6.282
 3565POPC   D2A48304  40.050  12.490   6.690
 3565POPC   C3A48305  39.919  12.701   7.062
 3565POPC   C4A48306  40.011  12.557   7.475
 3565POPC   C1B48307  40.119  13.142   6.277
 3565POPC   C2B48308  39.989  13.093   6.695
 3565POPC   C3B48309  40.186  13.134   7.103
 3565POPC   C4B48310  40.386  12.947   7.491
 3566POPC   NC348311  11.449  42.695   5.419
 3566POPC   PO448312  11.584  42.028   5.355
 3566POPC   GL148313  11.426  42.241   5.724
 3566POPC   GL248314  11.190  42.014   5.874
 3566POPC   C1A48315  11.453  42.394   6.162
 3566POPC   D2A48316  11.281  42.192   6.545
 3566POPC   C3A48317  11.376  42.410   6.941
 3566POPC   C4A48318  11.293  42.605   7.374
 3566POPC   C1B48319  10.966  41.876   6.224
 3566POPC   C2B48320  10.759  42.023   6.569
 3566POPC   C3B48321  10.936  42.146   6.945
 3566POPC   C4B48322  11.029  41.931   7.321
 3567POPC   NC348323  40.266   2.634   5.564
 3567POPC   PO448324  40.112   3.275   5.405
 3567POPC   GL148325  39.971   3.045   5.754
 3567POPC   GL248326  39.795   2.715   5.743
 3567POPC   C1A48327  40.199   3.044   6.129
 3567POPC   D2A48328  40.222   2.830   6.510
 3567POPC   C3A48329  40.104   3.058   6.865
 3567POPC   C4A48330  40.144   2.902   7.265
 3567POPC   C1B48331  39.942   2.573   6.153
 3567POPC   C2B48332  39.788   2.468   6.563
 3567POPC   C3B48333  39.887   2.552   6.983
 3567POPC   C4B48334  40.267   2.420   7.180
 3568POPC   NC348335   3.065  25.665   5.600
 3568POPC   PO448336   3.598  25.312   5.331
 3568POPC   GL148337   3.564  25.345   5.795
 3568POPC   GL248338   3.487  25.013   5.896
 3568POPC   C1A48339   3.777  25.353   6.232
 3568POPC   D2A48340   3.924  25.486   6.669
 3568POPC   C3A48341   3.767  25.265   6.985
 3568POPC   C4A48342   3.657  25.477   7.340
 3568POPC   C1B48343   3.352  25.047   6.345
 3568POPC   C2B48344   3.322  24.986   6.797
 3568POPC   C3B48345   3.436  24.975   7.245
 3568POPC   C4B48346   3.340  25.047   7.693
 3569POPC   NC348347  32.472  40.177   5.440
 3569POPC   PO448348  31.876  40.024   5.346
 3569POPC   GL148349  32.083  39.977   5.767
 3569POPC   GL248350  32.372  39.737   5.706
 3569POPC   C1A48351  32.125  40.254   6.170
 3569POPC   D2A48352  32.179  40.476   6.580
 3569POPC   C3A48353  32.335  40.112   6.785
 3569POPC   C4A48354  32.097  39.826   7.078
 3569POPC   C1B48355  32.581  39.856   6.083
 3569POPC   C2B48356  32.549  39.708   6.499
 3569POPC   C3B48357  32.665  39.762   6.928
 3569POPC   C4B48358  32.527  40.025   7.265
 3570POPC   NC348359   3.472  28.016   5.426
 3570POPC   PO448360   2.767  28.118   5.475
 3570POPC   GL148361   2.772  28.321   5.837
 3570POPC   GL248362   3.102  28.172   5.911
 3570POPC   C1A48363   2.710  28.246   6.268
 3570POPC   D2A48364   2.897  28.072   6.648
 3570POPC   C3A48365   2.726  28.303   6.963
 3570POPC   C4A48366   2.499  28.253   7.303
 3570POPC   C1B48367   3.130  28.548   6.156
 3570POPC   C2B48368   2.970  28.580   6.566
 3570POPC   C3B48369   3.182  28.535   6.959
 3570POPC   C4B48370   3.387  28.683   7.327
 3571POPC   NC348371  28.683  12.318   5.535
 3571POPC   PO448372  28.242  12.849   5.350
 3571POPC   GL148373  28.429  12.875   5.720
 3571POPC   GL248374  28.298  12.582   5.830
 3571POPC   C1A48375  28.348  13.001   6.138
 3571POPC   D2A48376  28.404  13.273   6.501
 3571POPC   C3A48377  28.467  13.037   6.881
 3571POPC   C4A48378  28.337  13.113   7.296
 3571POPC   C1B48379  28.403  12.504   6.272
 3571POPC   C2B48380  28.505  12.510   6.700
 3571POPC   C3B48381  28.652  12.462   7.113
 3571POPC   C4B48382  28.641  12.739   7.471
 3572POPC   NC348383  10.334  33.445   5.416
 3572POPC   PO448384  10.932  33.505   5.426
 3572POPC   GL148385  10.786  33.167   5.727
 3572POPC   GL248386  10.417  33.108   5.767
 3572POPC   C1A48387  10.719  32.901   6.118
 3572POPC   D2A48388  10.529  33.013   6.507
 3572POPC   C3A48389  10.702  32.810   6.866
 3572POPC   C4A48390  10.840  33.000   7.212
 3572POPC   C1B48391  10.188  32.888   6.066
 3572POPC   C2B48392  10.056  32.836   6.467
 3572POPC   C3B48393  10.174  32.869   6.867
 3572POPC   C4B48394  10.354  32.930   7.264
 3573POPC   NC348395   4.774  10.099   5.352
 3573POPC   PO448396   5.411   9.933   5.453
 3573POPC   GL148397   5.118   9.941   5.797
 3573POPC   GL248398   4.789   9.745   5.825
 3573POPC   C1A48399   4.971  10.045   6.207
 3573POPC   D2A48400   5.121   9.992   6.616
 3573POPC   C3A48401   4.932   9.856   7.005
 3573POPC   C4A48402   5.232  10.061   7.249
 3573POPC   C1B48403   5.019   9.547   6.236
 3573POPC   C2B48404   5.126   9.477   6.711
 3573POPC   C3B48405   5.132   9.452   7.205
 3573POPC   C4B48406   5.106   9.338   7.679
 3574POPC   NC348407  43.746  32.584   5.420
 3574POPC   PO448408  44.245  32.114   5.312
 3574POPC   GL148409  43.940  31.931   5.652
 3574POPC   GL248410  43.670  32.145   5.741
 3574POPC   C1A48411  43.988  31.959   6.132
 3574POPC   D2A48412  43.957  32.191   6.544
 3574POPC   C3A48413  43.730  32.019   6.876
 3574POPC   C4A48414  43.754  32.108   7.290
 3574POPC   C1B48415  43.729  32.400   6.122
 3574POPC   C2B48416  43.727  32.658   6.521
 3574POPC   C3B48417  43.705  32.518   6.947
 3574POPC   C4B48418  43.526  32.587   7.338
 3575POPC   NC348419   5.886  26.747   5.325
 3575POPC   PO448420   6.358  26.483   5.690
 3575POPC   GL148421   5.928  26.700   5.853
 3575POPC   GL248422   5.817  27.051   5.784
 3575POPC   C1A48423   5.810  26.887   6.283
 3575POPC   D2A48424   5.568  26.864   6.688
 3575POPC   C3A48425   5.747  26.785   7.106
 3575POPC   C4A48426   6.024  26.441   7.253
 3575POPC   C1B48427   5.468  27.236   6.080
 3575POPC   C2B48428   5.330  27.280   6.543
 3575POPC   C3B48429   5.430  27.214   7.035
 3575POPC   C4B48430   5.556  27.097   7.490
 3576POPC   NC348431  13.423  18.379   5.466
 3576POPC   PO448432  13.798  17.864   5.381
 3576POPC   GL148433  13.659  18.035   5.792
 3576POPC   GL248434  13.312  17.940   5.727
 3576POPC   C1A48435  13.770  18.299   6.186
 3576POPC   D2A48436  13.646  18.453   6.616
 3576POPC   C3A48437  13.756  18.202   6.973
 3576POPC   C4A48438  13.983  17.838   7.146
 3576POPC   C1B48439  13.280  18.133   6.150
 3576POPC   C2B48440  13.199  18.189   6.606
 3576POPC   C3B48441  13.169  18.571   6.828
 3576POPC   C4B48442  13.173  18.710   7.245
 3577POPC   NC348443  40.018   0.088   5.476
 3577POPC   PO448444  39.525   0.418   5.155
 3577POPC   GL148445  39.717   0.447   5.736
 3577POPC   GL248446  39.950   0.742   5.843
 3577POPC   C1A48447  39.921   0.355   6.158
 3577POPC   D2A48448  39.844   0.590   6.537
 3577POPC   C3A48449  40.047   0.512   6.943
 3577POPC   C4A48450  39.849   0.469   7.343
 3577POPC   C1B48451  40.234   0.766   6.181
 3577POPC   C2B48452  40.371   0.804   6.579
 3577POPC   C3B48453  40.352   0.929   7.011
 3577POPC   C4B48454  40.296   0.696   7.400
 3578POPC   NC348455   3.208  31.719   5.445
 3578POPC   PO448456   3.871  31.488   5.399
 3578POPC   GL148457   3.555  31.394   5.716
 3578POPC   GL248458   3.764  31.135   5.861
 3578POPC   C1A48459   3.431  31.577   6.110
 3578POPC   D2A48460   3.655  31.777   6.470
 3578POPC   C3A48461   3.635  31.570   6.871
 3578POPC   C4A48462   3.819  31.688   7.258
 3578POPC   C1B48463   3.856  31.307   6.269
 3578POPC   C2B48464   3.995  31.093   6.642
 3578POPC   C3B48465   3.849  30.979   7.056
 3578POPC   C4B48466   3.593  31.238   7.262
 3579POPC   NC348467  20.015  33.763   5.372
 3579POPC   PO448468  19.526  34.218   5.472
 3579POPC   GL148469  19.615  33.954   5.816
 3579POPC   GL248470  19.955  33.787   5.893
 3579POPC   C1A48471  19.568  33.835   6.240
 3579POPC   D2A48472  19.903  33.629   6.410
 3579POPC   C3A48473  19.936  33.696   6.836
 3579POPC   C4A48474  19.663  33.923   7.061
 3579POPC   C1B48475  19.987  34.133   6.186
 3579POPC   C2B48476  19.904  34.166   6.620
 3579POPC   C3B48477  20.142  34.116   7.024
 3579POPC   C4B48478  20.299  33.684   7.199
 3580POPC   NC348479  27.542  17.138   5.421
 3580POPC   PO448480  27.428  17.717   5.652
 3580POPC   GL148481  27.713  17.461   5.882
 3580POPC   GL248482  27.682  17.097   5.891
 3580POPC   C1A48483  27.702  17.347   6.329
 3580POPC   D2A48484  27.538  17.502   6.699
 3580POPC   C3A48485  27.663  17.440   7.116
 3580POPC   C4A48486  27.517  17.560   7.511
 3580POPC   C1B48487  27.292  17.148   6.094
 3580POPC   C2B48488  27.209  17.134   6.531
 3580POPC   C3B48489  27.351  17.082   6.955
 3580POPC   C4B48490  27.441  17.061   7.407
 3581POPC   NC348491   3.314   9.333   5.077
 3581POPC   PO448492   3.731   9.134   5.589
 3581POPC   GL148493   3.692   9.119   5.979
 3581POPC   GL248494   3.496   8.832   5.967
 3581POPC   C1A48495   3.660   9.146   6.415
 3581POPC   D2A48496   3.766   9.304   6.796
 3581POPC   C3A48497   3.828   8.981   7.115
 3581POPC   C4A48498   3.521   8.623   7.085
 3581POPC   C1B48499   3.198   9.026   6.264
 3581POPC   C2B48500   3.138   8.936   6.712
 3581POPC   C3B48501   3.345   9.150   7.058
 3581POPC   C4B48502   3.283   9.306   7.476
 3582POPC   NC348503  37.638   8.674   5.390
 3582POPC   PO448504  37.911   9.202   5.428
 3582POPC   GL148505  37.683   9.062   5.783
 3582POPC   GL248506  37.640   8.717   5.913
 3582POPC   C1A48507  37.630   9.217   6.210
 3582POPC   D2A48508  37.578   9.174   6.655
 3582POPC   C3A48509  37.917   9.017   6.879
 3582POPC   C4A48510  37.945   9.195   7.273
 3582POPC   C1B48511  37.672   8.739   6.374
 3582POPC   C2B48512  37.504   8.680   6.787
 3582POPC   C3B48513  37.556   8.836   7.201
 3582POPC   C4B48514  37.739   8.859   7.583
 3583POPC   NC348515   3.419  18.871   5.491
 3583POPC   PO448516   3.706  19.523   5.404
 3583POPC   GL148517   3.633  19.280   5.795
 3583POPC   GL248518   3.276  19.196   5.867
 3583POPC   C1A48519   3.767  19.016   6.174
 3583POPC   D2A48520   3.958  19.031   6.621
 3583POPC   C3A48521   3.771  18.741   6.938
 3583POPC   C4A48522   3.404  18.643   7.199
 3583POPC   C1B48523   3.391  19.353   6.280
 3583POPC   C2B48524   3.455  19.149   6.711
 3583POPC   C3B48525   3.570  19.151   7.145
 3583POPC   C4B48526   3.440  19.336   7.551
 3584POPC   NC348527  31.624  24.973   5.299
 3584POPC   PO448528  31.392  25.629   5.348
 3584POPC   GL148529  31.670  25.406   5.661
 3584POPC   GL248530  31.461  25.132   5.779
 3584POPC   C1A48531  31.765  25.305   6.138
 3584POPC   D2A48532  31.488  25.115   6.463
 3584POPC   C3A48533  31.642  25.097   6.887
 3584POPC   C4A48534  31.510  25.368   7.195
 3584POPC   C1B48535  31.327  25.534   6.045
 3584POPC   C2B48536  31.397  25.632   6.500
 3584POPC   C3B48537  31.163  25.622   6.899
 3584POPC   C4B48538  30.995  25.776   7.312
 3585POPC   NC348539   8.514  26.946   5.402
 3585POPC   PO448540   9.039  26.576   5.345
 3585POPC   GL148541   8.929  26.647   5.789
 3585POPC   GL248542   9.039  26.996   5.835
 3585POPC   C1A48543   8.863  26.767   6.240
 3585POPC   D2A48544   9.017  26.608   6.600
 3585POPC   C3A48545   8.907  26.767   6.969
 3585POPC   C4A48546   9.010  26.559   7.315
 3585POPC   C1B48547   9.331  26.971   6.221
 3585POPC   C2B48548   9.519  26.707   6.553
 3585POPC   C3B48549   9.428  26.820   6.987
 3585POPC   C4B48550   9.184  27.049   7.308
 3586POPC   NC348551  32.332  41.120   5.137
 3586POPC   PO448552  32.278  40.603   5.607
 3586POPC   GL148553  32.125  40.734   5.931
 3586POPC   GL248554  32.376  40.941   6.045
 3586POPC   C1A48555  31.868  40.754   6.245
 3586POPC   D2A48556  31.818  41.016   6.581
 3586POPC   C3A48557  32.056  40.875   6.901
 3586POPC   C4A48558  31.856  40.882   7.281
 3586POPC   C1B48559  32.538  40.572   6.227
 3586POPC   C2B48560  32.701  40.477   6.628
 3586POPC   C3B48561  32.613  40.494   7.067
 3586POPC   C4B48562  32.349  40.747   7.299
 3587POPC   NC348563  33.861  40.989   5.308
 3587POPC   PO448564  33.400  40.624   5.558
 3587POPC   GL148565  33.605  40.790   5.892
 3587POPC   GL248566  33.969  40.797   5.876
 3587POPC   C1A48567  33.707  40.562   6.270
 3587POPC   D2A48568  33.847  40.647   6.666
 3587POPC   C3A48569  33.552  40.567   7.002
 3587POPC   C4A48570  33.558  40.827   7.384
 3587POPC   C1B48571  34.216  40.780   6.260
 3587POPC   C2B48572  34.211  41.007   6.672
 3587POPC   C3B48573  34.071  40.820   7.091
 3587POPC   C4B48574  33.985  40.334   7.138
 3588POPC   NC348575  21.557  10.210   5.414
 3588POPC   PO448576  21.148  10.648   5.364
 3588POPC   GL148577  21.316  10.574   5.808
 3588POPC   GL248578  21.656  10.506   5.845
 3588POPC   C1A48579  21.340  10.520   6.279
 3588POPC   D2A48580  21.177  10.764   6.671
 3588POPC   C3A48581  21.200  10.592   7.105
 3588POPC   C4A48582  21.474  10.243   7.200
 3588POPC   C1B48583  21.790  10.755   6.214
 3588POPC   C2B48584  21.700  10.906   6.623
 3588POPC   C3B48585  21.685  10.718   7.024
 3588POPC   C4B48586  21.941  10.486   7.315
 3589POPC   NC348587  39.426  42.304   5.564
 3589POPC   PO448588  39.002  41.994   5.154
 3589POPC   GL148589  38.939  42.144   5.640
 3589POPC   GL248590  39.149  41.909   5.832
 3589POPC   C1A48591  39.045  42.343   6.114
 3589POPC   D2A48592  39.352  42.419   6.496
 3589POPC   C3A48593  39.155  42.517   6.898
 3589POPC   C4A48594  38.984  42.339   7.258
 3589POPC   C1B48595  39.450  42.018   6.176
 3589POPC   C2B48596  39.458  41.898   6.594
 3589POPC   C3B48597  39.294  42.015   6.992
 3589POPC   C4B48598  39.585  42.070   7.330
 3590POPC   NC348599  18.283  12.710   5.630
 3590POPC   PO448600  18.634  13.160   5.337
 3590POPC   GL148601  18.443  13.189   5.793
 3590POPC   GL248602  18.090  13.091   5.908
 3590POPC   C1A48603  18.457  12.983   6.234
 3590POPC   D2A48604  18.445  13.147   6.664
 3590POPC   C3A48605  18.410  12.911   7.046
 3590POPC   C4A48606  18.684  12.828   7.409
 3590POPC   C1B48607  17.958  12.766   6.226
 3590POPC   C2B48608  17.909  12.419   6.525
 3590POPC   C3B48609  18.040  12.355   6.968
 3590POPC   C4B48610  18.204  12.562   7.351
 3591POPC   NC348611  12.665  33.908   5.379
 3591POPC   PO448612  13.219  33.509   5.363
 3591POPC   GL148613  13.078  33.785   5.710
 3591POPC   GL248614  12.764  33.638   5.799
 3591POPC   C1A48615  12.983  34.019   6.125
 3591POPC   D2A48616  13.134  33.846   6.533
 3591POPC   C3A48617  12.936  33.894   6.912
 3591POPC   C4A48618  13.126  33.958   7.281
 3591POPC   C1B48619  12.949  33.509   6.172
 3591POPC   C2B48620  12.763  33.495   6.585
 3591POPC   C3B48621  12.998  33.389   6.955
 3591POPC   C4B48622  12.848  33.462   7.341
 3592POPC   NC348623   0.413  24.983   5.433
 3592POPC   PO448624   0.721  25.492   5.682
 3592POPC   GL148625   0.570  25.182   5.893
 3592POPC   GL248626   0.750  24.860   5.793
 3592POPC   C1A48627   0.385  25.244   6.299
 3592POPC   D2A48628   0.293  25.112   6.732
 3592POPC   C3A48629   0.259  25.344   7.127
 3592POPC   C4A48630   0.094  25.603   7.469
 3592POPC   C1B48631   0.609  24.778   6.200
 3592POPC   C2B48632   0.744  24.895   6.589
 3592POPC   C3B48633   0.877  24.753   6.988
 3592POPC   C4B48634   0.595  24.900   7.295
 3593POPC   NC348635  42.042   4.676   5.395
 3593POPC   PO448636  42.573   4.303   5.383
 3593POPC   GL148637  42.391   4.238   5.809
 3593POPC   GL248638  42.029   4.249   5.763
 3593POPC   C1A48639  42.576   4.171   6.245
 3593POPC   D2A48640  42.636   4.444   6.618
 3593POPC   C3A48641  42.424   4.335   7.018
 3593POPC   C4A48642  42.538   4.319   7.476
 3593POPC   C1B48643  42.061   3.989   6.151
 3593POPC   C2B48644  42.181   4.058   6.586
 3593POPC   C3B48645  41.992   4.008   6.977
 3593POPC   C4B48646  42.065   4.112   7.380
 3594POPC   NC348647  26.206   7.841   5.034
 3594POPC   PO448648  26.078   7.304   5.491
 3594POPC   GL148649  25.939   7.417   5.872
 3594POPC   GL248650  25.722   7.680   5.784
 3594POPC   C1A48651  26.163   7.517   6.268
 3594POPC   D2A48652  26.012   7.399   6.650
 3594POPC   C3A48653  26.092   7.601   7.046
 3594POPC   C4A48654  26.035   7.325   7.408
 3594POPC   C1B48655  25.702   7.678   6.241
 3594POPC   C2B48656  25.510   7.469   6.621
 3594POPC   C3B48657  25.647   7.336   7.034
 3594POPC   C4B48658  25.608   7.565   7.422
 3595POPC   NC348659  17.111   1.592   5.296
 3595POPC   PO448660  17.635   1.171   5.439
 3595POPC   GL148661  17.515   1.268   5.855
 3595POPC   GL248662  17.448   0.918   5.878
 3595POPC   C1A48663  17.465   1.543   6.316
 3595POPC   D2A48664  17.357   1.586   6.809
 3595POPC   C3A48665  17.471   1.232   7.084
 3595POPC   C4A48666  17.731   0.847   6.917
 3595POPC   C1B48667  17.232   1.101   6.215
 3595POPC   C2B48668  17.291   1.127   6.618
 3595POPC   C3B48669  17.036   0.983   6.937
 3595POPC   C4B48670  17.005   1.098   7.369
 3596POPC   NC348671  39.798  41.376   5.542
 3596POPC   PO448672  40.343  41.796   5.499
 3596POPC   GL148673  40.103  41.626   5.861
 3596POPC   GL248674  40.170  41.278   5.891
 3596POPC   C1A48675  39.899  41.673   6.269
 3596POPC   D2A48676  39.962  41.734   6.702
 3596POPC   C3A48677  40.059  41.503   7.076
 3596POPC   C4A48678  39.979  41.753   7.424
 3596POPC   C1B48679  39.931  41.166   6.220
 3596POPC   C2B48680  40.035  41.204   6.646
 3596POPC   C3B48681  39.758  41.109   6.983
 3596POPC   C4B48682  39.683  41.284   7.400
 3597POPC   NC348683  10.140  21.666   5.526
 3597POPC   PO448684   9.560  21.401   5.421
 3597POPC   GL148685   9.722  21.496   5.808
 3597POPC   GL248686   9.424  21.654   5.887
 3597POPC   C1A48687   9.947  21.437   6.211
 3597POPC   D2A48688   9.775  21.488   6.616
 3597POPC   C3A48689   9.821  21.214   6.909
 3597POPC   C4A48690   9.871  21.361   7.319
 3597POPC   C1B48691   9.526  21.759   6.258
 3597POPC   C2B48692   9.321  21.725   6.653
 3597POPC   C3B48693   9.531  21.786   7.029
 3597POPC   C4B48694   9.508  21.696   7.450
 3598POPC   NC348695   3.101  34.548   5.263
 3598POPC   PO448696   3.718  34.487   5.492
 3598POPC   GL148697   3.542  34.655   5.804
 3598POPC   GL248698   3.190  34.608   5.796
 3598POPC   C1A48699   3.525  34.530   6.211
 3598POPC   D2A48700   3.445  34.366   6.574
 3598POPC   C3A48701   3.752  34.519   6.830
 3598POPC   C4A48702   3.562  34.537   7.197
 3598POPC   C1B48703   3.056  34.320   6.160
 3598POPC   C2B48704   2.962  34.133   6.566
 3598POPC   C3B48705   3.130  34.287   6.974
 3598POPC   C4B48706   3.225  34.195   7.398
 3599POPC   NC348707  12.855  27.951   5.392
 3599POPC   PO448708  13.121  28.662   5.189
 3599POPC   GL148709  13.063  28.421   5.630
 3599POPC   GL248710  12.731  28.282   5.782
 3599POPC   C1A48711  13.132  28.436   6.109
 3599POPC   D2A48712  13.191  28.435   6.593
 3599POPC   C3A48713  12.928  28.521   6.976
 3599POPC   C4A48714  12.662  28.260   7.266
 3599POPC   C1B48715  12.659  28.244   6.274
 3599POPC   C2B48716  12.493  28.347   6.728
 3599POPC   C3B48717  12.333  28.593   7.108
 3599POPC   C4B48718  12.328  28.530   7.589
 3600POPC   NC348719   8.999  31.433   5.411
 3600POPC   PO448720   8.603  30.932   5.432
 3600POPC   GL148721   8.693  31.214   5.824
 3600POPC   GL248722   8.826  31.610   5.852
 3600POPC   C1A48723   8.901  31.275   6.237
 3600POPC   D2A48724   8.897  31.488   6.627
 3600POPC   C3A48725   8.949  31.251   7.001
 3600POPC   C4A48726   8.786  31.404   7.366
 3600POPC   C1B48727   9.131  31.741   6.205
 3600POPC   C2B48728   9.270  31.832   6.665
 3600POPC   C3B48729   9.081  31.731   7.084
 3600POPC   C4B48730   9.134  31.724   7.558
 3601POPC   NC348731  36.403  32.666   5.525
 3601POPC   PO448732  36.899  33.007   5.235
 3601POPC   GL148733  36.851  33.059   5.712
 3601POPC   GL248734  36.485  33.126   5.783
 3601POPC   C1A48735  37.053  32.893   6.132
 3601POPC   D2A48736  36.975  32.700   6.529
 3601POPC   C3A48737  37.033  32.980   6.887
 3601POPC   C4A48738  36.982  32.867   7.264
 3601POPC   C1B48739  36.570  33.022   6.201
 3601POPC   C2B48740  36.587  33.017   6.647
 3601POPC   C3B48741  36.539  33.043   7.090
 3601POPC   C4B48742  36.609  33.442   7.234
 3602POPC   NC348743  38.313   9.410   5.422
 3602POPC   PO448744  38.895   9.595   5.668
 3602POPC   GL148745  38.544   9.510   5.899
 3602POPC   GL248746  38.273   9.768   5.810
 3602POPC   C1A48747  38.465   9.714   6.297
 3602POPC   D2A48748  38.566   9.578   6.686
 3602POPC   C3A48749  38.578   9.848   7.034
 3602POPC   C4A48750  38.439   9.699   7.463
 3602POPC   C1B48751  38.069   9.463   6.099
 3602POPC   C2B48752  38.056   9.416   6.560
 3602POPC   C3B48753  38.166   9.552   6.992
 3602POPC   C4B48754  37.942   9.699   7.355
 3603POPC   NC348755  34.868  18.786   5.525
 3603POPC   PO448756  34.274  19.091   5.499
 3603POPC   GL148757  34.447  19.225   5.875
 3603POPC   GL248758  34.798  19.102   5.928
 3603POPC   C1A48759  34.392  18.976   6.217
 3603POPC   D2A48760  34.647  18.892   6.540
 3603POPC   C3A48761  34.414  18.914   6.896
 3603POPC   C4A48762  34.443  19.039   7.285
 3603POPC   C1B48763  34.725  19.351   6.312
 3603POPC   C2B48764  34.722  19.320   6.784
 3603POPC   C3B48765  34.898  18.968   7.033
 3603POPC   C4B48766  34.988  19.248   7.369
 3604POPC   NC348767  23.061  14.108   5.594
 3604POPC   PO448768  22.623  13.586   5.464
 3604POPC   GL148769  22.911  13.686   5.851
 3604POPC   GL248770  23.247  13.526   5.892
 3604POPC   C1A48771  23.114  13.856   6.250
 3604POPC   D2A48772  22.968  13.707   6.649
 3604POPC   C3A48773  23.154  13.851   7.019
 3604POPC   C4A48774  22.890  13.879   7.398
 3604POPC   C1B48775  23.047  13.348   6.271
 3604POPC   C2B48776  22.974  13.167   6.675
 3604POPC   C3B48777  23.044  13.366   7.057
 3604POPC   C4B48778  23.399  13.497   7.304
 3605POPC   NC348779  11.494  35.658   5.412
 3605POPC   PO448780  10.957  35.313   5.290
 3605POPC   GL148781  11.166  35.334   5.711
 3605POPC   GL248782  11.278  35.644   5.885
 3605POPC   C1A48783  11.223  35.178   6.153
 3605POPC   D2A48784  11.448  35.187   6.556
 3605POPC   C3A48785  11.230  35.432   6.864
 3605POPC   C4A48786  11.140  35.406   7.292
 3605POPC   C1B48787  11.619  35.539   6.175
 3605POPC   C2B48788  11.662  35.676   6.607
 3605POPC   C3B48789  11.711  35.508   7.017
 3605POPC   C4B48790  11.644  35.596   7.452
 3606POPC   NC348791   2.928  41.493   5.225
 3606POPC   PO448792   3.623  41.516   5.360
 3606POPC   GL148793   3.495  41.464   5.789
 3606POPC   GL248794   3.185  41.627   5.837
 3606POPC   C1A48795   3.484  41.658   6.226
 3606POPC   D2A48796   3.327  41.504   6.609
 3606POPC   C3A48797   3.527  41.647   6.953
 3606POPC   C4A48798   3.549  41.402   7.311
 3606POPC   C1B48799   2.978  41.771   6.224
 3606POPC   C2B48800   2.880  41.787   6.661
 3606POPC   C3B48801   3.023  41.558   7.032
 3606POPC   C4B48802   3.168  41.720   7.421
 3607POPC   NC348803  22.119   1.314   5.393
 3607POPC   PO448804  22.569   0.757   5.385
 3607POPC   GL148805  22.347   1.043   5.767
 3607POPC   GL248806  22.382   1.427   5.850
 3607POPC   C1A48807  21.996   1.211   6.089
 3607POPC   D2A48808  21.878   1.380   6.517
 3607POPC   C3A48809  22.017   1.234   6.953
 3607POPC   C4A48810  22.058   1.332   7.403
 3607POPC   C1B48811  22.469   1.299   6.280
 3607POPC   C2B48812  22.452   1.114   6.695
 3607POPC   C3B48813  22.570   1.279   7.091
 3607POPC   C4B48814  22.813   1.137   7.457
 3608POPC   NC348815   6.177  22.686   5.183
 3608POPC   PO448816   5.762  22.136   5.362
 3608POPC   GL148817   5.745  22.138   5.817
 3608POPC   GL248818   5.891  22.433   5.965
 3608POPC   C1A48819   5.817  21.986   6.255
 3608POPC   D2A48820   6.054  21.952   6.644
 3608POPC   C3A48821   5.806  22.073   7.002
 3608POPC   C4A48822   5.650  22.184   7.399
 3608POPC   C1B48823   6.227  22.321   6.274
 3608POPC   C2B48824   6.376  22.364   6.702
 3608POPC   C3B48825   6.245  22.295   7.120
 3608POPC   C4B48826   6.048  22.476   7.484
 3609POPC   NC348827  10.926  34.859   5.354
 3609POPC   PO448828  11.394  34.399   5.105
 3609POPC   GL148829  11.330  34.380   5.652
 3609POPC   GL248830  11.004  34.313   5.897
 3609POPC   C1A48831  11.399  34.471   6.151
 3609POPC   D2A48832  11.312  34.495   6.622
 3609POPC   C3A48833  11.201  34.869   6.900
 3609POPC   C4A48834  10.990  34.888   7.285
 3609POPC   C1B48835  10.813  34.366   6.307
 3609POPC   C2B48836  10.780  34.326   6.759
 3609POPC   C3B48837  11.088  34.377   7.093
 3609POPC   C4B48838  11.035  34.224   7.502
 3610POPC   NC348839   1.377  43.661   5.369
 3610POPC   PO448840   0.900  44.064   4.978
 3610POPC   GL148841   0.912  43.941   5.527
 3610POPC   GL248842   0.864  43.699   5.797
 3610POPC   C1A48843   1.039  44.130   5.991
 3610POPC   D2A48844   0.944  43.996   6.461
 3610POPC   C3A48845   1.097  44.032   6.937
 3610POPC   C4A48846   0.899  43.972   7.382
 3610POPC   C1B48847   1.191  43.660   6.135
 3610POPC   C2B48848   1.375  43.752   6.566
 3610POPC   C3B48849   1.416  43.632   6.997
 3610POPC   C4B48850   1.652  43.364   7.215
 3611POPC   NC348851  27.047  20.042   5.573
 3611POPC   PO448852  27.230  19.418   5.411
 3611POPC   GL148853  26.911  19.519   5.745
 3611POPC   GL248854  26.597  19.771   5.712
 3611POPC   C1A48855  26.730  19.490   6.169
 3611POPC   D2A48856  26.504  19.680   6.516
 3611POPC   C3A48857  26.707  19.635   6.930
 3611POPC   C4A48858  26.932  19.826   7.309
 3611POPC   C1B48859  26.668  19.998   6.118
 3611POPC   C2B48860  26.960  19.920   6.437
 3611POPC   C3B48861  26.968  20.049   6.860
 3611POPC   C4B48862  26.532  20.070   7.133
 3612POPC   NC348863  37.816  43.287   5.534
 3612POPC   PO448864  37.390  42.809   5.386
 3612POPC   GL148865  37.377  43.091   5.786
 3612POPC   GL248866  37.705  43.029   5.976
 3612POPC   C1A48867  37.480  43.451   6.110
 3612POPC   D2A48868  37.615  43.471   6.545
 3612POPC   C3A48869  37.499  43.562   6.981
 3612POPC   C4A48870  37.543  43.244   7.296
 3612POPC   C1B48871  37.468  43.005   6.393
 3612POPC   C2B48872  37.607  43.012   6.842
 3612POPC   C3B48873  37.947  42.923   7.194
 3612POPC   C4B48874  37.916  42.783   7.647
 3613POPC   NC348875  26.244  22.359   5.532
 3613POPC   PO448876  25.677  22.439   5.154
 3613POPC   GL148877  25.737  22.235   5.663
 3613POPC   GL248878  25.984  22.377   5.968
 3613POPC   C1A48879  25.806  21.931   6.079
 3613POPC   D2A48880  26.036  22.007   6.507
 3613POPC   C3A48881  26.340  21.884   6.883
 3613POPC   C4A48882  26.261  21.938   7.339
 3613POPC   C1B48883  26.384  22.281   6.203
 3613POPC   C2B48884  26.400  22.338   6.646
 3613POPC   C3B48885  26.304  22.378   7.065
 3613POPC   C4B48886  26.614  22.299   7.356
 3614POPC   NC348887  32.019  37.465   5.256
 3614POPC   PO448888  32.454  37.907   5.376
 3614POPC   GL148889  32.311  37.673   5.749
 3614POPC   GL248890  32.046  37.401   5.765
 3614POPC   C1A48891  32.390  37.758   6.179
 3614POPC   D2A48892  32.472  37.589   6.564
 3614POPC   C3A48893  32.295  37.797   6.893
 3614POPC   C4A48894  32.224  38.026   7.236
 3614POPC   C1B48895  31.867  37.386   6.164
 3614POPC   C2B48896  31.871  37.154   6.520
 3614POPC   C3B48897  31.798  37.358   6.865
 3614POPC   C4B48898  31.934  37.570   7.186
 3615POPC   NC348899  13.903  44.650   5.538
 3615POPC   PO448900  14.494  44.673   5.261
 3615POPC   GL148901  14.494  44.672   5.715
 3615POPC   GL248902  14.580  44.329   5.681
 3615POPC   C1A48903  14.465  44.791   6.186
 3615POPC   D2A48904  14.243  44.904   6.600
 3615POPC   C3A48905  14.348  44.923   7.059
 3615POPC   C4A48906  14.614  44.832   7.427
 3615POPC   C1B48907  14.289  44.322   6.056
 3615POPC   C2B48908  14.223  44.396   6.474
 3615POPC   C3B48909  14.477  44.486   6.833
 3615POPC   C4B48910  14.378  44.373   7.244
 3616POPC   NC348911  23.117  39.473   5.591
 3616POPC   PO448912  22.949  38.926   5.191
 3616POPC   GL148913  22.703  39.106   5.668
 3616POPC   GL248914  22.798  39.365   5.946
 3616POPC   C1A48915  22.618  38.977   6.159
 3616POPC   D2A48916  22.797  39.168   6.530
 3616POPC   C3A48917  22.916  38.946   6.899
 3616POPC   C4A48918  23.046  39.103   7.288
 3616POPC   C1B48919  23.164  39.428   6.246
 3616POPC   C2B48920  23.158  39.668   6.631
 3616POPC   C3B48921  23.026  39.540   7.013
 3616POPC   C4B48922  23.195  39.584   7.434
 3617POPC   NC348923  44.468  25.276   5.293
 3617POPC   PO448924   0.029  25.243   5.513
 3617POPC   GL148925  44.843  25.193   5.910
 3617POPC   GL248926  44.527  25.359   5.894
 3617POPC   C1A48927  44.865  25.304   6.378
 3617POPC   D2A48928  44.772  25.158   6.817
 3617POPC   C3A48929  44.473  25.332   7.123
 3617POPC   C4A48930  44.580  25.589   7.498
 3617POPC   C1B48931  44.451  25.029   6.241
 3617POPC   C2B48932  44.394  24.823   6.678
 3617POPC   C3B48933  44.577  24.770   7.101
 3617POPC   C4B48934  44.574  24.680   7.551
 3618POPC   NC348935   3.098  12.165   5.133
 3618POPC   PO448936   2.526  11.940   5.246
 3618POPC   GL148937   2.691  12.106   5.630
 3618POPC   GL248938   2.995  11.912   5.743
 3618POPC   C1A48939   2.691  12.121   6.101
 3618POPC   D2A48940   2.698  12.332   6.525
 3618POPC   C3A48941   2.623  12.121   6.927
 3618POPC   C4A48942   2.552  12.224   7.365
 3618POPC   C1B48943   2.980  11.670   6.153
 3618POPC   C2B48944   2.944  11.813   6.594
 3618POPC   C3B48945   2.988  11.717   7.040
 3618POPC   C4B48946   3.036  12.063   7.295
 3619POPC   NC348947   7.726  25.411   5.523
 3619POPC   PO448948   7.088  25.185   5.422
 3619POPC   GL148949   7.323  25.234   5.816
 3619POPC   GL248950   7.618  25.001   5.836
 3619POPC   C1A48951   7.543  25.380   6.203
 3619POPC   D2A48952   7.661  25.154   6.587
 3619POPC   C3A48953   7.450  25.240   6.967
 3619POPC   C4A48954   7.454  25.589   7.247
 3619POPC   C1B48955   7.397  24.877   6.191
 3619POPC   C2B48956   7.466  24.642   6.554
 3619POPC   C3B48957   7.721  24.712   6.892
 3619POPC   C4B48958   7.717  24.895   7.262
 3620POPC   NC348959   2.338  13.707   5.504
 3620POPC   PO448960   1.684  13.692   5.377
 3620POPC   GL148961   1.875  13.608   5.762
 3620POPC   GL248962   1.583  13.375   5.803
 3620POPC   C1A48963   2.164  13.757   6.146
 3620POPC   D2A48964   2.385  13.706   6.560
 3620POPC   C3A48965   2.227  13.860   6.937
 3620POPC   C4A48966   2.066  13.684   7.310
 3620POPC   C1B48967   1.819  13.364   6.195
 3620POPC   C2B48968   1.756  13.221   6.589
 3620POPC   C3B48969   1.919  13.370   6.945
 3620POPC   C4B48970   2.210  13.183   7.194
 3621POPC   NC348971   2.175   9.050   5.464
 3621POPC   PO448972   1.584   9.191   5.401
 3621POPC   GL148973   1.755   8.840   5.704
 3621POPC   GL248974   2.102   8.746   5.853
 3621POPC   C1A48975   1.755   8.991   6.138
 3621POPC   D2A48976   1.611   8.887   6.543
 3621POPC   C3A48977   1.859   9.038   6.853
 3621POPC   C4A48978   2.045   8.827   7.167
 3621POPC   C1B48979   2.291   8.991   6.196
 3621POPC   C2B48980   2.205   9.245   6.558
 3621POPC   C3B48981   2.325   9.239   7.038
 3621POPC   C4B48982   2.328   9.073   7.502
 3622POPC   NC348983  13.604   5.260   5.234
 3622POPC   PO448984  13.970   5.343   5.469
 3622POPC   GL148985  13.788   5.001   5.704
 3622POPC   GL248986  13.434   5.014   5.695
 3622POPC   C1A48987  13.670   4.771   6.103
 3622POPC   D2A48988  13.499   4.924   6.522
 3622POPC   C3A48989  13.535   4.840   6.972
 3622POPC   C4A48990  13.756   5.044   7.314
 3622POPC   C1B48991  13.453   5.246   6.113
 3622POPC   C2B48992  13.380   5.428   6.559
 3622POPC   C3B48993  13.484   5.364   6.999
 3622POPC   C4B48994  13.239   5.131   7.295
 3623POPC   NC348995  38.426  36.059   5.308
 3623POPC   PO448996  38.076  36.590   5.558
 3623POPC   GL148997  38.212  36.207   5.805
 3623POPC   GL248998  38.579  36.124   5.797
 3623POPC   C1A48999  38.296  35.989   6.242
 3623POPC   D2A49000  38.556  35.827   6.648
 3623POPC   C3A49001  38.504  35.922   7.132
 3623POPC   C4A49002  38.354  35.857   7.582
 3623POPC   C1B49003  38.616  36.384   6.190
 3623POPC   C2B49004  38.692  36.315   6.647
 3623POPC   C3B49005  38.849  36.324   7.088
 3623POPC   C4B49006  38.669  36.255   7.514
 3624POPC   NC349007  34.315  36.186   5.417
 3624POPC   PO449008  34.986  36.069   5.421
 3624POPC   GL149009  34.741  36.283   5.774
 3624POPC   GL249010  34.350  36.330   5.892
 3624POPC   C1A49011  34.686  36.102   6.198
 3624POPC   D2A49012  34.825  35.972   6.594
 3624POPC   C3A49013  34.647  36.201   6.909
 3624POPC   C4A49014  34.507  36.050   7.278
 3624POPC   C1B49015  34.143  36.148   6.248
 3624POPC   C2B49016  34.046  36.029   6.676
 3624POPC   C3B49017  34.107  36.305   7.032
 3624POPC   C4B49018  34.398  36.562   7.210
 3625POPC   NC349019  41.668   6.503   5.206
 3625POPC   PO449020  41.268   7.045   5.355
 3625POPC   GL149021  41.424   6.872   5.776
 3625POPC   GL249022  41.748   6.675   5.697
 3625POPC   C1A49023  41.256   6.667   6.196
 3625POPC   D2A49024  41.438   6.499   6.605
 3625POPC   C3A49025  41.264   6.647   6.990
 3625POPC   C4A49026  41.135   6.501   7.373
 3625POPC   C1B49027  41.765   6.656   6.147
 3625POPC   C2B49028  41.940   6.634   6.549
 3625POPC   C3B49029  41.761   6.737   6.934
 3625POPC   C4B49030  41.690   6.500   7.288
 3626POPC   NC349031   0.777  35.855   5.562
 3626POPC   PO449032   0.749  36.414   5.763
 3626POPC   GL149033   0.662  36.066   6.007
 3626POPC   GL249034   0.373  35.892   5.887
 3626POPC   C1A49035   0.590  36.019   6.415
 3626POPC   D2A49036   0.473  36.229   6.782
 3626POPC   C3A49037   0.380  36.104   7.211
 3626POPC   C4A49038   0.512  36.470   7.488
 3626POPC   C1B49039   0.203  35.711   6.277
 3626POPC   C2B49040   0.329  35.720   6.722
 3626POPC   C3B49041   0.137  35.627   7.092
 3626POPC   C4B49042  44.971  35.797   7.448
 3627POPC   NC349043  32.140   8.096   5.343
 3627POPC   PO449044  31.893   8.505   5.373
 3627POPC   GL149045  32.093   8.335   5.830
 3627POPC   GL249046  32.137   7.972   5.910
 3627POPC   C1A49047  32.348   8.331   6.282
 3627POPC   D2A49048  32.539   8.569   6.690
 3627POPC   C3A49049  32.534   8.384   7.121
 3627POPC   C4A49050  32.256   8.119   7.263
 3627POPC   C1B49051  31.948   8.014   6.342
 3627POPC   C2B49052  32.086   7.922   6.785
 3627POPC   C3B49053  32.047   7.667   7.181
 3627POPC   C4B49054  32.334   7.685   7.560
 3628POPC   NC349055  33.951  16.110   5.042
 3628POPC   PO449056  33.657  15.549   5.317
 3628POPC   GL149057  33.774  15.794   5.657
 3628POPC   GL249058  33.806  16.158   5.555
 3628POPC   C1A49059  33.698  15.685   6.098
 3628POPC   D2A49060  33.814  15.902   6.481
 3628POPC   C3A49061  33.934  15.738   6.892
 3628POPC   C4A49062  33.923  16.009   7.243
 3628POPC   C1B49063  33.932  16.165   6.000
 3628POPC   C2B49064  34.014  16.365   6.397
 3628POPC   C3B49065  33.964  16.334   6.840
 3628POPC   C4B49066  34.041  16.488   7.266
 3629POPC   NC349067  18.813  10.212   5.438
 3629POPC   PO449068  19.373  10.750   5.405
 3629POPC   GL149069  19.081  10.624   5.722
 3629POPC   GL249070  19.101  10.907   5.957
 3629POPC   C1A49071  18.956  10.419   6.107
 3629POPC   D2A49072  19.098  10.527   6.513
 3629POPC   C3A49073  18.925  10.354   6.884
 3629POPC   C4A49074  19.281  10.354   7.153
 3629POPC   C1B49075  18.764  10.913   6.270
 3629POPC   C2B49076  18.786  10.860   6.727
 3629POPC   C3B49077  19.036  10.808   7.046
 3629POPC   C4B49078  18.735  10.761   7.303
 3630POPC   NC349079  22.437  10.684   5.447
 3630POPC   PO449080  22.014  10.134   5.410
 3630POPC   GL149081  22.163  10.379   5.782
 3630POPC   GL249082  22.105  10.750   5.809
 3630POPC   C1A49083  22.210  10.427   6.234
 3630POPC   D2A49084  22.093  10.560   6.649
 3630POPC   C3A49085  22.420  10.466   6.925
 3630POPC   C4A49086  22.467  10.206   7.270
 3630POPC   C1B49087  22.254  10.947   6.162
 3630POPC   C2B49088  22.201  11.063   6.588
 3630POPC   C3B49089  22.151  10.942   7.041
 3630POPC   C4B49090  22.381  10.735   7.369
 3631POPC   NC349091  32.803  33.501   5.588
 3631POPC   PO449092  33.239  33.957   5.598
 3631POPC   GL149093  32.941  33.941   5.932
 3631POPC   GL249094  32.868  33.642   6.065
 3631POPC   C1A49095  32.749  34.067   6.316
 3631POPC   D2A49096  32.683  33.777   6.663
 3631POPC   C3A49097  32.610  34.016   7.023
 3631POPC   C4A49098  32.877  34.064   7.375
 3631POPC   C1B49099  33.280  33.579   6.240
 3631POPC   C2B49100  33.320  33.521   6.693
 3631POPC   C3B49101  33.199  33.625   7.108
 3631POPC   C4B49102  32.789  33.561   7.265
 3632POPC   NC349103  15.024  34.036   5.313
 3632POPC   PO449104  15.477  33.541   5.182
 3632POPC   GL149105  15.378  33.722   5.615
 3632POPC   GL249106  15.663  33.611   5.820
 3632POPC   C1A49107  15.247  33.873   6.066
 3632POPC   D2A49108  14.962  34.061   6.424
 3632POPC   C3A49109  15.076  33.981   6.869
 3632POPC   C4A49110  14.949  34.115   7.293
 3632POPC   C1B49111  15.492  33.416   6.177
 3632POPC   C2B49112  15.280  33.594   6.537
 3632POPC   C3B49113  15.449  33.627   6.939
 3632POPC   C4B49114  15.455  33.949   7.261
 3633POPC   NC349115   9.431  33.255   5.551
 3633POPC   PO449116   8.984  32.865   5.221
 3633POPC   GL149117   8.859  32.916   5.722
 3633POPC   GL249118   8.719  32.593   5.927
 3633POPC   C1A49119   8.998  33.192   6.091
 3633POPC   D2A49120   9.275  33.171   6.472
 3633POPC   C3A49121   9.103  33.168   6.896
 3633POPC   C4A49122   9.265  33.090   7.321
 3633POPC   C1B49123   8.614  32.879   6.199
 3633POPC   C2B49124   8.686  33.139   6.525
 3633POPC   C3B49125   8.620  33.001   6.921
 3633POPC   C4B49126   8.741  33.087   7.318
 3634POPC   NC349127   7.933  41.799   5.433
 3634POPC   PO449128   8.582  41.873   5.498
 3634POPC   GL149129   8.334  41.651   5.833
 3634POPC   GL249130   7.975  41.646   5.910
 3634POPC   C1A49131   8.363  41.626   6.282
 3634POPC   D2A49132   8.324  41.884   6.641
 3634POPC   C3A49133   8.295  41.644   7.020
 3634POPC   C4A49134   8.019  41.773   7.339
 3634POPC   C1B49135   8.000  41.273   6.192
 3634POPC   C2B49136   8.021  41.140   6.617
 3634POPC   C3B49137   7.747  41.126   6.955
 3634POPC   C4B49138   7.884  41.097   7.374
 3635POPC   NC349139  39.257  19.158   5.514
 3635POPC   PO449140  39.482  18.653   5.693
 3635POPC   GL149141  39.190  18.903   5.952
 3635POPC   GL249142  38.926  18.711   6.072
 3635POPC   C1A49143  39.164  19.328   6.153
 3635POPC   D2A49144  39.280  19.437   6.562
 3635POPC   C3A49145  39.096  19.163   6.866
 3635POPC   C4A49146  39.074  19.281   7.293
 3635POPC   C1B49147  38.776  19.049   6.315
 3635POPC   C2B49148  38.760  19.405   6.549
 3635POPC   C3B49149  38.670  19.430   6.979
 3635POPC   C4B49150  38.654  19.026   7.173
 3636POPC   NC349151  30.745  31.092   5.563
 3636POPC   PO449152  30.682  30.592   5.084
 3636POPC   GL149153  30.726  30.461   5.547
 3636POPC   GL249154  31.007  30.616   5.724
 3636POPC   C1A49155  30.648  30.468   6.048
 3636POPC   D2A49156  30.642  30.749   6.470
 3636POPC   C3A49157  30.507  30.651   6.919
 3636POPC   C4A49158  30.611  30.766   7.362
 3636POPC   C1B49159  31.043  30.806   6.152
 3636POPC   C2B49160  31.058  31.066   6.537
 3636POPC   C3B49161  30.905  30.990   6.936
 3636POPC   C4B49162  31.010  30.588   7.096
 3637POPC   NC349163   2.758  40.367   5.345
 3637POPC   PO449164   2.760  39.728   5.270
 3637POPC   GL149165   2.888  39.784   5.704
 3637POPC   GL249166   2.651  40.093   5.760
 3637POPC   C1A49167   3.129  39.782   6.132
 3637POPC   D2A49168   2.953  39.928   6.575
 3637POPC   C3A49169   3.178  39.862   6.986
 3637POPC   C4A49170   3.084  40.013   7.434
 3637POPC   C1B49171   2.644  39.889   6.154
 3637POPC   C2B49172   2.440  39.685   6.487
 3637POPC   C3B49173   2.564  39.615   6.907
 3637POPC   C4B49174   2.833  39.607   7.276
 3638POPC   NC349175  35.416  15.016   5.060
 3638POPC   PO449176  35.664  15.551   5.453
 3638POPC   GL149177  35.587  15.221   5.843
 3638POPC   GL249178  35.238  14.961   5.830
 3638POPC   C1A49179  35.549  15.003   6.190
 3638POPC   D2A49180  35.297  14.992   6.538
 3638POPC   C3A49181  35.494  15.156   6.889
 3638POPC   C4A49182  35.610  14.996   7.277
 3638POPC   C1B49183  35.108  15.287   6.157
 3638POPC   C2B49184  34.956  15.383   6.583
 3638POPC   C3B49185  35.077  15.407   7.016
 3638POPC   C4B49186  35.145  15.192   7.379
 3639POPC   NC349187  18.502  33.566   5.448
 3639POPC   PO449188  17.887  33.965   5.372
 3639POPC   GL149189  18.102  33.979   5.755
 3639POPC   GL249190  18.274  33.682   5.877
 3639POPC   C1A49191  18.123  34.021   6.210
 3639POPC   D2A49192  18.075  33.770   6.562
 3639POPC   C3A49193  18.003  33.910   6.973
 3639POPC   C4A49194  18.382  33.877   7.186
 3639POPC   C1B49195  18.313  33.391   6.211
 3639POPC   C2B49196  18.157  33.260   6.614
 3639POPC   C3B49197  18.232  33.402   7.021
 3639POPC   C4B49198  18.531  33.427   7.388
 3640POPC   NC349199  33.251  17.491   5.514
 3640POPC   PO449200  32.625  17.840   5.486
 3640POPC   GL149201  32.810  17.482   5.746
 3640POPC   GL249202  32.597  17.254   5.926
 3640POPC   C1A49203  33.071  17.379   6.132
 3640POPC   D2A49204  32.858  17.334   6.526
 3640POPC   C3A49205  33.088  17.378   6.908
 3640POPC   C4A49206  33.014  17.436   7.352
 3640POPC   C1B49207  32.646  17.670   6.182
 3640POPC   C2B49208  32.628  17.778   6.650
 3640POPC   C3B49209  32.604  17.641   7.111
 3640POPC   C4B49210  32.654  17.719   7.595
 3641POPC   NC349211   2.484  27.117   5.323
 3641POPC   PO449212   3.097  26.961   5.292
 3641POPC   GL149213   2.779  26.846   5.657
 3641POPC   GL249214   2.516  26.569   5.674
 3641POPC   C1A49215   2.768  26.809   6.128
 3641POPC   D2A49216   2.892  27.036   6.520
 3641POPC   C3A49217   2.774  26.862   6.918
 3641POPC   C4A49218   2.482  27.096   7.139
 3641POPC   C1B49219   2.342  26.481   6.109
 3641POPC   C2B49220   2.364  26.431   6.571
 3641POPC   C3B49221   2.477  26.400   7.013
 3641POPC   C4B49222   2.509  26.645   7.386
 3642POPC   NC349223  42.155  44.101   5.543
 3642POPC   PO449224  42.555  43.670   5.226
 3642POPC   GL149225  42.550  43.853   5.710
 3642POPC   GL249226  42.291  43.676   5.832
 3642POPC   C1A49227  42.395  44.075   6.160
 3642POPC   D2A49228  42.527  44.250   6.613
 3642POPC   C3A49229  42.340  44.122   7.003
 3642POPC   C4A49230  42.338  43.921   7.411
 3642POPC   C1B49231  42.461  43.598   6.255
 3642POPC   C2B49232  42.638  43.751   6.615
 3642POPC   C3B49233  42.487  43.643   6.996
 3642POPC   C4B49234  42.224  43.430   7.299
 3643POPC   NC349235  27.324  33.100   5.383
 3643POPC   PO449236  27.858  32.859   5.725
 3643POPC   GL149237  27.602  33.125   5.994
 3643POPC   GL249238  27.245  33.163   5.922
 3643POPC   C1A49239  27.602  33.195   6.426
 3643POPC   D2A49240  27.394  33.182   6.809
 3643POPC   C3A49241  27.675  33.125   7.128
 3643POPC   C4A49242  27.976  33.239   7.468
 3643POPC   C1B49243  27.144  33.013   6.360
 3643POPC   C2B49244  27.194  32.727   6.715
 3643POPC   C3B49245  27.221  32.845   7.174
 3643POPC   C4B49246  27.083  32.976   7.611
 3644POPC   NC349247  26.659  10.846   5.365
 3644POPC   PO449248  27.043  11.489   5.283
 3644POPC   GL149249  26.899  11.351   5.721
 3644POPC   GL249250  27.010  10.994   5.728
 3644POPC   C1A49251  26.808  11.496   6.200
 3644POPC   D2A49252  26.628  11.396   6.634
 3644POPC   C3A49253  26.623  11.570   7.052
 3644POPC   C4A49254  27.019  11.680   7.277
 3644POPC   C1B49255  26.857  10.983   6.156
 3644POPC   C2B49256  27.056  11.114   6.520
 3644POPC   C3B49257  27.057  11.285   6.924
 3644POPC   C4B49258  27.138  11.072   7.294
 3645POPC   NC349259   7.592  19.167   5.327
 3645POPC   PO449260   7.004  19.421   5.563
 3645POPC   GL149261   7.284  19.105   5.772
 3645POPC   GL249262   7.639  19.046   5.803
 3645POPC   C1A49263   7.238  18.896   6.157
 3645POPC   D2A49264   7.192  19.091   6.544
 3645POPC   C3A49265   7.295  18.884   6.887
 3645POPC   C4A49266   7.491  19.091   7.200
 3645POPC   C1B49267   7.713  19.056   6.215
 3645POPC   C2B49268   7.650  18.763   6.512
 3645POPC   C3B49269   7.823  18.875   6.901
 3645POPC   C4B49270   7.893  18.784   7.331
 3646POPC   NC349271  32.024  44.453   5.523
 3646POPC   PO449272  32.462   0.020   5.494
 3646POPC   GL149273  32.236  44.824   5.860
 3646POPC   GL249274  32.263  44.438   5.966
 3646POPC   C1A49275  32.450  44.790   6.270
 3646POPC   D2A49276  32.339  44.604   6.667
 3646POPC   C3A49277  32.541  44.741   7.034
 3646POPC   C4A49278  32.410  44.935   7.356
 3646POPC   C1B49279  31.921  44.547   6.271
 3646POPC   C2B49280  31.836  44.666   6.711
 3646POPC   C3B49281  32.014  44.699   7.108
 3646POPC   C4B49282  32.103  44.569   7.533
 3647POPC   NC349283  26.446   4.793   5.502
 3647POPC   PO449284  25.809   4.607   5.467
 3647POPC   GL149285  25.869   4.966   5.790
 3647POPC   GL249286  26.194   4.952   5.955
 3647POPC   C1A49287  25.795   5.072   6.244
 3647POPC   D2A49288  25.847   5.355   6.597
 3647POPC   C3A49289  25.843   5.196   7.025
 3647POPC   C4A49290  25.659   4.792   7.108
 3647POPC   C1B49291  26.287   5.197   6.362
 3647POPC   C2B49292  26.301   5.379   6.812
 3647POPC   C3B49293  26.571   5.305   7.181
 3647POPC   C4B49294  26.513   5.351   7.672
 3648POPC   NC349295  11.125  15.170   5.402
 3648POPC   PO449296  11.678  15.212   5.200
 3648POPC   GL149297  11.477  15.214   5.738
 3648POPC   GL249298  11.129  14.990   5.860
 3648POPC   C1A49299  11.356  15.283   6.187
 3648POPC   D2A49300  11.234  15.432   6.593
 3648POPC   C3A49301  11.278  15.212   6.960
 3648POPC   C4A49302  11.445  15.084   7.341
 3648POPC   C1B49303  10.897  15.036   6.231
 3648POPC   C2B49304  11.027  14.948   6.612
 3648POPC   C3B49305  11.215  14.717   6.941
 3648POPC   C4B49306  11.011  14.826   7.315
 3649POPC   NC349307   2.496  24.941   5.592
 3649POPC   PO449308   2.974  24.467   5.435
 3649POPC   GL149309   2.843  24.336   5.852
 3649POPC   GL249310   2.491  24.447   5.863
 3649POPC   C1A49311   2.696  24.296   6.304
 3649POPC   D2A49312   2.612  24.514   6.671
 3649POPC   C3A49313   2.867  24.678   6.957
 3649POPC   C4A49314   2.680  24.537   7.332
 3649POPC   C1B49315   2.514  24.774   6.220
 3649POPC   C2B49316   2.309  24.910   6.620
 3649POPC   C3B49317   2.443  24.941   7.068
 3649POPC   C4B49318   2.374  24.877   7.538
 3650POPC   NC349319  24.131  23.497   5.346
 3650POPC   PO449320  23.499  23.731   5.408
 3650POPC   GL149321  23.772  23.629   5.767
 3650POPC   GL249322  23.484  23.450   5.902
 3650POPC   C1A49323  24.056  23.694   6.148
 3650POPC   D2A49324  24.200  23.980   6.468
 3650POPC   C3A49325  24.048  23.769   6.819
 3650POPC   C4A49326  24.056  23.754   7.238
 3650POPC   C1B49327  23.551  23.778   6.220
 3650POPC   C2B49328  23.343  23.857   6.608
 3650POPC   C3B49329  23.569  23.855   6.954
 3650POPC   C4B49330  23.536  23.583   7.270
 3651POPC   NC349331  35.678  34.976   5.415
 3651POPC   PO449332  35.122  34.647   5.444
 3651POPC   GL149333  35.384  34.536   5.780
 3651POPC   GL249334  35.213  34.279   5.979
 3651POPC   C1A49335  35.547  34.691   6.156
 3651POPC   D2A49336  35.594  34.438   6.507
 3651POPC   C3A49337  35.496  34.635   6.881
 3651POPC   C4A49338  35.374  34.634   7.291
 3651POPC   C1B49339  35.199  34.102   6.414
 3651POPC   C2B49340  35.196  34.220   6.837
 3651POPC   C3B49341  35.002  34.313   7.206
 3651POPC   C4B49342  35.137  34.168   7.634
 3652POPC   NC349343  42.396  43.152   5.332
 3652POPC   PO449344  41.955  43.627   5.404
 3652POPC   GL149345  41.963  43.292   5.766
 3652POPC   GL249346  41.972  42.902   5.743
 3652POPC   C1A49347  42.161  43.206   6.191
 3652POPC   D2A49348  42.255  43.315   6.649
 3652POPC   C3A49349  42.468  43.091   6.993
 3652POPC   C4A49350  42.378  42.976   7.445
 3652POPC   C1B49351  42.133  42.712   6.175
 3652POPC   C2B49352  42.267  42.731   6.652
 3652POPC   C3B49353  42.044  42.821   7.078
 3652POPC   C4B49354  41.934  42.763   7.537
 3653POPC   NC349355   3.573  13.018   5.347
 3653POPC   PO449356   3.386  13.705   5.378
 3653POPC   GL149357   3.537  13.706   5.773
 3653POPC   GL249358   3.607  14.042   5.846
 3653POPC   C1A49359   3.620  13.381   6.073
 3653POPC   D2A49360   3.659  13.310   6.513
 3653POPC   C3A49361   3.382  13.521   6.803
 3653POPC   C4A49362   3.431  13.365   7.239
 3653POPC   C1B49363   3.699  13.896   6.255
 3653POPC   C2B49364   3.763  13.911   6.696
 3653POPC   C3B49365   3.670  13.826   7.108
 3653POPC   C4B49366   3.239  13.830   7.305
 3654POPC   NC349367   0.918  16.328   5.507
 3654POPC   PO449368   1.599  16.310   5.535
 3654POPC   GL149369   1.380  16.053   5.818
 3654POPC   GL249370   1.174  16.306   5.958
 3654POPC   C1A49371   1.291  15.891   6.260
 3654POPC   D2A49372   1.278  16.155   6.657
 3654POPC   C3A49373   1.182  15.901   7.029
 3654POPC   C4A49374   1.077  15.473   7.137
 3654POPC   C1B49375   1.580  16.298   6.237
 3654POPC   C2B49376   1.737  15.950   6.558
 3654POPC   C3B49377   1.687  16.033   7.014
 3654POPC   C4B49378   1.393  16.370   7.114
 3655POPC   NC349379  20.805   3.618   5.343
 3655POPC   PO449380  21.449   3.421   5.191
 3655POPC   GL149381  21.363   3.642   5.652
 3655POPC   GL249382  21.312   3.374   5.870
 3655POPC   C1A49383  21.472   3.757   6.164
 3655POPC   D2A49384  21.346   3.749   6.638
 3655POPC   C3A49385  21.605   3.684   7.022
 3655POPC   C4A49386  21.836   3.960   7.333
 3655POPC   C1B49387  21.096   3.400   6.279
 3655POPC   C2B49388  21.152   3.255   6.690
 3655POPC   C3B49389  21.147   3.426   7.072
 3655POPC   C4B49390  20.908   3.251   7.365
 3656POPC   NC349391   2.514  11.220   5.030
 3656POPC   PO449392   2.188  11.583   5.505
 3656POPC   GL149393   1.916  11.680   5.757
 3656POPC   GL249394   1.849  11.325   5.899
 3656POPC   C1A49395   2.095  11.731   6.143
 3656POPC   D2A49396   2.008  11.493   6.478
 3656POPC   C3A49397   1.987  11.682   6.848
 3656POPC   C4A49398   1.915  11.469   7.225
 3656POPC   C1B49399   1.742  11.094   6.294
 3656POPC   C2B49400   1.818  11.114   6.760
 3656POPC   C3B49401   1.627  11.063   7.162
 3656POPC   C4B49402   1.729  11.151   7.590
 3657POPC   NC349403  10.472  24.050   5.609
 3657POPC   PO449404  10.951  23.638   5.301
 3657POPC   GL149405  10.937  23.608   5.827
 3657POPC   GL249406  10.612  23.579   5.959
 3657POPC   C1A49407  10.969  23.677   6.320
 3657POPC   D2A49408  10.872  24.026   6.636
 3657POPC   C3A49409  10.656  23.929   7.024
 3657POPC   C4A49410  10.666  23.602   7.331
 3657POPC   C1B49411  10.469  23.876   6.271
 3657POPC   C2B49412  10.302  23.810   6.659
 3657POPC   C3B49413  10.259  23.545   6.999
 3657POPC   C4B49414  10.057  23.159   7.076
 3658POPC   NC349415  28.638   8.163   5.322
 3658POPC   PO449416  28.002   8.361   5.389
 3658POPC   GL149417  28.196   8.209   5.774
 3658POPC   GL249418  28.524   8.070   5.818
 3658POPC   C1A49419  28.183   8.136   6.231
 3658POPC   D2A49420  28.432   8.002   6.581
 3658POPC   C3A49421  28.306   8.090   7.000
 3658POPC   C4A49422  28.337   8.341   7.401
 3658POPC   C1B49423  28.768   7.908   6.166
 3658POPC   C2B49424  28.903   7.814   6.615
 3658POPC   C3B49425  28.762   7.851   7.070
 3658POPC   C4B49426  28.792   7.923   7.552
 3659POPC   NC349427   5.425  20.771   5.585
 3659POPC   PO449428   5.853  20.243   5.606
 3659POPC   GL149429   6.092  20.429   5.914
 3659POPC   GL249430   6.159  20.770   5.800
 3659POPC   C1A49431   5.939  20.587   6.263
 3659POPC   D2A49432   5.709  20.752   6.598
 3659POPC   C3A49433   5.915  20.595   6.962
 3659POPC   C4A49434   5.718  20.670   7.354
 3659POPC   C1B49435   6.054  21.058   6.165
 3659POPC   C2B49436   6.180  20.945   6.593
 3659POPC   C3B49437   6.189  21.072   6.995
 3659POPC   C4B49438   5.814  21.096   7.112
 3660POPC   NC349439  29.370  37.961   5.437
 3660POPC   PO449440  29.294  38.644   5.425
 3660POPC   GL149441  29.101  38.662   5.849
 3660POPC   GL249442  29.094  38.307   5.864
 3660POPC   C1A49443  29.169  38.528   6.310
 3660POPC   D2A49444  29.333  38.646   6.687
 3660POPC   C3A49445  28.982  38.707   6.936
 3660POPC   C4A49446  29.007  38.644   7.329
 3660POPC   C1B49447  28.749  38.289   6.190
 3660POPC   C2B49448  28.813  38.315   6.652
 3660POPC   C3B49449  28.929  38.203   7.101
 3660POPC   C4B49450  29.206  38.209   7.530
 3661POPC   NC349451  10.650  38.692   5.365
 3661POPC   PO449452  10.309  38.228   5.690
 3661POPC   GL149453  10.573  38.370   5.974
 3661POPC   GL249454  10.777  38.593   5.842
 3661POPC   C1A49455  10.410  38.502   6.361
 3661POPC   D2A49456  10.062  38.476   6.668
 3661POPC   C3A49457  10.147  38.527   7.101
 3661POPC   C4A49458  10.461  38.439   7.428
 3661POPC   C1B49459  10.934  38.582   6.264
 3661POPC   C2B49460  10.810  38.740   6.642
 3661POPC   C3B49461  10.853  38.616   7.048
 3661POPC   C4B49462  10.770  38.842   7.397
 3662POPC   NC349463  32.471  17.311   5.402
 3662POPC   PO449464  31.994  17.115   5.766
 3662POPC   GL149465  32.142  17.494   5.971
 3662POPC   GL249466  31.841  17.719   6.002
 3662POPC   C1A49467  32.233  17.504   6.409
 3662POPC   D2A49468  32.107  17.778   6.729
 3662POPC   C3A49469  32.088  17.675   7.135
 3662POPC   C4A49470  32.239  17.448   7.461
 3662POPC   C1B49471  31.738  17.373   6.302
 3662POPC   C2B49472  31.910  17.271   6.724
 3662POPC   C3B49473  31.878  17.222   7.160
 3662POPC   C4B49474  31.696  16.951   7.455
 3663POPC   NC349475   0.159  35.629   5.072
 3663POPC   PO449476  44.776  35.269   5.409
 3663POPC   GL149477  44.740  35.184   5.809
 3663POPC   GL249478  44.796  34.834   5.782
 3663POPC   C1A49479  44.711  35.390   6.226
 3663POPC   D2A49480  44.934  35.419   6.628
 3663POPC   C3A49481  44.656  35.466   6.995
 3663POPC   C4A49482  44.781  35.324   7.387
 3663POPC   C1B49483  44.808  34.878   6.233
 3663POPC   C2B49484  44.646  35.009   6.640
 3663POPC   C3B49485  44.869  34.985   7.022
 3663POPC   C4B49486  44.767  34.746   7.415
 3664POPC   NC349487  19.299  43.248   5.342
 3664POPC   PO449488  18.913  42.754   5.590
 3664POPC   GL149489  19.076  43.101   5.784
 3664POPC   GL249490  19.422  43.069   5.810
 3664POPC   C1A49491  19.077  43.224   6.205
 3664POPC   D2A49492  19.194  43.310   6.636
 3664POPC   C3A49493  18.924  43.107   6.968
 3664POPC   C4A49494  18.622  42.791   7.105
 3664POPC   C1B49495  19.582  43.055   6.238
 3664POPC   C2B49496  19.515  42.891   6.663
 3664POPC   C3B49497  19.428  43.096   7.070
 3664POPC   C4B49498  19.522  42.970   7.516
 3665POPC   NC349499  43.362  43.236   5.423
 3665POPC   PO449500  42.782  42.967   5.514
 3665POPC   GL149501  43.146  43.018   5.831
 3665POPC   GL249502  43.320  43.318   5.921
 3665POPC   C1A49503  43.073  42.907   6.257
 3665POPC   D2A49504  42.737  42.960   6.550
 3665POPC   C3A49505  42.911  42.829   6.931
 3665POPC   C4A49506  42.855  42.903   7.328
 3665POPC   C1B49507  43.389  43.628   6.212
 3665POPC   C2B49508  43.471  43.588   6.626
 3665POPC   C3B49509  43.455  43.518   7.026
 3665POPC   C4B49510  43.300  43.129   7.180
 3666POPC   NC349511  34.690  34.839   5.486
 3666POPC   PO449512  34.727  34.157   5.400
 3666POPC   GL149513  34.754  34.419   5.795
 3666POPC   GL249514  34.943  34.730   5.912
 3666POPC   C1A49515  34.540  34.611   6.168
 3666POPC   D2A49516  34.491  34.746   6.601
 3666POPC   C3A49517  34.586  34.417   6.883
 3666POPC   C4A49518  34.498  34.405   7.317
 3666POPC   C1B49519  35.059  34.615   6.334
 3666POPC   C2B49520  34.999  34.686   6.764
 3666POPC   C3B49521  34.863  34.791   7.168
 3666POPC   C4B49522  34.868  34.589   7.602
 3667POPC   NC349523  31.714  18.861   5.264
 3667POPC   PO449524  31.381  19.396   5.471
 3667POPC   GL149525  31.410  19.046   5.750
 3667POPC   GL249526  31.732  18.915   5.794
 3667POPC   C1A49527  31.351  19.062   6.220
 3667POPC   D2A49528  31.172  19.389   6.534
 3667POPC   C3A49529  31.166  19.123   6.864
 3667POPC   C4A49530  31.494  19.047   7.044
 3667POPC   C1B49531  31.860  18.722   6.194
 3667POPC   C2B49532  31.676  18.784   6.613
 3667POPC   C3B49533  31.675  18.581   7.019
 3667POPC   C4B49534  31.651  18.718   7.424
 3668POPC   NC349535  32.461  15.854   5.474
 3668POPC   PO449536  31.937  16.218   5.409
 3668POPC   GL149537  32.042  15.920   5.767
 3668POPC   GL249538  32.302  15.634   5.899
 3668POPC   C1A49539  32.122  16.003   6.183
 3668POPC   D2A49540  32.289  15.871   6.562
 3668POPC   C3A49541  32.121  16.094   6.902
 3668POPC   C4A49542  32.124  15.940   7.292
 3668POPC   C1B49543  32.630  15.876   6.148
 3668POPC   C2B49544  32.786  16.038   6.546
 3668POPC   C3B49545  32.621  15.962   6.964
 3668POPC   C4B49546  32.601  16.154   7.354
 3669POPC   NC349547  13.217  44.100   5.532
 3669POPC   PO449548  12.681  43.658   5.340
 3669POPC   GL149549  12.745  43.958   5.674
 3669POPC   GL249550  12.808  43.679   5.859
 3669POPC   C1A49551  12.577  44.073   6.113
 3669POPC   D2A49552  12.536  43.850   6.534
 3669POPC   C3A49553  12.427  44.002   6.927
 3669POPC   C4A49554  12.570  43.955   7.350
 3669POPC   C1B49555  12.971  43.753   6.273
 3669POPC   C2B49556  13.018  44.059   6.622
 3669POPC   C3B49557  12.992  44.007   7.090
 3669POPC   C4B49558  13.145  43.551   7.200
 3670POPC   NC349559   8.821  28.496   5.454
 3670POPC   PO449560   9.398  28.468   5.825
 3670POPC   GL149561   8.979  28.275   5.925
 3670POPC   GL249562   8.625  28.225   5.856
 3670POPC   C1A49563   8.903  28.251   6.351
 3670POPC   D2A49564   9.298  28.420   6.546
 3670POPC   C3A49565   9.321  28.558   6.988
 3670POPC   C4A49566   9.404  28.495   7.401
 3670POPC   C1B49567   8.490  28.521   6.181
 3670POPC   C2B49568   8.609  28.597   6.613
 3670POPC   C3B49569   8.897  28.324   6.855
 3670POPC   C4B49570   8.954  28.292   7.267
 3671POPC   NC349571  25.992  24.899   5.378
 3671POPC   PO449572  26.345  25.452   5.358
 3671POPC   GL149573  26.160  25.269   5.750
 3671POPC   GL249574  25.788  25.156   5.762
 3671POPC   C1A49575  25.986  25.408   6.164
 3671POPC   D2A49576  26.175  25.549   6.565
 3671POPC   C3A49577  25.975  25.486   6.955
 3671POPC   C4A49578  26.271  25.309   7.201
 3671POPC   C1B49579  25.975  24.894   6.079
 3671POPC   C2B49580  25.895  24.781   6.493
 3671POPC   C3B49581  25.947  24.958   6.907
 3671POPC   C4B49582  25.829  25.036   7.326
 3672POPC   NC349583   7.315  26.263   5.199
 3672POPC   PO449584   7.843  25.846   5.341
 3672POPC   GL149585   7.475  25.955   5.647
 3672POPC   GL249586   7.233  26.277   5.704
 3672POPC   C1A49587   7.450  25.930   6.118
 3672POPC   D2A49588   7.562  26.179   6.488
 3672POPC   C3A49589   7.458  25.956   6.864
 3672POPC   C4A49590   7.428  26.096   7.286
 3672POPC   C1B49591   7.021  26.232   6.110
 3672POPC   C2B49592   7.045  26.022   6.517
 3672POPC   C3B49593   6.981  26.181   6.947
 3672POPC   C4B49594   7.037  26.406   7.352
 3673POPC   NC349595   7.574  28.851   5.309
 3673POPC   PO449596   7.101  29.332   5.426
 3673POPC   GL149597   7.212  29.065   5.794
 3673POPC   GL249598   7.486  29.308   5.838
 3673POPC   C1A49599   7.270  29.057   6.274
 3673POPC   D2A49600   7.418  29.334   6.645
 3673POPC   C3A49601   7.161  29.268   7.020
 3673POPC   C4A49602   6.954  28.923   7.173
 3673POPC   C1B49603   7.764  29.139   6.176
 3673POPC   C2B49604   7.727  28.918   6.577
 3673POPC   C3B49605   7.842  29.153   6.939
 3673POPC   C4B49606   7.613  29.432   7.204
 3674POPC   NC349607  38.932   8.123   5.452
 3674POPC   PO449608  38.276   8.278   5.322
 3674POPC   GL149609  38.473   8.140   5.697
 3674POPC   GL249610  38.712   8.397   5.828
 3674POPC   C1A49611  38.385   8.010   6.128
 3674POPC   D2A49612  38.370   8.224   6.538
 3674POPC   C3A49613  38.192   8.095   6.971
 3674POPC   C4A49614  38.344   8.308   7.366
 3674POPC   C1B49615  38.892   8.048   6.104
 3674POPC   C2B49616  38.810   7.939   6.547
 3674POPC   C3B49617  38.687   8.134   6.952
 3674POPC   C4B49618  38.870   7.975   7.321
 3675POPC   NC349619   7.314  12.534   4.972
 3675POPC   PO449620   7.313  13.080   5.272
 3675POPC   GL149621   7.461  12.886   5.643
 3675POPC   GL249622   7.362  13.157   5.836
 3675POPC   C1A49623   7.370  12.719   6.096
 3675POPC   D2A49624   7.526  12.754   6.535
 3675POPC   C3A49625   7.381  12.758   6.978
 3675POPC   C4A49626   7.537  12.575   7.392
 3675POPC   C1B49627   7.751  13.076   6.025
 3675POPC   C2B49628   7.872  13.147   6.433
 3675POPC   C3B49629   7.854  13.011   6.844
 3675POPC   C4B49630   7.713  13.043   7.239
 3676POPC   NC349631   8.427  24.647   5.312
 3676POPC   PO449632   7.886  24.249   5.261
 3676POPC   GL149633   8.116  24.236   5.692
 3676POPC   GL249634   8.135  24.608   5.748
 3676POPC   C1A49635   8.306  24.342   6.140
 3676POPC   D2A49636   8.377  24.737   6.428
 3676POPC   C3A49637   8.302  24.668   6.881
 3676POPC   C4A49638   8.135  24.468   7.238
 3676POPC   C1B49639   7.902  24.678   6.149
 3676POPC   C2B49640   7.962  24.435   6.541
 3676POPC   C3B49641   7.821  24.209   6.914
 3676POPC   C4B49642   7.620  24.373   7.266
 3677POPC   NC349643  32.604  36.687   5.484
 3677POPC   PO449644  31.995  37.002   5.347
 3677POPC   GL149645  32.148  36.822   5.722
 3677POPC   GL249646  32.420  37.049   5.801
 3677POPC   C1A49647  32.047  36.830   6.159
 3677POPC   D2A49648  32.094  36.658   6.564
 3677POPC   C3A49649  32.034  36.858   6.939
 3677POPC   C4A49650  32.377  36.836   7.232
 3677POPC   C1B49651  32.351  37.236   6.196
 3677POPC   C2B49652  32.398  37.073   6.603
 3677POPC   C3B49653  32.331  37.279   6.979
 3677POPC   C4B49654  32.481  37.552   7.284
 3678POPC   NC349655  28.309  25.072   5.469
 3678POPC   PO449656  28.664  25.662   5.392
 3678POPC   GL149657  28.532  25.399   5.763
 3678POPC   GL249658  28.171  25.493   5.773
 3678POPC   C1A49659  28.663  25.209   6.173
 3678POPC   D2A49660  28.723  25.033   6.588
 3678POPC   C3A49661  28.526  25.275   6.909
 3678POPC   C4A49662  28.514  25.156   7.341
 3678POPC   C1B49663  28.120  25.233   6.186
 3678POPC   C2B49664  28.063  24.869   6.473
 3678POPC   C3B49665  28.165  24.852   6.888
 3678POPC   C4B49666  27.996  24.713   7.242
 3679POPC   NC349667  44.109   1.222   5.360
 3679POPC   PO449668  43.465   1.007   5.434
 3679POPC   GL149669  43.618   1.236   5.801
 3679POPC   GL249670  43.935   1.446   5.792
 3679POPC   C1A49671  43.756   1.159   6.228
 3679POPC   D2A49672  43.944   0.936   6.583
 3679POPC   C3A49673  43.786   1.173   6.954
 3679POPC   C4A49674  43.719   1.210   7.398
 3679POPC   C1B49675  44.153   1.685   6.104
 3679POPC   C2B49676  44.268   1.603   6.508
 3679POPC   C3B49677  44.395   1.576   6.906
 3679POPC   C4B49678  44.111   1.535   7.228
 3680POPC   NC349679  23.552   9.233   5.432
 3680POPC   PO449680  24.191   8.989   5.383
 3680POPC   GL149681  23.937   9.108   5.789
 3680POPC   GL249682  23.628   8.951   5.840
 3680POPC   C1A49683  23.910   8.834   6.220
 3680POPC   D2A49684  24.107   8.772   6.627
 3680POPC   C3A49685  23.847   8.771   6.984
 3680POPC   C4A49686  23.614   8.717   7.346
 3680POPC   C1B49687  23.353   8.905   6.188
 3680POPC   C2B49688  23.534   8.927   6.591
 3680POPC   C3B49689  23.557   9.207   6.925
 3680POPC   C4B49690  23.426   9.194   7.338
 3681POPC   NC349691   3.237  20.795   5.608
 3681POPC   PO449692   3.673  20.396   5.168
 3681POPC   GL149693   3.774  20.491   5.716
 3681POPC   GL249694   3.693  20.794   5.833
 3681POPC   C1A49695   3.561  20.442   6.180
 3681POPC   D2A49696   3.407  20.563   6.588
 3681POPC   C3A49697   3.669  20.414   6.911
 3681POPC   C4A49698   3.488  20.171   7.219
 3681POPC   C1B49699   3.409  20.931   6.206
 3681POPC   C2B49700   3.244  21.052   6.589
 3681POPC   C3B49701   3.235  21.099   7.007
 3681POPC   C4B49702   3.353  20.720   7.177
 3682POPC   NC349703  19.735  36.103   5.294
 3682POPC   PO449704  18.923  36.101   5.340
 3682POPC   GL149705  18.989  36.045   5.740
 3682POPC   GL249706  19.203  35.821   5.797
 3682POPC   C1A49707  18.876  36.101   6.148
 3682POPC   D2A49708  18.953  36.371   6.492
 3682POPC   C3A49709  18.883  36.143   6.885
 3682POPC   C4A49710  18.939  36.215   7.326
 3682POPC   C1B49711  19.258  35.722   6.190
 3682POPC   C2B49712  19.247  35.953   6.548
 3682POPC   C3B49713  19.370  35.897   6.921
 3682POPC   C4B49714  19.675  35.759   7.214
 3683POPC   NC349715  29.930  27.923   5.046
 3683POPC   PO449716  29.802  27.451   5.372
 3683POPC   GL149717  29.853  27.643   5.741
 3683POPC   GL249718  30.197  27.663   5.792
 3683POPC   C1A49719  29.782  27.585   6.177
 3683POPC   D2A49720  29.606  27.469   6.577
 3683POPC   C3A49721  29.807  27.543   6.946
 3683POPC   C4A49722  29.785  27.926   7.141
 3683POPC   C1B49723  30.231  27.797   6.206
 3683POPC   C2B49724  30.217  27.611   6.619
 3683POPC   C3B49725  30.283  27.684   7.064
 3683POPC   C4B49726  30.260  28.077   7.207
 3684POPC   NC349727  19.057  41.079   5.318
 3684POPC   PO449728  19.016  41.777   5.402
 3684POPC   GL149729  19.055  41.451   5.687
 3684POPC   GL249730  18.798  41.637   5.883
 3684POPC   C1A49731  19.180  41.395   6.123
 3684POPC   D2A49732  18.989  41.631   6.458
 3684POPC   C3A49733  19.075  41.510   6.867
 3684POPC   C4A49734  18.977  41.387   7.270
 3684POPC   C1B49735  18.653  41.948   6.189
 3684POPC   C2B49736  18.595  41.913   6.641
 3684POPC   C3B49737  18.636  41.704   7.022
 3684POPC   C4B49738  18.526  41.767   7.435
 3685POPC   NC349739   5.842  19.425   5.520
 3685POPC   PO449740   5.617  18.781   5.406
 3685POPC   GL149741   5.716  19.009   5.794
 3685POPC   GL249742   6.065  18.985   5.886
 3685POPC   C1A49743   5.619  18.989   6.236
 3685POPC   D2A49744   5.771  19.249   6.578
 3685POPC   C3A49745   5.549  19.258   6.960
 3685POPC   C4A49746   5.492  18.972   7.270
 3685POPC   C1B49747   6.078  19.372   6.144
 3685POPC   C2B49748   6.243  19.453   6.552
 3685POPC   C3B49749   6.312  19.272   6.959
 3685POPC   C4B49750   6.005  19.083   7.167
 3686POPC   NC349751   7.611  36.215   5.415
 3686POPC   PO449752   6.973  36.007   5.390
 3686POPC   GL149753   7.244  35.979   5.747
 3686POPC   GL249754   7.533  36.200   5.905
 3686POPC   C1A49755   7.140  36.018   6.158
 3686POPC   D2A49756   7.415  36.158   6.469
 3686POPC   C3A49757   7.332  36.057   6.896
 3686POPC   C4A49758   7.261  36.180   7.319
 3686POPC   C1B49759   7.704  36.483   6.214
 3686POPC   C2B49760   7.674  36.586   6.656
 3686POPC   C3B49761   7.696  36.395   7.090
 3686POPC   C4B49762   7.615  36.519   7.519
 3687POPC   NC349763  17.346  40.558   5.465
 3687POPC   PO449764  17.576  41.130   5.248
 3687POPC   GL149765  17.624  40.957   5.743
 3687POPC   GL249766  17.388  40.730   5.924
 3687POPC   C1A49767  17.730  40.892   6.223
 3687POPC   D2A49768  17.667  40.732   6.674
 3687POPC   C3A49769  17.329  40.830   6.983
 3687POPC   C4A49770  17.187  41.133   7.286
 3687POPC   C1B49771  17.416  40.481   6.287
 3687POPC   C2B49772  17.240  40.409   6.676
 3687POPC   C3B49773  17.524  40.357   7.016
 3687POPC   C4B49774  17.368  40.463   7.397
 3688POPC   NC349775  20.817  37.101   5.462
 3688POPC   PO449776  20.404  36.639   5.380
 3688POPC   GL149777  20.326  36.802   5.787
 3688POPC   GL249778  20.469  37.137   5.850
 3688POPC   C1A49779  20.528  36.778   6.206
 3688POPC   D2A49780  20.802  36.867   6.556
 3688POPC   C3A49781  20.602  36.972   6.967
 3688POPC   C4A49782  20.217  36.745   7.109
 3688POPC   C1B49783  20.788  37.260   6.187
 3688POPC   C2B49784  20.829  37.382   6.648
 3688POPC   C3B49785  20.947  37.356   7.100
 3688POPC   C4B49786  20.971  37.025   7.407
 3689POPC   NC349787  32.213  28.038   5.568
 3689POPC   PO449788  32.301  28.520   5.219
 3689POPC   GL149789  32.394  28.478   5.691
 3689POPC   GL249790  32.599  28.215   5.869
 3689POPC   C1A49791  32.137  28.471   6.093
 3689POPC   D2A49792  32.028  28.293   6.500
 3689POPC   C3A49793  32.219  28.505   6.845
 3689POPC   C4A49794  32.118  28.525   7.300
 3689POPC   C1B49795  32.351  28.006   6.201
 3689POPC   C2B49796  32.333  27.887   6.622
 3689POPC   C3B49797  32.080  28.011   6.936
 3689POPC   C4B49798  32.031  28.009   7.346
 3690POPC   NC349799  44.928  29.797   5.433
 3690POPC   PO449800  44.412  30.254   5.421
 3690POPC   GL149801  44.620  30.088   5.773
 3690POPC   GL249802  44.962  30.220   5.784
 3690POPC   C1A49803  44.597  30.167   6.223
 3690POPC   D2A49804  44.535  30.269   6.648
 3690POPC   C3A49805  44.809  30.160   6.971
 3690POPC   C4A49806  44.604  30.082   7.325
 3690POPC   C1B49807  44.967  29.855   6.092
 3690POPC   C2B49808  44.938  29.875   6.548
 3690POPC   C3B49809  44.987  29.678   6.940
 3690POPC   C4B49810   0.194  29.756   7.315
 3691POPC   NC349811  41.504   9.822   5.247
 3691POPC   PO449812  41.571   9.157   5.346
 3691POPC   GL149813  41.626   9.466   5.703
 3691POPC   GL249814  41.587   9.844   5.764
 3691POPC   C1A49815  41.675   9.546   6.162
 3691POPC   D2A49816  41.614   9.782   6.566
 3691POPC   C3A49817  41.565   9.606   6.975
 3691POPC   C4A49818  41.830   9.581   7.323
 3691POPC   C1B49819  41.815  10.056   6.155
 3691POPC   C2B49820  41.932  10.177   6.625
 3691POPC   C3B49821  41.809  10.078   7.081
 3691POPC   C4B49822  41.985  10.032   7.517
 3692POPC   NC349823  17.255   0.103   5.568
 3692POPC   PO449824  17.638  44.498   5.579
 3692POPC   GL149825  17.358  44.573   5.902
 3692POPC   GL249826  17.458  44.916   5.989
 3692POPC   C1A49827  17.379  44.409   6.329
 3692POPC   D2A49828  17.665  44.477   6.688
 3692POPC   C3A49829  17.519  44.315   7.099
 3692POPC   C4A49830  17.416  44.363   7.551
 3692POPC   C1B49831  17.792  44.745   6.210
 3692POPC   C2B49832  17.956  44.877   6.587
 3692POPC   C3B49833  17.743  44.861   7.017
 3692POPC   C4B49834  17.604  44.832   7.440
 3693POPC   NC349835  11.572  21.911   5.012
 3693POPC   PO449836  11.970  22.208   5.476
 3693POPC   GL149837  12.214  22.135   5.820
 3693POPC   GL249838  12.085  21.793   5.853
 3693POPC   C1A49839  12.336  22.418   6.192
 3693POPC   D2A49840  12.264  22.671   6.597
 3693POPC   C3A49841  12.390  22.495   6.966
 3693POPC   C4A49842  12.273  22.290   7.320
 3693POPC   C1B49843  12.017  21.989   6.282
 3693POPC   C2B49844  11.992  22.223   6.682
 3693POPC   C3B49845  11.907  22.031   7.074
 3693POPC   C4B49846  11.710  21.685   7.259
 3694POPC   NC349847  41.148   9.062   5.151
 3694POPC   PO449848  41.304   8.516   5.528
 3694POPC   GL149849  41.535   8.764   5.846
 3694POPC   GL249850  41.816   8.954   5.758
 3694POPC   C1A49851  41.538   9.009   6.265
 3694POPC   D2A49852  41.349   8.912   6.699
 3694POPC   C3A49853  41.465   9.115   7.120
 3694POPC   C4A49854  41.383   9.381   7.507
 3694POPC   C1B49855  41.939   8.714   6.166
 3694POPC   C2B49856  42.012   8.807   6.587
 3694POPC   C3B49857  41.769   8.722   6.903
 3694POPC   C4B49858  41.828   8.783   7.286
 3695POPC   NC349859  11.562   4.494   5.220
 3695POPC   PO449860  11.046   4.132   5.374
 3695POPC   GL149861  11.184   4.448   5.724
 3695POPC   GL249862  11.140   4.225   6.003
 3695POPC   C1A49863  11.233   4.670   6.180
 3695POPC   D2A49864  11.329   4.536   6.637
 3695POPC   C3A49865  11.256   4.755   7.023
 3695POPC   C4A49866  11.091   4.552   7.368
 3695POPC   C1B49867  11.323   4.108   6.363
 3695POPC   C2B49868  11.177   3.879   6.700
 3695POPC   C3B49869  11.220   4.044   7.088
 3695POPC   C4B49870  11.512   4.335   7.147
 3696POPC   NC349871  18.268  21.176   5.435
 3696POPC   PO449872  17.739  21.104   5.593
 3696POPC   GL149873  18.047  21.181   5.908
 3696POPC   GL249874  18.136  21.511   5.862
 3696POPC   C1A49875  18.222  21.220   6.323
 3696POPC   D2A49876  18.212  21.481   6.693
 3696POPC   C3A49877  18.197  21.242   7.093
 3696POPC   C4A49878  18.070  21.369   7.499
 3696POPC   C1B49879  17.952  21.653   6.259
 3696POPC   C2B49880  17.690  21.591   6.629
 3696POPC   C3B49881  17.781  21.542   7.066
 3696POPC   C4B49882  17.571  21.538   7.473
 3697POPC   NC349883  33.588   1.527   5.511
 3697POPC   PO449884  34.024   0.925   5.550
 3697POPC   GL149885  33.891   1.246   5.818
 3697POPC   GL249886  34.168   1.390   5.917
 3697POPC   C1A49887  33.694   1.186   6.228
 3697POPC   D2A49888  33.809   0.902   6.573
 3697POPC   C3A49889  33.619   1.017   6.959
 3697POPC   C4A49890  33.445   1.314   7.235
 3697POPC   C1B49891  34.121   1.429   6.344
 3697POPC   C2B49892  34.080   1.313   6.749
 3697POPC   C3B49893  33.949   1.372   7.148
 3697POPC   C4B49894  33.790   1.488   7.562
 3698POPC   NC349895  20.314  32.188   5.560
 3698POPC   PO449896  20.938  32.084   5.479
 3698POPC   GL149897  20.720  32.360   5.781
 3698POPC   GL249898  20.680  32.055   5.911
 3698POPC   C1A49899  20.527  32.467   6.185
 3698POPC   D2A49900  20.692  32.427   6.613
 3698POPC   C3A49901  20.646  32.584   7.024
 3698POPC   C4A49902  20.474  32.503   7.449
 3698POPC   C1B49903  20.824  32.064   6.271
 3698POPC   C2B49904  20.485  31.963   6.536
 3698POPC   C3B49905  20.417  32.124   6.946
 3698POPC   C4B49906  20.562  31.924   7.316
 3699POPC   NC349907   3.821  32.895   5.414
 3699POPC   PO449908   3.164  33.066   5.202
 3699POPC   GL149909   3.353  33.030   5.657
 3699POPC   GL249910   3.680  33.233   5.788
 3699POPC   C1A49911   3.386  32.999   6.125
 3699POPC   D2A49912   3.554  32.890   6.536
 3699POPC   C3A49913   3.372  33.061   6.868
 3699POPC   C4A49914   3.278  32.888   7.237
 3699POPC   C1B49915   3.885  33.112   6.204
 3699POPC   C2B49916   4.062  33.080   6.635
 3699POPC   C3B49917   3.851  33.151   7.009
 3699POPC   C4B49918   3.534  33.426   7.215
 3700POPC   NC349919  11.769  18.402   5.360
 3700POPC   PO449920  12.311  18.894   5.256
 3700POPC   GL149921  12.209  18.581   5.608
 3700POPC   GL249922  12.358  18.231   5.682
 3700POPC   C1A49923  12.189  18.571   6.058
 3700POPC   D2A49924  12.082  18.708   6.472
 3700POPC   C3A49925  12.081  18.446   6.846
 3700POPC   C4A49926  12.325  18.387   7.272
 3700POPC   C1B49927  12.180  18.049   6.071
 3700POPC   C2B49928  11.920  18.133   6.452
 3700POPC   C3B49929  11.771  17.924   6.841
 3700POPC   C4B49930  11.830  17.784   7.264
 3701POPC   NC349931  10.523  35.460   5.276
 3701POPC   PO449932  10.176  34.903   5.422
 3701POPC   GL149933  10.382  35.133   5.757
 3701POPC   GL249934  10.376  35.526   5.779
 3701POPC   C1A49935  10.286  35.237   6.190
 3701POPC   D2A49936  10.393  35.563   6.466
 3701POPC   C3A49937  10.275  35.275   6.757
 3701POPC   C4A49938  10.249  35.215   7.155
 3701POPC   C1B49939  10.748  35.375   6.059
 3701POPC   C2B49940  10.837  35.301   6.535
 3701POPC   C3B49941  10.739  35.276   7.008
 3701POPC   C4B49942  10.599  35.452   7.436
 3702POPC   NC349943  11.634  44.866   5.253
 3702POPC   PO449944  12.125  44.458   5.330
 3702POPC   GL149945  12.124  44.785   5.633
 3702POPC   GL249946  11.774  44.736   5.738
 3702POPC   C1A49947  12.122  44.907   6.090
 3702POPC   D2A49948  11.847  44.892   6.460
 3702POPC   C3A49949  11.969  44.885   6.874
 3702POPC   C4A49950  12.072  44.787   7.283
 3702POPC   C1B49951  11.744  44.485   6.138
 3702POPC   C2B49952  11.878  44.355   6.556
 3702POPC   C3B49953  12.034  44.364   6.961
 3702POPC   C4B49954  12.388  44.402   7.233
 3703POPC   NC349955  29.723  41.273   5.460
 3703POPC   PO449956  30.375  41.588   5.350
 3703POPC   GL149957  30.145  41.529   5.739
 3703POPC   GL249958  29.828  41.720   5.739
 3703POPC   C1A49959  30.034  41.403   6.167
 3703POPC   D2A49960  29.914  41.602   6.570
 3703POPC   C3A49961  30.161  41.558   6.950
 3703POPC   C4A49962  30.073  41.296   7.272
 3703POPC   C1B49963  29.659  41.810   6.144
 3703POPC   C2B49964  29.425  41.724   6.506
 3703POPC   C3B49965  29.489  41.842   6.900
 3703POPC   C4B49966  29.633  41.533   7.135
 3704POPC   NC349967  24.359   9.430   5.415
 3704POPC   PO449968  24.836   9.897   5.474
 3704POPC   GL149969  24.740   9.774   5.901
 3704POPC   GL249970  24.605   9.421   5.883
 3704POPC   C1A49971  24.417   9.903   6.220
 3704POPC   D2A49972  24.125   9.809   6.567
 3704POPC   C3A49973  24.323   9.830   6.965
 3704POPC   C4A49974  24.440  10.121   7.272
 3704POPC   C1B49975  24.855   9.236   6.216
 3704POPC   C2B49976  25.008   9.134   6.657
 3704POPC   C3B49977  25.077   9.428   7.000
 3704POPC   C4B49978  24.791   9.742   7.149
 3705POPC   NC349979  17.143  19.750   5.468
 3705POPC   PO449980  16.587  19.743   5.384
 3705POPC   GL149981  16.782  19.748   5.828
 3705POPC   GL249982  16.719  20.100   5.943
 3705POPC   C1A49983  16.824  19.779   6.312
 3705POPC   D2A49984  16.900  19.987   6.731
 3705POPC   C3A49985  16.695  19.779   7.066
 3705POPC   C4A49986  16.564  19.384   7.286
 3705POPC   C1B49987  16.589  20.245   6.383
 3705POPC   C2B49988  16.460  20.235   6.825
 3705POPC   C3B49989  16.651  20.300   7.224
 3705POPC   C4B49990  16.652  20.388   7.678
 3706POPC   NC349991  18.680  39.097   5.148
 3706POPC   PO449992  18.063  39.305   5.335
 3706POPC   GL149993  17.876  39.221   5.770
 3706POPC   GL249994  18.198  39.107   5.910
 3706POPC   C1A49995  17.893  39.424   6.181
 3706POPC   D2A49996  18.208  39.406   6.492
 3706POPC   C3A49997  18.011  39.445   6.886
 3706POPC   C4A49998  18.254  39.403   7.241
 3706POPC   C1B49999  18.494  38.864   6.172
 3706POPC   C2B50000  18.671  38.983   6.565
 3706POPC   C3B50001  18.681  39.000   6.999
 3706POPC   C4B50002  18.423  38.933   7.314
 3707POPC   NC350003  40.030   7.982   5.586
 3707POPC   PO450004  39.900   8.709   5.749
 3707POPC   GL150005  40.087   8.385   5.915
 3707POPC   GL250006  39.822   8.171   6.014
 3707POPC   C1A50007  40.299   8.149   6.215
 3707POPC   D2A50008  40.130   7.941   6.568
 3707POPC   C3A50009  40.226   8.143   6.959
 3707POPC   C4A50010  40.572   8.382   7.157
 3707POPC   C1B50011  39.664   8.514   6.313
 3707POPC   C2B50012  39.820   8.713   6.694
 3707POPC   C3B50013  40.024   8.588   7.087
 3707POPC   C4B50014  39.892   8.222   7.390
 3708POPC   NC350015  34.198  29.208   5.066
 3708POPC   PO450016  34.697  28.990   5.488
 3708POPC   GL150017  34.733  28.975   5.894
 3708POPC   GL250018  34.753  29.317   5.918
 3708POPC   C1A50019  34.677  28.915   6.348
 3708POPC   D2A50020  34.422  29.064   6.721
 3708POPC   C3A50021  34.315  28.822   7.108
 3708POPC   C4A50022  34.539  28.910   7.506
 3708POPC   C1B50023  34.848  29.405   6.339
 3708POPC   C2B50024  34.852  29.347   6.777
 3708POPC   C3B50025  34.708  29.337   7.224
 3708POPC   C4B50026  34.759  29.523   7.632
 3709POPC   NC350027  26.887   6.285   5.393
 3709POPC   PO450028  27.032   7.012   5.421
 3709POPC   GL150029  26.793   6.770   5.689
 3709POPC   GL250030  27.049   6.565   5.788
 3709POPC   C1A50031  26.683   6.808   6.126
 3709POPC   D2A50032  26.829   6.748   6.564
 3709POPC   C3A50033  26.644   6.735   6.958
 3709POPC   C4A50034  26.717   6.985   7.288
 3709POPC   C1B50035  27.251   6.422   6.152
 3709POPC   C2B50036  27.292   6.523   6.582
 3709POPC   C3B50037  27.070   6.409   6.947
 3709POPC   C4B50038  26.966   6.549   7.340
 3710POPC   NC350039  40.577   3.284   5.430
 3710POPC   PO450040  41.193   3.646   5.412
 3710POPC   GL150041  40.919   3.687   5.774
 3710POPC   GL250042  40.841   3.334   5.873
 3710POPC   C1A50043  40.919   3.764   6.226
 3710POPC   D2A50044  40.611   3.772   6.567
 3710POPC   C3A50045  40.751   3.675   6.992
 3710POPC   C4A50046  40.823   3.562   7.415
 3710POPC   C1B50047  40.662   3.305   6.292
 3710POPC   C2B50048  40.576   3.260   6.713
 3710POPC   C3B50049  40.542   3.206   7.150
 3710POPC   C4B50050  40.379   3.189   7.582
 3711POPC   NC350051  19.307  37.443   5.298
 3711POPC   PO450052  18.762  37.782   5.422
 3711POPC   GL150053  19.031  37.940   5.762
 3711POPC   GL250054  19.199  37.639   5.764
 3711POPC   C1A50055  19.240  37.973   6.187
 3711POPC   D2A50056  19.426  37.789   6.568
 3711POPC   C3A50057  19.197  37.821   6.955
 3711POPC   C4A50058  18.985  37.832   7.355
 3711POPC   C1B50059  19.343  37.444   6.124
 3711POPC   C2B50060  19.110  37.370   6.473
 3711POPC   C3B50061  19.144  37.313   6.891
 3711POPC   C4B50062  19.224  36.956   7.139
 3712POPC   NC350063  37.125  41.021   5.325
 3712POPC   PO450064  36.605  40.589   5.340
 3712POPC   GL150065  36.755  40.855   5.673
 3712POPC   GL250066  37.097  40.733   5.743
 3712POPC   C1A50067  36.849  41.003   6.089
 3712POPC   D2A50068  36.672  41.140   6.471
 3712POPC   C3A50069  36.920  40.945   6.790
 3712POPC   C4A50070  36.903  40.875   7.208
 3712POPC   C1B50071  37.244  40.549   6.151
 3712POPC   C2B50072  37.105  40.520   6.598
 3712POPC   C3B50073  37.262  40.549   7.035
 3712POPC   C4B50074  37.258  40.641   7.477
 3713POPC   NC350075  30.455   1.812   5.166
 3713POPC   PO450076  31.061   1.765   5.403
 3713POPC   GL150077  30.768   1.964   5.736
 3713POPC   GL250078  30.871   2.326   5.745
 3713POPC   C1A50079  30.654   1.974   6.247
 3713POPC   D2A50080  30.756   2.002   6.758
 3713POPC   C3A50081  30.431   2.003   7.145
 3713POPC   C4A50082  30.462   1.844   7.603
 3713POPC   C1B50083  30.951   2.385   6.215
 3713POPC   C2B50084  30.758   2.490   6.639
 3713POPC   C3B50085  30.739   2.407   7.102
 3713POPC   C4B50086  30.582   2.678   7.444
 3714POPC   NC350087   7.573  14.098   5.443
 3714POPC   PO450088   7.247  14.728   5.384
 3714POPC   GL150089   7.291  14.482   5.792
 3714POPC   GL250090   7.394  14.115   5.911
 3714POPC   C1A50091   7.298  14.461   6.261
 3714POPC   D2A50092   7.513  14.524   6.645
 3714POPC   C3A50093   7.219  14.569   6.978
 3714POPC   C4A50094   7.277  14.424   7.423
 3714POPC   C1B50095   7.571  14.037   6.358
 3714POPC   C2B50096   7.571  13.897   6.808
 3714POPC   C3B50097   7.624  14.084   7.231
 3714POPC   C4B50098   7.773  14.344   7.584
 3715POPC   NC350099  35.883  17.452   5.554
 3715POPC   PO450100  35.305  17.172   5.391
 3715POPC   GL150101  35.412  17.422   5.753
 3715POPC   GL250102  35.210  17.702   5.874
 3715POPC   C1A50103  35.425  17.370   6.188
 3715POPC   D2A50104  35.293  17.599   6.557
 3715POPC   C3A50105  35.391  17.392   6.950
 3715POPC   C4A50106  35.302  17.630   7.342
 3715POPC   C1B50107  35.569  17.858   6.173
 3715POPC   C2B50108  35.748  17.828   6.615
 3715POPC   C3B50109  35.715  17.805   7.080
 3715POPC   C4B50110  35.705  17.806   7.611
 3716POPC   NC350111  10.768   5.486   5.390
 3716POPC   PO450112  10.523   4.981   5.448
 3716POPC   GL150113  10.780   4.931   5.837
 3716POPC   GL250114  10.754   4.606   5.946
 3716POPC   C1A50115  10.843   4.995   6.322
 3716POPC   D2A50116  10.943   5.079   6.790
 3716POPC   C3A50117  10.654   5.288   7.101
 3716POPC   C4A50118  10.580   5.381   7.545
 3716POPC   C1B50119  10.782   4.489   6.379
 3716POPC   C2B50120  10.580   4.725   6.722
 3716POPC   C3B50121  10.687   4.781   7.161
 3716POPC   C4B50122  10.608   4.529   7.545
 3717POPC   NC350123  35.553  12.438   5.372
 3717POPC   PO450124  35.565  13.099   5.401
 3717POPC   GL150125  35.529  12.850   5.781
 3717POPC   GL250126  35.403  13.153   5.915
 3717POPC   C1A50127  35.563  12.649   6.222
 3717POPC   D2A50128  35.672  12.436   6.664
 3717POPC   C3A50129  35.565  12.669   7.077
 3717POPC   C4A50130  35.441  13.100   7.232
 3717POPC   C1B50131  35.367  13.110   6.370
 3717POPC   C2B50132  35.242  12.961   6.782
 3717POPC   C3B50133  35.015  12.832   7.181
 3717POPC   C4B50134  34.760  12.737   7.566
 3718POPC   NC350135  37.972  32.234   5.326
 3718POPC   PO450136  38.473  32.716   5.401
 3718POPC   GL150137  38.523  32.337   5.705
 3718POPC   GL250138  38.261  32.089   5.724
 3718POPC   C1A50139  38.566  32.110   6.125
 3718POPC   D2A50140  38.478  32.260   6.525
 3718POPC   C3A50141  38.645  32.118   6.922
 3718POPC   C4A50142  38.549  32.264   7.308
 3718POPC   C1B50143  38.129  32.439   6.023
 3718POPC   C2B50144  37.973  32.468   6.464
 3718POPC   C3B50145  38.185  32.381   6.909
 3718POPC   C4B50146  38.126  32.049   7.163
 3719POPC   NC350147  32.384  28.966   5.171
 3719POPC   PO450148  32.063  29.464   5.444
 3719POPC   GL150149  32.380  29.240   5.684
 3719POPC   GL250150  32.217  28.937   5.753
 3719POPC   C1A50151  32.399  29.175   6.150
 3719POPC   D2A50152  32.167  29.210   6.543
 3719POPC   C3A50153  32.386  29.213   6.930
 3719POPC   C4A50154  32.445  28.859   7.145
 3719POPC   C1B50155  31.928  28.951   6.136
 3719POPC   C2B50156  31.876  28.781   6.547
 3719POPC   C3B50157  31.951  28.925   6.957
 3719POPC   C4B50158  31.680  28.817   7.266
 3720POPC   NC350159  20.007  24.861   5.344
 3720POPC   PO450160  20.060  25.502   5.416
 3720POPC   GL150161  19.869  25.447   5.815
 3720POPC   GL250162  19.806  25.099   5.779
 3720POPC   C1A50163  19.994  25.414   6.252
 3720POPC   D2A50164  20.182  25.346   6.627
 3720POPC   C3A50165  19.859  25.443   6.884
 3720POPC   C4A50166  19.749  25.546   7.239
 3720POPC   C1B50167  19.899  24.929   6.196
 3720POPC   C2B50168  20.076  24.853   6.610
 3720POPC   C3B50169  20.097  25.016   7.027
 3720POPC   C4B50170  19.699  25.003   7.193
 3721POPC   NC350171  11.445  25.091   5.145
 3721POPC   PO450172  10.754  25.101   5.472
 3721POPC   GL150173  11.098  25.340   5.738
 3721POPC   GL250174  10.975  25.613   5.975
 3721POPC   C1A50175  11.447  25.429   6.058
 3721POPC   D2A50176  11.545  25.516   6.510
 3721POPC   C3A50177  11.516  25.299   6.924
 3721POPC   C4A50178  11.389  25.505   7.320
 3721POPC   C1B50179  10.982  25.218   6.221
 3721POPC   C2B50180  10.905  25.110   6.652
 3721POPC   C3B50181  11.007  25.280   7.068
 3721POPC   C4B50182  11.015  25.191   7.514
 3722POPC   NC350183  38.322  14.866   5.349
 3722POPC   PO450184  38.704  14.327   5.306
 3722POPC   GL150185  38.436  14.334   5.674
 3722POPC   GL250186  38.673  14.552   5.850
 3722POPC   C1A50187  38.222  14.482   6.048
 3722POPC   D2A50188  38.250  14.435   6.495
 3722POPC   C3A50189  38.188  14.367   6.924
 3722POPC   C4A50190  38.208  14.398   7.365
 3722POPC   C1B50191  38.730  14.460   6.304
 3722POPC   C2B50192  38.702  14.441   6.763
 3722POPC   C3B50193  38.842  14.501   7.170
 3722POPC   C4B50194  39.031  14.884   7.324
 3723POPC   NC350195  17.351  13.050   4.989
 3723POPC   PO450196  17.853  12.853   5.491
 3723POPC   GL150197  17.628  12.680   5.831
 3723POPC   GL250198  17.332  12.866   5.782
 3723POPC   C1A50199  17.448  12.580   6.237
 3723POPC   D2A50200  17.520  12.768   6.623
 3723POPC   C3A50201  17.352  12.672   7.022
 3723POPC   C4A50202  17.714  12.698   7.254
 3723POPC   C1B50203  17.157  13.003   6.174
 3723POPC   C2B50204  17.019  12.828   6.562
 3723POPC   C3B50205  17.046  13.071   6.942
 3723POPC   C4B50206  16.924  13.003   7.342
 3724POPC   NC350207  33.364  19.985   5.419
 3724POPC   PO450208  32.815  19.589   5.203
 3724POPC   GL150209  32.845  19.572   5.681
 3724POPC   GL250210  33.171  19.402   5.768
 3724POPC   C1A50211  32.855  19.675   6.138
 3724POPC   D2A50212  32.685  19.650   6.561
 3724POPC   C3A50213  32.821  20.002   6.827
 3724POPC   C4A50214  32.945  20.060   7.269
 3724POPC   C1B50215  33.332  19.504   6.200
 3724POPC   C2B50216  33.239  19.832   6.519
 3724POPC   C3B50217  33.324  19.880   6.959
 3724POPC   C4B50218  33.314  19.727   7.390
 3725POPC   NC350219  23.745  25.806   5.453
 3725POPC   PO450220  23.627  26.397   5.597
 3725POPC   GL150221  23.850  26.153   5.832
 3725POPC   GL250222  24.172  26.260   5.926
 3725POPC   C1A50223  23.642  25.999   6.168
 3725POPC   D2A50224  23.603  26.141   6.572
 3725POPC   C3A50225  23.380  26.015   6.913
 3725POPC   C4A50226  23.437  26.228   7.314
 3725POPC   C1B50227  24.152  25.832   6.090
 3725POPC   C2B50228  23.957  25.751   6.480
 3725POPC   C3B50229  23.795  25.705   6.886
 3725POPC   C4B50230  24.071  25.635   7.200
 3726POPC   NC350231   8.149  27.443   5.117
 3726POPC   PO450232   8.076  26.779   5.391
 3726POPC   GL150233   8.150  26.848   5.796
 3726POPC   GL250234   8.492  26.937   5.900
 3726POPC   C1A50235   7.910  26.752   6.162
 3726POPC   D2A50236   8.020  26.874   6.554
 3726POPC   C3A50237   8.001  26.600   6.900
 3726POPC   C4A50238   8.003  26.802   7.261
 3726POPC   C1B50239   8.404  26.575   6.166
 3726POPC   C2B50240   8.484  26.654   6.594
 3726POPC   C3B50241   8.413  26.896   6.930
 3726POPC   C4B50242   8.526  26.821   7.328
 3727POPC   NC350243   7.987  42.864   5.347
 3727POPC   PO450244   8.620  42.834   5.412
 3727POPC   GL150245   8.357  42.880   5.780
 3727POPC   GL250246   8.006  42.797   5.869
 3727POPC   C1A50247   8.374  42.966   6.219
 3727POPC   D2A50248   8.178  42.931   6.594
 3727POPC   C3A50249   8.439  43.145   6.860
 3727POPC   C4A50250   8.295  43.073   7.250
 3727POPC   C1B50251   8.031  43.268   6.013
 3727POPC   C2B50252   8.002  43.456   6.466
 3727POPC   C3B50253   7.930  43.288   6.913
 3727POPC   C4B50254   7.834  42.887   7.166
 3728POPC   NC350255   4.169  14.676   5.477
 3728POPC   PO450256   4.314  14.032   5.538
 3728POPC   GL150257   4.362  14.344   5.814
 3728POPC   GL250258   4.000  14.360   5.833
 3728POPC   C1A50259   4.535  14.487   6.208
 3728POPC   D2A50260   4.672  14.318   6.592
 3728POPC   C3A50261   4.604  14.528   7.003
 3728POPC   C4A50262   4.306  14.403   7.331
 3728POPC   C1B50263   4.088  14.690   6.128
 3728POPC   C2B50264   4.244  14.784   6.539
 3728POPC   C3B50265   4.108  14.683   6.926
 3728POPC   C4B50266   3.861  14.707   7.287
 3729POPC   NC350267  36.119  13.223   5.286
 3729POPC   PO450268  36.425  12.590   5.347
 3729POPC   GL150269  36.363  12.898   5.712
 3729POPC   GL250270  36.017  13.020   5.762
 3729POPC   C1A50271  36.381  12.938   6.185
 3729POPC   D2A50272  36.270  12.990   6.644
 3729POPC   C3A50273  36.351  12.770   7.026
 3729POPC   C4A50274  36.084  12.724   7.380
 3729POPC   C1B50275  35.873  13.068   6.196
 3729POPC   C2B50276  35.766  12.927   6.626
 3729POPC   C3B50277  35.900  13.051   7.028
 3729POPC   C4B50278  35.869  13.229   7.470
 3730POPC   NC350279  13.098  23.268   5.392
 3730POPC   PO450280  12.499  23.013   5.608
 3730POPC   GL150281  12.932  22.907   5.743
 3730POPC   GL250282  13.077  22.552   5.753
 3730POPC   C1A50283  12.968  22.917   6.184
 3730POPC   D2A50284  12.944  23.176   6.554
 3730POPC   C3A50285  12.677  22.953   6.836
 3730POPC   C4A50286  12.651  22.856   7.255
 3730POPC   C1B50287  13.331  22.576   6.154
 3730POPC   C2B50288  13.257  22.753   6.594
 3730POPC   C3B50289  13.094  22.675   7.020
 3730POPC   C4B50290  13.155  22.650   7.517
 3731POPC   NC350291  27.940  20.345   5.467
 3731POPC   PO450292  27.624  20.878   5.118
 3731POPC   GL150293  27.582  20.750   5.632
 3731POPC   GL250294  27.666  20.468   5.885
 3731POPC   C1A50295  27.509  20.895   6.080
 3731POPC   D2A50296  27.553  20.573   6.413
 3731POPC   C3A50297  27.254  20.572   6.780
 3731POPC   C4A50298  27.370  20.821   7.151
 3731POPC   C1B50299  28.020  20.440   6.174
 3731POPC   C2B50300  28.156  20.273   6.581
 3731POPC   C3B50301  27.976  20.282   7.029
 3731POPC   C4B50302  27.610  20.325   7.344
 3732POPC   NC350303  11.716  30.807   5.513
 3732POPC   PO450304  11.154  30.465   5.338
 3732POPC   GL150305  11.205  30.712   5.760
 3732POPC   GL250306  11.374  31.076   5.773
 3732POPC   C1A50307  11.166  30.498   6.215
 3732POPC   D2A50308  11.195  30.222   6.589
 3732POPC   C3A50309  11.293  30.436   6.976
 3732POPC   C4A50310  11.117  30.793   7.207
 3732POPC   C1B50311  11.522  30.840   6.143
 3732POPC   C2B50312  11.356  30.880   6.554
 3732POPC   C3B50313  11.615  30.906   6.883
 3732POPC   C4B50314  11.632  30.809   7.273
 3733POPC   NC350315   5.686  34.213   5.557
 3733POPC   PO450316   6.101  33.666   5.496
 3733POPC   GL150317   5.928  33.824   5.828
 3733POPC   GL250318   6.123  34.136   5.822
 3733POPC   C1A50319   5.615  33.868   6.165
 3733POPC   D2A50320   5.628  34.021   6.593
 3733POPC   C3A50321   5.750  33.754   6.954
 3733POPC   C4A50322   5.626  33.724   7.370
 3733POPC   C1B50323   6.093  34.032   6.243
 3733POPC   C2B50324   6.126  33.874   6.614
 3733POPC   C3B50325   6.136  34.106   6.972
 3733POPC   C4B50326   6.108  33.927   7.345
 3734POPC   NC350327   3.972  20.151   4.915
 3734POPC   PO450328   4.257  19.788   5.488
 3734POPC   GL150329   4.274  19.883   5.895
 3734POPC   GL250330   4.174  20.205   5.886
 3734POPC   C1A50331   4.459  20.027   6.286
 3734POPC   D2A50332   4.642  20.005   6.685
 3734POPC   C3A50333   4.419  19.796   7.018
 3734POPC   C4A50334   4.421  19.437   7.305
 3734POPC   C1B50335   3.938  20.096   6.232
 3734POPC   C2B50336   4.059  19.936   6.623
 3734POPC   C3B50337   3.926  19.979   7.017
 3734POPC   C4B50338   4.139  20.268   7.185
 3735POPC   NC350339  29.784   0.515   4.929
 3735POPC   PO450340  30.104   0.104   5.418
 3735POPC   GL150341  30.123   0.065   5.882
 3735POPC   GL250342  30.096  44.772   6.030
 3735POPC   C1A50343  30.119   0.354   6.232
 3735POPC   D2A50344  30.103   0.250   6.631
 3735POPC   C3A50345  30.082   0.209   7.026
 3735POPC   C4A50346  30.132   0.487   7.353
 3735POPC   C1B50347  29.801  44.951   6.313
 3735POPC   C2B50348  29.644   0.010   6.753
 3735POPC   C3B50349  29.585   0.080   7.211
 3735POPC   C4B50350  29.922   0.053   7.479
 3736POPC   NC350351   6.430  37.282   5.246
 3736POPC   PO450352   6.799  36.723   5.248
 3736POPC   GL150353   6.793  36.796   5.702
 3736POPC   GL250354   6.615  37.093   5.728
 3736POPC   C1A50355   6.880  36.914   6.155
 3736POPC   D2A50356   6.682  36.835   6.551
 3736POPC   C3A50357   6.810  36.927   6.963
 3736POPC   C4A50358   6.588  36.994   7.321
 3736POPC   C1B50359   6.428  37.157   6.149
 3736POPC   C2B50360   6.460  37.316   6.545
 3736POPC   C3B50361   6.344  37.200   6.928
 3736POPC   C4B50362   6.124  37.213   7.309
 3737POPC   NC350363  37.924  27.527   5.880
 3737POPC   PO450364  38.259  27.832   5.358
 3737POPC   GL150365  38.385  27.729   5.841
 3737POPC   GL250366  38.390  27.349   5.952
 3737POPC   C1A50367  38.352  27.668   6.348
 3737POPC   D2A50368  38.444  27.405   6.718
 3737POPC   C3A50369  38.563  27.580   7.096
 3737POPC   C4A50370  38.360  27.619   7.452
 3737POPC   C1B50371  38.148  27.182   6.359
 3737POPC   C2B50372  37.945  27.305   6.760
 3737POPC   C3B50373  38.153  27.243   7.156
 3737POPC   C4B50374  38.169  26.888   7.411
 3738POPC   NC350375  29.543  30.915   5.327
 3738POPC   PO450376  28.997  30.594   5.265
 3738POPC   GL150377  29.065  30.686   5.698
 3738POPC   GL250378  29.201  31.004   5.796
 3738POPC   C1A50379  29.159  30.506   6.117
 3738POPC   D2A50380  29.126  30.603   6.583
 3738POPC   C3A50381  29.400  30.589   6.949
 3738POPC   C4A50382  29.186  30.470   7.341
 3738POPC   C1B50383  28.974  30.971   6.235
 3738POPC   C2B50384  28.868  31.044   6.700
 3738POPC   C3B50385  29.060  30.930   7.106
 3738POPC   C4B50386  29.300  31.081   7.502
 3739POPC   NC350387   0.771  31.364   5.440
 3739POPC   PO450388   1.206  31.704   5.179
 3739POPC   GL150389   1.195  31.749   5.694
 3739POPC   GL250390   1.166  31.414   5.831
 3739POPC   C1A50391   1.018  31.825   6.137
 3739POPC   D2A50392   0.946  31.657   6.549
 3739POPC   C3A50393   0.964  31.804   6.968
 3739POPC   C4A50394   0.764  31.725   7.387
 3739POPC   C1B50395   1.081  31.245   6.278
 3739POPC   C2B50396   1.113  31.222   6.767
 3739POPC   C3B50397   1.199  31.396   7.211
 3739POPC   C4B50398   1.403  31.225   7.608
 3740POPC   NC350399  15.892  43.427   5.443
 3740POPC   PO450400  15.667  42.811   5.423
 3740POPC   GL150401  15.866  43.051   5.804
 3740POPC   GL250402  16.205  43.154   5.797
 3740POPC   C1A50403  15.950  43.277   6.240
 3740POPC   D2A50404  16.169  43.367   6.644
 3740POPC   C3A50405  16.024  43.359   7.083
 3740POPC   C4A50406  15.755  43.230   7.433
 3740POPC   C1B50407  16.125  42.793   6.159
 3740POPC   C2B50408  15.996  42.681   6.609
 3740POPC   C3B50409  16.150  42.869   7.008
 3740POPC   C4B50410  16.075  42.828   7.473
 3741POPC   NC350411  35.255  13.432   5.457
 3741POPC   PO450412  35.636  14.034   5.454
 3741POPC   GL150413  35.466  13.986   5.863
 3741POPC   GL250414  35.236  13.734   5.860
 3741POPC   C1A50415  35.286  14.004   6.303
 3741POPC   D2A50416  35.432  13.793   6.669
 3741POPC   C3A50417  35.246  13.792   7.095
 3741POPC   C4A50418  35.194  13.930   7.526
 3741POPC   C1B50419  35.100  13.526   6.234
 3741POPC   C2B50420  35.005  13.487   6.675
 3741POPC   C3B50421  34.972  13.342   7.096
 3741POPC   C4B50422  35.170  13.444   7.481
 3742POPC   NC350423  20.335   2.097   5.374
 3742POPC   PO450424  20.957   1.840   5.264
 3742POPC   GL150425  20.873   1.725   5.711
 3742POPC   GL250426  20.698   2.028   5.765
 3742POPC   C1A50427  20.675   1.683   6.163
 3742POPC   D2A50428  20.552   1.899   6.586
 3742POPC   C3A50429  20.864   1.901   6.924
 3742POPC   C4A50430  21.025   1.995   7.369
 3742POPC   C1B50431  20.560   2.195   6.170
 3742POPC   C2B50432  20.362   2.407   6.552
 3742POPC   C3B50433  20.444   2.371   6.962
 3742POPC   C4B50434  20.563   2.167   7.328
 3743POPC   NC350435  12.473  15.883   5.141
 3743POPC   PO450436  13.003  15.649   5.484
 3743POPC   GL150437  12.776  15.686   5.841
 3743POPC   GL250438  12.847  15.993   5.890
 3743POPC   C1A50439  12.611  15.756   6.260
 3743POPC   D2A50440  12.508  16.000   6.620
 3743POPC   C3A50441  12.844  15.972   6.911
 3743POPC   C4A50442  12.958  15.695   7.228
 3743POPC   C1B50443  13.120  16.248   6.163
 3743POPC   C2B50444  13.311  16.235   6.556
 3743POPC   C3B50445  13.265  16.299   6.968
 3743POPC   C4B50446  13.099  16.191   7.349
 3744POPC   NC350447  26.575  10.060   5.654
 3744POPC   PO450448  27.070  10.501   5.426
 3744POPC   GL150449  26.954  10.487   5.817
 3744POPC   GL250450  26.624  10.558   5.801
 3744POPC   C1A50451  26.936  10.366   6.220
 3744POPC   D2A50452  26.989  10.607   6.548
 3744POPC   C3A50453  26.853  10.421   6.903
 3744POPC   C4A50454  27.008  10.557   7.265
 3744POPC   C1B50455  26.473  10.649   6.223
 3744POPC   C2B50456  26.563  10.904   6.591
 3744POPC   C3B50457  26.698  10.922   7.040
 3744POPC   C4B50458  26.709  10.876   7.516
 3745POPC   NC350459   5.395  34.937   5.328
 3745POPC   PO450460   5.990  34.588   5.507
 3745POPC   GL150461   5.898  34.568   5.964
 3745POPC   GL250462   5.557  34.515   5.960
 3745POPC   C1A50463   5.883  34.462   6.441
 3745POPC   D2A50464   5.609  34.476   6.841
 3745POPC   C3A50465   5.818  34.416   7.239
 3745POPC   C4A50466   6.203  34.691   7.211
 3745POPC   C1B50467   5.585  34.842   6.276
 3745POPC   C2B50468   5.662  34.986   6.700
 3745POPC   C3B50469   5.698  34.909   7.153
 3745POPC   C4B50470   5.459  34.971   7.531
 3746POPC   NC350471  34.739  41.136   5.457
 3746POPC   PO450472  34.208  40.606   5.455
 3746POPC   GL150473  34.502  40.829   5.802
 3746POPC   GL250474  34.753  40.591   5.921
 3746POPC   C1A50475  34.692  40.964   6.245
 3746POPC   D2A50476  34.669  40.755   6.654
 3746POPC   C3A50477  34.573  41.022   7.030
 3746POPC   C4A50478  34.324  41.189   7.410
 3746POPC   C1B50479  35.053  40.605   6.288
 3746POPC   C2B50480  35.151  40.547   6.738
 3746POPC   C3B50481  34.909  40.639   7.107
 3746POPC   C4B50482  34.469  40.498   7.071
 3747POPC   NC350483  40.547  41.347   5.553
 3747POPC   PO450484  41.022  41.582   5.171
 3747POPC   GL150485  40.951  41.628   5.741
 3747POPC   GL250486  40.604  41.675   5.918
 3747POPC   C1A50487  40.925  41.410   6.195
 3747POPC   D2A50488  41.153  41.298   6.580
 3747POPC   C3A50489  40.976  41.177   6.946
 3747POPC   C4A50490  40.588  41.281   7.170
 3747POPC   C1B50491  40.404  41.503   6.295
 3747POPC   C2B50492  40.467  41.565   6.735
 3747POPC   C3B50493  40.466  41.776   7.146
 3747POPC   C4B50494  40.453  41.658   7.592
 3748POPC   NC350495  15.240  16.071   5.604
 3748POPC   PO450496  14.636  15.869   5.431
 3748POPC   GL150497  14.894  15.721   5.793
 3748POPC   GL250498  15.247  15.660   5.917
 3748POPC   C1A50499  14.860  15.807   6.235
 3748POPC   D2A50500  15.049  15.943   6.616
 3748POPC   C3A50501  14.898  15.841   6.952
 3748POPC   C4A50502  15.145  15.797   7.289
 3748POPC   C1B50503  15.345  16.037   6.222
 3748POPC   C2B50504  15.367  16.322   6.612
 3748POPC   C3B50505  15.417  16.191   7.058
 3748POPC   C4B50506  15.598  16.354   7.460
 3749POPC   NC350507  11.468  43.434   5.458
 3749POPC   PO450508  11.024  42.843   5.505
 3749POPC   GL150509  11.263  43.062   5.775
 3749POPC   GL250510  11.065  43.367   5.769
 3749POPC   C1A50511  11.347  42.910   6.189
 3749POPC   D2A50512  11.292  43.084   6.582
 3749POPC   C3A50513  11.377  42.914   6.917
 3749POPC   C4A50514  11.650  42.980   7.219
 3749POPC   C1B50515  11.006  43.293   6.197
 3749POPC   C2B50516  10.818  43.239   6.610
 3749POPC   C3B50517  11.017  43.339   6.993
 3749POPC   C4B50518  11.142  43.085   7.326
 3750POPC   NC350519  24.046  13.414   5.400
 3750POPC   PO450520  23.465  13.851   5.526
 3750POPC   GL150521  23.715  13.751   5.866
 3750POPC   GL250522  23.779  13.403   5.824
 3750POPC   C1A50523  23.611  13.615   6.274
 3750POPC   D2A50524  23.427  13.495   6.645
 3750POPC   C3A50525  23.722  13.639   6.955
 3750POPC   C4A50526  23.795  14.067   7.162
 3750POPC   C1B50527  23.986  13.179   6.152
 3750POPC   C2B50528  23.907  13.258   6.575
 3750POPC   C3B50529  24.101  13.238   6.964
 3750POPC   C4B50530  23.877  13.230   7.321
 3751POPC   NC350531   1.283  36.522   5.439
 3751POPC   PO450532   1.188  35.864   5.349
 3751POPC   GL150533   1.257  35.833   5.781
 3751POPC   GL250534   1.171  36.164   5.905
 3751POPC   C1A50535   1.559  35.909   6.122
 3751POPC   D2A50536   1.441  36.228   6.427
 3751POPC   C3A50537   1.474  36.123   6.851
 3751POPC   C4A50538   1.358  36.235   7.259
 3751POPC   C1B50539   1.068  35.904   6.278
 3751POPC   C2B50540   1.001  36.004   6.712
 3751POPC   C3B50541   0.877  36.146   7.093
 3751POPC   C4B50542   0.926  35.984   7.455
 3752POPC   NC350543  28.123   9.863   5.170
 3752POPC   PO450544  28.724   9.712   5.242
 3752POPC   GL150545  28.320   9.648   5.635
 3752POPC   GL250546  28.249   9.357   5.836
 3752POPC   C1A50547  28.396   9.729   6.162
 3752POPC   D2A50548  28.438   9.469   6.569
 3752POPC   C3A50549  28.443   9.732   6.977
 3752POPC   C4A50550  28.580   9.648   7.377
 3752POPC   C1B50551  28.006   9.418   6.258
 3752POPC   C2B50552  27.968   9.609   6.662
 3752POPC   C3B50553  28.102   9.387   7.037
 3752POPC   C4B50554  28.287   9.225   7.439
 3753POPC   NC350555  44.475  44.121   5.481
 3753POPC   PO450556   0.059  43.702   5.379
 3753POPC   GL150557  44.838  43.838   5.730
 3753POPC   GL250558  44.935  43.554   5.959
 3753POPC   C1A50559  44.560  43.883   6.080
 3753POPC   D2A50560  44.353  43.865   6.509
 3753POPC   C3A50561  44.562  43.873   6.892
 3753POPC   C4A50562  44.365  43.783   7.290
 3753POPC   C1B50563   0.051  43.968   6.189
 3753POPC   C2B50564   0.015  44.303   6.528
 3753POPC   C3B50565  44.854  44.309   6.967
 3753POPC   C4B50566  44.849  44.025   7.300
 3754POPC   NC350567  12.541  10.060   5.518
 3754POPC   PO450568  12.823   9.547   5.544
 3754POPC   GL150569  12.931   9.946   5.828
 3754POPC   GL250570  13.195  10.259   5.871
 3754POPC   C1A50571  12.734   9.890   6.239
 3754POPC   D2A50572  12.637   9.539   6.519
 3754POPC   C3A50573  12.681   9.736   6.881
 3754POPC   C4A50574  12.739   9.874   7.306
 3754POPC   C1B50575  13.259   9.961   6.211
 3754POPC   C2B50576  13.138   9.722   6.595
 3754POPC   C3B50577  13.152   9.670   7.051
 3754POPC   C4B50578  13.283  10.007   7.321
 3755POPC   NC350579  26.373  18.431   5.499
 3755POPC   PO450580  25.982  18.033   5.280
 3755POPC   GL150581  26.081  18.081   5.724
 3755POPC   GL250582  25.759  18.167   5.763
 3755POPC   C1A50583  26.309  18.157   6.133
 3755POPC   D2A50584  26.496  18.319   6.500
 3755POPC   C3A50585  26.323  18.204   6.870
 3755POPC   C4A50586  26.426  18.348   7.258
 3755POPC   C1B50587  25.770  18.237   6.209
 3755POPC   C2B50588  25.930  18.413   6.587
 3755POPC   C3B50589  26.024  18.580   7.005
 3755POPC   C4B50590  25.861  18.259   7.277
 3756POPC   NC350591  24.195  27.258   5.437
 3756POPC   PO450592  24.813  27.453   5.289
 3756POPC   GL150593  24.669  27.419   5.740
 3756POPC   GL250594  24.370  27.553   5.800
 3756POPC   C1A50595  24.676  27.609   6.223
 3756POPC   D2A50596  24.516  27.664   6.695
 3756POPC   C3A50597  24.748  27.693   7.111
 3756POPC   C4A50598  24.680  27.468   7.534
 3756POPC   C1B50599  24.158  27.597   6.164
 3756POPC   C2B50600  24.064  27.423   6.550
 3756POPC   C3B50601  24.230  27.324   6.958
 3756POPC   C4B50602  24.271  27.641   7.259
 3757POPC   NC350603   5.575  42.799   5.206
 3757POPC   PO450604   5.784  43.441   5.374
 3757POPC   GL150605   5.822  43.266   5.787
 3757POPC   GL250606   6.156  43.402   5.816
 3757POPC   C1A50607   5.574  43.267   6.206
 3757POPC   D2A50608   5.424  43.209   6.644
 3757POPC   C3A50609   5.695  43.200   6.984
 3757POPC   C4A50610   5.775  42.974   7.363
 3757POPC   C1B50611   6.147  43.197   6.220
 3757POPC   C2B50612   6.171  43.228   6.672
 3757POPC   C3B50613   6.189  43.130   7.096
 3757POPC   C4B50614   6.049  43.404   7.440
 3758POPC   NC350615   4.431  32.418   5.196
 3758POPC   PO450616   4.242  33.079   5.358
 3758POPC   GL150617   4.167  33.006   5.786
 3758POPC   GL250618   4.191  33.366   5.859
 3758POPC   C1A50619   4.249  32.730   6.147
 3758POPC   D2A50620   4.539  32.805   6.479
 3758POPC   C3A50621   4.467  32.641   6.877
 3758POPC   C4A50622   4.183  32.795   7.167
 3758POPC   C1B50623   4.379  33.239   6.260
 3758POPC   C2B50624   4.542  33.275   6.702
 3758POPC   C3B50625   4.360  33.287   7.141
 3758POPC   C4B50626   4.019  33.367   7.445
 3759POPC   NC350627   3.602  29.321   5.408
 3759POPC   PO450628   3.088  29.539   5.668
 3759POPC   GL150629   3.411  29.274   5.878
 3759POPC   GL250630   3.725  29.067   5.823
 3759POPC   C1A50631   3.611  29.359   6.255
 3759POPC   D2A50632   3.466  29.315   6.682
 3759POPC   C3A50633   3.612  29.307   7.102
 3759POPC   C4A50634   3.405  29.196   7.495
 3759POPC   C1B50635   3.559  28.829   6.132
 3759POPC   C2B50636   3.460  28.760   6.563
 3759POPC   C3B50637   3.656  28.830   6.941
 3759POPC   C4B50638   3.866  28.930   7.359
 3760POPC   NC350639  23.355  24.858   5.050
 3760POPC   PO450640  23.432  25.426   5.461
 3760POPC   GL150641  23.638  25.230   5.810
 3760POPC   GL250642  23.933  25.015   5.744
 3760POPC   C1A50643  23.608  25.491   6.160
 3760POPC   D2A50644  23.439  25.645   6.514
 3760POPC   C3A50645  23.478  25.301   6.789
 3760POPC   C4A50646  23.543  25.350   7.226
 3760POPC   C1B50647  24.069  25.316   6.067
 3760POPC   C2B50648  23.916  25.256   6.494
 3760POPC   C3B50649  23.967  25.211   6.910
 3760POPC   C4B50650  24.080  25.142   7.316
 3761POPC   NC350651  13.827   9.124   5.436
 3761POPC   PO450652  13.266   8.768   5.663
 3761POPC   GL150653  13.545   8.972   5.875
 3761POPC   GL250654  13.845   8.803   5.858
 3761POPC   C1A50655  13.566   9.056   6.300
 3761POPC   D2A50656  13.315   9.208   6.630
 3761POPC   C3A50657  13.488   9.061   7.002
 3761POPC   C4A50658  13.805   9.231   7.295
 3761POPC   C1B50659  13.939   8.673   6.279
 3761POPC   C2B50660  13.718   8.722   6.700
 3761POPC   C3B50661  13.900   8.728   7.142
 3761POPC   C4B50662  14.006   8.848   7.597
 3762POPC   NC350663  18.085  31.838   5.303
 3762POPC   PO450664  18.447  31.220   5.426
 3762POPC   GL150665  18.453  31.431   5.820
 3762POPC   GL250666  18.242  31.728   5.791
 3762POPC   C1A50667  18.292  31.434   6.272
 3762POPC   D2A50668  18.368  31.527   6.713
 3762POPC   C3A50669  18.255  31.226   7.004
 3762POPC   C4A50670  18.129  31.120   7.419
 3762POPC   C1B50671  18.113  31.909   6.180
 3762POPC   C2B50672  17.991  31.826   6.600
 3762POPC   C3B50673  17.992  31.675   7.050
 3762POPC   C4B50674  17.810  31.894   7.403
 3763POPC   NC350675  30.638  41.316   5.627
 3763POPC   PO450676  30.659  40.708   5.328
 3763POPC   GL150677  30.735  40.797   5.756
 3763POPC   GL250678  30.406  40.848   5.793
 3763POPC   C1A50679  30.953  40.822   6.173
 3763POPC   D2A50680  31.031  40.694   6.626
 3763POPC   C3A50681  30.840  40.785   7.057
 3763POPC   C4A50682  31.050  41.064   7.399
 3763POPC   C1B50683  30.481  41.034   6.190
 3763POPC   C2B50684  30.439  40.853   6.590
 3763POPC   C3B50685  30.453  41.125   6.923
 3763POPC   C4B50686  30.549  41.133   7.326
 3764POPC   NC350687   5.696  36.616   5.274
 3764POPC   PO450688   5.959  37.264   5.291
 3764POPC   GL150689   6.114  37.034   5.650
 3764POPC   GL250690   6.295  36.704   5.538
 3764POPC   C1A50691   5.953  36.992   6.089
 3764POPC   D2A50692   5.976  37.173   6.521
 3764POPC   C3A50693   5.846  36.985   6.920
 3764POPC   C4A50694   5.622  37.197   7.257
 3764POPC   C1B50695   6.375  36.660   5.992
 3764POPC   C2B50696   6.216  36.670   6.431
 3764POPC   C3B50697   6.307  36.669   6.883
 3764POPC   C4B50698   6.122  36.721   7.297
 3765POPC   NC350699   1.600   0.900   5.482
 3765POPC   PO450700   1.743   1.512   5.233
 3765POPC   GL150701   1.722   1.346   5.755
 3765POPC   GL250702   1.530   1.048   5.942
 3765POPC   C1A50703   1.736   1.349   6.261
 3765POPC   D2A50704   1.924   1.149   6.659
 3765POPC   C3A50705   2.184   1.237   7.042
 3765POPC   C4A50706   2.537   1.484   7.195
 3765POPC   C1B50707   1.743   0.823   6.288
 3765POPC   C2B50708   1.586   0.773   6.709
 3765POPC   C3B50709   1.828   0.878   7.099
 3765POPC   C4B50710   1.796   1.221   7.385
 3766POPC   NC350711  43.388  29.330   5.301
 3766POPC   PO450712  42.783  29.207   5.470
 3766POPC   GL150713  43.193  29.072   5.712
 3766POPC   GL250714  43.312  29.379   5.859
 3766POPC   C1A50715  43.354  28.961   6.149
 3766POPC   D2A50716  43.541  29.048   6.576
 3766POPC   C3A50717  43.231  29.026   6.927
 3766POPC   C4A50718  43.195  28.872   7.344
 3766POPC   C1B50719  43.191  29.419   6.318
 3766POPC   C2B50720  43.068  29.476   6.772
 3766POPC   C3B50721  43.077  29.493   7.260
 3766POPC   C4B50722  43.099  29.660   7.706
 3767POPC   NC350723   1.103  44.338   5.316
 3767POPC   PO450724   1.025   0.029   5.211
 3767POPC   GL150725   1.166  44.751   5.620
 3767POPC   GL250726   0.926  44.708   5.900
 3767POPC   C1A50727   1.426  44.496   5.970
 3767POPC   D2A50728   1.510  44.299   6.404
 3767POPC   C3A50729   1.295  44.475   6.769
 3767POPC   C4A50730   1.315  44.481   7.215
 3767POPC   C1B50731   0.973  44.528   6.328
 3767POPC   C2B50732   0.779  44.399   6.725
 3767POPC   C3B50733   0.812  44.425   7.179
 3767POPC   C4B50734   0.934  44.737   7.508
 3768POPC   NC350735  35.457  37.962   5.404
 3768POPC   PO450736  34.864  37.567   5.346
 3768POPC   GL150737  35.199  37.600   5.690
 3768POPC   GL250738  35.444  37.320   5.823
 3768POPC   C1A50739  35.175  37.626   6.147
 3768POPC   D2A50740  35.324  37.519   6.575
 3768POPC   C3A50741  35.312  37.854   6.838
 3768POPC   C4A50742  35.095  37.943   7.196
 3768POPC   C1B50743  35.670  37.573   6.182
 3768POPC   C2B50744  35.786  37.799   6.593
 3768POPC   C3B50745  35.768  37.739   7.043
 3768POPC   C4B50746  35.459  37.423   7.088
 3769POPC   NC350747  44.878   7.909   5.365
 3769POPC   PO450748  44.374   8.319   5.371
 3769POPC   GL150749  44.643   8.248   5.678
 3769POPC   GL250750  44.433   8.024   5.779
 3769POPC   C1A50751  44.819   8.185   6.104
 3769POPC   D2A50752  44.832   8.012   6.532
 3769POPC   C3A50753  44.820   8.358   6.842
 3769POPC   C4A50754  44.943   8.325   7.264
 3769POPC   C1B50755  44.300   8.198   6.156
 3769POPC   C2B50756  44.340   8.244   6.605
 3769POPC   C3B50757  44.328   8.363   7.046
 3769POPC   C4B50758  44.467   8.049   7.334
 3770POPC   NC350759  36.311  13.954   5.192
 3770POPC   PO450760  36.536  13.331   5.470
 3770POPC   GL150761  36.153  13.531   5.704
 3770POPC   GL250762  35.752  13.508   5.714
 3770POPC   C1A50763  36.122  13.586   6.144
 3770POPC   D2A50764  36.363  13.456   6.488
 3770POPC   C3A50765  36.401  13.711   6.855
 3770POPC   C4A50766  36.114  13.763   7.173
 3770POPC   C1B50767  35.617  13.524   6.172
 3770POPC   C2B50768  35.811  13.433   6.590
 3770POPC   C3B50769  35.690  13.523   7.039
 3770POPC   C4B50770  35.683  13.720   7.467
 3771POPC   NC350771  40.264   8.834   5.502
 3771POPC   PO450772  39.654   9.072   5.306
 3771POPC   GL150773  39.802   9.216   5.773
 3771POPC   GL250774  40.171   9.066   5.969
 3771POPC   C1A50775  39.825   9.332   6.225
 3771POPC   D2A50776  40.188   9.213   6.499
 3771POPC   C3A50777  40.038   9.134   6.911
 3771POPC   C4A50778  39.788   9.279   7.251
 3771POPC   C1B50779  40.201   8.698   6.306
 3771POPC   C2B50780  40.447   8.561   6.653
 3771POPC   C3B50781  40.483   8.861   6.987
 3771POPC   C4B50782  40.227   8.973   7.351
 3772POPC   NC350783  20.390  14.247   5.407
 3772POPC   PO450784  21.049  14.065   5.345
 3772POPC   GL150785  20.728  14.013   5.741
 3772POPC   GL250786  20.350  13.874   5.753
 3772POPC   C1A50787  20.646  14.116   6.223
 3772POPC   D2A50788  20.535  14.123   6.715
 3772POPC   C3A50789  20.637  14.531   6.928
 3772POPC   C4A50790  20.947  14.622   7.261
 3772POPC   C1B50791  20.191  14.214   6.044
 3772POPC   C2B50792  20.174  14.382   6.458
 3772POPC   C3B50793  20.089  14.330   6.921
 3772POPC   C4B50794  20.350  14.414   7.322
 3773POPC   NC350795  37.949  30.622   5.405
 3773POPC   PO450796  37.242  30.693   5.401
 3773POPC   GL150797  37.523  30.592   5.747
 3773POPC   GL250798  37.825  30.398   5.847
 3773POPC   C1A50799  37.548  30.753   6.194
 3773POPC   D2A50800  37.295  30.774   6.584
 3773POPC   C3A50801  37.511  30.871   6.983
 3773POPC   C4A50802  37.977  30.991   7.103
 3773POPC   C1B50803  37.466  30.247   6.103
 3773POPC   C2B50804  37.512  30.300   6.524
 3773POPC   C3B50805  37.510  30.385   6.937
 3773POPC   C4B50806  37.874  30.497   7.152
 3774POPC   NC350807  19.513   9.501   5.367
 3774POPC   PO450808  18.887   9.746   5.439
 3774POPC   GL150809  19.010   9.709   5.862
 3774POPC   GL250810  19.251   9.456   5.817
 3774POPC   C1A50811  19.199   9.889   6.262
 3774POPC   D2A50812  19.318  10.051   6.681
 3774POPC   C3A50813  19.106   9.898   7.048
 3774POPC   C4A50814  19.308   9.899   7.431
 3774POPC   C1B50815  19.201   9.373   6.275
 3774POPC   C2B50816  19.198   9.510   6.726
 3774POPC   C3B50817  19.106   9.410   7.209
 3774POPC   C4B50818  18.815   9.281   7.583
 3775POPC   NC350819   6.254  26.088   5.455
 3775POPC   PO450820   6.902  26.089   5.323
 3775POPC   GL150821   6.683  26.029   5.742
 3775POPC   GL250822   6.475  25.720   5.767
 3775POPC   C1A50823   6.538  26.084   6.193
 3775POPC   D2A50824   6.674  26.376   6.525
 3775POPC   C3A50825   6.466  26.340   6.910
 3775POPC   C4A50826   6.541  26.533   7.270
 3775POPC   C1B50827   6.477  25.573   6.176
 3775POPC   C2B50828   6.658  25.660   6.572
 3775POPC   C3B50829   6.519  25.831   6.958
 3775POPC   C4B50830   6.673  26.045   7.344
 3776POPC   NC350831  20.756  16.889   5.042
 3776POPC   PO450832  20.728  16.340   5.342
 3776POPC   GL150833  20.687  16.561   5.755
 3776POPC   GL250834  20.490  16.366   5.992
 3776POPC   C1A50835  20.808  16.708   6.201
 3776POPC   D2A50836  20.612  16.681   6.626
 3776POPC   C3A50837  20.792  16.649   7.064
 3776POPC   C4A50838  20.710  16.752   7.530
 3776POPC   C1B50839  20.407  16.246   6.430
 3776POPC   C2B50840  20.456  16.263   6.883
 3776POPC   C3B50841  20.439  16.380   7.311
 3776POPC   C4B50842  20.289  16.439   7.745
 3777POPC   NC350843  25.058   5.802   5.473
 3777POPC   PO450844  25.580   6.262   5.435
 3777POPC   GL150845  25.351   6.101   5.815
 3777POPC   GL250846  25.357   5.727   5.866
 3777POPC   C1A50847  25.199   5.996   6.262
 3777POPC   D2A50848  25.176   6.073   6.719
 3777POPC   C3A50849  25.233   5.724   7.026
 3777POPC   C4A50850  25.236   5.810   7.456
 3777POPC   C1B50851  25.641   5.653   6.183
 3777POPC   C2B50852  25.556   5.756   6.610
 3777POPC   C3B50853  25.744   5.784   7.019
 3777POPC   C4B50854  25.643   5.552   7.366
 3778POPC   NC350855   4.795  36.461   5.482
 3778POPC   PO450856   4.720  35.880   5.704
 3778POPC   GL150857   5.096  36.107   5.809
 3778POPC   GL250858   5.417  35.883   5.778
 3778POPC   C1A50859   5.124  36.280   6.240
 3778POPC   D2A50860   4.791  36.335   6.554
 3778POPC   C3A50861   4.890  36.186   6.954
 3778POPC   C4A50862   5.332  36.190   7.102
 3778POPC   C1B50863   5.245  35.776   6.193
 3778POPC   C2B50864   5.256  35.924   6.625
 3778POPC   C3B50865   5.117  35.729   6.992
 3778POPC   C4B50866   5.267  35.763   7.395
 3779POPC   NC350867  26.817  39.677   5.024
 3779POPC   PO450868  26.644  40.221   5.485
 3779POPC   GL150869  26.935  40.234   5.855
 3779POPC   GL250870  26.817  39.926   6.085
 3779POPC   C1A50871  27.121  40.243   6.277
 3779POPC   D2A50872  26.828  40.081   6.598
 3779POPC   C3A50873  27.093  40.125   6.960
 3779POPC   C4A50874  27.086  40.387   7.304
 3779POPC   C1B50875  26.635  39.564   6.228
 3779POPC   C2B50876  26.798  39.562   6.622
 3779POPC   C3B50877  26.746  39.758   7.019
 3779POPC   C4B50878  26.943  39.891   7.404
 3780POPC   NC350879  36.765  15.634   5.526
 3780POPC   PO450880  36.894  16.274   5.427
 3780POPC   GL150881  36.946  16.056   5.778
 3780POPC   GL250882  37.278  16.125   5.861
 3780POPC   C1A50883  36.671  15.976   6.135
 3780POPC   D2A50884  36.429  15.955   6.515
 3780POPC   C3A50885  36.602  15.575   6.671
 3780POPC   C4A50886  36.693  15.547   7.082
 3780POPC   C1B50887  37.192  15.829   6.177
 3780POPC   C2B50888  37.012  15.866   6.578
 3780POPC   C3B50889  36.979  15.967   7.022
 3780POPC   C4B50890  37.222  15.686   7.276
 3781POPC   NC350891  44.937  39.796   5.365
 3781POPC   PO450892  44.486  40.369   5.365
 3781POPC   GL150893  44.472  40.223   5.793
 3781POPC   GL250894  44.743  39.999   5.791
 3781POPC   C1A50895  44.434  40.232   6.252
 3781POPC   D2A50896  44.628  40.219   6.664
 3781POPC   C3A50897  44.420  40.476   6.977
 3781POPC   C4A50898  44.214  40.321   7.333
 3781POPC   C1B50899  44.692  39.792   6.182
 3781POPC   C2B50900  44.900  39.729   6.558
 3781POPC   C3B50901  44.934  39.863   6.965
 3781POPC   C4B50902  44.595  39.998   7.186
 3782POPC   NC350903  23.438  27.471   5.444
 3782POPC   PO450904  24.088  27.704   5.381
 3782POPC   GL150905  23.824  27.592   5.764
 3782POPC   GL250906  23.517  27.819   5.817
 3782POPC   C1A50907  23.665  27.525   6.210
 3782POPC   D2A50908  23.522  27.394   6.603
 3782POPC   C3A50909  23.754  27.507   6.962
 3782POPC   C4A50910  23.787  27.544   7.386
 3782POPC   C1B50911  23.768  28.012   6.166
 3782POPC   C2B50912  23.788  27.873   6.599
 3782POPC   C3B50913  23.750  27.999   7.068
 3782POPC   C4B50914  23.716  28.146   7.511
 3783POPC   NC350915   1.864  34.102   5.557
 3783POPC   PO450916   2.323  33.620   5.410
 3783POPC   GL150917   2.113  33.734   5.790
 3783POPC   GL250918   1.760  33.635   5.763
 3783POPC   C1A50919   2.063  33.929   6.218
 3783POPC   D2A50920   1.943  34.112   6.632
 3783POPC   C3A50921   2.059  33.939   7.049
 3783POPC   C4A50922   1.936  33.972   7.507
 3783POPC   C1B50923   1.681  33.504   6.173
 3783POPC   C2B50924   1.575  33.728   6.550
 3783POPC   C3B50925   1.689  33.562   6.927
 3783POPC   C4B50926   1.578  33.628   7.335
 3784POPC   NC350927  28.964  11.496   5.495
 3784POPC   PO450928  29.624  11.913   5.416
 3784POPC   GL150929  29.398  11.677   5.803
 3784POPC   GL250930  29.239  11.346   5.894
 3784POPC   C1A50931  29.415  11.582   6.289
 3784POPC   D2A50932  29.205  11.356   6.668
 3784POPC   C3A50933  29.385  11.395   7.107
 3784POPC   C4A50934  29.517  11.579   7.486
 3784POPC   C1B50935  28.894  11.472   6.190
 3784POPC   C2B50936  28.776  11.635   6.578
 3784POPC   C3B50937  28.854  11.556   7.005
 3784POPC   C4B50938  28.936  11.180   7.221
 3785POPC   NC350939   1.030  32.106   5.334
 3785POPC   PO450940   1.597  32.371   5.637
 3785POPC   GL150941   1.321  32.213   5.877
 3785POPC   GL250942   0.990  32.238   5.821
 3785POPC   C1A50943   1.339  32.203   6.291
 3785POPC   D2A50944   1.452  31.961   6.595
 3785POPC   C3A50945   1.490  32.225   6.919
 3785POPC   C4A50946   1.356  31.998   7.235
 3785POPC   C1B50947   0.867  32.359   6.243
 3785POPC   C2B50948   1.030  32.362   6.692
 3785POPC   C3B50949   1.105  32.461   7.156
 3785POPC   C4B50950   1.041  32.662   7.542
 3786POPC   NC350951  43.015   4.153   5.356
 3786POPC   PO450952  43.560   4.485   5.362
 3786POPC   GL150953  43.318   4.339   5.729
 3786POPC   GL250954  43.468   4.035   5.849
 3786POPC   C1A50955  42.956   4.488   6.031
 3786POPC   D2A50956  43.113   4.358   6.443
 3786POPC   C3A50957  43.104   4.518   6.833
 3786POPC   C4A50958  42.881   4.552   7.185
 3786POPC   C1B50959  43.091   4.008   6.073
 3786POPC   C2B50960  43.029   3.859   6.510
 3786POPC   C3B50961  42.875   4.046   6.890
 3786POPC   C4B50962  42.929   4.003   7.329
 3787POPC   NC350963  29.389   8.499   5.502
 3787POPC   PO450964  29.788   8.016   5.631
 3787POPC   GL150965  29.577   8.212   5.970
 3787POPC   GL250966  29.703   8.560   5.936
 3787POPC   C1A50967  29.765   8.278   6.401
 3787POPC   D2A50968  30.010   8.037   6.703
 3787POPC   C3A50969  29.940   8.179   7.121
 3787POPC   C4A50970  29.565   8.343   7.299
 3787POPC   C1B50971  30.001   8.714   6.275
 3787POPC   C2B50972  30.056   8.655   6.746
 3787POPC   C3B50973  30.378   8.529   7.049
 3787POPC   C4B50974  30.359   8.285   7.431
 3788POPC   NC350975  13.672   2.122   5.340
 3788POPC   PO450976  13.419   1.463   5.326
 3788POPC   GL150977  13.595   1.735   5.692
 3788POPC   GL250978  13.909   1.616   5.845
 3788POPC   C1A50979  13.511   2.048   6.072
 3788POPC   D2A50980  13.455   2.330   6.444
 3788POPC   C3A50981  13.568   2.393   6.905
 3788POPC   C4A50982  13.746   2.217   7.263
 3788POPC   C1B50983  13.651   1.574   6.185
 3788POPC   C2B50984  13.647   1.803   6.527
 3788POPC   C3B50985  13.798   1.818   6.931
 3788POPC   C4B50986  13.510   1.723   7.213
 3789POPC   NC350987  25.947  19.271   5.363
 3789POPC   PO450988  26.476  18.891   5.442
 3789POPC   GL150989  26.118  18.958   5.752
 3789POPC   GL250990  25.870  18.681   5.795
 3789POPC   C1A50991  25.947  19.105   6.157
 3789POPC   D2A50992  26.129  19.264   6.538
 3789POPC   C3A50993  25.963  19.085   6.909
 3789POPC   C4A50994  25.992  19.220   7.323
 3789POPC   C1B50995  26.138  18.635   6.171
 3789POPC   C2B50996  26.282  18.779   6.589
 3789POPC   C3B50997  26.493  18.777   6.968
 3789POPC   C4B50998  26.366  18.851   7.395
 3790POPC   NC350999   3.889   1.439   5.415
 3790POPC   PO451000   4.455   1.131   5.261
 3790POPC   GL151001   4.368   1.417   5.633
 3790POPC   GL251002   4.210   1.199   5.788
 3790POPC   C1A51003   4.290   1.647   6.059
 3790POPC   D2A51004   4.142   1.567   6.514
 3790POPC   C3A51005   4.465   1.523   6.890
 3790POPC   C4A51006   4.320   1.460   7.368
 3790POPC   C1B51007   4.481   1.211   6.172
 3790POPC   C2B51008   4.363   1.063   6.579
 3790POPC   C3B51009   4.314   1.050   7.017
 3790POPC   C4B51010   4.644   1.049   7.331
 3791POPC   NC351011  20.902  24.435   5.480
 3791POPC   PO451012  20.352  24.623   5.572
 3791POPC   GL151013  20.658  24.676   5.876
 3791POPC   GL251014  20.837  24.971   5.818
 3791POPC   C1A51015  20.836  24.467   6.263
 3791POPC   D2A51016  20.992  24.397   6.706
 3791POPC   C3A51017  20.788  24.313   7.133
 3791POPC   C4A51018  20.333  24.275   7.262
 3791POPC   C1B51019  20.907  24.977   6.210
 3791POPC   C2B51020  20.772  24.843   6.603
 3791POPC   C3B51021  20.481  24.658   6.882
 3791POPC   C4B51022  20.481  24.758   7.295
 3792POPC   NC351023   5.036  35.593   5.550
 3792POPC   PO451024   4.849  34.964   5.304
 3792POPC   GL151025   5.025  35.065   5.718
 3792POPC   GL251026   5.393  34.993   5.820
 3792POPC   C1A51027   4.796  35.160   6.114
 3792POPC   D2A51028   4.986  35.116   6.528
 3792POPC   C3A51029   4.832  35.281   6.896
 3792POPC   C4A51030   4.971  35.345   7.315
 3792POPC   C1B51031   5.311  35.269   6.154
 3792POPC   C2B51032   5.393  35.424   6.584
 3792POPC   C3B51033   5.410  35.317   7.023
 3792POPC   C4B51034   5.652  35.412   7.370
 3793POPC   NC351035  27.857  26.843   5.560
 3793POPC   PO451036  27.277  27.086   5.335
 3793POPC   GL151037  27.296  27.028   5.830
 3793POPC   GL251038  27.602  26.812   5.998
 3793POPC   C1A51039  27.196  26.878   6.292
 3793POPC   D2A51040  27.427  26.584   6.590
 3793POPC   C3A51041  27.403  26.657   7.064
 3793POPC   C4A51042  27.561  26.807   7.471
 3793POPC   C1B51043  27.838  26.881   6.371
 3793POPC   C2B51044  27.833  26.793   6.804
 3793POPC   C3B51045  27.955  26.960   7.183
 3793POPC   C4B51046  28.075  26.761   7.544
 3794POPC   NC351047   1.275   9.461   5.614
 3794POPC   PO451048   1.081  10.055   5.330
 3794POPC   GL151049   1.145   9.921   5.795
 3794POPC   GL251050   1.499  10.021   5.818
 3794POPC   C1A51051   1.034   9.785   6.251
 3794POPC   D2A51052   1.268   9.788   6.642
 3794POPC   C3A51053   1.113   9.671   7.058
 3794POPC   C4A51054   1.080   9.879   7.440
 3794POPC   C1B51055   1.573   9.776   6.192
 3794POPC   C2B51056   1.637   9.404   6.471
 3794POPC   C3B51057   1.533   9.422   6.889
 3794POPC   C4B51058   1.585   9.828   7.063
 3795POPC   NC351059  14.956  38.039   5.268
 3795POPC   PO451060  15.024  37.449   5.385
 3795POPC   GL151061  15.154  37.461   5.789
 3795POPC   GL251062  15.432  37.662   5.709
 3795POPC   C1A51063  14.986  37.486   6.224
 3795POPC   D2A51064  14.928  37.260   6.629
 3795POPC   C3A51065  14.768  37.421   7.037
 3795POPC   C4A51066  14.822  37.824   7.255
 3795POPC   C1B51067  15.214  37.930   6.010
 3795POPC   C2B51068  15.127  37.930   6.453
 3795POPC   C3B51069  15.172  37.707   6.857
 3795POPC   C4B51070  15.309  37.910   7.240
 3796POPC   NC351071  25.514  14.297   5.388
 3796POPC   PO451072  24.934  14.616   5.389
 3796POPC   GL151073  25.141  14.408   5.726
 3796POPC   GL251074  25.408  14.643   5.765
 3796POPC   C1A51075  25.277  14.179   6.110
 3796POPC   D2A51076  25.361  14.008   6.548
 3796POPC   C3A51077  25.278  14.201   6.934
 3796POPC   C4A51078  25.212  14.375   7.334
 3796POPC   C1B51079  25.212  14.743   6.141
 3796POPC   C2B51080  25.289  14.562   6.539
 3796POPC   C3B51081  25.139  14.677   6.926
 3796POPC   C4B51082  24.890  14.775   7.287
 3797POPC   NC351083  37.716  10.255   5.322
 3797POPC   PO451084  37.929  10.863   5.368
 3797POPC   GL151085  37.816  10.582   5.747
 3797POPC   GL251086  37.950  10.220   5.824
 3797POPC   C1A51087  37.898  10.593   6.221
 3797POPC   D2A51088  38.116  10.516   6.623
 3797POPC   C3A51089  37.928  10.602   7.060
 3797POPC   C4A51090  37.712  10.481   7.491
 3797POPC   C1B51091  37.840  10.069   6.285
 3797POPC   C2B51092  37.753  10.171   6.751
 3797POPC   C3B51093  37.649  10.083   7.191
 3797POPC   C4B51094  37.620   9.972   7.654
 3798POPC   NC351095  23.081  23.941   5.340
 3798POPC   PO451096  23.077  24.607   5.314
 3798POPC   GL151097  23.138  24.454   5.726
 3798POPC   GL251098  22.867  24.221   5.770
 3798POPC   C1A51099  23.019  24.638   6.136
 3798POPC   D2A51100  22.676  24.701   6.436
 3798POPC   C3A51101  22.758  24.579   6.855
 3798POPC   C4A51102  23.053  24.596   7.177
 3798POPC   C1B51103  22.673  24.171   6.187
 3798POPC   C2B51104  22.463  24.207   6.589
 3798POPC   C3B51105  22.562  24.093   6.999
 3798POPC   C4B51106  22.650  24.348   7.333
 3799POPC   NC351107  34.337   6.792   5.073
 3799POPC   PO451108  34.479   6.572   5.481
 3799POPC   GL151109  34.577   6.516   5.935
 3799POPC   GL251110  34.942   6.593   5.953
 3799POPC   C1A51111  34.342   6.528   6.358
 3799POPC   D2A51112  34.434   6.825   6.713
 3799POPC   C3A51113  34.501   6.605   7.107
 3799POPC   C4A51114  34.349   6.707   7.522
 3799POPC   C1B51115  34.813   6.687   6.383
 3799POPC   C2B51116  34.929   6.708   6.845
 3799POPC   C3B51117  34.930   6.784   7.320
 3799POPC   C4B51118  35.058   6.684   7.777
 3800POPC   NC351119  17.081  38.973   5.441
 3800POPC   PO451120  16.410  39.220   5.315
 3800POPC   GL151121  16.667  39.156   5.713
 3800POPC   GL251122  16.752  38.774   5.776
 3800POPC   C1A51123  16.735  39.245   6.184
 3800POPC   D2A51124  16.887  39.455   6.582
 3800POPC   C3A51125  16.786  39.301   7.005
 3800POPC   C4A51126  16.493  39.156   7.331
 3800POPC   C1B51127  17.083  38.885   6.077
 3800POPC   C2B51128  17.121  38.975   6.521
 3800POPC   C3B51129  17.197  38.967   6.966
 3800POPC   C4B51130  16.944  38.873   7.293
 3801POPC   NC351131   6.764  44.041   5.373
 3801POPC   PO451132   6.431  43.551   5.161
 3801POPC   GL151133   6.517  43.738   5.698
 3801POPC   GL251134   6.832  43.844   5.843
 3801POPC   C1A51135   6.418  43.850   6.172
 3801POPC   D2A51136   6.158  44.054   6.544
 3801POPC   C3A51137   6.405  44.096   6.964
 3801POPC   C4A51138   6.523  43.740   7.272
 3801POPC   C1B51139   6.853  44.195   6.149
 3801POPC   C2B51140   6.737  44.224   6.580
 3801POPC   C3B51141   6.936  44.205   6.988
 3801POPC   C4B51142   6.920  44.044   7.418
 3802POPC   NC351143  44.262  10.393   5.394
 3802POPC   PO451144  43.699  10.241   5.590
 3802POPC   GL151145  43.731  10.586   5.852
 3802POPC   GL251146  44.068  10.541   5.848
 3802POPC   C1A51147  43.614  10.517   6.243
 3802POPC   D2A51148  44.008  10.491   6.433
 3802POPC   C3A51149  43.968  10.487   6.849
 3802POPC   C4A51150  43.642  10.473   7.165
 3802POPC   C1B51151  44.248  10.811   6.118
 3802POPC   C2B51152  44.223  10.936   6.537
 3802POPC   C3B51153  44.298  10.895   6.946
 3802POPC   C4B51154  44.117  10.667   7.291
 3803POPC   NC351155   5.255  40.503   5.617
 3803POPC   PO451156   5.140  39.924   5.288
 3803POPC   GL151157   5.162  40.014   5.737
 3803POPC   GL251158   4.837  40.045   5.899
 3803POPC   C1A51159   5.299  39.914   6.186
 3803POPC   D2A51160   5.146  40.048   6.610
 3803POPC   C3A51161   5.078  39.802   6.962
 3803POPC   C4A51162   5.350  39.788   7.319
 3803POPC   C1B51163   5.000  40.351   6.208
 3803POPC   C2B51164   4.838  40.460   6.591
 3803POPC   C3B51165   4.846  40.297   6.988
 3803POPC   C4B51166   5.218  40.265   7.184
 3804POPC   NC351167  11.017  34.089   5.072
 3804POPC   PO451168  11.447  33.724   5.479
 3804POPC   GL151169  11.398  33.622   5.847
 3804POPC   GL251170  11.395  33.966   5.939
 3804POPC   C1A51171  11.511  33.597   6.255
 3804POPC   D2A51172  11.709  33.685   6.623
 3804POPC   C3A51173  11.457  33.701   6.985
 3804POPC   C4A51174  11.428  33.659   7.438
 3804POPC   C1B51175  11.130  33.957   6.321
 3804POPC   C2B51176  10.915  33.814   6.736
 3804POPC   C3B51177  10.984  33.788   7.217
 3804POPC   C4B51178  11.043  33.799   7.750
 3805POPC   NC351179  22.486  37.915   5.391
 3805POPC   PO451180  22.066  37.389   5.507
 3805POPC   GL151181  22.315  37.482   5.866
 3805POPC   GL251182  22.250  37.840   5.858
 3805POPC   C1A51183  22.378  37.501   6.324
 3805POPC   D2A51184  22.408  37.575   6.785
 3805POPC   C3A51185  22.067  37.813   6.973
 3805POPC   C4A51186  21.761  37.648   7.244
 3805POPC   C1B51187  22.485  37.992   6.226
 3805POPC   C2B51188  22.481  38.121   6.681
 3805POPC   C3B51189  22.549  37.982   7.113
 3805POPC   C4B51190  22.548  37.824   7.552
 3806POPC   NC351191   5.286  23.105   5.354
 3806POPC   PO451192   4.880  22.603   5.429
 3806POPC   GL151193   4.947  22.807   5.827
 3806POPC   GL251194   5.273  23.012   5.853
 3806POPC   C1A51195   5.122  22.713   6.234
 3806POPC   D2A51196   5.323  22.748   6.623
 3806POPC   C3A51197   4.956  22.625   6.867
 3806POPC   C4A51198   4.857  22.704   7.274
 3806POPC   C1B51199   4.999  23.203   6.177
 3806POPC   C2B51200   4.906  23.062   6.587
 3806POPC   C3B51201   5.121  23.100   6.975
 3806POPC   C4B51202   5.042  23.481   7.131
 3807POPC   NC351203  31.982   1.940   5.306
 3807POPC   PO451204  32.652   2.131   5.311
 3807POPC   GL151205  32.463   1.975   5.697
 3807POPC   GL251206  32.107   1.959   5.802
 3807POPC   C1A51207  32.455   2.051   6.139
 3807POPC   D2A51208  32.194   1.997   6.491
 3807POPC   C3A51209  32.272   2.192   6.875
 3807POPC   C4A51210  32.300   2.041   7.291
 3807POPC   C1B51211  32.167   1.617   6.138
 3807POPC   C2B51212  31.949   1.539   6.528
 3807POPC   C3B51213  32.105   1.694   6.927
 3807POPC   C4B51214  31.973   1.616   7.328
 3808POPC   NC351215  42.572  31.545   5.394
 3808POPC   PO451216  42.087  31.071   5.217
 3808POPC   GL151217  42.143  31.470   5.660
 3808POPC   GL251218  42.492  31.667   5.855
 3808POPC   C1A51219  42.144  31.462   6.130
 3808POPC   D2A51220  42.380  31.329   6.504
 3808POPC   C3A51221  42.234  31.355   6.930
 3808POPC   C4A51222  42.513  31.215   7.272
 3808POPC   C1B51223  42.838  31.828   6.120
 3808POPC   C2B51224  42.952  31.639   6.519
 3808POPC   C3B51225  42.729  31.532   6.882
 3808POPC   C4B51226  42.503  31.715   7.213
 3809POPC   NC351227   7.685  41.194   5.549
 3809POPC   PO451228   7.353  40.645   5.471
 3809POPC   GL151229   7.331  40.917   5.804
 3809POPC   GL251230   7.139  41.233   5.674
 3809POPC   C1A51231   7.616  40.912   6.169
 3809POPC   D2A51232   7.797  40.697   6.531
 3809POPC   C3A51233   7.525  40.651   6.878
 3809POPC   C4A51234   7.595  40.674   7.288
 3809POPC   C1B51235   7.182  41.267   6.131
 3809POPC   C2B51236   7.389  41.204   6.530
 3809POPC   C3B51237   7.206  41.231   6.901
 3809POPC   C4B51238   7.335  41.112   7.277
 3810POPC   NC351239  31.169  34.495   5.066
 3810POPC   PO451240  30.667  34.295   5.463
 3810POPC   GL151241  30.699  34.532   5.863
 3810POPC   GL251242  30.634  34.902   5.751
 3810POPC   C1A51243  30.963  34.528   6.258
 3810POPC   D2A51244  31.128  34.507   6.709
 3810POPC   C3A51245  30.850  34.482   7.109
 3810POPC   C4A51246  30.696  34.435   7.557
 3810POPC   C1B51247  30.530  34.858   6.200
 3810POPC   C2B51248  30.688  34.780   6.603
 3810POPC   C3B51249  30.487  34.803   6.960
 3810POPC   C4B51250  30.586  34.885   7.331
 3811POPC   NC351251   8.435  13.626   5.260
 3811POPC   PO451252   7.858  13.847   5.164
 3811POPC   GL151253   8.051  13.615   5.594
 3811POPC   GL251254   8.376  13.824   5.721
 3811POPC   C1A51255   8.114  13.446   6.041
 3811POPC   D2A51256   8.325  13.374   6.469
 3811POPC   C3A51257   8.094  13.459   6.842
 3811POPC   C4A51258   8.248  13.535   7.251
 3811POPC   C1B51259   8.430  13.819   6.167
 3811POPC   C2B51260   8.170  13.871   6.526
 3811POPC   C3B51261   8.401  13.885   6.908
 3811POPC   C4B51262   8.703  13.864   7.242
 3812POPC   NC351263   8.116  23.853   5.298
 3812POPC   PO451264   8.367  23.249   5.358
 3812POPC   GL151265   8.286  23.585   5.692
 3812POPC   GL251266   8.547  23.854   5.741
 3812POPC   C1A51267   8.152  23.846   6.051
 3812POPC   D2A51268   8.058  23.933   6.490
 3812POPC   C3A51269   8.314  24.097   6.833
 3812POPC   C4A51270   8.229  23.978   7.259
 3812POPC   C1B51271   8.564  23.563   6.127
 3812POPC   C2B51272   8.520  23.697   6.557
 3812POPC   C3B51273   8.462  23.608   7.013
 3812POPC   C4B51274   8.545  23.690   7.528
 3813POPC   NC351275  24.614   1.289   5.071
 3813POPC   PO451276  24.390   1.429   5.465
 3813POPC   GL151277  24.571   1.272   5.889
 3813POPC   GL251278  24.417   0.956   5.849
 3813POPC   C1A51279  24.741   1.351   6.368
 3813POPC   D2A51280  24.820   1.427   6.857
 3813POPC   C3A51281  24.438   1.342   7.093
 3813POPC   C4A51282  24.181   0.977   7.178
 3813POPC   C1B51283  24.446   0.925   6.314
 3813POPC   C2B51284  24.602   0.976   6.738
 3813POPC   C3B51285  24.694   0.890   7.173
 3813POPC   C4B51286  24.485   0.671   7.525
 3814POPC   NC351287  12.717  36.741   5.543
 3814POPC   PO451288  12.478  37.363   5.420
 3814POPC   GL151289  12.597  37.108   5.868
 3814POPC   GL251290  13.002  37.001   5.881
 3814POPC   C1A51291  12.715  36.881   6.294
 3814POPC   D2A51292  13.117  37.001   6.566
 3814POPC   C3A51293  13.034  37.123   7.009
 3814POPC   C4A51294  12.659  36.943   7.191
 3814POPC   C1B51295  13.143  36.640   6.168
 3814POPC   C2B51296  12.999  36.492   6.564
 3814POPC   C3B51297  13.030  36.614   6.978
 3814POPC   C4B51298  13.212  36.409   7.339
 3815POPC   NC351299  21.325  44.382   5.357
 3815POPC   PO451300  21.250  43.735   5.377
 3815POPC   GL151301  21.404  43.985   5.708
 3815POPC   GL251302  21.124  44.207   5.816
 3815POPC   C1A51303  21.523  43.797   6.097
 3815POPC   D2A51304  21.278  43.828   6.461
 3815POPC   C3A51305  21.413  43.826   6.878
 3815POPC   C4A51306  21.506  44.022   7.276
 3815POPC   C1B51307  21.397  44.284   6.180
 3815POPC   C2B51308  21.254  44.312   6.622
 3815POPC   C3B51309  21.104  44.202   7.012
 3815POPC   C4B51310  20.978  43.772   7.154
 3816POPC   NC351311   1.640  27.984   5.470
 3816POPC   PO451312   1.113  28.504   5.459
 3816POPC   GL151313   1.246  28.216   5.752
 3816POPC   GL251314   1.542  28.400   5.764
 3816POPC   C1A51315   1.357  28.251   6.202
 3816POPC   D2A51316   1.154  28.438   6.530
 3816POPC   C3A51317   1.102  28.334   6.903
 3816POPC   C4A51318   1.115  28.200   7.288
 3816POPC   C1B51319   1.718  28.632   6.091
 3816POPC   C2B51320   1.850  28.571   6.521
 3816POPC   C3B51321   1.540  28.669   6.834
 3816POPC   C4B51322   1.379  28.631   7.233
 3817POPC   NC351323   0.606  10.018   5.415
 3817POPC   PO451324   0.827   9.522   5.678
 3817POPC   GL151325   0.623   9.816   5.917
 3817POPC   GL251326   0.296   9.779   5.829
 3817POPC   C1A51327   0.491   9.910   6.346
 3817POPC   D2A51328   0.734  10.119   6.676
 3817POPC   C3A51329   0.691   9.955   7.085
 3817POPC   C4A51330   0.574   9.746   7.453
 3817POPC   C1B51331   0.137   9.480   6.167
 3817POPC   C2B51332   0.181   9.322   6.610
 3817POPC   C3B51333   0.283   9.633   6.922
 3817POPC   C4B51334   0.228  10.065   6.884
 3818POPC   NC351335  15.082  40.987   5.171
 3818POPC   PO451336  15.288  40.351   5.211
 3818POPC   GL151337  15.133  40.531   5.651
 3818POPC   GL251338  15.057  40.911   5.674
 3818POPC   C1A51339  15.220  40.502   6.113
 3818POPC   D2A51340  15.256  40.710   6.538
 3818POPC   C3A51341  15.227  40.432   6.930
 3818POPC   C4A51342  14.943  40.428   7.298
 3818POPC   C1B51343  15.227  41.007   6.059
 3818POPC   C2B51344  15.127  41.227   6.402
 3818POPC   C3B51345  15.090  41.212   6.820
 3818POPC   C4B51346  14.958  40.871   7.050
 3819POPC   NC351347   2.976  13.583   5.210
 3819POPC   PO451348   2.434  13.263   5.378
 3819POPC   GL151349   2.727  13.425   5.709
 3819POPC   GL251350   3.106  13.386   5.775
 3819POPC   C1A51351   2.654  13.577   6.141
 3819POPC   D2A51352   2.882  13.849   6.475
 3819POPC   C3A51353   2.791  13.822   6.928
 3819POPC   C4A51354   2.543  13.559   7.192
 3819POPC   C1B51355   3.123  13.439   6.258
 3819POPC   C2B51356   2.813  13.365   6.615
 3819POPC   C3B51357   2.968  13.335   7.035
 3819POPC   C4B51358   2.944  13.453   7.473
 3820POPC   NC351359   4.105  39.432   5.073
 3820POPC   PO451360   4.042  38.904   5.512
 3820POPC   GL151361   4.276  39.128   5.822
 3820POPC   GL251362   4.038  39.344   5.979
 3820POPC   C1A51363   4.511  39.341   6.175
 3820POPC   D2A51364   4.748  39.456   6.564
 3820POPC   C3A51365   4.444  39.458   6.874
 3820POPC   C4A51366   4.275  39.503   7.265
 3820POPC   C1B51367   4.053  39.077   6.318
 3820POPC   C2B51368   4.016  39.100   6.736
 3820POPC   C3B51369   3.923  39.185   7.127
 3820POPC   C4B51370   4.061  39.055   7.519
 3821POPC   NC351371  24.003   4.254   5.519
 3821POPC   PO451372  23.509   4.578   5.427
 3821POPC   GL151373  23.552   4.314   5.795
 3821POPC   GL251374  23.776   4.540   5.885
 3821POPC   C1A51375  23.615   4.247   6.281
 3821POPC   D2A51376  23.711   4.440   6.707
 3821POPC   C3A51377  23.842   4.237   7.104
 3821POPC   C4A51378  23.809   3.928   7.467
 3821POPC   C1B51379  23.837   4.710   6.281
 3821POPC   C2B51380  24.148   4.737   6.614
 3821POPC   C3B51381  24.006   4.731   7.017
 3821POPC   C4B51382  23.562   4.688   7.150
 3822POPC   NC351383  22.562  26.525   5.421
 3822POPC   PO451384  22.942  27.118   5.498
 3822POPC   GL151385  22.805  26.828   5.787
 3822POPC   GL251386  23.088  26.814   5.976
 3822POPC   C1A51387  22.716  26.468   6.076
 3822POPC   D2A51388  22.668  26.330   6.510
 3822POPC   C3A51389  22.617  26.659   6.820
 3822POPC   C4A51390  22.957  26.861   7.100
 3822POPC   C1B51391  23.257  26.938   6.339
 3822POPC   C2B51392  23.338  26.906   6.751
 3822POPC   C3B51393  23.360  27.206   7.056
 3822POPC   C4B51394  23.390  27.265   7.484
 3823POPC   NC351395  24.333  41.247   5.387
 3823POPC   PO451396  23.882  41.752   5.477
 3823POPC   GL151397  24.176  41.516   5.823
 3823POPC   GL251398  24.534  41.442   5.810
 3823POPC   C1A51399  24.408  41.662   6.242
 3823POPC   D2A51400  24.325  41.771   6.691
 3823POPC   C3A51401  24.591  41.693   7.052
 3823POPC   C4A51402  24.360  41.465   7.393
 3823POPC   C1B51403  24.799  41.341   6.165
 3823POPC   C2B51404  24.772  41.399   6.632
 3823POPC   C3B51405  24.664  41.178   7.049
 3823POPC   C4B51406  24.705  41.109   7.504
 3824POPC   NC351407  24.394  19.099   5.375
 3824POPC   PO451408  24.909  18.692   5.497
 3824POPC   GL151409  24.750  19.010   5.819
 3824POPC   GL251410  24.414  19.134   5.871
 3824POPC   C1A51411  24.749  19.114   6.285
 3824POPC   D2A51412  24.830  19.449   6.610
 3824POPC   C3A51413  24.790  19.199   6.988
 3824POPC   C4A51414  24.430  18.951   7.082
 3824POPC   C1B51415  24.427  19.451   6.155
 3824POPC   C2B51416  24.312  19.529   6.571
 3824POPC   C3B51417  24.425  19.559   6.997
 3824POPC   C4B51418  24.119  19.340   7.199
 3825POPC   NC351419  34.900  15.803   5.397
 3825POPC   PO451420  34.277  16.054   5.363
 3825POPC   GL151421  34.407  15.970   5.773
 3825POPC   GL251422  34.515  15.623   5.750
 3825POPC   C1A51423  34.449  16.123   6.214
 3825POPC   D2A51424  34.308  15.962   6.609
 3825POPC   C3A51425  34.371  16.090   7.021
 3825POPC   C4A51426  34.363  15.797   7.345
 3825POPC   C1B51427  34.833  15.738   6.078
 3825POPC   C2B51428  34.825  15.873   6.516
 3825POPC   C3B51429  34.691  15.718   6.916
 3825POPC   C4B51430  34.827  15.978   7.252
 3826POPC   NC351431  40.005  38.666   5.661
 3826POPC   PO451432  39.693  39.202   5.228
 3826POPC   GL151433  39.898  39.405   5.644
 3826POPC   GL251434  40.162  39.178   5.794
 3826POPC   C1A51435  39.952  39.454   6.161
 3826POPC   D2A51436  39.883  39.228   6.585
 3826POPC   C3A51437  39.997  39.349   7.023
 3826POPC   C4A51438  40.160  39.307   7.471
 3826POPC   C1B51439  40.299  39.033   6.185
 3826POPC   C2B51440  40.354  39.042   6.627
 3826POPC   C3B51441  40.378  39.017   7.053
 3826POPC   C4B51442  40.657  39.214   7.319
 3827POPC   NC351443  16.341  23.659   5.349
 3827POPC   PO451444  15.885  24.071   5.628
 3827POPC   GL151445  15.842  23.603   5.808
 3827POPC   GL251446  16.097  23.371   5.700
 3827POPC   C1A51447  15.879  23.359   6.233
 3827POPC   D2A51448  15.713  23.417   6.641
 3827POPC   C3A51449  15.914  23.492   7.000
 3827POPC   C4A51450  15.678  23.313   7.285
 3827POPC   C1B51451  16.338  23.489   6.062
 3827POPC   C2B51452  16.290  23.538   6.518
 3827POPC   C3B51453  16.413  23.458   6.948
 3827POPC   C4B51454  16.414  23.729   7.331
 3828POPC   NC351455  38.486   4.508   5.439
 3828POPC   PO451456  38.406   3.880   5.488
 3828POPC   GL151457  38.347   4.187   5.831
 3828POPC   GL251458  38.140   4.499   5.819
 3828POPC   C1A51459  38.540   4.394   6.184
 3828POPC   D2A51460  38.680   4.236   6.571
 3828POPC   C3A51461  38.468   3.984   6.842
 3828POPC   C4A51462  38.649   4.114   7.205
 3828POPC   C1B51463  38.094   4.644   6.232
 3828POPC   C2B51464  38.180   4.361   6.573
 3828POPC   C3B51465  38.241   4.441   7.023
 3828POPC   C4B51466  38.069   4.575   7.439
 3829POPC   NC351467  12.601  30.341   5.477
 3829POPC   PO451468  13.187  30.697   5.464
 3829POPC   GL151469  12.843  30.684   5.816
 3829POPC   GL251470  12.621  31.003   5.877
 3829POPC   C1A51471  12.677  30.666   6.260
 3829POPC   D2A51472  12.798  30.751   6.700
 3829POPC   C3A51473  12.627  30.609   7.084
 3829POPC   C4A51474  12.886  30.571   7.461
 3829POPC   C1B51475  12.833  31.189   6.260
 3829POPC   C2B51476  12.932  31.233   6.717
 3829POPC   C3B51477  13.002  31.026   7.161
 3829POPC   C4B51478  13.025  30.999   7.672
 3830POPC   NC351479  32.959  32.718   5.399
 3830POPC   PO451480  33.407  33.238   5.467
 3830POPC   GL151481  33.129  33.061   5.800
 3830POPC   GL251482  33.271  32.704   5.807
 3830POPC   C1A51483  32.967  33.177   6.240
 3830POPC   D2A51484  32.640  33.276   6.493
 3830POPC   C3A51485  32.752  33.218   6.887
 3830POPC   C4A51486  33.123  33.119   7.127
 3830POPC   C1B51487  33.026  32.695   6.176
 3830POPC   C2B51488  32.869  32.767   6.603
 3830POPC   C3B51489  32.996  32.638   7.018
 3830POPC   C4B51490  32.799  32.442   7.377
 3831POPC   NC351491  24.758  35.477   5.464
 3831POPC   PO451492  24.365  35.053   5.371
 3831POPC   GL151493  24.360  35.294   5.766
 3831POPC   GL251494  24.684  35.198   5.876
 3831POPC   C1A51495  24.235  35.524   6.136
 3831POPC   D2A51496  24.425  35.617   6.546
 3831POPC   C3A51497  24.324  35.450   6.974
 3831POPC   C4A51498  24.149  35.058   7.095
 3831POPC   C1B51499  24.803  35.479   6.199
 3831POPC   C2B51500  24.941  35.658   6.608
 3831POPC   C3B51501  24.869  35.568   7.060
 3831POPC   C4B51502  24.927  35.389   7.475
 3832POPC   NC351503  28.331   6.167   5.447
 3832POPC   PO451504  28.457   6.833   5.422
 3832POPC   GL151505  28.211   6.786   5.787
 3832POPC   GL251506  28.406   6.502   5.847
 3832POPC   C1A51507  28.186   6.770   6.252
 3832POPC   D2A51508  28.313   6.953   6.660
 3832POPC   C3A51509  28.146   6.728   7.028
 3832POPC   C4A51510  27.916   6.877   7.374
 3832POPC   C1B51511  28.763   6.389   6.098
 3832POPC   C2B51512  28.783   6.271   6.516
 3832POPC   C3B51513  28.620   6.361   6.904
 3832POPC   C4B51514  28.850   6.388   7.282
 3833POPC   NC351515  43.278   8.083   5.137
 3833POPC   PO451516  43.081   8.607   5.462
 3833POPC   GL151517  43.124   8.353   5.821
 3833POPC   GL251518  42.974   8.051   5.770
 3833POPC   C1A51519  43.099   8.274   6.265
 3833POPC   D2A51520  42.919   8.242   6.662
 3833POPC   C3A51521  43.134   8.351   7.042
 3833POPC   C4A51522  43.190   8.250   7.480
 3833POPC   C1B51523  43.313   7.877   6.070
 3833POPC   C2B51524  43.228   7.815   6.544
 3833POPC   C3B51525  43.114   7.847   7.003
 3833POPC   C4B51526  43.169   7.711   7.445
 3834POPC   NC351527  14.511  23.754   5.306
 3834POPC   PO451528  13.829  23.810   5.335
 3834POPC   GL151529  14.205  23.761   5.725
 3834POPC   GL251530  14.577  23.576   5.768
 3834POPC   C1A51531  14.360  23.699   6.202
 3834POPC   D2A51532  14.394  23.560   6.644
 3834POPC   C3A51533  14.583  23.809   7.000
 3834POPC   C4A51534  14.420  23.966   7.399
 3834POPC   C1B51535  14.790  23.245   6.053
 3834POPC   C2B51536  14.715  23.188   6.545
 3834POPC   C3B51537  14.720  23.326   7.001
 3834POPC   C4B51538  14.449  23.443   7.393
 3835POPC   NC351539  21.158  31.670   5.424
 3835POPC   PO451540  21.734  31.261   5.401
 3835POPC   GL151541  21.484  31.423   5.774
 3835POPC   GL251542  21.126  31.290   5.795
 3835POPC   C1A51543  21.349  31.633   6.171
 3835POPC   D2A51544  21.503  31.795   6.608
 3835POPC   C3A51545  21.254  31.729   6.988
 3835POPC   C4A51546  21.084  31.851   7.405
 3835POPC   C1B51547  21.182  31.146   6.205
 3835POPC   C2B51548  21.349  31.299   6.587
 3835POPC   C3B51549  21.336  31.100   6.978
 3835POPC   C4B51550  21.301  31.341   7.332
 3836POPC   NC351551  23.029  25.702   5.476
 3836POPC   PO451552  22.990  26.318   5.376
 3836POPC   GL151553  22.883  26.106   5.770
 3836POPC   GL251554  22.606  25.824   5.756
 3836POPC   C1A51555  23.145  26.189   6.164
 3836POPC   D2A51556  23.188  26.453   6.552
 3836POPC   C3A51557  23.003  26.354   6.962
 3836POPC   C4A51558  22.986  26.009   7.254
 3836POPC   C1B51559  22.842  25.732   6.150
 3836POPC   C2B51560  22.972  25.903   6.548
 3836POPC   C3B51561  22.683  25.947   6.862
 3836POPC   C4B51562  22.480  25.876   7.237
 3837POPC   NC351563  16.083   8.343   5.319
 3837POPC   PO451564  16.533   8.011   5.385
 3837POPC   GL151565  16.223   8.210   5.789
 3837POPC   GL251566  15.857   8.134   5.896
 3837POPC   C1A51567  16.117   8.394   6.245
 3837POPC   D2A51568  15.909   8.178   6.604
 3837POPC   C3A51569  15.952   8.306   7.035
 3837POPC   C4A51570  16.247   8.214   7.371
 3837POPC   C1B51571  15.587   8.365   6.232
 3837POPC   C2B51572  15.362   8.286   6.655
 3837POPC   C3B51573  15.467   8.186   7.113
 3837POPC   C4B51574  15.803   7.923   7.357
 3838POPC   NC351575  34.282  29.133   5.658
 3838POPC   PO451576  33.764  29.227   5.217
 3838POPC   GL151577  33.786  29.312   5.664
 3838POPC   GL251578  33.723  28.994   5.818
 3838POPC   C1A51579  33.830  29.391   6.130
 3838POPC   D2A51580  33.769  29.443   6.593
 3838POPC   C3A51581  34.023  29.296   6.957
 3838POPC   C4A51582  33.839  29.343   7.352
 3838POPC   C1B51583  33.867  28.836   6.241
 3838POPC   C2B51584  33.931  28.850   6.708
 3838POPC   C3B51585  33.796  28.861   7.147
 3838POPC   C4B51586  33.995  28.890   7.557
 3839POPC   NC351587  36.515  23.664   5.663
 3839POPC   PO451588  36.390  24.193   5.215
 3839POPC   GL151589  36.332  24.115   5.707
 3839POPC   GL251590  36.070  23.819   5.834
 3839POPC   C1A51591  36.333  24.048   6.196
 3839POPC   D2A51592  36.297  24.188   6.618
 3839POPC   C3A51593  36.442  23.930   6.982
 3839POPC   C4A51594  36.352  23.515   7.175
 3839POPC   C1B51595  36.056  23.578   6.203
 3839POPC   C2B51596  36.208  23.678   6.601
 3839POPC   C3B51597  35.947  23.705   6.943
 3839POPC   C4B51598  35.831  23.326   7.172
 3840POPC   NC351599   9.011  30.001   5.451
 3840POPC   PO451600   8.738  29.400   5.403
 3840POPC   GL151601   8.880  29.627   5.781
 3840POPC   GL251602   9.243  29.666   5.858
 3840POPC   C1A51603   8.858  29.861   6.176
 3840POPC   D2A51604   9.040  30.100   6.528
 3840POPC   C3A51605   8.966  29.779   6.840
 3840POPC   C4A51606   8.655  29.726   7.207
 3840POPC   C1B51607   9.413  29.879   6.263
 3840POPC   C2B51608   9.497  29.941   6.699
 3840POPC   C3B51609   9.279  30.118   7.048
 3840POPC   C4B51610   9.143  29.917   7.411
 3841POPC   NC351611  18.480  35.972   5.268
 3841POPC   PO451612  17.895  36.239   5.428
 3841POPC   GL151613  18.168  36.162   5.826
 3841POPC   GL251614  18.483  35.919   5.792
 3841POPC   C1A51615  18.121  36.229   6.299
 3841POPC   D2A51616  17.864  36.094   6.678
 3841POPC   C3A51617  18.047  36.228   7.052
 3841POPC   C4A51618  18.464  36.280   7.174
 3841POPC   C1B51619  18.368  35.791   6.230
 3841POPC   C2B51620  18.341  35.920   6.672
 3841POPC   C3B51621  18.289  35.764   7.078
 3841POPC   C4B51622  18.626  35.826   7.302
 3842POPC   NC351623   3.554   5.777   5.425
 3842POPC   PO451624   2.939   5.494   5.415
 3842POPC   GL151625   3.037   5.769   5.819
 3842POPC   GL251626   3.276   6.033   5.805
 3842POPC   C1A51627   3.159   5.861   6.294
 3842POPC   D2A51628   3.283   5.957   6.762
 3842POPC   C3A51629   3.344   5.607   7.070
 3842POPC   C4A51630   3.606   5.600   7.458
 3842POPC   C1B51631   3.597   6.097   6.135
 3842POPC   C2B51632   3.745   5.876   6.513
 3842POPC   C3B51633   3.788   5.825   6.960
 3842POPC   C4B51634   3.538   6.061   7.239
 3843POPC   NC351635  21.222  32.511   5.459
 3843POPC   PO451636  21.523  31.936   5.299
 3843POPC   GL151637  21.376  32.014   5.766
 3843POPC   GL251638  21.195  32.326   5.907
 3843POPC   C1A51639  21.509  32.129   6.220
 3843POPC   D2A51640  21.581  32.481   6.517
 3843POPC   C3A51641  21.644  32.267   6.903
 3843POPC   C4A51642  21.408  32.188   7.236
 3843POPC   C1B51643  21.105  32.505   6.303
 3843POPC   C2B51644  21.162  32.198   6.648
 3843POPC   C3B51645  20.940  32.151   7.001
 3843POPC   C4B51646  20.956  32.349   7.374
 3844POPC   NC351647  12.908  37.562   5.369
 3844POPC   PO451648  12.985  38.221   5.502
 3844POPC   GL151649  12.846  37.933   5.830
 3844POPC   GL251650  12.773  37.584   5.851
 3844POPC   C1A51651  12.882  37.873   6.270
 3844POPC   D2A51652  12.975  37.970   6.690
 3844POPC   C3A51653  12.939  37.640   6.963
 3844POPC   C4A51654  13.108  37.806   7.274
 3844POPC   C1B51655  12.881  37.357   6.224
 3844POPC   C2B51656  12.727  37.313   6.637
 3844POPC   C3B51657  12.409  37.349   6.977
 3844POPC   C4B51658  12.475  37.337   7.447
 3845POPC   NC351659  11.927  24.364   5.415
 3845POPC   PO451660  11.808  25.065   5.563
 3845POPC   GL151661  11.990  24.685   5.803
 3845POPC   GL251662  12.228  24.364   5.858
 3845POPC   C1A51663  11.883  24.515   6.195
 3845POPC   D2A51664  11.998  24.684   6.586
 3845POPC   C3A51665  11.873  24.481   6.992
 3845POPC   C4A51666  11.875  24.738   7.368
 3845POPC   C1B51667  12.390  24.446   6.289
 3845POPC   C2B51668  12.513  24.268   6.706
 3845POPC   C3B51669  12.550  24.246   7.162
 3845POPC   C4B51670  12.290  24.477   7.450
 3846POPC   NC351671   6.400   9.207   5.411
 3846POPC   PO451672   5.749   9.071   5.340
 3846POPC   GL151673   5.976   9.191   5.716
 3846POPC   GL251674   6.167   8.884   5.820
 3846POPC   C1A51675   5.860   9.193   6.156
 3846POPC   D2A51676   5.728   8.887   6.494
 3846POPC   C3A51677   5.741   8.972   6.967
 3846POPC   C4A51678   5.563   8.724   7.351
 3846POPC   C1B51679   6.095   8.636   6.232
 3846POPC   C2B51680   6.116   8.624   6.709
 3846POPC   C3B51681   6.036   8.585   7.151
 3846POPC   C4B51682   5.952   8.455   7.573
 3847POPC   NC351683  37.512   0.676   5.725
 3847POPC   PO451684  37.482   0.131   5.558
 3847POPC   GL151685  37.576   0.226   5.969
 3847POPC   GL251686  37.903   0.315   5.889
 3847POPC   C1A51687  37.641   0.380   6.408
 3847POPC   D2A51688  37.511   0.773   6.672
 3847POPC   C3A51689  37.657   0.745   7.113
 3847POPC   C4A51690  37.569   0.308   7.232
 3847POPC   C1B51691  38.068   0.037   6.194
 3847POPC   C2B51692  38.062   0.001   6.652
 3847POPC   C3B51693  38.017   0.310   7.004
 3847POPC   C4B51694  38.067   0.334   7.481
 3848POPC   NC351695  12.435  40.936   5.335
 3848POPC   PO451696  13.058  40.809   5.412
 3848POPC   GL151697  12.741  40.748   5.728
 3848POPC   GL251698  12.600  41.072   5.807
 3848POPC   C1A51699  12.660  40.640   6.172
 3848POPC   D2A51700  12.754  40.830   6.556
 3848POPC   C3A51701  12.589  40.719   6.953
 3848POPC   C4A51702  12.709  40.824   7.366
 3848POPC   C1B51703  12.964  41.048   6.111
 3848POPC   C2B51704  13.226  41.029   6.515
 3848POPC   C3B51705  13.021  41.084   6.929
 3848POPC   C4B51706  13.116  41.175   7.352
 3849POPC   NC351707  12.187  13.162   5.555
 3849POPC   PO451708  11.894  12.498   5.578
 3849POPC   GL151709  12.201  12.553   5.874
 3849POPC   GL251710  12.178  12.893   5.977
 3849POPC   C1A51711  12.334  12.528   6.268
 3849POPC   D2A51712  12.011  12.600   6.540
 3849POPC   C3A51713  12.124  12.896   6.862
 3849POPC   C4A51714  12.381  12.740   7.237
 3849POPC   C1B51715  12.088  13.086   6.373
 3849POPC   C2B51716  11.765  13.314   6.595
 3849POPC   C3B51717  11.643  13.153   6.990
 3849POPC   C4B51718  11.920  12.941   7.318
 3850POPC   NC351719  38.943  30.727   5.392
 3850POPC   PO451720  39.614  30.625   5.465
 3850POPC   GL151721  39.291  30.560   5.801
 3850POPC   GL251722  39.189  30.888   5.808
 3850POPC   C1A51723  39.133  30.478   6.260
 3850POPC   D2A51724  39.344  30.682   6.645
 3850POPC   C3A51725  39.363  30.591   7.115
 3850POPC   C4A51726  39.520  30.704   7.534
 3850POPC   C1B51727  39.244  30.982   6.223
 3850POPC   C2B51728  38.971  31.157   6.518
 3850POPC   C3B51729  39.141  31.074   6.913
 3850POPC   C4B51730  39.364  31.120   7.268
 3851POPC   NC351731   7.376  42.116   5.318
 3851POPC   PO451732   6.931  42.625   5.409
 3851POPC   GL151733   7.189  42.480   5.774
 3851POPC   GL251734   7.545  42.351   5.748
 3851POPC   C1A51735   7.290  42.345   6.200
 3851POPC   D2A51736   7.189  42.386   6.607
 3851POPC   C3A51737   7.329  42.191   6.961
 3851POPC   C4A51738   7.162  42.365   7.303
 3851POPC   C1B51739   7.641  42.035   6.050
 3851POPC   C2B51740   7.582  42.035   6.506
 3851POPC   C3B51741   7.811  42.039   6.915
 3851POPC   C4B51742   7.729  42.325   7.287
 3852POPC   NC351743   8.416  14.605   5.454
 3852POPC   PO451744   7.977  14.111   5.677
 3852POPC   GL151745   7.962  14.545   5.754
 3852POPC   GL251746   7.746  14.490   6.017
 3852POPC   C1A51747   8.131  14.796   6.115
 3852POPC   D2A51748   8.391  14.703   6.484
 3852POPC   C3A51749   8.273  14.726   6.918
 3852POPC   C4A51750   8.568  14.913   7.217
 3852POPC   C1B51751   7.969  14.386   6.408
 3852POPC   C2B51752   7.952  14.245   6.843
 3852POPC   C3B51753   8.119  14.124   7.249
 3852POPC   C4B51754   8.445  14.351   7.301
 3853POPC   NC351755  29.954   5.309   5.452
 3853POPC   PO451756  29.533   4.823   5.626
 3853POPC   GL151757  29.881   4.994   5.957
 3853POPC   GL251758  30.236   5.048   5.858
 3853POPC   C1A51759  30.139   4.890   6.371
 3853POPC   D2A51760  30.298   4.890   6.833
 3853POPC   C3A51761  29.950   4.961   7.113
 3853POPC   C4A51762  29.599   4.937   7.449
 3853POPC   C1B51763  30.333   5.330   6.238
 3853POPC   C2B51764  30.182   5.379   6.698
 3853POPC   C3B51765  30.263   5.364   7.165
 3853POPC   C4B51766  30.124   5.556   7.554
 3854POPC   NC351767  33.730  34.637   5.290
 3854POPC   PO451768  34.235  34.992   5.644
 3854POPC   GL151769  34.095  34.623   5.864
 3854POPC   GL251770  33.772  34.458   5.805
 3854POPC   C1A51771  34.050  34.618   6.300
 3854POPC   D2A51772  34.100  34.426   6.662
 3854POPC   C3A51773  34.166  34.660   7.021
 3854POPC   C4A51774  34.014  34.602   7.417
 3854POPC   C1B51775  33.545  34.614   6.209
 3854POPC   C2B51776  33.642  34.702   6.635
 3854POPC   C3B51777  33.386  34.702   6.990
 3854POPC   C4B51778  33.495  34.578   7.379
 3855POPC   NC351779  18.856   1.796   5.434
 3855POPC   PO451780  19.270   2.332   5.346
 3855POPC   GL151781  19.355   2.148   5.759
 3855POPC   GL251782  19.231   1.799   5.792
 3855POPC   C1A51783  19.188   2.133   6.171
 3855POPC   D2A51784  19.121   2.302   6.563
 3855POPC   C3A51785  19.396   2.227   6.874
 3855POPC   C4A51786  19.256   1.923   7.167
 3855POPC   C1B51787  19.146   1.622   6.219
 3855POPC   C2B51788  19.160   1.773   6.662
 3855POPC   C3B51789  18.834   1.950   6.891
 3855POPC   C4B51790  18.759   1.863   7.304
 3856POPC   NC351791  33.385  26.870   5.265
 3856POPC   PO451792  32.919  26.425   5.448
 3856POPC   GL151793  33.217  26.566   5.793
 3856POPC   GL251794  33.309  26.927   5.808
 3856POPC   C1A51795  33.171  26.670   6.250
 3856POPC   D2A51796  33.006  26.509   6.652
 3856POPC   C3A51797  32.948  26.818   6.974
 3856POPC   C4A51798  33.058  26.954   7.388
 3856POPC   C1B51799  33.377  27.152   6.208
 3856POPC   C2B51800  33.227  27.163   6.657
 3856POPC   C3B51801  33.417  27.151   7.075
 3856POPC   C4B51802  33.466  27.226   7.566
 3857POPC   NC351803   4.099  35.862   5.326
 3857POPC   PO451804   4.637  36.238   5.080
 3857POPC   GL151805   4.367  36.218   5.542
 3857POPC   GL251806   4.359  36.486   5.751
 3857POPC   C1A51807   4.220  36.098   6.030
 3857POPC   D2A51808   4.368  36.057   6.469
 3857POPC   C3A51809   4.154  36.158   6.866
 3857POPC   C4A51810   4.067  36.016   7.263
 3857POPC   C1B51811   4.467  36.507   6.185
 3857POPC   C2B51812   4.275  36.553   6.572
 3857POPC   C3B51813   4.513  36.549   6.928
 3857POPC   C4B51814   4.515  36.421   7.332
 3858POPC   NC351815  18.023  15.051   5.437
 3858POPC   PO451816  18.570  15.355   5.275
 3858POPC   GL151817  18.518  15.280   5.736
 3858POPC   GL251818  18.188  15.189   5.903
 3858POPC   C1A51819  18.616  15.203   6.190
 3858POPC   D2A51820  18.352  15.073   6.535
 3858POPC   C3A51821  18.441  15.235   6.939
 3858POPC   C4A51822  18.644  15.516   7.239
 3858POPC   C1B51823  17.943  14.940   6.203
 3858POPC   C2B51824  17.856  15.051   6.641
 3858POPC   C3B51825  17.921  14.788   6.990
 3858POPC   C4B51826  18.082  15.062   7.250
 3859POPC   NC351827   2.472   2.605   5.464
 3859POPC   PO451828   2.818   3.076   5.199
 3859POPC   GL151829   2.748   2.978   5.699
 3859POPC   GL251830   2.798   2.641   5.842
 3859POPC   C1A51831   2.608   2.928   6.183
 3859POPC   D2A51832   2.430   2.891   6.608
 3859POPC   C3A51833   2.660   2.900   7.020
 3859POPC   C4A51834   2.669   3.138   7.453
 3859POPC   C1B51835   2.714   2.392   6.192
 3859POPC   C2B51836   2.634   2.400   6.606
 3859POPC   C3B51837   2.820   2.273   6.943
 3859POPC   C4B51838   2.805   2.481   7.294
 3860POPC   NC351839  25.651  39.473   5.548
 3860POPC   PO451840  25.114  39.690   5.163
 3860POPC   GL151841  25.126  39.421   5.625
 3860POPC   GL251842  25.346  39.100   5.723
 3860POPC   C1A51843  25.003  39.243   6.084
 3860POPC   D2A51844  25.120  38.946   6.441
 3860POPC   C3A51845  25.070  39.136   6.845
 3860POPC   C4A51846  25.063  39.239   7.282
 3860POPC   C1B51847  25.515  39.175   6.155
 3860POPC   C2B51848  25.627  39.092   6.593
 3860POPC   C3B51849  25.582  39.110   7.029
 3860POPC   C4B51850  25.481  38.837   7.356
 3861POPC   NC351851  10.700  12.871   5.463
 3861POPC   PO451852  10.072  12.634   5.488
 3861POPC   GL151853  10.314  12.837   5.850
 3861POPC   GL251854  10.608  13.085   5.922
 3861POPC   C1A51855  10.575  12.664   6.213
 3861POPC   D2A51856  10.480  12.721   6.639
 3861POPC   C3A51857  10.711  12.562   6.978
 3861POPC   C4A51858  10.726  12.917   7.225
 3861POPC   C1B51859  10.344  13.157   6.304
 3861POPC   C2B51860  10.220  13.176   6.761
 3861POPC   C3B51861  10.179  13.133   7.227
 3861POPC   C4B51862  10.083  13.296   7.675
 3862POPC   NC351863  44.628   4.528   5.496
 3862POPC   PO451864  44.831   3.799   5.527
 3862POPC   GL151865  44.528   3.914   5.872
 3862POPC   GL251866  44.705   4.217   5.888
 3862POPC   C1A51867  44.511   4.073   6.329
 3862POPC   D2A51868  44.804   4.145   6.703
 3862POPC   C3A51869  44.714   4.085   7.158
 3862POPC   C4A51870  44.457   4.283   7.492
 3862POPC   C1B51871  44.887   4.448   6.241
 3862POPC   C2B51872  44.979   4.661   6.638
 3862POPC   C3B51873  44.769   4.594   7.030
 3862POPC   C4B51874  44.898   4.542   7.442
 3863POPC   NC351875   7.589  21.523   5.464
 3863POPC   PO451876   7.169  21.113   5.422
 3863POPC   GL151877   7.189  21.323   5.800
 3863POPC   GL251878   7.112  21.008   5.953
 3863POPC   C1A51879   7.408  21.499   6.150
 3863POPC   D2A51880   7.650  21.437   6.550
 3863POPC   C3A51881   7.510  21.527   6.961
 3863POPC   C4A51882   7.618  21.163   7.174
 3863POPC   C1B51883   7.033  21.126   6.384
 3863POPC   C2B51884   7.197  21.128   6.813
 3863POPC   C3B51885   7.135  21.105   7.253
 3863POPC   C4B51886   7.066  21.024   7.678
 3864POPC   NC351887  20.972  39.379   5.574
 3864POPC   PO451888  20.316  39.039   5.469
 3864POPC   GL151889  20.599  39.069   5.774
 3864POPC   GL251890  20.451  39.385   5.869
 3864POPC   C1A51891  20.716  39.168   6.208
 3864POPC   D2A51892  20.771  39.446   6.551
 3864POPC   C3A51893  20.675  39.257   6.909
 3864POPC   C4A51894  20.462  39.070   7.235
 3864POPC   C1B51895  20.426  39.640   6.230
 3864POPC   C2B51896  20.336  39.763   6.667
 3864POPC   C3B51897  20.346  39.611   7.096
 3864POPC   C4B51898  20.256  39.463   7.496
 3865POPC   NC351899  22.941   7.225   5.029
 3865POPC   PO451900  22.776   7.776   5.476
 3865POPC   GL151901  23.058   7.722   5.841
 3865POPC   GL251902  23.102   7.340   5.986
 3865POPC   C1A51903  22.939   7.711   6.277
 3865POPC   D2A51904  23.173   7.407   6.521
 3865POPC   C3A51905  23.096   7.487   6.919
 3865POPC   C4A51906  22.879   7.510   7.273
 3865POPC   C1B51907  22.747   7.222   6.285
 3865POPC   C2B51908  22.709   7.221   6.734
 3865POPC   C3B51909  22.465   7.085   7.057
 3865POPC   C4B51910  22.597   7.122   7.485
 3866POPC   NC351911  32.967  22.520   5.298
 3866POPC   PO451912  32.775  21.889   5.449
 3866POPC   GL151913  32.839  22.136   5.851
 3866POPC   GL251914  32.777  22.491   5.785
 3866POPC   C1A51915  33.070  22.380   6.213
 3866POPC   D2A51916  33.195  22.373   6.668
 3866POPC   C3A51917  32.939  22.064   6.902
 3866POPC   C4A51918  33.040  21.815   7.241
 3866POPC   C1B51919  32.565  22.477   6.188
 3866POPC   C2B51920  32.606  22.357   6.619
 3866POPC   C3B51921  32.606  22.452   7.062
 3866POPC   C4B51922  32.845  22.262   7.401
 3867POPC   NC351923   4.342   0.010   5.679
 3867POPC   PO451924   4.672  44.480   5.410
 3867POPC   GL151925   4.364  44.467   5.775
 3867POPC   GL251926   3.998  44.576   5.873
 3867POPC   C1A51927   4.369  44.582   6.220
 3867POPC   D2A51928   4.534  44.486   6.597
 3867POPC   C3A51929   4.355  44.672   6.925
 3867POPC   C4A51930   4.521  44.831   7.275
 3867POPC   C1B51931   3.842  44.395   6.273
 3867POPC   C2B51932   3.959  44.409   6.704
 3867POPC   C3B51933   4.129  44.129   7.006
 3867POPC   C4B51934   4.198  44.371   7.320
 3868POPC   NC351935  35.965  34.022   5.496
 3868POPC   PO451936  36.500  34.272   5.643
 3868POPC   GL151937  36.334  33.842   5.793
 3868POPC   GL251938  36.001  33.704   5.904
 3868POPC   C1A51939  36.457  33.567   6.138
 3868POPC   D2A51940  36.156  33.567   6.490
 3868POPC   C3A51941  36.293  33.650   6.883
 3868POPC   C4A51942  36.086  33.901   7.157
 3868POPC   C1B51943  35.666  33.483   6.121
 3868POPC   C2B51944  35.694  33.340   6.526
 3868POPC   C3B51945  35.788  33.522   6.903
 3868POPC   C4B51946  35.673  33.621   7.294
 3869POPC   NC351947  25.532  43.063   5.716
 3869POPC   PO451948  25.026  43.061   5.343
 3869POPC   GL151949  25.043  43.188   5.782
 3869POPC   GL251950  25.057  42.847   5.860
 3869POPC   C1A51951  25.237  43.291   6.227
 3869POPC   D2A51952  25.395  43.405   6.662
 3869POPC   C3A51953  25.268  43.296   7.093
 3869POPC   C4A51954  25.338  43.516   7.499
 3869POPC   C1B51955  25.268  42.786   6.269
 3869POPC   C2B51956  25.244  42.878   6.711
 3869POPC   C3B51957  25.361  42.645   7.078
 3869POPC   C4B51958  25.251  42.633   7.507
 3870POPC   NC351959  17.762  11.800   5.228
 3870POPC   PO451960  17.716  11.133   5.284
 3870POPC   GL151961  17.533  11.223   5.699
 3870POPC   GL251962  17.463  11.537   5.591
 3870POPC   C1A51963  17.368  11.155   6.174
 3870POPC   D2A51964  17.459  10.976   6.563
 3870POPC   C3A51965  17.418  11.070   6.980
 3870POPC   C4A51966  17.413  11.157   7.414
 3870POPC   C1B51967  17.517  11.608   6.033
 3870POPC   C2B51968  17.621  11.505   6.470
 3870POPC   C3B51969  17.585  11.561   6.929
 3870POPC   C4B51970  17.701  11.615   7.371
 3871POPC   NC351971  10.938  24.487   5.501
 3871POPC   PO451972  11.568  24.639   5.256
 3871POPC   GL151973  11.404  24.688   5.716
 3871POPC   GL251974  11.057  24.837   5.847
 3871POPC   C1A51975  11.343  24.501   6.155
 3871POPC   D2A51976  11.529  24.455   6.581
 3871POPC   C3A51977  11.321  24.322   6.974
 3871POPC   C4A51978  11.504  24.357   7.386
 3871POPC   C1B51979  10.857  24.708   6.248
 3871POPC   C2B51980  10.937  24.569   6.692
 3871POPC   C3B51981  11.053  24.761   7.107
 3871POPC   C4B51982  11.143  24.671   7.559
 3872POPC   NC351983  32.990  40.503   5.375
 3872POPC   PO451984  32.805  39.833   5.416
 3872POPC   GL151985  32.942  40.086   5.737
 3872POPC   GL251986  33.119  39.816   5.906
 3872POPC   C1A51987  32.928  40.232   6.165
 3872POPC   D2A51988  32.938  40.028   6.572
 3872POPC   C3A51989  33.042  40.248   6.944
 3872POPC   C4A51990  32.997  40.209   7.379
 3872POPC   C1B51991  33.061  39.593   6.308
 3872POPC   C2B51992  33.105  39.552   6.770
 3872POPC   C3B51993  33.122  39.761   7.190
 3872POPC   C4B51994  33.283  39.879   7.624
 3873POPC   NC351995  44.330  35.334   5.418
 3873POPC   PO451996  43.777  35.337   5.397
 3873POPC   GL151997  43.918  35.265   5.814
 3873POPC   GL251998  44.253  35.366   5.940
 3873POPC   C1A51999  43.762  35.321   6.239
 3873POPC   D2A52000  43.711  35.543   6.647
 3873POPC   C3A52001  43.597  35.328   7.036
 3873POPC   C4A52002  43.635  35.426   7.496
 3873POPC   C1B52003  44.232  35.449   6.405
 3873POPC   C2B52004  44.184  35.310   6.832
 3873POPC   C3B52005  44.053  35.468   7.210
 3873POPC   C4B52006  43.938  35.829   7.494
 3874POPC   NC352007  21.973  34.817   5.350
 3874POPC   PO452008  22.306  34.248   5.294
 3874POPC   GL152009  22.302  34.511   5.691
 3874POPC   GL252010  21.948  34.585   5.810
 3874POPC   C1A52011  22.416  34.465   6.161
 3874POPC   D2A52012  22.203  34.440   6.568
 3874POPC   C3A52013  22.433  34.554   6.931
 3874POPC   C4A52014  22.289  34.494   7.332
 3874POPC   C1B52015  22.021  34.766   6.221
 3874POPC   C2B52016  22.132  34.967   6.589
 3874POPC   C3B52017  21.973  34.771   6.963
 3874POPC   C4B52018  21.771  34.786   7.333
 3875POPC   NC352019   6.872  24.768   5.468
 3875POPC   PO452020   6.508  24.329   5.229
 3875POPC   GL152021   6.523  24.430   5.699
 3875POPC   GL252022   6.856  24.459   5.857
 3875POPC   C1A52023   6.432  24.482   6.142
 3875POPC   D2A52024   6.585  24.430   6.557
 3875POPC   C3A52025   6.379  24.197   6.863
 3875POPC   C4A52026   6.274  24.301   7.277
 3875POPC   C1B52027   6.920  24.682   6.256
 3875POPC   C2B52028   6.939  24.765   6.720
 3875POPC   C3B52029   6.755  24.669   7.157
 3875POPC   C4B52030   6.985  24.839   7.583
 3876POPC   NC352031  24.895  22.891   5.122
 3876POPC   PO452032  24.261  23.040   5.361
 3876POPC   GL152033  24.238  22.832   5.777
 3876POPC   GL252034  24.571  22.929   5.872
 3876POPC   C1A52035  24.208  22.774   6.241
 3876POPC   D2A52036  24.351  22.956   6.648
 3876POPC   C3A52037  24.314  22.763   7.051
 3876POPC   C4A52038  24.407  23.034   7.419
 3876POPC   C1B52039  24.854  23.211   6.131
 3876POPC   C2B52040  24.830  23.128   6.563
 3876POPC   C3B52041  24.758  23.015   6.986
 3876POPC   C4B52042  24.779  22.712   7.306
 3877POPC   NC352043  19.820   8.533   5.480
 3877POPC   PO452044  19.887   9.217   5.485
 3877POPC   GL152045  19.873   8.922   5.843
 3877POPC   GL252046  20.198   8.734   5.895
 3877POPC   C1A52047  19.834   9.062   6.304
 3877POPC   D2A52048  19.486   9.083   6.621
 3877POPC   C3A52049  19.554   9.123   7.066
 3877POPC   C4A52050  19.949   9.284   7.188
 3877POPC   C1B52051  20.012   8.592   6.238
 3877POPC   C2B52052  20.062   8.629   6.654
 3877POPC   C3B52053  19.816   8.692   7.028
 3877POPC   C4B52054  19.480   8.583   7.324
 3878POPC   NC352055  12.012  41.780   5.388
 3878POPC   PO452056  12.065  41.060   5.581
 3878POPC   GL152057  11.895  41.334   5.815
 3878POPC   GL252058  12.132  41.612   5.867
 3878POPC   C1A52059  11.818  41.438   6.233
 3878POPC   D2A52060  11.885  41.278   6.627
 3878POPC   C3A52061  11.778  41.509   7.022
 3878POPC   C4A52062  11.884  41.368   7.437
 3878POPC   C1B52063  12.239  41.727   6.298
 3878POPC   C2B52064  12.216  41.674   6.748
 3878POPC   C3B52065  12.248  41.654   7.190
 3878POPC   C4B52066  12.328  41.558   7.633
 3879POPC   NC352067  10.693  37.997   5.625
 3879POPC   PO452068  10.919  37.410   5.440
 3879POPC   GL152069  10.585  37.508   5.818
 3879POPC   GL252070  10.296  37.764   5.924
 3879POPC   C1A52071  10.476  37.464   6.288
 3879POPC   D2A52072  10.648  37.662   6.706
 3879POPC   C3A52073  10.511  37.450   7.111
 3879POPC   C4A52074  10.151  37.488   7.402
 3879POPC   C1B52075  10.532  37.972   6.274
 3879POPC   C2B52076  10.733  38.202   6.592
 3879POPC   C3B52077  10.540  38.213   6.969
 3879POPC   C4B52078  10.449  37.927   7.300
 3880POPC   NC352079  37.499  43.968   5.567
 3880POPC   PO452080  37.986  43.691   5.406
 3880POPC   GL152081  37.935  43.817   5.821
 3880POPC   GL252082  38.000  43.502   5.970
 3880POPC   C1A52083  37.726  43.887   6.238
 3880POPC   D2A52084  37.465  44.021   6.583
 3880POPC   C3A52085  37.618  44.158   6.988
 3880POPC   C4A52086  37.579  44.163   7.415
 3880POPC   C1B52087  38.093  43.580   6.402
 3880POPC   C2B52088  37.917  43.812   6.754
 3880POPC   C3B52089  37.923  43.766   7.210
 3880POPC   C4B52090  38.026  43.843   7.680
 3881POPC   NC352091   3.189  14.100   5.552
 3881POPC   PO452092   3.690  14.573   5.437
 3881POPC   GL152093   3.441  14.533   5.772
 3881POPC   GL252094   3.100  14.691   5.726
 3881POPC   C1A52095   3.633  14.460   6.173
 3881POPC   D2A52096   3.909  14.379   6.517
 3881POPC   C3A52097   3.656  14.415   6.895
 3881POPC   C4A52098   3.537  14.271   7.311
 3881POPC   C1B52099   3.126  14.564   6.178
 3881POPC   C2B52100   3.283  14.197   6.437
 3881POPC   C3B52101   3.259  14.058   6.849
 3881POPC   C4B52102   3.041  14.278   7.179
 3882POPC   NC352103  41.727  10.245   5.472
 3882POPC   PO452104  41.222  10.756   5.311
 3882POPC   GL152105  41.408  10.573   5.696
 3882POPC   GL252106  41.713  10.654   5.833
 3882POPC   C1A52107  41.365  10.337   6.070
 3882POPC   D2A52108  41.448  10.270   6.484
 3882POPC   C3A52109  41.287  10.570   6.755
 3882POPC   C4A52110  41.381  10.433   7.165
 3882POPC   C1B52111  41.986  10.868   6.106
 3882POPC   C2B52112  41.931  10.706   6.506
 3882POPC   C3B52113  41.770  10.602   6.868
 3882POPC   C4B52114  41.875  10.561   7.260
 3883POPC   NC352115  43.548   8.523   5.548
 3883POPC   PO452116  43.700   7.919   5.261
 3883POPC   GL152117  43.928   8.121   5.646
 3883POPC   GL252118  44.059   8.478   5.741
 3883POPC   C1A52119  43.792   8.145   6.091
 3883POPC   D2A52120  43.616   8.162   6.513
 3883POPC   C3A52121  43.910   8.102   6.870
 3883POPC   C4A52122  43.956   8.093   7.318
 3883POPC   C1B52123  44.024   8.639   6.183
 3883POPC   C2B52124  43.938   8.571   6.642
 3883POPC   C3B52125  43.842   8.552   7.121
 3883POPC   C4B52126  44.104   8.539   7.542
 3884POPC   NC352127  13.420  33.690   4.975
 3884POPC   PO452128  13.883  33.994   5.401
 3884POPC   GL152129  13.638  33.719   5.689
 3884POPC   GL252130  13.846  33.503   5.915
 3884POPC   C1A52131  13.440  33.790   6.089
 3884POPC   D2A52132  13.489  34.154   6.360
 3884POPC   C3A52133  13.529  34.094   6.802
 3884POPC   C4A52134  13.621  33.917   7.171
 3884POPC   C1B52135  13.888  33.466   6.310
 3884POPC   C2B52136  13.659  33.686   6.543
 3884POPC   C3B52137  13.468  33.564   6.867
 3884POPC   C4B52138  13.826  33.443   7.150
 3885POPC   NC352139  36.148  17.993   5.384
 3885POPC   PO452140  36.518  18.488   5.470
 3885POPC   GL152141  36.239  18.313   5.795
 3885POPC   GL252142  35.883  18.322   5.748
 3885POPC   C1A52143  36.174  18.160   6.218
 3885POPC   D2A52144  36.227  17.978   6.612
 3885POPC   C3A52145  36.247  18.279   6.926
 3885POPC   C4A52146  36.445  18.219   7.288
 3885POPC   C1B52147  35.688  18.361   6.156
 3885POPC   C2B52148  35.863  18.370   6.576
 3885POPC   C3B52149  35.700  18.338   6.985
 3885POPC   C4B52150  35.937  18.173   7.345
 3886POPC   NC352151  30.199  35.880   5.523
 3886POPC   PO452152  29.742  36.304   5.267
 3886POPC   GL152153  29.811  36.346   5.735
 3886POPC   GL252154  29.523  36.247   5.933
 3886POPC   C1A52155  30.004  36.383   6.142
 3886POPC   D2A52156  29.819  36.464   6.566
 3886POPC   C3A52157  29.947  36.325   6.986
 3886POPC   C4A52158  29.685  36.299   7.372
 3886POPC   C1B52159  29.672  36.005   6.292
 3886POPC   C2B52160  29.767  35.927   6.724
 3886POPC   C3B52161  29.776  35.850   7.163
 3886POPC   C4B52162  29.979  35.509   7.374
 3887POPC   NC352163  15.075  22.390   5.170
 3887POPC   PO452164  15.575  22.124   5.549
 3887POPC   GL152165  15.277  22.346   5.812
 3887POPC   GL252166  14.992  22.137   5.818
 3887POPC   C1A52167  15.142  22.416   6.258
 3887POPC   D2A52168  15.102  22.187   6.658
 3887POPC   C3A52169  15.080  22.427   7.021
 3887POPC   C4A52170  15.348  22.472   7.379
 3887POPC   C1B52171  14.987  21.914   6.223
 3887POPC   C2B52172  14.823  21.772   6.620
 3887POPC   C3B52173  14.985  21.683   7.026
 3887POPC   C4B52174  15.132  22.008   7.280
 3888POPC   NC352175  10.837  11.880   5.459
 3888POPC   PO452176  10.190  11.759   5.491
 3888POPC   GL152177  10.459  11.954   5.813
 3888POPC   GL252178  10.431  12.328   5.784
 3888POPC   C1A52179  10.556  12.095   6.235
 3888POPC   D2A52180  10.806  12.272   6.562
 3888POPC   C3A52181  10.900  12.030   6.939
 3888POPC   C4A52182  10.733  11.883   7.329
 3888POPC   C1B52183  10.144  12.375   6.164
 3888POPC   C2B52184  10.221  12.280   6.612
 3888POPC   C3B52185  10.393  12.053   6.960
 3888POPC   C4B52186  10.325  11.603   7.058
 3889POPC   NC352187  14.519  11.636   5.399
 3889POPC   PO452188  14.139  11.186   5.426
 3889POPC   GL152189  14.380  11.273   5.788
 3889POPC   GL252190  14.261  11.589   5.859
 3889POPC   C1A52191  14.537  11.065   6.189
 3889POPC   D2A52192  14.655  11.235   6.598
 3889POPC   C3A52193  14.397  11.115   6.976
 3889POPC   C4A52194  14.117  11.433   7.205
 3889POPC   C1B52195  14.376  11.583   6.279
 3889POPC   C2B52196  14.219  11.535   6.697
 3889POPC   C3B52197  14.545  11.608   6.992
 3889POPC   C4B52198  14.857  11.301   7.071
 3890POPC   NC352199  34.610  14.908   5.334
 3890POPC   PO452200  34.378  14.339   5.182
 3890POPC   GL152201  34.558  14.361   5.629
 3890POPC   GL252202  34.779  14.653   5.746
 3890POPC   C1A52203  34.488  14.350   6.108
 3890POPC   D2A52204  34.675  14.285   6.553
 3890POPC   C3A52205  34.624  14.533   6.934
 3890POPC   C4A52206  34.447  14.446   7.359
 3890POPC   C1B52207  34.839  14.860   6.152
 3890POPC   C2B52208  34.765  14.902   6.580
 3890POPC   C3B52209  35.023  14.869   6.966
 3890POPC   C4B52210  34.882  14.739   7.380
 3891POPC   NC352211  34.427  42.534   5.111
 3891POPC   PO452212  34.328  42.048   5.635
 3891POPC   GL152213  34.702  42.155   5.896
 3891POPC   GL252214  34.432  42.252   6.113
 3891POPC   C1A52215  34.940  42.187   6.273
 3891POPC   D2A52216  34.732  42.291   6.660
 3891POPC   C3A52217  34.927  42.400   7.044
 3891POPC   C4A52218  34.796  42.356   7.478
 3891POPC   C1B52219  34.100  41.998   6.305
 3891POPC   C2B52220  33.874  41.951   6.704
 3891POPC   C3B52221  34.056  41.984   7.082
 3891POPC   C4B52222  34.349  42.296   7.044
 3892POPC   NC352223  18.795  12.034   5.224
 3892POPC   PO452224  18.144  12.035   5.342
 3892POPC   GL152225  18.250  12.085   5.830
 3892POPC   GL252226  18.015  12.292   6.005
 3892POPC   C1A52227  18.434  11.950   6.229
 3892POPC   D2A52228  18.361  12.101   6.623
 3892POPC   C3A52229  18.535  11.863   6.918
 3892POPC   C4A52230  18.380  12.059   7.268
 3892POPC   C1B52231  18.409  12.460   6.232
 3892POPC   C2B52232  18.684  12.514   6.608
 3892POPC   C3B52233  18.634  12.447   7.076
 3892POPC   C4B52234  18.676  12.340   7.563
 3893POPC   NC352235  16.572  21.621   5.478
 3893POPC   PO452236  16.847  21.078   5.614
 3893POPC   GL152237  16.776  21.405   5.910
 3893POPC   GL252238  16.434  21.333   5.877
 3893POPC   C1A52239  16.657  21.335   6.352
 3893POPC   D2A52240  16.852  21.075   6.647
 3893POPC   C3A52241  16.728  21.100   7.055
 3893POPC   C4A52242  16.864  21.410   7.301
 3893POPC   C1B52243  16.383  21.711   6.108
 3893POPC   C2B52244  16.384  21.756   6.541
 3893POPC   C3B52245  16.547  21.613   6.943
 3893POPC   C4B52246  16.380  21.498   7.345
 3894POPC   NC352247  10.992  20.892   5.544
 3894POPC   PO452248  11.581  20.591   5.569
 3894POPC   GL152249  11.375  20.737   5.894
 3894POPC   GL252250  11.056  20.597   5.951
 3894POPC   C1A52251  11.429  20.741   6.325
 3894POPC   D2A52252  11.312  20.955   6.694
 3894POPC   C3A52253  11.388  20.652   6.991
 3894POPC   C4A52254  11.460  20.358   7.321
 3894POPC   C1B52255  10.996  20.985   6.195
 3894POPC   C2B52256  10.769  20.973   6.566
 3894POPC   C3B52257  10.829  20.869   6.981
 3894POPC   C4B52258  10.987  20.620   7.305
 3895POPC   NC352259  22.182  43.901   5.398
 3895POPC   PO452260  21.752  44.350   5.550
 3895POPC   GL152261  21.931  43.984   5.823
 3895POPC   GL252262  22.314  43.991   5.885
 3895POPC   C1A52263  22.008  43.800   6.257
 3895POPC   D2A52264  21.818  43.616   6.628
 3895POPC   C3A52265  21.908  43.903   6.971
 3895POPC   C4A52266  22.115  43.969   7.338
 3895POPC   C1B52267  22.401  43.571   6.034
 3895POPC   C2B52268  22.282  43.406   6.474
 3895POPC   C3B52269  22.281  43.564   6.898
 3895POPC   C4B52270  22.530  43.641   7.302
 3896POPC   NC352271  43.250   9.048   5.395
 3896POPC   PO452272  42.541   9.246   5.344
 3896POPC   GL152273  42.809   9.112   5.700
 3896POPC   GL252274  42.983   9.390   5.728
 3896POPC   C1A52275  42.897   8.878   6.108
 3896POPC   D2A52276  43.069   8.702   6.519
 3896POPC   C3A52277  43.021   8.837   6.955
 3896POPC   C4A52278  43.241   8.757   7.343
 3896POPC   C1B52279  43.118   9.358   6.163
 3896POPC   C2B52280  42.993   9.191   6.557
 3896POPC   C3B52281  43.003   9.344   6.974
 3896POPC   C4B52282  43.151   9.254   7.412
 3897POPC   NC352283  19.620  39.242   5.283
 3897POPC   PO452284  19.023  39.431   5.143
 3897POPC   GL152285  19.203  39.304   5.598
 3897POPC   GL252286  19.343  38.933   5.737
 3897POPC   C1A52287  19.109  39.276   6.063
 3897POPC   D2A52288  19.135  39.210   6.519
 3897POPC   C3A52289  18.898  39.471   6.840
 3897POPC   C4A52290  18.785  39.451   7.285
 3897POPC   C1B52291  19.532  38.982   6.192
 3897POPC   C2B52292  19.458  38.853   6.658
 3897POPC   C3B52293  19.188  39.039   7.014
 3897POPC   C4B52294  19.272  39.294   7.399
 3898POPC   NC352295  22.389   3.707   5.365
 3898POPC   PO452296  21.839   3.455   5.707
 3898POPC   GL152297  22.168   3.642   5.848
 3898POPC   GL252298  22.493   3.507   5.816
 3898POPC   C1A52299  22.145   3.798   6.264
 3898POPC   D2A52300  21.888   3.884   6.628
 3898POPC   C3A52301  22.135   3.761   6.994
 3898POPC   C4A52302  21.978   3.430   7.262
 3898POPC   C1B52303  22.378   3.328   6.213
 3898POPC   C2B52304  22.309   3.433   6.647
 3898POPC   C3B52305  22.456   3.315   7.070
 3898POPC   C4B52306  22.412   3.275   7.517
 3899POPC   NC352307  10.098  32.473   5.438
 3899POPC   PO452308  10.564  32.048   5.328
 3899POPC   GL152309  10.580  31.996   5.765
 3899POPC   GL252310  10.234  32.106   5.794
 3899POPC   C1A52311  10.465  31.867   6.183
 3899POPC   D2A52312  10.352  31.986   6.579
 3899POPC   C3A52313  10.709  32.028   6.846
 3899POPC   C4A52314  10.548  32.070   7.245
 3899POPC   C1B52315  10.387  32.392   6.099
 3899POPC   C2B52316  10.472  32.503   6.504
 3899POPC   C3B52317  10.373  32.410   6.916
 3899POPC   C4B52318  10.181  32.445   7.296
 3900POPC   NC352319  17.898  12.385   5.491
 3900POPC   PO452320  17.342  12.000   5.384
 3900POPC   GL152321  17.622  12.035   5.744
 3900POPC   GL252322  17.873  11.790   5.726
 3900POPC   C1A52323  17.579  12.080   6.198
 3900POPC   D2A52324  17.369  11.915   6.574
 3900POPC   C3A52325  17.554  12.098   6.939
 3900POPC   C4A52326  17.467  12.266   7.325
 3900POPC   C1B52327  17.986  11.734   6.158
 3900POPC   C2B52328  17.892  11.914   6.575
 3900POPC   C3B52329  18.008  11.840   6.992
 3900POPC   C4B52330  17.905  12.063   7.379
 3901POPC   NC352331  44.343  29.049   5.395
 3901POPC   PO452332  43.673  28.935   5.318
 3901POPC   GL152333  43.744  29.156   5.694
 3901POPC   GL252334  44.070  29.329   5.718
 3901POPC   C1A52335  43.857  29.021   6.104
 3901POPC   D2A52336  44.134  28.843   6.419
 3901POPC   C3A52337  44.059  28.929   6.878
 3901POPC   C4A52338  43.678  28.934   7.145
 3901POPC   C1B52339  44.290  29.277   6.114
 3901POPC   C2B52340  44.307  29.297   6.577
 3901POPC   C3B52341  44.035  29.456   6.888
 3901POPC   C4B52342  43.931  29.340   7.312
 3902POPC   NC352343   0.638  20.075   5.375
 3902POPC   PO452344   0.349  19.511   5.390
 3902POPC   GL152345   0.348  19.842   5.736
 3902POPC   GL252346   0.673  19.754   5.866
 3902POPC   C1A52347   0.290  20.047   6.173
 3902POPC   D2A52348   0.422  19.944   6.628
 3902POPC   C3A52349   0.123  19.990   6.988
 3902POPC   C4A52350   0.039  19.829   7.431
 3902POPC   C1B52351   0.820  19.643   6.313
 3902POPC   C2B52352   0.699  19.492   6.743
 3902POPC   C3B52353   0.456  19.632   7.125
 3902POPC   C4B52354   0.508  20.023   7.384
 3903POPC   NC352355  13.380  36.207   5.507
 3903POPC   PO452356  14.011  36.342   5.507
 3903POPC   GL152357  13.792  35.954   5.726
 3903POPC   GL252358  13.465  35.729   5.710
 3903POPC   C1A52359  13.897  35.919   6.140
 3903POPC   D2A52360  13.990  36.123   6.492
 3903POPC   C3A52361  13.876  36.060   6.884
 3903POPC   C4A52362  13.831  36.392   7.177
 3903POPC   C1B52363  13.380  35.933   6.112
 3903POPC   C2B52364  13.447  36.245   6.426
 3903POPC   C3B52365  13.396  36.249   6.876
 3903POPC   C4B52366  13.397  35.936   7.213
 3904POPC   NC352367  19.608  12.663   5.284
 3904POPC   PO452368  20.212  12.689   5.624
 3904POPC   GL152369  19.836  12.675   5.842
 3904POPC   GL252370  19.639  12.931   5.752
 3904POPC   C1A52371  19.813  12.832   6.266
 3904POPC   D2A52372  19.836  12.705   6.703
 3904POPC   C3A52373  20.051  12.981   7.052
 3904POPC   C4A52374  20.178  13.074   7.524
 3904POPC   C1B52375  19.358  13.024   6.103
 3904POPC   C2B52376  19.365  12.907   6.562
 3904POPC   C3B52377  19.540  13.020   6.977
 3904POPC   C4B52378  19.679  12.963   7.402
 3905POPC   NC352379   1.451  39.229   5.295
 3905POPC   PO452380   0.808  39.335   5.337
 3905POPC   GL152381   1.087  39.275   5.688
 3905POPC   GL252382   1.264  39.543   5.743
 3905POPC   C1A52383   1.360  39.033   5.997
 3905POPC   D2A52384   1.527  39.097   6.398
 3905POPC   C3A52385   1.233  39.125   6.723
 3905POPC   C4A52386   1.243  38.930   7.113
 3905POPC   C1B52387   1.120  39.444   6.182
 3905POPC   C2B52388   0.916  39.675   6.506
 3905POPC   C3B52389   0.840  39.649   6.928
 3905POPC   C4B52390   1.111  39.432   7.184
 3906POPC   NC352391  14.014  37.711   5.335
 3906POPC   PO452392  13.387  37.574   5.420
 3906POPC   GL152393  13.699  37.575   5.717
 3906POPC   GL252394  13.769  37.265   5.903
 3906POPC   C1A52395  13.781  37.772   6.115
 3906POPC   D2A52396  13.758  37.633   6.559
 3906POPC   C3A52397  13.527  37.959   6.800
 3906POPC   C4A52398  13.560  38.023   7.226
 3906POPC   C1B52399  13.382  37.431   6.115
 3906POPC   C2B52400  13.235  37.538   6.536
 3906POPC   C3B52401  13.412  37.477   6.919
 3906POPC   C4B52402  13.404  37.363   7.302
 3907POPC   NC352403   2.091  12.044   5.407
 3907POPC   PO452404   1.745  12.580   5.133
 3907POPC   GL152405   1.796  12.357   5.659
 3907POPC   GL252406   2.210  12.193   5.854
 3907POPC   C1A52407   1.777  12.152   6.056
 3907POPC   D2A52408   1.810  11.992   6.466
 3907POPC   C3A52409   1.668  12.155   6.827
 3907POPC   C4A52410   1.687  11.917   7.198
 3907POPC   C1B52411   2.230  12.251   6.290
 3907POPC   C2B52412   2.141  12.343   6.708
 3907POPC   C3B52413   2.124  12.159   7.086
 3907POPC   C4B52414   2.329  11.775   7.211
 3908POPC   NC352415  44.413   7.073   5.076
 3908POPC   PO452416  44.822   6.700   5.547
 3908POPC   GL152417  44.725   6.591   5.910
 3908POPC   GL252418  44.902   6.285   5.877
 3908POPC   C1A52419  44.534   6.797   6.236
 3908POPC   D2A52420  44.617   6.988   6.621
 3908POPC   C3A52421  44.429   6.734   6.928
 3908POPC   C4A52422  44.490   6.732   7.354
 3908POPC   C1B52423   0.027   6.446   6.307
 3908POPC   C2B52424  44.958   6.585   6.751
 3908POPC   C3B52425  44.761   6.339   7.101
 3908POPC   C4B52426  44.818   6.108   7.506
 3909POPC   NC352427  38.169  15.661   5.403
 3909POPC   PO452428  38.206  16.309   5.531
 3909POPC   GL152429  38.163  16.133   5.969
 3909POPC   GL252430  38.164  15.771   5.901
 3909POPC   C1A52431  38.027  16.206   6.446
 3909POPC   D2A52432  37.992  16.182   6.927
 3909POPC   C3A52433  38.323  16.241   7.274
 3909POPC   C4A52434  38.365  16.260   7.749
 3909POPC   C1B52435  38.226  15.766   6.327
 3909POPC   C2B52436  38.051  15.700   6.722
 3909POPC   C3B52437  38.197  15.746   7.145
 3909POPC   C4B52438  38.170  15.830   7.553
 3910POPC   NC352439   2.172  24.187   5.328
 3910POPC   PO452440   2.028  24.788   5.428
 3910POPC   GL152441   1.984  24.531   5.802
 3910POPC   GL252442   1.662  24.409   5.906
 3910POPC   C1A52443   2.009  24.657   6.248
 3910POPC   D2A52444   1.757  24.918   6.549
 3910POPC   C3A52445   1.927  24.867   6.964
 3910POPC   C4A52446   2.194  24.532   7.168
 3910POPC   C1B52447   1.534  24.504   6.340
 3910POPC   C2B52448   1.694  24.434   6.768
 3910POPC   C3B52449   1.703  24.446   7.206
 3910POPC   C4B52450   1.844  24.834   7.462
 3911POPC   NC352451  25.535  35.267   5.261
 3911POPC   PO452452  25.110  35.760   5.476
 3911POPC   GL152453  25.215  35.553   5.806
 3911POPC   GL252454  25.566  35.544   5.732
 3911POPC   C1A52455  25.217  35.201   6.070
 3911POPC   D2A52456  25.294  35.250   6.503
 3911POPC   C3A52457  25.349  35.434   6.908
 3911POPC   C4A52458  25.235  35.089   7.187
 3911POPC   C1B52459  25.693  35.393   6.139
 3911POPC   C2B52460  25.834  35.262   6.548
 3911POPC   C3B52461  25.696  35.055   6.923
 3911POPC   C4B52462  25.706  35.281   7.321
 3912POPC   NC352463  26.295  41.034   5.473
 3912POPC   PO452464  25.777  40.586   5.347
 3912POPC   GL152465  25.944  40.752   5.755
 3912POPC   GL252466  26.026  40.448   5.952
 3912POPC   C1A52467  25.748  40.808   6.172
 3912POPC   D2A52468  25.779  40.513   6.515
 3912POPC   C3A52469  25.864  40.687   6.920
 3912POPC   C4A52470  25.874  40.939   7.306
 3912POPC   C1B52471  26.243  40.677   6.267
 3912POPC   C2B52472  26.461  40.831   6.622
 3912POPC   C3B52473  26.321  40.910   7.030
 3912POPC   C4B52474  26.227  40.561   7.266
 3913POPC   NC352475  11.739  14.056   5.537
 3913POPC   PO452476  11.414  14.725   5.550
 3913POPC   GL152477  11.328  14.519   5.924
 3913POPC   GL252478  11.456  14.198   5.996
 3913POPC   C1A52479  11.350  14.586   6.352
 3913POPC   D2A52480  11.438  14.262   6.657
 3913POPC   C3A52481  11.617  14.423   7.040
 3913POPC   C4A52482  11.435  14.587   7.411
 3913POPC   C1B52483  11.139  14.009   6.268
 3913POPC   C2B52484  10.927  13.867   6.647
 3913POPC   C3B52485  11.144  13.989   7.006
 3913POPC   C4B52486  11.044  14.313   7.283
 3914POPC   NC352487  23.399  11.603   5.512
 3914POPC   PO452488  23.933  11.258   5.241
 3914POPC   GL152489  23.995  11.171   5.715
 3914POPC   GL252490  23.662  11.163   5.872
 3914POPC   C1A52491  24.042  11.155   6.213
 3914POPC   D2A52492  23.705  11.246   6.569
 3914POPC   C3A52493  23.642  11.125   7.010
 3914POPC   C4A52494  23.702  11.159   7.463
 3914POPC   C1B52495  23.468  11.456   6.174
 3914POPC   C2B52496  23.435  11.711   6.531
 3914POPC   C3B52497  23.409  11.762   6.967
 3914POPC   C4B52498  23.353  11.486   7.311
 3915POPC   NC352499  22.382   8.051   5.057
 3915POPC   PO452500  21.973   8.280   5.584
 3915POPC   GL152501  22.174   8.259   5.937
 3915POPC   GL252502  22.426   8.497   5.864
 3915POPC   C1A52503  22.018   8.126   6.342
 3915POPC   D2A52504  22.156   7.945   6.744
 3915POPC   C3A52505  22.013   7.995   7.187
 3915POPC   C4A52506  22.074   8.069   7.635
 3915POPC   C1B52507  22.332   8.588   6.281
 3915POPC   C2B52508  22.231   8.452   6.679
 3915POPC   C3B52509  22.099   8.537   7.078
 3915POPC   C4B52510  22.332   8.469   7.483
 3916POPC   NC352511  14.234  21.919   5.434
 3916POPC   PO452512  14.644  22.404   5.312
 3916POPC   GL152513  14.494  22.278   5.742
 3916POPC   GL252514  14.127  22.300   5.766
 3916POPC   C1A52515  14.631  22.286   6.193
 3916POPC   D2A52516  14.658  22.421   6.618
 3916POPC   C3A52517  14.632  22.137   6.945
 3916POPC   C4A52518  14.614  22.389   7.313
 3916POPC   C1B52519  14.214  22.023   6.119
 3916POPC   C2B52520  14.339  21.916   6.522
 3916POPC   C3B52521  14.114  21.980   6.867
 3916POPC   C4B52522  14.214  22.048   7.251
 3917POPC   NC352523  34.604  38.032   5.429
 3917POPC   PO452524  34.313  37.468   5.124
 3917POPC   GL152525  34.401  37.570   5.609
 3917POPC   GL252526  34.251  37.873   5.818
 3917POPC   C1A52527  34.675  37.550   5.989
 3917POPC   D2A52528  34.746  37.754   6.396
 3917POPC   C3A52529  34.855  37.585   6.788
 3917POPC   C4A52530  34.735  37.513   7.192
 3917POPC   C1B52531  34.243  37.698   6.273
 3917POPC   C2B52532  34.314  37.613   6.740
 3917POPC   C3B52533  34.236  37.619   7.184
 3917POPC   C4B52534  34.398  37.422   7.569
 3918POPC   NC352535  23.256   8.279   5.478
 3918POPC   PO452536  22.546   8.369   5.367
 3918POPC   GL152537  22.833   8.227   5.755
 3918POPC   GL252538  22.649   8.022   5.932
 3918POPC   C1A52539  23.042   8.213   6.214
 3918POPC   D2A52540  23.260   7.973   6.594
 3918POPC   C3A52541  23.075   7.989   7.030
 3918POPC   C4A52542  22.950   8.398   7.119
 3918POPC   C1B52543  22.538   8.126   6.313
 3918POPC   C2B52544  22.687   8.108   6.692
 3918POPC   C3B52545  22.491   8.195   7.058
 3918POPC   C4B52546  22.558   7.976   7.397
 3919POPC   NC352547   6.385  34.804   5.292
 3919POPC   PO452548   6.858  34.319   5.477
 3919POPC   GL152549   6.706  34.647   5.744
 3919POPC   GL252550   6.388  34.636   5.795
 3919POPC   C1A52551   6.762  34.791   6.162
 3919POPC   D2A52552   6.550  34.810   6.559
 3919POPC   C3A52553   6.894  34.803   6.881
 3919POPC   C4A52554   6.892  34.752   7.329
 3919POPC   C1B52555   6.425  34.408   6.152
 3919POPC   C2B52556   6.406  34.292   6.558
 3919POPC   C3B52557   6.529  34.441   6.920
 3919POPC   C4B52558   6.585  34.342   7.322
 3920POPC   NC352559  32.799  18.202   5.716
 3920POPC   PO452560  33.461  17.922   5.563
 3920POPC   GL152561  33.321  18.118   5.908
 3920POPC   GL252562  33.095  17.863   5.961
 3920POPC   C1A52563  33.195  18.315   6.308
 3920POPC   D2A52564  32.855  18.253   6.638
 3920POPC   C3A52565  32.842  18.462   7.072
 3920POPC   C4A52566  32.641  18.709   7.418
 3920POPC   C1B52567  33.088  17.819   6.407
 3920POPC   C2B52568  33.184  17.884   6.831
 3920POPC   C3B52569  33.010  17.947   7.232
 3920POPC   C4B52570  33.166  17.843   7.639
 3921POPC   NC352571   0.631  15.349   5.088
 3921POPC   PO452572   0.149  15.260   5.503
 3921POPC   GL152573   0.380  15.319   5.925
 3921POPC   GL252574   0.748  15.346   5.795
 3921POPC   C1A52575   0.341  15.078   6.338
 3921POPC   D2A52576   0.303  14.821   6.749
 3921POPC   C3A52577   0.221  15.087   7.149
 3921POPC   C4A52578   0.388  15.108   7.591
 3921POPC   C1B52579   0.838  15.112   6.179
 3921POPC   C2B52580   0.771  14.949   6.599
 3921POPC   C3B52581   0.665  15.210   6.955
 3921POPC   C4B52582   0.582  15.495   7.315
 3922POPC   NC352583  26.542  25.869   5.140
 3922POPC   PO452584  26.005  26.184   5.441
 3922POPC   GL152585  25.978  26.003   5.815
 3922POPC   GL252586  25.824  26.296   5.923
 3922POPC   C1A52587  26.008  25.928   6.261
 3922POPC   D2A52588  25.881  25.968   6.687
 3922POPC   C3A52589  26.230  25.940   6.951
 3922POPC   C4A52590  26.435  25.791   7.291
 3922POPC   C1B52591  26.282  26.334   6.119
 3922POPC   C2B52592  26.270  26.495   6.562
 3922POPC   C3B52593  26.362  26.438   7.001
 3922POPC   C4B52594  26.131  26.260   7.367
 3923POPC   NC352595  39.565  29.432   5.099
 3923POPC   PO452596  40.086  29.132   5.453
 3923POPC   GL152597  40.119  29.393   5.840
 3923POPC   GL252598  40.452  29.335   5.886
 3923POPC   C1A52599  39.849  29.424   6.246
 3923POPC   D2A52600  39.682  29.188   6.618
 3923POPC   C3A52601  39.844  29.077   7.052
 3923POPC   C4A52602  39.655  28.999   7.475
 3923POPC   C1B52603  40.230  29.063   6.207
 3923POPC   C2B52604  40.193  29.169   6.668
 3923POPC   C3B52605  40.349  29.258   7.100
 3923POPC   C4B52606  40.216  29.121   7.549
 3924POPC   NC352607  42.799  22.232   5.452
 3924POPC   PO452608  43.445  22.184   5.414
 3924POPC   GL152609  43.239  22.012   5.785
 3924POPC   GL252610  43.387  21.692   5.846
 3924POPC   C1A52611  43.336  22.018   6.253
 3924POPC   D2A52612  43.443  21.960   6.708
 3924POPC   C3A52613  43.172  22.195   7.021
 3924POPC   C4A52614  43.285  22.472   7.370
 3924POPC   C1B52615  43.021  21.631   6.116
 3924POPC   C2B52616  43.005  21.725   6.550
 3924POPC   C3B52617  43.066  21.696   6.984
 3924POPC   C4B52618  42.808  21.793   7.305
 3925POPC   NC352619  13.019   1.416   5.538
 3925POPC   PO452620  12.532   1.016   5.207
 3925POPC   GL152621  12.556   0.988   5.682
 3925POPC   GL252622  12.893   1.059   5.899
 3925POPC   C1A52623  12.444   1.069   6.131
 3925POPC   D2A52624  12.740   0.936   6.459
 3925POPC   C3A52625  12.778   1.220   6.797
 3925POPC   C4A52626  12.685   1.160   7.204
 3925POPC   C1B52627  12.938   1.384   6.289
 3925POPC   C2B52628  13.217   1.472   6.696
 3925POPC   C3B52629  13.194   1.272   7.146
 3925POPC   C4B52630  13.023   1.169   7.569
 3926POPC   NC352631  14.085  15.287   5.186
 3926POPC   PO452632  13.442  15.385   5.110
 3926POPC   GL152633  13.536  15.183   5.530
 3926POPC   GL252634  13.878  15.225   5.681
 3926POPC   C1A52635  13.447  15.264   5.982
 3926POPC   D2A52636  13.456  15.393   6.420
 3926POPC   C3A52637  13.214  15.242   6.770
 3926POPC   C4A52638  13.346  15.323   7.197
 3926POPC   C1B52639  13.970  15.352   6.105
 3926POPC   C2B52640  13.974  15.458   6.546
 3926POPC   C3B52641  13.797  15.510   6.958
 3926POPC   C4B52642  13.858  15.262   7.340
 3927POPC   NC352643  23.130  40.894   5.217
 3927POPC   PO452644  22.706  40.474   5.329
 3927POPC   GL152645  22.943  40.638   5.656
 3927POPC   GL252646  22.867  40.348   5.831
 3927POPC   C1A52647  22.883  40.775   6.104
 3927POPC   D2A52648  22.990  41.031   6.476
 3927POPC   C3A52649  22.889  40.935   6.914
 3927POPC   C4A52650  23.076  40.971   7.326
 3927POPC   C1B52651  23.028  40.291   6.240
 3927POPC   C2B52652  23.001  40.505   6.631
 3927POPC   C3B52653  22.837  40.437   7.056
 3927POPC   C4B52654  22.537  40.737   7.266
 3928POPC   NC352655  38.311  39.233   5.351
 3928POPC   PO452656  38.822  38.774   5.333
 3928POPC   GL152657  38.674  39.055   5.724
 3928POPC   GL252658  38.444  39.358   5.815
 3928POPC   C1A52659  38.532  39.037   6.185
 3928POPC   D2A52660  38.379  39.311   6.516
 3928POPC   C3A52661  38.429  39.214   6.948
 3928POPC   C4A52662  38.237  39.452   7.259
 3928POPC   C1B52663  38.593  39.624   6.168
 3928POPC   C2B52664  38.601  39.764   6.625
 3928POPC   C3B52665  38.680  39.651   7.082
 3928POPC   C4B52666  38.706  39.298   7.406
 3929POPC   NC352667  35.294  26.931   5.383
 3929POPC   PO452668  35.208  26.343   5.471
 3929POPC   GL152669  35.280  26.592   5.790
 3929POPC   GL252670  35.601  26.650   5.743
 3929POPC   C1A52671  35.103  26.668   6.176
 3929POPC   D2A52672  34.934  26.873   6.516
 3929POPC   C3A52673  35.049  26.779   6.909
 3929POPC   C4A52674  35.158  27.021   7.208
 3929POPC   C1B52675  35.662  26.654   6.187
 3929POPC   C2B52676  35.440  26.653   6.569
 3929POPC   C3B52677  35.590  26.767   6.938
 3929POPC   C4B52678  35.889  26.721   7.240
 3930POPC   NC352679  15.522  44.018   5.437
 3930POPC   PO452680  15.003  44.336   5.312
 3930POPC   GL152681  15.064  44.091   5.738
 3930POPC   GL252682  15.283  43.749   5.802
 3930POPC   C1A52683  15.115  44.003   6.201
 3930POPC   D2A52684  15.329  43.999   6.592
 3930POPC   C3A52685  15.154  43.774   6.922
 3930POPC   C4A52686  14.923  43.877   7.318
 3930POPC   C1B52687  15.569  43.668   6.191
 3930POPC   C2B52688  15.700  43.596   6.654
 3930POPC   C3B52689  15.523  43.456   7.043
 3930POPC   C4B52690  15.408  43.713   7.431
 3931POPC   NC352691   7.560  39.297   5.005
 3931POPC   PO452692   7.138  38.961   5.402
 3931POPC   GL152693   7.326  38.931   5.801
 3931POPC   GL252694   7.150  38.632   5.823
 3931POPC   C1A52695   7.435  39.112   6.204
 3931POPC   D2A52696   7.327  39.389   6.538
 3931POPC   C3A52697   7.526  39.414   6.937
 3931POPC   C4A52698   7.333  39.445   7.326
 3931POPC   C1B52699   6.980  38.846   6.154
 3931POPC   C2B52700   7.086  38.903   6.571
 3931POPC   C3B52701   7.083  39.113   6.945
 3931POPC   C4B52702   7.107  38.994   7.355
 3932POPC   NC352703  17.256  34.957   5.456
 3932POPC   PO452704  17.429  35.527   5.296
 3932POPC   GL152705  17.508  35.573   5.754
 3932POPC   GL252706  17.787  35.806   5.830
 3932POPC   C1A52707  17.600  35.349   6.138
 3932POPC   D2A52708  17.702  35.124   6.519
 3932POPC   C3A52709  17.384  35.215   6.824
 3932POPC   C4A52710  17.448  35.342   7.231
 3932POPC   C1B52711  17.848  35.777   6.274
 3932POPC   C2B52712  17.631  35.642   6.651
 3932POPC   C3B52713  17.759  35.777   7.077
 3932POPC   C4B52714  17.896  35.629   7.481
 3933POPC   NC352715  26.168  40.332   5.462
 3933POPC   PO452716  25.697  39.922   5.601
 3933POPC   GL152717  25.995  39.947   5.929
 3933POPC   GL252718  26.346  39.949   5.829
 3933POPC   C1A52719  25.918  40.006   6.383
 3933POPC   D2A52720  25.790  39.656   6.684
 3933POPC   C3A52721  25.808  39.814   7.099
 3933POPC   C4A52722  25.725  40.252   7.215
 3933POPC   C1B52723  26.391  40.163   6.219
 3933POPC   C2B52724  26.302  40.301   6.635
 3933POPC   C3B52725  26.253  40.089   7.034
 3933POPC   C4B52726  26.143  40.096   7.486
 3934POPC   NC352727   3.948  20.111   5.447
 3934POPC   PO452728   3.347  20.335   5.547
 3934POPC   GL152729   3.533  20.062   5.867
 3934POPC   GL252730   3.767  19.812   5.813
 3934POPC   C1A52731   3.475  19.868   6.242
 3934POPC   D2A52732   3.540  20.047   6.594
 3934POPC   C3A52733   3.382  19.792   6.871
 3934POPC   C4A52734   3.579  19.647   7.168
 3934POPC   C1B52735   3.879  19.562   6.162
 3934POPC   C2B52736   3.756  19.540   6.596
 3934POPC   C3B52737   4.000  19.482   6.959
 3934POPC   C4B52738   3.942  19.416   7.426
 3935POPC   NC352739  40.551  38.137   5.404
 3935POPC   PO452740  40.438  38.777   5.542
 3935POPC   GL152741  40.544  38.631   5.964
 3935POPC   GL252742  40.739  38.357   5.835
 3935POPC   C1A52743  40.426  38.563   6.443
 3935POPC   D2A52744  40.684  38.490   6.819
 3935POPC   C3A52745  40.720  38.678   7.240
 3935POPC   C4A52746  40.880  38.869   7.633
 3935POPC   C1B52747  40.599  38.149   6.177
 3935POPC   C2B52748  40.602  38.054   6.558
 3935POPC   C3B52749  40.767  37.992   6.934
 3935POPC   C4B52750  40.574  38.181   7.255
 3936POPC   NC352751  17.979  40.939   5.389
 3936POPC   PO452752  18.630  40.915   5.381
 3936POPC   GL152753  18.344  40.989   5.757
 3936POPC   GL252754  18.101  40.711   5.856
 3936POPC   C1A52755  18.186  41.105   6.176
 3936POPC   D2A52756  18.142  40.844   6.526
 3936POPC   C3A52757  18.182  40.908   6.948
 3936POPC   C4A52758  18.523  40.898   7.216
 3936POPC   C1B52759  18.462  40.656   6.178
 3936POPC   C2B52760  18.564  40.528   6.637
 3936POPC   C3B52761  18.423  40.403   7.067
 3936POPC   C4B52762  18.067  40.573   7.339
 3937POPC   NC352763  19.822   3.578   5.525
 3937POPC   PO452764  20.416   3.414   5.504
 3937POPC   GL152765  20.110   3.295   5.878
 3937POPC   GL252766  19.736   3.265   5.906
 3937POPC   C1A52767  19.970   3.504   6.298
 3937POPC   D2A52768  19.910   3.829   6.675
 3937POPC   C3A52769  19.781   3.645   7.086
 3937POPC   C4A52770  19.979   3.269   7.100
 3937POPC   C1B52771  19.508   3.285   6.288
 3937POPC   C2B52772  19.496   3.413   6.726
 3937POPC   C3B52773  19.391   3.252   7.137
 3937POPC   C4B52774  19.405   3.395   7.554
 3938POPC   NC352775  16.556  40.656   5.492
 3938POPC   PO452776  17.122  40.967   5.563
 3938POPC   GL152777  16.882  40.818   5.916
 3938POPC   GL252778  16.811  40.502   5.897
 3938POPC   C1A52779  16.765  40.721   6.363
 3938POPC   D2A52780  16.510  40.881   6.690
 3938POPC   C3A52781  16.815  40.971   6.966
 3938POPC   C4A52782  16.921  40.692   7.279
 3938POPC   C1B52783  16.655  40.256   6.188
 3938POPC   C2B52784  16.765  40.214   6.579
 3938POPC   C3B52785  16.679  40.441   6.895
 3938POPC   C4B52786  16.609  40.285   7.267
 3939POPC   NC352787  13.769  20.010   5.576
 3939POPC   PO452788  13.430  19.421   5.561
 3939POPC   GL152789  13.427  19.720   5.885
 3939POPC   GL252790  13.318  20.077   5.825
 3939POPC   C1A52791  13.620  19.719   6.284
 3939POPC   D2A52792  13.601  19.493   6.676
 3939POPC   C3A52793  13.586  19.732   7.062
 3939POPC   C4A52794  13.621  19.564   7.481
 3939POPC   C1B52795  13.387  20.195   6.243
 3939POPC   C2B52796  13.445  20.021   6.653
 3939POPC   C3B52797  13.504  20.249   7.023
 3939POPC   C4B52798  13.327  20.124   7.359
 3940POPC   NC352799   5.297  31.773   5.417
 3940POPC   PO452800   4.837  31.238   5.472
 3940POPC   GL152801   5.035  31.384   5.848
 3940POPC   GL252802   5.400  31.303   5.848
 3940POPC   C1A52803   4.842  31.567   6.259
 3940POPC   D2A52804   4.618  31.746   6.630
 3940POPC   C3A52805   4.729  31.557   7.031
 3940POPC   C4A52806   5.099  31.634   7.236
 3940POPC   C1B52807   5.307  31.304   6.295
 3940POPC   C2B52808   5.147  31.477   6.691
 3940POPC   C3B52809   5.342  31.274   7.018
 3940POPC   C4B52810   5.641  31.453   7.290
 3941POPC   NC352811   0.736   0.059   5.562
 3941POPC   PO452812   1.182   0.692   5.415
 3941POPC   GL152813   1.386   0.529   5.773
 3941POPC   GL252814   1.196   0.233   5.781
 3941POPC   C1A52815   1.439   0.437   6.197
 3941POPC   D2A52816   1.213   0.265   6.525
 3941POPC   C3A52817   1.188   0.470   6.873
 3941POPC   C4A52818   1.506   0.486   7.125
 3941POPC   C1B52819   1.296  44.957   6.125
 3941POPC   C2B52820   1.532  44.839   6.494
 3941POPC   C3B52821   1.461  44.977   6.925
 3941POPC   C4B52822   1.151   0.109   7.226
 3942POPC   NC352823  27.376  12.012   5.466
 3942POPC   PO452824  28.047  12.250   5.520
 3942POPC   GL152825  27.750  12.131   5.812
 3942POPC   GL252826  27.488  12.413   5.799
 3942POPC   C1A52827  27.618  11.830   6.139
 3942POPC   D2A52828  27.823  11.660   6.521
 3942POPC   C3A52829  27.854  11.903   6.939
 3942POPC   C4A52830  27.497  11.879   7.228
 3942POPC   C1B52831  27.516  12.340   6.227
 3942POPC   C2B52832  27.549  12.106   6.595
 3942POPC   C3B52833  27.560  12.326   6.993
 3942POPC   C4B52834  27.579  12.477   7.381
 3943POPC   NC352835   8.183  31.040   5.576
 3943POPC   PO452836   8.505  30.407   5.305
 3943POPC   GL152837   8.334  30.569   5.723
 3943POPC   GL252838   8.373  30.826   5.973
 3943POPC   C1A52839   8.079  30.452   6.104
 3943POPC   D2A52840   8.267  30.595   6.475
 3943POPC   C3A52841   8.127  30.451   6.891
 3943POPC   C4A52842   8.153  30.628   7.299
 3943POPC   C1B52843   8.425  31.099   6.296
 3943POPC   C2B52844   8.590  31.085   6.665
 3943POPC   C3B52845   8.432  31.147   7.090
 3943POPC   C4B52846   8.498  31.007   7.538
 3944POPC   NC352847  35.171   4.937   5.436
 3944POPC   PO452848  35.700   4.633   5.671
 3944POPC   GL152849  35.474   4.984   5.848
 3944POPC   GL252850  35.580   5.229   5.638
 3944POPC   C1A52851  35.311   5.148   6.242
 3944POPC   D2A52852  35.472   5.209   6.669
 3944POPC   C3A52853  35.229   5.080   7.005
 3944POPC   C4A52854  35.282   4.982   7.439
 3944POPC   C1B52855  35.707   5.407   6.065
 3944POPC   C2B52856  35.863   5.490   6.497
 3944POPC   C3B52857  35.849   5.449   6.966
 3944POPC   C4B52858  35.477   5.464   7.228
 3945POPC   NC352859  27.401  14.409   5.546
 3945POPC   PO452860  26.704  14.539   5.441
 3945POPC   GL152861  26.671  14.335   5.842
 3945POPC   GL252862  27.007  14.170   5.894
 3945POPC   C1A52863  26.694  14.422   6.283
 3945POPC   D2A52864  26.773  14.119   6.605
 3945POPC   C3A52865  26.886  14.267   6.982
 3945POPC   C4A52866  26.606  14.483   7.212
 3945POPC   C1B52867  27.176  14.502   6.162
 3945POPC   C2B52868  27.255  14.671   6.576
 3945POPC   C3B52869  27.283  14.663   7.008
 3945POPC   C4B52870  27.096  14.554   7.384
 3946POPC   NC352871  33.487  15.058   5.316
 3946POPC   PO452872  34.161  15.065   5.277
 3946POPC   GL152873  33.947  15.160   5.689
 3946POPC   GL252874  33.625  15.296   5.752
 3946POPC   C1A52875  33.995  15.244   6.146
 3946POPC   D2A52876  33.745  15.360   6.513
 3946POPC   C3A52877  33.872  15.220   6.922
 3946POPC   C4A52878  34.184  15.357   7.184
 3946POPC   C1B52879  33.460  15.107   6.109
 3946POPC   C2B52880  33.234  15.225   6.467
 3946POPC   C3B52881  33.368  15.347   6.886
 3946POPC   C4B52882  33.465  15.088   7.225
 3947POPC   NC352883   1.834  17.963   5.397
 3947POPC   PO452884   2.207  18.571   5.313
 3947POPC   GL152885   2.005  18.420   5.730
 3947POPC   GL252886   1.990  18.072   5.855
 3947POPC   C1A52887   1.830  18.399   6.173
 3947POPC   D2A52888   2.041  18.441   6.525
 3947POPC   C3A52889   1.782  18.442   6.874
 3947POPC   C4A52890   1.850  18.242   7.247
 3947POPC   C1B52891   2.067  17.902   6.276
 3947POPC   C2B52892   1.962  17.935   6.696
 3947POPC   C3B52893   2.094  17.808   7.084
 3947POPC   C4B52894   1.883  17.781   7.441
 3948POPC   NC352895  30.486  20.275   5.409
 3948POPC   PO452896  30.529  19.546   5.387
 3948POPC   GL152897  30.703  19.642   5.752
 3948POPC   GL252898  30.709  19.987   5.802
 3948POPC   C1A52899  30.562  19.695   6.184
 3948POPC   D2A52900  30.744  19.827   6.544
 3948POPC   C3A52901  30.461  19.815   6.864
 3948POPC   C4A52902  30.627  19.759   7.251
 3948POPC   C1B52903  30.642  20.225   6.183
 3948POPC   C2B52904  30.633  20.339   6.610
 3948POPC   C3B52905  30.704  20.231   7.022
 3948POPC   C4B52906  30.343  20.176   7.298
 3949POPC   NC352907  36.665   0.236   5.428
 3949POPC   PO452908  36.070   0.473   5.157
 3949POPC   GL152909  36.103   0.373   5.639
 3949POPC   GL252910  36.385   0.501   5.754
 3949POPC   C1A52911  36.023   0.416   6.118
 3949POPC   D2A52912  35.862   0.173   6.481
 3949POPC   C3A52913  36.080   0.137   6.868
 3949POPC   C4A52914  35.966   0.314   7.257
 3949POPC   C1B52915  36.447   0.736   6.095
 3949POPC   C2B52916  36.265   0.766   6.476
 3949POPC   C3B52917  36.134   0.643   6.867
 3949POPC   C4B52918  36.291   0.784   7.242
 3950POPC   NC352919  23.270  43.813   5.507
 3950POPC   PO452920  22.627  43.935   5.298
 3950POPC   GL152921  22.808  43.859   5.749
 3950POPC   GL252922  23.095  44.083   5.877
 3950POPC   C1A52923  22.742  43.937   6.198
 3950POPC   D2A52924  22.482  43.870   6.537
 3950POPC   C3A52925  22.502  44.023   6.970
 3950POPC   C4A52926  22.744  44.248   7.264
 3950POPC   C1B52927  23.268  43.976   6.249
 3950POPC   C2B52928  23.075  43.814   6.595
 3950POPC   C3B52929  23.045  43.945   6.997
 3950POPC   C4B52930  23.359  44.048   7.290
 3951POPC   NC352931  42.448  30.601   5.132
 3951POPC   PO452932  42.515  31.135   5.582
 3951POPC   GL152933  42.124  30.981   5.776
 3951POPC   GL252934  41.962  30.644   5.769
 3951POPC   C1A52935  42.012  30.978   6.200
 3951POPC   D2A52936  42.261  30.806   6.516
 3951POPC   C3A52937  42.304  30.855   6.954
 3951POPC   C4A52938  42.744  30.790   7.098
 3951POPC   C1B52939  41.869  30.474   6.206
 3951POPC   C2B52940  41.893  30.504   6.690
 3951POPC   C3B52941  42.082  30.421   7.115
 3951POPC   C4B52942  42.263  30.270   7.526
 3952POPC   NC352943   6.186  39.470   5.409
 3952POPC   PO452944   5.643  39.101   5.407
 3952POPC   GL152945   5.863  39.241   5.781
 3952POPC   GL252946   6.035  38.962   5.877
 3952POPC   C1A52947   5.768  39.521   6.154
 3952POPC   D2A52948   5.550  39.546   6.565
 3952POPC   C3A52949   5.712  39.264   6.889
 3952POPC   C4A52950   5.805  39.359   7.328
 3952POPC   C1B52951   6.044  39.135   6.313
 3952POPC   C2B52952   6.318  39.192   6.682
 3952POPC   C3B52953   6.165  39.057   7.025
 3952POPC   C4B52954   5.852  38.872   7.217
 3953POPC   NC352955   4.025  25.274   5.530
 3953POPC   PO452956   4.667  25.043   5.328
 3953POPC   GL152957   4.442  25.031   5.700
 3953POPC   GL252958   4.455  25.371   5.764
 3953POPC   C1A52959   4.183  25.030   6.111
 3953POPC   D2A52960   4.290  25.230   6.464
 3953POPC   C3A52961   4.226  25.059   6.872
 3953POPC   C4A52962   4.222  25.291   7.261
 3953POPC   C1B52963   4.528  25.592   6.121
 3953POPC   C2B52964   4.713  25.516   6.509
 3953POPC   C3B52965   4.539  25.483   6.892
 3953POPC   C4B52966   4.605  25.690   7.264
 3954POPC   NC352967  37.948  12.258   5.392
 3954POPC   PO452968  37.485  11.689   5.440
 3954POPC   GL152969  37.696  11.891   5.772
 3954POPC   GL252970  38.073  11.910   5.767
 3954POPC   C1A52971  37.459  12.015   6.142
 3954POPC   D2A52972  37.525  12.180   6.531
 3954POPC   C3A52973  37.512  12.003   6.951
 3954POPC   C4A52974  37.696  12.262   7.297
 3954POPC   C1B52975  37.979  12.052   6.190
 3954POPC   C2B52976  37.943  11.891   6.608
 3954POPC   C3B52977  38.028  12.023   6.993
 3954POPC   C4B52978  38.225  12.266   7.272
 3955POPC   NC352979  37.369  44.727   5.372
 3955POPC   PO452980  38.050  44.669   5.380
 3955POPC   GL152981  37.802  44.774   5.797
 3955POPC   GL252982  37.619  44.447   5.740
 3955POPC   C1A52983  37.611  44.847   6.301
 3955POPC   D2A52984  37.553   0.003   6.782
 3955POPC   C3A52985  37.462  44.691   7.126
 3955POPC   C4A52986  37.139  44.391   7.240
 3955POPC   C1B52987  37.775  44.387   6.156
 3955POPC   C2B52988  37.919  44.315   6.568
 3955POPC   C3B52989  37.931  44.573   6.941
 3955POPC   C4B52990  37.923  44.884   7.258
 3956POPC   NC352991  15.801  36.212   5.377
 3956POPC   PO452992  16.315  36.473   5.717
 3956POPC   GL152993  16.102  36.067   5.855
 3956POPC   GL252994  15.766  35.920   5.800
 3956POPC   C1A52995  16.017  35.937   6.289
 3956POPC   D2A52996  16.232  36.225   6.579
 3956POPC   C3A52997  16.128  36.385   6.964
 3956POPC   C4A52998  15.969  36.357   7.381
 3956POPC   C1B52999  15.557  36.121   6.176
 3956POPC   C2B53000  15.727  36.217   6.612
 3956POPC   C3B53001  15.756  36.037   7.013
 3956POPC   C4B53002  15.485  36.246   7.269
 3957POPC   NC353003   4.716  20.112   5.367
 3957POPC   PO453004   5.184  19.665   5.232
 3957POPC   GL153005   4.971  19.781   5.719
 3957POPC   GL253006   4.758  20.087   5.866
 3957POPC   C1A53007   4.898  19.707   6.220
 3957POPC   D2A53008   4.872  19.538   6.695
 3957POPC   C3A53009   5.244  19.667   6.940
 3957POPC   C4A53010   5.452  19.804   7.315
 3957POPC   C1B53011   4.956  20.240   6.252
 3957POPC   C2B53012   5.020  20.354   6.691
 3957POPC   C3B53013   4.967  20.125   7.080
 3957POPC   C4B53014   4.615  20.114   7.382
 3958POPC   NC353015  20.599   7.105   5.420
 3958POPC   PO453016  20.326   6.486   5.449
 3958POPC   GL153017  20.615   6.424   5.780
 3958POPC   GL253018  20.773   6.758   5.828
 3958POPC   C1A53019  20.478   6.497   6.211
 3958POPC   D2A53020  20.667   6.665   6.602
 3958POPC   C3A53021  20.472   6.557   6.992
 3958POPC   C4A53022  20.565   6.840   7.342
 3958POPC   C1B53023  20.983   6.538   6.204
 3958POPC   C2B53024  21.116   6.393   6.617
 3958POPC   C3B53025  20.969   6.482   7.014
 3958POPC   C4B53026  21.050   6.701   7.384
 3959POPC   NC353027  17.044  23.193   5.364
 3959POPC   PO453028  16.829  23.848   5.382
 3959POPC   GL153029  16.947  23.741   5.793
 3959POPC   GL253030  17.122  23.448   5.807
 3959POPC   C1A53031  16.747  23.791   6.198
 3959POPC   D2A53032  16.797  23.595   6.598
 3959POPC   C3A53033  16.720  23.883   6.924
 3959POPC   C4A53034  16.934  23.967   7.293
 3959POPC   C1B53035  17.204  23.589   6.225
 3959POPC   C2B53036  17.305  23.513   6.633
 3959POPC   C3B53037  17.081  23.527   7.033
 3959POPC   C4B53038  17.197  23.350   7.433
 3960POPC   NC353039  40.183   6.075   5.468
 3960POPC   PO453040  39.900   6.668   5.308
 3960POPC   GL153041  39.972   6.692   5.723
 3960POPC   GL253042  40.265   6.547   5.669
 3960POPC   C1A53043  40.199   6.862   6.105
 3960POPC   D2A53044  40.024   6.965   6.507
 3960POPC   C3A53045  40.206   6.823   6.898
 3960POPC   C4A53046  40.024   6.900   7.297
 3960POPC   C1B53047  40.120   6.357   6.052
 3960POPC   C2B53048  40.119   6.453   6.459
 3960POPC   C3B53049  39.901   6.332   6.812
 3960POPC   C4B53050  40.065   6.409   7.213
 3961POPC   NC353051  42.641  23.198   5.259
 3961POPC   PO453052  42.537  22.602   5.415
 3961POPC   GL153053  42.405  22.820   5.786
 3961POPC   GL253054  42.445  22.518   5.961
 3961POPC   C1A53055  42.337  22.935   6.253
 3961POPC   D2A53056  42.444  22.755   6.694
 3961POPC   C3A53057  42.231  22.787   7.120
 3961POPC   C4A53058  41.908  22.637   7.450
 3961POPC   C1B53059  42.765  22.635   6.283
 3961POPC   C2B53060  42.913  22.550   6.729
 3961POPC   C3B53061  42.765  22.648   7.158
 3961POPC   C4B53062  42.729  22.900   7.549
 3962POPC   NC353063   0.203  33.496   5.029
 3962POPC   PO453064   0.648  33.624   5.473
 3962POPC   GL153065   0.467  33.636   5.904
 3962POPC   GL253066   0.488  33.986   5.995
 3962POPC   C1A53067   0.546  33.640   6.365
 3962POPC   D2A53068   0.506  33.900   6.735
 3962POPC   C3A53069   0.168  33.750   6.980
 3962POPC   C4A53070   0.378  33.359   7.123
 3962POPC   C1B53071   0.463  34.225   6.338
 3962POPC   C2B53072   0.659  34.411   6.676
 3962POPC   C3B53073   0.579  34.282   7.101
 3962POPC   C4B53074   0.452  34.301   7.552
 3963POPC   NC353075  28.031  14.809   5.539
 3963POPC   PO453076  28.338  14.196   5.484
 3963POPC   GL153077  28.542  14.130   5.856
 3963POPC   GL253078  28.684  14.432   5.800
 3963POPC   C1A53079  28.625  14.214   6.299
 3963POPC   D2A53080  28.432  14.164   6.686
 3963POPC   C3A53081  28.492  14.358   7.059
 3963POPC   C4A53082  28.139  14.354   7.297
 3963POPC   C1B53083  28.376  14.594   6.068
 3963POPC   C2B53084  28.249  14.674   6.478
 3963POPC   C3B53085  28.319  14.902   6.822
 3963POPC   C4B53086  28.356  14.828   7.251
 3964POPC   NC353087  35.720  24.563   5.576
 3964POPC   PO453088  35.170  24.192   5.320
 3964POPC   GL153089  35.198  24.350   5.757
 3964POPC   GL253090  35.489  24.437   6.007
 3964POPC   C1A53091  35.144  24.112   6.157
 3964POPC   D2A53092  35.329  24.230   6.528
 3964POPC   C3A53093  35.157  24.030   6.886
 3964POPC   C4A53094  35.277  24.307   7.194
 3964POPC   C1B53095  35.622  24.832   6.230
 3964POPC   C2B53096  35.543  24.959   6.665
 3964POPC   C3B53097  35.608  24.759   7.063
 3964POPC   C4B53098  36.000  24.840   7.250
 3965POPC   NC353099  43.965   4.659   5.526
 3965POPC   PO453100  43.764   5.329   5.363
 3965POPC   GL153101  43.938   5.197   5.733
 3965POPC   GL253102  43.653   4.976   5.771
 3965POPC   C1A53103  44.102   5.342   6.147
 3965POPC   D2A53104  44.097   5.433   6.603
 3965POPC   C3A53105  43.799   5.213   6.860
 3965POPC   C4A53106  43.699   5.328   7.280
 3965POPC   C1B53107  43.881   4.870   6.149
 3965POPC   C2B53108  44.155   4.937   6.482
 3965POPC   C3B53109  44.067   4.769   6.851
 3965POPC   C4B53110  44.009   4.922   7.240
 3966POPC   NC353111   8.170  16.253   5.589
 3966POPC   PO453112   8.551  15.722   5.438
 3966POPC   GL153113   8.280  15.699   5.869
 3966POPC   GL253114   8.190  16.016   6.009
 3966POPC   C1A53115   8.203  15.709   6.382
 3966POPC   D2A53116   8.041  15.645   6.777
 3966POPC   C3A53117   8.348  15.754   7.053
 3966POPC   C4A53118   8.353  15.687   7.484
 3966POPC   C1B53119   8.160  16.249   6.367
 3966POPC   C2B53120   8.168  16.514   6.711
 3966POPC   C3B53121   8.050  16.161   6.933
 3966POPC   C4B53122   8.072  16.083   7.365
 3967POPC   NC353123  43.115   1.331   5.390
 3967POPC   PO453124  42.571   1.728   5.230
 3967POPC   GL153125  42.703   1.526   5.681
 3967POPC   GL253126  42.930   1.217   5.861
 3967POPC   C1A53127  42.825   1.622   6.122
 3967POPC   D2A53128  42.875   1.721   6.526
 3967POPC   C3A53129  43.059   1.388   6.747
 3967POPC   C4A53130  43.116   1.406   7.173
 3967POPC   C1B53131  43.251   1.005   6.173
 3967POPC   C2B53132  43.413   0.971   6.635
 3967POPC   C3B53133  43.444   0.794   7.087
 3967POPC   C4B53134  43.352   0.858   7.560
 3968POPC   NC353135  11.518  31.449   5.363
 3968POPC   PO453136  10.926  31.205   5.527
 3968POPC   GL153137  11.099  31.551   5.812
 3968POPC   GL253138  11.473  31.583   5.876
 3968POPC   C1A53139  11.051  31.671   6.272
 3968POPC   D2A53140  10.959  31.259   6.539
 3968POPC   C3A53141  11.039  31.245   6.969
 3968POPC   C4A53142  11.140  31.653   7.056
 3968POPC   C1B53143  11.407  31.321   6.262
 3968POPC   C2B53144  11.471  31.377   6.723
 3968POPC   C3B53145  11.525  31.336   7.179
 3968POPC   C4B53146  11.652  31.215   7.612
 3969POPC   NC353147  44.795  44.729   5.490
 3969POPC   PO453148  44.269  44.466   5.731
 3969POPC   GL153149  44.589  44.671   5.957
 3969POPC   GL253150  44.816  44.382   5.943
 3969POPC   C1A53151  44.746  44.766   6.393
 3969POPC   D2A53152  44.963  44.776   6.785
 3969POPC   C3A53153  44.767  44.761   7.208
 3969POPC   C4A53154  44.958  44.948   7.598
 3969POPC   C1B53155  44.528  44.317   6.316
 3969POPC   C2B53156  44.394  44.358   6.715
 3969POPC   C3B53157  44.294  44.257   7.115
 3969POPC   C4B53158  44.496  44.351   7.459
 3970POPC   NC353159  34.143  39.445   5.431
 3970POPC   PO453160  33.541  39.053   5.435
 3970POPC   GL153161  33.808  39.169   5.758
 3970POPC   GL253162  34.154  39.072   5.803
 3970POPC   C1A53163  33.692  39.293   6.160
 3970POPC   D2A53164  33.593  39.585   6.495
 3970POPC   C3A53165  33.573  39.383   6.904
 3970POPC   C4A53166  33.631  39.011   7.179
 3970POPC   C1B53167  34.200  39.291   6.222
 3970POPC   C2B53168  34.064  39.382   6.670
 3970POPC   C3B53169  34.026  39.328   7.144
 3970POPC   C4B53170  34.019  39.313   7.625
 3971POPC   NC353171  35.628  36.286   5.343
 3971POPC   PO453172  36.291  36.205   5.442
 3971POPC   GL153173  36.273  36.258   5.861
 3971POPC   GL253174  35.976  36.010   5.894
 3971POPC   C1A53175  36.227  36.215   6.299
 3971POPC   D2A53176  36.062  36.137   6.722
 3971POPC   C3A53177  36.284  36.229   7.120
 3971POPC   C4A53178  36.287  36.158   7.597
 3971POPC   C1B53179  35.925  35.790   6.319
 3971POPC   C2B53180  36.013  35.639   6.747
 3971POPC   C3B53181  36.080  35.734   7.200
 3971POPC   C4B53182  36.066  35.689   7.668
 3972POPC   NC353183  24.202  31.132   5.497
 3972POPC   PO453184  24.769  31.058   5.661
 3972POPC   GL153185  24.564  31.391   5.892
 3972POPC   GL253186  24.239  31.511   5.845
 3972POPC   C1A53187  24.474  31.567   6.302
 3972POPC   D2A53188  24.358  31.350   6.673
 3972POPC   C3A53189  24.406  31.525   7.077
 3972POPC   C4A53190  24.588  31.921   7.276
 3972POPC   C1B53191  24.148  31.187   6.179
 3972POPC   C2B53192  24.045  30.948   6.552
 3972POPC   C3B53193  24.081  31.060   6.992
 3972POPC   C4B53194  24.062  31.231   7.397
 3973POPC   NC353195  11.382   7.943   5.380
 3973POPC   PO453196  11.699   8.516   5.445
 3973POPC   GL153197  11.546   8.228   5.758
 3973POPC   GL253198  11.187   8.241   5.784
 3973POPC   C1A53199  11.692   8.109   6.137
 3973POPC   D2A53200  11.552   8.215   6.496
 3973POPC   C3A53201  11.616   8.163   6.909
 3973POPC   C4A53202  11.450   8.077   7.295
 3973POPC   C1B53203  11.184   8.027   6.180
 3973POPC   C2B53204  11.102   8.056   6.628
 3973POPC   C3B53205  10.988   8.018   7.049
 3973POPC   C4B53206  10.769   7.880   7.405
 3974POPC   NC353207  23.495  22.079   5.532
 3974POPC   PO453208  22.906  22.296   5.352
 3974POPC   GL153209  23.036  22.381   5.802
 3974POPC   GL253210  23.360  22.492   5.825
 3974POPC   C1A53211  22.913  22.223   6.232
 3974POPC   D2A53212  22.975  22.038   6.674
 3974POPC   C3A53213  22.758  22.279   6.998
 3974POPC   C4A53214  22.558  22.173   7.399
 3974POPC   C1B53215  23.408  22.302   6.250
 3974POPC   C2B53216  23.477  22.235   6.710
 3974POPC   C3B53217  23.257  22.135   7.109
 3974POPC   C4B53218  23.015  22.374   7.431
 3975POPC   NC353219   5.624  25.710   5.373
 3975POPC   PO453220   5.930  26.300   5.215
 3975POPC   GL153221   5.827  26.221   5.693
 3975POPC   GL253222   6.014  25.939   5.878
 3975POPC   C1A53223   5.834  26.317   6.175
 3975POPC   D2A53224   5.620  26.371   6.585
 3975POPC   C3A53225   5.437  26.037   6.834
 3975POPC   C4A53226   5.555  25.935   7.217
 3975POPC   C1B53227   6.013  25.810   6.331
 3975POPC   C2B53228   5.957  25.922   6.793
 3975POPC   C3B53229   6.093  25.912   7.241
 3975POPC   C4B53230   6.235  25.774   7.663
 3976POPC   NC353231  39.880  27.432   5.526
 3976POPC   PO453232  40.358  27.689   5.469
 3976POPC   GL153233  40.248  27.723   5.892
 3976POPC   GL253234  40.245  28.096   5.854
 3976POPC   C1A53235  40.285  27.499   6.326
 3976POPC   D2A53236  40.282  27.301   6.762
 3976POPC   C3A53237  40.189  27.598   7.115
 3976POPC   C4A53238  39.911  27.687   7.458
 3976POPC   C1B53239  40.285  28.014   6.327
 3976POPC   C2B53240  40.080  28.035   6.779
 3976POPC   C3B53241  40.126  28.126   7.239
 3976POPC   C4B53242  40.079  28.103   7.703
 3977POPC   NC353243  13.351  39.535   5.668
 3977POPC   PO453244  12.684  39.885   5.493
 3977POPC   GL153245  13.036  39.979   5.791
 3977POPC   GL253246  12.994  40.322   5.850
 3977POPC   C1A53247  13.175  40.054   6.249
 3977POPC   D2A53248  12.970  39.928   6.643
 3977POPC   C3A53249  13.181  39.943   7.070
 3977POPC   C4A53250  13.105  40.215   7.459
 3977POPC   C1B53251  12.674  40.132   6.169
 3977POPC   C2B53252  12.579  40.298   6.589
 3977POPC   C3B53253  12.748  40.220   7.004
 3977POPC   C4B53254  12.592  40.340   7.373
 3978POPC   NC353255  36.370   5.564   5.457
 3978POPC   PO453256  36.893   5.828   5.181
 3978POPC   GL153257  36.904   5.724   5.652
 3978POPC   GL253258  36.624   5.817   5.826
 3978POPC   C1A53259  37.125   5.792   6.083
 3978POPC   D2A53260  37.119   5.665   6.533
 3978POPC   C3A53261  36.909   5.876   6.895
 3978POPC   C4A53262  36.833   5.890   7.313
 3978POPC   C1B53263  36.669   5.540   6.173
 3978POPC   C2B53264  36.571   5.694   6.587
 3978POPC   C3B53265  36.453   5.640   7.071
 3978POPC   C4B53266  36.378   5.777   7.533
 3979POPC   NC353267  14.093   9.948   5.404
 3979POPC   PO453268  14.535   9.477   5.495
 3979POPC   GL153269  14.490   9.856   5.732
 3979POPC   GL253270  14.763  10.058   5.804
 3979POPC   C1A53271  14.406   9.893   6.173
 3979POPC   D2A53272  14.581   9.738   6.568
 3979POPC   C3A53273  14.333   9.816   6.937
 3979POPC   C4A53274  14.085   9.734   7.312
 3979POPC   C1B53275  14.811  10.174   6.237
 3979POPC   C2B53276  14.670  10.221   6.675
 3979POPC   C3B53277  14.814  10.024   7.044
 3979POPC   C4B53278  14.602   9.766   7.393
 3980POPC   NC353279  30.510  31.951   5.497
 3980POPC   PO453280  30.890  32.468   5.351
 3980POPC   GL153281  30.961  32.420   5.824
 3980POPC   GL253282  30.805  32.104   5.924
 3980POPC   C1A53283  30.827  32.449   6.295
 3980POPC   D2A53284  30.494  32.246   6.579
 3980POPC   C3A53285  30.494  32.273   7.063
 3980POPC   C4A53286  30.580  32.240   7.523
 3980POPC   C1B53287  30.880  31.916   6.357
 3980POPC   C2B53288  30.907  32.050   6.806
 3980POPC   C3B53289  30.881  31.960   7.241
 3980POPC   C4B53290  30.777  31.782   7.689
 3981POPC   NC353291  21.033  34.207   5.440
 3981POPC   PO453292  21.575  34.574   5.333
 3981POPC   GL153293  21.348  34.564   5.732
 3981POPC   GL253294  21.541  34.269   5.780
 3981POPC   C1A53295  21.151  34.732   6.152
 3981POPC   D2A53296  21.226  34.591   6.592
 3981POPC   C3A53297  21.406  34.817   6.947
 3981POPC   C4A53298  21.267  34.835   7.391
 3981POPC   C1B53299  21.601  34.460   6.201
 3981POPC   C2B53300  21.703  34.444   6.657
 3981POPC   C3B53301  21.602  34.387   7.093
 3981POPC   C4B53302  21.853  34.278   7.435
 3982POPC   NC353303  23.860   7.592   5.174
 3982POPC   PO453304  23.323   7.103   5.267
 3982POPC   GL153305  23.528   7.115   5.747
 3982POPC   GL253306  23.826   7.364   5.878
 3982POPC   C1A53307  23.523   7.127   6.227
 3982POPC   D2A53308  23.794   7.215   6.598
 3982POPC   C3A53309  23.605   7.429   6.940
 3982POPC   C4A53310  23.355   7.242   7.278
 3982POPC   C1B53311  24.086   7.510   6.293
 3982POPC   C2B53312  24.120   7.591   6.792
 3982POPC   C3B53313  24.002   7.551   7.237
 3982POPC   C4B53314  24.036   7.717   7.667
 3983POPC   NC353315  30.912  17.914   5.322
 3983POPC   PO453316  30.470  17.409   5.431
 3983POPC   GL153317  30.443  17.594   5.832
 3983POPC   GL253318  30.560  17.919   5.803
 3983POPC   C1A53319  30.437  17.414   6.241
 3983POPC   D2A53320  30.577  17.220   6.645
 3983POPC   C3A53321  30.531  17.467   7.028
 3983POPC   C4A53322  30.453  17.343   7.479
 3983POPC   C1B53323  30.731  17.886   6.219
 3983POPC   C2B53324  30.749  17.989   6.648
 3983POPC   C3B53325  30.529  17.978   7.054
 3983POPC   C4B53326  30.727  17.789   7.408
 3984POPC   NC353327  10.868   1.552   5.444
 3984POPC   PO453328  10.552   2.182   5.195
 3984POPC   GL153329  10.753   2.062   5.607
 3984POPC   GL253330  10.544   1.791   5.755
 3984POPC   C1A53331  10.707   2.153   6.073
 3984POPC   D2A53332  10.347   2.201   6.370
 3984POPC   C3A53333  10.377   2.191   6.833
 3984POPC   C4A53334  10.633   2.011   7.144
 3984POPC   C1B53335  10.668   1.652   6.170
 3984POPC   C2B53336  10.806   1.809   6.567
 3984POPC   C3B53337  10.789   1.558   6.953
 3984POPC   C4B53338  10.710   1.578   7.418
 3985POPC   NC353339  27.368  25.471   5.477
 3985POPC   PO453340  27.870  25.112   5.610
 3985POPC   GL153341  27.665  25.379   5.895
 3985POPC   GL253342  27.358  25.196   5.917
 3985POPC   C1A53343  27.518  25.499   6.324
 3985POPC   D2A53344  27.687  25.665   6.720
 3985POPC   C3A53345  27.416  25.689   7.061
 3985POPC   C4A53346  27.633  25.515   7.376
 3985POPC   C1B53347  27.616  24.996   6.251
 3985POPC   C2B53348  27.655  25.125   6.677
 3985POPC   C3B53349  27.818  25.170   7.081
 3985POPC   C4B53350  27.613  25.037   7.485
 3986POPC   NC353351  12.231  13.993   5.056
 3986POPC   PO453352  11.805  13.580   5.427
 3986POPC   GL153353  11.960  13.710   5.834
 3986POPC   GL253354  12.196  13.992   5.803
 3986POPC   C1A53355  12.050  13.576   6.236
 3986POPC   D2A53356  12.249  13.596   6.617
 3986POPC   C3A53357  12.055  13.483   6.989
 3986POPC   C4A53358  12.331  13.242   7.197
 3986POPC   C1B53359  12.407  13.940   6.223
 3986POPC   C2B53360  12.408  14.082   6.659
 3986POPC   C3B53361  12.316  13.918   7.084
 3986POPC   C4B53362  12.245  14.143   7.532
 3987POPC   NC353363  11.312  33.221   5.471
 3987POPC   PO453364  11.212  32.561   5.601
 3987POPC   GL153365  11.355  32.896   5.863
 3987POPC   GL253366  11.630  33.149   5.875
 3987POPC   C1A53367  11.168  33.185   6.134
 3987POPC   D2A53368  11.055  32.993   6.520
 3987POPC   C3A53369  11.021  33.292   6.827
 3987POPC   C4A53370  11.280  33.252   7.159
 3987POPC   C1B53371  11.658  33.133   6.323
 3987POPC   C2B53372  11.576  33.165   6.751
 3987POPC   C3B53373  11.446  32.774   6.968
 3987POPC   C4B53374  11.108  32.569   7.189
 3988POPC   NC353375  41.789  42.365   5.425
 3988POPC   PO453376  41.162  42.172   5.512
 3988POPC   GL153377  41.365  42.396   5.821
 3988POPC   GL253378  41.143  42.654   5.962
 3988POPC   C1A53379  41.676  42.474   6.132
 3988POPC   D2A53380  41.888  42.397   6.543
 3988POPC   C3A53381  41.656  42.573   6.891
 3988POPC   C4A53382  41.495  42.728   7.297
 3988POPC   C1B53383  41.102  42.345   6.261
 3988POPC   C2B53384  41.389  42.278   6.555
 3988POPC   C3B53385  41.608  42.028   6.841
 3988POPC   C4B53386  41.340  41.928   7.183
 3989POPC   NC353387   4.971  16.131   5.659
 3989POPC   PO453388   5.551  15.874   5.562
 3989POPC   GL153389   5.271  15.812   5.888
 3989POPC   GL253390   4.970  15.595   5.871
 3989POPC   C1A53391   5.111  15.930   6.272
 3989POPC   D2A53392   4.924  16.031   6.658
 3989POPC   C3A53393   5.102  16.124   7.034
 3989POPC   C4A53394   5.013  15.997   7.433
 3989POPC   C1B53395   4.750  15.570   6.301
 3989POPC   C2B53396   4.681  15.602   6.805
 3989POPC   C3B53397   4.738  15.597   7.282
 3989POPC   C4B53398   4.785  15.708   7.782
 3990POPC   NC353399   9.181  34.221   5.494
 3990POPC   PO453400   9.786  34.314   5.266
 3990POPC   GL153401   9.631  34.426   5.686
 3990POPC   GL253402   9.953  34.448   5.827
 3990POPC   C1A53403   9.562  34.529   6.130
 3990POPC   D2A53404   9.399  34.652   6.527
 3990POPC   C3A53405   9.427  34.410   6.888
 3990POPC   C4A53406   9.635  34.557   7.279
 3990POPC   C1B53407  10.033  34.788   6.094
 3990POPC   C2B53408   9.915  34.919   6.491
 3990POPC   C3B53409   9.900  34.724   6.879
 3990POPC   C4B53410  10.130  34.729   7.266
 3991POPC   NC353411  31.820  18.278   5.526
 3991POPC   PO453412  31.322  18.609   5.321
 3991POPC   GL153413  31.396  18.510   5.764
 3991POPC   GL253414  31.424  18.136   5.837
 3991POPC   C1A53415  31.367  18.528   6.219
 3991POPC   D2A53416  31.282  18.160   6.490
 3991POPC   C3A53417  31.381  18.153   6.929
 3991POPC   C4A53418  31.394  18.253   7.371
 3991POPC   C1B53419  31.749  18.194   6.177
 3991POPC   C2B53420  31.802  18.286   6.616
 3991POPC   C3B53421  31.933  18.156   7.034
 3991POPC   C4B53422  31.874  18.229   7.488
 3992POPC   NC353423  39.895  39.881   5.361
 3992POPC   PO453424  40.268  40.514   5.296
 3992POPC   GL153425  40.082  40.250   5.641
 3992POPC   GL253426  39.769  40.359   5.789
 3992POPC   C1A53427  40.065  39.958   6.046
 3992POPC   D2A53428  39.943  39.881   6.512
 3992POPC   C3A53429  40.186  39.834   6.918
 3992POPC   C4A53430  40.012  39.766   7.328
 3992POPC   C1B53431  39.762  40.306   6.234
 3992POPC   C2B53432  39.869  40.397   6.619
 3992POPC   C3B53433  39.802  40.180   6.957
 3992POPC   C4B53434  40.012  40.267   7.257
 3993POPC   NC353435  21.584  43.416   5.355
 3993POPC   PO453436  21.062  42.875   5.413
 3993POPC   GL153437  21.327  42.954   5.771
 3993POPC   GL253438  21.395  43.308   5.869
 3993POPC   C1A53439  21.265  42.851   6.187
 3993POPC   D2A53440  21.020  42.951   6.527
 3993POPC   C3A53441  21.216  42.826   6.890
 3993POPC   C4A53442  21.458  43.002   7.230
 3993POPC   C1B53443  21.416  43.324   6.345
 3993POPC   C2B53444  21.404  43.321   6.814
 3993POPC   C3B53445  21.664  43.479   7.198
 3993POPC   C4B53446  21.764  43.311   7.641
 3994POPC   NC353447   9.705  23.448   5.384
 3994POPC   PO453448  10.289  23.629   5.578
 3994POPC   GL153449   9.974  23.763   5.840
 3994POPC   GL253450   9.597  23.731   5.796
 3994POPC   C1A53451   9.933  23.885   6.257
 3994POPC   D2A53452   9.807  23.682   6.607
 3994POPC   C3A53453   9.879  23.960   6.918
 3994POPC   C4A53454   9.823  23.756   7.223
 3994POPC   C1B53455   9.415  23.908   6.156
 3994POPC   C2B53456   9.487  24.073   6.568
 3994POPC   C3B53457   9.348  23.883   6.939
 3994POPC   C4B53458   9.343  23.638   7.315
 3995POPC   NC353459   8.168  37.944   5.486
 3995POPC   PO453460   7.984  38.575   5.439
 3995POPC   GL153461   8.201  38.592   5.819
 3995POPC   GL253462   8.415  38.351   5.680
 3995POPC   C1A53463   8.157  38.456   6.266
 3995POPC   D2A53464   7.888  38.410   6.610
 3995POPC   C3A53465   7.991  38.678   6.968
 3995POPC   C4A53466   8.316  38.893   7.166
 3995POPC   C1B53467   8.545  38.221   6.064
 3995POPC   C2B53468   8.550  38.227   6.550
 3995POPC   C3B53469   8.532  38.349   7.016
 3995POPC   C4B53470   8.705  38.166   7.414
 3996POPC   NC353471  22.484  33.693   5.182
 3996POPC   PO453472  22.906  34.211   5.470
 3996POPC   GL153473  22.974  33.965   5.853
 3996POPC   GL253474  23.263  34.032   6.050
 3996POPC   C1A53475  22.783  33.831   6.237
 3996POPC   D2A53476  22.969  33.822   6.642
 3996POPC   C3A53477  22.763  33.607   6.964
 3996POPC   C4A53478  22.819  33.736   7.405
 3996POPC   C1B53479  23.245  33.596   6.254
 3996POPC   C2B53480  23.174  33.369   6.670
 3996POPC   C3B53481  23.239  33.504   7.126
 3996POPC   C4B53482  23.338  33.715   7.521
 3997POPC   NC353483  42.346   7.804   5.445
 3997POPC   PO453484  42.555   7.167   5.737
 3997POPC   GL153485  42.326   7.336   6.013
 3997POPC   GL253486  42.378   7.672   5.930
 3997POPC   C1A53487  42.189   7.231   6.408
 3997POPC   D2A53488  42.409   7.398   6.751
 3997POPC   C3A53489  42.478   7.202   7.135
 3997POPC   C4A53490  42.264   7.226   7.521
 3997POPC   C1B53491  42.031   7.698   6.182
 3997POPC   C2B53492  42.084   7.814   6.565
 3997POPC   C3B53493  42.231   7.906   6.919
 3997POPC   C4B53494  42.132   7.574   7.158
 3998POPC   NC353495   4.164  24.226   5.437
 3998POPC   PO453496   4.191  23.517   5.417
 3998POPC   GL153497   4.446  23.629   5.736
 3998POPC   GL253498   4.197  23.853   5.817
 3998POPC   C1A53499   4.529  23.416   6.142
 3998POPC   D2A53500   4.651  23.551   6.558
 3998POPC   C3A53501   4.345  23.553   6.878
 3998POPC   C4A53502   4.265  23.352   7.286
 3998POPC   C1B53503   4.444  23.903   6.182
 3998POPC   C2B53504   4.353  24.022   6.556
 3998POPC   C3B53505   4.493  24.066   6.943
 3998POPC   C4B53506   4.392  23.851   7.290
 3999POPC   NC353507  20.431   9.754   5.060
 3999POPC   PO453508  20.562   9.383   5.620
 3999POPC   GL153509  20.533   9.456   5.985
 3999POPC   GL253510  20.212   9.263   5.951
 3999POPC   C1A53511  20.554   9.843   6.227
 3999POPC   D2A53512  20.626   9.968   6.658
 3999POPC   C3A53513  20.731   9.772   7.010
 3999POPC   C4A53514  20.401  10.029   7.197
 3999POPC   C1B53515  20.169   9.441   6.316
 3999POPC   C2B53516  20.485   9.484   6.581
 3999POPC   C3B53517  20.273   9.586   6.928
 3999POPC   C4B53518  20.377   9.525   7.309
 4000POPC   NC353519  39.746  22.464   5.348
 4000POPC   PO453520  39.627  21.750   5.392
 4000POPC   GL153521  39.872  22.048   5.668
 4000POPC   GL253522  39.937  21.767   5.931
 4000POPC   C1A53523  39.842  22.251   6.080
 4000POPC   D2A53524  39.736  22.042   6.474
 4000POPC   C3A53525  39.747  22.249   6.909
 4000POPC   C4A53526  40.107  22.408   7.158
 4000POPC   C1B53527  40.214  21.923   6.262
 4000POPC   C2B53528  40.184  22.085   6.691
 4000POPC   C3B53529  40.269  21.929   7.079
 4000POPC   C4B53530  40.539  21.971   7.463
 4001POPC   NC353531   1.695   2.693   5.313
 4001POPC   PO453532   2.240   3.006   5.537
 4001POPC   GL153533   1.907   2.868   5.759
 4001POPC   GL253534   2.027   2.531   5.747
 4001POPC   C1A53535   1.718   2.855   6.170
 4001POPC   D2A53536   1.729   3.096   6.581
 4001POPC   C3A53537   2.001   2.908   6.912
 4001POPC   C4A53538   1.894   2.592   7.189
 4001POPC   C1B53539   2.202   2.602   6.182
 4001POPC   C2B53540   2.119   2.482   6.627
 4001POPC   C3B53541   2.347   2.462   7.035
 4001POPC   C4B53542   2.356   2.733   7.422
 4002POPC   NC353543  44.476   6.291   5.548
 4002POPC   PO453544  44.785   5.754   5.339
 4002POPC   GL153545  44.686   5.807   5.805
 4002POPC   GL253546  44.542   5.515   5.954
 4002POPC   C1A53547  44.889   5.906   6.224
 4002POPC   D2A53548  44.971   6.063   6.683
 4002POPC   C3A53549  44.925   5.808   7.076
 4002POPC   C4A53550  44.622   5.481   7.214
 4002POPC   C1B53551  44.410   5.730   6.324
 4002POPC   C2B53552  44.521   5.732   6.768
 4002POPC   C3B53553  44.424   5.963   7.171
 4002POPC   C4B53554  44.327   6.266   7.504
 4003POPC   NC353555   7.244  34.035   5.408
 4003POPC   PO453556   7.622  33.476   5.504
 4003POPC   GL153557   7.553  33.820   5.784
 4003POPC   GL253558   7.198  33.853   5.871
 4003POPC   C1A53559   7.548  33.980   6.201
 4003POPC   D2A53560   7.277  34.061   6.510
 4003POPC   C3A53561   7.459  34.053   6.886
 4003POPC   C4A53562   7.465  33.912   7.294
 4003POPC   C1B53563   7.206  33.524   6.129
 4003POPC   C2B53564   7.120  33.540   6.543
 4003POPC   C3B53565   7.098  33.678   6.942
 4003POPC   C4B53566   7.166  33.490   7.341
 4004POPC   NC353567  23.927  36.034   5.466
 4004POPC   PO453568  23.498  36.532   5.208
 4004POPC   GL153569  23.608  36.311   5.716
 4004POPC   GL253570  23.911  36.385   5.969
 4004POPC   C1A53571  23.544  36.085   6.121
 4004POPC   D2A53572  23.663  36.245   6.559
 4004POPC   C3A53573  23.596  36.001   6.977
 4004POPC   C4A53574  23.343  36.009   7.338
 4004POPC   C1B53575  24.048  36.003   6.177
 4004POPC   C2B53576  23.979  35.859   6.610
 4004POPC   C3B53577  24.061  36.169   6.923
 4004POPC   C4B53578  24.036  35.850   7.225
 4005POPC   NC353579   2.564   0.761   5.257
 4005POPC   PO453580   2.739   1.425   5.240
 4005POPC   GL153581   2.889   1.291   5.642
 4005POPC   GL253582   2.993   0.927   5.580
 4005POPC   C1A53583   2.922   1.376   6.123
 4005POPC   D2A53584   2.769   1.419   6.583
 4005POPC   C3A53585   2.984   1.240   6.960
 4005POPC   C4A53586   2.948   1.301   7.404
 4005POPC   C1B53587   2.660   0.930   5.908
 4005POPC   C2B53588   2.642   0.982   6.348
 4005POPC   C3B53589   2.526   0.981   6.774
 4005POPC   C4B53590   2.605   0.962   7.201
 4006POPC   NC353591  42.108  32.530   5.081
 4006POPC   PO453592  42.398  31.966   5.303
 4006POPC   GL153593  42.197  32.038   5.703
 4006POPC   GL253594  42.418  32.292   5.807
 4006POPC   C1A53595  42.193  31.978   6.185
 4006POPC   D2A53596  42.436  31.913   6.598
 4006POPC   C3A53597  42.319  32.159   7.011
 4006POPC   C4A53598  42.134  32.158   7.417
 4006POPC   C1B53599  42.580  32.296   6.221
 4006POPC   C2B53600  42.535  32.450   6.651
 4006POPC   C3B53601  42.661  32.574   7.100
 4006POPC   C4B53602  42.516  32.472   7.575
 4007POPC   NC353603  16.468  34.730   5.376
 4007POPC   PO453604  17.129  34.559   5.264
 4007POPC   GL153605  16.909  34.582   5.708
 4007POPC   GL253606  16.552  34.511   5.825
 4007POPC   C1A53607  16.847  34.678   6.175
 4007POPC   D2A53608  16.608  34.733   6.543
 4007POPC   C3A53609  16.788  34.620   6.914
 4007POPC   C4A53610  16.997  34.719   7.267
 4007POPC   C1B53611  16.365  34.362   6.247
 4007POPC   C2B53612  16.252  34.388   6.713
 4007POPC   C3B53613  16.417  34.380   7.132
 4007POPC   C4B53614  16.649  34.338   7.534
 4008POPC   NC353615  10.444  28.182   5.219
 4008POPC   PO453616   9.996  27.893   5.648
 4008POPC   GL153617  10.367  28.150   5.740
 4008POPC   GL253618  10.441  28.515   5.819
 4008POPC   C1A53619  10.647  28.096   6.085
 4008POPC   D2A53620  10.575  28.182   6.541
 4008POPC   C3A53621  10.766  28.431   6.849
 4008POPC   C4A53622  10.667  28.266   7.224
 4008POPC   C1B53623  10.273  28.428   6.205
 4008POPC   C2B53624  10.202  28.563   6.598
 4008POPC   C3B53625  10.256  28.461   6.959
 4008POPC   C4B53626  10.463  28.730   7.203
 4009POPC   NC353627  22.408  25.025   5.323
 4009POPC   PO453628  21.772  25.217   5.523
 4009POPC   GL153629  22.135  25.084   5.779
 4009POPC   GL253630  22.403  25.330   5.818
 4009POPC   C1A53631  22.270  25.025   6.230
 4009POPC   D2A53632  22.103  25.232   6.623
 4009POPC   C3A53633  21.958  25.038   7.004
 4009POPC   C4A53634  22.148  25.068   7.421
 4009POPC   C1B53635  22.347  25.549   6.221
 4009POPC   C2B53636  22.525  25.514   6.649
 4009POPC   C3B53637  22.333  25.415   7.077
 4009POPC   C4B53638  22.424  25.487   7.551
 4010POPC   NC353639  14.556  20.370   5.475
 4010POPC   PO453640  14.255  21.002   5.292
 4010POPC   GL153641  14.317  20.775   5.708
 4010POPC   GL253642  14.613  20.619   5.908
 4010POPC   C1A53643  14.262  20.829   6.176
 4010POPC   D2A53644  14.595  20.910   6.503
 4010POPC   C3A53645  14.451  20.807   6.934
 4010POPC   C4A53646  14.568  20.842   7.363
 4010POPC   C1B53647  14.557  20.349   6.260
 4010POPC   C2B53648  14.706  20.416   6.670
 4010POPC   C3B53649  14.693  20.376   7.113
 4010POPC   C4B53650  14.660  20.363   7.560
 4011POPC   NC353651   9.254   1.946   5.369
 4011POPC   PO453652   8.723   1.598   5.399
 4011POPC   GL153653   8.983   1.680   5.756
 4011POPC   GL253654   8.948   2.055   5.838
 4011POPC   C1A53655   9.084   1.700   6.201
 4011POPC   D2A53656   8.884   1.946   6.532
 4011POPC   C3A53657   9.021   1.719   6.946
 4011POPC   C4A53658   9.266   1.839   7.330
 4011POPC   C1B53659   9.201   2.216   6.226
 4011POPC   C2B53660   9.301   2.135   6.701
 4011POPC   C3B53661   8.917   2.213   7.005
 4011POPC   C4B53662   8.786   2.459   7.393
 4012POPC   NC353663  20.395   2.798   5.193
 4012POPC   PO453664  19.877   3.121   5.436
 4012POPC   GL153665  19.907   2.800   5.756
 4012POPC   GL253666  19.613   2.584   5.808
 4012POPC   C1A53667  19.769   2.864   6.203
 4012POPC   D2A53668  19.841   3.068   6.631
 4012POPC   C3A53669  19.694   2.866   7.008
 4012POPC   C4A53670  19.724   3.012   7.461
 4012POPC   C1B53671  19.678   2.355   6.164
 4012POPC   C2B53672  19.829   2.493   6.557
 4012POPC   C3B53673  19.933   2.428   6.961
 4012POPC   C4B53674  20.080   2.292   7.343
 4013POPC   NC353675   0.934  27.237   5.499
 4013POPC   PO453676   1.465  27.568   5.438
 4013POPC   GL153677   1.318  27.469   5.832
 4013POPC   GL253678   1.053  27.703   5.774
 4013POPC   C1A53679   1.225  27.584   6.274
 4013POPC   D2A53680   1.225  27.922   6.578
 4013POPC   C3A53681   1.248  27.763   7.005
 4013POPC   C4A53682   1.314  27.433   7.352
 4013POPC   C1B53683   0.933  27.979   6.119
 4013POPC   C2B53684   0.754  28.071   6.530
 4013POPC   C3B53685   0.773  27.967   6.988
 4013POPC   C4B53686   0.925  27.742   7.390
 4014POPC   NC353687  25.765  36.360   5.219
 4014POPC   PO453688  26.310  35.884   5.474
 4014POPC   GL153689  26.258  36.077   5.923
 4014POPC   GL253690  25.884  36.082   6.018
 4014POPC   C1A53691  26.204  36.362   6.280
 4014POPC   D2A53692  25.959  36.181   6.573
 4014POPC   C3A53693  26.164  36.122   6.952
 4014POPC   C4A53694  26.182  35.965   7.345
 4014POPC   C1B53695  25.658  36.422   6.175
 4014POPC   C2B53696  25.647  36.584   6.567
 4014POPC   C3B53697  25.705  36.416   6.956
 4014POPC   C4B53698  26.017  36.482   7.259
 4015POPC   NC353699   9.764  10.707   5.405
 4015POPC   PO453700   9.760  10.084   5.503
 4015POPC   GL153701   9.637  10.308   5.869
 4015POPC   GL253702   9.448  10.636   5.821
 4015POPC   C1A53703   9.935  10.512   6.134
 4015POPC   D2A53704  10.060  10.731   6.526
 4015POPC   C3A53705  10.108  10.466   6.903
 4015POPC   C4A53706   9.890  10.337   7.302
 4015POPC   C1B53707   9.512  10.759   6.235
 4015POPC   C2B53708   9.582  10.559   6.614
 4015POPC   C3B53709   9.600  10.674   7.037
 4015POPC   C4B53710   9.475  10.704   7.476
 4016POPC   NC353711  39.236  39.092   5.317
 4016POPC   PO453712  39.689  38.955   5.797
 4016POPC   GL153713  39.327  39.221   5.799
 4016POPC   GL253714  39.383  39.523   5.593
 4016POPC   C1A53715  38.997  39.292   6.102
 4016POPC   D2A53716  39.068  39.290   6.570
 4016POPC   C3A53717  38.954  39.141   6.995
 4016POPC   C4A53718  39.176  39.100   7.434
 4016POPC   C1B53719  39.486  39.650   6.039
 4016POPC   C2B53720  39.518  39.572   6.494
 4016POPC   C3B53721  39.618  39.692   6.934
 4016POPC   C4B53722  39.529  39.906   7.321
 4017POPC   NC353723  28.070  21.017   5.195
 4017POPC   PO453724  28.502  20.562   5.375
 4017POPC   GL153725  28.350  20.515   5.776
 4017POPC   GL253726  28.092  20.773   5.769
 4017POPC   C1A53727  28.539  20.422   6.182
 4017POPC   D2A53728  28.763  20.360   6.546
 4017POPC   C3A53729  28.550  20.360   6.927
 4017POPC   C4A53730  28.779  20.429   7.300
 4017POPC   C1B53731  28.303  20.878   6.162
 4017POPC   C2B53732  28.398  20.751   6.594
 4017POPC   C3B53733  28.510  20.854   7.045
 4017POPC   C4B53734  28.639  20.901   7.472
 4018POPC   NC353735  32.674  31.335   5.331
 4018POPC   PO453736  33.296  31.669   5.385
 4018POPC   GL153737  32.947  31.669   5.685
 4018POPC   GL253738  32.970  31.312   5.736
 4018POPC   C1A53739  32.931  31.869   6.122
 4018POPC   D2A53740  33.063  32.074   6.522
 4018POPC   C3A53741  33.020  31.791   6.875
 4018POPC   C4A53742  33.103  31.645   7.287
 4018POPC   C1B53743  32.767  31.391   6.109
 4018POPC   C2B53744  32.804  31.516   6.515
 4018POPC   C3B53745  32.815  31.316   6.938
 4018POPC   C4B53746  32.599  31.467   7.305
 4019POPC   NC353747  17.450  24.935   5.470
 4019POPC   PO453748  17.819  24.387   5.388
 4019POPC   GL153749  17.704  24.309   5.800
 4019POPC   GL253750  17.370  24.419   5.850
 4019POPC   C1A53751  17.725  24.478   6.225
 4019POPC   D2A53752  17.545  24.374   6.615
 4019POPC   C3A53753  17.752  24.464   6.981
 4019POPC   C4A53754  17.557  24.559   7.368
 4019POPC   C1B53755  17.247  24.634   6.273
 4019POPC   C2B53756  17.173  24.714   6.766
 4019POPC   C3B53757  17.242  24.924   7.200
 4019POPC   C4B53758  17.412  24.973   7.640
 4020POPC   NC353759   6.712  44.766   5.406
 4020POPC   PO453760   6.344  44.193   5.541
 4020POPC   GL153761   6.578  44.482   5.843
 4020POPC   GL253762   6.767  44.820   5.891
 4020POPC   C1A53763   6.539  44.618   6.288
 4020POPC   D2A53764   6.326  44.545   6.662
 4020POPC   C3A53765   6.532  44.767   6.977
 4020POPC   C4A53766   6.701  44.538   7.307
 4020POPC   C1B53767   7.075  44.689   6.187
 4020POPC   C2B53768   7.055  44.630   6.635
 4020POPC   C3B53769   7.123  44.668   7.068
 4020POPC   C4B53770   7.185  44.485   7.493
 4021POPC   NC353771   3.326  41.083   5.429
 4021POPC   PO453772   3.919  40.781   5.419
 4021POPC   GL153773   3.667  40.923   5.773
 4021POPC   GL253774   3.371  40.705   5.789
 4021POPC   C1A53775   3.608  41.132   6.164
 4021POPC   D2A53776   3.745  40.925   6.530
 4021POPC   C3A53777   3.620  41.103   6.916
 4021POPC   C4A53778   3.812  40.968   7.321
 4021POPC   C1B53779   3.220  40.787   6.199
 4021POPC   C2B53780   3.235  40.970   6.602
 4021POPC   C3B53781   3.170  40.812   6.998
 4021POPC   C4B53782   3.150  40.510   7.328
 4022POPC   NC353783   6.754  17.974   5.383
 4022POPC   PO453784   6.566  18.589   5.498
 4022POPC   GL153785   6.354  18.424   5.850
 4022POPC   GL253786   6.563  18.121   5.889
 4022POPC   C1A53787   6.438  18.403   6.298
 4022POPC   D2A53788   6.754  18.164   6.510
 4022POPC   C3A53789   6.571  18.000   6.851
 4022POPC   C4A53790   6.486  18.172   7.259
 4022POPC   C1B53791   6.980  17.995   6.059
 4022POPC   C2B53792   7.239  17.986   6.421
 4022POPC   C3B53793   7.179  17.997   6.861
 4022POPC   C4B53794   6.928  17.921   7.217
 4023POPC   NC353795  11.683   2.143   5.515
 4023POPC   PO453796  12.316   1.769   5.495
 4023POPC   GL153797  12.058   1.932   5.826
 4023POPC   GL253798  11.708   1.810   5.914
 4023POPC   C1A53799  12.118   2.076   6.225
 4023POPC   D2A53800  12.032   1.862   6.577
 4023POPC   C3A53801  12.227   2.049   6.882
 4023POPC   C4A53802  12.203   2.007   7.297
 4023POPC   C1B53803  11.621   2.191   6.195
 4023POPC   C2B53804  11.823   2.370   6.578
 4023POPC   C3B53805  11.758   2.215   6.996
 4023POPC   C4B53806  11.765   2.199   7.451
 4024POPC   NC353807  10.029  13.122   5.393
 4024POPC   PO453808   9.359  12.994   5.337
 4024POPC   GL153809   9.632  12.874   5.694
 4024POPC   GL253810   9.565  12.517   5.772
 4024POPC   C1A53811   9.806  12.879   6.135
 4024POPC   D2A53812   9.578  13.028   6.540
 4024POPC   C3A53813   9.762  13.002   6.957
 4024POPC   C4A53814   9.739  12.885   7.414
 4024POPC   C1B53815   9.640  12.403   6.231
 4024POPC   C2B53816   9.784  12.564   6.641
 4024POPC   C3B53817   9.549  12.560   7.040
 4024POPC   C4B53818   9.522  12.399   7.454
 4025POPC   NC353819   3.400  19.869   5.433
 4025POPC   PO453820   2.765  19.850   5.319
 4025POPC   GL153821   2.983  19.980   5.717
 4025POPC   GL253822   3.154  19.698   5.880
 4025POPC   C1A53823   3.073  20.164   6.139
 4025POPC   D2A53824   3.026  19.966   6.536
 4025POPC   C3A53825   2.984  20.112   6.952
 4025POPC   C4A53826   2.676  19.902   7.212
 4025POPC   C1B53827   2.765  19.739   6.154
 4025POPC   C2B53828   2.562  19.594   6.558
 4025POPC   C3B53829   2.620  19.420   7.026
 4025POPC   C4B53830   2.790  19.457   7.481
 4026POPC   NC353831  27.983   5.353   5.357
 4026POPC   PO453832  28.514   4.959   5.456
 4026POPC   GL153833  28.292   5.173   5.775
 4026POPC   GL253834  28.585   5.210   5.945
 4026POPC   C1A53835  28.160   5.136   6.234
 4026POPC   D2A53836  28.338   4.977   6.655
 4026POPC   C3A53837  28.258   5.122   7.096
 4026POPC   C4A53838  28.245   5.414   7.487
 4026POPC   C1B53839  28.646   5.291   6.381
 4026POPC   C2B53840  28.549   5.431   6.811
 4026POPC   C3B53841  28.698   5.377   7.246
 4026POPC   C4B53842  28.834   5.426   7.688
 4027POPC   NC353843  11.569  34.753   5.386
 4027POPC   PO453844  12.182  34.360   5.423
 4027POPC   GL153845  12.169  34.335   5.834
 4027POPC   GL253846  11.811  34.325   5.834
 4027POPC   C1A53847  12.155  34.337   6.268
 4027POPC   D2A53848  12.258  34.505   6.646
 4027POPC   C3A53849  12.126  34.430   7.058
 4027POPC   C4A53850  12.396  34.598   7.369
 4027POPC   C1B53851  11.848  34.708   6.068
 4027POPC   C2B53852  11.818  34.779   6.523
 4027POPC   C3B53853  11.700  34.713   6.960
 4027POPC   C4B53854  11.628  34.335   7.212
 4028POPC   NC353855   2.191  10.357   5.418
 4028POPC   PO453856   2.130  11.023   5.215
 4028POPC   GL153857   2.010  10.818   5.682
 4028POPC   GL253858   1.830  10.473   5.770
 4028POPC   C1A53859   2.068  10.704   6.159
 4028POPC   D2A53860   2.135  10.516   6.582
 4028POPC   C3A53861   2.103  10.733   6.958
 4028POPC   C4A53862   1.889  10.654   7.325
 4028POPC   C1B53863   1.724  10.304   6.204
 4028POPC   C2B53864   1.721  10.122   6.615
 4028POPC   C3B53865   1.862  10.252   7.007
 4028POPC   C4B53866   1.563  10.255   7.340
 4029POPC   NC353867  11.686  15.893   5.493
 4029POPC   PO453868  10.956  15.628   5.474
 4029POPC   GL153869  11.213  15.689   5.835
 4029POPC   GL253870  11.245  16.048   5.789
 4029POPC   C1A53871  11.402  15.787   6.259
 4029POPC   D2A53872  11.364  15.908   6.712
 4029POPC   C3A53873  11.138  15.694   7.034
 4029POPC   C4A53874  11.547  15.564   7.216
 4029POPC   C1B53875  11.432  16.280   6.135
 4029POPC   C2B53876  11.309  16.394   6.564
 4029POPC   C3B53877  11.532  16.330   6.941
 4029POPC   C4B53878  11.416  16.065   7.227
 4030POPC   NC353879  35.606  25.394   5.353
 4030POPC   PO453880  34.971  25.620   5.522
 4030POPC   GL153881  35.226  25.342   5.813
 4030POPC   GL253882  35.392  24.991   5.760
 4030POPC   C1A53883  35.329  25.254   6.260
 4030POPC   D2A53884  35.239  25.383   6.674
 4030POPC   C3A53885  35.332  25.415   7.122
 4030POPC   C4A53886  35.247  25.261   7.521
 4030POPC   C1B53887  35.111  24.814   6.091
 4030POPC   C2B53888  35.051  24.887   6.540
 4030POPC   C3B53889  35.105  24.983   6.985
 4030POPC   C4B53890  35.183  24.781   7.366
 4031POPC   NC353891  44.821  31.514   5.164
 4031POPC   PO453892  44.260  31.188   5.338
 4031POPC   GL153893  44.522  31.211   5.706
 4031POPC   GL253894  44.761  31.395   5.947
 4031POPC   C1A53895  44.358  31.162   6.138
 4031POPC   D2A53896  44.582  31.239   6.533
 4031POPC   C3A53897  44.421  31.410   6.925
 4031POPC   C4A53898  44.580  31.716   7.218
 4031POPC   C1B53899  44.989  31.674   6.255
 4031POPC   C2B53900   0.131  31.917   6.634
 4031POPC   C3B53901   0.074  31.839   7.058
 4031POPC   C4B53902   0.275  31.511   7.287
 4032POPC   NC353903  42.163   2.926   5.441
 4032POPC   PO453904  42.585   2.388   5.449
 4032POPC   GL153905  42.693   2.725   5.768
 4032POPC   GL253906  42.508   3.067   5.830
 4032POPC   C1A53907  42.579   2.749   6.213
 4032POPC   D2A53908  42.314   2.580   6.523
 4032POPC   C3A53909  42.432   2.793   6.902
 4032POPC   C4A53910  42.364   2.588   7.261
 4032POPC   C1B53911  42.117   2.916   6.089
 4032POPC   C2B53912  41.834   2.847   6.439
 4032POPC   C3B53913  41.926   2.804   6.884
 4032POPC   C4B53914  42.089   3.034   7.247
 4033POPC   NC353915  22.461  42.174   5.513
 4033POPC   PO453916  21.873  42.590   5.482
 4033POPC   GL153917  22.151  42.566   5.840
 4033POPC   GL253918  21.996  42.262   5.954
 4033POPC   C1A53919  22.252  42.575   6.296
 4033POPC   D2A53920  22.159  42.730   6.703
 4033POPC   C3A53921  22.111  42.434   7.015
 4033POPC   C4A53922  22.334  42.522   7.407
 4033POPC   C1B53923  22.160  42.054   6.326
 4033POPC   C2B53924  22.409  42.189   6.677
 4033POPC   C3B53925  22.464  42.105   7.139
 4033POPC   C4B53926  22.234  41.994   7.550
 4034POPC   NC353927  14.876  31.445   5.303
 4034POPC   PO453928  14.269  31.561   5.284
 4034POPC   GL153929  14.343  31.519   5.763
 4034POPC   GL253930  14.661  31.676   5.772
 4034POPC   C1A53931  14.228  31.785   6.174
 4034POPC   D2A53932  14.100  31.974   6.588
 4034POPC   C3A53933  14.196  31.767   6.991
 4034POPC   C4A53934  14.317  31.512   7.326
 4034POPC   C1B53935  14.647  31.509   6.199
 4034POPC   C2B53936  14.541  31.712   6.586
 4034POPC   C3B53937  14.694  31.667   6.979
 4034POPC   C4B53938  14.831  31.586   7.387
 4035POPC   NC353939   1.426  41.228   5.514
 4035POPC   PO453940   0.946  41.721   5.403
 4035POPC   GL153941   1.131  41.586   5.769
 4035POPC   GL253942   1.271  41.939   5.842
 4035POPC   C1A53943   1.105  41.284   6.153
 4035POPC   D2A53944   0.969  41.082   6.560
 4035POPC   C3A53945   1.162  41.235   6.950
 4035POPC   C4A53946   1.431  41.498   7.225
 4035POPC   C1B53947   1.044  41.821   6.197
 4035POPC   C2B53948   1.083  41.606   6.563
 4035POPC   C3B53949   1.088  41.760   6.946
 4035POPC   C4B53950   0.994  41.752   7.361
 4036POPC   NC353951  17.830   9.205   5.295
 4036POPC   PO453952  18.354   9.000   5.481
 4036POPC   GL153953  18.157   9.261   5.814
 4036POPC   GL253954  17.853   9.081   5.827
 4036POPC   C1A53955  18.245   9.357   6.287
 4036POPC   D2A53956  18.509   9.174   6.633
 4036POPC   C3A53957  18.422   9.161   7.093
 4036POPC   C4A53958  18.321   9.175   7.526
 4036POPC   C1B53959  17.888   8.991   6.304
 4036POPC   C2B53960  18.019   9.036   6.769
 4036POPC   C3B53961  17.978   8.914   7.234
 4036POPC   C4B53962  18.049   8.780   7.684
 4037POPC   NC353963  12.594  18.061   5.100
 4037POPC   PO453964  12.888  17.455   5.197
 4037POPC   GL153965  12.963  17.549   5.671
 4037POPC   GL253966  12.777  17.294   5.732
 4037POPC   C1A53967  13.052  17.471   6.136
 4037POPC   D2A53968  13.091  17.638   6.565
 4037POPC   C3A53969  13.169  17.384   6.935
 4037POPC   C4A53970  12.974  17.425   7.334
 4037POPC   C1B53971  12.570  17.163   6.087
 4037POPC   C2B53972  12.508  17.356   6.491
 4037POPC   C3B53973  12.639  17.466   6.908
 4037POPC   C4B53974  12.498  17.165   7.228
 4038POPC   NC353975  23.256  26.675   5.517
 4038POPC   PO453976  23.755  27.110   5.467
 4038POPC   GL153977  23.626  26.864   5.845
 4038POPC   GL253978  23.471  27.171   5.932
 4038POPC   C1A53979  23.612  26.560   6.232
 4038POPC   D2A53980  23.890  26.558   6.619
 4038POPC   C3A53981  23.645  26.569   6.998
 4038POPC   C4A53982  23.423  26.778   7.331
 4038POPC   C1B53983  23.753  27.042   6.334
 4038POPC   C2B53984  23.825  27.026   6.816
 4038POPC   C3B53985  23.898  27.025   7.267
 4038POPC   C4B53986  23.763  26.998   7.712
 4039POPC   NC353987   8.299  12.649   5.100
 4039POPC   PO453988   8.276  12.032   5.375
 4039POPC   GL153989   8.179  12.034   5.819
 4039POPC   GL253990   7.853  12.198   5.855
 4039POPC   C1A53991   8.227  12.239   6.215
 4039POPC   D2A53992   8.466  12.299   6.569
 4039POPC   C3A53993   8.317  12.181   6.953
 4039POPC   C4A53994   8.375  11.998   7.356
 4039POPC   C1B53995   7.853  11.874   6.187
 4039POPC   C2B53996   8.069  11.912   6.582
 4039POPC   C3B53997   7.862  11.959   6.974
 4039POPC   C4B53998   7.888  12.167   7.335
 4040POPC   NC353999  44.331  23.316   5.559
 4040POPC   PO454000  44.923  23.629   5.435
 4040POPC   GL154001  44.748  23.639   5.858
 4040POPC   GL254002  44.771  23.320   5.885
 4040POPC   C1A54003  44.948  23.638   6.306
 4040POPC   D2A54004  44.886  23.913   6.687
 4040POPC   C3A54005  44.718  23.877   7.110
 4040POPC   C4A54006  44.865  23.626   7.481
 4040POPC   C1B54007  44.527  23.368   6.272
 4040POPC   C2B54008  44.557  23.495   6.729
 4040POPC   C3B54009  44.470  23.459   7.190
 4040POPC   C4B54010  44.395  23.388   7.642
 4041POPC   NC354011  27.446  42.366   5.392
 4041POPC   PO454012  27.486  43.055   5.505
 4041POPC   GL154013  27.593  42.680   5.791
 4041POPC   GL254014  27.256  42.584   5.864
 4041POPC   C1A54015  27.629  42.370   6.183
 4041POPC   D2A54016  27.424  42.068   6.520
 4041POPC   C3A54017  27.507  42.199   6.950
 4041POPC   C4A54018  27.718  42.565   7.142
 4041POPC   C1B54019  27.124  42.427   6.278
 4041POPC   C2B54020  27.329  42.581   6.638
 4041POPC   C3B54021  27.220  42.662   7.043
 4041POPC   C4B54022  27.262  42.382   7.359
 4042POPC   NC354023   3.311  37.919   5.408
 4042POPC   PO454024   3.812  37.467   5.510
 4042POPC   GL154025   3.701  37.655   5.848
 4042POPC   GL254026   3.381  37.594   5.789
 4042POPC   C1A54027   3.819  37.680   6.274
 4042POPC   D2A54028   3.580  37.755   6.631
 4042POPC   C3A54029   3.805  37.671   7.003
 4042POPC   C4A54030   3.626  37.847   7.328
 4042POPC   C1B54031   3.372  37.420   6.189
 4042POPC   C2B54032   3.282  37.335   6.592
 4042POPC   C3B54033   3.364  37.418   7.002
 4042POPC   C4B54034   3.093  37.427   7.348
 4043POPC   NC354035  43.431  23.625   5.250
 4043POPC   PO454036  43.936  23.544   5.573
 4043POPC   GL154037  44.192  23.638   5.955
 4043POPC   GL254038  43.985  23.928   6.019
 4043POPC   C1A54039  44.170  23.691   6.435
 4043POPC   D2A54040  43.875  23.592   6.778
 4043POPC   C3A54041  43.994  23.640   7.213
 4043POPC   C4A54042  44.294  23.879   7.466
 4043POPC   C1B54043  43.725  23.948   6.408
 4043POPC   C2B54044  43.763  24.105   6.848
 4043POPC   C3B54045  43.860  24.134   7.285
 4043POPC   C4B54046  43.750  24.340   7.684
 4044POPC   NC354047  38.775   2.444   5.349
 4044POPC   PO454048  38.279   2.952   5.140
 4044POPC   GL154049  38.432   2.967   5.644
 4044POPC   GL254050  38.565   2.658   5.769
 4044POPC   C1A54051  38.543   2.987   6.148
 4044POPC   D2A54052  38.405   3.008   6.564
 4044POPC   C3A54053  38.647   3.080   6.925
 4044POPC   C4A54054  38.727   2.789   7.259
 4044POPC   C1B54055  38.388   2.495   6.160
 4044POPC   C2B54056  38.169   2.553   6.548
 4044POPC   C3B54057  38.369   2.574   6.952
 4044POPC   C4B54058  38.316   2.379   7.371
 4045POPC   NC354059  34.506  25.420   5.431
 4045POPC   PO454060  34.513  24.844   5.089
 4045POPC   GL154061  34.655  24.898   5.566
 4045POPC   GL254062  34.452  24.784   5.854
 4045POPC   C1A54063  34.725  25.164   5.984
 4045POPC   D2A54064  34.812  25.310   6.399
 4045POPC   C3A54065  34.752  25.428   6.839
 4045POPC   C4A54066  34.440  25.460   7.205
 4045POPC   C1B54067  34.603  24.803   6.311
 4045POPC   C2B54068  34.526  24.696   6.735
 4045POPC   C3B54069  34.599  24.995   7.031
 4045POPC   C4B54070  34.760  25.077   7.429
 4046POPC   NC354071  23.404  18.972   5.428
 4046POPC   PO454072  23.973  19.290   5.333
 4046POPC   GL154073  23.934  19.051   5.678
 4046POPC   GL254074  23.642  19.204   5.821
 4046POPC   C1A54075  24.023  18.872   6.080
 4046POPC   D2A54076  23.765  18.944   6.458
 4046POPC   C3A54077  23.932  18.970   6.886
 4046POPC   C4A54078  23.736  18.967   7.309
 4046POPC   C1B54079  23.444  19.309   6.231
 4046POPC   C2B54080  23.330  19.175   6.666
 4046POPC   C3B54081  23.243  19.066   7.095
 4046POPC   C4B54082  23.358  19.310   7.475
 4047POPC   NC354083   7.358  27.904   5.070
 4047POPC   PO454084   7.812  27.542   5.417
 4047POPC   GL154085   7.520  27.601   5.765
 4047POPC   GL254086   7.220  27.836   5.708
 4047POPC   C1A54087   7.506  27.462   6.193
 4047POPC   D2A54088   7.195  27.514   6.511
 4047POPC   C3A54089   7.329  27.507   6.937
 4047POPC   C4A54090   7.205  27.124   7.047
 4047POPC   C1B54091   7.287  27.926   6.167
 4047POPC   C2B54092   7.487  27.909   6.603
 4047POPC   C3B54093   7.472  28.000   7.055
 4047POPC   C4B54094   7.573  27.719   7.433
 4048POPC   NC354095  15.690  34.704   5.451
 4048POPC   PO454096  16.259  34.328   5.464
 4048POPC   GL154097  16.025  34.427   5.767
 4048POPC   GL254098  16.102  34.749   5.764
 4048POPC   C1A54099  15.876  34.555   6.176
 4048POPC   D2A54100  15.765  34.364   6.542
 4048POPC   C3A54101  15.809  34.639   6.896
 4048POPC   C4A54102  15.902  34.333   7.145
 4048POPC   C1B54103  16.311  34.879   6.126
 4048POPC   C2B54104  16.120  34.887   6.536
 4048POPC   C3B54105  16.281  34.859   6.957
 4048POPC   C4B54106  16.021  34.914   7.309
 4049POPC   NC354107  22.819  31.715   5.179
 4049POPC   PO454108  23.088  31.115   5.314
 4049POPC   GL154109  22.937  31.309   5.697
 4049POPC   GL254110  23.259  31.417   5.834
 4049POPC   C1A54111  22.807  31.426   6.159
 4049POPC   D2A54112  22.856  31.621   6.601
 4049POPC   C3A54113  22.870  31.443   7.048
 4049POPC   C4A54114  22.610  31.508   7.452
 4049POPC   C1B54115  23.320  31.556   6.278
 4049POPC   C2B54116  23.342  31.469   6.714
 4049POPC   C3B54117  23.356  31.686   7.095
 4049POPC   C4B54118  23.093  31.670   7.465
 4050POPC   NC354119  28.191   7.216   5.436
 4050POPC   PO454120  28.553   7.718   5.235
 4050POPC   GL154121  28.485   7.563   5.726
 4050POPC   GL254122  28.476   7.210   5.873
 4050POPC   C1A54123  28.368   7.608   6.203
 4050POPC   D2A54124  28.504   7.484   6.634
 4050POPC   C3A54125  28.339   7.555   7.053
 4050POPC   C4A54126  28.340   7.161   7.254
 4050POPC   C1B54127  28.040   7.233   6.078
 4050POPC   C2B54128  27.886   7.253   6.504
 4050POPC   C3B54129  27.939   7.248   6.964
 4050POPC   C4B54130  27.956   7.424   7.427
 4051POPC   NC354131  23.945  21.620   5.154
 4051POPC   PO454132  24.018  21.020   5.572
 4051POPC   GL154133  24.013  21.178   6.012
 4051POPC   GL254134  23.725  21.386   5.978
 4051POPC   C1A54135  23.979  21.446   6.410
 4051POPC   D2A54136  23.763  21.433   6.823
 4051POPC   C3A54137  23.966  21.318   7.211
 4051POPC   C4A54138  24.009  21.011   7.578
 4051POPC   C1B54139  23.477  21.432   6.354
 4051POPC   C2B54140  23.388  21.728   6.670
 4051POPC   C3B54141  23.328  21.603   7.082
 4051POPC   C4B54142  23.458  21.795   7.463
 4052POPC   NC354143   3.475  27.222   5.408
 4052POPC   PO454144   3.872  27.794   5.523
 4052POPC   GL154145   3.583  27.577   5.788
 4052POPC   GL254146   3.633  27.211   5.890
 4052POPC   C1A54147   3.528  27.615   6.221
 4052POPC   D2A54148   3.662  27.829   6.581
 4052POPC   C3A54149   3.358  27.797   6.914
 4052POPC   C4A54150   3.318  27.498   7.272
 4052POPC   C1B54151   3.761  27.015   6.298
 4052POPC   C2B54152   3.780  26.974   6.779
 4052POPC   C3B54153   3.798  27.231   7.190
 4052POPC   C4B54154   3.881  27.070   7.633
 4053POPC   NC354155   3.955  36.999   5.545
 4053POPC   PO454156   4.618  36.875   5.580
 4053POPC   GL154157   4.520  36.958   5.963
 4053POPC   GL254158   4.177  36.896   5.986
 4053POPC   C1A54159   4.477  36.983   6.393
 4053POPC   D2A54160   4.221  37.040   6.712
 4053POPC   C3A54161   4.547  37.108   6.949
 4053POPC   C4A54162   4.685  36.932   7.298
 4053POPC   C1B54163   3.932  36.556   6.169
 4053POPC   C2B54164   3.747  36.400   6.568
 4053POPC   C3B54165   3.874  36.615   6.946
 4053POPC   C4B54166   4.192  36.824   7.175
 4054POPC   NC354167  20.155  26.552   5.577
 4054POPC   PO454168  20.524  27.049   5.308
 4054POPC   GL154169  20.558  26.854   5.745
 4054POPC   GL254170  20.775  26.551   5.831
 4054POPC   C1A54171  20.386  26.768   6.182
 4054POPC   D2A54172  20.546  26.948   6.572
 4054POPC   C3A54173  20.372  26.866   6.960
 4054POPC   C4A54174  20.380  27.088   7.353
 4054POPC   C1B54175  20.885  26.714   6.249
 4054POPC   C2B54176  20.977  26.703   6.680
 4054POPC   C3B54177  20.803  26.507   7.008
 4054POPC   C4B54178  20.579  26.610   7.356
 4055POPC   NC354179  39.918  30.946   5.350
 4055POPC   PO454180  40.303  30.405   5.512
 4055POPC   GL154181  40.153  30.510   5.929
 4055POPC   GL254182  39.806  30.682   5.929
 4055POPC   C1A54183  40.004  30.512   6.357
 4055POPC   D2A54184  39.809  30.875   6.512
 4055POPC   C3A54185  40.164  30.946   6.743
 4055POPC   C4A54186  40.299  30.824   7.133
 4055POPC   C1B54187  39.591  30.318   6.159
 4055POPC   C2B54188  39.580  30.219   6.601
 4055POPC   C3B54189  39.830  30.490   6.863
 4055POPC   C4B54190  39.788  30.899   7.090
 4056POPC   NC354191  29.373  31.778   5.139
 4056POPC   PO454192  29.366  32.342   5.271
 4056POPC   GL154193  29.448  32.436   5.745
 4056POPC   GL254194  29.429  32.792   5.863
 4056POPC   C1A54195  29.383  32.363   6.227
 4056POPC   D2A54196  29.268  32.367   6.709
 4056POPC   C3A54197  29.466  32.124   7.100
 4056POPC   C4A54198  29.636  31.974   7.530
 4056POPC   C1B54199  29.511  32.856   6.306
 4056POPC   C2B54200  29.687  32.686   6.705
 4056POPC   C3B54201  29.473  32.646   7.099
 4056POPC   C4B54202  29.046  32.447   7.186
 4057POPC   NC354203  16.786  42.981   5.434
 4057POPC   PO454204  16.378  43.513   5.414
 4057POPC   GL154205  16.713  43.378   5.766
 4057POPC   GL254206  16.691  43.023   5.916
 4057POPC   C1A54207  16.973  43.348   6.189
 4057POPC   D2A54208  16.936  43.198   6.626
 4057POPC   C3A54209  16.600  43.290   6.900
 4057POPC   C4A54210  16.670  43.385   7.284
 4057POPC   C1B54211  16.471  43.193   6.243
 4057POPC   C2B54212  16.442  42.935   6.570
 4057POPC   C3B54213  16.644  42.767   6.927
 4057POPC   C4B54214  16.565  42.886   7.364
 4058POPC   NC354215   7.399  16.616   5.329
 4058POPC   PO454216   7.240  17.126   5.720
 4058POPC   GL154217   7.314  16.718   5.855
 4058POPC   GL254218   7.647  16.703   5.853
 4058POPC   C1A54219   7.329  16.653   6.298
 4058POPC   D2A54220   7.163  17.003   6.527
 4058POPC   C3A54221   7.297  17.097   6.953
 4058POPC   C4A54222   7.036  17.113   7.340
 4058POPC   C1B54223   7.697  16.316   6.122
 4058POPC   C2B54224   7.697  16.369   6.562
 4058POPC   C3B54225   7.406  16.533   6.828
 4058POPC   C4B54226   7.341  16.671   7.226
 4059POPC   NC354227  14.405  15.494   5.576
 4059POPC   PO454228  14.114  14.872   5.400
 4059POPC   GL154229  14.249  14.863   5.860
 4059POPC   GL254230  14.511  15.114   5.907
 4059POPC   C1A54231  14.230  14.968   6.329
 4059POPC   D2A54232  14.349  15.172   6.742
 4059POPC   C3A54233  14.246  14.980   7.135
 4059POPC   C4A54234  14.393  15.068   7.571
 4059POPC   C1B54235  14.501  15.402   6.280
 4059POPC   C2B54236  14.778  15.472   6.627
 4059POPC   C3B54237  14.755  15.374   7.067
 4059POPC   C4B54238  14.750  15.504   7.499
 4060POPC   NC354239  23.779  24.083   5.518
 4060POPC   PO454240  23.707  24.753   5.346
 4060POPC   GL154241  23.675  24.544   5.739
 4060POPC   GL254242  23.506  24.738   5.941
 4060POPC   C1A54243  23.656  24.309   6.145
 4060POPC   D2A54244  23.707  24.177   6.556
 4060POPC   C3A54245  23.564  24.373   6.942
 4060POPC   C4A54246  23.797  24.186   7.305
 4060POPC   C1B54247  23.776  24.848   6.227
 4060POPC   C2B54248  23.675  24.829   6.666
 4060POPC   C3B54249  23.649  24.857   7.106
 4060POPC   C4B54250  23.957  24.651   7.362
 4061POPC   NC354251  28.393  26.930   5.285
 4061POPC   PO454252  28.012  26.418   5.452
 4061POPC   GL154253  28.297  26.706   5.741
 4061POPC   GL254254  28.213  27.036   5.885
 4061POPC   C1A54255  28.306  26.641   6.181
 4061POPC   D2A54256  28.291  26.803   6.591
 4061POPC   C3A54257  28.305  26.550   6.918
 4061POPC   C4A54258  28.607  26.636   7.143
 4061POPC   C1B54259  28.540  27.095   6.255
 4061POPC   C2B54260  28.512  27.261   6.673
 4061POPC   C3B54261  28.436  27.135   7.094
 4061POPC   C4B54262  28.547  27.377   7.448
 4062POPC   NC354263  36.719  14.599   5.244
 4062POPC   PO454264  37.323  14.610   5.600
 4062POPC   GL154265  37.083  14.565   5.923
 4062POPC   GL254266  36.759  14.571   5.780
 4062POPC   C1A54267  37.178  14.467   6.345
 4062POPC   D2A54268  37.534  14.324   6.587
 4062POPC   C3A54269  37.346  14.133   6.954
 4062POPC   C4A54270  36.967  14.317   7.121
 4062POPC   C1B54271  36.692  14.374   6.185
 4062POPC   C2B54272  36.666  14.532   6.610
 4062POPC   C3B54273  36.473  14.702   6.971
 4062POPC   C4B54274  36.335  14.521   7.375
 4063POPC   NC354275  36.368  27.075   5.331
 4063POPC   PO454276  35.752  26.817   5.289
 4063POPC   GL154277  36.068  26.831   5.672
 4063POPC   GL254278  36.156  27.145   5.825
 4063POPC   C1A54279  36.171  26.718   6.116
 4063POPC   D2A54280  36.165  26.495   6.507
 4063POPC   C3A54281  36.289  26.703   6.888
 4063POPC   C4A54282  36.425  26.757   7.304
 4063POPC   C1B54283  35.903  27.146   6.220
 4063POPC   C2B54284  35.950  27.100   6.700
 4063POPC   C3B54285  36.142  27.146   7.134
 4063POPC   C4B54286  36.002  27.108   7.607
 4064POPC   NC354287   6.289  10.090   5.521
 4064POPC   PO454288   5.851  10.692   5.468
 4064POPC   GL154289   5.964  10.512   5.884
 4064POPC   GL254290   5.635  10.615   5.959
 4064POPC   C1A54291   5.858  10.416   6.368
 4064POPC   D2A54292   5.606  10.175   6.663
 4064POPC   C3A54293   5.590  10.363   7.073
 4064POPC   C4A54294   5.847  10.554   7.385
 4064POPC   C1B54295   5.906  10.895   6.219
 4064POPC   C2B54296   6.184  10.811   6.553
 4064POPC   C3B54297   5.973  10.642   6.883
 4064POPC   C4B54298   5.643  10.892   7.050
 4065POPC   NC354299  40.143   1.652   5.420
 4065POPC   PO454300  39.952   2.290   5.478
 4065POPC   GL154301  39.779   2.022   5.743
 4065POPC   GL254302  40.113   1.927   5.876
 4065POPC   C1A54303  39.727   2.117   6.150
 4065POPC   D2A54304  39.977   1.993   6.505
 4065POPC   C3A54305  39.829   2.042   6.928
 4065POPC   C4A54306  39.885   2.131   7.371
 4065POPC   C1B54307  40.358   1.788   6.252
 4065POPC   C2B54308  40.396   1.815   6.732
 4065POPC   C3B54309  40.255   1.861   7.158
 4065POPC   C4B54310  40.133   1.733   7.576
 4066POPC   NC354311  34.755   0.691   5.463
 4066POPC   PO454312  34.208   0.218   5.389
 4066POPC   GL154313  34.477   0.359   5.736
 4066POPC   GL254314  34.228   0.532   5.874
 4066POPC   C1A54315  34.789   0.197   6.078
 4066POPC   D2A54316  34.943   0.070   6.489
 4066POPC   C3A54317  35.035   0.202   6.915
 4066POPC   C4A54318  34.847   0.497   7.179
 4066POPC   C1B54319  34.468   0.534   6.256
 4066POPC   C2B54320  34.633   0.465   6.684
 4066POPC   C3B54321  34.369   0.527   7.021
 4066POPC   C4B54322  34.089   0.870   7.056
 4067POPC   NC354323  21.541   8.383   5.483
 4067POPC   PO454324  21.063   7.958   5.324
 4067POPC   GL154325  21.235   8.025   5.708
 4067POPC   GL254326  21.591   7.896   5.692
 4067POPC   C1A54327  21.295   8.304   6.072
 4067POPC   D2A54328  21.519   8.340   6.452
 4067POPC   C3A54329  21.314   8.434   6.841
 4067POPC   C4A54330  21.509   8.204   7.197
 4067POPC   C1B54331  21.454   7.733   6.090
 4067POPC   C2B54332  21.445   7.636   6.529
 4067POPC   C3B54333  21.265   7.904   6.844
 4067POPC   C4B54334  21.173   7.815   7.269
 4068POPC   NC354335  39.285   9.310   5.462
 4068POPC   PO454336  39.067   8.574   5.482
 4068POPC   GL154337  39.206   8.899   5.743
 4068POPC   GL254338  38.932   9.104   5.777
 4068POPC   C1A54339  39.444   8.966   6.113
 4068POPC   D2A54340  39.330   8.863   6.531
 4068POPC   C3A54341  39.433   9.132   6.865
 4068POPC   C4A54342  39.457   8.869   7.204
 4068POPC   C1B54343  38.966   9.089   6.225
 4068POPC   C2B54344  38.926   9.192   6.677
 4068POPC   C3B54345  38.952   8.958   7.085
 4068POPC   C4B54346  39.096   8.972   7.536
 4069POPC   NC354347   0.832  38.035   5.385
 4069POPC   PO454348   0.258  37.767   5.402
 4069POPC   GL154349   0.514  37.859   5.779
 4069POPC   GL254350   0.373  37.542   5.904
 4069POPC   C1A54351   0.686  37.810   6.237
 4069POPC   D2A54352   0.569  37.566   6.637
 4069POPC   C3A54353   0.713  37.653   7.082
 4069POPC   C4A54354   0.789  37.951   7.458
 4069POPC   C1B54355   0.221  37.362   6.296
 4069POPC   C2B54356   0.153  37.256   6.723
 4069POPC   C3B54357   0.188  37.479   7.136
 4069POPC   C4B54358   0.022  37.316   7.543
 4070POPC   NC354359   8.890  37.332   5.469
 4070POPC   PO454360   9.457  37.800   5.387
 4070POPC   GL154361   9.225  37.865   5.789
 4070POPC   GL254362   8.841  37.927   5.742
 4070POPC   C1A54363   9.246  37.611   6.141
 4070POPC   D2A54364   9.025  37.454   6.497
 4070POPC   C3A54365   9.245  37.562   6.869
 4070POPC   C4A54366   9.149  37.530   7.296
 4070POPC   C1B54367   8.810  37.828   6.199
 4070POPC   C2B54368   9.006  37.963   6.599
 4070POPC   C3B54369   8.852  37.880   7.021
 4070POPC   C4B54370   8.591  37.578   7.270
 4071POPC   NC354371   7.125  37.046   5.259
 4071POPC   PO454372   7.777  36.823   5.401
 4071POPC   GL154373   7.521  36.775   5.783
 4071POPC   GL254374   7.242  36.549   5.647
 4071POPC   C1A54375   7.482  36.936   6.246
 4071POPC   D2A54376   7.330  37.022   6.694
 4071POPC   C3A54377   7.247  37.125   7.154
 4071POPC   C4A54378   7.369  37.011   7.608
 4071POPC   C1B54379   7.195  36.520   6.086
 4071POPC   C2B54380   7.154  36.607   6.509
 4071POPC   C3B54381   7.261  36.605   6.964
 4071POPC   C4B54382   7.076  36.670   7.354
 4072POPC   NC354383   7.872  28.370   5.371
 4072POPC   PO454384   7.210  28.538   5.438
 4072POPC   GL154385   7.357  28.349   5.852
 4072POPC   GL254386   7.650  28.116   5.803
 4072POPC   C1A54387   7.280  28.466   6.312
 4072POPC   D2A54388   7.185  28.744   6.676
 4072POPC   C3A54389   7.440  28.814   7.001
 4072POPC   C4A54390   7.597  28.488   7.212
 4072POPC   C1B54391   7.715  28.199   6.259
 4072POPC   C2B54392   7.662  28.378   6.699
 4072POPC   C3B54393   7.956  28.176   7.025
 4072POPC   C4B54394   7.848  28.139   7.496
 4073POPC   NC354395  20.335   6.040   5.315
 4073POPC   PO454396  20.868   5.670   5.244
 4073POPC   GL154397  20.653   5.756   5.637
 4073POPC   GL254398  20.793   5.490   5.790
 4073POPC   C1A54399  20.616   6.005   6.084
 4073POPC   D2A54400  20.654   6.157   6.545
 4073POPC   C3A54401  20.569   6.036   6.986
 4073POPC   C4A54402  20.611   5.875   7.419
 4073POPC   C1B54403  20.817   5.570   6.243
 4073POPC   C2B54404  20.625   5.633   6.638
 4073POPC   C3B54405  20.782   5.563   7.047
 4073POPC   C4B54406  20.640   5.386   7.460
 4074POPC   NC354407  33.303  39.540   5.444
 4074POPC   PO454408  32.929  39.108   5.116
 4074POPC   GL154409  32.977  39.137   5.613
 4074POPC   GL254410  32.786  39.416   5.730
 4074POPC   C1A54411  33.202  39.011   6.035
 4074POPC   D2A54412  33.320  39.131   6.474
 4074POPC   C3A54413  33.170  39.044   6.872
 4074POPC   C4A54414  33.182  39.268   7.230
 4074POPC   C1B54415  32.608  39.334   6.139
 4074POPC   C2B54416  32.769  39.236   6.564
 4074POPC   C3B54417  32.723  39.242   7.009
 4074POPC   C4B54418  32.698  39.493   7.351
 4075POPC   NC354419  16.491  41.909   5.310
 4075POPC   PO454420  16.668  42.559   5.337
 4075POPC   GL154421  16.783  42.475   5.766
 4075POPC   GL254422  16.754  42.107   5.766
 4075POPC   C1A54423  16.634  42.581   6.202
 4075POPC   D2A54424  16.445  42.424   6.581
 4075POPC   C3A54425  16.664  42.253   6.968
 4075POPC   C4A54426  16.869  42.485   7.304
 4075POPC   C1B54427  16.962  42.178   6.179
 4075POPC   C2B54428  16.985  42.392   6.596
 4075POPC   C3B54429  17.179  42.223   6.988
 4075POPC   C4B54430  17.116  42.027   7.418
 4076POPC   NC354431  35.048  37.153   5.467
 4076POPC   PO454432  35.489  36.693   5.098
 4076POPC   GL154433  35.405  36.754   5.562
 4076POPC   GL254434  35.074  36.715   5.725
 4076POPC   C1A54435  35.472  36.792   6.019
 4076POPC   D2A54436  35.446  37.106   6.323
 4076POPC   C3A54437  35.495  37.009   6.763
 4076POPC   C4A54438  35.749  36.949   7.138
 4076POPC   C1B54439  34.980  36.985   6.106
 4076POPC   C2B54440  34.984  36.981   6.559
 4076POPC   C3B54441  35.040  37.141   6.961
 4076POPC   C4B54442  35.245  36.849   7.205
 4077POPC   NC354443  32.961  23.382   5.323
 4077POPC   PO454444  32.982  24.005   5.202
 4077POPC   GL154445  32.845  23.989   5.659
 4077POPC   GL254446  32.819  23.646   5.791
 4077POPC   C1A54447  32.896  24.067   6.132
 4077POPC   D2A54448  32.705  24.130   6.544
 4077POPC   C3A54449  32.807  23.905   6.952
 4077POPC   C4A54450  33.158  23.811   7.213
 4077POPC   C1B54451  33.108  23.571   6.161
 4077POPC   C2B54452  33.053  23.256   6.493
 4077POPC   C3B54453  33.006  23.406   6.906
 4077POPC   C4B54454  32.915  23.332   7.304
 4078POPC   NC354455   0.747  20.998   5.463
 4078POPC   PO454456   0.272  20.399   5.367
 4078POPC   GL154457   0.333  20.406   5.786
 4078POPC   GL254458   0.427  20.751   5.756
 4078POPC   C1A54459   0.593  20.453   6.165
 4078POPC   D2A54460   0.744  20.333   6.575
 4078POPC   C3A54461   0.470  20.376   6.964
 4078POPC   C4A54462   0.531  20.628   7.360
 4078POPC   C1B54463   0.548  20.960   6.134
 4078POPC   C2B54464   0.480  20.799   6.569
 4078POPC   C3B54465   0.483  20.971   6.984
 4078POPC   C4B54466   0.207  21.036   7.345
 4079POPC   NC354467  22.102  39.596   5.556
 4079POPC   PO454468  21.934  40.272   5.596
 4079POPC   GL154469  21.981  39.992   5.880
 4079POPC   GL254470  22.344  39.972   5.867
 4079POPC   C1A54471  22.017  39.960   6.299
 4079POPC   D2A54472  22.254  39.998   6.655
 4079POPC   C3A54473  22.063  39.890   7.051
 4079POPC   C4A54474  22.019  39.648   7.443
 4079POPC   C1B54475  22.511  40.223   6.228
 4079POPC   C2B54476  22.483  40.463   6.645
 4079POPC   C3B54477  22.338  40.313   7.075
 4079POPC   C4B54478  22.406  40.003   7.435
 4080POPC   NC354479  44.954  28.975   5.465
 4080POPC   PO454480  44.519  29.485   5.432
 4080POPC   GL154481  44.691  29.492   5.846
 4080POPC   GL254482  44.879  29.178   5.939
 4080POPC   C1A54483  44.702  29.490   6.315
 4080POPC   D2A54484  44.834  29.268   6.689
 4080POPC   C3A54485  44.544  29.300   7.055
 4080POPC   C4A54486  44.704  29.593   7.350
 4080POPC   C1B54487  44.657  28.969   6.308
 4080POPC   C2B54488  44.565  28.844   6.713
 4080POPC   C3B54489  44.838  28.883   7.053
 4080POPC   C4B54490  44.801  28.678   7.413
 4081POPC   NC354491  26.725  24.976   5.446
 4081POPC   PO454492  26.859  25.664   5.467
 4081POPC   GL154493  26.699  25.388   5.768
 4081POPC   GL254494  26.857  25.113   5.938
 4081POPC   C1A54495  26.487  25.386   6.155
 4081POPC   D2A54496  26.325  25.061   6.407
 4081POPC   C3A54497  26.451  25.048   6.806
 4081POPC   C4A54498  26.765  25.133   7.118
 4081POPC   C1B54499  26.881  25.148   6.399
 4081POPC   C2B54500  27.152  25.368   6.706
 4081POPC   C3B54501  27.289  25.210   7.080
 4081POPC   C4B54502  27.141  24.898   7.363
 4082POPC   NC354503  25.276  14.987   5.387
 4082POPC   PO454504  24.726  15.266   5.352
 4082POPC   GL154505  24.965  15.161   5.791
 4082POPC   GL254506  25.375  15.167   5.849
 4082POPC   C1A54507  25.111  15.259   6.254
 4082POPC   D2A54508  25.349  15.091   6.602
 4082POPC   C3A54509  25.177  15.156   7.026
 4082POPC   C4A54510  25.109  15.195   7.464
 4082POPC   C1B54511  25.685  14.914   6.138
 4082POPC   C2B54512  25.784  14.801   6.584
 4082POPC   C3B54513  25.639  14.894   7.000
 4082POPC   C4B54514  25.430  14.814   7.373
 4083POPC   NC354515  24.954  11.800   5.400
 4083POPC   PO454516  24.293  12.111   5.270
 4083POPC   GL154517  24.545  12.076   5.672
 4083POPC   GL254518  24.217  12.046   5.821
 4083POPC   C1A54519  24.692  12.063   6.151
 4083POPC   D2A54520  24.891  12.064   6.595
 4083POPC   C3A54521  24.713  12.184   6.992
 4083POPC   C4A54522  24.700  12.020   7.431
 4083POPC   C1B54523  24.168  12.097   6.250
 4083POPC   C2B54524  24.349  11.966   6.628
 4083POPC   C3B54525  24.282  11.930   7.039
 4083POPC   C4B54526  24.281  12.278   7.309
 4084POPC   NC354527   3.001  37.294   5.607
 4084POPC   PO454528   2.644  36.721   5.384
 4084POPC   GL154529   2.730  36.913   5.792
 4084POPC   GL254530   2.487  37.111   5.857
 4084POPC   C1A54531   2.995  37.068   6.185
 4084POPC   D2A54532   2.984  36.935   6.591
 4084POPC   C3A54533   2.964  37.105   6.988
 4084POPC   C4A54534   2.888  36.966   7.423
 4084POPC   C1B54535   2.521  36.959   6.296
 4084POPC   C2B54536   2.543  37.177   6.702
 4084POPC   C3B54537   2.475  36.983   7.119
 4084POPC   C4B54538   2.191  37.110   7.444
 4085POPC   NC354539  37.943  19.976   5.421
 4085POPC   PO454540  37.805  19.342   5.393
 4085POPC   GL154541  37.656  19.678   5.735
 4085POPC   GL254542  37.868  19.906   5.948
 4085POPC   C1A54543  37.532  19.596   6.183
 4085POPC   D2A54544  37.625  19.422   6.595
 4085POPC   C3A54545  37.374  19.527   6.935
 4085POPC   C4A54546  37.427  19.841   7.228
 4085POPC   C1B54547  37.896  19.857   6.445
 4085POPC   C2B54548  37.839  19.821   6.914
 4085POPC   C3B54549  37.924  19.945   7.353
 4085POPC   C4B54550  37.992  20.223   7.744
 4086POPC   NC354551   9.407  41.908   5.275
 4086POPC   PO454552   9.250  42.540   5.356
 4086POPC   GL154553   9.095  42.279   5.697
 4086POPC   GL254554   9.289  41.978   5.812
 4086POPC   C1A54555   8.867  42.190   6.079
 4086POPC   D2A54556   8.982  42.146   6.516
 4086POPC   C3A54557   8.726  42.134   6.860
 4086POPC   C4A54558   8.756  42.309   7.256
 4086POPC   C1B54559   9.367  42.275   6.174
 4086POPC   C2B54560   9.428  42.357   6.636
 4086POPC   C3B54561   9.216  42.237   7.030
 4086POPC   C4B54562   9.297  42.342   7.467
 4087POPC   NC354563   6.485  33.968   5.510
 4087POPC   PO454564   7.031  33.627   5.430
 4087POPC   GL154565   6.748  33.647   5.808
 4087POPC   GL254566   6.447  33.509   5.816
 4087POPC   C1A54567   6.626  33.918   6.173
 4087POPC   D2A54568   6.789  33.938   6.581
 4087POPC   C3A54569   6.627  33.927   6.987
 4087POPC   C4A54570   6.910  33.944   7.336
 4087POPC   C1B54571   6.282  33.546   6.213
 4087POPC   C2B54572   6.492  33.521   6.623
 4087POPC   C3B54573   6.283  33.564   7.009
 4087POPC   C4B54574   6.391  33.488   7.437
 4088POPC   NC354575   9.018  15.788   5.591
 4088POPC   PO454576   8.587  16.328   5.421
 4088POPC   GL154577   8.660  16.068   5.818
 4088POPC   GL254578   9.019  15.960   6.041
 4088POPC   C1A54579   8.640  16.214   6.219
 4088POPC   D2A54580   8.742  16.054   6.560
 4088POPC   C3A54581   8.602  16.202   6.930
 4088POPC   C4A54582   8.807  15.894   7.210
 4088POPC   C1B54583   9.169  15.548   6.238
 4088POPC   C2B54584   9.160  15.381   6.669
 4088POPC   C3B54585   9.222  15.666   7.012
 4088POPC   C4B54586   9.302  15.936   7.370
 4089POPC   NC354587  12.467  25.607   5.368
 4089POPC   PO454588  12.953  26.090   5.432
 4089POPC   GL154589  12.711  25.917   5.796
 4089POPC   GL254590  12.450  26.146   5.703
 4089POPC   C1A54591  12.756  25.789   6.268
 4089POPC   D2A54592  13.000  25.730   6.672
 4089POPC   C3A54593  12.954  25.962   7.069
 4089POPC   C4A54594  12.967  26.251   7.440
 4089POPC   C1B54595  12.545  26.239   6.172
 4089POPC   C2B54596  12.503  26.087   6.645
 4089POPC   C3B54597  12.545  26.252   7.109
 4089POPC   C4B54598  12.554  26.560   7.452
 4090POPC   NC354599  12.026   9.574   5.363
 4090POPC   PO454600  12.149  10.284   5.601
 4090POPC   GL154601  12.168   9.878   5.813
 4090POPC   GL254602  11.890   9.680   5.846
 4090POPC   C1A54603  12.243   9.655   6.211
 4090POPC   D2A54604  12.172   9.813   6.622
 4090POPC   C3A54605  12.217   9.600   7.012
 4090POPC   C4A54606  12.241   9.758   7.404
 4090POPC   C1B54607  11.816   9.968   6.192
 4090POPC   C2B54608  11.701  10.039   6.615
 4090POPC   C3B54609  11.867   9.991   7.019
 4090POPC   C4B54610  11.733   9.677   7.281
 4091POPC   NC354611  42.609  39.996   5.448
 4091POPC   PO454612  41.969  39.967   5.468
 4091POPC   GL154613  42.243  40.043   5.832
 4091POPC   GL254614  42.463  40.320   5.831
 4091POPC   C1A54615  42.350  40.057   6.284
 4091POPC   D2A54616  42.362  39.735   6.605
 4091POPC   C3A54617  42.446  39.888   7.002
 4091POPC   C4A54618  42.180  40.031   7.351
 4091POPC   C1B54619  42.121  40.496   6.111
 4091POPC   C2B54620  42.029  40.410   6.565
 4091POPC   C3B54621  42.229  40.406   6.991
 4091POPC   C4B54622  42.610  40.302   7.225
 4092POPC   NC354623  35.499  21.273   5.289
 4092POPC   PO454624  35.215  20.588   5.238
 4092POPC   GL154625  35.330  20.797   5.580
 4092POPC   GL254626  35.066  20.820   5.776
 4092POPC   C1A54627  35.472  20.667   6.022
 4092POPC   D2A54628  35.346  20.618   6.456
 4092POPC   C3A54629  35.461  20.791   6.860
 4092POPC   C4A54630  35.743  20.639   7.159
 4092POPC   C1B54631  35.107  20.996   6.160
 4092POPC   C2B54632  35.254  21.147   6.537
 4092POPC   C3B54633  34.978  21.059   6.868
 4092POPC   C4B54634  34.911  20.874   7.285
 4093POPC   NC354635  32.324   4.085   5.254
 4093POPC   PO454636  32.138   4.662   5.455
 4093POPC   GL154637  32.132   4.377   5.814
 4093POPC   GL254638  32.104   4.014   5.765
 4093POPC   C1A54639  32.102   4.284   6.246
 4093POPC   D2A54640  32.173   4.413   6.637
 4093POPC   C3A54641  32.356   4.219   6.973
 4093POPC   C4A54642  32.186   4.360   7.356
 4093POPC   C1B54643  32.019   3.804   6.156
 4093POPC   C2B54644  32.087   3.916   6.617
 4093POPC   C3B54645  31.943   3.948   7.051
 4093POPC   C4B54646  32.003   3.913   7.491
 4094POPC   NC354647  10.736  22.326   5.369
 4094POPC   PO454648  11.403  22.239   5.308
 4094POPC   GL154649  11.368  22.247   5.801
 4094POPC   GL254650  11.699  22.206   5.944
 4094POPC   C1A54651  11.075  22.125   6.165
 4094POPC   D2A54652  10.838  22.330   6.510
 4094POPC   C3A54653  10.975  22.269   6.935
 4094POPC   C4A54654  10.919  22.113   7.353
 4094POPC   C1B54655  11.550  22.210   6.373
 4094POPC   C2B54656  11.484  22.252   6.797
 4094POPC   C3B54657  11.408  22.125   7.175
 4094POPC   C4B54658  11.541  22.136   7.546
 4095POPC   NC354659  26.050   6.243   5.421
 4095POPC   PO454660  26.608   5.914   5.462
 4095POPC   GL154661  26.838   6.045   5.842
 4095POPC   GL254662  26.621   6.304   5.871
 4095POPC   C1A54663  27.061   5.922   6.234
 4095POPC   D2A54664  26.997   5.977   6.686
 4095POPC   C3A54665  26.642   5.782   6.932
 4095POPC   C4A54666  26.590   5.774   7.388
 4095POPC   C1B54667  26.755   6.323   6.297
 4095POPC   C2B54668  26.577   6.295   6.703
 4095POPC   C3B54669  26.611   6.250   7.142
 4095POPC   C4B54670  26.663   6.239   7.594
 4096POPC   NC354671   2.176   1.681   5.204
 4096POPC   PO454672   1.707   2.199   5.386
 4096POPC   GL154673   1.791   2.075   5.798
 4096POPC   GL254674   1.992   1.799   5.682
 4096POPC   C1A54675   1.855   2.225   6.222
 4096POPC   D2A54676   1.637   2.267   6.619
 4096POPC   C3A54677   1.904   2.118   6.927
 4096POPC   C4A54678   1.779   2.095   7.314
 4096POPC   C1B54679   2.013   1.748   6.135
 4096POPC   C2B54680   1.759   1.768   6.545
 4096POPC   C3B54681   1.754   1.551   6.951
 4096POPC   C4B54682   2.076   1.699   7.209
 4097POPC   NC354683  21.283   5.668   5.433
 4097POPC   PO454684  21.578   6.238   5.522
 4097POPC   GL154685  21.418   5.937   5.845
 4097POPC   GL254686  21.074   5.941   5.847
 4097POPC   C1A54687  21.392   5.612   6.185
 4097POPC   D2A54688  21.521   5.779   6.558
 4097POPC   C3A54689  21.400   5.643   6.980
 4097POPC   C4A54690  21.525   5.864   7.328
 4097POPC   C1B54691  21.092   6.011   6.289
 4097POPC   C2B54692  21.048   5.897   6.725
 4097POPC   C3B54693  21.053   5.994   7.158
 4097POPC   C4B54694  21.077   6.118   7.572
 4098POPC   NC354695  18.231  24.329   5.619
 4098POPC   PO454696  18.719  24.817   5.465
 4098POPC   GL154697  18.644  24.555   5.825
 4098POPC   GL254698  18.687  24.184   5.811
 4098POPC   C1A54699  18.412  24.585   6.225
 4098POPC   D2A54700  18.501  24.770   6.617
 4098POPC   C3A54701  18.261  24.580   6.972
 4098POPC   C4A54702  18.067  24.659   7.381
 4098POPC   C1B54703  18.487  24.082   6.223
 4098POPC   C2B54704  18.559  24.259   6.640
 4098POPC   C3B54705  18.621  24.229   7.072
 4098POPC   C4B54706  18.534  23.823   7.238
 4099POPC   NC354707  37.766   1.271   5.315
 4099POPC   PO454708  37.957   0.693   5.549
 4099POPC   GL154709  37.862   1.048   5.829
 4099POPC   GL254710  37.869   1.419   5.773
 4099POPC   C1A54711  37.498   1.225   6.082
 4099POPC   D2A54712  37.329   1.435   6.432
 4099POPC   C3A54713  37.489   1.289   6.784
 4099POPC   C4A54714  37.617   1.402   7.172
 4099POPC   C1B54715  37.974   1.431   6.178
 4099POPC   C2B54716  37.885   1.106   6.473
 4099POPC   C3B54717  37.960   1.136   6.906
 4099POPC   C4B54718  38.105   1.278   7.305
 4100POPC   NC354719  19.467  28.936   5.388
 4100POPC   PO454720  18.919  28.946   5.314
 4100POPC   GL154721  19.122  28.955   5.786
 4100POPC   GL254722  19.497  28.940   5.915
 4100POPC   C1A54723  19.115  28.942   6.274
 4100POPC   D2A54724  19.089  28.691   6.676
 4100POPC   C3A54725  19.040  28.824   7.120
 4100POPC   C4A54726  19.282  28.690   7.479
 4100POPC   C1B54727  19.613  29.025   6.393
 4100POPC   C2B54728  19.438  29.061   6.838
 4100POPC   C3B54729  19.398  29.164   7.290
 4100POPC   C4B54730  19.639  29.023   7.660
 4101POPC   NC354731  19.590  25.551   5.387
 4101POPC   PO454732  19.847  26.313   5.302
 4101POPC   GL154733  19.925  25.990   5.648
 4101POPC   GL254734  19.740  26.179   5.901
 4101POPC   C1A54735  20.088  25.884   6.092
 4101POPC   D2A54736  19.934  25.843   6.559
 4101POPC   C3A54737  19.883  26.042   6.968
 4101POPC   C4A54738  19.584  26.155   7.291
 4101POPC   C1B54739  19.962  26.332   6.313
 4101POPC   C2B54740  20.119  26.451   6.751
 4101POPC   C3B54741  19.981  26.594   7.182
 4101POPC   C4B54742  19.940  26.399   7.599
 4102POPC   NC354743  19.383  23.672   5.313
 4102POPC   PO454744  20.035  23.652   5.335
 4102POPC   GL154745  19.724  23.761   5.684
 4102POPC   GL254746  19.359  23.668   5.815
 4102POPC   C1A54747  19.753  23.953   6.056
 4102POPC   D2A54748  19.707  23.912   6.495
 4102POPC   C3A54749  19.602  24.159   6.833
 4102POPC   C4A54750  19.881  24.043   7.175
 4102POPC   C1B54751  19.534  23.515   6.212
 4102POPC   C2B54752  19.422  23.515   6.667
 4102POPC   C3B54753  19.319  23.218   6.999
 4102POPC   C4B54754  19.591  23.173   7.394
 4103POPC   NC354755  32.174  38.267   5.474
 4103POPC   PO454756  32.582  38.777   5.494
 4103POPC   GL154757  32.382  38.597   5.817
 4103POPC   GL254758  32.014  38.663   5.768
 4103POPC   C1A54759  32.524  38.373   6.181
 4103POPC   D2A54760  32.410  38.144   6.551
 4103POPC   C3A54761  32.599  38.276   6.953
 4103POPC   C4A54762  32.522  38.443   7.378
 4103POPC   C1B54763  32.020  38.499   6.190
 4103POPC   C2B54764  32.130  38.576   6.598
 4103POPC   C3B54765  32.121  38.470   7.014
 4103POPC   C4B54766  31.856  38.411   7.334
 4104POPC   NC354767   7.751  27.098   5.535
 4104POPC   PO454768   7.198  26.711   5.355
 4104POPC   GL154769   7.161  26.812   5.763
 4104POPC   GL254770   7.176  27.181   5.769
 4104POPC   C1A54771   7.353  26.622   6.146
 4104POPC   D2A54772   7.172  26.527   6.558
 4104POPC   C3A54773   7.394  26.534   6.979
 4104POPC   C4A54774   7.422  26.812   7.377
 4104POPC   C1B54775   7.147  27.088   6.219
 4104POPC   C2B54776   7.467  26.978   6.522
 4104POPC   C3B54777   7.656  26.973   6.919
 4104POPC   C4B54778   7.697  27.239   7.287
 4105POPC   NC354779  20.806  13.671   5.206
 4105POPC   PO454780  20.261  13.457   5.413
 4105POPC   GL154781  20.668  13.483   5.674
 4105POPC   GL254782  20.554  13.271   5.929
 4105POPC   C1A54783  20.849  13.645   6.082
 4105POPC   D2A54784  20.588  13.670   6.460
 4105POPC   C3A54785  20.791  13.674   6.862
 4105POPC   C4A54786  20.852  13.443   7.225
 4105POPC   C1B54787  20.189  13.237   6.203
 4105POPC   C2B54788  20.189  13.400   6.642
 4105POPC   C3B54789  20.370  13.385   7.039
 4105POPC   C4B54790  20.392  13.536   7.457
 4106POPC   NC354791   0.896  11.824   5.444
 4106POPC   PO454792   1.539  11.927   5.406
 4106POPC   GL154793   1.360  12.065   5.796
 4106POPC   GL254794   1.027  12.151   5.878
 4106POPC   C1A54795   1.335  12.158   6.263
 4106POPC   D2A54796   1.018  12.150   6.520
 4106POPC   C3A54797   1.220  11.920   6.831
 4106POPC   C4A54798   1.223  12.100   7.181
 4106POPC   C1B54799   1.065  11.760   6.090
 4106POPC   C2B54800   0.956  11.627   6.479
 4106POPC   C3B54801   0.738  11.824   6.806
 4106POPC   C4B54802   0.900  11.694   7.198
 4107POPC   NC354803  21.236   9.330   5.280
 4107POPC   PO454804  21.255   8.711   5.360
 4107POPC   GL154805  21.320   8.846   5.831
 4107POPC   GL254806  21.523   9.185   5.794
 4107POPC   C1A54807  21.210   8.769   6.320
 4107POPC   D2A54808  21.240   9.099   6.688
 4107POPC   C3A54809  21.080   8.920   7.055
 4107POPC   C4A54810  21.176   8.577   7.315
 4107POPC   C1B54811  21.515   9.156   6.255
 4107POPC   C2B54812  21.656   8.812   6.619
 4107POPC   C3B54813  21.591   8.806   7.084
 4107POPC   C4B54814  21.449   9.237   7.197
 4108POPC   NC354815  21.875  30.820   5.417
 4108POPC   PO454816  21.260  30.474   5.510
 4108POPC   GL154817  21.169  30.735   5.870
 4108POPC   GL254818  21.470  30.902   5.800
 4108POPC   C1A54819  21.044  30.644   6.295
 4108POPC   D2A54820  21.036  30.681   6.744
 4108POPC   C3A54821  21.153  30.301   7.032
 4108POPC   C4A54822  21.334  30.357   7.487
 4108POPC   C1B54823  21.582  30.655   6.179
 4108POPC   C2B54824  21.481  30.496   6.598
 4108POPC   C3B54825  21.567  30.567   7.045
 4108POPC   C4B54826  21.838  30.443   7.403
 4109POPC   NC354827  13.139  13.782   5.499
 4109POPC   PO454828  12.536  13.949   5.394
 4109POPC   GL154829  12.749  13.946   5.809
 4109POPC   GL254830  12.843  13.559   5.866
 4109POPC   C1A54831  12.915  13.887   6.241
 4109POPC   D2A54832  12.774  13.629   6.571
 4109POPC   C3A54833  12.813  13.880   6.927
 4109POPC   C4A54834  13.049  13.930   7.319
 4109POPC   C1B54835  13.180  13.448   6.184
 4109POPC   C2B54836  13.294  13.572   6.612
 4109POPC   C3B54837  13.084  13.474   7.029
 4109POPC   C4B54838  12.761  13.494   7.348
 4110POPC   NC354839  25.989   4.187   5.483
 4110POPC   PO454840  26.563   4.363   5.481
 4110POPC   GL154841  26.263   4.447   5.866
 4110POPC   GL254842  25.907   4.488   5.938
 4110POPC   C1A54843  26.205   4.603   6.328
 4110POPC   D2A54844  26.036   4.865   6.667
 4110POPC   C3A54845  26.155   4.679   7.055
 4110POPC   C4A54846  26.261   4.319   7.341
 4110POPC   C1B54847  25.693   4.573   6.335
 4110POPC   C2B54848  25.804   4.415   6.742
 4110POPC   C3B54849  25.748   4.295   7.175
 4110POPC   C4B54850  25.475   4.356   7.558
 4111POPC   NC354851  32.179  35.839   5.401
 4111POPC   PO454852  32.122  35.276   5.344
 4111POPC   GL154853  32.351  35.186   5.717
 4111POPC   GL254854  32.271  35.509   5.863
 4111POPC   C1A54855  32.404  35.052   6.148
 4111POPC   D2A54856  32.106  34.888   6.434
 4111POPC   C3A54857  32.140  35.001   6.864
 4111POPC   C4A54858  31.874  35.137   7.177
 4111POPC   C1B54859  32.036  35.393   6.249
 4111POPC   C2B54860  32.112  35.520   6.698
 4111POPC   C3B54861  32.253  35.460   7.128
 4111POPC   C4B54862  32.236  35.515   7.568
 4112POPC   NC354863  34.141  15.524   5.373
 4112POPC   PO454864  34.809  15.347   5.376
 4112POPC   GL154865  34.771  15.188   5.777
 4112POPC   GL254866  34.442  15.061   5.792
 4112POPC   C1A54867  34.579  15.305   6.217
 4112POPC   D2A54868  34.380  15.374   6.637
 4112POPC   C3A54869  34.616  15.195   6.987
 4112POPC   C4A54870  34.685  15.419   7.377
 4112POPC   C1B54871  34.328  14.843   6.184
 4112POPC   C2B54872  34.152  14.912   6.598
 4112POPC   C3B54873  34.229  14.851   7.030
 4112POPC   C4B54874  34.396  14.956   7.426
 4113POPC   NC354875   0.180  22.316   5.458
 4113POPC   PO454876   0.689  22.003   5.171
 4113POPC   GL154877   0.598  22.071   5.629
 4113POPC   GL254878   0.604  22.438   5.736
 4113POPC   C1A54879   0.380  22.051   6.068
 4113POPC   D2A54880   0.306  21.878   6.498
 4113POPC   C3A54881   0.299  22.039   6.932
 4113POPC   C4A54882   0.340  21.856   7.374
 4113POPC   C1B54883   0.441  22.561   6.124
 4113POPC   C2B54884   0.380  22.414   6.537
 4113POPC   C3B54885   0.466  22.531   6.961
 4113POPC   C4B54886   0.383  22.382   7.372
 4114POPC   NC354887  39.425   6.711   5.324
 4114POPC   PO454888  38.782   6.719   5.314
 4114POPC   GL154889  39.093   6.625   5.743
 4114POPC   GL254890  39.454   6.768   5.814
 4114POPC   C1A54891  39.247   6.489   6.197
 4114POPC   D2A54892  39.300   6.280   6.614
 4114POPC   C3A54893  39.173   6.577   6.937
 4114POPC   C4A54894  38.987   6.606   7.330
 4114POPC   C1B54895  39.704   6.716   6.179
 4114POPC   C2B54896  39.581   6.710   6.609
 4114POPC   C3B54897  39.589   6.859   7.040
 4114POPC   C4B54898  39.560   6.715   7.496
 4115POPC   NC354899  15.666  21.024   5.412
 4115POPC   PO454900  16.025  21.576   5.337
 4115POPC   GL154901  15.961  21.494   5.791
 4115POPC   GL254902  15.855  21.154   5.897
 4115POPC   C1A54903  15.891  21.624   6.236
 4115POPC   D2A54904  15.888  21.764   6.668
 4115POPC   C3A54905  15.928  21.520   7.073
 4115POPC   C4A54906  15.942  21.608   7.553
 4115POPC   C1B54907  16.147  21.181   6.272
 4115POPC   C2B54908  16.272  21.246   6.710
 4115POPC   C3B54909  16.206  21.061   7.127
 4115POPC   C4B54910  16.146  20.855   7.545
 4116POPC   NC354911   7.548  18.178   5.469
 4116POPC   PO454912   7.305  18.777   5.350
 4116POPC   GL154913   7.293  18.577   5.747
 4116POPC   GL254914   7.008  18.351   5.685
 4116POPC   C1A54915   7.458  18.382   6.143
 4116POPC   D2A54916   7.693  18.210   6.511
 4116POPC   C3A54917   7.563  18.401   6.881
 4116POPC   C4A54918   7.443  18.578   7.266
 4116POPC   C1B54919   6.935  18.490   6.127
 4116POPC   C2B54920   7.147  18.509   6.553
 4116POPC   C3B54921   6.995  18.453   7.001
 4116POPC   C4B54922   7.041  18.350   7.449
 4117POPC   NC354923  12.378  15.486   5.539
 4117POPC   PO454924  12.118  16.097   5.353
 4117POPC   GL154925  12.075  16.160   5.785
 4117POPC   GL254926  12.321  15.942   5.883
 4117POPC   C1A54927  12.082  16.280   6.225
 4117POPC   D2A54928  11.769  16.123   6.513
 4117POPC   C3A54929  11.855  15.905   6.920
 4117POPC   C4A54930  12.212  16.019   7.164
 4117POPC   C1B54931  12.104  15.744   6.258
 4117POPC   C2B54932  12.211  15.560   6.681
 4117POPC   C3B54933  12.489  15.599   7.039
 4117POPC   C4B54934  12.550  15.576   7.501
 4118POPC   NC354935  39.433  31.645   5.384
 4118POPC   PO454936  38.849  31.269   5.441
 4118POPC   GL154937  39.147  31.406   5.775
 4118POPC   GL254938  38.896  31.293   5.984
 4118POPC   C1A54939  39.286  31.494   6.218
 4118POPC   D2A54940  39.470  31.293   6.595
 4118POPC   C3A54941  39.326  31.554   6.957
 4118POPC   C4A54942  39.391  31.630   7.395
 4118POPC   C1B54943  38.771  31.631   6.247
 4118POPC   C2B54944  38.848  31.735   6.635
 4118POPC   C3B54945  38.821  31.468   6.936
 4118POPC   C4B54946  38.921  31.364   7.307
 4119POPC   NC354947  40.115  42.241   5.433
 4119POPC   PO454948  39.581  41.806   5.541
 4119POPC   GL154949  39.856  42.084   5.843
 4119POPC   GL254950  40.265  42.122   5.896
 4119POPC   C1A54951  39.840  42.374   6.197
 4119POPC   D2A54952  39.842  42.231   6.626
 4119POPC   C3A54953  39.657  42.440   6.990
 4119POPC   C4A54954  39.897  42.534   7.362
 4119POPC   C1B54955  40.243  42.028   6.315
 4119POPC   C2B54956  40.334  42.087   6.728
 4119POPC   C3B54957  40.097  42.133   7.093
 4119POPC   C4B54958  40.330  42.150   7.479
 4120POPC   NC354959   9.903  38.049   5.540
 4120POPC   PO454960   9.403  38.526   5.481
 4120POPC   GL154961   9.496  38.306   5.866
 4120POPC   GL254962   9.853  38.392   5.925
 4120POPC   C1A54963   9.536  38.348   6.345
 4120POPC   D2A54964   9.621  38.196   6.774
 4120POPC   C3A54965   9.633  38.429   7.154
 4120POPC   C4A54966   9.846  38.670   7.500
 4120POPC   C1B54967  10.014  38.132   6.258
 4120POPC   C2B54968  10.129  37.896   6.593
 4120POPC   C3B54969  10.054  38.022   6.996
 4120POPC   C4B54970  10.012  38.152   7.413
 4121POPC   NC354971  12.146   8.584   5.443
 4121POPC   PO454972  11.872   7.929   5.426
 4121POPC   GL154973  12.062   8.154   5.772
 4121POPC   GL254974  11.962   8.483   5.895
 4121POPC   C1A54975  12.185   8.143   6.216
 4121POPC   D2A54976  11.990   7.942   6.576
 4121POPC   C3A54977  12.126   8.141   6.950
 4121POPC   C4A54978  11.917   8.270   7.329
 4121POPC   C1B54979  11.782   8.603   6.264
 4121POPC   C2B54980  11.877   8.543   6.685
 4121POPC   C3B54981  11.795   8.690   7.063
 4121POPC   C4B54982  12.090   8.788   7.347
 4122POPC   NC354983  27.703   9.371   5.696
 4122POPC   PO454984  27.639   9.876   5.241
 4122POPC   GL154985  27.493   9.867   5.700
 4122POPC   GL254986  27.143  10.014   5.702
 4122POPC   C1A54987  27.636   9.815   6.188
 4122POPC   D2A54988  27.466   9.783   6.632
 4122POPC   C3A54989  27.605   9.552   7.012
 4122POPC   C4A54990  27.773   9.327   7.398
 4122POPC   C1B54991  27.401  10.264   6.031
 4122POPC   C2B54992  27.419  10.302   6.493
 4122POPC   C3B54993  27.306  10.181   6.925
 4122POPC   C4B54994  27.450   9.920   7.313
 4123POPC   NC354995  25.938  41.795   5.447
 4123POPC   PO454996  26.494  41.425   5.600
 4123POPC   GL154997  26.176  41.600   5.884
 4123POPC   GL254998  25.906  41.355   5.797
 4123POPC   C1A54999  26.186  41.789   6.325
 4123POPC   D2A55000  26.342  41.806   6.753
 4123POPC   C3A55001  26.041  41.868   7.055
 4123POPC   C4A55002  25.655  41.748   7.155
 4123POPC   C1B55003  26.121  41.165   6.150
 4123POPC   C2B55004  25.989  41.059   6.567
 4123POPC   C3B55005  25.995  41.376   6.867
 4123POPC   C4B55006  26.123  41.390   7.266
 4124POPC   NC355007  29.787   6.808   5.392
 4124POPC   PO455008  30.197   6.199   5.390
 4124POPC   GL155009  30.118   6.541   5.740
 4124POPC   GL255010  29.755   6.598   5.839
 4124POPC   C1A55011  30.113   6.718   6.191
 4124POPC   D2A55012  29.882   6.839   6.574
 4124POPC   C3A55013  29.982   6.692   6.964
 4124POPC   C4A55014  30.288   6.834   7.240
 4124POPC   C1B55015  29.578   6.593   6.213
 4124POPC   C2B55016  29.583   6.408   6.590
 4124POPC   C3B55017  29.713   6.231   6.952
 4124POPC   C4B55018  29.861   6.364   7.337
 4125POPC   NC355019  26.329  23.356   5.547
 4125POPC   PO455020  26.801  23.751   5.178
 4125POPC   GL155021  26.739  23.727   5.645
 4125POPC   GL255022  26.779  23.379   5.807
 4125POPC   C1A55023  26.850  23.899   6.064
 4125POPC   D2A55024  26.980  23.760   6.504
 4125POPC   C3A55025  26.916  23.910   6.926
 4125POPC   C4A55026  26.945  23.680   7.305
 4125POPC   C1B55027  26.598  23.490   6.230
 4125POPC   C2B55028  26.476  23.593   6.662
 4125POPC   C3B55029  26.485  23.581   7.110
 4125POPC   C4B55030  26.511  23.582   7.594
 4126POPC   NC355031  29.923  21.827   5.555
 4126POPC   PO455032  29.920  22.468   5.479
 4126POPC   GL155033  30.091  22.236   5.850
 4126POPC   GL255034  30.370  22.003   5.796
 4126POPC   C1A55035  30.022  21.917   6.201
 4126POPC   D2A55036  30.003  21.667   6.571
 4126POPC   C3A55037  29.895  21.981   6.867
 4126POPC   C4A55038  29.667  22.016   7.244
 4126POPC   C1B55039  30.473  22.173   6.188
 4126POPC   C2B55040  30.270  22.277   6.552
 4126POPC   C3B55041  30.372  22.214   6.966
 4126POPC   C4B55042  30.160  22.114   7.313
 4127POPC   NC355043  44.061  39.314   5.380
 4127POPC   PO455044  43.560  38.919   5.382
 4127POPC   GL155045  43.618  39.192   5.770
 4127POPC   GL255046  43.907  39.388   5.845
 4127POPC   C1A55047  43.813  39.095   6.225
 4127POPC   D2A55048  44.048  39.316   6.559
 4127POPC   C3A55049  44.080  39.191   6.999
 4127POPC   C4A55050  43.768  38.987   7.242
 4127POPC   C1B55051  43.632  39.592   6.129
 4127POPC   C2B55052  43.764  39.760   6.505
 4127POPC   C3B55053  43.753  39.581   6.882
 4127POPC   C4B55054  43.761  39.496   7.280
 4128POPC   NC355055  16.967   2.250   5.369
 4128POPC   PO455056  17.521   1.815   5.264
 4128POPC   GL155057  17.341   1.957   5.645
 4128POPC   GL255058  17.603   1.765   5.799
 4128POPC   C1A55059  17.255   1.958   6.123
 4128POPC   D2A55060  17.463   2.021   6.557
 4128POPC   C3A55061  17.307   2.048   7.002
 4128POPC   C4A55062  17.242   2.203   7.424
 4128POPC   C1B55063  17.800   1.947   6.160
 4128POPC   C2B55064  17.931   1.822   6.545
 4128POPC   C3B55065  17.839   1.789   6.958
 4128POPC   C4B55066  17.627   1.682   7.317
 4129POPC   NC355067   1.110  35.408   5.225
 4129POPC   PO455068   1.733  35.291   5.452
 4129POPC   GL155069   1.326  35.314   5.690
 4129POPC   GL255070   0.969  35.152   5.657
 4129POPC   C1A55071   1.155  35.431   6.079
 4129POPC   D2A55072   1.244  35.320   6.492
 4129POPC   C3A55073   1.262  35.564   6.893
 4129POPC   C4A55074   1.270  35.283   7.263
 4129POPC   C1B55075   0.748  35.042   6.072
 4129POPC   C2B55076   0.834  34.952   6.514
 4129POPC   C3B55077   0.955  35.154   6.883
 4129POPC   C4B55078   0.780  35.200   7.286
 4130POPC   NC355079   6.162  11.944   5.491
 4130POPC   PO455080   5.649  12.344   5.543
 4130POPC   GL155081   5.976  12.300   5.831
 4130POPC   GL255082   5.839  11.954   5.912
 4130POPC   C1A55083   6.165  12.230   6.226
 4130POPC   D2A55084   5.901  12.016   6.495
 4130POPC   C3A55085   5.806  12.252   6.849
 4130POPC   C4A55086   6.019  12.233   7.228
 4130POPC   C1B55087   5.520  11.770   6.209
 4130POPC   C2B55088   5.561  11.668   6.654
 4130POPC   C3B55089   5.501  11.889   7.045
 4130POPC   C4B55090   5.718  11.876   7.454
 4131POPC   NC355091   1.029  10.871   5.719
 4131POPC   PO455092   0.602  10.475   5.353
 4131POPC   GL155093   0.451  10.303   5.811
 4131POPC   GL255094   0.094  10.268   5.832
 4131POPC   C1A55095   0.525  10.404   6.276
 4131POPC   D2A55096   0.680  10.640   6.646
 4131POPC   C3A55097   0.532  10.469   7.037
 4131POPC   C4A55098   0.360  10.224   7.370
 4131POPC   C1B55099   0.036  10.541   6.191
 4131POPC   C2B55100   0.155  10.519   6.619
 4131POPC   C3B55101   0.029  10.504   7.018
 4131POPC   C4B55102   0.114  10.696   7.378
 4132POPC   NC355103  17.819  10.080   5.536
 4132POPC   PO455104  18.407  10.508   5.482
 4132POPC   GL155105  18.200  10.325   5.767
 4132POPC   GL255106  17.940  10.548   5.776
 4132POPC   C1A55107  18.306  10.319   6.185
 4132POPC   D2A55108  18.596  10.423   6.478
 4132POPC   C3A55109  18.401  10.433   6.841
 4132POPC   C4A55110  18.348  10.447   7.263
 4132POPC   C1B55111  18.204  10.800   6.111
 4132POPC   C2B55112  18.324  10.913   6.557
 4132POPC   C3B55113  18.253  10.886   7.016
 4132POPC   C4B55114  18.010  10.791   7.443
 4133POPC   NC355115  22.985  22.664   5.089
 4133POPC   PO455116  22.729  23.096   5.468
 4133POPC   GL155117  22.961  22.950   5.830
 4133POPC   GL255118  22.875  23.279   5.950
 4133POPC   C1A55119  23.099  22.743   6.213
 4133POPC   D2A55120  23.050  22.532   6.629
 4133POPC   C3A55121  23.070  22.706   7.049
 4133POPC   C4A55122  22.644  22.728   7.281
 4133POPC   C1B55123  22.679  23.071   6.296
 4133POPC   C2B55124  22.776  22.979   6.725
 4133POPC   C3B55125  22.847  23.180   7.146
 4133POPC   C4B55126  23.102  23.371   7.454
 4134POPC   NC355127   6.324  37.840   5.273
 4134POPC   PO455128   6.940  37.457   5.321
 4134POPC   GL155129   6.882  37.527   5.805
 4134POPC   GL255130   6.763  37.877   5.844
 4134POPC   C1A55131   6.870  37.449   6.260
 4134POPC   D2A55132   6.948  37.334   6.710
 4134POPC   C3A55133   6.793  37.429   7.139
 4134POPC   C4A55134   6.783  37.787   7.443
 4134POPC   C1B55135   6.611  37.892   6.295
 4134POPC   C2B55136   6.629  37.749   6.738
 4134POPC   C3B55137   6.369  37.711   7.080
 4134POPC   C4B55138   6.071  38.043   7.072
 4135POPC   NC355139   6.862  35.555   5.480
 4135POPC   PO455140   6.200  35.221   5.356
 4135POPC   GL155141   6.461  35.143   5.746
 4135POPC   GL255142   6.819  35.166   5.812
 4135POPC   C1A55143   6.511  35.235   6.207
 4135POPC   D2A55144   6.803  35.249   6.567
 4135POPC   C3A55145   6.564  35.206   6.948
 4135POPC   C4A55146   6.599  35.522   7.248
 4135POPC   C1B55147   6.953  35.512   6.121
 4135POPC   C2B55148   7.074  35.692   6.531
 4135POPC   C3B55149   7.019  35.608   6.942
 4135POPC   C4B55150   7.036  35.222   7.153
 4136POPC   NC355151  18.242  34.332   5.393
 4136POPC   PO455152  18.677  33.980   5.659
 4136POPC   GL155153  18.433  34.314   5.919
 4136POPC   GL255154  18.347  34.650   5.825
 4136POPC   C1A55155  18.330  34.482   6.327
 4136POPC   D2A55156  18.103  34.308   6.662
 4136POPC   C3A55157  18.340  34.383   7.023
 4136POPC   C4A55158  18.544  34.787   7.136
 4136POPC   C1B55159  18.052  34.853   6.136
 4136POPC   C2B55160  18.183  34.935   6.583
 4136POPC   C3B55161  18.043  34.825   6.997
 4136POPC   C4B55162  18.097  34.625   7.394
 4137POPC   NC355163  27.811  43.942   5.483
 4137POPC   PO455164  27.119  43.740   5.450
 4137POPC   GL155165  27.439  43.792   5.799
 4137POPC   GL255166  27.730  43.550   5.846
 4137POPC   C1A55167  27.655  44.016   6.157
 4137POPC   D2A55168  27.995  43.974   6.499
 4137POPC   C3A55169  27.824  43.882   6.917
 4137POPC   C4A55170  27.382  43.961   7.068
 4137POPC   C1B55171  27.745  43.548   6.313
 4137POPC   C2B55172  27.508  43.541   6.706
 4137POPC   C3B55173  27.503  43.449   7.152
 4137POPC   C4B55174  27.667  43.373   7.587
 4138POPC   NC355175   4.236  42.450   5.235
 4138POPC   PO455176   4.429  41.836   5.424
 4138POPC   GL155177   4.556  42.232   5.646
 4138POPC   GL255178   4.256  42.429   5.764
 4138POPC   C1A55179   4.606  42.286   6.127
 4138POPC   D2A55180   4.381  42.183   6.540
 4138POPC   C3A55181   4.554  42.225   6.998
 4138POPC   C4A55182   4.564  42.624   7.283
 4138POPC   C1B55183   3.998  42.221   6.092
 4138POPC   C2B55184   3.874  41.965   6.471
 4138POPC   C3B55185   4.048  42.000   6.895
 4138POPC   C4B55186   4.079  42.333   7.207
 4139POPC   NC355187   4.187   0.752   5.310
 4139POPC   PO455188   4.349   0.137   5.236
 4139POPC   GL155189   4.254   0.479   5.714
 4139POPC   GL255190   3.995   0.735   5.784
 4139POPC   C1A55191   4.070   0.422   6.164
 4139POPC   D2A55192   4.171   0.555   6.562
 4139POPC   C3A55193   4.284   0.229   6.865
 4139POPC   C4A55194   4.691   0.236   7.046
 4139POPC   C1B55195   4.026   0.965   6.198
 4139POPC   C2B55196   3.865   0.954   6.638
 4139POPC   C3B55197   3.959   0.667   7.002
 4139POPC   C4B55198   4.337   0.580   7.239
 4140POPC   NC355199  39.859   0.669   5.336
 4140POPC   PO455200  40.107   1.208   5.351
 4140POPC   GL155201  39.897   1.269   5.765
 4140POPC   GL255202  39.608   1.503   5.732
 4140POPC   C1A55203  39.807   1.090   6.198
 4140POPC   D2A55204  39.958   1.070   6.629
 4140POPC   C3A55205  39.831   1.015   7.054
 4140POPC   C4A55206  40.102   1.265   7.346
 4140POPC   C1B55207  39.802   1.616   6.128
 4140POPC   C2B55208  39.749   1.514   6.532
 4140POPC   C3B55209  39.945   1.522   6.914
 4140POPC   C4B55210  39.716   1.628   7.279
 4141POPC   NC355211  42.954  41.572   5.389
 4141POPC   PO455212  43.604  41.731   5.327
 4141POPC   GL155213  43.329  41.707   5.733
 4141POPC   GL255214  43.013  41.527   5.894
 4141POPC   C1A55215  43.417  41.645   6.192
 4141POPC   D2A55216  43.471  41.678   6.641
 4141POPC   C3A55217  43.085  41.562   6.879
 4141POPC   C4A55218  42.992  41.575   7.322
 4141POPC   C1B55219  42.826  41.172   6.198
 4141POPC   C2B55220  42.792  41.070   6.648
 4141POPC   C3B55221  42.749  41.200   7.079
 4141POPC   C4B55222  42.690  41.234   7.575
 4142POPC   NC355223  21.676  36.565   5.274
 4142POPC   PO455224  21.259  37.157   5.352
 4142POPC   GL155225  21.388  36.866   5.612
 4142POPC   GL255226  21.738  36.964   5.583
 4142POPC   C1A55227  21.286  36.931   6.060
 4142POPC   D2A55228  21.309  37.230   6.403
 4142POPC   C3A55229  21.207  37.050   6.787
 4142POPC   C4A55230  21.310  36.753   7.085
 4142POPC   C1B55231  21.759  36.718   5.969
 4142POPC   C2B55232  21.773  36.748   6.433
 4142POPC   C3B55233  21.709  36.938   6.813
 4142POPC   C4B55234  21.784  36.857   7.250
 4143POPC   NC355235  34.277  44.135   5.553
 4143POPC   PO455236  34.747  43.651   5.460
 4143POPC   GL155237  34.531  43.759   5.803
 4143POPC   GL255238  34.699  44.043   5.929
 4143POPC   C1A55239  34.389  43.682   6.202
 4143POPC   D2A55240  34.270  43.551   6.598
 4143POPC   C3A55241  34.398  43.787   6.960
 4143POPC   C4A55242  34.684  43.987   7.263
 4143POPC   C1B55243  34.395  44.212   6.249
 4143POPC   C2B55244  34.210  44.268   6.691
 4143POPC   C3B55245  34.285  44.259   7.144
 4143POPC   C4B55246  34.351  44.250   7.620
 4144POPC   NC355247  36.871  30.964   5.300
 4144POPC   PO455248  37.233  31.495   5.515
 4144POPC   GL155249  36.986  31.499   5.876
 4144POPC   GL255250  36.700  31.314   5.751
 4144POPC   C1A55251  36.994  31.581   6.323
 4144POPC   D2A55252  37.226  31.464   6.677
 4144POPC   C3A55253  37.045  31.604   7.037
 4144POPC   C4A55254  37.047  31.703   7.459
 4144POPC   C1B55255  36.580  31.278   6.191
 4144POPC   C2B55256  36.472  31.419   6.611
 4144POPC   C3B55257  36.603  31.338   7.018
 4144POPC   C4B55258  36.383  31.109   7.302
 4145POPC   NC355259  30.282   3.772   5.434
 4145POPC   PO455260  30.866   4.196   5.340
 4145POPC   GL155261  30.850   4.409   5.754
 4145POPC   GL255262  31.163   4.394   5.941
 4145POPC   C1A55263  30.714   4.411   6.196
 4145POPC   D2A55264  30.915   4.458   6.589
 4145POPC   C3A55265  30.659   4.508   6.957
 4145POPC   C4A55266  30.869   4.542   7.310
 4145POPC   C1B55267  31.105   4.069   6.265
 4145POPC   C2B55268  31.115   3.883   6.658
 4145POPC   C3B55269  30.961   4.123   7.008
 4145POPC   C4B55270  31.087   4.100   7.454
 4146POPC   NC355271  30.986  36.375   5.722
 4146POPC   PO455272  31.052  35.806   5.281
 4146POPC   GL155273  30.788  35.884   5.662
 4146POPC   GL255274  31.097  35.865   5.869
 4146POPC   C1A55275  30.557  35.931   6.116
 4146POPC   D2A55276  30.260  36.069   6.512
 4146POPC   C3A55277  30.492  36.286   6.892
 4146POPC   C4A55278  30.958  36.334   7.019
 4146POPC   C1B55279  31.146  35.702   6.302
 4146POPC   C2B55280  30.864  35.772   6.663
 4146POPC   C3B55281  30.876  35.755   7.101
 4146POPC   C4B55282  31.249  35.744   7.338
 4147POPC   NC355283  11.644  32.386   5.584
 4147POPC   PO455284  12.298  32.072   5.601
 4147POPC   GL155285  12.010  32.186   5.917
 4147POPC   GL255286  12.037  32.521   5.882
 4147POPC   C1A55287  12.021  32.338   6.360
 4147POPC   D2A55288  12.345  32.558   6.612
 4147POPC   C3A55289  12.260  32.374   6.968
 4147POPC   C4A55290  12.015  32.100   7.261
 4147POPC   C1B55291  11.683  32.652   6.161
 4147POPC   C2B55292  11.516  32.429   6.516
 4147POPC   C3B55293  11.743  32.341   6.888
 4147POPC   C4B55294  11.892  32.595   7.245
 4148POPC   NC355295  43.020   5.690   5.124
 4148POPC   PO455296  43.355   6.124   5.465
 4148POPC   GL155297  43.167   5.945   5.858
 4148POPC   GL255298  43.022   5.606   5.846
 4148POPC   C1A55299  42.962   6.024   6.264
 4148POPC   D2A55300  42.798   5.933   6.695
 4148POPC   C3A55301  43.137   5.995   6.995
 4148POPC   C4A55302  43.265   6.221   7.387
 4148POPC   C1B55303  42.801   5.525   6.266
 4148POPC   C2B55304  42.771   5.391   6.718
 4148POPC   C3B55305  42.824   5.593   7.108
 4148POPC   C4B55306  43.129   5.721   7.476
 4149POPC   NC355307  13.717   0.738   5.616
 4149POPC   PO455308  13.819   0.112   5.500
 4149POPC   GL155309  13.711   0.300   5.871
 4149POPC   GL255310  14.037   0.450   5.921
 4149POPC   C1A55311  13.475   0.406   6.242
 4149POPC   D2A55312  13.401   0.090   6.562
 4149POPC   C3A55313  13.348   0.329   6.942
 4149POPC   C4A55314  13.481   0.655   7.235
 4149POPC   C1B55315  13.944   0.216   6.321
 4149POPC   C2B55316  13.854   0.199   6.772
 4149POPC   C3B55317  14.008   0.340   7.142
 4149POPC   C4B55318  14.188   0.146   7.504
 4150POPC   NC355319  28.310  12.166   5.143
 4150POPC   PO455320  28.658  11.852   5.666
 4150POPC   GL155321  28.606  12.110   5.990
 4150POPC   GL255322  28.262  12.101   5.970
 4150POPC   C1A55323  28.612  12.073   6.412
 4150POPC   D2A55324  28.310  12.015   6.722
 4150POPC   C3A55325  28.415  11.907   7.131
 4150POPC   C4A55326  28.757  12.022   7.411
 4150POPC   C1B55327  28.000  12.146   6.312
 4150POPC   C2B55328  27.970  12.386   6.677
 4150POPC   C3B55329  28.120  12.373   7.093
 4150POPC   C4B55330  28.329  12.334   7.509
 4151POPC   NC355331  13.659  37.064   5.450
 4151POPC   PO455332  13.157  36.632   5.490
 4151POPC   GL155333  13.487  36.744   5.819
 4151POPC   GL255334  13.599  36.405   5.935
 4151POPC   C1A55335  13.534  36.951   6.255
 4151POPC   D2A55336  13.527  36.703   6.666
 4151POPC   C3A55337  13.475  36.814   7.117
 4151POPC   C4A55338  13.661  36.700   7.539
 4151POPC   C1B55339  13.845  36.552   6.275
 4151POPC   C2B55340  14.002  36.934   6.481
 4151POPC   C3B55341  13.784  37.137   6.821
 4151POPC   C4B55342  13.846  37.110   7.280
 4152POPC   NC355343  43.746   3.051   5.475
 4152POPC   PO455344  44.096   2.439   5.367
 4152POPC   GL155345  43.900   2.656   5.783
 4152POPC   GL255346  43.977   3.037   5.917
 4152POPC   C1A55347  43.972   2.651   6.246
 4152POPC   D2A55348  44.257   2.580   6.589
 4152POPC   C3A55349  44.102   2.545   7.016
 4152POPC   C4A55350  44.012   2.604   7.470
 4152POPC   C1B55351  44.038   3.129   6.387
 4152POPC   C2B55352  43.847   2.937   6.730
 4152POPC   C3B55353  43.870   2.996   7.158
 4152POPC   C4B55354  43.915   3.110   7.572
 4153POPC   NC355355  20.489   2.998   5.663
 4153POPC   PO455356  20.669   2.449   5.382
 4153POPC   GL155357  20.632   2.532   5.797
 4153POPC   GL255358  20.317   2.434   5.771
 4153POPC   C1A55359  20.648   2.694   6.226
 4153POPC   D2A55360  20.727   3.028   6.505
 4153POPC   C3A55361  20.833   2.865   6.872
 4153POPC   C4A55362  20.654   2.745   7.233
 4153POPC   C1B55363  20.156   2.552   6.119
 4153POPC   C2B55364  20.238   2.897   6.404
 4153POPC   C3B55365  20.293   2.887   6.854
 4153POPC   C4B55366  20.133   2.783   7.261
 4154POPC   NC355367  41.441   7.459   5.195
 4154POPC   PO455368  42.014   7.509   5.535
 4154POPC   GL155369  41.677   7.335   5.757
 4154POPC   GL255370  41.330   7.438   5.728
 4154POPC   C1A55371  41.707   7.201   6.172
 4154POPC   D2A55372  41.722   7.436   6.548
 4154POPC   C3A55373  41.934   7.210   6.858
 4154POPC   C4A55374  41.828   7.174   7.268
 4154POPC   C1B55375  41.194   7.196   6.134
 4154POPC   C2B55376  41.371   7.027   6.560
 4154POPC   C3B55377  41.398   7.138   7.010
 4154POPC   C4B55378  41.439   6.895   7.425
 4155POPC   NC355379  35.548  19.342   5.047
 4155POPC   PO455380  35.292  18.798   5.364
 4155POPC   GL155381  35.472  19.032   5.713
 4155POPC   GL255382  35.396  19.396   5.717
 4155POPC   C1A55383  35.643  18.929   6.118
 4155POPC   D2A55384  35.499  18.710   6.494
 4155POPC   C3A55385  35.509  18.866   6.901
 4155POPC   C4A55386  35.326  18.736   7.294
 4155POPC   C1B55387  35.232  19.258   6.137
 4155POPC   C2B55388  35.132  19.088   6.541
 4155POPC   C3B55389  35.241  19.312   6.909
 4155POPC   C4B55390  35.492  19.254   7.264
 4156POPC   NC355391   8.777  10.851   5.319
 4156POPC   PO455392   8.860  11.522   5.255
 4156POPC   GL155393   8.958  11.398   5.669
 4156POPC   GL255394   9.184  11.104   5.653
 4156POPC   C1A55395   8.804  11.480   6.084
 4156POPC   D2A55396   8.734  11.214   6.424
 4156POPC   C3A55397   8.881  11.356   6.799
 4156POPC   C4A55398   8.826  11.389   7.237
 4156POPC   C1B55399   9.104  11.046   6.112
 4156POPC   C2B55400   9.204  10.989   6.592
 4156POPC   C3B55401   9.173  10.990   7.080
 4156POPC   C4B55402   9.176  11.118   7.545
 4157POPC   NC355403  22.238  42.857   5.411
 4157POPC   PO455404  22.095  43.469   5.253
 4157POPC   GL155405  22.143  43.273   5.696
 4157POPC   GL255406  21.851  43.054   5.720
 4157POPC   C1A55407  22.308  43.050   6.110
 4157POPC   D2A55408  22.566  42.991   6.547
 4157POPC   C3A55409  22.431  43.076   6.991
 4157POPC   C4A55410  22.156  43.297   7.296
 4157POPC   C1B55411  21.793  42.846   6.124
 4157POPC   C2B55412  21.653  42.902   6.555
 4157POPC   C3B55413  21.876  43.120   6.883
 4157POPC   C4B55414  21.962  42.853   7.218
 4158POPC   NC355415  43.974  30.072   5.318
 4158POPC   PO455416  43.497  30.643   5.524
 4158POPC   GL155417  43.699  30.214   5.754
 4158POPC   GL255418  44.082  30.134   5.803
 4158POPC   C1A55419  43.801  30.006   6.197
 4158POPC   D2A55420  43.617  30.074   6.605
 4158POPC   C3A55421  43.813  29.942   7.009
 4158POPC   C4A55422  43.915  30.108   7.451
 4158POPC   C1B55423  44.255  29.790   6.026
 4158POPC   C2B55424  44.303  29.803   6.470
 4158POPC   C3B55425  44.467  29.775   6.880
 4158POPC   C4B55426  44.228  29.747   7.269
 4159POPC   NC355427  33.243   3.692   5.266
 4159POPC   PO455428  33.956   3.657   5.250
 4159POPC   GL155429  33.655   3.567   5.636
 4159POPC   GL255430  33.914   3.380   5.816
 4159POPC   C1A55431  33.473   3.414   6.063
 4159POPC   D2A55432  33.517   3.617   6.456
 4159POPC   C3A55433  33.474   3.495   6.886
 4159POPC   C4A55434  33.581   3.756   7.242
 4159POPC   C1B55435  33.966   3.530   6.221
 4159POPC   C2B55436  33.925   3.313   6.622
 4159POPC   C3B55437  33.977   3.434   7.044
 4159POPC   C4B55438  34.200   3.657   7.343
 4160POPC   NC355439  32.518  39.189   5.295
 4160POPC   PO455440  31.881  39.259   5.309
 4160POPC   GL155441  31.963  39.432   5.700
 4160POPC   GL255442  32.234  39.182   5.728
 4160POPC   C1A55443  31.986  39.429   6.162
 4160POPC   D2A55444  31.998  39.616   6.578
 4160POPC   C3A55445  32.282  39.426   6.824
 4160POPC   C4A55446  32.221  39.351   7.209
 4160POPC   C1B55447  32.232  38.975   6.105
 4160POPC   C2B55448  32.311  39.038   6.504
 4160POPC   C3B55449  32.349  38.915   6.935
 4160POPC   C4B55450  32.443  38.939   7.356
 4161POPC   NC355451   1.865  15.936   5.458
 4161POPC   PO455452   2.368  15.466   5.365
 4161POPC   GL155453   2.346  15.825   5.653
 4161POPC   GL255454   2.069  15.749   5.877
 4161POPC   C1A55455   2.364  16.179   5.972
 4161POPC   D2A55456   2.112  16.241   6.348
 4161POPC   C3A55457   2.164  16.092   6.805
 4161POPC   C4A55458   2.139  16.124   7.283
 4161POPC   C1B55459   2.354  15.715   6.187
 4161POPC   C2B55460   2.358  15.603   6.606
 4161POPC   C3B55461   2.113  15.433   6.915
 4161POPC   C4B55462   2.050  15.627   7.299
 4162POPC   NC355463  23.427  21.136   5.207
 4162POPC   PO455464  23.641  21.645   5.541
 4162POPC   GL155465  23.343  21.720   5.900
 4162POPC   GL255466  23.195  21.371   5.909
 4162POPC   C1A55467  23.053  21.714   6.286
 4162POPC   D2A55468  22.935  21.509   6.735
 4162POPC   C3A55469  22.850  21.779   7.136
 4162POPC   C4A55470  22.578  21.667   7.517
 4162POPC   C1B55471  23.033  21.202   6.308
 4162POPC   C2B55472  23.211  21.051   6.693
 4162POPC   C3B55473  23.045  21.103   7.097
 4162POPC   C4B55474  22.641  21.306   7.158
 4163POPC   NC355475  44.249  40.780   5.492
 4163POPC   PO455476  43.617  40.962   5.359
 4163POPC   GL155477  43.565  40.829   5.771
 4163POPC   GL255478  43.893  40.887   5.855
 4163POPC   C1A55479  43.551  40.704   6.215
 4163POPC   D2A55480  43.705  40.815   6.604
 4163POPC   C3A55481  43.823  40.603   6.958
 4163POPC   C4A55482  43.682  40.956   7.205
 4163POPC   C1B55483  44.064  40.607   6.164
 4163POPC   C2B55484  44.244  40.704   6.541
 4163POPC   C3B55485  44.152  40.980   6.872
 4163POPC   C4B55486  44.181  40.840   7.266
 4164POPC   NC355487   2.377  43.311   5.045
 4164POPC   PO455488   1.732  43.324   5.322
 4164POPC   GL155489   1.884  43.271   5.741
 4164POPC   GL255490   2.252  43.231   5.654
 4164POPC   C1A55491   2.003  43.000   6.097
 4164POPC   D2A55492   2.153  42.922   6.520
 4164POPC   C3A55493   1.830  43.040   6.815
 4164POPC   C4A55494   1.712  42.879   7.212
 4164POPC   C1B55495   2.260  43.502   6.044
 4164POPC   C2B55496   2.082  43.430   6.449
 4164POPC   C3B55497   2.002  43.515   6.862
 4164POPC   C4B55498   2.133  43.206   7.215
 4165POPC   NC355499   9.355  14.943   5.384
 4165POPC   PO455500  10.044  15.218   5.459
 4165POPC   GL155501   9.691  15.169   5.699
 4165POPC   GL255502   9.485  15.411   5.836
 4165POPC   C1A55503   9.676  14.952   6.085
 4165POPC   D2A55504   9.882  15.024   6.490
 4165POPC   C3A55505   9.582  15.065   6.827
 4165POPC   C4A55506   9.746  15.054   7.218
 4165POPC   C1B55507   9.686  15.463   6.221
 4165POPC   C2B55508   9.621  15.611   6.618
 4165POPC   C3B55509   9.765  15.533   7.003
 4165POPC   C4B55510   9.579  15.507   7.366
 4166POPC   NC355511   5.250  22.367   5.288
 4166POPC   PO455512   4.908  21.875   5.516
 4166POPC   GL155513   5.066  22.219   5.804
 4166POPC   GL255514   5.353  22.487   5.781
 4166POPC   C1A55515   4.944  22.232   6.238
 4166POPC   D2A55516   4.865  21.987   6.586
 4166POPC   C3A55517   4.714  22.163   6.942
 4166POPC   C4A55518   4.938  22.215   7.275
 4166POPC   C1B55519   5.439  22.318   6.194
 4166POPC   C2B55520   5.328  22.241   6.629
 4166POPC   C3B55521   5.361  22.420   7.060
 4166POPC   C4B55522   5.255  22.472   7.538
 4167POPC   NC355523  21.265   7.538   5.429
 4167POPC   PO455524  21.967   7.563   5.488
 4167POPC   GL155525  21.848   7.453   5.889
 4167POPC   GL255526  21.521   7.297   5.821
 4167POPC   C1A55527  21.781   7.273   6.311
 4167POPC   D2A55528  21.653   7.160   6.735
 4167POPC   C3A55529  21.407   7.431   7.017
 4167POPC   C4A55530  21.328   7.378   7.480
 4167POPC   C1B55531  21.268   7.239   6.217
 4167POPC   C2B55532  21.132   7.167   6.679
 4167POPC   C3B55533  20.984   7.146   7.143
 4167POPC   C4B55534  20.895   7.135   7.618
 4168POPC   NC355535  29.400  14.669   5.347
 4168POPC   PO455536  29.199  14.032   5.441
 4168POPC   GL155537  29.345  14.319   5.728
 4168POPC   GL255538  29.160  14.594   5.786
 4168POPC   C1A55539  29.397  14.330   6.166
 4168POPC   D2A55540  29.153  14.303   6.549
 4168POPC   C3A55541  29.407  14.174   6.877
 4168POPC   C4A55542  29.416  14.331   7.269
 4168POPC   C1B55543  28.943  14.607   6.200
 4168POPC   C2B55544  28.770  14.650   6.630
 4168POPC   C3B55545  28.983  14.497   7.013
 4168POPC   C4B55546  28.895  14.306   7.405
 4169POPC   NC355547  37.894  41.079   5.236
 4169POPC   PO455548  37.448  40.665   5.361
 4169POPC   GL155549  37.615  40.671   5.784
 4169POPC   GL255550  37.762  41.007   5.749
 4169POPC   C1A55551  37.739  40.776   6.232
 4169POPC   D2A55552  38.025  40.701   6.604
 4169POPC   C3A55553  37.788  40.812   6.983
 4169POPC   C4A55554  37.780  40.731   7.445
 4169POPC   C1B55555  37.367  41.084   6.002
 4169POPC   C2B55556  37.284  41.004   6.426
 4169POPC   C3B55557  37.408  41.144   6.840
 4169POPC   C4B55558  37.433  41.062   7.265
 4170POPC   NC355559   4.765   1.494   5.328
 4170POPC   PO455560   5.338   1.180   5.498
 4170POPC   GL155561   5.108   1.135   5.860
 4170POPC   GL255562   4.846   1.368   5.833
 4170POPC   C1A55563   4.950   1.042   6.280
 4170POPC   D2A55564   4.834   1.188   6.707
 4170POPC   C3A55565   5.107   1.047   7.066
 4170POPC   C4A55566   5.232   1.243   7.426
 4170POPC   C1B55567   4.854   1.595   6.233
 4170POPC   C2B55568   4.966   1.702   6.682
 4170POPC   C3B55569   4.949   1.552   7.104
 4170POPC   C4B55570   4.806   1.480   7.525
 4171POPC   NC355571  35.964  42.694   5.619
 4171POPC   PO455572  36.502  43.034   5.442
 4171POPC   GL155573  36.278  43.236   5.837
 4171POPC   GL255574  35.931  43.161   5.866
 4171POPC   C1A55575  36.177  43.181   6.331
 4171POPC   D2A55576  35.975  42.981   6.727
 4171POPC   C3A55577  36.224  43.011   7.116
 4171POPC   C4A55578  36.640  43.185   7.041
 4171POPC   C1B55579  35.866  43.526   6.131
 4171POPC   C2B55580  35.769  43.458   6.574
 4171POPC   C3B55581  35.933  43.425   7.005
 4171POPC   C4B55582  35.911  43.278   7.453
 4172POPC   NC355583  30.180  17.832   5.441
 4172POPC   PO455584  29.779  17.331   5.393
 4172POPC   GL155585  29.970  17.412   5.791
 4172POPC   GL255586  29.913  17.782   5.873
 4172POPC   C1A55587  29.888  17.421   6.258
 4172POPC   D2A55588  29.550  17.422   6.595
 4172POPC   C3A55589  29.710  17.375   7.013
 4172POPC   C4A55590  30.111  17.198   7.138
 4172POPC   C1B55591  30.200  17.871   6.211
 4172POPC   C2B55592  30.298  17.725   6.641
 4172POPC   C3B55593  30.077  17.746   7.063
 4172POPC   C4B55594  30.134  18.017   7.448
 4173POPC   NC355595  19.569   1.973   5.336
 4173POPC   PO455596  20.061   2.495   5.329
 4173POPC   GL155597  19.898   2.159   5.678
 4173POPC   GL255598  20.164   1.932   5.823
 4173POPC   C1A55599  19.691   1.866   6.008
 4173POPC   D2A55600  19.582   1.930   6.438
 4173POPC   C3A55601  19.672   1.729   6.818
 4173POPC   C4A55602  19.753   1.973   7.163
 4173POPC   C1B55603  20.089   2.041   6.262
 4173POPC   C2B55604  20.049   2.033   6.684
 4173POPC   C3B55605  20.241   1.888   7.035
 4173POPC   C4B55606  20.201   1.814   7.468
 4174POPC   NC355607  42.643   2.142   5.046
 4174POPC   PO455608  43.250   1.980   5.352
 4174POPC   GL155609  43.130   1.844   5.758
 4174POPC   GL255610  42.829   2.020   5.838
 4174POPC   C1A55611  43.200   1.979   6.198
 4174POPC   D2A55612  43.225   2.331   6.485
 4174POPC   C3A55613  43.124   2.265   6.911
 4174POPC   C4A55614  43.230   1.979   7.225
 4174POPC   C1B55615  42.780   2.286   6.162
 4174POPC   C2B55616  42.725   2.211   6.561
 4174POPC   C3B55617  42.594   2.290   6.924
 4174POPC   C4B55618  42.728   2.200   7.341
 4175POPC   NC355619  19.390  22.692   5.115
 4175POPC   PO455620  19.019  23.267   5.357
 4175POPC   GL155621  18.902  23.210   5.831
 4175POPC   GL255622  18.753  23.540   5.900
 4175POPC   C1A55623  18.873  22.899   6.230
 4175POPC   D2A55624  19.053  22.785   6.675
 4175POPC   C3A55625  18.849  22.884   7.076
 4175POPC   C4A55626  18.838  22.731   7.495
 4175POPC   C1B55627  18.581  23.326   6.270
 4175POPC   C2B55628  18.658  23.175   6.689
 4175POPC   C3B55629  18.720  23.358   7.126
 4175POPC   C4B55630  18.583  23.198   7.527
 4176POPC   NC355631  31.924  29.916   5.438
 4176POPC   PO455632  31.235  30.013   5.329
 4176POPC   GL155633  31.439  29.865   5.699
 4176POPC   GL255634  31.651  30.097   5.886
 4176POPC   C1A55635  31.306  29.701   6.107
 4176POPC   D2A55636  31.082  29.540   6.485
 4176POPC   C3A55637  31.156  29.798   6.868
 4176POPC   C4A55638  31.549  29.822   7.100
 4176POPC   C1B55639  31.375  30.350   6.160
 4176POPC   C2B55640  31.385  30.141   6.545
 4176POPC   C3B55641  31.372  30.270   6.961
 4176POPC   C4B55642  31.149  30.138   7.304
 4177POPC   NC355643  26.525   7.129   5.405
 4177POPC   PO455644  26.441   6.474   5.339
 4177POPC   GL155645  26.273   6.646   5.751
 4177POPC   GL255646  26.019   6.883   5.760
 4177POPC   C1A55647  26.263   6.538   6.226
 4177POPC   D2A55648  26.213   6.723   6.658
 4177POPC   C3A55649  26.138   6.412   7.008
 4177POPC   C4A55650  26.179   6.088   7.341
 4177POPC   C1B55651  26.225   7.038   6.126
 4177POPC   C2B55652  26.486   7.157   6.491
 4177POPC   C3B55653  26.354   7.151   6.934
 4177POPC   C4B55654  26.052   6.897   7.146
 4178POPC   NC355655  26.035  37.049   5.426
 4178POPC   PO455656  26.009  36.371   5.601
 4178POPC   GL155657  26.031  36.744   5.851
 4178POPC   GL255658  26.304  37.031   5.847
 4178POPC   C1A55659  25.840  36.945   6.218
 4178POPC   D2A55660  25.652  37.069   6.640
 4178POPC   C3A55661  25.847  36.960   7.064
 4178POPC   C4A55662  25.992  37.224   7.440
 4178POPC   C1B55663  26.348  36.848   6.226
 4178POPC   C2B55664  26.142  36.813   6.618
 4178POPC   C3B55665  26.330  37.023   6.948
 4178POPC   C4B55666  26.352  36.875   7.373
 4179POPC   NC355667   7.262  23.847   5.485
 4179POPC   PO455668   7.816  23.481   5.381
 4179POPC   GL155669   7.585  23.510   5.730
 4179POPC   GL255670   7.728  23.856   5.744
 4179POPC   C1A55671   7.218  23.485   6.065
 4179POPC   D2A55672   6.943  23.463   6.464
 4179POPC   C3A55673   7.150  23.383   6.872
 4179POPC   C4A55674   7.394  23.497   7.234
 4179POPC   C1B55675   7.691  23.667   6.194
 4179POPC   C2B55676   7.816  23.496   6.593
 4179POPC   C3B55677   7.917  23.691   6.966
 4179POPC   C4B55678   7.710  23.877   7.302
 4180POPC   NC355679   0.665   9.349   5.284
 4180POPC   PO455680   0.282   8.736   5.386
 4180POPC   GL155681   0.496   8.883   5.798
 4180POPC   GL255682   0.472   9.249   5.874
 4180POPC   C1A55683   0.437   8.950   6.270
 4180POPC   D2A55684   0.638   9.086   6.657
 4180POPC   C3A55685   0.402   8.991   7.028
 4180POPC   C4A55686   0.134   8.784   7.347
 4180POPC   C1B55687   0.632   9.431   6.283
 4180POPC   C2B55688   0.756   9.596   6.682
 4180POPC   C3B55689   0.688   9.414   7.084
 4180POPC   C4B55690   0.589   9.230   7.446
 4181POPC   NC355691  10.273  19.621   5.462
 4181POPC   PO455692  10.773  19.051   5.491
 4181POPC   GL155693  10.511  19.250   5.774
 4181POPC   GL255694  10.446  18.928   5.949
 4181POPC   C1A55695  10.612  19.316   6.217
 4181POPC   D2A55696  10.571  18.984   6.515
 4181POPC   C3A55697  10.401  19.079   6.929
 4181POPC   C4A55698  10.430  19.264   7.354
 4181POPC   C1B55699  10.355  18.601   6.246
 4181POPC   C2B55700  10.254  18.594   6.674
 4181POPC   C3B55701  10.020  18.689   7.040
 4181POPC   C4B55702  10.198  18.821   7.440
 4182POPC   NC355703  25.536  26.208   5.474
 4182POPC   PO455704  25.098  25.780   5.325
 4182POPC   GL155705  24.971  25.819   5.742
 4182POPC   GL255706  25.048  26.171   5.740
 4182POPC   C1A55707  25.086  25.854   6.210
 4182POPC   D2A55708  25.365  26.075   6.539
 4182POPC   C3A55709  25.426  25.889   6.971
 4182POPC   C4A55710  25.793  25.920   7.209
 4182POPC   C1B55711  25.040  26.357   6.144
 4182POPC   C2B55712  24.885  26.264   6.536
 4182POPC   C3B55713  25.062  26.261   6.950
 4182POPC   C4B55714  24.944  26.147   7.339
 4183POPC   NC355715  19.439  14.262   5.097
 4183POPC   PO455716  20.064  14.044   5.173
 4183POPC   GL155717  19.913  14.214   5.620
 4183POPC   GL255718  19.829  13.934   5.808
 4183POPC   C1A55719  19.731  14.415   6.071
 4183POPC   D2A55720  19.672  14.339   6.557
 4183POPC   C3A55721  19.642  14.626   6.955
 4183POPC   C4A55722  19.801  14.601   7.391
 4183POPC   C1B55723  19.597  13.948   6.179
 4183POPC   C2B55724  19.546  13.786   6.571
 4183POPC   C3B55725  19.660  13.977   6.948
 4183POPC   C4B55726  19.483  14.223   7.200
 4184POPC   NC355727  36.025  37.194   5.474
 4184POPC   PO455728  36.685  37.438   5.664
 4184POPC   GL155729  36.361  37.161   5.916
 4184POPC   GL255730  36.216  36.813   5.794
 4184POPC   C1A55731  36.355  36.827   6.269
 4184POPC   D2A55732  36.212  36.618   6.642
 4184POPC   C3A55733  36.245  36.824   7.037
 4184POPC   C4A55734  36.420  36.644   7.407
 4184POPC   C1B55735  35.930  36.597   6.128
 4184POPC   C2B55736  35.700  36.547   6.546
 4184POPC   C3B55737  35.747  36.451   7.009
 4184POPC   C4B55738  35.926  36.507   7.427
 4185POPC   NC355739  43.513  38.484   5.272
 4185POPC   PO455740  42.925  38.636   5.277
 4185POPC   GL155741  43.071  38.607   5.716
 4185POPC   GL255742  43.369  38.751   5.829
 4185POPC   C1A55743  43.007  38.690   6.185
 4185POPC   D2A55744  43.133  38.874   6.603
 4185POPC   C3A55745  43.057  38.612   6.981
 4185POPC   C4A55746  42.883  38.606   7.430
 4185POPC   C1B55747  43.516  38.680   6.298
 4185POPC   C2B55748  43.605  38.782   6.772
 4185POPC   C3B55749  43.533  38.530   7.175
 4185POPC   C4B55750  43.212  38.213   7.307
 4186POPC   NC355751   5.831  44.360   5.441
 4186POPC   PO455752   6.407  44.587   5.062
 4186POPC   GL155753   6.205  44.697   5.557
 4186POPC   GL255754   5.875  44.852   5.706
 4186POPC   C1A55755   6.080  44.534   6.044
 4186POPC   D2A55756   5.810  44.534   6.452
 4186POPC   C3A55757   5.884  44.567   6.916
 4186POPC   C4A55758   6.167  44.486   7.261
 4186POPC   C1B55759   5.994   0.042   6.153
 4186POPC   C2B55760   6.135   0.028   6.626
 4186POPC   C3B55761   5.944   0.072   7.053
 4186POPC   C4B55762   5.854  44.964   7.483
 4187POPC   NC355763  37.341  40.228   5.322
 4187POPC   PO455764  37.853  39.866   5.562
 4187POPC   GL155765  37.832  40.184   5.859
 4187POPC   GL255766  37.482  40.121   5.898
 4187POPC   C1A55767  37.861  40.282   6.313
 4187POPC   D2A55768  37.605  40.415   6.672
 4187POPC   C3A55769  37.710  40.239   7.089
 4187POPC   C4A55770  37.859  39.799   7.168
 4187POPC   C1B55771  37.651  39.816   6.218
 4187POPC   C2B55772  37.715  39.893   6.661
 4187POPC   C3B55773  37.393  39.853   6.967
 4187POPC   C4B55774  37.361  39.550   7.277
 4188POPC   NC355775   4.921  41.787   5.473
 4188POPC   PO455776   5.531  41.986   5.829
 4188POPC   GL155777   5.358  41.544   5.810
 4188POPC   GL255778   5.018  41.388   5.780
 4188POPC   C1A55779   5.294  41.287   6.186
 4188POPC   D2A55780   5.034  41.371   6.551
 4188POPC   C3A55781   5.230  41.250   6.957
 4188POPC   C4A55782   5.240  41.500   7.340
 4188POPC   C1B55783   4.953  41.712   6.126
 4188POPC   C2B55784   4.800  41.840   6.540
 4188POPC   C3B55785   4.989  41.754   6.942
 4188POPC   C4B55786   4.837  41.808   7.362
 4189POPC   NC355787   2.810  15.616   5.461
 4189POPC   PO455788   2.758  14.931   5.378
 4189POPC   GL155789   2.769  15.103   5.806
 4189POPC   GL255790   2.514  15.366   5.833
 4189POPC   C1A55791   3.013  15.110   6.226
 4189POPC   D2A55792   3.196  15.264   6.652
 4189POPC   C3A55793   3.026  15.126   7.043
 4189POPC   C4A55794   2.866  15.047   7.443
 4189POPC   C1B55795   2.516  15.237   6.232
 4189POPC   C2B55796   2.662  15.188   6.609
 4189POPC   C3B55797   2.509  15.093   6.967
 4189POPC   C4B55798   2.420  15.272   7.309
 4190POPC   NC355799  14.919  44.795   5.415
 4190POPC   PO455800  15.560  44.886   5.552
 4190POPC   GL155801  15.270  44.638   5.834
 4190POPC   GL255802  14.950  44.812   5.934
 4190POPC   C1A55803  15.258  44.523   6.289
 4190POPC   D2A55804  14.984  44.650   6.645
 4190POPC   C3A55805  15.234  44.629   7.037
 4190POPC   C4A55806  15.284  44.646   7.512
 4190POPC   C1B55807  14.799  44.406   6.116
 4190POPC   C2B55808  14.724  44.180   6.502
 4190POPC   C3B55809  14.911  44.218   6.915
 4190POPC   C4B55810  14.877  44.392   7.325
 4191POPC   NC355811  27.568  34.069   5.340
 4191POPC   PO455812  27.322  33.566   5.344
 4191POPC   GL155813  27.360  33.655   5.794
 4191POPC   GL255814  27.461  34.010   5.853
 4191POPC   C1A55815  27.320  33.595   6.263
 4191POPC   D2A55816  27.603  33.657   6.622
 4191POPC   C3A55817  27.523  33.615   7.057
 4191POPC   C4A55818  27.752  33.791   7.430
 4191POPC   C1B55819  27.548  34.100   6.304
 4191POPC   C2B55820  27.705  34.155   6.733
 4191POPC   C3B55821  27.472  34.119   7.126
 4191POPC   C4B55822  27.195  33.836   7.372
 4192POPC   NC355823   1.452  34.511   5.058
 4192POPC   PO455824   2.078  34.437   5.314
 4192POPC   GL155825   2.136  34.559   5.729
 4192POPC   GL255826   1.794  34.537   5.811
 4192POPC   C1A55827   2.191  34.534   6.199
 4192POPC   D2A55828   2.319  34.715   6.623
 4192POPC   C3A55829   2.201  34.443   6.967
 4192POPC   C4A55830   2.147  34.568   7.374
 4192POPC   C1B55831   1.704  34.705   6.227
 4192POPC   C2B55832   1.816  34.640   6.672
 4192POPC   C3B55833   1.683  34.563   7.104
 4192POPC   C4B55834   1.511  34.851   7.427
 4193POPC   NC355835  44.312  31.660   5.404
 4193POPC   PO455836  43.683  31.488   5.465
 4193POPC   GL155837  44.021  31.415   5.771
 4193POPC   GL255838  44.308  31.642   5.887
 4193POPC   C1A55839  43.934  31.460   6.194
 4193POPC   D2A55840  43.729  31.307   6.531
 4193POPC   C3A55841  43.791  31.507   6.896
 4193POPC   C4A55842  43.552  31.485   7.245
 4193POPC   C1B55843  44.419  31.650   6.265
 4193POPC   C2B55844  44.154  31.715   6.579
 4193POPC   C3B55845  44.201  31.897   6.934
 4193POPC   C4B55846  44.075  31.690   7.287
 4194POPC   NC355847  27.882  38.550   5.393
 4194POPC   PO455848  27.278  38.179   5.308
 4194POPC   GL155849  27.359  38.403   5.725
 4194POPC   GL255850  27.568  38.719   5.790
 4194POPC   C1A55851  27.497  38.379   6.175
 4194POPC   D2A55852  27.441  38.094   6.521
 4194POPC   C3A55853  27.644  38.226   6.911
 4194POPC   C4A55854  27.368  38.432   7.167
 4194POPC   C1B55855  27.840  38.798   6.178
 4194POPC   C2B55856  27.826  38.617   6.622
 4194POPC   C3B55857  27.739  38.754   7.087
 4194POPC   C4B55858  27.506  38.749   7.539
 4195POPC   NC355859  29.924  21.084   5.432
 4195POPC   PO455860  30.331  21.671   5.422
 4195POPC   GL155861  30.150  21.418   5.778
 4195POPC   GL255862  30.319  21.100   5.809
 4195POPC   C1A55863  29.864  21.370   6.156
 4195POPC   D2A55864  29.717  21.214   6.585
 4195POPC   C3A55865  29.695  21.495   6.951
 4195POPC   C4A55866  30.045  21.618   7.186
 4195POPC   C1B55867  30.320  21.155   6.293
 4195POPC   C2B55868  30.272  21.245   6.752
 4195POPC   C3B55869  30.394  21.222   7.204
 4195POPC   C4B55870  30.463  20.972   7.584
 4196POPC   NC355871  10.297  17.022   5.466
 4196POPC   PO455872  10.802  16.598   5.412
 4196POPC   GL155873  10.445  16.471   5.648
 4196POPC   GL255874  10.503  16.727   5.844
 4196POPC   C1A55875  10.285  16.365   6.115
 4196POPC   D2A55876  10.071  16.517   6.527
 4196POPC   C3A55877  10.194  16.492   6.990
 4196POPC   C4A55878  10.253  16.839   7.293
 4196POPC   C1B55879  10.715  16.639   6.219
 4196POPC   C2B55880  10.526  16.776   6.590
 4196POPC   C3B55881  10.672  16.756   6.986
 4196POPC   C4B55882  10.643  16.518   7.341
 4197POPC   NC355883  38.705  29.204   5.340
 4197POPC   PO455884  38.256  28.787   5.404
 4197POPC   GL155885  38.294  29.163   5.693
 4197POPC   GL255886  38.210  28.961   5.973
 4197POPC   C1A55887  38.328  29.441   6.107
 4197POPC   D2A55888  38.269  29.273   6.555
 4197POPC   C3A55889  38.332  29.351   7.012
 4197POPC   C4A55890  38.255  29.202   7.459
 4197POPC   C1B55891  38.588  29.022   6.249
 4197POPC   C2B55892  38.616  28.900   6.705
 4197POPC   C3B55893  38.468  28.875   7.129
 4197POPC   C4B55894  38.693  28.933   7.532
 4198POPC   NC355895  19.322  27.596   5.154
 4198POPC   PO455896  18.773  27.582   5.363
 4198POPC   GL155897  19.015  27.631   5.751
 4198POPC   GL255898  19.392  27.650   5.680
 4198POPC   C1A55899  19.034  27.735   6.211
 4198POPC   D2A55900  19.242  27.782   6.638
 4198POPC   C3A55901  19.007  27.550   6.964
 4198POPC   C4A55902  19.014  27.223   7.279
 4198POPC   C1B55903  19.538  27.640   6.151
 4198POPC   C2B55904  19.715  27.568   6.616
 4198POPC   C3B55905  19.529  27.556   7.078
 4198POPC   C4B55906  19.196  27.765   7.389
 4199POPC   NC355907   0.084  23.191   5.486
 4199POPC   PO455908  44.454  22.837   5.465
 4199POPC   GL155909  44.795  22.824   5.763
 4199POPC   GL255910  44.993  22.556   5.871
 4199POPC   C1A55911  44.802  22.942   6.205
 4199POPC   D2A55912  44.547  22.947   6.568
 4199POPC   C3A55913  44.665  23.049   6.978
 4199POPC   C4A55914  44.341  22.987   7.302
 4199POPC   C1B55915  44.933  22.457   6.305
 4199POPC   C2B55916  44.961  22.659   6.719
 4199POPC   C3B55917   0.052  22.764   7.157
 4199POPC   C4B55918  44.791  22.631   7.472
 4200POPC   NC355919  28.936   6.961   5.386
 4200POPC   PO455920  29.409   6.528   5.451
 4200POPC   GL155921  29.240   6.810   5.783
 4200POPC   GL255922  28.846   6.814   5.847
 4200POPC   C1A55923  29.178   6.904   6.225
 4200POPC   D2A55924  29.380   6.917   6.626
 4200POPC   C3A55925  29.268   6.615   6.953
 4200POPC   C4A55926  29.084   6.854   7.255
 4200POPC   C1B55927  28.679   6.899   6.253
 4200POPC   C2B55928  28.836   6.773   6.654
 4200POPC   C3B55929  28.647   6.837   7.042
 4200POPC   C4B55930  28.545   6.768   7.484
 4201POPC   NC355931  42.727  12.437   5.467
 4201POPC   PO455932  42.111  12.137   5.302
 4201POPC   GL155933  42.100  12.056   5.767
 4201POPC   GL255934  42.449  12.021   5.806
 4201POPC   C1A55935  42.192  12.209   6.209
 4201POPC   D2A55936  42.070  11.974   6.550
 4201POPC   C3A55937  42.145  12.072   6.982
 4201POPC   C4A55938  42.218  11.959   7.392
 4201POPC   C1B55939  42.637  11.962   6.207
 4201POPC   C2B55940  42.582  12.115   6.654
 4201POPC   C3B55941  42.625  12.116   7.112
 4201POPC   C4B55942  42.706  11.984   7.544
 4202POPC   NC355943  28.123  35.658   5.515
 4202POPC   PO455944  27.546  35.451   5.281
 4202POPC   GL155945  27.648  35.425   5.712
 4202POPC   GL255946  27.464  35.695   5.831
 4202POPC   C1A55947  27.835  35.523   6.144
 4202POPC   D2A55948  27.894  35.616   6.591
 4202POPC   C3A55949  27.720  35.385   6.967
 4202POPC   C4A55950  27.786  34.985   7.203
 4202POPC   C1B55951  27.343  35.401   6.174
 4202POPC   C2B55952  27.275  35.418   6.622
 4202POPC   C3B55953  27.187  35.374   7.079
 4202POPC   C4B55954  27.161  35.038   7.404
 4203POPC   NC355955   0.746   3.973   5.317
 4203POPC   PO455956   0.251   4.474   5.544
 4203POPC   GL155957   0.564   4.370   5.871
 4203POPC   GL255958   0.779   4.073   5.823
 4203POPC   C1A55959   0.491   4.222   6.300
 4203POPC   D2A55960   0.512   4.404   6.713
 4203POPC   C3A55961   0.209   4.317   7.035
 4203POPC   C4A55962   0.245   3.935   7.262
 4203POPC   C1B55963   0.992   4.149   6.217
 4203POPC   C2B55964   0.910   4.038   6.636
 4203POPC   C3B55965   0.797   4.127   7.063
 4203POPC   C4B55966   0.666   4.548   7.192
 4204POPC   NC355967  22.376  24.131   5.512
 4204POPC   PO455968  22.084  24.709   5.366
 4204POPC   GL155969  22.083  24.549   5.767
 4204POPC   GL255970  21.868  24.286   5.698
 4204POPC   C1A55971  22.260  24.504   6.204
 4204POPC   D2A55972  22.168  24.703   6.636
 4204POPC   C3A55973  22.320  24.683   7.077
 4204POPC   C4A55974  22.630  24.975   7.264
 4204POPC   C1B55975  21.773  24.372   6.140
 4204POPC   C2B55976  21.958  24.249   6.536
 4204POPC   C3B55977  21.916  24.367   6.954
 4204POPC   C4B55978  22.154  24.249   7.317
 4205POPC   NC355979  13.209  21.481   5.367
 4205POPC   PO455980  12.510  21.396   5.253
 4205POPC   GL155981  12.580  21.300   5.713
 4205POPC   GL255982  12.943  21.330   5.792
 4205POPC   C1A55983  12.584  21.341   6.189
 4205POPC   D2A55984  12.894  21.366   6.526
 4205POPC   C3A55985  12.798  21.260   6.965
 4205POPC   C4A55986  13.096  21.110   7.255
 4205POPC   C1B55987  12.987  21.670   6.092
 4205POPC   C2B55988  12.894  21.879   6.473
 4205POPC   C3B55989  12.910  21.755   6.881
 4205POPC   C4B55990  13.207  21.704   7.201
 4206POPC   NC355991  39.570   8.633   5.444
 4206POPC   PO455992  39.323   8.076   5.233
 4206POPC   GL155993  39.338   8.149   5.742
 4206POPC   GL255994  39.413   8.454   5.875
 4206POPC   C1A55995  39.383   8.072   6.226
 4206POPC   D2A55996  39.644   8.129   6.637
 4206POPC   C3A55997  39.562   8.379   7.034
 4206POPC   C4A55998  39.387   8.067   7.349
 4206POPC   C1B55999  39.110   8.552   6.156
 4206POPC   C2B56000  39.123   8.366   6.545
 4206POPC   C3B56001  39.172   8.128   6.882
 4206POPC   C4B56002  39.065   8.440   7.208
 4207POPC   NC356003   4.088  41.565   5.273
 4207POPC   PO456004   4.704  41.305   5.386
 4207POPC   GL156005   4.410  41.417   5.756
 4207POPC   GL256006   4.014  41.323   5.718
 4207POPC   C1A56007   4.491  41.464   6.213
 4207POPC   D2A56008   4.298  41.674   6.573
 4207POPC   C3A56009   4.471  41.646   7.003
 4207POPC   C4A56010   4.768  41.321   7.161
 4207POPC   C1B56011   3.974  41.552   6.110
 4207POPC   C2B56012   3.833  41.441   6.529
 4207POPC   C3B56013   3.993  41.448   6.923
 4207POPC   C4B56014   3.990  41.681   7.279
 4208POPC   NC356015  15.474  38.682   5.431
 4208POPC   PO456016  16.112  38.275   5.448
 4208POPC   GL156017  15.832  38.470   5.745
 4208POPC   GL256018  15.619  38.230   5.879
 4208POPC   C1A56019  15.797  38.572   6.209
 4208POPC   D2A56020  15.642  38.458   6.627
 4208POPC   C3A56021  15.983  38.519   6.919
 4208POPC   C4A56022  15.955  38.532   7.348
 4208POPC   C1B56023  15.672  38.070   6.276
 4208POPC   C2B56024  15.601  37.935   6.672
 4208POPC   C3B56025  15.721  38.104   7.031
 4208POPC   C4B56026  16.037  38.006   7.271
 4209POPC   NC356027  12.301  23.400   5.437
 4209POPC   PO456028  11.815  23.890   5.488
 4209POPC   GL156029  11.876  23.533   5.753
 4209POPC   GL256030  12.181  23.730   5.824
 4209POPC   C1A56031  11.972  23.465   6.194
 4209POPC   D2A56032  11.985  23.677   6.585
 4209POPC   C3A56033  11.936  23.515   7.001
 4209POPC   C4A56034  12.016  23.608   7.440
 4209POPC   C1B56035  12.245  23.959   6.213
 4209POPC   C2B56036  12.038  24.174   6.579
 4209POPC   C3B56037  12.118  24.010   6.985
 4209POPC   C4B56038  11.958  24.111   7.366
 4210POPC   NC356039  38.440  10.896   5.489
 4210POPC   PO456040  38.836  10.452   5.461
 4210POPC   GL156041  38.635  10.518   5.869
 4210POPC   GL256042  38.296  10.622   5.903
 4210POPC   C1A56043  38.563  10.633   6.318
 4210POPC   D2A56044  38.594  10.343   6.665
 4210POPC   C3A56045  38.457  10.558   7.020
 4210POPC   C4A56046  38.659  10.680   7.353
 4210POPC   C1B56047  38.316  10.215   6.213
 4210POPC   C2B56048  38.218   9.992   6.658
 4210POPC   C3B56049  38.175  10.126   7.123
 4210POPC   C4B56050  38.563  10.178   7.419
 4211POPC   NC356051   8.642  41.367   5.521
 4211POPC   PO456052   9.296  41.490   5.401
 4211POPC   GL156053   9.110  41.473   5.767
 4211POPC   GL256054   9.169  41.137   5.856
 4211POPC   C1A56055   8.971  41.699   6.140
 4211POPC   D2A56056   8.823  41.660   6.560
 4211POPC   C3A56057   9.058  41.730   6.935
 4211POPC   C4A56058   8.789  41.554   7.249
 4211POPC   C1B56059   9.105  41.227   6.308
 4211POPC   C2B56060   9.339  41.323   6.696
 4211POPC   C3B56061   9.288  41.288   7.155
 4211POPC   C4B56062   9.199  41.463   7.562
 4212POPC   NC356063  36.552  36.593   5.452
 4212POPC   PO456064  37.196  36.384   5.415
 4212POPC   GL156065  36.851  36.237   5.748
 4212POPC   GL256066  36.653  35.934   5.680
 4212POPC   C1A56067  36.741  36.105   6.207
 4212POPC   D2A56068  36.585  36.216   6.642
 4212POPC   C3A56069  36.816  36.166   7.001
 4212POPC   C4A56070  36.800  36.300   7.419
 4212POPC   C1B56071  36.410  35.770   6.025
 4212POPC   C2B56072  36.421  35.739   6.466
 4212POPC   C3B56073  36.479  35.774   6.899
 4212POPC   C4B56074  36.584  35.834   7.322
 4213POPC   NC356075  28.372  37.911   5.393
 4213POPC   PO456076  28.443  37.300   5.559
 4213POPC   GL156077  28.353  37.598   5.823
 4213POPC   GL256078  28.636  37.751   5.871
 4213POPC   C1A56079  28.152  37.508   6.200
 4213POPC   D2A56080  28.023  37.272   6.519
 4213POPC   C3A56081  28.103  37.448   6.908
 4213POPC   C4A56082  27.806  37.442   7.162
 4213POPC   C1B56083  28.664  37.444   6.203
 4213POPC   C2B56084  28.525  37.357   6.611
 4213POPC   C3B56085  28.578  37.638   6.966
 4213POPC   C4B56086  28.835  37.743   7.297
 4214POPC   NC356087  30.844  15.448   5.344
 4214POPC   PO456088  30.834  14.874   5.129
 4214POPC   GL156089  30.826  15.104   5.690
 4214POPC   GL256090  30.504  15.359   5.712
 4214POPC   C1A56091  30.831  14.960   6.158
 4214POPC   D2A56092  30.780  14.734   6.569
 4214POPC   C3A56093  30.608  14.959   6.936
 4214POPC   C4A56094  30.844  15.092   7.328
 4214POPC   C1B56095  30.753  15.451   6.088
 4214POPC   C2B56096  30.686  15.312   6.528
 4214POPC   C3B56097  30.792  15.448   6.941
 4214POPC   C4B56098  30.550  15.489   7.319
 4215POPC   NC356099  27.255  23.847   5.238
 4215POPC   PO456100  27.696  23.347   5.365
 4215POPC   GL156101  27.572  23.416   5.757
 4215POPC   GL256102  27.246  23.575   5.683
 4215POPC   C1A56103  27.799  23.583   6.151
 4215POPC   D2A56104  27.650  23.930   6.431
 4215POPC   C3A56105  27.557  23.812   6.848
 4215POPC   C4A56106  27.840  23.830   7.152
 4215POPC   C1B56107  27.305  23.679   6.114
 4215POPC   C2B56108  27.405  23.449   6.496
 4215POPC   C3B56109  27.205  23.439   6.908
 4215POPC   C4B56110  27.428  23.543   7.289
 4216POPC   NC356111  24.901  13.506   5.385
 4216POPC   PO456112  24.298  13.844   5.412
 4216POPC   GL156113  24.222  13.771   5.813
 4216POPC   GL256114  24.322  13.417   5.833
 4216POPC   C1A56115  24.142  13.669   6.238
 4216POPC   D2A56116  24.408  13.394   6.473
 4216POPC   C3A56117  24.498  13.558   6.857
 4216POPC   C4A56118  24.192  13.725   7.142
 4216POPC   C1B56119  24.689  13.567   6.074
 4216POPC   C2B56120  24.934  13.709   6.466
 4216POPC   C3B56121  24.927  13.830   6.915
 4216POPC   C4B56122  24.668  13.796   7.300
 4217POPC   NC356123  35.976  44.414   5.556
 4217POPC   PO456124  36.536  44.811   5.612
 4217POPC   GL156125  36.231  44.917   5.979
 4217POPC   GL256126  35.849  44.978   5.899
 4217POPC   C1A56127  36.273  44.688   6.404
 4217POPC   D2A56128  36.243  44.251   6.625
 4217POPC   C3A56129  36.071  44.323   7.030
 4217POPC   C4A56130  36.263  44.713   7.077
 4217POPC   C1B56131  35.753  44.709   6.268
 4217POPC   C2B56132  35.859  44.682   6.718
 4217POPC   C3B56133  35.769  44.813   7.162
 4217POPC   C4B56134  35.792  44.959   7.616
 4218POPC   NC356135   6.200  11.081   5.423
 4218POPC   PO456136   5.765  11.606   5.414
 4218POPC   GL156137   6.120  11.525   5.759
 4218POPC   GL256138   6.160  11.225   5.933
 4218POPC   C1A56139   6.276  11.711   6.185
 4218POPC   D2A56140   6.348  11.772   6.639
 4218POPC   C3A56141   5.997  11.721   6.936
 4218POPC   C4A56142   5.687  11.413   7.119
 4218POPC   C1B56143   5.882  11.404   6.267
 4218POPC   C2B56144   5.859  11.227   6.666
 4218POPC   C3B56145   6.120  11.128   7.003
 4218POPC   C4B56146   5.984  11.036   7.396
 4219POPC   NC356147   4.069  15.862   5.282
 4219POPC   PO456148   4.744  15.798   5.439
 4219POPC   GL156149   4.544  15.928   5.858
 4219POPC   GL256150   4.186  16.043   5.841
 4219POPC   C1A56151   4.572  16.083   6.289
 4219POPC   D2A56152   4.481  16.312   6.699
 4219POPC   C3A56153   4.559  16.034   7.073
 4219POPC   C4A56154   4.391  15.897   7.490
 4219POPC   C1B56155   4.091  16.271   6.247
 4219POPC   C2B56156   3.956  16.405   6.663
 4219POPC   C3B56157   4.077  16.274   7.088
 4219POPC   C4B56158   3.863  16.046   7.415
 4220POPC   NC356159  31.892  20.415   5.455
 4220POPC   PO456160  31.422  20.775   5.751
 4220POPC   GL156161  31.522  20.803   6.113
 4220POPC   GL256162  31.791  20.564   6.047
 4220POPC   C1A56163  31.269  21.048   6.373
 4220POPC   D2A56164  31.278  21.069   6.797
 4220POPC   C3A56165  31.454  20.699   6.997
 4220POPC   C4A56166  31.250  20.298   7.113
 4220POPC   C1B56167  31.542  20.331   6.311
 4220POPC   C2B56168  31.627  20.316   6.697
 4220POPC   C3B56169  31.966  20.393   6.918
 4220POPC   C4B56170  31.750  20.331   7.279
 4221POPC   NC356171  24.709  23.312   5.504
 4221POPC   PO456172  24.212  23.896   5.560
 4221POPC   GL156173  24.439  23.637   5.806
 4221POPC   GL256174  24.283  23.349   5.805
 4221POPC   C1A56175  24.599  23.712   6.195
 4221POPC   D2A56176  24.736  23.984   6.520
 4221POPC   C3A56177  24.512  23.970   6.907
 4221POPC   C4A56178  24.561  23.877   7.335
 4221POPC   C1B56179  24.362  23.267   6.238
 4221POPC   C2B56180  24.426  23.480   6.627
 4221POPC   C3B56181  24.442  23.444   7.067
 4221POPC   C4B56182  24.798  23.441   7.313
 4222POPC   NC356183   5.933  38.695   5.402
 4222POPC   PO456184   5.596  38.110   5.359
 4222POPC   GL156185   5.635  38.385   5.739
 4222POPC   GL256186   5.993  38.438   5.837
 4222POPC   C1A56187   5.421  38.460   6.164
 4222POPC   D2A56188   5.267  38.457   6.627
 4222POPC   C3A56189   5.622  38.455   6.956
 4222POPC   C4A56190   5.564  38.528   7.414
 4222POPC   C1B56191   5.902  38.631   6.233
 4222POPC   C2B56192   6.108  38.707   6.619
 4222POPC   C3B56193   6.154  38.534   7.007
 4222POPC   C4B56194   6.325  38.678   7.348
 4223POPC   NC356195   2.605  22.479   5.457
 4223POPC   PO456196   2.542  21.800   5.432
 4223POPC   GL156197   2.428  21.858   5.870
 4223POPC   GL256198   2.611  22.171   5.882
 4223POPC   C1A56199   2.674  21.881   6.300
 4223POPC   D2A56200   3.087  22.011   6.559
 4223POPC   C3A56201   3.020  21.999   7.018
 4223POPC   C4A56202   2.574  21.952   7.133
 4223POPC   C1B56203   2.767  22.516   6.150
 4223POPC   C2B56204   3.018  22.587   6.544
 4223POPC   C3B56205   2.980  22.650   7.002
 4223POPC   C4B56206   2.819  22.367   7.348
 4224POPC   NC356207  18.856  44.073   5.463
 4224POPC   PO456208  19.519  43.935   5.486
 4224POPC   GL156209  19.377  43.582   5.749
 4224POPC   GL256210  19.045  43.642   5.853
 4224POPC   C1A56211  19.452  43.566   6.210
 4224POPC   D2A56212  19.411  43.824   6.606
 4224POPC   C3A56213  19.394  43.609   7.004
 4224POPC   C4A56214  19.044  43.513   7.267
 4224POPC   C1B56215  18.986  43.779   6.299
 4224POPC   C2B56216  18.939  43.989   6.733
 4224POPC   C3B56217  18.953  44.039   7.202
 4224POPC   C4B56218  18.725  44.215   7.603
 4225POPC   NC356219  38.048  18.244   5.509
 4225POPC   PO456220  37.437  18.532   5.427
 4225POPC   GL156221  37.401  18.282   5.793
 4225POPC   GL256222  37.570  18.004   5.647
 4225POPC   C1A56223  37.414  18.338   6.259
 4225POPC   D2A56224  37.520  18.560   6.663
 4225POPC   C3A56225  37.809  18.351   6.976
 4225POPC   C4A56226  38.176  18.326   7.252
 4225POPC   C1B56227  37.747  17.984   6.081
 4225POPC   C2B56228  37.864  18.134   6.507
 4225POPC   C3B56229  38.053  17.917   6.880
 4225POPC   C4B56230  37.831  17.891   7.280
 4226POPC   NC356231  17.405  15.614   5.480
 4226POPC   PO456232  17.150  15.044   5.390
 4226POPC   GL156233  17.308  15.210   5.792
 4226POPC   GL256234  17.678  15.255   5.789
 4226POPC   C1A56235  17.412  15.062   6.211
 4226POPC   D2A56236  17.200  14.876   6.548
 4226POPC   C3A56237  17.170  15.151   6.895
 4226POPC   C4A56238  17.534  15.130   7.114
 4226POPC   C1B56239  17.782  15.415   6.218
 4226POPC   C2B56240  17.651  15.510   6.665
 4226POPC   C3B56241  17.855  15.517   7.097
 4226POPC   C4B56242  17.762  15.709   7.533
 4227POPC   NC356243  43.528   7.496   5.271
 4227POPC   PO456244  44.165   7.341   5.376
 4227POPC   GL156245  43.900   7.316   5.746
 4227POPC   GL256246  43.715   7.645   5.739
 4227POPC   C1A56247  43.800   7.365   6.215
 4227POPC   D2A56248  43.653   7.175   6.600
 4227POPC   C3A56249  43.841   7.284   7.008
 4227POPC   C4A56250  43.598   7.093   7.296
 4227POPC   C1B56251  44.087   7.728   5.990
 4227POPC   C2B56252  44.062   7.798   6.428
 4227POPC   C3B56253  43.709   7.674   6.703
 4227POPC   C4B56254  43.603   7.718   7.162
 4228POPC   NC356255  13.880  11.557   5.522
 4228POPC   PO456256  13.484  11.068   5.361
 4228POPC   GL156257  13.539  11.262   5.744
 4228POPC   GL256258  13.835  11.092   5.806
 4228POPC   C1A56259  13.565  11.457   6.157
 4228POPC   D2A56260  13.701  11.287   6.554
 4228POPC   C3A56261  13.671  11.475   6.960
 4228POPC   C4A56262  13.368  11.508   7.244
 4228POPC   C1B56263  14.034  11.211   6.165
 4228POPC   C2B56264  14.148  11.020   6.545
 4228POPC   C3B56265  13.901  11.016   6.940
 4228POPC   C4B56266  13.918  11.031   7.417
 4229POPC   NC356267  25.625  13.619   5.196
 4229POPC   PO456268  25.110  13.933   5.400
 4229POPC   GL156269  25.430  13.848   5.726
 4229POPC   GL256270  25.500  13.488   5.704
 4229POPC   C1A56271  25.435  13.660   6.186
 4229POPC   D2A56272  25.478  13.481   6.640
 4229POPC   C3A56273  25.428  13.737   7.030
 4229POPC   C4A56274  25.155  13.885   7.379
 4229POPC   C1B56275  25.137  13.284   5.993
 4229POPC   C2B56276  24.889  13.198   6.397
 4229POPC   C3B56277  24.988  13.318   6.826
 4229POPC   C4B56278  25.202  13.335   7.221
 4230POPC   NC356279  13.933  21.450   5.279
 4230POPC   PO456280  13.388  21.102   5.598
 4230POPC   GL156281  13.492  21.480   5.797
 4230POPC   GL256282  13.839  21.583   5.756
 4230POPC   C1A56283  13.423  21.455   6.224
 4230POPC   D2A56284  13.337  21.674   6.559
 4230POPC   C3A56285  13.312  21.347   6.855
 4230POPC   C4A56286  13.560  21.288   7.231
 4230POPC   C1B56287  13.781  21.783   6.124
 4230POPC   C2B56288  13.862  21.640   6.533
 4230POPC   C3B56289  13.684  21.707   6.927
 4230POPC   C4B56290  13.905  21.642   7.273
 4231POPC   NC356291   1.484   1.749   5.550
 4231POPC   PO456292   0.902   1.631   5.217
 4231POPC   GL156293   1.020   1.842   5.727
 4231POPC   GL256294   1.214   2.115   5.813
 4231POPC   C1A56295   1.239   1.753   6.166
 4231POPC   D2A56296   1.228   1.768   6.608
 4231POPC   C3A56297   1.412   1.921   6.994
 4231POPC   C4A56298   1.289   1.958   7.456
 4231POPC   C1B56299   0.965   2.196   6.219
 4231POPC   C2B56300   1.082   2.244   6.658
 4231POPC   C3B56301   1.086   2.281   7.109
 4231POPC   C4B56302   1.433   2.457   7.333
 4232POPC   NC356303  37.359  26.882   5.585
 4232POPC   PO456304  36.749  26.826   5.357
 4232POPC   GL156305  36.614  26.902   5.763
 4232POPC   GL256306  36.632  27.284   5.718
 4232POPC   C1A56307  36.679  26.706   6.200
 4232POPC   D2A56308  36.658  26.447   6.607
 4232POPC   C3A56309  36.821  26.522   7.028
 4232POPC   C4A56310  37.210  26.757   7.142
 4232POPC   C1B56311  36.554  27.220   6.150
 4232POPC   C2B56312  36.470  27.030   6.551
 4232POPC   C3B56313  36.713  27.016   6.960
 4232POPC   C4B56314  36.860  26.975   7.424
 4233POPC   NC356315   0.595   4.781   5.521
 4233POPC   PO456316   0.608   5.406   5.340
 4233POPC   GL156317   0.434   5.262   5.758
 4233POPC   GL256318   0.221   4.943   5.838
 4233POPC   C1A56319   0.516   5.183   6.204
 4233POPC   D2A56320   0.683   5.423   6.547
 4233POPC   C3A56321   0.580   5.323   6.935
 4233POPC   C4A56322   0.692   5.061   7.266
 4233POPC   C1B56323   0.330   4.722   6.240
 4233POPC   C2B56324   0.470   4.900   6.654
 4233POPC   C3B56325   0.263   4.854   7.051
 4233POPC   C4B56326   0.290   4.867   7.515
 4234POPC   NC356327  30.912  25.658   5.448
 4234POPC   PO456328  30.657  25.064   5.344
 4234POPC   GL156329  30.645  25.235   5.748
 4234POPC   GL256330  30.976  25.270   5.754
 4234POPC   C1A56331  30.547  25.312   6.200
 4234POPC   D2A56332  30.370  25.118   6.581
 4234POPC   C3A56333  30.612  25.230   6.944
 4234POPC   C4A56334  30.511  25.415   7.364
 4234POPC   C1B56335  31.024  25.132   6.156
 4234POPC   C2B56336  30.981  25.263   6.550
 4234POPC   C3B56337  31.119  25.086   6.907
 4234POPC   C4B56338  31.012  25.281   7.255
 4235POPC   NC356339   3.758  40.334   5.332
 4235POPC   PO456340   3.504  39.743   5.434
 4235POPC   GL156341   3.788  39.983   5.728
 4235POPC   GL256342   3.744  40.348   5.842
 4235POPC   C1A56343   3.761  39.958   6.166
 4235POPC   D2A56344   3.474  39.888   6.506
 4235POPC   C3A56345   3.640  40.075   6.852
 4235POPC   C4A56346   3.524  40.181   7.230
 4235POPC   C1B56347   3.385  40.304   6.174
 4235POPC   C2B56348   3.378  40.464   6.619
 4235POPC   C3B56349   3.643  40.601   6.973
 4235POPC   C4B56350   4.012  40.446   7.178
 4236POPC   NC356351  19.496  11.938   5.348
 4236POPC   PO456352  19.964  12.390   5.169
 4236POPC   GL156353  19.951  12.214   5.627
 4236POPC   GL256354  19.793  11.902   5.776
 4236POPC   C1A56355  20.064  12.139   6.112
 4236POPC   D2A56356  19.791  12.061   6.512
 4236POPC   C3A56357  19.952  12.180   6.926
 4236POPC   C4A56358  19.786  12.534   7.168
 4236POPC   C1B56359  19.697  11.680   6.162
 4236POPC   C2B56360  19.685  11.460   6.578
 4236POPC   C3B56361  19.570  11.693   6.944
 4236POPC   C4B56362  19.472  12.086   7.190
 4237POPC   NC356363  33.816  28.120   5.375
 4237POPC   PO456364  34.172  28.679   5.641
 4237POPC   GL156365  33.955  28.328   5.812
 4237POPC   GL256366  33.661  28.490   5.761
 4237POPC   C1A56367  33.928  28.060   6.172
 4237POPC   D2A56368  33.976  28.348   6.556
 4237POPC   C3A56369  34.105  28.209   6.968
 4237POPC   C4A56370  33.793  27.960   7.168
 4237POPC   C1B56371  33.578  28.409   6.174
 4237POPC   C2B56372  33.526  28.581   6.560
 4237POPC   C3B56373  33.625  28.410   6.981
 4237POPC   C4B56374  33.339  28.150   7.283
 4238POPC   NC356375  32.220  27.400   5.383
 4238POPC   PO456376  32.667  27.912   5.477
 4238POPC   GL156377  32.511  27.677   5.828
 4238POPC   GL256378  32.160  27.614   5.843
 4238POPC   C1A56379  32.460  27.512   6.263
 4238POPC   D2A56380  32.220  27.377   6.654
 4238POPC   C3A56381  32.424  27.570   7.039
 4238POPC   C4A56382  32.465  27.733   7.476
 4238POPC   C1B56383  31.949  27.588   6.226
 4238POPC   C2B56384  31.802  27.734   6.601
 4238POPC   C3B56385  31.849  27.561   6.999
 4238POPC   C4B56386  32.046  27.482   7.376
 4239POPC   NC356387  17.646  41.578   5.367
 4239POPC   PO456388  17.012  41.875   5.387
 4239POPC   GL156389  17.121  41.681   5.822
 4239POPC   GL256390  17.397  41.414   5.800
 4239POPC   C1A56391  17.268  41.562   6.264
 4239POPC   D2A56392  17.633  41.728   6.506
 4239POPC   C3A56393  17.723  41.645   6.940
 4239POPC   C4A56394  17.354  41.598   7.213
 4239POPC   C1B56395  17.745  41.399   6.121
 4239POPC   C2B56396  17.823  41.253   6.568
 4239POPC   C3B56397  17.740  41.149   7.014
 4239POPC   C4B56398  17.790  41.378   7.406
 4240POPC   NC356399  24.700  14.170   5.432
 4240POPC   PO456400  24.157  14.572   5.491
 4240POPC   GL156401  24.323  14.310   5.789
 4240POPC   GL256402  24.635  14.505   5.827
 4240POPC   C1A56403  24.363  14.246   6.253
 4240POPC   D2A56404  24.377  14.511   6.656
 4240POPC   C3A56405  24.260  14.260   7.046
 4240POPC   C4A56406  24.284  14.090   7.495
 4240POPC   C1B56407  24.842  14.414   6.244
 4240POPC   C2B56408  24.846  14.309   6.689
 4240POPC   C3B56409  24.754  14.290   7.151
 4240POPC   C4B56410  24.814  14.199   7.622
 4241POPC   NC356411  36.985  35.997   5.298
 4241POPC   PO456412  36.726  35.466   5.319
 4241POPC   GL156413  36.750  35.444   5.767
 4241POPC   GL256414  37.093  35.508   5.797
 4241POPC   C1A56415  36.846  35.595   6.222
 4241POPC   D2A56416  36.918  35.782   6.643
 4241POPC   C3A56417  36.865  35.444   6.987
 4241POPC   C4A56418  36.737  34.992   7.018
 4241POPC   C1B56419  36.979  35.110   6.106
 4241POPC   C2B56420  37.014  34.915   6.563
 4241POPC   C3B56421  37.246  35.067   6.948
 4241POPC   C4B56422  37.339  35.144   7.406
 4242POPC   NC356423  15.402   1.320   5.611
 4242POPC   PO456424  16.028   1.224   5.312
 4242POPC   GL156425  15.914   1.190   5.738
 4242POPC   GL256426  15.718   0.914   5.649
 4242POPC   C1A56427  16.050   1.257   6.176
 4242POPC   D2A56428  16.143   1.345   6.606
 4242POPC   C3A56429  15.981   1.280   6.996
 4242POPC   C4A56430  16.204   1.089   7.331
 4242POPC   C1B56431  15.618   0.989   6.121
 4242POPC   C2B56432  15.643   1.179   6.544
 4242POPC   C3B56433  15.631   0.916   6.938
 4242POPC   C4B56434  15.712   1.039   7.382
 4243POPC   NC356435   9.240   0.416   5.385
 4243POPC   PO456436   9.598  44.873   5.402
 4243POPC   GL156437   9.570   0.186   5.801
 4243POPC   GL256438   9.294   0.446   5.887
 4243POPC   C1A56439   9.615   0.320   6.284
 4243POPC   D2A56440   9.689   0.502   6.691
 4243POPC   C3A56441   9.799   0.220   7.001
 4243POPC   C4A56442   9.720   0.195   7.432
 4243POPC   C1B56443   9.488   0.782   6.137
 4243POPC   C2B56444   9.596   0.982   6.534
 4243POPC   C3B56445   9.529   0.936   6.958
 4243POPC   C4B56446   9.719   0.684   7.239
 4244POPC   NC356447  41.740  40.214   5.168
 4244POPC   PO456448  41.107  40.432   5.392
 4244POPC   GL156449  41.320  40.292   5.776
 4244POPC   GL256450  41.029  40.140   5.887
 4244POPC   C1A56451  41.673  40.226   6.126
 4244POPC   D2A56452  41.868  39.939   6.474
 4244POPC   C3A56453  41.832  40.061   6.936
 4244POPC   C4A56454  41.662  39.827   7.311
 4244POPC   C1B56455  41.197  40.389   6.253
 4244POPC   C2B56456  41.414  40.280   6.627
 4244POPC   C3B56457  41.307  40.045   6.995
 4244POPC   C4B56458  41.382  40.260   7.384
 4245POPC   NC356459  33.201  11.874   5.323
 4245POPC   PO456460  33.010  12.396   5.196
 4245POPC   GL156461  33.117  12.361   5.642
 4245POPC   GL256462  32.924  12.058   5.750
 4245POPC   C1A56463  33.092  12.356   6.129
 4245POPC   D2A56464  32.779  12.236   6.481
 4245POPC   C3A56465  32.865  12.179   6.955
 4245POPC   C4A56466  32.980  12.143   7.408
 4245POPC   C1B56467  33.045  11.855   6.188
 4245POPC   C2B56468  33.181  11.926   6.641
 4245POPC   C3B56469  33.273  11.817   7.106
 4245POPC   C4B56470  33.177  11.615   7.528
 4246POPC   NC356471  17.287  21.200   5.628
 4246POPC   PO456472  17.015  21.786   5.489
 4246POPC   GL156473  17.234  21.650   5.896
 4246POPC   GL256474  17.592  21.495   5.927
 4246POPC   C1A56475  17.201  21.380   6.273
 4246POPC   D2A56476  17.351  21.184   6.658
 4246POPC   C3A56477  17.301  21.350   7.045
 4246POPC   C4A56478  17.253  21.136   7.433
 4246POPC   C1B56479  17.703  21.204   6.285
 4246POPC   C2B56480  17.848  21.109   6.733
 4246POPC   C3B56481  17.699  21.045   7.172
 4246POPC   C4B56482  17.503  20.703   7.453
 4247POPC   NC356483  21.951  11.556   5.390
 4247POPC   PO456484  22.492  11.133   5.384
 4247POPC   GL156485  22.351  11.460   5.722
 4247POPC   GL256486  22.052  11.283   5.834
 4247POPC   C1A56487  22.248  11.607   6.176
 4247POPC   D2A56488  22.453  11.674   6.570
 4247POPC   C3A56489  22.308  11.426   6.917
 4247POPC   C4A56490  22.079  11.526   7.258
 4247POPC   C1B56491  21.846  11.284   6.256
 4247POPC   C2B56492  21.855  11.498   6.650
 4247POPC   C3B56493  21.746  11.258   7.001
 4247POPC   C4B56494  21.739  11.059   7.407
 4248POPC   NC356495  26.892  41.377   5.374
 4248POPC   PO456496  27.215  41.994   5.205
 4248POPC   GL156497  27.141  41.647   5.696
 4248POPC   GL256498  26.936  41.385   5.881
 4248POPC   C1A56499  27.101  41.749   6.206
 4248POPC   D2A56500  26.844  41.794   6.605
 4248POPC   C3A56501  26.906  41.727   7.049
 4248POPC   C4A56502  26.497  41.766   7.249
 4248POPC   C1B56503  26.634  41.532   6.213
 4248POPC   C2B56504  26.426  41.348   6.541
 4248POPC   C3B56505  26.544  41.358   6.951
 4248POPC   C4B56506  26.750  41.291   7.350
 4249POPC   NC356507  11.408   0.719   5.324
 4249POPC   PO456508  10.914   0.687   5.773
 4249POPC   GL156509  11.132   0.317   5.881
 4249POPC   GL256510  11.400   0.118   5.689
 4249POPC   C1A56511  11.100   0.330   6.301
 4249POPC   D2A56512  11.082   0.602   6.631
 4249POPC   C3A56513  11.264   0.444   6.992
 4249POPC   C4A56514  11.115   0.119   7.287
 4249POPC   C1B56515  11.602   0.283   6.083
 4249POPC   C2B56516  11.574   0.336   6.556
 4249POPC   C3B56517  11.780   0.368   6.971
 4249POPC   C4B56518  11.725   0.130   7.363
 4250POPC   NC356519   0.478  14.952   5.608
 4250POPC   PO456520   0.248  14.289   5.430
 4250POPC   GL156521   0.215  14.553   5.787
 4250POPC   GL256522   0.573  14.488   5.808
 4250POPC   C1A56523   0.281  14.563   6.245
 4250POPC   D2A56524   0.373  14.271   6.589
 4250POPC   C3A56525   0.258  14.365   6.996
 4250POPC   C4A56526   0.531  14.249   7.317
 4250POPC   C1B56527   0.655  14.212   6.147
 4250POPC   C2B56528   0.855  14.449   6.484
 4250POPC   C3B56529   0.786  14.501   6.912
 4250POPC   C4B56530   0.586  14.751   7.180
 4251POPC   NC356531  10.228  14.731   5.456
 4251POPC   PO456532   9.561  14.522   5.406
 4251POPC   GL156533   9.663  14.392   5.816
 4251POPC   GL256534   9.970  14.217   5.773
 4251POPC   C1A56535   9.718  14.453   6.263
 4251POPC   D2A56536   9.602  14.276   6.653
 4251POPC   C3A56537   9.668  14.553   7.008
 4251POPC   C4A56538   9.367  14.727   7.291
 4251POPC   C1B56539  10.213  14.334   6.134
 4251POPC   C2B56540  10.180  14.577   6.508
 4251POPC   C3B56541  10.220  14.495   6.943
 4251POPC   C4B56542  10.047  14.442   7.329
 4252POPC   NC356543  25.459  16.024   5.383
 4252POPC   PO456544  24.783  16.091   5.381
 4252POPC   GL156545  24.912  15.860   5.737
 4252POPC   GL256546  25.187  15.623   5.652
 4252POPC   C1A56547  25.028  16.025   6.161
 4252POPC   D2A56548  25.392  16.126   6.410
 4252POPC   C3A56549  25.284  16.028   6.837
 4252POPC   C4A56550  25.365  16.057   7.270
 4252POPC   C1B56551  25.419  15.723   6.018
 4252POPC   C2B56552  25.436  15.620   6.451
 4252POPC   C3B56553  25.094  15.558   6.718
 4252POPC   C4B56554  25.088  15.632   7.161
 4253POPC   NC356555   0.829  38.868   5.575
 4253POPC   PO456556   0.316  39.376   5.414
 4253POPC   GL156557   0.535  39.277   5.784
 4253POPC   GL256558   0.337  39.058   5.921
 4253POPC   C1A56559   0.620  39.336   6.241
 4253POPC   D2A56560   0.722  39.149   6.637
 4253POPC   C3A56561   0.517  39.277   7.009
 4253POPC   C4A56562   0.272  39.549   7.277
 4253POPC   C1B56563   0.126  38.766   6.173
 4253POPC   C2B56564   0.226  38.677   6.580
 4253POPC   C3B56565   0.076  38.827   6.965
 4253POPC   C4B56566   0.216  39.011   7.301
 4254POPC   NC356567  13.086  16.732   5.332
 4254POPC   PO456568  12.435  16.777   5.402
 4254POPC   GL156569  12.758  16.792   5.739
 4254POPC   GL256570  12.783  16.474   5.786
 4254POPC   C1A56571  12.942  16.784   6.181
 4254POPC   D2A56572  12.940  17.094   6.538
 4254POPC   C3A56573  12.910  16.937   6.976
 4254POPC   C4A56574  13.147  16.702   7.281
 4254POPC   C1B56575  12.622  16.323   6.203
 4254POPC   C2B56576  12.827  16.441   6.616
 4254POPC   C3B56577  12.750  16.439   7.074
 4254POPC   C4B56578  12.599  16.202   7.451
 4255POPC   NC356579   9.413  31.917   5.483
 4255POPC   PO456580   9.659  32.530   5.339
 4255POPC   GL156581   9.715  32.303   5.761
 4255POPC   GL256582   9.482  32.085   5.965
 4255POPC   C1A56583   9.861  32.475   6.153
 4255POPC   D2A56584   9.975  32.349   6.586
 4255POPC   C3A56585   9.766  32.397   6.987
 4255POPC   C4A56586   9.755  32.207   7.438
 4255POPC   C1B56587   9.482  32.209   6.374
 4255POPC   C2B56588   9.272  32.360   6.720
 4255POPC   C3B56589   9.318  32.185   7.105
 4255POPC   C4B56590   9.584  31.820   7.135
 4256POPC   NC356591  26.851   9.188   5.623
 4256POPC   PO456592  26.515   8.627   5.602
 4256POPC   GL156593  26.671   8.802   5.968
 4256POPC   GL256594  26.983   8.839   5.949
 4256POPC   C1A56595  26.719   9.132   6.294
 4256POPC   D2A56596  26.913   8.921   6.630
 4256POPC   C3A56597  26.858   8.960   7.080
 4256POPC   C4A56598  26.773   9.363   7.271
 4256POPC   C1B56599  27.218   9.117   6.221
 4256POPC   C2B56600  27.123   9.419   6.496
 4256POPC   C3B56601  27.201   9.266   6.880
 4256POPC   C4B56602  27.287   9.257   7.292
 4257POPC   NC356603  20.322  29.020   5.403
 4257POPC   PO456604  20.885  28.792   5.276
 4257POPC   GL156605  20.707  29.112   5.731
 4257POPC   GL256606  20.431  29.380   5.831
 4257POPC   C1A56607  20.872  29.363   6.125
 4257POPC   D2A56608  20.903  29.479   6.613
 4257POPC   C3A56609  20.730  29.183   6.971
 4257POPC   C4A56610  20.596  29.242   7.415
 4257POPC   C1B56611  20.396  29.600   6.265
 4257POPC   C2B56612  20.409  29.637   6.750
 4257POPC   C3B56613  20.262  29.583   7.179
 4257POPC   C4B56614  20.067  29.318   7.514
 4258POPC   NC356615  43.983  11.518   5.405
 4258POPC   PO456616  44.108  10.868   5.333
 4258POPC   GL156617  43.955  11.064   5.753
 4258POPC   GL256618  43.655  11.315   5.754
 4258POPC   C1A56619  43.799  10.988   6.199
 4258POPC   D2A56620  43.560  10.932   6.595
 4258POPC   C3A56621  43.791  10.997   6.993
 4258POPC   C4A56622  44.093  11.164   7.310
 4258POPC   C1B56623  43.864  11.486   6.127
 4258POPC   C2B56624  43.936  11.355   6.566
 4258POPC   C3B56625  43.943  11.530   6.975
 4258POPC   C4B56626  43.658  11.417   7.299
 4259POPC   NC356627  43.753  22.520   5.375
 4259POPC   PO456628  44.168  22.030   5.326
 4259POPC   GL156629  44.098  22.006   5.760
 4259POPC   GL256630  43.752  22.074   5.843
 4259POPC   C1A56631  44.138  22.205   6.176
 4259POPC   D2A56632  43.914  22.186   6.586
 4259POPC   C3A56633  44.060  22.335   6.964
 4259POPC   C4A56634  43.837  22.535   7.322
 4259POPC   C1B56635  43.816  21.836   6.235
 4259POPC   C2B56636  44.137  21.719   6.544
 4259POPC   C3B56637  43.996  21.818   6.963
 4259POPC   C4B56638  43.660  22.066   7.165
 4260POPC   NC356639   2.809   5.049   5.374
 4260POPC   PO456640   2.305   5.371   5.654
 4260POPC   GL156641   2.574   5.089   5.824
 4260POPC   GL256642   2.805   5.317   5.881
 4260POPC   C1A56643   2.756   4.884   6.165
 4260POPC   D2A56644   2.946   5.038   6.542
 4260POPC   C3A56645   2.791   4.845   6.889
 4260POPC   C4A56646   2.867   4.908   7.296
 4260POPC   C1B56647   2.644   5.589   6.220
 4260POPC   C2B56648   2.756   5.536   6.645
 4260POPC   C3B56649   2.872   5.376   7.054
 4260POPC   C4B56650   2.765   5.380   7.489
 4261POPC   NC356651  31.663  15.810   5.430
 4261POPC   PO456652  31.346  16.445   5.399
 4261POPC   GL156653  31.207  16.150   5.763
 4261POPC   GL256654  31.280  15.805   5.800
 4261POPC   C1A56655  31.309  16.085   6.224
 4261POPC   D2A56656  31.192  16.192   6.613
 4261POPC   C3A56657  31.351  15.895   6.927
 4261POPC   C4A56658  31.139  15.670   7.266
 4261POPC   C1B56659  31.663  15.746   6.083
 4261POPC   C2B56660  31.747  15.890   6.511
 4261POPC   C3B56661  31.835  15.679   6.909
 4261POPC   C4B56662  31.653  15.677   7.305
 4262POPC   NC356663  23.660  41.231   5.394
 4262POPC   PO456664  23.405  40.541   5.320
 4262POPC   GL156665  23.597  40.630   5.721
 4262POPC   GL256666  23.374  40.418   5.876
 4262POPC   C1A56667  23.836  40.813   6.083
 4262POPC   D2A56668  23.913  40.980   6.508
 4262POPC   C3A56669  23.903  40.722   6.895
 4262POPC   C4A56670  23.702  40.925   7.221
 4262POPC   C1B56671  23.371  40.678   6.254
 4262POPC   C2B56672  23.431  40.773   6.676
 4262POPC   C3B56673  23.333  40.595   7.058
 4262POPC   C4B56674  23.610  40.408   7.333
 4263POPC   NC356675   3.133  10.022   5.400
 4263POPC   PO456676   3.681   9.546   5.253
 4263POPC   GL156677   3.629   9.604   5.742
 4263POPC   GL256678   3.372   9.819   5.808
 4263POPC   C1A56679   3.754   9.911   6.136
 4263POPC   D2A56680   4.082   9.931   6.511
 4263POPC   C3A56681   3.930   9.815   6.945
 4263POPC   C4A56682   3.643   9.553   7.218
 4263POPC   C1B56683   3.404   9.527   6.190
 4263POPC   C2B56684   3.406   9.649   6.653
 4263POPC   C3B56685   3.462   9.998   6.975
 4263POPC   C4B56686   3.576  10.053   7.422
 4264POPC   NC356687   1.746  40.184   5.326
 4264POPC   PO456688   2.305  40.404   5.398
 4264POPC   GL156689   2.063  40.170   5.733
 4264POPC   GL256690   2.203  39.857   5.854
 4264POPC   C1A56691   1.799  40.054   6.114
 4264POPC   D2A56692   1.949  39.859   6.474
 4264POPC   C3A56693   1.779  39.908   6.877
 4264POPC   C4A56694   1.858  40.091   7.275
 4264POPC   C1B56695   2.273  40.200   6.190
 4264POPC   C2B56696   2.486  40.201   6.570
 4264POPC   C3B56697   2.256  40.083   6.910
 4264POPC   C4B56698   2.297  40.346   7.261
 4265POPC   NC356699   7.232  19.903   5.547
 4265POPC   PO456700   7.747  19.616   5.280
 4265POPC   GL156701   7.561  19.554   5.746
 4265POPC   GL256702   7.499  19.865   5.976
 4265POPC   C1A56703   7.346  19.418   6.160
 4265POPC   D2A56704   7.107  19.614   6.484
 4265POPC   C3A56705   7.277  19.719   6.863
 4265POPC   C4A56706   7.442  19.586   7.202
 4265POPC   C1B56707   7.404  20.204   6.268
 4265POPC   C2B56708   7.265  20.192   6.687
 4265POPC   C3B56709   7.252  20.188   7.113
 4265POPC   C4B56710   7.393  20.016   7.475
 4266POPC   NC356711  12.321  21.800   5.380
 4266POPC   PO456712  12.940  22.143   5.387
 4266POPC   GL156713  12.740  22.151   5.763
 4266POPC   GL256714  12.659  21.812   5.751
 4266POPC   C1A56715  12.852  22.305   6.170
 4266POPC   D2A56716  12.785  22.526   6.555
 4266POPC   C3A56717  12.835  22.263   6.918
 4266POPC   C4A56718  12.765  22.363   7.375
 4266POPC   C1B56719  12.503  21.888   6.160
 4266POPC   C2B56720  12.467  22.111   6.566
 4266POPC   C3B56721  12.431  21.969   6.970
 4266POPC   C4B56722  12.680  21.859   7.331
 4267POPC   NC356723  26.443  21.580   4.939
 4267POPC   PO456724  26.067  21.075   5.294
 4267POPC   GL156725  25.963  21.240   5.675
 4267POPC   GL256726  26.201  21.050   5.826
 4267POPC   C1A56727  26.068  21.492   6.035
 4267POPC   D2A56728  26.227  21.516   6.430
 4267POPC   C3A56729  25.974  21.560   6.776
 4267POPC   C4A56730  26.080  21.499   7.176
 4267POPC   C1B56731  25.963  21.011   6.206
 4267POPC   C2B56732  26.041  21.055   6.661
 4267POPC   C3B56733  26.185  21.019   7.097
 4267POPC   C4B56734  26.159  21.129   7.536
 4268POPC   NC356735  32.032  20.935   4.910
 4268POPC   PO456736  31.887  21.538   5.301
 4268POPC   GL156737  32.067  21.414   5.730
 4268POPC   GL256738  32.448  21.314   5.758
 4268POPC   C1A56739  32.144  21.277   6.183
 4268POPC   D2A56740  32.219  21.539   6.536
 4268POPC   C3A56741  32.172  21.362   6.922
 4268POPC   C4A56742  31.974  21.299   7.310
 4268POPC   C1B56743  32.580  21.538   6.151
 4268POPC   C2B56744  32.659  21.779   6.567
 4268POPC   C3B56745  32.614  21.618   7.021
 4268POPC   C4B56746  32.480  21.373   7.394
 4269POPC   NC356747  10.723  44.095   5.376
 4269POPC   PO456748  10.310  43.531   5.333
 4269POPC   GL156749  10.415  43.769   5.732
 4269POPC   GL256750  10.755  43.781   5.785
 4269POPC   C1A56751  10.379  43.950   6.173
 4269POPC   D2A56752  10.207  44.115   6.576
 4269POPC   C3A56753  10.368  43.917   6.950
 4269POPC   C4A56754  10.470  44.073   7.378
 4269POPC   C1B56755  10.914  43.806   6.188
 4269POPC   C2B56756  10.759  43.734   6.586
 4269POPC   C3B56757  10.902  43.870   6.958
 4269POPC   C4B56758  10.802  43.707   7.323
 4270POPC   NC356759  37.589  25.918   5.449
 4270POPC   PO456760  37.207  26.443   5.578
 4270POPC   GL156761  37.406  26.133   5.884
 4270POPC   GL256762  37.337  25.763   5.877
 4270POPC   C1A56763  37.756  25.987   6.176
 4270POPC   D2A56764  37.924  25.985   6.623
 4270POPC   C3A56765  37.739  26.295   6.919
 4270POPC   C4A56766  37.731  26.214   7.353
 4270POPC   C1B56767  37.266  25.865   6.302
 4270POPC   C2B56768  37.393  25.910   6.715
 4270POPC   C3B56769  37.619  25.806   7.044
 4270POPC   C4B56770  37.408  25.799   7.415
 4271POPC   NC356771   5.534  13.679   5.492
 4271POPC   PO456772   6.220  13.831   5.370
 4271POPC   GL156773   5.959  13.869   5.751
 4271POPC   GL256774   5.959  13.494   5.820
 4271POPC   C1A56775   5.783  13.811   6.191
 4271POPC   D2A56776   5.894  13.600   6.576
 4271POPC   C3A56777   5.724  13.709   6.944
 4271POPC   C4A56778   5.821  14.036   7.248
 4271POPC   C1B56779   6.219  13.458   6.220
 4271POPC   C2B56780   6.290  13.270   6.632
 4271POPC   C3B56781   6.022  13.261   7.001
 4271POPC   C4B56782   6.008  13.557   7.349
 4272POPC   NC356783  37.906  20.721   5.547
 4272POPC   PO456784  37.473  21.071   5.075
 4272POPC   GL156785  37.656  21.213   5.576
 4272POPC   GL256786  37.416  21.424   5.799
 4272POPC   C1A56787  37.767  21.267   6.102
 4272POPC   D2A56788  37.855  21.551   6.496
 4272POPC   C3A56789  37.817  21.383   6.946
 4272POPC   C4A56790  37.571  21.250   7.317
 4272POPC   C1B56791  37.448  21.675   6.209
 4272POPC   C2B56792  37.397  21.774   6.675
 4272POPC   C3B56793  37.223  21.545   7.060
 4272POPC   C4B56794  37.228  21.593   7.524
 4273POPC   NC356795  29.517  10.664   5.463
 4273POPC   PO456796  30.199  10.514   5.321
 4273POPC   GL156797  30.039  10.341   5.732
 4273POPC   GL256798  29.687  10.305   5.807
 4273POPC   C1A56799  30.088  10.440   6.182
 4273POPC   D2A56800  30.024  10.791   6.493
 4273POPC   C3A56801  29.960  10.611   6.898
 4273POPC   C4A56802  29.956  10.674   7.349
 4273POPC   C1B56803  29.586  10.552   6.219
 4273POPC   C2B56804  29.485  10.560   6.710
 4273POPC   C3B56805  29.589  10.375   7.146
 4273POPC   C4B56806  29.724  10.289   7.593
 4274POPC   NC356807  35.101  23.019   5.347
 4274POPC   PO456808  35.572  22.607   5.241
 4274POPC   GL156809  35.498  22.804   5.663
 4274POPC   GL256810  35.700  23.114   5.794
 4274POPC   C1A56811  35.386  22.849   6.117
 4274POPC   D2A56812  35.622  22.893   6.498
 4274POPC   C3A56813  35.525  22.980   6.920
 4274POPC   C4A56814  35.607  22.797   7.320
 4274POPC   C1B56815  35.552  23.329   6.212
 4274POPC   C2B56816  35.226  23.228   6.563
 4274POPC   C3B56817  35.089  23.241   7.021
 4274POPC   C4B56818  35.372  23.237   7.383
 4275POPC   NC356819  38.005  22.047   5.495
 4275POPC   PO456820  38.653  21.896   5.563
 4275POPC   GL156821  38.370  22.076   5.893
 4275POPC   GL256822  38.113  22.382   5.858
 4275POPC   C1A56823  38.562  22.066   6.308
 4275POPC   D2A56824  38.795  21.995   6.689
 4275POPC   C3A56825  38.645  22.127   7.102
 4275POPC   C4A56826  38.775  22.145   7.522
 4275POPC   C1B56827  38.225  22.447   6.300
 4275POPC   C2B56828  38.291  22.266   6.735
 4275POPC   C3B56829  38.171  22.324   7.182
 4275POPC   C4B56830  38.415  22.494   7.563
 4276POPC   NC356831   1.958  36.802   5.217
 4276POPC   PO456832   1.276  36.877   5.129
 4276POPC   GL156833   1.157  36.949   5.666
 4276POPC   GL256834   1.422  37.140   5.877
 4276POPC   C1A56835   1.243  36.692   6.091
 4276POPC   D2A56836   0.975  36.421   6.392
 4276POPC   C3A56837   1.121  36.507   6.838
 4276POPC   C4A56838   0.994  36.615   7.291
 4276POPC   C1B56839   1.644  37.158   6.277
 4276POPC   C2B56840   1.545  37.324   6.697
 4276POPC   C3B56841   1.246  37.146   7.022
 4276POPC   C4B56842   1.306  37.019   7.445
 4277POPC   NC356843  35.948  28.880   5.345
 4277POPC   PO456844  36.550  29.050   5.294
 4277POPC   GL156845  36.270  29.128   5.670
 4277POPC   GL256846  35.996  29.371   5.573
 4277POPC   C1A56847  36.030  28.930   6.024
 4277POPC   D2A56848  35.909  28.763   6.435
 4277POPC   C3A56849  35.807  28.940   6.833
 4277POPC   C4A56850  35.964  29.039   7.223
 4277POPC   C1B56851  35.795  29.381   5.995
 4277POPC   C2B56852  35.815  29.335   6.453
 4277POPC   C3B56853  35.870  29.446   6.895
 4277POPC   C4B56854  35.665  29.510   7.266
 4278POPC   NC356855   2.579  41.806   5.649
 4278POPC   PO456856   2.688  41.172   5.443
 4278POPC   GL156857   2.772  41.318   5.811
 4278POPC   GL256858   3.072  41.129   5.844
 4278POPC   C1A56859   2.546  41.406   6.199
 4278POPC   D2A56860   2.378  41.610   6.585
 4278POPC   C3A56861   2.516  41.537   7.019
 4278POPC   C4A56862   2.673  41.602   7.448
 4278POPC   C1B56863   3.095  41.284   6.219
 4278POPC   C2B56864   2.851  41.298   6.578
 4278POPC   C3B56865   2.751  41.089   6.910
 4278POPC   C4B56866   2.886  41.137   7.305
 4279POPC   NC356867  15.039  38.881   5.181
 4279POPC   PO456868  15.358  38.232   5.409
 4279POPC   GL156869  15.188  38.462   5.796
 4279POPC   GL256870  15.404  38.725   5.919
 4279POPC   C1A56871  15.264  38.389   6.252
 4279POPC   D2A56872  15.047  38.438   6.620
 4279POPC   C3A56873  15.244  38.367   7.020
 4279POPC   C4A56874  15.067  38.313   7.449
 4279POPC   C1B56875  15.416  38.890   6.322
 4279POPC   C2B56876  15.331  38.859   6.747
 4279POPC   C3B56877  15.570  38.759   7.086
 4279POPC   C4B56878  15.411  38.692   7.488
 4280POPC   NC356879   6.960  22.295   5.347
 4280POPC   PO456880   7.384  21.923   5.436
 4280POPC   GL156881   7.187  22.050   5.790
 4280POPC   GL256882   7.317  22.377   5.846
 4280POPC   C1A56883   7.246  22.016   6.218
 4280POPC   D2A56884   7.447  22.200   6.550
 4280POPC   C3A56885   7.368  22.036   6.943
 4280POPC   C4A56886   7.053  21.981   7.230
 4280POPC   C1B56887   7.727  22.304   6.078
 4280POPC   C2B56888   7.897  22.417   6.502
 4280POPC   C3B56889   7.793  22.327   6.957
 4280POPC   C4B56890   7.730  22.290   7.406
 4281POPC   NC356891  26.316  15.819   5.385
 4281POPC   PO456892  25.645  15.585   5.342
 4281POPC   GL156893  25.843  15.762   5.695
 4281POPC   GL256894  26.140  15.614   5.806
 4281POPC   C1A56895  25.888  15.940   6.119
 4281POPC   D2A56896  25.903  16.209   6.480
 4281POPC   C3A56897  25.789  15.983   6.855
 4281POPC   C4A56898  25.864  16.186   7.255
 4281POPC   C1B56899  26.282  15.548   6.212
 4281POPC   C2B56900  26.147  15.755   6.545
 4281POPC   C3B56901  26.320  16.027   6.827
 4281POPC   C4B56902  26.170  15.777   7.125
 4282POPC   NC356903  30.926  26.917   5.461
 4282POPC   PO456904  30.388  27.240   5.561
 4282POPC   GL156905  30.575  26.968   5.908
 4282POPC   GL256906  30.621  26.586   5.829
 4282POPC   C1A56907  30.404  26.737   6.312
 4282POPC   D2A56908  30.346  26.716   6.765
 4282POPC   C3A56909  30.627  26.932   7.063
 4282POPC   C4A56910  30.645  26.775   7.476
 4282POPC   C1B56911  30.904  26.680   6.193
 4282POPC   C2B56912  30.903  26.846   6.639
 4282POPC   C3B56913  31.028  26.628   7.075
 4282POPC   C4B56914  31.094  26.594   7.576
 4283POPC   NC356915  22.442   4.504   5.499
 4283POPC   PO456916  22.123   4.039   5.175
 4283POPC   GL156917  22.106   4.119   5.671
 4283POPC   GL256918  22.412   4.107   5.935
 4283POPC   C1A56919  22.003   4.278   6.131
 4283POPC   D2A56920  22.261   4.229   6.543
 4283POPC   C3A56921  22.107   4.282   6.972
 4283POPC   C4A56922  22.281   4.226   7.383
 4283POPC   C1B56923  22.463   4.537   6.184
 4283POPC   C2B56924  22.383   4.726   6.630
 4283POPC   C3B56925  22.523   4.575   7.074
 4283POPC   C4B56926  22.557   4.631   7.545
 4284POPC   NC356927  29.356  39.694   5.499
 4284POPC   PO456928  29.019  40.312   5.444
 4284POPC   GL156929  29.160  40.102   5.810
 4284POPC   GL256930  29.019  39.775   5.889
 4284POPC   C1A56931  29.379  39.997   6.193
 4284POPC   D2A56932  29.616  40.155   6.553
 4284POPC   C3A56933  29.345  40.289   6.890
 4284POPC   C4A56934  29.179  40.061   7.246
 4284POPC   C1B56935  28.867  39.936   6.264
 4284POPC   C2B56936  28.926  40.038   6.692
 4284POPC   C3B56937  28.756  39.804   7.022
 4284POPC   C4B56938  28.839  39.754   7.453
 4285POPC   NC356939  44.922  28.429   5.252
 4285POPC   PO456940  44.589  28.807   5.699
 4285POPC   GL156941  44.787  28.559   5.954
 4285POPC   GL256942  44.904  28.241   5.763
 4285POPC   C1A56943  44.509  28.471   6.330
 4285POPC   D2A56944  44.229  28.424   6.703
 4285POPC   C3A56945  44.392  28.561   7.106
 4285POPC   C4A56946  44.335  28.925   7.358
 4285POPC   C1B56947  44.920  28.170   6.235
 4285POPC   C2B56948  44.936  28.476   6.609
 4285POPC   C3B56949   0.089  28.439   7.035
 4285POPC   C4B56950   0.030  28.214   7.420
 4286POPC   NC356951  22.830  37.024   5.094
 4286POPC   PO456952  22.812  36.521   5.498
 4286POPC   GL156953  22.816  36.683   5.869
 4286POPC   GL256954  22.810  37.005   5.795
 4286POPC   C1A56955  23.026  36.772   6.244
 4286POPC   D2A56956  22.910  36.711   6.664
 4286POPC   C3A56957  23.115  36.860   7.008
 4286POPC   C4A56958  23.281  36.851   7.406
 4286POPC   C1B56959  22.572  37.025   6.184
 4286POPC   C2B56960  22.697  37.180   6.576
 4286POPC   C3B56961  22.600  37.091   6.993
 4286POPC   C4B56962  22.778  36.973   7.406
 4287POPC   NC356963   2.614   6.644   5.247
 4287POPC   PO456964   3.064   7.087   5.417
 4287POPC   GL156965   2.828   6.788   5.729
 4287POPC   GL256966   2.994   6.464   5.725
 4287POPC   C1A56967   2.700   6.612   6.162
 4287POPC   D2A56968   2.636   6.660   6.622
 4287POPC   C3A56969   2.584   6.374   6.954
 4287POPC   C4A56970   2.588   6.498   7.366
 4287POPC   C1B56971   3.168   6.397   6.140
 4287POPC   C2B56972   3.133   6.607   6.490
 4287POPC   C3B56973   3.083   6.553   6.942
 4287POPC   C4B56974   3.044   6.258   7.283
 4288POPC   NC356975  35.476  28.021   5.541
 4288POPC   PO456976  35.318  27.390   5.307
 4288POPC   GL156977  35.498  27.478   5.696
 4288POPC   GL256978  35.676  27.176   5.676
 4288POPC   C1A56979  35.323  27.558   6.132
 4288POPC   D2A56980  35.064  27.454   6.506
 4288POPC   C3A56981  35.167  27.696   6.840
 4288POPC   C4A56982  35.400  27.632   7.197
 4288POPC   C1B56983  35.411  27.064   6.007
 4288POPC   C2B56984  35.415  27.114   6.419
 4288POPC   C3B56985  35.423  27.242   6.843
 4288POPC   C4B56986  35.647  27.180   7.240
 4289POPC   NC356987  29.917   9.369   5.287
 4289POPC   PO456988  29.485   8.915   5.315
 4289POPC   GL156989  29.641   9.036   5.723
 4289POPC   GL256990  29.987   9.036   5.728
 4289POPC   C1A56991  29.574   9.001   6.189
 4289POPC   D2A56992  29.532   8.949   6.660
 4289POPC   C3A56993  29.802   9.029   7.044
 4289POPC   C4A56994  29.955   8.676   7.287
 4289POPC   C1B56995  30.039   9.218   6.139
 4289POPC   C2B56996  30.016   9.143   6.566
 4289POPC   C3B56997  30.275   9.137   6.903
 4289POPC   C4B56998  30.346   9.012   7.295
 4290POPC   NC356999  32.023  34.839   5.457
 4290POPC   PO457000  32.665  34.747   5.627
 4290POPC   GL157001  32.360  34.601   5.892
 4290POPC   GL257002  32.285  34.251   5.802
 4290POPC   C1A57003  32.470  34.541   6.331
 4290POPC   D2A57004  32.581  34.725   6.737
 4290POPC   C3A57005  32.333  34.567   7.096
 4290POPC   C4A57006  31.866  34.574   7.115
 4290POPC   C1B57007  32.222  34.112   6.234
 4290POPC   C2B57008  32.159  34.264   6.683
 4290POPC   C3B57009  32.073  34.099   7.109
 4290POPC   C4B57010  31.943  34.066   7.578
 4291POPC   NC357011   8.598  42.362   5.447
 4291POPC   PO457012   7.859  42.256   5.354
 4291POPC   GL157013   8.053  42.165   5.785
 4291POPC   GL257014   8.387  42.159   5.865
 4291POPC   C1A57015   8.064  42.189   6.263
 4291POPC   D2A57016   7.825  42.508   6.490
 4291POPC   C3A57017   8.023  42.503   6.881
 4291POPC   C4A57018   8.269  42.166   7.090
 4291POPC   C1B57019   8.463  42.490   6.123
 4291POPC   C2B57020   8.513  42.519   6.563
 4291POPC   C3B57021   8.495  42.648   6.985
 4291POPC   C4B57022   8.241  42.586   7.349
 4292POPC   NC357023  30.171  18.576   5.419
 4292POPC   PO457024  29.750  18.102   5.473
 4292POPC   GL157025  29.847  18.331   5.814
 4292POPC   GL257026  30.156  18.244   5.817
 4292POPC   C1A57027  29.885  18.284   6.268
 4292POPC   D2A57028  29.878  18.011   6.625
 4292POPC   C3A57029  29.912  18.244   7.013
 4292POPC   C4A57030  29.805  18.568   7.336
 4292POPC   C1B57031  30.120  18.686   6.059
 4292POPC   C2B57032  30.017  18.759   6.511
 4292POPC   C3B57033  30.200  18.712   6.935
 4292POPC   C4B57034  30.323  18.438   7.239
 4293POPC   NC357035   9.666  28.719   5.545
 4293POPC   PO457036   9.686  29.396   5.480
 4293POPC   GL157037   9.551  29.158   5.817
 4293POPC   GL257038   9.888  29.148   5.933
 4293POPC   C1A57039   9.467  28.942   6.259
 4293POPC   D2A57040   9.593  28.873   6.699
 4293POPC   C3A57041   9.740  29.173   7.017
 4293POPC   C4A57042   9.837  29.385   7.378
 4293POPC   C1B57043  10.079  29.457   6.274
 4293POPC   C2B57044   9.902  29.588   6.696
 4293POPC   C3B57045  10.139  29.679   7.076
 4293POPC   C4B57046  10.102  29.782   7.546
 4294POPC   NC357047  31.852   5.787   5.453
 4294POPC   PO457048  31.262   5.656   5.551
 4294POPC   GL157049  31.456   5.688   5.927
 4294POPC   GL257050  31.660   5.416   5.827
 4294POPC   C1A57051  31.263   5.833   6.326
 4294POPC   D2A57052  31.226   6.150   6.659
 4294POPC   C3A57053  31.406   6.136   7.058
 4294POPC   C4A57054  31.615   6.414   7.346
 4294POPC   C1B57055  31.826   5.481   6.249
 4294POPC   C2B57056  31.657   5.657   6.605
 4294POPC   C3B57057  31.573   5.648   7.010
 4294POPC   C4B57058  31.159   5.722   7.186
 4295POPC   NC357059  20.996  38.476   5.527
 4295POPC   PO457060  21.523  38.833   5.602
 4295POPC   GL157061  21.339  38.590   5.897
 4295POPC   GL257062  21.393  38.252   5.924
 4295POPC   C1A57063  21.134  38.671   6.288
 4295POPC   D2A57064  21.117  38.490   6.713
 4295POPC   C3A57065  21.238  38.711   7.116
 4295POPC   C4A57066  21.230  38.509   7.569
 4295POPC   C1B57067  21.628  38.474   6.303
 4295POPC   C2B57068  21.616  38.554   6.770
 4295POPC   C3B57069  21.483  38.251   7.096
 4295POPC   C4B57070  21.733  38.105   7.453
 4296POPC   NC357071  38.941   5.846   5.195
 4296POPC   PO457072  38.342   5.697   5.303
 4296POPC   GL157073  38.522   5.829   5.683
 4296POPC   GL257074  38.274   6.047   5.836
 4296POPC   C1A57075  38.609   5.648   6.098
 4296POPC   D2A57076  38.402   5.448   6.487
 4296POPC   C3A57077  38.423   5.696   6.902
 4296POPC   C4A57078  38.536   5.785   7.354
 4296POPC   C1B57079  38.424   6.093   6.276
 4296POPC   C2B57080  38.414   6.171   6.718
 4296POPC   C3B57081  38.252   6.170   7.133
 4296POPC   C4B57082  38.236   6.145   7.575
 4297POPC   NC357083   1.855  25.799   5.335
 4297POPC   PO457084   2.069  26.536   5.393
 4297POPC   GL157085   1.996  26.262   5.756
 4297POPC   GL257086   2.081  25.907   5.767
 4297POPC   C1A57087   1.979  26.134   6.197
 4297POPC   D2A57088   1.815  26.308   6.558
 4297POPC   C3A57089   1.983  26.264   6.928
 4297POPC   C4A57090   1.768  26.137   7.252
 4297POPC   C1B57091   2.268  25.677   6.110
 4297POPC   C2B57092   2.399  25.757   6.516
 4297POPC   C3B57093   2.339  25.904   6.914
 4297POPC   C4B57094   2.334  25.709   7.278
 4298POPC   NC357095  22.130   8.605   5.303
 4298POPC   PO457096  22.091   9.259   5.345
 4298POPC   GL157097  22.311   8.961   5.650
 4298POPC   GL257098  22.011   8.786   5.792
 4298POPC   C1A57099  22.456   9.059   6.125
 4298POPC   D2A57100  22.331   8.958   6.629
 4298POPC   C3A57101  22.405   9.191   7.047
 4298POPC   C4A57102  22.166   8.948   7.389
 4298POPC   C1B57103  21.973   8.952   6.218
 4298POPC   C2B57104  21.910   9.250   6.561
 4298POPC   C3B57105  21.908   9.186   6.987
 4298POPC   C4B57106  21.946   9.400   7.377
 4299POPC   NC357107  31.758  16.625   5.261
 4299POPC   PO457108  31.305  16.933   5.706
 4299POPC   GL157109  31.356  16.554   6.023
 4299POPC   GL257110  31.687  16.283   5.956
 4299POPC   C1A57111  31.544  16.513   6.427
 4299POPC   D2A57112  31.656  16.304   6.796
 4299POPC   C3A57113  31.304  16.471   7.025
 4299POPC   C4A57114  31.158  16.888   7.154
 4299POPC   C1B57115  32.011  16.485   6.266
 4299POPC   C2B57116  32.011  16.772   6.602
 4299POPC   C3B57117  31.744  16.777   6.959
 4299POPC   C4B57118  31.726  16.463   7.284
 4300POPC   NC357119  25.093  25.329   5.302
 4300POPC   PO457120  25.526  24.878   5.381
 4300POPC   GL157121  25.330  24.893   5.783
 4300POPC   GL257122  25.003  25.072   5.768
 4300POPC   C1A57123  25.498  25.031   6.195
 4300POPC   D2A57124  25.701  25.249   6.553
 4300POPC   C3A57125  25.499  25.237   6.949
 4300POPC   C4A57126  25.570  25.482   7.315
 4300POPC   C1B57127  24.778  25.013   6.174
 4300POPC   C2B57128  24.848  24.870   6.615
 4300POPC   C3B57129  24.894  25.075   7.042
 4300POPC   C4B57130  25.030  25.506   7.228
 4301POPC   NC357131  42.581   8.744   5.422
 4301POPC   PO457132  42.202   8.186   5.235
 4301POPC   GL157133  42.516   8.251   5.602
 4301POPC   GL257134  42.214   8.153   5.831
 4301POPC   C1A57135  42.634   8.351   6.045
 4301POPC   D2A57136  42.421   8.177   6.398
 4301POPC   C3A57137  42.444   8.394   6.761
 4301POPC   C4A57138  42.626   8.191   7.102
 4301POPC   C1B57139  41.941   8.202   6.209
 4301POPC   C2B57140  41.948   8.299   6.670
 4301POPC   C3B57141  42.077   8.361   7.108
 4301POPC   C4B57142  41.988   8.019   7.351
 4302POPC   NC357143  28.217  39.203   5.404
 4302POPC   PO457144  28.884  39.477   5.508
 4302POPC   GL157145  28.565  39.303   5.855
 4302POPC   GL257146  28.334  39.015   5.855
 4302POPC   C1A57147  28.324  39.207   6.303
 4302POPC   D2A57148  28.129  39.453   6.631
 4302POPC   C3A57149  28.402  39.409   6.965
 4302POPC   C4A57150  28.796  39.235   7.052
 4302POPC   C1B57151  28.719  38.893   6.129
 4302POPC   C2B57152  28.621  38.803   6.564
 4302POPC   C3B57153  28.259  38.905   6.834
 4302POPC   C4B57154  28.380  38.992   7.260
 4303POPC   NC357155  20.836   9.754   5.578
 4303POPC   PO457156  21.496   9.712   5.406
 4303POPC   GL157157  21.530   9.719   5.829
 4303POPC   GL257158  21.408  10.050   5.917
 4303POPC   C1A57159  21.233   9.578   6.125
 4303POPC   D2A57160  20.983   9.632   6.513
 4303POPC   C3A57161  21.199   9.588   6.901
 4303POPC   C4A57162  21.207   9.808   7.288
 4303POPC   C1B57163  21.342  10.010   6.384
 4303POPC   C2B57164  21.568   9.933   6.773
 4303POPC   C3B57165  21.685   9.764   7.163
 4303POPC   C4B57166  21.595   9.950   7.598
 4304POPC   NC357167   7.371  11.641   4.934
 4304POPC   PO457168   7.576  11.451   5.528
 4304POPC   GL157169   7.378  11.259   5.835
 4304POPC   GL257170   7.668  11.270   6.017
 4304POPC   C1A57171   7.182  11.344   6.225
 4304POPC   D2A57172   7.349  11.399   6.619
 4304POPC   C3A57173   7.237  11.148   6.976
 4304POPC   C4A57174   6.961  11.366   7.248
 4304POPC   C1B57175   7.909  11.330   6.364
 4304POPC   C2B57176   7.820  11.507   6.738
 4304POPC   C3B57177   7.592  11.515   7.099
 4304POPC   C4B57178   7.861  11.388   7.401
 4305POPC   NC357179  13.659  19.058   5.391
 4305POPC   PO457180  13.911  18.456   5.532
 4305POPC   GL157181  13.654  18.713   5.815
 4305POPC   GL257182  13.641  19.095   5.895
 4305POPC   C1A57183  13.490  18.754   6.232
 4305POPC   D2A57184  13.665  18.967   6.582
 4305POPC   C3A57185  13.611  18.816   6.991
 4305POPC   C4A57186  13.563  18.997   7.407
 4305POPC   C1B57187  13.882  19.268   6.216
 4305POPC   C2B57188  14.048  19.283   6.624
 4305POPC   C3B57189  13.876  19.243   7.054
 4305POPC   C4B57190  13.994  19.216   7.504
 4306POPC   NC357191  28.858  35.373   5.335
 4306POPC   PO457192  28.200  35.306   5.223
 4306POPC   GL157193  28.392  35.286   5.709
 4306POPC   GL257194  28.737  35.299   5.818
 4306POPC   C1A57195  28.346  35.492   6.161
 4306POPC   D2A57196  28.396  35.695   6.571
 4306POPC   C3A57197  28.232  35.558   6.996
 4306POPC   C4A57198  28.010  35.486   7.404
 4306POPC   C1B57199  28.694  35.125   6.229
 4306POPC   C2B57200  28.456  35.182   6.584
 4306POPC   C3B57201  28.126  35.087   6.828
 4306POPC   C4B57202  28.297  35.053   7.232
 4307POPC   NC357203  44.822  42.587   5.271
 4307POPC   PO457204  44.975  41.933   5.291
 4307POPC   GL157205  44.776  42.140   5.681
 4307POPC   GL257206  44.708  42.489   5.770
 4307POPC   C1A57207  44.698  42.147   6.149
 4307POPC   D2A57208  44.803  42.394   6.516
 4307POPC   C3A57209  44.883  42.165   6.862
 4307POPC   C4A57210  44.783  42.251   7.257
 4307POPC   C1B57211  44.468  42.629   6.157
 4307POPC   C2B57212  44.314  42.517   6.588
 4307POPC   C3B57213  44.504  42.580   6.976
 4307POPC   C4B57214  44.278  42.738   7.313
 4308POPC   NC357215  18.558   9.408   5.487
 4308POPC   PO457216  17.911   9.647   5.371
 4308POPC   GL157217  18.202   9.767   5.705
 4308POPC   GL257218  18.516   9.917   5.749
 4308POPC   C1A57219  18.166   9.842   6.143
 4308POPC   D2A57220  18.300   9.967   6.577
 4308POPC   C3A57221  18.280   9.600   6.849
 4308POPC   C4A57222  17.955   9.418   7.128
 4308POPC   C1B57223  18.685   9.967   6.184
 4308POPC   C2B57224  18.806   9.924   6.631
 4308POPC   C3B57225  18.578   9.989   7.043
 4308POPC   C4B57226  18.118  10.027   7.110
 4309POPC   NC357227  35.619  32.190   5.278
 4309POPC   PO457228  36.297  32.103   5.455
 4309POPC   GL157229  36.137  32.249   5.817
 4309POPC   GL257230  35.823  32.376   5.707
 4309POPC   C1A57231  36.075  32.058   6.214
 4309POPC   D2A57232  36.182  31.955   6.638
 4309POPC   C3A57233  36.311  32.149   7.008
 4309POPC   C4A57234  36.155  32.178   7.413
 4309POPC   C1B57235  35.707  32.417   6.138
 4309POPC   C2B57236  35.924  32.431   6.531
 4309POPC   C3B57237  35.818  32.279   6.921
 4309POPC   C4B57238  35.791  32.516   7.295
 4310POPC   NC357239  20.577  40.294   5.499
 4310POPC   PO457240  20.599  39.615   5.443
 4310POPC   GL157241  20.644  39.870   5.818
 4310POPC   GL257242  20.276  39.962   5.839
 4310POPC   C1A57243  20.915  39.852   6.214
 4310POPC   D2A57244  21.138  39.788   6.632
 4310POPC   C3A57245  20.804  39.827   6.929
 4310POPC   C4A57246  20.831  40.168   7.199
 4310POPC   C1B57247  20.436  40.162   6.235
 4310POPC   C2B57248  20.521  40.235   6.688
 4310POPC   C3B57249  20.339  40.109   7.069
 4310POPC   C4B57250  20.431  39.999   7.481
 4311POPC   NC357251  34.286   1.266   5.423
 4311POPC   PO457252  34.892   1.270   5.443
 4311POPC   GL157253  34.661   1.284   5.812
 4311POPC   GL257254  34.467   0.979   5.817
 4311POPC   C1A57255  34.608   1.198   6.268
 4311POPC   D2A57256  34.592   1.460   6.637
 4311POPC   C3A57257  34.467   1.485   7.063
 4311POPC   C4A57258  34.761   1.460   7.408
 4311POPC   C1B57259  34.170   0.945   6.186
 4311POPC   C2B57260  34.335   0.896   6.604
 4311POPC   C3B57261  34.607   0.989   6.959
 4311POPC   C4B57262  34.472   1.029   7.380
 4312POPC   NC357263   4.503   8.374   5.376
 4312POPC   PO457264   3.875   8.156   5.434
 4312POPC   GL157265   4.072   8.219   5.826
 4312POPC   GL257266   4.288   8.494   5.867
 4312POPC   C1A57267   4.057   8.022   6.235
 4312POPC   D2A57268   4.294   7.896   6.567
 4312POPC   C3A57269   4.222   7.998   6.969
 4312POPC   C4A57270   4.557   8.111   7.197
 4312POPC   C1B57271   4.233   8.499   6.326
 4312POPC   C2B57272   4.287   8.459   6.779
 4312POPC   C3B57273   4.156   8.467   7.188
 4312POPC   C4B57274   4.480   8.532   7.486
 4313POPC   NC357275   6.670  41.592   5.059
 4313POPC   PO457276   6.359  41.788   5.606
 4313POPC   GL157277   6.479  41.667   5.977
 4313POPC   GL257278   6.690  41.359   5.982
 4313POPC   C1A57279   6.635  41.722   6.365
 4313POPC   D2A57280   6.744  41.539   6.731
 4313POPC   C3A57281   6.552  41.695   7.092
 4313POPC   C4A57282   6.383  41.751   7.506
 4313POPC   C1B57283   6.754  41.140   6.401
 4313POPC   C2B57284   6.692  41.068   6.855
 4313POPC   C3B57285   6.823  41.276   7.228
 4313POPC   C4B57286   6.969  41.128   7.618
 4314POPC   NC357287   6.558   1.530   5.410
 4314POPC   PO457288   6.879   1.003   5.136
 4314POPC   GL157289   6.830   1.076   5.616
 4314POPC   GL257290   6.454   1.087   5.716
 4314POPC   C1A57291   6.760   1.028   6.111
 4314POPC   D2A57292   6.491   0.916   6.510
 4314POPC   C3A57293   6.625   1.091   6.917
 4314POPC   C4A57294   6.718   1.074   7.354
 4314POPC   C1B57295   6.282   1.260   6.144
 4314POPC   C2B57296   6.287   1.389   6.613
 4314POPC   C3B57297   6.146   1.213   7.035
 4314POPC   C4B57298   6.255   1.222   7.495
 4315POPC   NC357299  29.695   7.604   5.447
 4315POPC   PO457300  30.167   7.111   5.438
 4315POPC   GL157301  29.811   7.202   5.761
 4315POPC   GL257302  29.721   7.580   5.931
 4315POPC   C1A57303  29.887   7.193   6.202
 4315POPC   D2A57304  30.258   7.162   6.438
 4315POPC   C3A57305  30.210   7.166   6.860
 4315POPC   C4A57306  29.816   7.175   7.067
 4315POPC   C1B57307  29.751   7.769   6.299
 4315POPC   C2B57308  29.901   7.514   6.629
 4315POPC   C3B57309  30.040   7.636   7.018
 4315POPC   C4B57310  29.665   7.736   7.163
 4316POPC   NC357311   9.286  22.665   5.384
 4316POPC   PO457312   9.827  22.971   5.346
 4316POPC   GL157313   9.689  22.792   5.713
 4316POPC   GL257314   9.917  22.561   5.841
 4316POPC   C1A57315   9.500  22.853   6.123
 4316POPC   D2A57316   9.687  22.696   6.520
 4316POPC   C3A57317   9.573  22.896   6.899
 4316POPC   C4A57318   9.701  22.825   7.279
 4316POPC   C1B57319  10.006  22.890   6.139
 4316POPC   C2B57320  10.198  22.907   6.551
 4316POPC   C3B57321  10.067  22.671   6.930
 4316POPC   C4B57322  10.212  22.753   7.358
 4317POPC   NC357323  18.884  31.388   5.479
 4317POPC   PO457324  19.408  31.760   5.235
 4317POPC   GL157325  19.301  31.671   5.705
 4317POPC   GL257326  18.962  31.724   5.825
 4317POPC   C1A57327  19.246  31.414   6.106
 4317POPC   D2A57328  19.246  31.293   6.539
 4317POPC   C3A57329  19.143  31.459   6.962
 4317POPC   C4A57330  19.030  31.254   7.362
 4317POPC   C1B57331  18.758  31.621   6.177
 4317POPC   C2B57332  18.847  31.632   6.577
 4317POPC   C3B57333  18.720  31.798   6.972
 4317POPC   C4B57334  18.954  31.773   7.312
 4318POPC   NC357335  32.232  41.133   5.607
 4318POPC   PO457336  32.677  41.598   5.380
 4318POPC   GL157337  32.413  41.619   5.749
 4318POPC   GL257338  32.136  41.859   5.783
 4318POPC   C1A57339  32.250  41.495   6.152
 4318POPC   D2A57340  32.269  41.193   6.460
 4318POPC   C3A57341  32.197  41.354   6.829
 4318POPC   C4A57342  32.340  41.257   7.219
 4318POPC   C1B57343  32.225  42.067   6.161
 4318POPC   C2B57344  32.322  42.035   6.599
 4318POPC   C3B57345  32.019  41.889   6.906
 4318POPC   C4B57346  32.007  41.638   7.263
 4319POPC   NC357347   9.011  35.112   5.538
 4319POPC   PO457348   8.767  35.761   5.687
 4319POPC   GL157349   8.825  35.388   5.905
 4319POPC   GL257350   9.108  35.535   6.074
 4319POPC   C1A57351   9.017  35.061   6.205
 4319POPC   D2A57352   8.936  34.900   6.596
 4319POPC   C3A57353   8.973  35.211   6.917
 4319POPC   C4A57354   8.916  35.151   7.375
 4319POPC   C1B57355   8.700  35.505   6.365
 4319POPC   C2B57356   8.511  35.368   6.761
 4319POPC   C3B57357   8.655  35.526   7.169
 4319POPC   C4B57358   8.641  35.508   7.647
 4320POPC   NC357359  27.766   7.961   5.349
 4320POPC   PO457360  27.677   7.293   5.394
 4320POPC   GL157361  27.683   7.490   5.790
 4320POPC   GL257362  27.979   7.721   5.797
 4320POPC   C1A57363  27.470   7.385   6.189
 4320POPC   D2A57364  27.469   7.564   6.605
 4320POPC   C3A57365  27.440   7.325   6.910
 4320POPC   C4A57366  27.535   7.192   7.279
 4320POPC   C1B57367  27.871   7.715   6.245
 4320POPC   C2B57368  28.023   7.712   6.674
 4320POPC   C3B57369  27.817   7.765   7.063
 4320POPC   C4B57370  27.379   7.761   7.167
 4321POPC   NC357371  17.951   6.422   5.457
 4321POPC   PO457372  18.410   6.101   5.423
 4321POPC   GL157373  18.331   6.085   5.866
 4321POPC   GL257374  18.050   6.280   5.948
 4321POPC   C1A57375  18.271   5.828   6.249
 4321POPC   D2A57376  18.499   5.650   6.610
 4321POPC   C3A57377  18.272   5.558   6.994
 4321POPC   C4A57378  18.400   5.592   7.476
 4321POPC   C1B57379  18.228   6.324   6.368
 4321POPC   C2B57380  18.187   6.057   6.748
 4321POPC   C3B57381  18.331   6.009   7.178
 4321POPC   C4B57382  18.199   6.199   7.540
 4322POPC   NC357383  40.285   4.194   5.305
 4322POPC   PO457384  39.702   4.637   5.397
 4322POPC   GL157385  39.973   4.436   5.769
 4322POPC   GL257386  39.956   4.083   5.803
 4322POPC   C1A57387  40.080   4.386   6.252
 4322POPC   D2A57388  39.868   4.363   6.695
 4322POPC   C3A57389  39.912   4.461   7.145
 4322POPC   C4A57390  40.231   4.405   7.480
 4322POPC   C1B57391  39.920   3.859   6.210
 4322POPC   C2B57392  40.126   3.945   6.586
 4322POPC   C3B57393  40.243   4.081   7.016
 4322POPC   C4B57394  39.961   3.978   7.366
 4323POPC   NC357395  25.051  11.157   5.118
 4323POPC   PO457396  25.476  11.669   5.338
 4323POPC   GL157397  25.386  11.411   5.735
 4323POPC   GL257398  25.550  11.065   5.753
 4323POPC   C1A57399  25.221  11.265   6.160
 4323POPC   D2A57400  25.146  11.494   6.557
 4323POPC   C3A57401  25.229  11.485   6.988
 4323POPC   C4A57402  24.971  11.598   7.357
 4323POPC   C1B57403  25.525  10.854   6.178
 4323POPC   C2B57404  25.357  10.960   6.602
 4323POPC   C3B57405  25.532  11.051   7.022
 4323POPC   C4B57406  25.361  10.951   7.442
 4324POPC   NC357407  16.394  13.168   5.256
 4324POPC   PO457408  17.029  12.949   5.357
 4324POPC   GL157409  16.825  12.989   5.780
 4324POPC   GL257410  16.873  12.636   5.947
 4324POPC   C1A57411  16.615  12.995   6.214
 4324POPC   D2A57412  16.507  12.805   6.632
 4324POPC   C3A57413  16.466  13.045   7.010
 4324POPC   C4A57414  16.215  13.271   7.346
 4324POPC   C1B57415  16.601  12.425   6.274
 4324POPC   C2B57416  16.652  12.320   6.729
 4324POPC   C3B57417  16.728  12.568   7.146
 4324POPC   C4B57418  16.793  12.613   7.636
 4325POPC   NC357419   6.354  23.275   5.521
 4325POPC   PO457420   5.747  23.044   5.206
 4325POPC   GL157421   5.738  22.855   5.660
 4325POPC   GL257422   5.941  23.108   5.804
 4325POPC   C1A57423   5.654  22.814   6.169
 4325POPC   D2A57424   5.798  22.490   6.523
 4325POPC   C3A57425   5.855  22.595   6.972
 4325POPC   C4A57426   5.615  22.742   7.340
 4325POPC   C1B57427   6.119  23.090   6.212
 4325POPC   C2B57428   5.985  22.994   6.635
 4325POPC   C3B57429   5.650  23.064   6.922
 4325POPC   C4B57430   5.536  23.324   7.247
 4326POPC   NC357431  10.058  29.599   5.276
 4326POPC   PO457432   9.399  29.858   5.260
 4326POPC   GL157433   9.662  29.904   5.705
 4326POPC   GL257434   9.774  29.645   5.900
 4326POPC   C1A57435   9.884  30.063   6.135
 4326POPC   D2A57436   9.908  30.294   6.538
 4326POPC   C3A57437   9.917  30.105   6.927
 4326POPC   C4A57438   9.689  29.855   7.219
 4326POPC   C1B57439   9.578  29.423   6.241
 4326POPC   C2B57440   9.324  29.406   6.591
 4326POPC   C3B57441   9.373  29.534   7.007
 4326POPC   C4B57442   9.334  29.442   7.428
 4327POPC   NC357443  10.115   3.477   5.519
 4327POPC   PO457444  10.354   4.050   5.414
 4327POPC   GL157445  10.046   3.909   5.828
 4327POPC   GL257446   9.787   3.606   5.893
 4327POPC   C1A57447  10.052   3.740   6.299
 4327POPC   D2A57448   9.892   3.515   6.707
 4327POPC   C3A57449   9.962   3.659   7.149
 4327POPC   C4A57450  10.100   3.547   7.575
 4327POPC   C1B57451   9.564   3.443   6.293
 4327POPC   C2B57452   9.375   3.519   6.716
 4327POPC   C3B57453   9.446   3.671   7.150
 4327POPC   C4B57454   9.602   3.706   7.580
 4328POPC   NC357455   1.745  22.708   5.125
 4328POPC   PO457456   2.366  22.891   5.471
 4328POPC   GL157457   2.269  22.812   5.883
 4328POPC   GL257458   2.129  23.158   5.885
 4328POPC   C1A57459   2.064  22.879   6.313
 4328POPC   D2A57460   1.633  22.818   6.521
 4328POPC   C3A57461   1.636  22.610   6.946
 4328POPC   C4A57462   2.027  22.692   7.166
 4328POPC   C1B57463   1.723  23.215   6.119
 4328POPC   C2B57464   1.708  23.332   6.557
 4328POPC   C3B57465   1.786  23.111   6.953
 4328POPC   C4B57466   1.913  23.193   7.378
 4329POPC   NC357467  42.092  44.923   5.409
 4329POPC   PO457468  42.562  44.383   5.495
 4329POPC   GL157469  42.479  44.597   5.857
 4329POPC   GL257470  42.530  44.968   5.834
 4329POPC   C1A57471  42.289  44.570   6.266
 4329POPC   D2A57472  42.044  44.389   6.625
 4329POPC   C3A57473  42.234  44.610   6.966
 4329POPC   C4A57474  42.675  44.498   7.089
 4329POPC   C1B57475  42.727  44.850   6.239
 4329POPC   C2B57476  42.582  44.795   6.657
 4329POPC   C3B57477  42.565   0.001   7.087
 4329POPC   C4B57478  42.295  44.978   7.454
 4330POPC   NC357479  12.331  20.275   5.467
 4330POPC   PO457480  11.961  19.723   5.248
 4330POPC   GL157481  12.032  19.906   5.662
 4330POPC   GL257482  11.743  20.029   5.816
 4330POPC   C1A57483  12.170  20.068   6.085
 4330POPC   D2A57484  12.055  20.066   6.520
 4330POPC   C3A57485  12.183  19.689   6.740
 4330POPC   C4A57486  12.190  19.600   7.161
 4330POPC   C1B57487  11.822  19.657   6.093
 4330POPC   C2B57488  11.721  19.549   6.524
 4330POPC   C3B57489  11.784  19.375   6.956
 4330POPC   C4B57490  11.730  19.565   7.365
 4331POPC   NC357491  29.365  27.413   5.244
 4331POPC   PO457492  28.782  27.713   5.166
 4331POPC   GL157493  29.011  27.509   5.626
 4331POPC   GL257494  29.381  27.409   5.784
 4331POPC   C1A57495  28.997  27.372   6.116
 4331POPC   D2A57496  29.067  27.354   6.578
 4331POPC   C3A57497  28.865  27.448   7.000
 4331POPC   C4A57498  29.015  27.587   7.409
 4331POPC   C1B57499  29.487  27.164   6.194
 4331POPC   C2B57500  29.437  27.010   6.664
 4331POPC   C3B57501  29.357  27.332   7.025
 4331POPC   C4B57502  29.444  27.344   7.464
 4332POPC   NC357503  24.973  27.028   5.368
 4332POPC   PO457504  25.502  26.676   5.405
 4332POPC   GL157505  25.294  26.630   5.783
 4332POPC   GL257506  24.945  26.766   5.819
 4332POPC   C1A57507  25.423  26.689   6.213
 4332POPC   D2A57508  25.290  26.586   6.635
 4332POPC   C3A57509  25.488  26.772   7.017
 4332POPC   C4A57510  25.424  26.811   7.455
 4332POPC   C1B57511  24.924  26.845   6.289
 4332POPC   C2B57512  24.814  26.742   6.725
 4332POPC   C3B57513  24.986  26.750   7.143
 4332POPC   C4B57514  24.976  27.046   7.505
 4333POPC   NC357515   3.547   6.938   5.452
 4333POPC   PO457516   3.585   6.240   5.457
 4333POPC   GL157517   3.530   6.556   5.813
 4333POPC   GL257518   3.316   6.866   5.914
 4333POPC   C1A57519   3.637   6.611   6.251
 4333POPC   D2A57520   3.568   6.353   6.605
 4333POPC   C3A57521   3.685   6.492   6.994
 4333POPC   C4A57522   3.452   6.573   7.337
 4333POPC   C1B57523   3.401   7.042   6.357
 4333POPC   C2B57524   3.450   6.876   6.769
 4333POPC   C3B57525   3.311   7.045   7.151
 4333POPC   C4B57526   3.443   7.069   7.590
 4334POPC   NC357527  20.994  15.960   5.327
 4334POPC   PO457528  21.655  15.827   5.388
 4334POPC   GL157529  21.325  15.805   5.713
 4334POPC   GL257530  21.080  15.525   5.754
 4334POPC   C1A57531  21.377  16.048   6.112
 4334POPC   D2A57532  21.695  15.931   6.463
 4334POPC   C3A57533  21.577  15.888   6.930
 4334POPC   C4A57534  21.341  16.035   7.300
 4334POPC   C1B57535  21.280  15.565   6.171
 4334POPC   C2B57536  21.193  15.806   6.536
 4334POPC   C3B57537  21.087  15.707   6.938
 4334POPC   C4B57538  21.311  15.507   7.223
 4335POPC   NC357539  25.457   8.989   5.383
 4335POPC   PO457540  24.837   9.254   5.439
 4335POPC   GL157541  25.148   9.057   5.810
 4335POPC   GL257542  25.445   8.799   5.848
 4335POPC   C1A57543  25.335   9.111   6.243
 4335POPC   D2A57544  25.511   8.917   6.603
 4335POPC   C3A57545  25.443   9.071   7.016
 4335POPC   C4A57546  25.303   9.046   7.446
 4335POPC   C1B57547  25.304   8.601   6.235
 4335POPC   C2B57548  25.116   8.619   6.685
 4335POPC   C3B57549  25.233   8.610   7.132
 4335POPC   C4B57550  24.995   8.629   7.508
 4336POPC   NC357551  31.279  27.732   5.444
 4336POPC   PO457552  31.913  27.765   5.332
 4336POPC   GL157553  31.654  27.569   5.770
 4336POPC   GL257554  31.351  27.348   5.760
 4336POPC   C1A57555  31.417  27.628   6.221
 4336POPC   D2A57556  31.270  27.745   6.674
 4336POPC   C3A57557  31.280  27.572   7.090
 4336POPC   C4A57558  31.555  27.276   7.297
 4336POPC   C1B57559  31.104  27.204   6.107
 4336POPC   C2B57560  31.183  27.260   6.546
 4336POPC   C3B57561  31.192  27.099   6.967
 4336POPC   C4B57562  31.036  27.078   7.375
 4337POPC   NC357563   9.212  12.548   5.332
 4337POPC   PO457564   8.890  13.150   5.509
 4337POPC   GL157565   9.092  12.848   5.759
 4337POPC   GL257566   8.846  12.917   5.990
 4337POPC   C1A57567   9.295  12.770   6.161
 4337POPC   D2A57568   9.249  12.575   6.575
 4337POPC   C3A57569   9.123  12.844   6.939
 4337POPC   C4A57570   9.280  13.186   7.150
 4337POPC   C1B57571   8.789  12.582   6.243
 4337POPC   C2B57572   8.741  12.717   6.627
 4337POPC   C3B57573   8.656  12.583   7.008
 4337POPC   C4B57574   8.690  12.832   7.366
 4338POPC   NC357575   5.386  33.263   5.478
 4338POPC   PO457576   4.940  32.752   5.564
 4338POPC   GL157577   5.060  33.028   5.871
 4338POPC   GL257578   5.388  32.902   5.861
 4338POPC   C1A57579   4.921  33.210   6.292
 4338POPC   D2A57580   5.145  33.255   6.693
 4338POPC   C3A57581   4.905  33.204   7.068
 4338POPC   C4A57582   4.683  32.894   7.290
 4338POPC   C1B57583   5.417  33.028   6.287
 4338POPC   C2B57584   5.482  32.810   6.671
 4338POPC   C3B57585   5.372  32.801   7.100
 4338POPC   C4B57586   5.596  32.775   7.493
 4339POPC   NC357587  22.232   0.468   5.282
 4339POPC   PO457588  21.694   0.329   5.611
 4339POPC   GL157589  21.955   0.195   5.927
 4339POPC   GL257590  22.321   0.264   5.840
 4339POPC   C1A57591  21.888   0.163   6.387
 4339POPC   D2A57592  22.195   0.255   6.687
 4339POPC   C3A57593  22.072   0.587   6.980
 4339POPC   C4A57594  22.270   0.892   7.258
 4339POPC   C1B57595  22.544  44.969   6.170
 4339POPC   C2B57596  22.649  44.978   6.630
 4339POPC   C3B57597  22.552   0.169   7.044
 4339POPC   C4B57598  22.332   0.377   7.361
 4340POPC   NC357599   1.531  28.755   5.390
 4340POPC   PO457600   1.068  29.307   5.406
 4340POPC   GL157601   1.083  29.167   5.816
 4340POPC   GL257602   0.898  28.891   5.896
 4340POPC   C1A57603   1.075  29.304   6.249
 4340POPC   D2A57604   1.298  29.435   6.605
 4340POPC   C3A57605   1.100  29.321   6.969
 4340POPC   C4A57606   1.073  29.309   7.369
 4340POPC   C1B57607   1.209  28.807   6.191
 4340POPC   C2B57608   1.138  28.936   6.629
 4340POPC   C3B57609   0.924  28.810   6.984
 4340POPC   C4B57610   0.847  28.831   7.404
 4341POPC   NC357611  33.233  24.368   5.314
 4341POPC   PO457612  32.656  24.587   5.529
 4341POPC   GL157613  32.957  24.461   5.820
 4341POPC   GL257614  33.284  24.305   5.818
 4341POPC   C1A57615  33.097  24.603   6.206
 4341POPC   D2A57616  33.001  24.539   6.611
 4341POPC   C3A57617  33.059  24.754   6.972
 4341POPC   C4A57618  32.940  24.709   7.377
 4341POPC   C1B57619  33.380  24.142   6.220
 4341POPC   C2B57620  33.232  24.063   6.629
 4341POPC   C3B57621  33.174  24.269   7.012
 4341POPC   C4B57622  33.379  24.487   7.313
 4342POPC   NC357623  42.247  11.705   5.451
 4342POPC   PO457624  42.706  11.239   5.562
 4342POPC   GL157625  42.461  11.455   5.884
 4342POPC   GL257626  42.126  11.347   5.804
 4342POPC   C1A57627  42.288  11.289   6.299
 4342POPC   D2A57628  42.148  11.117   6.705
 4342POPC   C3A57629  42.422  11.141   7.069
 4342POPC   C4A57630  42.509  11.155   7.514
 4342POPC   C1B57631  41.933  11.620   6.132
 4342POPC   C2B57632  41.831  11.517   6.571
 4342POPC   C3B57633  42.007  11.579   6.968
 4342POPC   C4B57634  42.142  11.470   7.355
 4343POPC   NC357635  30.625  10.960   5.604
 4343POPC   PO457636  30.321  11.595   5.474
 4343POPC   GL157637  30.288  11.326   5.843
 4343POPC   GL257638  30.552  11.451   5.934
 4343POPC   C1A57639  30.365  11.193   6.317
 4343POPC   D2A57640  30.501  11.020   6.728
 4343POPC   C3A57641  30.690  11.343   7.033
 4343POPC   C4A57642  30.564  11.517   7.443
 4343POPC   C1B57643  30.884  11.253   6.192
 4343POPC   C2B57644  30.984  11.169   6.627
 4343POPC   C3B57645  31.086  11.025   7.038
 4343POPC   C4B57646  31.026  11.246   7.459
 4344POPC   NC357647   3.510  17.024   5.540
 4344POPC   PO457648   3.894  16.321   5.375
 4344POPC   GL157649   3.657  16.419   5.757
 4344POPC   GL257650   3.441  16.656   5.876
 4344POPC   C1A57651   3.573  16.328   6.218
 4344POPC   D2A57652   3.286  16.539   6.470
 4344POPC   C3A57653   3.381  16.447   6.917
 4344POPC   C4A57654   3.645  16.523   7.297
 4344POPC   C1B57655   3.356  16.992   6.191
 4344POPC   C2B57656   3.366  17.275   6.545
 4344POPC   C3B57657   3.415  17.137   6.959
 4344POPC   C4B57658   3.223  16.829   7.235
 4345POPC   NC357659   1.052  25.525   5.371
 4345POPC   PO457660   1.622  25.373   5.264
 4345POPC   GL157661   1.450  25.160   5.664
 4345POPC   GL257662   1.118  25.211   5.807
 4345POPC   C1A57663   1.495  25.196   6.143
 4345POPC   D2A57664   1.375  25.527   6.456
 4345POPC   C3A57665   1.441  25.418   6.871
 4345POPC   C4A57666   1.593  25.207   7.228
 4345POPC   C1B57667   0.949  25.302   6.239
 4345POPC   C2B57668   0.763  25.419   6.593
 4345POPC   C3B57669   0.744  25.273   6.959
 4345POPC   C4B57670   1.089  25.175   7.165
 4346POPC   NC357671  10.673  43.252   5.091
 4346POPC   PO457672  10.282  42.901   5.566
 4346POPC   GL157673  10.603  43.133   5.827
 4346POPC   GL257674  10.825  42.882   5.993
 4346POPC   C1A57675  10.531  43.447   6.192
 4346POPC   D2A57676  10.296  43.522   6.585
 4346POPC   C3A57677  10.500  43.416   6.992
 4346POPC   C4A57678  10.603  43.254   7.429
 4346POPC   C1B57679  10.526  42.933   6.335
 4346POPC   C2B57680  10.470  42.890   6.815
 4346POPC   C3B57681  10.532  42.784   7.275
 4346POPC   C4B57682  10.833  42.843   7.657
 4347POPC   NC357683  30.870  16.418   5.450
 4347POPC   PO457684  30.571  15.815   5.340
 4347POPC   GL157685  30.739  15.895   5.721
 4347POPC   GL257686  30.502  16.160   5.803
 4347POPC   C1A57687  30.834  15.945   6.160
 4347POPC   D2A57688  31.002  15.731   6.544
 4347POPC   C3A57689  30.841  15.968   6.893
 4347POPC   C4A57690  30.726  15.961   7.282
 4347POPC   C1B57691  30.387  16.235   6.259
 4347POPC   C2B57692  30.431  16.250   6.736
 4347POPC   C3B57693  30.409  16.352   7.207
 4347POPC   C4B57694  30.590  16.258   7.655
 4348POPC   NC357695  39.241   7.689   5.475
 4348POPC   PO457696  39.567   7.129   5.441
 4348POPC   GL157697  39.347   7.301   5.790
 4348POPC   GL257698  39.041   7.142   5.762
 4348POPC   C1A57699  39.163   7.541   6.154
 4348POPC   D2A57700  39.283   7.703   6.569
 4348POPC   C3A57701  39.045   7.645   6.938
 4348POPC   C4A57702  39.196   7.562   7.335
 4348POPC   C1B57703  39.205   7.008   6.178
 4348POPC   C2B57704  39.081   6.951   6.578
 4348POPC   C3B57705  39.142   7.145   6.957
 4348POPC   C4B57706  39.215   7.065   7.348
 4349POPC   NC357707  39.818   5.078   5.259
 4349POPC   PO457708  40.467   5.273   5.227
 4349POPC   GL157709  40.160   5.228   5.600
 4349POPC   GL257710  40.006   4.938   5.718
 4349POPC   C1A57711  40.064   5.335   6.046
 4349POPC   D2A57712  39.931   5.378   6.476
 4349POPC   C3A57713  40.263   5.258   6.761
 4349POPC   C4A57714  40.243   5.347   7.191
 4349POPC   C1B57715  39.879   4.846   6.142
 4349POPC   C2B57716  40.027   4.836   6.589
 4349POPC   C3B57717  39.930   4.967   7.042
 4349POPC   C4B57718  39.880   4.847   7.518
 4350POPC   NC357719  39.554  21.332   5.202
 4350POPC   PO457720  38.995  21.143   5.532
 4350POPC   GL157721  39.218  21.399   5.829
 4350POPC   GL257722  38.966  21.640   5.943
 4350POPC   C1A57723  39.202  21.264   6.276
 4350POPC   D2A57724  39.386  21.155   6.662
 4350POPC   C3A57725  39.350  21.433   7.033
 4350POPC   C4A57726  39.018  21.134   7.069
 4350POPC   C1B57727  38.757  21.530   6.323
 4350POPC   C2B57728  38.999  21.519   6.676
 4350POPC   C3B57729  38.876  21.654   7.068
 4350POPC   C4B57730  39.068  21.770   7.386
 4351POPC   NC357731  23.077  14.633   5.246
 4351POPC   PO457732  22.595  14.294   5.530
 4351POPC   GL157733  22.711  14.344   5.899
 4351POPC   GL257734  22.905  14.610   5.786
 4351POPC   C1A57735  22.993  14.373   6.246
 4351POPC   D2A57736  23.041  14.216   6.627
 4351POPC   C3A57737  22.842  14.240   6.998
 4351POPC   C4A57738  23.012  14.387   7.369
 4351POPC   C1B57739  22.708  14.786   6.166
 4351POPC   C2B57740  22.906  14.800   6.565
 4351POPC   C3B57741  22.860  14.740   6.983
 4351POPC   C4B57742  22.561  14.768   7.272
 4352POPC   NC357743   7.876  23.022   5.305
 4352POPC   PO457744   7.292  22.630   5.383
 4352POPC   GL157745   7.493  22.954   5.669
 4352POPC   GL257746   7.699  22.731   5.818
 4352POPC   C1A57747   7.626  23.147   6.092
 4352POPC   D2A57748   7.431  23.186   6.496
 4352POPC   C3A57749   7.611  23.139   6.921
 4352POPC   C4A57750   7.362  23.007   7.279
 4352POPC   C1B57751   7.491  22.686   6.285
 4352POPC   C2B57752   7.469  22.682   6.758
 4352POPC   C3B57753   7.322  22.519   7.190
 4352POPC   C4B57754   7.495  22.682   7.649
 4353POPC   NC357755  41.363  29.803   5.451
 4353POPC   PO457756  41.970  29.789   5.492
 4353POPC   GL157757  41.701  30.051   5.827
 4353POPC   GL257758  41.325  30.141   5.854
 4353POPC   C1A57759  41.665  30.004   6.305
 4353POPC   D2A57760  41.752  30.000   6.758
 4353POPC   C3A57761  41.403  29.848   7.005
 4353POPC   C4A57762  41.339  29.777   7.451
 4353POPC   C1B57763  41.336  30.380   6.236
 4353POPC   C2B57764  41.410  30.381   6.684
 4353POPC   C3B57765  41.577  30.320   7.131
 4353POPC   C4B57766  41.803  30.058   7.397
 4354POPC   NC357767  25.919  11.540   5.434
 4354POPC   PO457768  26.232  11.015   5.340
 4354POPC   GL157769  26.175  11.203   5.729
 4354POPC   GL257770  26.474  11.055   5.842
 4354POPC   C1A57771  25.860  11.368   6.049
 4354POPC   D2A57772  25.661  11.310   6.422
 4354POPC   C3A57773  25.721  11.556   6.777
 4354POPC   C4A57774  25.924  11.418   7.136
 4354POPC   C1B57775  26.340  11.266   6.231
 4354POPC   C2B57776  26.130  11.256   6.632
 4354POPC   C3B57777  26.175  11.014   6.982
 4354POPC   C4B57778  26.344  11.179   7.340
 4355POPC   NC357779  11.862  36.386   5.299
 4355POPC   PO457780  12.305  35.840   5.213
 4355POPC   GL157781  12.060  35.948   5.602
 4355POPC   GL257782  12.051  36.283   5.749
 4355POPC   C1A57783  12.016  35.894   6.077
 4355POPC   D2A57784  11.985  36.110   6.488
 4355POPC   C3A57785  12.049  35.907   6.886
 4355POPC   C4A57786  12.381  35.974   7.187
 4355POPC   C1B57787  11.813  36.443   6.089
 4355POPC   C2B57788  11.837  36.629   6.516
 4355POPC   C3B57789  11.903  36.408   6.914
 4355POPC   C4B57790  11.919  36.174   7.309
 4356POPC   NC357791   2.564  14.559   5.218
 4356POPC   PO457792   2.759  13.933   5.422
 4356POPC   GL157793   2.458  14.223   5.668
 4356POPC   GL257794   2.547  14.598   5.757
 4356POPC   C1A57795   2.489  14.212   6.124
 4356POPC   D2A57796   2.738  14.327   6.486
 4356POPC   C3A57797   2.528  14.276   6.855
 4356POPC   C4A57798   2.544  14.168   7.265
 4356POPC   C1B57799   2.641  14.746   6.209
 4356POPC   C2B57800   2.931  14.771   6.628
 4356POPC   C3B57801   2.769  14.681   7.055
 4356POPC   C4B57802   2.343  14.660   7.272
 4357POPC   NC357803  37.762  28.792   5.387
 4357POPC   PO457804  37.716  28.128   5.168
 4357POPC   GL157805  37.702  28.353   5.627
 4357POPC   GL257806  37.960  28.539   5.790
 4357POPC   C1A57807  37.513  28.421   6.073
 4357POPC   D2A57808  37.602  28.214   6.489
 4357POPC   C3A57809  37.902  28.358   6.831
 4357POPC   C4A57810  38.104  28.517   7.237
 4357POPC   C1B57811  37.937  28.624   6.269
 4357POPC   C2B57812  38.096  28.813   6.672
 4357POPC   C3B57813  37.963  28.991   7.077
 4357POPC   C4B57814  37.830  28.930   7.516
 4358POPC   NC357815  20.575  35.520   5.379
 4358POPC   PO457816  20.179  34.972   5.404
 4358POPC   GL157817  20.389  35.025   5.789
 4358POPC   GL257818  20.737  35.196   5.776
 4358POPC   C1A57819  20.549  35.023   6.224
 4358POPC   D2A57820  20.509  35.187   6.630
 4358POPC   C3A57821  20.674  35.280   7.034
 4358POPC   C4A57822  20.572  35.392   7.473
 4358POPC   C1B57823  20.846  35.423   6.196
 4358POPC   C2B57824  20.843  35.581   6.640
 4358POPC   C3B57825  20.981  35.733   7.065
 4358POPC   C4B57826  20.896  35.779   7.551
 4359POPC   NC357827  25.834  38.565   5.471
 4359POPC   PO457828  26.441  38.331   5.144
 4359POPC   GL157829  26.146  38.109   5.527
 4359POPC   GL257830  26.412  38.010   5.781
 4359POPC   C1A57831  25.948  38.170   5.982
 4359POPC   D2A57832  25.838  38.260   6.432
 4359POPC   C3A57833  25.846  38.619   6.750
 4359POPC   C4A57834  25.943  38.705   7.197
 4359POPC   C1B57835  26.432  38.051   6.206
 4359POPC   C2B57836  26.328  38.238   6.593
 4359POPC   C3B57837  26.330  38.492   6.923
 4359POPC   C4B57838  26.477  38.373   7.299
 4360POPC   NC357839  28.166  25.967   5.445
 4360POPC   PO457840  28.603  26.480   5.362
 4360POPC   GL157841  28.462  26.241   5.781
 4360POPC   GL257842  28.515  25.903   5.820
 4360POPC   C1A57843  28.341  26.145   6.256
 4360POPC   D2A57844  28.617  25.927   6.579
 4360POPC   C3A57845  28.598  26.105   7.004
 4360POPC   C4A57846  28.357  25.978   7.363
 4360POPC   C1B57847  28.423  25.659   6.178
 4360POPC   C2B57848  28.186  25.622   6.528
 4360POPC   C3B57849  28.177  25.800   6.905
 4360POPC   C4B57850  28.159  25.524   7.245
 4361POPC   NC357851   4.807  42.703   5.585
 4361POPC   PO457852   5.149  42.200   5.383
 4361POPC   GL157853   5.040  42.205   5.844
 4361POPC   GL257854   5.088  42.558   5.973
 4361POPC   C1A57855   5.124  42.193   6.324
 4361POPC   D2A57856   5.339  42.146   6.747
 4361POPC   C3A57857   5.098  42.231   7.143
 4361POPC   C4A57858   5.215  42.110   7.553
 4361POPC   C1B57859   5.356  42.749   6.288
 4361POPC   C2B57860   5.389  42.693   6.735
 4361POPC   C3B57861   5.255  42.730   7.149
 4361POPC   C4B57862   5.025  42.618   7.552
 4362POPC   NC357863  25.571   7.107   5.576
 4362POPC   PO457864  25.269   7.652   5.557
 4362POPC   GL157865  25.136   7.436   5.885
 4362POPC   GL257866  25.426   7.315   6.033
 4362POPC   C1A57867  25.006   7.186   6.282
 4362POPC   D2A57868  25.044   7.197   6.730
 4362POPC   C3A57869  25.278   6.991   7.049
 4362POPC   C4A57870  25.619   6.976   7.406
 4362POPC   C1B57871  25.209   7.703   6.275
 4362POPC   C2B57872  25.049   7.715   6.660
 4362POPC   C3B57873  25.185   7.591   7.048
 4362POPC   C4B57874  24.955   7.716   7.371
 4363POPC   NC357875  14.645   1.905   5.423
 4363POPC   PO457876  14.031   1.783   5.381
 4363POPC   GL157877  14.226   2.004   5.726
 4363POPC   GL257878  13.927   2.167   5.776
 4363POPC   C1A57879  14.526   2.140   6.046
 4363POPC   D2A57880  14.424   2.132   6.483
 4363POPC   C3A57881  14.414   2.024   6.907
 4363POPC   C4A57882  14.770   2.084   7.197
 4363POPC   C1B57883  13.990   2.091   6.208
 4363POPC   C2B57884  13.953   2.207   6.634
 4363POPC   C3B57885  14.118   2.425   6.989
 4363POPC   C4B57886  14.323   2.217   7.367
 4364POPC   NC357887  42.413   1.969   5.586
 4364POPC   PO457888  41.891   1.898   5.259
 4364POPC   GL157889  41.970   2.190   5.722
 4364POPC   GL257890  42.311   2.350   5.905
 4364POPC   C1A57891  41.889   2.370   6.183
 4364POPC   D2A57892  41.728   2.375   6.620
 4364POPC   C3A57893  42.067   2.296   6.908
 4364POPC   C4A57894  42.261   2.026   7.209
 4364POPC   C1B57895  42.313   2.049   6.293
 4364POPC   C2B57896  42.401   1.827   6.714
 4364POPC   C3B57897  42.770   1.805   7.020
 4364POPC   C4B57898  42.865   1.729   7.480
 4365POPC   NC357899  30.496  10.796   5.109
 4365POPC   PO457900  30.732  10.271   5.524
 4365POPC   GL157901  30.533  10.511   5.841
 4365POPC   GL257902  30.845  10.624   5.915
 4365POPC   C1A57903  30.519  10.702   6.292
 4365POPC   D2A57904  30.395  10.470   6.665
 4365POPC   C3A57905  30.422  10.648   7.085
 4365POPC   C4A57906  30.564  10.687   7.517
 4365POPC   C1B57907  30.974  10.465   6.319
 4365POPC   C2B57908  30.877  10.661   6.714
 4365POPC   C3B57909  30.905  10.554   7.142
 4365POPC   C4B57910  31.079  10.739   7.470
 4366POPC   NC357911  10.688  10.324   5.385
 4366POPC   PO457912  10.240  10.761   5.460
 4366POPC   GL157913  10.354  10.400   5.791
 4366POPC   GL257914  10.684  10.191   5.848
 4366POPC   C1A57915  10.420  10.417   6.246
 4366POPC   D2A57916  10.574  10.742   6.504
 4366POPC   C3A57917  10.635  10.586   6.888
 4366POPC   C4A57918  10.542  10.711   7.276
 4366POPC   C1B57919  10.814  10.033   6.195
 4366POPC   C2B57920  10.789  10.231   6.562
 4366POPC   C3B57921  10.716  10.056   6.961
 4366POPC   C4B57922  10.435  10.230   7.260
 4367POPC   NC357923  12.444   2.233   5.573
 4367POPC   PO457924  13.179   2.270   5.571
 4367POPC   GL157925  12.942   1.953   5.787
 4367POPC   GL257926  13.150   1.704   5.958
 4367POPC   C1A57927  12.651   1.888   6.136
 4367POPC   D2A57928  12.546   2.157   6.497
 4367POPC   C3A57929  12.757   2.028   6.877
 4367POPC   C4A57930  12.955   1.707   7.098
 4367POPC   C1B57931  13.120   1.890   6.391
 4367POPC   C2B57932  13.270   1.994   6.811
 4367POPC   C3B57933  13.219   2.141   7.233
 4367POPC   C4B57934  13.112   2.221   7.649
 4368POPC   NC357935   6.039  17.562   5.177
 4368POPC   PO457936   5.367  17.449   5.221
 4368POPC   GL157937   5.500  17.488   5.686
 4368POPC   GL257938   5.791  17.685   5.722
 4368POPC   C1A57939   5.686  17.419   6.153
 4368POPC   D2A57940   6.096  17.309   6.414
 4368POPC   C3A57941   6.113  17.224   6.875
 4368POPC   C4A57942   5.775  17.333   7.180
 4368POPC   C1B57943   6.132  17.683   6.049
 4368POPC   C2B57944   6.164  17.838   6.508
 4368POPC   C3B57945   6.050  17.738   6.944
 4368POPC   C4B57946   6.069  17.700   7.392
 4369POPC   NC357947  20.651  38.989   5.171
 4369POPC   PO457948  20.597  38.305   5.334
 4369POPC   GL157949  20.520  38.430   5.748
 4369POPC   GL257950  20.321  38.151   5.764
 4369POPC   C1A57951  20.637  38.661   6.111
 4369POPC   D2A57952  20.535  38.842   6.532
 4369POPC   C3A57953  20.706  38.724   6.923
 4369POPC   C4A57954  20.508  38.508   7.256
 4369POPC   C1B57955  20.262  38.198   6.174
 4369POPC   C2B57956  20.079  38.400   6.493
 4369POPC   C3B57957  20.259  38.313   6.851
 4369POPC   C4B57958  20.130  38.175   7.210
 4370POPC   NC357959   8.555  34.668   5.398
 4370POPC   PO457960   9.255  34.701   5.419
 4370POPC   GL157961   9.132  34.661   5.837
 4370POPC   GL257962   8.782  34.787   5.857
 4370POPC   C1A57963   9.006  34.495   6.234
 4370POPC   D2A57964   8.925  34.225   6.573
 4370POPC   C3A57965   8.900  34.491   6.895
 4370POPC   C4A57966   9.171  34.789   7.100
 4370POPC   C1B57967   8.546  34.828   6.208
 4370POPC   C2B57968   8.455  34.661   6.594
 4370POPC   C3B57969   8.533  34.881   6.965
 4370POPC   C4B57970   8.679  34.689   7.301
 4371POPC   NC357971   8.170  19.534   5.424
 4371POPC   PO457972   8.580  20.094   5.556
 4371POPC   GL157973   8.335  19.834   5.812
 4371POPC   GL257974   7.975  19.860   5.767
 4371POPC   C1A57975   8.335  19.693   6.222
 4371POPC   D2A57976   8.156  19.738   6.633
 4371POPC   C3A57977   8.333  20.020   6.935
 4371POPC   C4A57978   8.349  19.846   7.325
 4371POPC   C1B57979   7.936  20.042   6.179
 4371POPC   C2B57980   7.706  19.950   6.564
 4371POPC   C3B57981   7.722  20.055   6.971
 4371POPC   C4B57982   7.855  19.844   7.310
 4372POPC   NC357983  26.906   8.383   5.498
 4372POPC   PO457984  26.316   8.174   5.325
 4372POPC   GL157985  26.529   8.119   5.758
 4372POPC   GL257986  26.903   8.007   5.841
 4372POPC   C1A57987  26.498   8.311   6.186
 4372POPC   D2A57988  26.552   8.529   6.600
 4372POPC   C3A57989  26.930   8.464   6.891
 4372POPC   C4A57990  26.993   8.517   7.365
 4372POPC   C1B57991  26.948   8.111   6.306
 4372POPC   C2B57992  27.081   7.955   6.737
 4372POPC   C3B57993  26.957   8.034   7.192
 4372POPC   C4B57994  26.715   7.834   7.517
 4373POPC   NC357995  17.929  31.092   5.492
 4373POPC   PO457996  17.622  31.651   5.311
 4373POPC   GL157997  17.719  31.536   5.721
 4373POPC   GL257998  17.386  31.631   5.824
 4373POPC   C1A57999  17.769  31.488   6.178
 4373POPC   D2A58000  17.548  31.646   6.524
 4373POPC   C3A58001  17.529  31.505   6.943
 4373POPC   C4A58002  17.340  31.729   7.290
 4373POPC   C1B58003  17.216  31.442   6.205
 4373POPC   C2B58004  17.402  31.173   6.532
 4373POPC   C3B58005  17.257  31.066   6.912
 4373POPC   C4B58006  17.298  31.125   7.324
 4374POPC   NC358007  21.090  41.747   4.926
 4374POPC   PO458008  21.410  41.356   5.465
 4374POPC   GL158009  21.367  41.589   5.868
 4374POPC   GL258010  21.223  41.266   5.951
 4374POPC   C1A58011  21.525  41.809   6.249
 4374POPC   D2A58012  21.418  41.774   6.690
 4374POPC   C3A58013  21.435  41.451   7.029
 4374POPC   C4A58014  21.387  41.548   7.449
 4374POPC   C1B58015  21.131  41.443   6.359
 4374POPC   C2B58016  21.004  41.456   6.782
 4374POPC   C3B58017  20.888  41.436   7.237
 4374POPC   C4B58018  20.969  41.321   7.679
 4375POPC   NC358019  28.294  41.923   5.394
 4375POPC   PO458020  27.957  41.436   5.428
 4375POPC   GL158021  28.102  41.540   5.845
 4375POPC   GL258022  28.426  41.416   5.833
 4375POPC   C1A58023  28.131  41.444   6.316
 4375POPC   D2A58024  28.286  41.336   6.744
 4375POPC   C3A58025  28.045  41.428   7.141
 4375POPC   C4A58026  28.080  41.238   7.568
 4375POPC   C1B58027  28.590  41.620   6.198
 4375POPC   C2B58028  28.522  41.784   6.608
 4375POPC   C3B58029  28.670  41.570   6.987
 4375POPC   C4B58030  28.660  41.550   7.419
 4376POPC   NC358031  23.866   8.659   5.478
 4376POPC   PO458032  23.744   8.004   5.372
 4376POPC   GL158033  23.733   8.200   5.769
 4376POPC   GL258034  23.439   8.072   5.923
 4376POPC   C1A58035  23.943   8.116   6.188
 4376POPC   D2A58036  23.779   7.884   6.542
 4376POPC   C3A58037  23.871   8.015   6.960
 4376POPC   C4A58038  23.831   8.243   7.326
 4376POPC   C1B58039  23.545   8.432   6.191
 4376POPC   C2B58040  23.707   8.422   6.614
 4376POPC   C3B58041  23.459   8.364   6.997
 4376POPC   C4B58042  23.325   8.276   7.446
 4377POPC   NC358043  32.559   3.165   4.991
 4377POPC   PO458044  32.303   3.674   5.434
 4377POPC   GL158045  32.246   3.367   5.756
 4377POPC   GL258046  32.480   3.552   5.935
 4377POPC   C1A58047  32.089   3.290   6.150
 4377POPC   D2A58048  32.284   3.487   6.472
 4377POPC   C3A58049  32.035   3.445   6.826
 4377POPC   C4A58050  32.077   3.473   7.238
 4377POPC   C1B58051  32.523   3.902   6.189
 4377POPC   C2B58052  32.589   3.886   6.611
 4377POPC   C3B58053  32.447   3.716   6.972
 4377POPC   C4B58054  32.663   3.890   7.282
 4378POPC   NC358055  25.450   4.883   5.499
 4378POPC   PO458056  25.158   5.362   5.548
 4378POPC   GL158057  25.390   5.208   5.923
 4378POPC   GL258058  25.404   4.843   6.007
 4378POPC   C1A58059  25.352   5.285   6.371
 4378POPC   D2A58060  25.466   5.027   6.708
 4378POPC   C3A58061  25.319   5.214   7.126
 4378POPC   C4A58062  25.232   5.324   7.581
 4378POPC   C1B58063  25.085   4.853   6.348
 4378POPC   C2B58064  24.965   5.133   6.710
 4378POPC   C3B58065  24.777   5.085   7.123
 4378POPC   C4B58066  24.814   5.031   7.569
 4379POPC   NC358067  17.092  41.402   5.397
 4379POPC   PO458068  16.423  41.455   5.306
 4379POPC   GL158069  16.594  41.612   5.731
 4379POPC   GL258070  16.746  41.301   5.759
 4379POPC   C1A58071  16.767  41.690   6.192
 4379POPC   D2A58072  17.030  41.869   6.589
 4379POPC   C3A58073  16.884  41.782   7.012
 4379POPC   C4A58074  16.461  41.786   7.094
 4379POPC   C1B58075  16.551  41.152   6.119
 4379POPC   C2B58076  16.789  41.243   6.457
 4379POPC   C3B58077  16.596  41.419   6.762
 4379POPC   C4B58078  16.469  41.293   7.149
 4380POPC   NC358079  13.158  32.049   5.473
 4380POPC   PO458080  13.845  32.169   5.291
 4380POPC   GL158081  13.753  32.213   5.776
 4380POPC   GL258082  13.427  32.328   5.919
 4380POPC   C1A58083  13.760  32.108   6.223
 4380POPC   D2A58084  13.579  32.115   6.636
 4380POPC   C3A58085  13.880  32.162   7.014
 4380POPC   C4A58086  13.759  32.356   7.432
 4380POPC   C1B58087  13.290  32.634   6.254
 4380POPC   C2B58088  13.327  32.735   6.723
 4380POPC   C3B58089  13.344  32.466   7.090
 4380POPC   C4B58090  13.429  32.019   7.126
 4381POPC   NC358091   5.469  10.402   5.497
 4381POPC   PO458092   4.778  10.585   5.359
 4381POPC   GL158093   4.844  10.372   5.769
 4381POPC   GL258094   5.129  10.552   5.856
 4381POPC   C1A58095   4.764  10.494   6.193
 4381POPC   D2A58096   4.882  10.632   6.593
 4381POPC   C3A58097   4.843  10.331   6.928
 4381POPC   C4A58098   4.906  10.397   7.390
 4381POPC   C1B58099   5.287  10.445   6.281
 4381POPC   C2B58100   5.401  10.659   6.655
 4381POPC   C3B58101   5.180  10.678   7.056
 4381POPC   C4B58102   5.343  10.623   7.489
 4382POPC   NC358103   8.974  39.589   5.640
 4382POPC   PO458104   8.998  40.236   5.411
 4382POPC   GL158105   8.940  40.080   5.812
 4382POPC   GL258106   8.602  40.153   5.805
 4382POPC   C1A58107   9.073  39.998   6.241
 4382POPC   D2A58108   9.267  40.092   6.642
 4382POPC   C3A58109   9.162  39.781   6.964
 4382POPC   C4A58110   9.043  39.800   7.372
 4382POPC   C1B58111   8.620  40.274   6.233
 4382POPC   C2B58112   8.764  40.201   6.639
 4382POPC   C3B58113   8.908  40.228   7.047
 4382POPC   C4B58114   8.684  40.144   7.417
 4383POPC   NC358115  44.991  16.393   5.550
 4383POPC   PO458116  44.498  16.664   5.412
 4383POPC   GL158117  44.656  16.672   5.866
 4383POPC   GL258118  44.991  16.802   5.913
 4383POPC   C1A58119  44.587  16.627   6.341
 4383POPC   D2A58120  44.562  16.401   6.765
 4383POPC   C3A58121  44.560  16.651   7.155
 4383POPC   C4A58122  44.407  16.630   7.596
 4383POPC   C1B58123   0.095  16.575   6.320
 4383POPC   C2B58124   0.010  16.663   6.786
 4383POPC   C3B58125   0.039  16.851   7.214
 4383POPC   C4B58126   0.155  17.052   7.628
 4384POPC   NC358127  19.982  28.080   5.426
 4384POPC   PO458128  19.896  28.763   5.423
 4384POPC   GL158129  19.821  28.450   5.800
 4384POPC   GL258130  19.662  28.088   5.821
 4384POPC   C1A58131  19.900  28.512   6.273
 4384POPC   D2A58132  20.136  28.361   6.665
 4384POPC   C3A58133  19.976  28.453   7.082
 4384POPC   C4A58134  19.710  28.779   7.206
 4384POPC   C1B58135  19.865  28.011   6.253
 4384POPC   C2B58136  19.724  28.070   6.700
 4384POPC   C3B58137  19.676  28.041   7.150
 4384POPC   C4B58138  19.462  28.213   7.513
 4385POPC   NC358139  28.644  10.009   5.611
 4385POPC   PO458140  29.234  10.297   5.467
 4385POPC   GL158141  29.188  10.320   5.919
 4385POPC   GL258142  28.837  10.343   5.943
 4385POPC   C1A58143  29.138  10.351   6.373
 4385POPC   D2A58144  28.914  10.697   6.543
 4385POPC   C3A58145  29.012  10.747   6.968
 4385POPC   C4A58146  29.380  10.845   7.224
 4385POPC   C1B58147  28.605  10.309   6.334
 4385POPC   C2B58148  28.710  10.301   6.781
 4385POPC   C3B58149  28.762  10.401   7.251
 4385POPC   C4B58150  28.709  10.385   7.745
 4386POPC   NC358151  10.649  31.589   5.439
 4386POPC   PO458152  10.321  31.018   5.315
 4386POPC   GL158153  10.467  31.223   5.732
 4386POPC   GL258154  10.291  31.536   5.804
 4386POPC   C1A58155  10.650  31.392   6.143
 4386POPC   D2A58156  10.456  31.468   6.581
 4386POPC   C3A58157  10.615  31.542   7.003
 4386POPC   C4A58158  10.771  31.652   7.416
 4386POPC   C1B58159  10.109  31.481   6.213
 4386POPC   C2B58160   9.938  31.332   6.633
 4386POPC   C3B58161   9.978  31.471   7.075
 4386POPC   C4B58162  10.300  31.418   7.396
 4387POPC   NC358163   3.805  34.990   5.429
 4387POPC   PO458164   3.057  35.034   5.406
 4387POPC   GL158165   3.318  35.116   5.765
 4387POPC   GL258166   3.145  35.347   5.964
 4387POPC   C1A58167   3.644  35.044   6.111
 4387POPC   D2A58168   3.864  35.056   6.511
 4387POPC   C3A58169   3.762  35.424   6.748
 4387POPC   C4A58170   3.922  35.534   7.142
 4387POPC   C1B58171   3.318  35.390   6.391
 4387POPC   C2B58172   3.278  35.650   6.772
 4387POPC   C3B58173   3.372  35.452   7.167
 4387POPC   C4B58174   3.641  35.085   7.121
 4388POPC   NC358175   5.270  29.659   5.450
 4388POPC   PO458176   5.260  30.290   5.706
 4388POPC   GL158177   5.048  29.921   5.862
 4388POPC   GL258178   4.671  29.994   5.918
 4388POPC   C1A58179   5.120  29.674   6.235
 4388POPC   D2A58180   4.959  29.552   6.648
 4388POPC   C3A58181   5.227  29.725   6.966
 4388POPC   C4A58182   5.307  30.065   7.285
 4388POPC   C1B58183   4.859  30.175   6.322
 4388POPC   C2B58184   4.979  30.155   6.786
 4388POPC   C3B58185   4.824  29.958   7.194
 4388POPC   C4B58186   4.559  29.991   7.581
 4389POPC   NC358187  24.016  33.016   5.573
 4389POPC   PO458188  23.466  32.926   5.551
 4389POPC   GL158189  23.630  33.089   5.952
 4389POPC   GL258190  23.896  33.346   5.953
 4389POPC   C1A58191  23.607  33.259   6.393
 4389POPC   D2A58192  23.650  33.351   6.835
 4389POPC   C3A58193  23.465  33.050   7.120
 4389POPC   C4A58194  23.632  32.635   7.237
 4389POPC   C1B58195  24.033  33.018   6.273
 4389POPC   C2B58196  23.874  32.896   6.705
 4389POPC   C3B58197  23.967  33.052   7.125
 4389POPC   C4B58198  23.773  33.428   7.334
 4390POPC   NC358199  12.824  38.549   5.229
 4390POPC   PO458200  12.498  39.068   5.151
 4390POPC   GL158201  12.573  38.778   5.609
 4390POPC   GL258202  12.914  38.680   5.738
 4390POPC   C1A58203  12.556  38.713   6.104
 4390POPC   D2A58204  12.733  38.373   6.409
 4390POPC   C3A58205  12.644  38.362   6.869
 4390POPC   C4A58206  12.745  38.197   7.283
 4390POPC   C1B58207  13.122  38.654   6.163
 4390POPC   C2B58208  13.264  38.391   6.554
 4390POPC   C3B58209  13.156  38.330   7.007
 4390POPC   C4B58210  12.963  38.654   7.294
 4391POPC   NC358211  39.011  29.733   5.516
 4391POPC   PO458212  38.746  30.321   5.465
 4391POPC   GL158213  38.954  30.163   5.835
 4391POPC   GL258214  39.303  30.023   5.849
 4391POPC   C1A58215  38.950  29.991   6.245
 4391POPC   D2A58216  38.995  29.868   6.670
 4391POPC   C3A58217  39.135  30.152   6.970
 4391POPC   C4A58218  39.189  30.174   7.425
 4391POPC   C1B58219  39.432  29.816   6.260
 4391POPC   C2B58220  39.693  29.716   6.635
 4391POPC   C3B58221  39.573  29.607   7.022
 4391POPC   C4B58222  39.163  29.670   7.185
 4392POPC   NC358223   6.380  15.659   5.247
 4392POPC   PO458224   6.834  16.144   5.322
 4392POPC   GL158225   6.692  15.990   5.750
 4392POPC   GL258226   6.892  15.713   5.879
 4392POPC   C1A58227   6.571  16.249   6.135
 4392POPC   D2A58228   6.364  16.347   6.540
 4392POPC   C3A58229   6.603  16.313   6.935
 4392POPC   C4A58230   6.370  16.088   7.219
 4392POPC   C1B58231   6.767  15.802   6.317
 4392POPC   C2B58232   6.553  15.859   6.727
 4392POPC   C3B58233   6.716  15.740   7.177
 4392POPC   C4B58234   7.011  15.757   7.574
 4393POPC   NC358235  27.220  44.530   5.146
 4393POPC   PO458236  27.711  44.379   5.380
 4393POPC   GL158237  27.674  44.440   5.836
 4393POPC   GL258238  27.503  44.750   5.823
 4393POPC   C1A58239  27.702  44.504   6.320
 4393POPC   D2A58240  27.611  44.313   6.730
 4393POPC   C3A58241  27.732  44.347   7.170
 4393POPC   C4A58242  27.873  44.535   7.559
 4393POPC   C1B58243  27.361  44.883   6.237
 4393POPC   C2B58244  27.422  44.806   6.686
 4393POPC   C3B58245  27.691  44.861   7.049
 4393POPC   C4B58246  27.763   0.058   7.472
 4394POPC   NC358247   2.738   7.485   5.501
 4394POPC   PO458248   2.944   8.063   5.237
 4394POPC   GL158249   3.132   7.771   5.689
 4394POPC   GL258250   3.141   7.382   5.822
 4394POPC   C1A58251   2.966   7.674   6.199
 4394POPC   D2A58252   2.709   7.541   6.619
 4394POPC   C3A58253   2.950   7.436   7.028
 4394POPC   C4A58254   3.356   7.566   7.263
 4394POPC   C1B58255   2.930   7.117   6.184
 4394POPC   C2B58256   2.971   7.055   6.668
 4394POPC   C3B58257   2.746   6.945   7.058
 4394POPC   C4B58258   2.339   7.135   7.139
 4395POPC   NC358259  27.066  15.806   5.176
 4395POPC   PO458260  26.604  15.519   5.617
 4395POPC   GL158261  26.548  15.911   5.926
 4395POPC   GL258262  26.851  16.163   6.001
 4395POPC   C1A58263  26.594  15.973   6.389
 4395POPC   D2A58264  26.887  15.949   6.770
 4395POPC   C3A58265  26.696  15.853   7.154
 4395POPC   C4A58266  26.433  16.172   7.317
 4395POPC   C1B58267  27.096  15.870   6.296
 4395POPC   C2B58268  27.390  15.918   6.618
 4395POPC   C3B58269  27.327  16.213   6.929
 4395POPC   C4B58270  27.088  16.162   7.269
 4396POPC   NC358271   5.122  38.111   5.417
 4396POPC   PO458272   5.002  38.821   5.373
 4396POPC   GL158273   5.044  38.567   5.761
 4396POPC   GL258274   4.831  38.290   5.833
 4396POPC   C1A58275   4.956  38.649   6.204
 4396POPC   D2A58276   4.751  38.523   6.585
 4396POPC   C3A58277   4.917  38.613   7.002
 4396POPC   C4A58278   5.170  38.289   7.160
 4396POPC   C1B58279   4.958  38.143   6.240
 4396POPC   C2B58280   4.919  37.984   6.662
 4396POPC   C3B58281   4.680  38.011   7.057
 4396POPC   C4B58282   4.715  38.314   7.406
 4397POPC   NC358283   4.173  17.499   5.351
 4397POPC   PO458284   4.598  17.002   5.170
 4397POPC   GL158285   4.528  17.221   5.638
 4397POPC   GL258286   4.487  17.577   5.758
 4397POPC   C1A58287   4.405  17.266   6.133
 4397POPC   D2A58288   4.467  17.576   6.473
 4397POPC   C3A58289   4.338  17.451   6.893
 4397POPC   C4A58290   4.437  17.642   7.287
 4397POPC   C1B58291   4.125  17.681   6.030
 4397POPC   C2B58292   3.970  17.740   6.451
 4397POPC   C3B58293   3.999  17.868   6.897
 4397POPC   C4B58294   3.992  17.850   7.347
 4398POPC   NC358295  12.783  41.861   5.213
 4398POPC   PO458296  12.287  41.406   5.191
 4398POPC   GL158297  12.559  41.566   5.595
 4398POPC   GL258298  12.746  41.898   5.718
 4398POPC   C1A58299  12.643  41.498   6.076
 4398POPC   D2A58300  12.857  41.381   6.485
 4398POPC   C3A58301  12.691  41.508   6.902
 4398POPC   C4A58302  12.625  41.310   7.288
 4398POPC   C1B58303  12.940  41.914   6.125
 4398POPC   C2B58304  12.839  41.881   6.571
 4398POPC   C3B58305  12.902  41.992   7.018
 4398POPC   C4B58306  12.694  41.804   7.359
 4399POPC   NC358307  44.536  11.027   5.233
 4399POPC   PO458308  44.440  11.614   5.347
 4399POPC   GL158309  44.393  11.366   5.716
 4399POPC   GL258310  44.735  11.295   5.699
 4399POPC   C1A58311  44.350  11.301   6.185
 4399POPC   D2A58312  44.562  11.316   6.618
 4399POPC   C3A58313  44.481  11.361   7.080
 4399POPC   C4A58314  44.456  11.474   7.575
 4399POPC   C1B58315  44.777  11.572   6.048
 4399POPC   C2B58316  44.974  11.534   6.421
 4399POPC   C3B58317   0.036  11.428   6.833
 4399POPC   C4B58318  44.911  11.594   7.215
 4400POPC   NC358319  15.915  35.594   5.080
 4400POPC   PO458320  16.065  34.978   5.313
 4400POPC   GL158321  16.157  35.250   5.720
 4400POPC   GL258322  16.267  35.609   5.687
 4400POPC   C1A58323  15.944  35.253   6.157
 4400POPC   D2A58324  16.011  35.473   6.561
 4400POPC   C3A58325  16.034  35.323   6.992
 4400POPC   C4A58326  15.773  35.422   7.363
 4400POPC   C1B58327  16.354  35.570   6.143
 4400POPC   C2B58328  16.439  35.750   6.568
 4400POPC   C3B58329  16.219  35.812   6.957
 4400POPC   C4B58330  16.203  35.695   7.400
 4401POPC   NC358331   2.125  42.680   5.461
 4401POPC   PO458332   2.399  42.127   5.371
 4401POPC   GL158333   2.133  42.195   5.761
 4401POPC   GL258334   1.922  42.500   5.882
 4401POPC   C1A58335   1.946  42.098   6.182
 4401POPC   D2A58336   1.839  42.367   6.533
 4401POPC   C3A58337   1.913  42.204   6.943
 4401POPC   C4A58338   1.872  42.337   7.354
 4401POPC   C1B58339   2.280  42.520   6.200
 4401POPC   C2B58340   2.338  42.445   6.671
 4401POPC   C3B58341   2.133  42.689   7.010
 4401POPC   C4B58342   2.156  42.756   7.483
 4402POPC   NC358343   0.114  31.470   5.594
 4402POPC   PO458344   0.732  31.820   5.558
 4402POPC   GL158345   0.583  31.548   5.907
 4402POPC   GL258346   0.702  31.220   5.939
 4402POPC   C1A58347   0.484  31.497   6.368
 4402POPC   D2A58348   0.500  31.590   6.820
 4402POPC   C3A58349   0.701  31.292   7.119
 4402POPC   C4A58350   0.493  31.112   7.521
 4402POPC   C1B58351   0.302  31.113   6.108
 4402POPC   C2B58352   0.117  31.128   6.530
 4402POPC   C3B58353  44.954  31.394   6.857
 4402POPC   C4B58354  44.813  31.263   7.271
 4403POPC   NC358355   4.418   5.712   5.003
 4403POPC   PO458356   3.925   5.514   5.289
 4403POPC   GL158357   4.037   5.694   5.677
 4403POPC   GL258358   4.384   5.581   5.732
 4403POPC   C1A58359   4.082   5.866   6.108
 4403POPC   D2A58360   4.257   5.841   6.551
 4403POPC   C3A58361   4.090   6.194   6.795
 4403POPC   C4A58362   4.035   6.223   7.240
 4403POPC   C1B58363   4.310   5.411   6.175
 4403POPC   C2B58364   4.415   5.343   6.633
 4403POPC   C3B58365   4.631   5.589   6.936
 4403POPC   C4B58366   4.479   5.985   7.083
 4404POPC   NC358367  38.017  29.631   5.516
 4404POPC   PO458368  37.523  29.202   5.352
 4404POPC   GL158369  37.776  29.200   5.732
 4404POPC   GL258370  37.643  28.919   5.886
 4404POPC   C1A58371  37.861  29.269   6.220
 4404POPC   D2A58372  37.762  29.254   6.683
 4404POPC   C3A58373  37.849  29.509   7.078
 4404POPC   C4A58374  37.802  29.445   7.542
 4404POPC   C1B58375  37.487  28.910   6.304
 4404POPC   C2B58376  37.590  28.745   6.710
 4404POPC   C3B58377  37.516  28.749   7.148
 4404POPC   C4B58378  37.395  29.154   7.364
 4405POPC   NC358379  34.947   4.193   5.356
 4405POPC   PO458380  34.323   4.232   5.463
 4405POPC   GL158381  34.454   4.056   5.858
 4405POPC   GL258382  34.769   4.255   5.848
 4405POPC   C1A58383  34.510   4.120   6.325
 4405POPC   D2A58384  34.461   4.505   6.566
 4405POPC   C3A58385  34.492   4.459   7.007
 4405POPC   C4A58386  34.431   4.123   7.255
 4405POPC   C1B58387  34.972   4.343   6.253
 4405POPC   C2B58388  34.955   4.417   6.710
 4405POPC   C3B58389  34.952   4.165   7.076
 4405POPC   C4B58390  34.949   4.040   7.492
 4406POPC   NC358391  40.855   0.231   5.354
 4406POPC   PO458392  40.248   0.494   5.523
 4406POPC   GL158393  40.585   0.326   5.817
 4406POPC   GL258394  40.973   0.413   5.808
 4406POPC   C1A58395  40.700   0.519   6.228
 4406POPC   D2A58396  40.855   0.696   6.618
 4406POPC   C3A58397  40.583   0.430   6.860
 4406POPC   C4A58398  40.554   0.288   7.252
 4406POPC   C1B58399  41.214   0.490   6.175
 4406POPC   C2B58400  41.345   0.530   6.597
 4406POPC   C3B58401  41.130   0.467   7.010
 4406POPC   C4B58402  40.801   0.740   7.181
 4407POPC   NC358403  43.278  30.322   5.256
 4407POPC   PO458404  43.583  29.742   5.197
 4407POPC   GL158405  43.430  29.808   5.604
 4407POPC   GL258406  43.728  29.702   5.766
 4407POPC   C1A58407  43.335  29.862   6.074
 4407POPC   D2A58408  43.141  29.918   6.504
 4407POPC   C3A58409  43.296  29.888   6.952
 4407POPC   C4A58410  43.121  30.020   7.345
 4407POPC   C1B58411  43.706  29.498   6.180
 4407POPC   C2B58412  43.583  29.566   6.613
 4407POPC   C3B58413  43.529  29.441   7.030
 4407POPC   C4B58414  43.546  29.717   7.393
 4408POPC   NC358415  30.142  17.031   5.395
 4408POPC   PO458416  29.450  16.824   5.412
 4408POPC   GL158417  29.823  16.751   5.691
 4408POPC   GL258418  30.021  16.433   5.713
 4408POPC   C1A58419  29.986  16.841   6.110
 4408POPC   D2A58420  29.715  16.951   6.467
 4408POPC   C3A58421  29.816  16.858   6.890
 4408POPC   C4A58422  29.988  16.714   7.285
 4408POPC   C1B58423  29.882  16.330   6.140
 4408POPC   C2B58424  30.017  16.492   6.544
 4408POPC   C3B58425  29.966  16.327   6.952
 4408POPC   C4B58426  29.719  16.278   7.304
 4409POPC   NC358427  12.339  28.501   5.275
 4409POPC   PO458428  11.764  28.311   5.169
 4409POPC   GL158429  11.849  28.196   5.634
 4409POPC   GL258430  12.192  28.268   5.771
 4409POPC   C1A58431  11.772  28.113   6.091
 4409POPC   D2A58432  11.717  28.302   6.530
 4409POPC   C3A58433  11.999  28.220   6.880
 4409POPC   C4A58434  11.993  28.260   7.305
 4409POPC   C1B58435  12.170  28.397   6.252
 4409POPC   C2B58436  12.079  28.659   6.641
 4409POPC   C3B58437  11.834  28.691   7.049
 4409POPC   C4B58438  11.905  28.814   7.501
 4410POPC   NC358439   8.287  29.327   5.303
 4410POPC   PO458440   7.986  28.738   5.112
 4410POPC   GL158441   8.066  28.904   5.556
 4410POPC   GL258442   7.973  29.235   5.697
 4410POPC   C1A58443   8.293  28.942   5.973
 4410POPC   D2A58444   8.217  29.001   6.436
 4410POPC   C3A58445   8.445  29.063   6.819
 4410POPC   C4A58446   8.270  29.053   7.231
 4410POPC   C1B58447   8.170  29.433   6.062
 4410POPC   C2B58448   8.032  29.537   6.474
 4410POPC   C3B58449   7.832  29.684   6.829
 4410POPC   C4B58450   8.124  29.560   7.175
 4411POPC   NC358451  36.076  31.723   5.580
 4411POPC   PO458452  36.330  31.105   5.404
 4411POPC   GL158453  36.190  31.241   5.845
 4411POPC   GL258454  35.864  31.339   5.863
 4411POPC   C1A58455  36.138  31.529   6.235
 4411POPC   D2A58456  35.909  31.539   6.617
 4411POPC   C3A58457  36.142  31.577   7.016
 4411POPC   C4A58458  36.012  31.401   7.426
 4411POPC   C1B58459  35.666  31.707   6.145
 4411POPC   C2B58460  35.629  31.981   6.500
 4411POPC   C3B58461  35.530  31.819   6.891
 4411POPC   C4B58462  35.777  31.827   7.266
 4412POPC   NC358463   5.118  18.899   5.461
 4412POPC   PO458464   5.424  19.451   5.752
 4412POPC   GL158465   5.199  19.132   5.979
 4412POPC   GL258466   4.880  18.899   5.919
 4412POPC   C1A58467   5.169  19.180   6.431
 4412POPC   D2A58468   4.913  18.991   6.743
 4412POPC   C3A58469   5.009  19.182   7.108
 4412POPC   C4A58470   5.227  19.375   7.431
 4412POPC   C1B58471   5.079  18.701   6.276
 4412POPC   C2B58472   5.329  18.722   6.652
 4412POPC   C3B58473   5.151  18.646   7.057
 4412POPC   C4B58474   5.065  18.773   7.487
 4413POPC   NC358475   2.589  27.674   5.516
 4413POPC   PO458476   3.238  27.622   5.388
 4413POPC   GL158477   3.040  27.665   5.804
 4413POPC   GL258478   2.713  27.804   5.989
 4413POPC   C1A58479   3.040  27.455   6.196
 4413POPC   D2A58480   2.968  27.559   6.620
 4413POPC   C3A58481   2.885  27.438   7.035
 4413POPC   C4A58482   2.937  27.878   7.203
 4413POPC   C1B58483   2.553  27.451   6.307
 4413POPC   C2B58484   2.493  27.358   6.699
 4413POPC   C3B58485   2.506  27.753   6.914
 4413POPC   C4B58486   2.488  27.702   7.332
 4414POPC   NC358487  14.999  43.102   5.429
 4414POPC   PO458488  15.469  43.576   5.332
 4414POPC   GL158489  15.419  43.256   5.695
 4414POPC   GL258490  15.331  42.873   5.802
 4414POPC   C1A58491  15.200  43.278   6.097
 4414POPC   D2A58492  15.262  43.403   6.520
 4414POPC   C3A58493  15.053  43.259   6.856
 4414POPC   C4A58494  15.055  43.402   7.257
 4414POPC   C1B58495  15.574  42.933   6.214
 4414POPC   C2B58496  15.698  43.090   6.634
 4414POPC   C3B58497  15.653  42.939   7.019
 4414POPC   C4B58498  15.304  42.968   7.213
 4415POPC   NC358499  35.291  18.351   5.275
 4415POPC   PO458500  35.710  17.901   5.510
 4415POPC   GL158501  35.381  18.162   5.752
 4415POPC   GL258502  35.375  18.518   5.776
 4415POPC   C1A58503  35.171  18.186   6.160
 4415POPC   D2A58504  35.378  18.178   6.561
 4415POPC   C3A58505  35.246  17.981   6.953
 4415POPC   C4A58506  35.409  18.134   7.356
 4415POPC   C1B58507  35.154  18.722   6.110
 4415POPC   C2B58508  35.009  18.552   6.486
 4415POPC   C3B58509  35.136  18.499   6.883
 4415POPC   C4B58510  34.964  18.335   7.237
 4416POPC   NC358511   1.888   6.270   5.047
 4416POPC   PO458512   1.926   5.848   5.532
 4416POPC   GL158513   1.955   5.679   5.923
 4416POPC   GL258514   1.792   5.981   6.044
 4416POPC   C1A58515   2.097   5.668   6.334
 4416POPC   D2A58516   1.915   5.953   6.624
 4416POPC   C3A58517   1.873   5.730   6.948
 4416POPC   C4A58518   1.821   5.754   7.354
 4416POPC   C1B58519   1.643   6.279   6.340
 4416POPC   C2B58520   1.415   6.249   6.759
 4416POPC   C3B58521   1.704   6.188   7.109
 4416POPC   C4B58522   2.173   6.107   7.151
 4417POPC   NC358523   4.154   7.746   5.422
 4417POPC   PO458524   3.948   7.161   5.502
 4417POPC   GL158525   4.068   7.316   5.912
 4417POPC   GL258526   3.790   7.143   6.057
 4417POPC   C1A58527   4.324   7.429   6.306
 4417POPC   D2A58528   4.224   7.438   6.766
 4417POPC   C3A58529   4.473   7.581   7.105
 4417POPC   C4A58530   4.331   7.608   7.514
 4417POPC   C1B58531   3.828   7.525   6.348
 4417POPC   C2B58532   3.818   7.778   6.737
 4417POPC   C3B58533   3.892   7.660   7.188
 4417POPC   C4B58534   3.842   7.414   7.582
 4418POPC   NC358535   6.923  22.925   5.298
 4418POPC   PO458536   6.332  22.810   5.599
 4418POPC   GL158537   6.713  23.019   5.772
 4418POPC   GL258538   7.005  22.789   5.785
 4418POPC   C1A58539   6.640  23.093   6.209
 4418POPC   D2A58540   6.465  22.813   6.493
 4418POPC   C3A58541   6.395  22.864   6.934
 4418POPC   C4A58542   6.476  22.688   7.334
 4418POPC   C1B58543   7.118  22.989   6.148
 4418POPC   C2B58544   6.970  22.963   6.593
 4418POPC   C3B58545   6.916  22.885   7.032
 4418POPC   C4B58546   6.912  22.894   7.477
 4419POPC   NC358547  24.195  34.637   5.377
 4419POPC   PO458548  24.650  34.202   5.357
 4419POPC   GL158549  24.431  34.407   5.784
 4419POPC   GL258550  24.330  34.787   5.849
 4419POPC   C1A58551  24.458  34.521   6.268
 4419POPC   D2A58552  24.272  34.753   6.662
 4419POPC   C3A58553  24.434  34.640   7.113
 4419POPC   C4A58554  24.304  34.751   7.558
 4419POPC   C1B58555  24.371  35.042   6.247
 4419POPC   C2B58556  24.655  35.172   6.604
 4419POPC   C3B58557  24.712  35.077   7.038
 4419POPC   C4B58558  24.820  34.891   7.419
 4420POPC   NC358559  35.681  41.763   5.390
 4420POPC   PO458560  35.116  41.445   5.508
 4420POPC   GL158561  35.285  41.535   5.882
 4420POPC   GL258562  35.635  41.543   5.856
 4420POPC   C1A58563  35.090  41.637   6.275
 4420POPC   D2A58564  34.943  41.790   6.656
 4420POPC   C3A58565  34.943  41.478   6.983
 4420POPC   C4A58566  35.301  41.438   7.235
 4420POPC   C1B58567  35.572  41.458   6.302
 4420POPC   C2B58568  35.435  41.524   6.728
 4420POPC   C3B58569  35.739  41.596   7.071
 4420POPC   C4B58570  35.764  41.418   7.511
 4421POPC   NC358571   0.677  17.035   5.335
 4421POPC   PO458572   0.455  16.402   5.534
 4421POPC   GL158573   0.472  16.647   5.887
 4421POPC   GL258574   0.788  16.686   5.881
 4421POPC   C1A58575   0.464  16.918   6.274
 4421POPC   D2A58576   0.383  17.022   6.717
 4421POPC   C3A58577   0.506  16.724   7.013
 4421POPC   C4A58578   0.345  16.465   7.314
 4421POPC   C1B58579   0.736  16.480   6.304
 4421POPC   C2B58580   0.877  16.478   6.742
 4421POPC   C3B58581   0.762  16.217   7.100
 4421POPC   C4B58582   0.386  15.964   7.250
 4422POPC   NC358583   9.607  25.645   5.502
 4422POPC   PO458584   9.774  25.139   5.008
 4422POPC   GL158585   9.790  25.174   5.563
 4422POPC   GL258586  10.037  25.153   5.867
 4422POPC   C1A58587   9.589  25.285   6.038
 4422POPC   D2A58588   9.639  25.132   6.472
 4422POPC   C3A58589   9.549  25.259   6.887
 4422POPC   C4A58590   9.706  24.988   7.214
 4422POPC   C1B58591  10.066  25.386   6.263
 4422POPC   C2B58592   9.921  25.512   6.653
 4422POPC   C3B58593  10.008  25.387   7.086
 4422POPC   C4B58594   9.647  25.457   7.391
 4423POPC   NC358595   9.482  26.576   5.298
 4423POPC   PO458596   9.994  26.876   5.154
 4423POPC   GL158597   9.846  26.869   5.631
 4423POPC   GL258598   9.488  26.766   5.768
 4423POPC   C1A58599   9.872  26.805   6.110
 4423POPC   D2A58600  10.034  26.681   6.534
 4423POPC   C3A58601  10.185  26.972   6.839
 4423POPC   C4A58602   9.954  26.823   7.159
 4423POPC   C1B58603   9.332  26.472   6.109
 4423POPC   C2B58604   9.330  26.209   6.516
 4423POPC   C3B58605   9.376  26.280   6.992
 4423POPC   C4B58606   9.603  26.510   7.340
 4424POPC   NC358607  30.763  21.642   5.270
 4424POPC   PO458608  31.052  21.125   5.092
 4424POPC   GL158609  30.923  21.223   5.586
 4424POPC   GL258610  30.681  21.491   5.758
 4424POPC   C1A58611  30.834  21.119   6.068
 4424POPC   D2A58612  30.777  21.365   6.473
 4424POPC   C3A58613  30.792  21.181   6.900
 4424POPC   C4A58614  30.874  21.373   7.321
 4424POPC   C1B58615  30.438  21.621   6.139
 4424POPC   C2B58616  30.484  21.798   6.547
 4424POPC   C3B58617  30.587  21.652   6.936
 4424POPC   C4B58618  30.505  21.727   7.346
 4425POPC   NC358619  15.372  37.114   5.393
 4425POPC   PO458620  14.761  36.976   5.697
 4425POPC   GL158621  15.189  36.949   5.854
 4425POPC   GL258622  15.276  36.616   5.740
 4425POPC   C1A58623  15.354  37.110   6.249
 4425POPC   D2A58624  15.366  36.940   6.670
 4425POPC   C3A58625  15.259  37.153   7.041
 4425POPC   C4A58626  15.013  37.027   7.409
 4425POPC   C1B58627  15.403  36.602   6.208
 4425POPC   C2B58628  15.277  36.436   6.641
 4425POPC   C3B58629  15.160  36.604   7.073
 4425POPC   C4B58630  15.161  36.538   7.539
 4426POPC   NC358631  37.978  34.025   5.430
 4426POPC   PO458632  37.317  33.862   5.380
 4426POPC   GL158633  37.515  33.609   5.723
 4426POPC   GL258634  37.784  33.778   5.860
 4426POPC   C1A58635  37.437  33.632   6.222
 4426POPC   D2A58636  37.674  33.666   6.622
 4426POPC   C3A58637  37.540  33.825   7.047
 4426POPC   C4A58638  37.411  33.907   7.500
 4426POPC   C1B58639  37.736  34.047   6.243
 4426POPC   C2B58640  37.689  34.193   6.679
 4426POPC   C3B58641  37.894  34.289   7.055
 4426POPC   C4B58642  37.831  34.216   7.485
 4427POPC   NC358643   8.369  38.838   5.372
 4427POPC   PO458644   8.010  39.296   5.045
 4427POPC   GL158645   8.072  39.210   5.558
 4427POPC   GL258646   7.847  38.989   5.724
 4427POPC   C1A58647   8.159  39.277   6.047
 4427POPC   D2A58648   8.251  39.470   6.473
 4427POPC   C3A58649   8.489  39.279   6.829
 4427POPC   C4A58650   8.332  39.407   7.204
 4427POPC   C1B58651   7.880  38.858   6.152
 4427POPC   C2B58652   8.119  38.944   6.519
 4427POPC   C3B58653   7.985  39.189   6.866
 4427POPC   C4B58654   7.885  39.190   7.296
 4428POPC   NC358655  40.120  39.035   5.322
 4428POPC   PO458656  40.123  38.315   5.396
 4428POPC   GL158657  40.219  38.231   5.866
 4428POPC   GL258658  40.080  38.483   6.097
 4428POPC   C1A58659  40.100  38.078   6.348
 4428POPC   D2A58660  39.756  38.302   6.553
 4428POPC   C3A58661  39.781  38.308   7.007
 4428POPC   C4A58662  40.081  38.033   7.156
 4428POPC   C1B58663  39.934  38.752   6.385
 4428POPC   C2B58664  40.003  38.727   6.794
 4428POPC   C3B58665  40.240  38.529   7.096
 4428POPC   C4B58666  40.107  38.422   7.495
 4429POPC   NC358667  36.771  26.338   5.447
 4429POPC   PO458668  37.145  25.751   5.404
 4429POPC   GL158669  36.831  25.736   5.751
 4429POPC   GL258670  36.892  26.074   5.876
 4429POPC   C1A58671  36.771  25.736   6.237
 4429POPC   D2A58672  36.884  25.986   6.628
 4429POPC   C3A58673  36.903  25.849   7.049
 4429POPC   C4A58674  36.542  25.742   7.304
 4429POPC   C1B58675  37.028  26.317   6.262
 4429POPC   C2B58676  37.210  26.389   6.721
 4429POPC   C3B58677  37.254  26.230   7.184
 4429POPC   C4B58678  37.370  26.206   7.702
 4430POPC   NC358679  27.798   8.736   5.214
 4430POPC   PO458680  27.317   9.187   5.506
 4430POPC   GL158681  27.475   8.912   5.843
 4430POPC   GL258682  27.359   8.518   5.856
 4430POPC   C1A58683  27.708   8.969   6.259
 4430POPC   D2A58684  27.618   9.247   6.583
 4430POPC   C3A58685  27.725   9.050   6.964
 4430POPC   C4A58686  28.088   8.834   7.133
 4430POPC   C1B58687  27.221   8.575   6.297
 4430POPC   C2B58688  27.392   8.773   6.653
 4430POPC   C3B58689  27.337   8.762   7.086
 4430POPC   C4B58690  27.649   8.703   7.386
 4431POPC   NC358691  38.026   7.899   5.433
 4431POPC   PO458692  37.436   8.267   5.406
 4431POPC   GL158693  37.631   8.221   5.792
 4431POPC   GL258694  37.962   8.334   5.732
 4431POPC   C1A58695  37.538   8.254   6.250
 4431POPC   D2A58696  37.379   8.169   6.686
 4431POPC   C3A58697  37.461   8.285   7.120
 4431POPC   C4A58698  37.515   8.012   7.517
 4431POPC   C1B58699  38.023   8.406   6.174
 4431POPC   C2B58700  37.886   8.363   6.644
 4431POPC   C3B58701  37.924   8.517   7.080
 4431POPC   C4B58702  37.848   8.385   7.506
 4432POPC   NC358703   7.128  30.669   5.478
 4432POPC   PO458704   7.885  30.753   5.358
 4432POPC   GL158705   7.600  30.747   5.749
 4432POPC   GL258706   7.280  30.903   5.938
 4432POPC   C1A58707   7.566  30.534   6.156
 4432POPC   D2A58708   7.770  30.573   6.553
 4432POPC   C3A58709   7.696  30.718   6.997
 4432POPC   C4A58710   7.376  30.533   7.271
 4432POPC   C1B58711   7.429  30.976   6.394
 4432POPC   C2B58712   7.237  30.884   6.809
 4432POPC   C3B58713   6.972  30.871   7.185
 4432POPC   C4B58714   7.165  30.962   7.570
 4433POPC   NC358715   3.244   9.143   5.606
 4433POPC   PO458716   2.599   8.885   5.465
 4433POPC   GL158717   2.757   9.013   5.862
 4433POPC   GL258718   2.979   8.746   5.892
 4433POPC   C1A58719   2.736   9.270   6.269
 4433POPC   D2A58720   2.943   9.409   6.673
 4433POPC   C3A58721   2.846   9.227   7.079
 4433POPC   C4A58722   2.832   9.114   7.537
 4433POPC   C1B58723   2.773   8.762   6.314
 4433POPC   C2B58724   2.593   8.946   6.696
 4433POPC   C3B58725   2.592   8.809   7.131
 4433POPC   C4B58726   3.049   8.772   7.239
 4434POPC   NC358727  14.070  17.734   5.045
 4434POPC   PO458728  14.543  17.840   5.529
 4434POPC   GL158729  14.431  17.691   5.910
 4434POPC   GL258730  14.094  17.582   5.834
 4434POPC   C1A58731  14.340  17.433   6.284
 4434POPC   D2A58732  14.397  17.149   6.621
 4434POPC   C3A58733  14.308  17.438   6.977
 4434POPC   C4A58734  14.304  17.526   7.436
 4434POPC   C1B58735  14.031  17.845   6.216
 4434POPC   C2B58736  14.111  17.765   6.629
 4434POPC   C3B58737  14.440  17.923   6.830
 4434POPC   C4B58738  14.505  17.947   7.233
 4435POPC   NC358739  14.209  39.518   5.468
 4435POPC   PO458740  14.774  39.149   5.453
 4435POPC   GL158741  14.594  39.303   5.838
 4435POPC   GL258742  14.278  39.154   5.818
 4435POPC   C1A58743  14.501  39.089   6.268
 4435POPC   D2A58744  14.557  38.817   6.633
 4435POPC   C3A58745  14.448  39.097   6.998
 4435POPC   C4A58746  14.580  39.524   7.050
 4435POPC   C1B58747  14.177  39.462   6.149
 4435POPC   C2B58748  14.318  39.536   6.569
 4435POPC   C3B58749  14.070  39.469   6.922
 4435POPC   C4B58750  13.999  39.324   7.307
 4436POPC   NC358751  18.689  30.828   5.353
 4436POPC   PO458752  19.206  31.063   5.459
 4436POPC   GL158753  19.045  31.049   5.836
 4436POPC   GL258754  18.711  30.943   5.863
 4436POPC   C1A58755  19.241  30.896   6.196
 4436POPC   D2A58756  19.057  30.753   6.549
 4436POPC   C3A58757  19.139  30.939   6.909
 4436POPC   C4A58758  19.358  30.833   7.217
 4436POPC   C1B58759  18.786  31.134   6.289
 4436POPC   C2B58760  18.725  31.166   6.748
 4436POPC   C3B58761  18.670  30.957   7.166
 4436POPC   C4B58762  18.534  30.896   7.610
 4437POPC   NC358763  44.627   9.827   5.352
 4437POPC   PO458764   0.233   9.546   5.328
 4437POPC   GL158765  44.856   9.547   5.713
 4437POPC   GL258766  44.742   9.891   5.863
 4437POPC   C1A58767  44.628   9.462   6.131
 4437POPC   D2A58768  44.363   9.508   6.511
 4437POPC   C3A58769  44.395   9.677   6.912
 4437POPC   C4A58770  44.799   9.568   7.013
 4437POPC   C1B58771  44.415   9.931   6.220
 4437POPC   C2B58772  44.200  10.065   6.636
 4437POPC   C3B58773  44.277  10.133   7.095
 4437POPC   C4B58774  44.739  10.080   7.109
 4438POPC   NC358775   1.568   4.178   5.367
 4438POPC   PO458776   0.926   4.456   5.489
 4438POPC   GL158777   1.250   4.314   5.805
 4438POPC   GL258778   1.305   3.989   5.788
 4438POPC   C1A58779   1.435   4.439   6.213
 4438POPC   D2A58780   1.157   4.514   6.575
 4438POPC   C3A58781   1.255   4.445   7.013
 4438POPC   C4A58782   1.112   4.771   7.316
 4438POPC   C1B58783   1.460   3.922   6.207
 4438POPC   C2B58784   1.420   4.070   6.608
 4438POPC   C3B58785   1.605   4.026   6.984
 4438POPC   C4B58786   1.498   4.093   7.362
 4439POPC   NC358787   8.450   2.324   5.381
 4439POPC   PO458788   8.556   2.980   5.493
 4439POPC   GL158789   8.332   2.744   5.867
 4439POPC   GL258790   8.261   2.380   5.847
 4439POPC   C1A58791   8.214   2.585   6.321
 4439POPC   D2A58792   8.026   2.428   6.735
 4439POPC   C3A58793   8.095   2.738   7.066
 4439POPC   C4A58794   8.522   2.866   7.056
 4439POPC   C1B58795   8.570   2.247   6.158
 4439POPC   C2B58796   8.551   2.331   6.632
 4439POPC   C3B58797   8.413   2.339   7.068
 4439POPC   C4B58798   7.985   2.262   7.238
 4440POPC   NC358799  17.156   1.095   5.494
 4440POPC   PO458800  17.491   0.448   5.339
 4440POPC   GL158801  17.823   0.316   5.626
 4440POPC   GL258802  17.572   0.410   5.849
 4440POPC   C1A58803  17.986   0.241   6.069
 4440POPC   D2A58804  17.666   0.235   6.362
 4440POPC   C3A58805  17.752   0.318   6.775
 4440POPC   C4A58806  17.700   0.344   7.178
 4440POPC   C1B58807  17.283   0.515   6.147
 4440POPC   C2B58808  17.378   0.637   6.539
 4440POPC   C3B58809  17.291   0.527   6.926
 4440POPC   C4B58810  17.352   0.748   7.270
 4441POPC   NC358811  41.938  12.688   5.378
 4441POPC   PO458812  41.499  13.183   5.421
 4441POPC   GL158813  41.558  12.870   5.737
 4441POPC   GL258814  41.305  12.635   5.792
 4441POPC   C1A58815  41.577  12.924   6.188
 4441POPC   D2A58816  41.870  12.952   6.523
 4441POPC   C3A58817  41.683  12.856   6.890
 4441POPC   C4A58818  41.590  12.993   7.291
 4441POPC   C1B58819  41.358  12.443   6.170
 4441POPC   C2B58820  41.308  12.578   6.589
 4441POPC   C3B58821  41.402  12.432   6.979
 4441POPC   C4B58822  41.812  12.429   7.140
 4442POPC   NC358823  40.335   5.630   4.950
 4442POPC   PO458824  39.917   5.678   5.443
 4442POPC   GL158825  39.853   5.935   5.827
 4442POPC   GL258826  39.670   6.270   5.785
 4442POPC   C1A58827  40.068   5.845   6.191
 4442POPC   D2A58828  40.174   5.943   6.577
 4442POPC   C3A58829  39.997   5.706   6.883
 4442POPC   C4A58830  39.932   5.921   7.226
 4442POPC   C1B58831  39.679   6.194   6.249
 4442POPC   C2B58832  39.624   5.836   6.526
 4442POPC   C3B58833  39.493   5.915   6.945
 4442POPC   C4B58834  39.549   6.310   7.182
 4443POPC   NC358835  14.345  16.238   5.351
 4443POPC   PO458836  14.001  15.682   5.432
 4443POPC   GL158837  14.227  15.977   5.761
 4443POPC   GL258838  14.427  15.793   5.968
 4443POPC   C1A58839  14.393  16.245   6.156
 4443POPC   D2A58840  14.585  16.118   6.559
 4443POPC   C3A58841  14.433  16.177   6.962
 4443POPC   C4A58842  14.637  16.039   7.319
 4443POPC   C1B58843  14.070  15.855   6.221
 4443POPC   C2B58844  14.114  15.968   6.621
 4443POPC   C3B58845  14.357  15.685   6.875
 4443POPC   C4B58846  14.301  15.484   7.265
 4444POPC   NC358847  40.801  30.583   5.476
 4444POPC   PO458848  40.755  31.242   5.548
 4444POPC   GL158849  40.606  30.837   5.870
 4444POPC   GL258850  40.761  30.457   5.952
 4444POPC   C1A58851  40.482  30.689   6.306
 4444POPC   D2A58852  40.437  30.431   6.671
 4444POPC   C3A58853  40.642  30.452   7.059
 4444POPC   C4A58854  40.798  30.839   7.221
 4444POPC   C1B58855  40.856  30.258   6.359
 4444POPC   C2B58856  40.993  30.110   6.781
 4444POPC   C3B58857  41.077  30.189   7.192
 4444POPC   C4B58858  40.927  30.428   7.499
 4445POPC   NC358859  31.435  41.247   5.319
 4445POPC   PO458860  32.066  41.551   5.370
 4445POPC   GL158861  31.718  41.540   5.664
 4445POPC   GL258862  31.424  41.805   5.640
 4445POPC   C1A58863  31.739  41.457   6.101
 4445POPC   D2A58864  31.877  41.686   6.464
 4445POPC   C3A58865  31.718  41.479   6.833
 4445POPC   C4A58866  31.601  41.313   7.221
 4445POPC   C1B58867  31.395  41.837   6.103
 4445POPC   C2B58868  31.346  41.680   6.536
 4445POPC   C3B58869  31.287  41.676   6.996
 4445POPC   C4B58870  31.538  41.878   7.295
 4446POPC   NC358871  42.666  33.138   5.613
 4446POPC   PO458872  42.079  32.913   5.342
 4446POPC   GL158873  42.291  32.796   5.753
 4446POPC   GL258874  42.303  33.078   5.980
 4446POPC   C1A58875  42.161  32.609   6.172
 4446POPC   D2A58876  42.227  32.867   6.562
 4446POPC   C3A58877  42.187  32.703   6.980
 4446POPC   C4A58878  42.320  32.887   7.376
 4446POPC   C1B58879  42.605  32.828   6.220
 4446POPC   C2B58880  42.757  32.903   6.648
 4446POPC   C3B58881  42.615  33.101   7.026
 4446POPC   C4B58882  42.593  33.332   7.443
 4447POPC   NC358883  40.443  12.302   5.405
 4447POPC   PO458884  40.843  11.797   5.310
 4447POPC   GL158885  40.751  12.017   5.717
 4447POPC   GL258886  40.895  12.357   5.648
 4447POPC   C1A58887  40.636  11.925   6.165
 4447POPC   D2A58888  40.724  11.733   6.563
 4447POPC   C3A58889  40.627  12.009   6.891
 4447POPC   C4A58890  40.619  12.058   7.331
 4447POPC   C1B58891  40.834  12.401   6.094
 4447POPC   C2B58892  40.638  12.396   6.515
 4447POPC   C3B58893  40.889  12.443   6.884
 4447POPC   C4B58894  40.892  12.502   7.325
 4448POPC   NC358895  16.584  39.665   5.366
 4448POPC   PO458896  16.958  40.278   5.467
 4448POPC   GL158897  16.769  39.981   5.776
 4448POPC   GL258898  16.412  39.943   5.767
 4448POPC   C1A58899  16.735  39.761   6.180
 4448POPC   D2A58900  16.496  39.788   6.577
 4448POPC   C3A58901  16.671  39.808   7.021
 4448POPC   C4A58902  16.555  39.640   7.473
 4448POPC   C1B58903  16.207  40.014   6.153
 4448POPC   C2B58904  16.238  40.238   6.517
 4448POPC   C3B58905  16.235  40.089   6.904
 4448POPC   C4B58906  16.218  39.934   7.261
 4449POPC   NC358907  11.889  14.997   5.556
 4449POPC   PO458908  12.236  14.441   5.159
 4449POPC   GL158909  12.192  14.489   5.616
 4449POPC   GL258910  11.881  14.453   5.849
 4449POPC   C1A58911  12.346  14.423   6.058
 4449POPC   D2A58912  12.050  14.575   6.345
 4449POPC   C3A58913  12.041  14.456   6.731
 4449POPC   C4A58914  12.162  14.411   7.122
 4449POPC   C1B58915  11.912  14.109   6.236
 4449POPC   C2B58916  11.882  13.957   6.715
 4449POPC   C3B58917  11.840  14.004   7.209
 4449POPC   C4B58918  11.786  13.910   7.640
 4450POPC   NC358919   4.611  28.850   5.413
 4450POPC   PO458920   4.040  29.166   5.413
 4450POPC   GL158921   4.213  28.945   5.758
 4450POPC   GL258922   4.463  29.142   5.842
 4450POPC   C1A58923   4.077  28.909   6.192
 4450POPC   D2A58924   3.903  29.065   6.557
 4450POPC   C3A58925   4.119  29.092   6.956
 4450POPC   C4A58926   4.079  29.443   7.243
 4450POPC   C1B58927   4.576  28.936   6.195
 4450POPC   C2B58928   4.446  29.121   6.553
 4450POPC   C3B58929   4.606  29.278   6.932
 4450POPC   C4B58930   4.758  29.052   7.260
 4451POPC   NC358931  29.641  23.534   5.343
 4451POPC   PO458932  30.183  23.878   5.189
 4451POPC   GL158933  29.962  23.799   5.679
 4451POPC   GL258934  29.925  23.498   5.843
 4451POPC   C1A58935  29.834  23.956   6.138
 4451POPC   D2A58936  29.655  23.798   6.583
 4451POPC   C3A58937  29.697  24.029   6.984
 4451POPC   C4A58938  30.041  24.034   7.290
 4451POPC   C1B58939  29.680  23.466   6.196
 4451POPC   C2B58940  29.530  23.275   6.541
 4451POPC   C3B58941  29.575  23.413   6.926
 4451POPC   C4B58942  29.829  23.577   7.190
 4452POPC   NC358943  21.417  42.543   5.457
 4452POPC   PO458944  21.029  42.150   5.169
 4452POPC   GL158945  21.175  42.161   5.659
 4452POPC   GL258946  21.491  42.141   5.815
 4452POPC   C1A58947  21.050  42.398   6.046
 4452POPC   D2A58948  21.025  42.440   6.506
 4452POPC   C3A58949  21.381  42.286   6.732
 4452POPC   C4A58950  21.586  42.505   7.069
 4452POPC   C1B58951  21.543  42.395   6.200
 4452POPC   C2B58952  21.830  42.389   6.532
 4452POPC   C3B58953  21.888  42.033   6.786
 4452POPC   C4B58954  21.633  41.951   7.125
 4453POPC   NC358955  35.050  44.038   5.517
 4453POPC   PO458956  35.540  43.723   5.473
 4453POPC   GL158957  35.384  43.755   5.878
 4453POPC   GL258958  35.074  43.606   5.850
 4453POPC   C1A58959  35.451  43.789   6.312
 4453POPC   D2A58960  35.325  43.651   6.705
 4453POPC   C3A58961  35.186  44.029   6.910
 4453POPC   C4A58962  35.147  44.228   7.299
 4453POPC   C1B58963  34.872  43.478   6.213
 4453POPC   C2B58964  34.784  43.616   6.637
 4453POPC   C3B58965  34.961  43.603   7.051
 4453POPC   C4B58966  34.988  43.686   7.526
 4454POPC   NC358967   4.759  15.164   5.464
 4454POPC   PO458968   4.011  15.119   5.459
 4454POPC   GL158969   4.313  15.078   5.773
 4454POPC   GL258970   4.445  15.421   5.850
 4454POPC   C1A58971   4.496  15.024   6.165
 4454POPC   D2A58972   4.414  15.264   6.541
 4454POPC   C3A58973   4.516  15.082   6.933
 4454POPC   C4A58974   4.351  14.914   7.309
 4454POPC   C1B58975   4.246  15.665   6.216
 4454POPC   C2B58976   4.195  15.877   6.638
 4454POPC   C3B58977   4.132  15.722   7.071
 4454POPC   C4B58978   4.283  15.414   7.374
 4455POPC   NC358979   2.091  21.826   5.325
 4455POPC   PO458980   2.067  22.473   5.343
 4455POPC   GL158981   2.142  22.309   5.745
 4455POPC   GL258982   1.912  22.032   5.749
 4455POPC   C1A58983   2.253  22.392   6.202
 4455POPC   D2A58984   2.018  22.470   6.620
 4455POPC   C3A58985   2.156  22.226   6.975
 4455POPC   C4A58986   2.078  21.868   7.261
 4455POPC   C1B58987   1.805  22.174   6.142
 4455POPC   C2B58988   1.907  21.981   6.533
 4455POPC   C3B58989   1.713  21.988   6.910
 4455POPC   C4B58990   1.519  21.831   7.260
 4456POPC   NC358991  27.745  19.593   5.361
 4456POPC   PO458992  27.471  20.238   5.482
 4456POPC   GL158993  27.644  19.944   5.788
 4456POPC   GL258994  27.956  19.760   5.839
 4456POPC   C1A58995  27.685  20.059   6.233
 4456POPC   D2A58996  27.404  20.115   6.576
 4456POPC   C3A58997  27.501  19.995   6.970
 4456POPC   C4A58998  27.429  19.802   7.341
 4456POPC   C1B58999  27.794  19.570   6.207
 4456POPC   C2B59000  27.583  19.614   6.598
 4456POPC   C3B59001  27.765  19.543   7.006
 4456POPC   C4B59002  27.941  19.826   7.288
 4457POPC   NC359003   4.660  32.379   5.639
 4457POPC   PO459004   3.995  32.479   5.381
 4457POPC   GL159005   4.026  32.333   5.850
 4457POPC   GL259006   4.341  32.193   5.986
 4457POPC   C1A59007   3.969  32.166   6.303
 4457POPC   D2A59008   4.244  32.133   6.652
 4457POPC   C3A59009   4.119  32.295   7.051
 4457POPC   C4A59010   4.108  32.074   7.416
 4457POPC   C1B59011   4.592  32.333   6.303
 4457POPC   C2B59012   4.750  32.254   6.684
 4457POPC   C3B59013   4.607  32.140   7.078
 4457POPC   C4B59014   4.567  32.430   7.440
 4458POPC   NC359015   3.843  37.307   5.081
 4458POPC   PO459016   3.266  37.000   5.337
 4458POPC   GL159017   3.244  36.853   5.762
 4458POPC   GL259018   3.521  37.074   5.830
 4458POPC   C1A59019   3.372  36.726   6.202
 4458POPC   D2A59020   3.513  36.863   6.592
 4458POPC   C3A59021   3.358  36.734   6.950
 4458POPC   C4A59022   3.377  36.956   7.309
 4458POPC   C1B59023   3.766  37.096   6.218
 4458POPC   C2B59024   3.793  37.291   6.637
 4458POPC   C3B59025   3.820  37.142   7.080
 4458POPC   C4B59026   3.887  36.981   7.562
 4459POPC   NC359027  12.585  35.751   5.571
 4459POPC   PO459028  12.648  35.128   5.433
 4459POPC   GL159029  12.949  35.380   5.768
 4459POPC   GL259030  12.940  35.738   5.926
 4459POPC   C1A59031  13.021  35.387   6.250
 4459POPC   D2A59032  12.651  35.383   6.526
 4459POPC   C3A59033  12.692  35.150   6.912
 4459POPC   C4A59034  12.945  35.186   7.289
 4459POPC   C1B59035  12.563  35.823   6.228
 4459POPC   C2B59036  12.515  35.871   6.670
 4459POPC   C3B59037  12.740  35.647   6.979
 4459POPC   C4B59038  12.625  35.559   7.379
 4460POPC   NC359039  13.300  43.186   5.815
 4460POPC   PO459040  13.828  43.193   5.372
 4460POPC   GL159041  13.801  43.148   5.851
 4460POPC   GL259042  13.649  42.854   6.047
 4460POPC   C1A59043  13.827  43.298   6.298
 4460POPC   D2A59044  13.688  43.136   6.720
 4460POPC   C3A59045  13.924  43.045   7.108
 4460POPC   C4A59046  13.844  43.113   7.558
 4460POPC   C1B59047  13.302  42.880   6.396
 4460POPC   C2B59048  13.203  42.987   6.853
 4460POPC   C3B59049  13.418  43.056   7.266
 4460POPC   C4B59050  13.275  42.986   7.717
 4461POPC   NC359051   2.006  25.162   5.156
 4461POPC   PO459052   2.357  25.711   5.226
 4461POPC   GL159053   2.220  25.413   5.602
 4461POPC   GL259054   1.866  25.449   5.717
 4461POPC   C1A59055   2.126  25.182   6.055
 4461POPC   D2A59056   2.039  25.332   6.468
 4461POPC   C3A59057   2.277  25.377   6.861
 4461POPC   C4A59058   2.096  25.260   7.280
 4461POPC   C1B59059   1.767  25.641   6.130
 4461POPC   C2B59060   1.889  25.792   6.573
 4461POPC   C3B59061   1.865  25.680   7.024
 4461POPC   C4B59062   1.498  25.709   7.309
 4462POPC   NC359063  22.093  33.181   5.383
 4462POPC   PO459064  21.554  32.871   5.509
 4462POPC   GL159065  21.964  32.874   5.771
 4462POPC   GL259066  21.935  33.218   5.868
 4462POPC   C1A59067  22.361  33.033   6.066
 4462POPC   D2A59068  22.375  33.246   6.504
 4462POPC   C3A59069  22.394  33.123   6.957
 4462POPC   C4A59070  22.546  33.319   7.341
 4462POPC   C1B59071  21.917  33.087   6.314
 4462POPC   C2B59072  21.915  33.320   6.701
 4462POPC   C3B59073  21.816  33.156   7.082
 4462POPC   C4B59074  21.791  32.727   7.118
 4463POPC   NC359075  37.614  15.102   5.084
 4463POPC   PO459076  37.240  15.562   5.547
 4463POPC   GL159077  37.428  15.383   5.969
 4463POPC   GL259078  37.702  15.121   5.910
 4463POPC   C1A59079  37.664  15.266   6.393
 4463POPC   D2A59080  37.966  15.199   6.708
 4463POPC   C3A59081  37.873  15.338   7.136
 4463POPC   C4A59082  37.770  15.140   7.544
 4463POPC   C1B59083  37.344  14.931   6.180
 4463POPC   C2B59084  37.376  14.870   6.605
 4463POPC   C3B59085  37.497  15.039   6.981
 4463POPC   C4B59086  37.360  14.887   7.370
 4464POPC   NC359087  10.002  24.738   5.057
 4464POPC   PO459088  10.491  24.518   5.388
 4464POPC   GL159089  10.518  24.559   5.843
 4464POPC   GL259090  10.168  24.660   5.931
 4464POPC   C1A59091  10.423  24.435   6.299
 4464POPC   D2A59092  10.407  24.295   6.724
 4464POPC   C3A59093  10.574  24.484   7.065
 4464POPC   C4A59094  10.870  24.331   7.318
 4464POPC   C1B59095   9.969  24.781   6.332
 4464POPC   C2B59096   9.999  24.892   6.808
 4464POPC   C3B59097  10.181  24.792   7.275
 4464POPC   C4B59098  10.286  24.782   7.804
 4465POPC   NC359099  36.045  30.869   5.124
 4465POPC   PO459100  35.378  30.809   5.337
 4465POPC   GL159101  35.375  30.589   5.760
 4465POPC   GL259102  35.622  30.319   5.845
 4465POPC   C1A59103  35.278  30.765   6.195
 4465POPC   D2A59104  35.513  30.803   6.597
 4465POPC   C3A59105  35.251  30.933   6.958
 4465POPC   C4A59106  35.191  30.770   7.363
 4465POPC   C1B59107  35.383  30.280   6.192
 4465POPC   C2B59108  35.463  30.265   6.617
 4465POPC   C3B59109  35.473  30.447   7.036
 4465POPC   C4B59110  35.639  30.563   7.458
 4466POPC   NC359111  30.745  39.512   5.429
 4466POPC   PO459112  30.494  38.922   5.642
 4466POPC   GL159113  30.600  39.280   5.872
 4466POPC   GL259114  30.372  39.533   5.757
 4466POPC   C1A59115  30.754  39.281   6.306
 4466POPC   D2A59116  30.600  39.125   6.715
 4466POPC   C3A59117  30.747  39.281   7.091
 4466POPC   C4A59118  30.996  39.003   7.308
 4466POPC   C1B59119  30.253  39.512   6.167
 4466POPC   C2B59120  30.415  39.571   6.563
 4466POPC   C3B59121  30.247  39.464   6.982
 4466POPC   C4B59122  30.339  39.587   7.413
 4467POPC   NC359123   0.624  39.731   5.547
 4467POPC   PO459124   0.153  40.223   5.424
 4467POPC   GL159125   0.312  40.078   5.823
 4467POPC   GL259126   0.669  40.162   5.817
 4467POPC   C1A59127   0.388  39.882   6.248
 4467POPC   D2A59128   0.401  39.654   6.649
 4467POPC   C3A59129   0.435  39.941   7.003
 4467POPC   C4A59130   0.232  40.108   7.342
 4467POPC   C1B59131   0.843  40.124   6.201
 4467POPC   C2B59132   0.706  40.138   6.617
 4467POPC   C3B59133   0.891  40.181   7.019
 4467POPC   C4B59134   0.822  39.918   7.385
 4468POPC   NC359135   2.303   8.059   5.430
 4468POPC   PO459136   1.742   8.374   5.399
 4468POPC   GL159137   1.796   8.092   5.770
 4468POPC   GL259138   2.043   8.249   5.882
 4468POPC   C1A59139   1.879   7.926   6.221
 4468POPC   D2A59140   2.155   8.077   6.565
 4468POPC   C3A59141   1.950   8.025   6.981
 4468POPC   C4A59142   1.869   8.258   7.390
 4468POPC   C1B59143   1.867   8.496   6.256
 4468POPC   C2B59144   2.030   8.571   6.692
 4468POPC   C3B59145   2.280   8.395   7.062
 4468POPC   C4B59146   2.332   8.526   7.485
 4469POPC   NC359147  26.876  38.401   5.270
 4469POPC   PO459148  26.413  38.514   5.681
 4469POPC   GL159149  26.831  38.431   5.805
 4469POPC   GL259150  26.919  38.098   5.673
 4469POPC   C1A59151  27.000  38.533   6.234
 4469POPC   D2A59152  26.811  38.496   6.658
 4469POPC   C3A59153  26.780  38.735   7.016
 4469POPC   C4A59154  26.403  38.904   7.244
 4469POPC   C1B59155  26.957  38.008   6.100
 4469POPC   C2B59156  26.848  38.021   6.516
 4469POPC   C3B59157  27.078  38.106   6.892
 4469POPC   C4B59158  26.950  38.186   7.306
 4470POPC   NC359159  25.102  16.935   5.345
 4470POPC   PO459160  25.542  16.490   5.384
 4470POPC   GL159161  25.466  16.803   5.706
 4470POPC   GL259162  25.134  16.687   5.785
 4470POPC   C1A59163  25.377  16.958   6.117
 4470POPC   D2A59164  25.111  16.965   6.489
 4470POPC   C3A59165  25.395  16.924   6.835
 4470POPC   C4A59166  25.360  16.983   7.260
 4470POPC   C1B59167  25.047  16.538   6.216
 4470POPC   C2B59168  25.113  16.487   6.660
 4470POPC   C3B59169  25.174  16.492   7.061
 4470POPC   C4B59170  24.949  16.552   7.410
 4471POPC   NC359171  41.247   4.092   5.557
 4471POPC   PO459172  41.630   4.608   5.232
 4471POPC   GL159173  41.578   4.470   5.703
 4471POPC   GL259174  41.782   4.747   5.851
 4471POPC   C1A59175  41.342   4.314   6.158
 4471POPC   D2A59176  41.231   4.088   6.594
 4471POPC   C3A59177  41.495   4.167   7.000
 4471POPC   C4A59178  41.414   4.470   7.302
 4471POPC   C1B59179  41.821   4.453   6.199
 4471POPC   C2B59180  41.744   4.338   6.616
 4471POPC   C3B59181  41.886   4.502   7.058
 4471POPC   C4B59182  41.852   4.552   7.530
 4472POPC   NC359183  36.951   6.264   5.044
 4472POPC   PO459184  37.235   6.767   5.215
 4472POPC   GL159185  37.292   6.597   5.688
 4472POPC   GL259186  36.976   6.622   5.867
 4472POPC   C1A59187  37.333   6.366   6.135
 4472POPC   D2A59188  37.077   6.191   6.514
 4472POPC   C3A59189  37.200   6.291   6.976
 4472POPC   C4A59190  36.911   6.415   7.321
 4472POPC   C1B59191  36.804   6.565   6.302
 4472POPC   C2B59192  36.799   6.567   6.780
 4472POPC   C3B59193  36.839   6.907   7.100
 4472POPC   C4B59194  37.027   7.302   7.316
 4473POPC   NC359195  38.329  43.502   5.182
 4473POPC   PO459196  38.721  44.007   5.328
 4473POPC   GL159197  38.484  43.951   5.733
 4473POPC   GL259198  38.618  44.260   5.862
 4473POPC   C1A59199  38.536  43.695   6.154
 4473POPC   D2A59200  38.557  43.435   6.560
 4473POPC   C3A59201  38.414  43.670   6.913
 4473POPC   C4A59202  38.399  43.862   7.325
 4473POPC   C1B59203  38.742  44.170   6.282
 4473POPC   C2B59204  38.832  43.872   6.630
 4473POPC   C3B59205  38.795  44.040   7.028
 4473POPC   C4B59206  38.580  44.374   7.260
 4474POPC   NC359207   0.155  19.107   5.404
 4474POPC   PO459208   0.725  18.884   5.473
 4474POPC   GL159209   0.657  19.131   5.882
 4474POPC   GL259210   0.398  19.322   5.856
 4474POPC   C1A59211   0.600  19.145   6.374
 4474POPC   D2A59212   0.743  18.950   6.793
 4474POPC   C3A59213   0.487  18.693   7.110
 4474POPC   C4A59214   0.609  18.729   7.607
 4474POPC   C1B59215   0.315  19.549   6.236
 4474POPC   C2B59216   0.191  19.484   6.672
 4474POPC   C3B59217   0.308  19.169   6.969
 4474POPC   C4B59218   0.618  19.142   7.292
 4475POPC   NC359219  34.866   1.744   5.453
 4475POPC   PO459220  34.503   2.303   5.408
 4475POPC   GL159221  34.594   2.103   5.778
 4475POPC   GL259222  34.451   1.779   5.741
 4475POPC   C1A59223  34.442   2.212   6.194
 4475POPC   D2A59224  34.137   2.364   6.512
 4475POPC   C3A59225  34.316   2.313   6.911
 4475POPC   C4A59226  34.546   2.114   7.225
 4475POPC   C1B59227  34.512   1.697   6.164
 4475POPC   C2B59228  34.284   1.865   6.540
 4475POPC   C3B59229  34.010   1.824   6.853
 4475POPC   C4B59230  34.085   1.842   7.261
 4476POPC   NC359231  21.877  31.669   5.240
 4476POPC   PO459232  22.465  31.439   5.251
 4476POPC   GL159233  22.311  31.355   5.670
 4476POPC   GL259234  22.000  31.561   5.740
 4476POPC   C1A59235  22.271  31.323   6.145
 4476POPC   D2A59236  22.352  31.639   6.456
 4476POPC   C3A59237  22.375  31.547   6.896
 4476POPC   C4A59238  22.209  31.301   7.218
 4476POPC   C1B59239  21.864  31.644   6.175
 4476POPC   C2B59240  21.885  31.441   6.584
 4476POPC   C3B59241  21.711  31.459   6.980
 4476POPC   C4B59242  21.697  31.783   7.269
 4477POPC   NC359243   8.138  28.402   4.833
 4477POPC   PO459244   8.294  28.435   5.516
 4477POPC   GL159245   8.041  28.470   5.840
 4477POPC   GL259246   8.134  28.179   5.978
 4477POPC   C1A59247   7.943  28.638   6.201
 4477POPC   D2A59248   8.126  28.449   6.540
 4477POPC   C3A59249   8.075  28.681   6.905
 4477POPC   C4A59250   8.067  28.585   7.331
 4477POPC   C1B59251   8.404  28.023   6.296
 4477POPC   C2B59252   8.470  28.111   6.719
 4477POPC   C3B59253   8.446  28.347   7.107
 4477POPC   C4B59254   8.328  28.226   7.583
 4478POPC   NC359255  43.325  10.045   5.431
 4478POPC   PO459256  43.462   9.429   5.538
 4478POPC   GL159257  43.332   9.751   5.848
 4478POPC   GL259258  42.982   9.907   5.778
 4478POPC   C1A59259  43.507   9.713   6.248
 4478POPC   D2A59260  43.429   9.453   6.608
 4478POPC   C3A59261  43.404   9.645   7.012
 4478POPC   C4A59262  43.143   9.751   7.349
 4478POPC   C1B59263  42.795   9.768   6.145
 4478POPC   C2B59264  42.778   9.635   6.551
 4478POPC   C3B59265  42.801   9.834   6.929
 4478POPC   C4B59266  42.736  10.043   7.296
 4479POPC   NC359267   7.177  37.809   5.513
 4479POPC   PO459268   7.819  37.594   5.541
 4479POPC   GL159269   7.531  37.429   5.885
 4479POPC   GL259270   7.402  37.728   5.950
 4479POPC   C1A59271   7.397  37.428   6.355
 4479POPC   D2A59272   7.446  37.491   6.808
 4479POPC   C3A59273   7.608  37.861   6.986
 4479POPC   C4A59274   7.733  37.894   7.422
 4479POPC   C1B59275   7.136  37.937   6.196
 4479POPC   C2B59276   7.102  37.792   6.570
 4479POPC   C3B59277   7.073  37.826   6.978
 4479POPC   C4B59278   7.235  38.059   7.270
 4480POPC   NC359279  39.681  29.255   5.641
 4480POPC   PO459280  39.131  29.345   5.248
 4480POPC   GL159281  39.135  29.289   5.724
 4480POPC   GL259282  38.784  29.367   5.837
 4480POPC   C1A59283  39.297  29.324   6.185
 4480POPC   D2A59284  39.253  29.446   6.642
 4480POPC   C3A59285  39.322  29.165   7.015
 4480POPC   C4A59286  39.115  28.828   7.248
 4480POPC   C1B59287  38.817  29.501   6.273
 4480POPC   C2B59288  38.752  29.388   6.697
 4480POPC   C3B59289  38.828  29.251   7.134
 4480POPC   C4B59290  38.699  29.454   7.524
 4481POPC   NC359291   1.386  12.376   5.364
 4481POPC   PO459292   1.288  13.056   5.488
 4481POPC   GL159293   1.268  12.965   5.904
 4481POPC   GL259294   1.355  12.587   5.879
 4481POPC   C1A59295   0.991  13.077   6.267
 4481POPC   D2A59296   0.850  12.738   6.602
 4481POPC   C3A59297   0.987  12.597   7.031
 4481POPC   C4A59298   0.948  12.820   7.458
 4481POPC   C1B59299   1.289  12.668   6.335
 4481POPC   C2B59300   1.291  13.008   6.670
 4481POPC   C3B59301   1.338  12.950   7.093
 4481POPC   C4B59302   1.493  12.522   7.145
 4482POPC   NC359303  10.422  37.221   5.370
 4482POPC   PO459304  10.894  36.701   5.435
 4482POPC   GL159305  10.518  36.658   5.715
 4482POPC   GL259306  10.696  36.515   5.991
 4482POPC   C1A59307  10.298  36.799   6.134
 4482POPC   D2A59308  10.464  36.982   6.517
 4482POPC   C3A59309  10.410  36.762   6.888
 4482POPC   C4A59310  10.617  36.792   7.253
 4482POPC   C1B59311  10.761  37.015   6.072
 4482POPC   C2B59312  10.899  37.255   6.473
 4482POPC   C3B59313  10.851  37.112   6.903
 4482POPC   C4B59314  10.896  37.211   7.373
 4483POPC   NC359315  31.207  22.901   5.402
 4483POPC   PO459316  31.847  23.043   5.348
 4483POPC   GL159317  31.633  22.835   5.712
 4483POPC   GL259318  31.643  23.175   5.864
 4483POPC   C1A59319  31.380  22.821   6.129
 4483POPC   D2A59320  31.439  23.134   6.491
 4483POPC   C3A59321  31.360  22.986   6.940
 4483POPC   C4A59322  31.459  23.108   7.376
 4483POPC   C1B59323  31.845  23.412   6.218
 4483POPC   C2B59324  31.744  23.529   6.650
 4483POPC   C3B59325  31.781  23.305   7.028
 4483POPC   C4B59326  31.999  23.301   7.427
 4484POPC   NC359327   0.438  43.982   5.324
 4484POPC   PO459328  44.903  44.298   5.391
 4484POPC   GL159329   0.249  44.187   5.745
 4484POPC   GL259330   0.354  43.827   5.791
 4484POPC   C1A59331   0.532  44.163   6.145
 4484POPC   D2A59332   0.444  43.924   6.544
 4484POPC   C3A59333   0.588  43.976   6.959
 4484POPC   C4A59334   0.367  44.045   7.334
 4484POPC   C1B59335   0.458  43.613   6.144
 4484POPC   C2B59336   0.789  43.460   6.415
 4484POPC   C3B59337   0.910  43.534   6.844
 4484POPC   C4B59338   0.641  43.466   7.208
 4485POPC   NC359339   3.496  41.949   5.517
 4485POPC   PO459340   3.789  42.502   5.340
 4485POPC   GL159341   3.642  42.542   5.788
 4485POPC   GL259342   3.287  42.541   5.859
 4485POPC   C1A59343   3.661  42.607   6.273
 4485POPC   D2A59344   3.613  42.789   6.737
 4485POPC   C3A59345   3.490  42.475   7.067
 4485POPC   C4A59346   3.644  42.062   7.219
 4485POPC   C1B59347   3.237  42.233   6.210
 4485POPC   C2B59348   3.345  42.021   6.609
 4485POPC   C3B59349   3.164  42.058   7.022
 4485POPC   C4B59350   2.967  42.427   7.172
 4486POPC   NC359351  10.147  13.863   5.421
 4486POPC   PO459352  10.462  13.275   5.445
 4486POPC   GL159353  10.618  13.587   5.800
 4486POPC   GL259354  10.420  13.920   5.837
 4486POPC   C1A59355  10.815  13.479   6.239
 4486POPC   D2A59356  10.744  13.192   6.634
 4486POPC   C3A59357  10.604  13.372   7.055
 4486POPC   C4A59358  10.598  13.305   7.541
 4486POPC   C1B59359  10.301  13.676   6.194
 4486POPC   C2B59360  10.463  13.634   6.571
 4486POPC   C3B59361  10.343  13.776   6.909
 4486POPC   C4B59362  10.156  13.634   7.253
 4487POPC   NC359363  30.353  26.113   5.617
 4487POPC   PO459364  30.981  26.118   5.501
 4487POPC   GL159365  30.791  26.051   5.883
 4487POPC   GL259366  30.704  25.727   5.915
 4487POPC   C1A59367  30.606  26.247   6.238
 4487POPC   D2A59368  30.724  26.391   6.614
 4487POPC   C3A59369  30.579  26.299   6.992
 4487POPC   C4A59370  30.803  26.253   7.331
 4487POPC   C1B59371  30.395  25.791   6.227
 4487POPC   C2B59372  30.612  25.652   6.597
 4487POPC   C3B59373  30.599  25.772   6.994
 4487POPC   C4B59374  30.256  25.862   7.241
 4488POPC   NC359375  11.718  10.506   5.168
 4488POPC   PO459376  11.150  10.336   5.475
 4488POPC   GL159377  11.132  10.710   5.707
 4488POPC   GL259378  10.761  10.763   5.764
 4488POPC   C1A59379  11.352  10.778   6.104
 4488POPC   D2A59380  11.598  10.507   6.439
 4488POPC   C3A59381  11.591  10.576   6.897
 4488POPC   C4A59382  11.506  10.286   7.252
 4488POPC   C1B59383  10.904  10.549   6.146
 4488POPC   C2B59384  11.097  10.631   6.545
 4488POPC   C3B59385  11.138  10.372   6.893
 4488POPC   C4B59386  10.958  10.413   7.259
 4489POPC   NC359387  22.141  15.871   5.386
 4489POPC   PO459388  22.380  16.480   5.607
 4489POPC   GL159389  22.410  16.044   5.783
 4489POPC   GL259390  22.081  16.029   5.910
 4489POPC   C1A59391  22.330  15.669   6.136
 4489POPC   D2A59392  22.383  15.677   6.618
 4489POPC   C3A59393  22.115  15.850   6.976
 4489POPC   C4A59394  22.237  15.903   7.417
 4489POPC   C1B59395  22.420  16.139   6.278
 4489POPC   C2B59396  22.417  16.379   6.662
 4489POPC   C3B59397  22.145  16.388   7.034
 4489POPC   C4B59398  21.839  16.211   7.334
 4490POPC   NC359399  13.418  41.103   5.416
 4490POPC   PO459400  13.803  40.585   5.484
 4490POPC   GL159401  13.695  40.858   5.808
 4490POPC   GL259402  13.330  40.818   5.853
 4490POPC   C1A59403  13.664  40.871   6.265
 4490POPC   D2A59404  13.856  40.921   6.688
 4490POPC   C3A59405  13.530  40.885   7.031
 4490POPC   C4A59406  13.624  40.940   7.493
 4490POPC   C1B59407  13.197  40.585   6.242
 4490POPC   C2B59408  13.096  40.446   6.677
 4490POPC   C3B59409  13.093  40.601   7.121
 4490POPC   C4B59410  13.165  40.724   7.589
 4491POPC   NC359411  33.617  20.991   5.473
 4491POPC   PO459412  33.745  21.648   5.416
 4491POPC   GL159413  33.804  21.391   5.773
 4491POPC   GL259414  33.473  21.382   5.824
 4491POPC   C1A59415  33.944  21.260   6.181
 4491POPC   D2A59416  33.950  21.073   6.544
 4491POPC   C3A59417  33.983  21.305   6.891
 4491POPC   C4A59418  33.904  21.450   7.273
 4491POPC   C1B59419  33.436  21.334   6.250
 4491POPC   C2B59420  33.469  21.195   6.690
 4491POPC   C3B59421  33.461  21.281   7.156
 4491POPC   C4B59422  33.635  21.101   7.578
 4492POPC   NC359423  42.990   7.144   5.610
 4492POPC   PO459424  43.083   7.649   5.098
 4492POPC   GL159425  43.192   7.598   5.655
 4492POPC   GL259426  42.877   7.564   5.880
 4492POPC   C1A59427  43.244   7.391   6.178
 4492POPC   D2A59428  42.936   7.378   6.582
 4492POPC   C3A59429  43.022   7.341   7.062
 4492POPC   C4A59430  43.158   7.203   7.494
 4492POPC   C1B59431  42.795   7.830   6.253
 4492POPC   C2B59432  42.682   7.815   6.707
 4492POPC   C3B59433  42.642   7.683   7.157
 4492POPC   C4B59434  42.728   7.448   7.546
 4493POPC   NC359435  20.484  13.041   5.490
 4493POPC   PO459436  20.913  12.500   5.409
 4493POPC   GL159437  20.778  12.749   5.782
 4493POPC   GL259438  21.012  13.018   5.767
 4493POPC   C1A59439  20.529  12.824   6.179
 4493POPC   D2A59440  20.285  12.892   6.555
 4493POPC   C3A59441  20.509  12.818   6.899
 4493POPC   C4A59442  20.600  12.981   7.250
 4493POPC   C1B59443  20.968  13.101   6.187
 4493POPC   C2B59444  20.866  12.899   6.563
 4493POPC   C3B59445  21.027  13.064   6.940
 4493POPC   C4B59446  21.082  13.023   7.394
 4494POPC   NC359447  19.528  41.658   5.521
 4494POPC   PO459448  19.912  41.332   5.125
 4494POPC   GL159449  19.973  41.401   5.623
 4494POPC   GL259450  20.008  41.768   5.771
 4494POPC   C1A59451  19.874  41.430   6.114
 4494POPC   D2A59452  20.071  41.720   6.502
 4494POPC   C3A59453  20.039  41.711   6.972
 4494POPC   C4A59454  19.811  41.387   7.184
 4494POPC   C1B59455  19.748  41.921   6.153
 4494POPC   C2B59456  19.533  41.652   6.432
 4494POPC   C3B59457  19.546  41.662   6.853
 4494POPC   C4B59458  19.339  41.755   7.253
 4495POPC   NC359459  13.163  12.892   5.541
 4495POPC   PO459460  12.491  12.826   5.527
 4495POPC   GL159461  12.707  12.758   5.920
 4495POPC   GL259462  12.937  13.044   5.973
 4495POPC   C1A59463  12.782  12.758   6.381
 4495POPC   D2A59464  12.536  12.624   6.734
 4495POPC   C3A59465  12.782  12.460   7.042
 4495POPC   C4A59466  12.962  12.621   7.407
 4495POPC   C1B59467  12.590  13.220   6.238
 4495POPC   C2B59468  12.545  13.161   6.695
 4495POPC   C3B59469  12.774  13.014   7.069
 4495POPC   C4B59470  12.673  13.018   7.547
 4496POPC   NC359471  15.033  33.423   5.209
 4496POPC   PO459472  15.314  32.693   5.335
 4496POPC   GL159473  15.095  32.914   5.661
 4496POPC   GL259474  15.190  33.262   5.719
 4496POPC   C1A59475  15.167  32.913   6.106
 4496POPC   D2A59476  15.165  33.107   6.482
 4496POPC   C3A59477  15.208  32.914   6.865
 4496POPC   C4A59478  15.359  33.189   7.168
 4496POPC   C1B59479  14.976  33.422   6.103
 4496POPC   C2B59480  14.776  33.455   6.521
 4496POPC   C3B59481  14.944  33.400   6.911
 4496POPC   C4B59482  15.047  33.596   7.269
 4497POPC   NC359483   3.152  10.728   5.350
 4497POPC   PO459484   2.671  10.219   5.463
 4497POPC   GL159485   2.612  10.425   5.866
 4497POPC   GL259486   2.908  10.646   5.883
 4497POPC   C1A59487   2.578  10.636   6.289
 4497POPC   D2A59488   2.751  10.766   6.693
 4497POPC   C3A59489   2.697  10.419   6.978
 4497POPC   C4A59490   2.339  10.380   7.244
 4497POPC   C1B59491   3.098  10.776   6.298
 4497POPC   C2B59492   3.281  10.888   6.690
 4497POPC   C3B59493   3.099  10.787   7.090
 4497POPC   C4B59494   2.646  10.847   7.237
 4498POPC   NC359495  34.680   2.722   5.355
 4498POPC   PO459496  34.298   3.278   5.503
 4498POPC   GL159497  34.399   3.009   5.855
 4498POPC   GL259498  34.498   2.632   5.821
 4498POPC   C1A59499  34.642   2.927   6.219
 4498POPC   D2A59500  34.590   2.603   6.503
 4498POPC   C3A59501  34.590   2.774   6.900
 4498POPC   C4A59502  34.382   2.706   7.264
 4498POPC   C1B59503  34.856   2.470   6.046
 4498POPC   C2B59504  35.049   2.377   6.440
 4498POPC   C3B59505  34.869   2.347   6.855
 4498POPC   C4B59506  34.872   2.527   7.272
 4499POPC   NC359507   1.074  42.166   5.413
 4499POPC   PO459508   1.706  42.441   5.370
 4499POPC   GL159509   1.421  42.435   5.716
 4499POPC   GL259510   1.072  42.430   5.850
 4499POPC   C1A59511   1.488  42.342   6.139
 4499POPC   D2A59512   1.444  42.023   6.433
 4499POPC   C3A59513   1.390  42.195   6.825
 4499POPC   C4A59514   1.425  42.031   7.222
 4499POPC   C1B59515   0.985  42.333   6.259
 4499POPC   C2B59516   0.943  42.458   6.673
 4499POPC   C3B59517   0.925  42.245   7.059
 4499POPC   C4B59518   1.001  42.240   7.473
 4500POPC   NC359519  25.130  24.648   5.293
 4500POPC   PO459520  25.510  24.169   5.314
 4500POPC   GL159521  25.356  24.231   5.761
 4500POPC   GL259522  25.049  24.458   5.799
 4500POPC   C1A59523  25.186  24.148   6.210
 4500POPC   D2A59524  25.060  24.359   6.629
 4500POPC   C3A59525  25.326  24.261   6.979
 4500POPC   C4A59526  25.364  24.265   7.435
 4500POPC   C1B59527  25.144  24.661   6.218
 4500POPC   C2B59528  25.381  24.761   6.625
 4500POPC   C3B59529  25.337  24.754   7.084
 4500POPC   C4B59530  25.285  25.069   7.384
 4501POPC   NC359531   7.650   0.110   5.354
 4501POPC   PO459532   7.387   0.725   5.454
 4501POPC   GL159533   7.529   0.504   5.789
 4501POPC   GL259534   7.771   0.702   5.898
 4501POPC   C1A59535   7.424   0.531   6.231
 4501POPC   D2A59536   7.103   0.504   6.509
 4501POPC   C3A59537   7.299   0.509   6.889
 4501POPC   C4A59538   7.241   0.442   7.322
 4501POPC   C1B59539   7.792   0.931   6.251
 4501POPC   C2B59540   7.580   0.876   6.629
 4501POPC   C3B59541   7.684   0.854   7.038
 4501POPC   C4B59542   7.589   0.773   7.446
 4502POPC   NC359543  10.144  41.747   5.418
 4502POPC   PO459544   9.806  41.142   5.230
 4502POPC   GL159545   9.796  41.324   5.670
 4502POPC   GL259546   9.675  41.642   5.696
 4502POPC   C1A59547   9.967  41.427   6.133
 4502POPC   D2A59548   9.942  41.635   6.590
 4502POPC   C3A59549   9.781  41.432   7.005
 4502POPC   C4A59550   9.698  41.441   7.477
 4502POPC   C1B59551   9.473  41.581   6.111
 4502POPC   C2B59552   9.378  41.811   6.490
 4502POPC   C3B59553   9.572  41.891   6.883
 4502POPC   C4B59554   9.434  41.844   7.303
 4503POPC   NC359555  40.429  31.557   5.454
 4503POPC   PO459556  39.834  31.403   5.329
 4503POPC   GL159557  39.952  31.207   5.793
 4503POPC   GL259558  39.626  31.173   5.952
 4503POPC   C1A59559  40.170  31.155   6.250
 4503POPC   D2A59560  40.166  31.451   6.662
 4503POPC   C3A59561  40.142  31.314   7.130
 4503POPC   C4A59562  40.378  31.190   7.538
 4503POPC   C1B59563  39.796  31.503   6.245
 4503POPC   C2B59564  39.711  31.741   6.641
 4503POPC   C3B59565  39.811  31.703   7.084
 4503POPC   C4B59566  39.849  32.015   7.398
 4504POPC   NC359567  16.602  25.395   5.206
 4504POPC   PO459568  17.056  25.126   5.388
 4504POPC   GL159569  16.820  25.070   5.786
 4504POPC   GL259570  17.017  25.287   5.981
 4504POPC   C1A59571  16.601  25.141   6.238
 4504POPC   D2A59572  16.714  25.343   6.673
 4504POPC   C3A59573  16.772  25.078   7.069
 4504POPC   C4A59574  16.627  24.761   7.396
 4504POPC   C1B59575  17.072  25.092   6.406
 4504POPC   C2B59576  17.212  25.244   6.796
 4504POPC   C3B59577  17.118  25.438   7.196
 4504POPC   C4B59578  16.801  25.630   7.465
 4505POPC   NC359579  30.933  17.176   5.501
 4505POPC   PO459580  30.427  16.610   5.421
 4505POPC   GL159581  30.523  16.676   5.828
 4505POPC   GL259582  30.506  17.059   5.803
 4505POPC   C1A59583  30.842  16.478   6.132
 4505POPC   D2A59584  31.027  16.664   6.515
 4505POPC   C3A59585  30.815  16.543   6.899
 4505POPC   C4A59586  30.891  16.477   7.333
 4505POPC   C1B59587  30.711  16.975   6.192
 4505POPC   C2B59588  30.496  16.704   6.479
 4505POPC   C3B59589  30.329  16.753   6.883
 4505POPC   C4B59590  30.596  16.955   7.158
 4506POPC   NC359591   5.268  31.047   5.410
 4506POPC   PO459592   5.024  30.528   5.238
 4506POPC   GL159593   5.002  30.763   5.718
 4506POPC   GL259594   4.637  30.894   5.820
 4506POPC   C1A59595   5.279  30.819   6.100
 4506POPC   D2A59596   5.230  30.568   6.477
 4506POPC   C3A59597   5.313  30.741   6.889
 4506POPC   C4A59598   5.104  30.512   7.160
 4506POPC   C1B59599   4.842  31.051   6.191
 4506POPC   C2B59600   4.975  31.004   6.611
 4506POPC   C3B59601   4.897  31.046   7.057
 4506POPC   C4B59602   5.027  30.908   7.483
 4507POPC   NC359603  30.631   7.253   5.415
 4507POPC   PO459604  30.796   7.883   5.355
 4507POPC   GL159605  30.562   7.643   5.739
 4507POPC   GL259606  30.198   7.551   5.720
 4507POPC   C1A59607  30.596   7.294   6.081
 4507POPC   D2A59608  30.750   7.231   6.544
 4507POPC   C3A59609  30.705   7.026   6.957
 4507POPC   C4A59610  30.693   7.121   7.410
 4507POPC   C1B59611  30.216   7.616   6.188
 4507POPC   C2B59612  30.399   7.625   6.632
 4507POPC   C3B59613  30.557   7.505   7.057
 4507POPC   C4B59614  30.572   7.678   7.496
 4508POPC   NC359615  32.648  13.524   5.437
 4508POPC   PO459616  31.972  13.682   5.263
 4508POPC   GL159617  32.149  13.603   5.669
 4508POPC   GL259618  31.802  13.512   5.764
 4508POPC   C1A59619  32.429  13.651   6.065
 4508POPC   D2A59620  32.337  13.592   6.532
 4508POPC   C3A59621  32.515  13.865   6.850
 4508POPC   C4A59622  32.602  13.838   7.278
 4508POPC   C1B59623  31.994  13.413   6.157
 4508POPC   C2B59624  32.009  13.188   6.556
 4508POPC   C3B59625  32.013  13.365   6.951
 4508POPC   C4B59626  32.083  13.699   7.247
 4509POPC   NC359627  33.781  29.695   5.304
 4509POPC   PO459628  33.647  30.382   5.222
 4509POPC   GL159629  33.576  30.163   5.662
 4509POPC   GL259630  33.615  29.801   5.790
 4509POPC   C1A59631  33.504  30.180   6.143
 4509POPC   D2A59632  33.594  29.994   6.554
 4509POPC   C3A59633  33.684  30.234   6.940
 4509POPC   C4A59634  33.524  30.181   7.377
 4509POPC   C1B59635  33.969  29.904   6.084
 4509POPC   C2B59636  34.101  29.902   6.540
 4509POPC   C3B59637  33.936  29.798   6.987
 4509POPC   C4B59638  33.921  29.873   7.455
 4510POPC   NC359639   6.126  43.781   5.408
 4510POPC   PO459640   5.512  44.024   5.517
 4510POPC   GL159641   5.762  43.775   5.788
 4510POPC   GL259642   6.035  43.985   5.866
 4510POPC   C1A59643   5.900  43.662   6.228
 4510POPC   D2A59644   5.768  43.591   6.655
 4510POPC   C3A59645   6.079  43.663   6.980
 4510POPC   C4A59646   6.064  43.979   7.318
 4510POPC   C1B59647   5.728  44.144   6.134
 4510POPC   C2B59648   5.575  44.060   6.531
 4510POPC   C3B59649   5.756  44.066   6.908
 4510POPC   C4B59650   5.566  44.142   7.278
 4511POPC   NC359651   1.319  32.685   5.445
 4511POPC   PO459652   1.550  33.341   5.399
 4511POPC   GL159653   1.320  33.128   5.741
 4511POPC   GL259654   0.987  32.921   5.765
 4511POPC   C1A59655   1.254  33.187   6.183
 4511POPC   D2A59656   1.499  33.192   6.556
 4511POPC   C3A59657   1.261  33.214   6.904
 4511POPC   C4A59658   1.394  33.151   7.276
 4511POPC   C1B59659   1.214  32.688   6.090
 4511POPC   C2B59660   1.475  32.679   6.440
 4511POPC   C3B59661   1.401  32.736   6.851
 4511POPC   C4B59662   1.607  32.675   7.221
 4512POPC   NC359663  15.822  33.816   5.360
 4512POPC   PO459664  16.428  33.848   5.214
 4512POPC   GL159665  16.217  33.888   5.671
 4512POPC   GL259666  16.395  34.020   5.865
 4512POPC   C1A59667  15.916  34.022   6.049
 4512POPC   D2A59668  15.723  33.838   6.429
 4512POPC   C3A59669  15.858  33.921   6.862
 4512POPC   C4A59670  15.923  33.603   7.194
 4512POPC   C1B59671  16.297  33.710   6.152
 4512POPC   C2B59672  16.260  33.899   6.535
 4512POPC   C3B59673  16.371  33.894   6.964
 4512POPC   C4B59674  16.202  33.984   7.370
 4513POPC   NC359675  18.894  40.576   5.566
 4513POPC   PO459676  19.468  41.143   5.502
 4513POPC   GL159677  19.233  40.905   5.787
 4513POPC   GL259678  19.432  40.619   5.890
 4513POPC   C1A59679  18.983  40.897   6.174
 4513POPC   D2A59680  19.058  41.086   6.583
 4513POPC   C3A59681  19.191  40.936   7.013
 4513POPC   C4A59682  19.429  41.113   7.388
 4513POPC   C1B59683  19.124  40.408   6.175
 4513POPC   C2B59684  19.105  40.503   6.622
 4513POPC   C3B59685  19.130  40.404   7.070
 4513POPC   C4B59686  18.822  40.461   7.376
 4514POPC   NC359687   2.519  36.169   5.422
 4514POPC   PO459688   3.163  36.007   5.379
 4514POPC   GL159689   2.902  36.089   5.750
 4514POPC   GL259690   2.898  36.428   5.718
 4514POPC   C1A59691   2.792  36.063   6.219
 4514POPC   D2A59692   2.536  36.232   6.577
 4514POPC   C3A59693   2.773  36.104   6.917
 4514POPC   C4A59694   2.750  36.066   7.339
 4514POPC   C1B59695   2.856  36.567   6.131
 4514POPC   C2B59696   2.983  36.455   6.524
 4514POPC   C3B59697   2.862  36.595   6.965
 4514POPC   C4B59698   3.100  36.491   7.336
 4515POPC   NC359699  17.535  33.628   5.448
 4515POPC   PO459700  17.143  34.125   5.642
 4515POPC   GL159701  17.408  33.831   5.906
 4515POPC   GL259702  17.756  33.634   5.887
 4515POPC   C1A59703  17.635  33.901   6.292
 4515POPC   D2A59704  17.609  34.111   6.646
 4515POPC   C3A59705  17.432  33.924   6.970
 4515POPC   C4A59706  17.590  33.975   7.331
 4515POPC   C1B59707  17.797  33.434   6.270
 4515POPC   C2B59708  17.665  33.515   6.691
 4515POPC   C3B59709  17.722  33.513   7.116
 4515POPC   C4B59710  18.008  33.628   7.427
 4516POPC   NC359711  18.428  38.106   5.326
 4516POPC   PO459712  18.202  37.466   5.346
 4516POPC   GL159713  18.313  37.715   5.694
 4516POPC   GL259714  18.515  38.001   5.832
 4516POPC   C1A59715  18.219  37.688   6.119
 4516POPC   D2A59716  18.364  37.954   6.444
 4516POPC   C3A59717  18.255  37.740   6.805
 4516POPC   C4A59718  17.991  37.697   7.123
 4516POPC   C1B59719  18.742  37.730   6.156
 4516POPC   C2B59720  18.641  37.514   6.560
 4516POPC   C3B59721  18.719  37.632   6.975
 4516POPC   C4B59722  18.461  37.912   7.247
 4517POPC   NC359723  29.119   9.958   5.158
 4517POPC   PO459724  28.807   9.541   5.701
 4517POPC   GL159725  29.055   9.833   5.830
 4517POPC   GL259726  29.382   9.881   5.719
 4517POPC   C1A59727  28.921   9.923   6.233
 4517POPC   D2A59728  28.783   9.824   6.622
 4517POPC   C3A59729  28.930   9.935   7.050
 4517POPC   C4A59730  28.918   9.978   7.510
 4517POPC   C1B59731  29.416   9.890   6.163
 4517POPC   C2B59732  29.290   9.801   6.580
 4517POPC   C3B59733  29.450   9.929   6.949
 4517POPC   C4B59734  29.751   9.888   7.278
 4518POPC   NC359735  14.626   2.666   5.395
 4518POPC   PO459736  14.036   2.778   5.481
 4518POPC   GL159737  14.279   2.536   5.796
 4518POPC   GL259738  14.633   2.614   5.906
 4518POPC   C1A59739  14.243   2.540   6.248
 4518POPC   D2A59740  14.350   2.800   6.615
 4518POPC   C3A59741  14.333   2.873   7.068
 4518POPC   C4A59742  14.223   2.689   7.457
 4518POPC   C1B59743  14.749   2.510   6.358
 4518POPC   C2B59744  14.680   2.446   6.814
 4518POPC   C3B59745  14.730   2.599   7.234
 4518POPC   C4B59746  14.644   2.958   7.526
 4519POPC   NC359747  44.915  11.670   5.331
 4519POPC   PO459748  44.910  12.365   5.355
 4519POPC   GL159749  44.666  12.309   5.728
 4519POPC   GL259750  44.632  11.938   5.722
 4519POPC   C1A59751  44.671  12.229   6.169
 4519POPC   D2A59752  44.719  11.954   6.492
 4519POPC   C3A59753  44.823  12.077   6.906
 4519POPC   C4A59754  44.781  12.261   7.317
 4519POPC   C1B59755  44.318  11.806   6.037
 4519POPC   C2B59756  44.246  11.729   6.438
 4519POPC   C3B59757  44.385  11.773   6.831
 4519POPC   C4B59758  44.488  11.855   7.242
 4520POPC   NC359759   9.982  18.293   5.106
 4520POPC   PO459760   9.457  18.439   5.539
 4520POPC   GL159761   9.792  18.346   5.756
 4520POPC   GL259762  10.126  18.407   5.665
 4520POPC   C1A59763   9.866  18.583   6.116
 4520POPC   D2A59764   9.783  18.681   6.527
 4520POPC   C3A59765   9.515  18.434   6.731
 4520POPC   C4A59766   9.502  18.404   7.144
 4520POPC   C1B59767  10.161  18.177   6.061
 4520POPC   C2B59768   9.892  18.152   6.440
 4520POPC   C3B59769   9.962  18.191   6.880
 4520POPC   C4B59770   9.930  17.919   7.223
 4521POPC   NC359771  30.580  32.871   5.331
 4521POPC   PO459772  30.981  33.393   5.166
 4521POPC   GL159773  30.756  33.399   5.595
 4521POPC   GL259774  30.851  33.069   5.755
 4521POPC   C1A59775  30.706  33.453   6.065
 4521POPC   D2A59776  30.871  33.145   6.378
 4521POPC   C3A59777  30.736  33.151   6.814
 4521POPC   C4A59778  30.676  33.531   7.052
 4521POPC   C1B59779  30.540  32.906   6.083
 4521POPC   C2B59780  30.491  32.784   6.545
 4521POPC   C3B59781  30.374  32.805   7.009
 4521POPC   C4B59782  30.412  32.727   7.472
 4522POPC   NC359783  42.117   7.075   5.634
 4522POPC   PO459784  42.125   6.566   5.164
 4522POPC   GL159785  42.273   6.594   5.675
 4522POPC   GL259786  42.637   6.650   5.791
 4522POPC   C1A59787  42.274   6.746   6.159
 4522POPC   D2A59788  42.567   6.856   6.501
 4522POPC   C3A59789  42.320   6.796   6.862
 4522POPC   C4A59790  42.143   6.781   7.253
 4522POPC   C1B59791  42.597   6.371   6.154
 4522POPC   C2B59792  42.394   6.367   6.533
 4522POPC   C3B59793  42.494   6.289   6.927
 4522POPC   C4B59794  42.361   6.338   7.310
 4523POPC   NC359795   3.299  26.540   5.285
 4523POPC   PO459796   3.915  26.888   5.355
 4523POPC   GL159797   3.630  26.713   5.703
 4523POPC   GL259798   3.302  26.822   5.736
 4523POPC   C1A59799   3.496  26.551   6.134
 4523POPC   D2A59800   3.362  26.714   6.565
 4523POPC   C3A59801   3.556  26.484   6.914
 4523POPC   C4A59802   3.718  26.734   7.267
 4523POPC   C1B59803   3.258  27.008   6.151
 4523POPC   C2B59804   3.373  27.240   6.555
 4523POPC   C3B59805   3.289  27.081   6.972
 4523POPC   C4B59806   3.199  26.708   7.202
 4524POPC   NC359807  15.750  37.981   5.469
 4524POPC   PO459808  15.784  37.331   5.488
 4524POPC   GL159809  16.092  37.566   5.692
 4524POPC   GL259810  15.892  37.785   5.916
 4524POPC   C1A59811  16.263  37.516   6.111
 4524POPC   D2A59812  16.005  37.699   6.425
 4524POPC   C3A59813  16.076  37.715   6.843
 4524POPC   C4A59814  16.129  37.494   7.215
 4524POPC   C1B59815  15.565  37.573   6.197
 4524POPC   C2B59816  15.587  37.413   6.634
 4524POPC   C3B59817  15.636  37.569   7.065
 4524POPC   C4B59818  15.692  37.717   7.527
 4525POPC   NC359819  37.218  30.226   5.431
 4525POPC   PO459820  37.924  30.115   5.425
 4525POPC   GL159821  37.642  29.916   5.741
 4525POPC   GL259822  37.428  29.655   5.601
 4525POPC   C1A59823  37.727  29.811   6.194
 4525POPC   D2A59824  37.558  29.802   6.625
 4525POPC   C3A59825  37.807  29.996   6.931
 4525POPC   C4A59826  37.792  30.015   7.358
 4525POPC   C1B59827  37.432  29.448   6.014
 4525POPC   C2B59828  37.312  29.388   6.480
 4525POPC   C3B59829  37.335  29.455   6.949
 4525POPC   C4B59830  37.417  29.691   7.341
 4526POPC   NC359831  15.993  44.900   5.410
 4526POPC   PO459832  16.276  44.271   5.261
 4526POPC   GL159833  15.962  44.391   5.627
 4526POPC   GL259834  16.062  44.711   5.874
 4526POPC   C1A59835  15.820  44.325   6.088
 4526POPC   D2A59836  16.091  44.516   6.412
 4526POPC   C3A59837  16.035  44.478   6.869
 4526POPC   C4A59838  15.728  44.509   7.173
 4526POPC   C1B59839  16.269  44.971   6.244
 4526POPC   C2B59840  16.236  44.936   6.724
 4526POPC   C3B59841  16.115  44.892   7.199
 4526POPC   C4B59842  16.343  44.952   7.599
 4527POPC   NC359843  33.511  25.333   5.475
 4527POPC   PO459844  34.171  25.068   5.530
 4527POPC   GL159845  33.923  25.285   5.786
 4527POPC   GL259846  34.209  25.432   5.922
 4527POPC   C1A59847  33.708  25.288   6.177
 4527POPC   D2A59848  33.773  25.052   6.537
 4527POPC   C3A59849  33.732  25.315   6.901
 4527POPC   C4A59850  33.530  25.370   7.313
 4527POPC   C1B59851  34.186  25.073   6.193
 4527POPC   C2B59852  34.304  25.124   6.600
 4527POPC   C3B59853  34.104  24.995   6.947
 4527POPC   C4B59854  34.025  25.227   7.318
 4528POPC   NC359855  11.686   7.028   5.477
 4528POPC   PO459856  11.205   7.367   5.254
 4528POPC   GL159857  11.367   7.442   5.656
 4528POPC   GL259858  11.412   7.174   5.905
 4528POPC   C1A59859  11.530   7.665   5.990
 4528POPC   D2A59860  11.507   7.726   6.451
 4528POPC   C3A59861  11.388   7.705   6.895
 4528POPC   C4A59862  11.382   7.572   7.335
 4528POPC   C1B59863  11.138   7.452   6.208
 4528POPC   C2B59864  10.948   7.573   6.625
 4528POPC   C3B59865  10.950   7.495   7.087
 4528POPC   C4B59866  10.951   7.412   7.550
 4529POPC   NC359867  29.066  21.107   5.223
 4529POPC   PO459868  29.556  21.538   5.524
 4529POPC   GL159869  29.373  21.344   5.908
 4529POPC   GL259870  29.008  21.258   5.946
 4529POPC   C1A59871  29.228  21.610   6.260
 4529POPC   D2A59872  29.502  21.797   6.535
 4529POPC   C3A59873  29.334  21.843   6.918
 4529POPC   C4A59874  29.227  21.675   7.322
 4529POPC   C1B59875  29.245  21.124   6.363
 4529POPC   C2B59876  29.221  21.346   6.765
 4529POPC   C3B59877  28.913  21.319   7.099
 4529POPC   C4B59878  28.961  21.287   7.561
 4530POPC   NC359879  43.009  42.583   5.621
 4530POPC   PO459880  42.824  41.998   5.492
 4530POPC   GL159881  42.987  42.069   5.900
 4530POPC   GL259882  43.338  42.219   5.847
 4530POPC   C1A59883  42.908  42.036   6.360
 4530POPC   D2A59884  43.186  42.086   6.733
 4530POPC   C3A59885  43.130  42.038   7.179
 4530POPC   C4A59886  42.964  42.419   7.273
 4530POPC   C1B59887  43.395  42.487   6.232
 4530POPC   C2B59888  43.285  42.603   6.662
 4530POPC   C3B59889  43.450  42.422   7.060
 4530POPC   C4B59890  43.426  42.332   7.519
 4531POPC   NC359891  34.736  41.909   5.462
 4531POPC   PO459892  34.377  41.447   5.107
 4531POPC   GL159893  34.445  41.521   5.642
 4531POPC   GL259894  34.760  41.597   5.861
 4531POPC   C1A59895  34.407  41.352   6.119
 4531POPC   D2A59896  34.595  41.368   6.582
 4531POPC   C3A59897  34.416  41.503   7.017
 4531POPC   C4A59898  34.672  41.571   7.429
 4531POPC   C1B59899  34.588  41.797   6.263
 4531POPC   C2B59900  34.426  41.885   6.688
 4531POPC   C3B59901  34.683  41.935   7.068
 4531POPC   C4B59902  35.073  41.912   7.260
 4532POPC   NC359903  37.792   2.269   5.368
 4532POPC   PO459904  37.311   1.832   5.103
 4532POPC   GL159905  37.524   1.818   5.567
 4532POPC   GL259906  37.876   1.918   5.710
 4532POPC   C1A59907  37.505   1.749   6.043
 4532POPC   D2A59908  37.440   1.942   6.468
 4532POPC   C3A59909  37.612   1.843   6.882
 4532POPC   C4A59910  37.452   1.853   7.303
 4532POPC   C1B59911  37.840   2.149   6.124
 4532POPC   C2B59912  37.971   1.992   6.535
 4532POPC   C3B59913  38.044   2.172   6.958
 4532POPC   C4B59914  37.835   2.222   7.366
 4533POPC   NC359915  30.652   6.307   5.375
 4533POPC   PO459916  30.917   6.892   5.410
 4533POPC   GL159917  30.607   6.804   5.764
 4533POPC   GL259918  30.709   6.470   5.864
 4533POPC   C1A59919  30.614   6.798   6.252
 4533POPC   D2A59920  30.408   6.719   6.649
 4533POPC   C3A59921  30.609   6.540   6.996
 4533POPC   C4A59922  30.724   6.605   7.410
 4533POPC   C1B59923  30.973   6.412   6.256
 4533POPC   C2B59924  30.981   6.624   6.660
 4533POPC   C3B59925  31.120   6.547   7.099
 4533POPC   C4B59926  31.146   6.283   7.505
 4534POPC   NC359927  14.430  17.409   5.451
 4534POPC   PO459928  14.397  16.712   5.414
 4534POPC   GL159929  14.494  16.788   5.829
 4534POPC   GL259930  14.552  17.155   5.890
 4534POPC   C1A59931  14.523  16.741   6.257
 4534POPC   D2A59932  14.301  16.563   6.571
 4534POPC   C3A59933  14.467  16.690   6.910
 4534POPC   C4A59934  14.526  16.551   7.290
 4534POPC   C1B59935  14.116  17.035   6.064
 4534POPC   C2B59936  13.909  16.944   6.482
 4534POPC   C3B59937  14.030  16.960   6.908
 4534POPC   C4B59938  14.301  17.037   7.273
 4535POPC   NC359939   2.787  17.673   5.305
 4535POPC   PO459940   2.674  17.059   5.471
 4535POPC   GL159941   2.678  17.299   5.857
 4535POPC   GL259942   2.736  17.662   5.817
 4535POPC   C1A59943   2.967  17.409   6.212
 4535POPC   D2A59944   2.848  17.414   6.634
 4535POPC   C3A59945   3.056  17.532   6.993
 4535POPC   C4A59946   2.852  17.206   7.218
 4535POPC   C1B59947   2.775  17.939   6.187
 4535POPC   C2B59948   2.859  17.905   6.622
 4535POPC   C3B59949   2.660  17.880   7.021
 4535POPC   C4B59950   2.859  17.867   7.392
 4536POPC   NC359951   8.094  34.552   5.305
 4536POPC   PO459952   8.525  35.108   5.554
 4536POPC   GL159953   8.247  34.760   5.793
 4536POPC   GL259954   8.279  34.423   5.778
 4536POPC   C1A59955   8.068  34.597   6.204
 4536POPC   D2A59956   7.891  34.734   6.590
 4536POPC   C3A59957   8.095  34.576   6.958
 4536POPC   C4A59958   8.185  34.764   7.356
 4536POPC   C1B59959   8.497  34.308   6.197
 4536POPC   C2B59960   8.415  34.109   6.574
 4536POPC   C3B59961   8.568  34.105   6.979
 4536POPC   C4B59962   8.343  34.270   7.309
 4537POPC   NC359963   3.759  23.673   5.324
 4537POPC   PO459964   3.221  23.579   5.653
 4537POPC   GL159965   3.479  23.887   5.839
 4537POPC   GL259966   3.737  23.673   5.874
 4537POPC   C1A59967   3.388  24.179   6.172
 4537POPC   D2A59968   3.623  24.254   6.535
 4537POPC   C3A59969   3.465  24.004   6.842
 4537POPC   C4A59970   3.282  23.953   7.230
 4537POPC   C1B59971   3.659  23.756   6.320
 4537POPC   C2B59972   3.908  23.783   6.689
 4537POPC   C3B59973   3.893  23.763   7.137
 4537POPC   C4B59974   3.762  23.357   7.304
 4538POPC   NC359975  15.872  18.262   5.334
 4538POPC   PO459976  16.339  18.638   5.478
 4538POPC   GL159977  16.007  18.405   5.810
 4538POPC   GL259978  15.771  18.082   5.810
 4538POPC   C1A59979  15.855  18.310   6.254
 4538POPC   D2A59980  15.923  18.011   6.596
 4538POPC   C3A59981  15.905  18.199   7.009
 4538POPC   C4A59982  15.680  18.577   7.198
 4538POPC   C1B59983  16.147  17.924   6.060
 4538POPC   C2B59984  16.352  17.792   6.472
 4538POPC   C3B59985  16.267  17.818   6.939
 4538POPC   C4B59986  16.284  18.086   7.326
 4539POPC   NC359987  21.802  26.320   5.519
 4539POPC   PO459988  22.207  26.845   5.374
 4539POPC   GL159989  22.302  26.727   5.835
 4539POPC   GL259990  22.088  26.496   5.982
 4539POPC   C1A59991  22.393  26.765   6.316
 4539POPC   D2A59992  22.169  26.949   6.668
 4539POPC   C3A59993  22.143  26.715   7.043
 4539POPC   C4A59994  22.095  26.812   7.475
 4539POPC   C1B59995  21.858  26.733   6.307
 4539POPC   C2B59996  21.736  26.643   6.750
 4539POPC   C3B59997  21.778  26.335   7.106
 4539POPC   C4B59998  21.770  26.402   7.618
 4540POPC   NC359999  14.517  24.754   5.302
 4540POPC   PO460000  14.115  24.314   5.266
 4540POPC   GL160001  14.208  24.348   5.736
 4540POPC   GL260002  14.376  24.694   5.822
 4540POPC   C1A60003  14.362  24.295   6.186
 4540POPC   D2A60004  14.498  24.074   6.564
 4540POPC   C3A60005  14.327  24.250   6.958
 4540POPC   C4A60006  14.082  24.610   7.161
 4540POPC   C1B60007  14.431  24.820   6.279
 4540POPC   C2B60008  14.323  24.721   6.720
 4540POPC   C3B60009  14.606  24.651   7.092
 4540POPC   C4B60010  14.854  24.493   7.452
 4541POPC   NC360011  39.771  40.597   5.330
 4541POPC   PO460012  40.223  41.046   5.444
 4541POPC   GL160013  40.128  40.762   5.741
 4541POPC   GL260014  39.799  40.898   5.748
 4541POPC   C1A60015  40.090  40.675   6.169
 4541POPC   D2A60016  40.262  40.748   6.561
 4541POPC   C3A60017  40.097  40.726   6.997
 4541POPC   C4A60018  40.128  41.046   7.338
 4541POPC   C1B60019  39.599  40.769   6.098
 4541POPC   C2B60020  39.653  40.850   6.540
 4541POPC   C3B60021  39.551  40.642   6.945
 4541POPC   C4B60022  39.682  40.740   7.351
 4542POPC   NC360023   0.238   5.675   5.256
 4542POPC   PO460024   0.676   6.205   5.382
 4542POPC   GL160025   0.556   5.832   5.661
 4542POPC   GL260026   0.189   5.811   5.748
 4542POPC   C1A60027   0.528   5.670   6.108
 4542POPC   D2A60028   0.239   5.650   6.480
 4542POPC   C3A60029   0.390   5.792   6.865
 4542POPC   C4A60030   0.546   5.760   7.276
 4542POPC   C1B60031   0.346   6.128   6.051
 4542POPC   C2B60032   0.440   6.139   6.468
 4542POPC   C3B60033   0.397   6.309   6.880
 4542POPC   C4B60034   0.248   6.188   7.263
 4543POPC   NC360035   3.142  24.030   5.502
 4543POPC   PO460036   2.992  23.461   5.152
 4543POPC   GL160037   2.728  23.616   5.606
 4543POPC   GL260038   2.575  23.928   5.725
 4543POPC   C1A60039   2.517  23.514   6.028
 4543POPC   D2A60040   2.467  23.757   6.446
 4543POPC   C3A60041   2.539  23.555   6.872
 4543POPC   C4A60042   2.796  23.677   7.234
 4543POPC   C1B60043   2.877  23.872   6.117
 4543POPC   C2B60044   2.976  23.937   6.593
 4543POPC   C3B60045   2.878  24.161   7.013
 4543POPC   C4B60046   2.896  24.135   7.513
 4544POPC   NC360047  38.607  21.437   5.604
 4544POPC   PO460048  38.312  20.956   5.523
 4544POPC   GL160049  38.168  21.236   5.806
 4544POPC   GL260050  38.096  21.603   5.767
 4544POPC   C1A60051  38.270  21.148   6.217
 4544POPC   D2A60052  38.215  21.202   6.637
 4544POPC   C3A60053  38.562  21.319   6.825
 4544POPC   C4A60054  38.571  21.271   7.237
 4544POPC   C1B60055  38.269  21.653   6.183
 4544POPC   C2B60056  38.330  21.737   6.628
 4544POPC   C3B60057  38.345  21.712   7.080
 4544POPC   C4B60058  38.087  21.870   7.427
 4545POPC   NC360059  12.307  31.660   5.404
 4545POPC   PO460060  11.876  31.149   5.235
 4545POPC   GL160061  11.956  31.311   5.654
 4545POPC   GL260062  11.985  31.666   5.815
 4545POPC   C1A60063  11.859  31.217   6.054
 4545POPC   D2A60064  11.875  31.461   6.415
 4545POPC   C3A60065  12.013  31.267   6.755
 4545POPC   C4A60066  11.999  31.168   7.166
 4545POPC   C1B60067  12.177  31.813   6.223
 4545POPC   C2B60068  12.156  31.947   6.662
 4545POPC   C3B60069  12.094  31.686   6.993
 4545POPC   C4B60070  12.373  31.488   7.292
 4546POPC   NC360071   3.760  15.418   5.701
 4546POPC   PO460072   3.643  15.742   5.179
 4546POPC   GL160073   3.713  15.912   5.672
 4546POPC   GL260074   3.380  16.012   5.831
 4546POPC   C1A60075   3.768  15.867   6.154
 4546POPC   D2A60076   3.516  15.810   6.535
 4546POPC   C3A60077   3.684  15.948   6.920
 4546POPC   C4A60078   3.604  15.626   7.242
 4546POPC   C1B60079   3.173  16.011   6.216
 4546POPC   C2B60080   3.077  16.113   6.629
 4546POPC   C3B60081   3.166  15.884   6.977
 4546POPC   C4B60082   3.351  16.068   7.319
 4547POPC   NC360083  40.828   2.129   5.118
 4547POPC   PO460084  40.594   1.589   5.277
 4547POPC   GL160085  40.839   1.866   5.604
 4547POPC   GL260086  40.612   2.076   5.830
 4547POPC   C1A60087  41.018   1.827   6.049
 4547POPC   D2A60088  40.807   1.941   6.437
 4547POPC   C3A60089  40.922   1.762   6.822
 4547POPC   C4A60090  41.066   1.626   7.184
 4547POPC   C1B60091  40.415   2.315   6.195
 4547POPC   C2B60092  40.342   2.336   6.654
 4547POPC   C3B60093  40.658   2.198   6.958
 4547POPC   C4B60094  40.718   1.953   7.328
 4548POPC   NC360095   5.207   0.731   5.506
 4548POPC   PO460096   4.745   0.283   5.653
 4548POPC   GL160097   4.888   0.645   5.884
 4548POPC   GL260098   4.632   0.897   5.741
 4548POPC   C1A60099   5.104   0.532   6.277
 4548POPC   D2A60100   4.982   0.180   6.591
 4548POPC   C3A60101   5.182   0.129   6.995
 4548POPC   C4A60102   5.396   0.261   7.320
 4548POPC   C1B60103   4.481   0.715   6.146
 4548POPC   C2B60104   4.678   0.653   6.533
 4548POPC   C3B60105   4.719   0.734   6.937
 4548POPC   C4B60106   4.932   0.613   7.322
 4549POPC   NC360107  33.475  13.351   5.480
 4549POPC   PO460108  33.812  13.883   5.343
 4549POPC   GL160109  33.845  13.679   5.716
 4549POPC   GL260110  33.540  13.787   5.773
 4549POPC   C1A60111  33.847  13.712   6.179
 4549POPC   D2A60112  33.808  13.944   6.558
 4549POPC   C3A60113  34.133  13.856   6.873
 4549POPC   C4A60114  33.995  13.770   7.299
 4549POPC   C1B60115  33.374  13.510   6.108
 4549POPC   C2B60116  33.520  13.394   6.500
 4549POPC   C3B60117  33.712  13.547   6.869
 4549POPC   C4B60118  33.515  13.842   7.126
 4550POPC   NC360119  39.187  10.778   5.424
 4550POPC   PO460120  39.713  10.367   5.481
 4550POPC   GL160121  39.466  10.297   5.842
 4550POPC   GL260122  39.159  10.474   5.846
 4550POPC   C1A60123  39.483  10.565   6.229
 4550POPC   D2A60124  39.423  10.794   6.624
 4550POPC   C3A60125  39.412  10.555   7.001
 4550POPC   C4A60126  39.455  10.578   7.425
 4550POPC   C1B60127  38.977  10.330   6.230
 4550POPC   C2B60128  39.103  10.370   6.644
 4550POPC   C3B60129  38.935  10.310   7.070
 4550POPC   C4B60130  39.027  10.363   7.520
 4551POPC   NC360131  14.593  37.391   5.595
 4551POPC   PO460132  14.259  38.054   5.514
 4551POPC   GL160133  14.445  37.844   5.827
 4551POPC   GL260134  14.194  37.601   5.842
 4551POPC   C1A60135  14.535  37.772   6.260
 4551POPC   D2A60136  14.687  37.791   6.678
 4551POPC   C3A60137  14.382  37.789   6.999
 4551POPC   C4A60138  14.386  37.577   7.379
 4551POPC   C1B60139  14.123  37.425   6.234
 4551POPC   C2B60140  14.312  37.444   6.612
 4551POPC   C3B60141  14.224  37.305   6.991
 4551POPC   C4B60142  13.881  37.599   7.101
 4552POPC   NC360143  24.532  15.675   5.403
 4552POPC   PO460144  24.082  16.133   5.382
 4552POPC   GL160145  24.353  16.022   5.751
 4552POPC   GL260146  24.171  15.755   5.820
 4552POPC   C1A60147  24.566  15.814   6.117
 4552POPC   D2A60148  24.511  15.760   6.567
 4552POPC   C3A60149  24.771  15.945   6.915
 4552POPC   C4A60150  24.858  16.052   7.372
 4552POPC   C1B60151  24.139  15.512   6.189
 4552POPC   C2B60152  24.024  15.581   6.620
 4552POPC   C3B60153  24.176  15.694   6.996
 4552POPC   C4B60154  24.458  15.769   7.270
 4553POPC   NC360155  18.622  23.537   5.391
 4553POPC   PO460156  18.253  22.966   5.414
 4553POPC   GL160157  18.383  23.134   5.806
 4553POPC   GL260158  18.121  23.369   5.710
 4553POPC   C1A60159  18.342  22.891   6.239
 4553POPC   D2A60160  18.170  22.795   6.669
 4553POPC   C3A60161  18.324  22.957   7.075
 4553POPC   C4A60162  18.316  22.782   7.509
 4553POPC   C1B60163  17.979  23.213   6.095
 4553POPC   C2B60164  18.057  23.264   6.518
 4553POPC   C3B60165  17.866  23.265   6.939
 4553POPC   C4B60166  17.891  23.057   7.362
 4554POPC   NC360167  11.685  21.039   5.486
 4554POPC   PO460168  11.992  20.544   5.230
 4554POPC   GL160169  12.108  20.728   5.650
 4554POPC   GL260170  12.014  20.474   5.820
 4554POPC   C1A60171  12.268  20.846   6.110
 4554POPC   D2A60172  12.347  20.519   6.460
 4554POPC   C3A60173  12.283  20.601   6.930
 4554POPC   C4A60174  12.309  20.797   7.442
 4554POPC   C1B60175  11.872  20.480   6.221
 4554POPC   C2B60176  11.815  20.552   6.644
 4554POPC   C3B60177  11.847  20.885   6.919
 4554POPC   C4B60178  11.874  20.634   7.257
 4555POPC   NC360179   4.360  31.426   5.387
 4555POPC   PO460180   4.311  32.088   5.495
 4555POPC   GL160181   4.213  31.736   5.784
 4555POPC   GL260182   4.514  31.498   5.859
 4555POPC   C1A60183   4.248  31.729   6.247
 4555POPC   D2A60184   4.110  31.595   6.646
 4555POPC   C3A60185   4.259  31.763   7.014
 4555POPC   C4A60186   4.301  31.555   7.393
 4555POPC   C1B60187   4.368  31.228   6.189
 4555POPC   C2B60188   4.505  31.229   6.607
 4555POPC   C3B60189   4.343  31.201   7.009
 4555POPC   C4B60190   4.527  31.102   7.393
 4556POPC   NC360191  10.251  11.230   5.388
 4556POPC   PO460192  10.921  11.452   5.265
 4556POPC   GL160193  10.676  11.462   5.718
 4556POPC   GL260194  10.303  11.439   5.853
 4556POPC   C1A60195  10.654  11.577   6.184
 4556POPC   D2A60196  10.633  11.741   6.611
 4556POPC   C3A60197  10.830  11.516   6.965
 4556POPC   C4A60198  10.632  11.213   7.227
 4556POPC   C1B60199  10.358  11.150   6.183
 4556POPC   C2B60200  10.410  11.253   6.608
 4556POPC   C3B60201  10.298  10.985   6.919
 4556POPC   C4B60202  10.043  10.843   7.246
 4557POPC   NC360203  23.855  14.943   5.484
 4557POPC   PO460204  23.390  15.417   5.470
 4557POPC   GL160205  23.674  15.380   5.863
 4557POPC   GL260206  23.922  15.109   5.949
 4557POPC   C1A60207  23.687  15.321   6.329
 4557POPC   D2A60208  23.798  14.991   6.632
 4557POPC   C3A60209  24.023  15.197   6.977
 4557POPC   C4A60210  23.945  15.415   7.375
 4557POPC   C1B60211  23.568  14.851   6.148
 4557POPC   C2B60212  23.406  14.623   6.527
 4557POPC   C3B60213  23.373  14.827   6.942
 4557POPC   C4B60214  23.684  14.950   7.262
 4558POPC   NC360215   8.042  20.310   5.550
 4558POPC   PO460216   8.410  20.790   5.414
 4558POPC   GL160217   8.269  20.761   5.837
 4558POPC   GL260218   8.432  20.451   5.934
 4558POPC   C1A60219   8.000  20.565   6.191
 4558POPC   D2A60220   8.141  20.318   6.556
 4558POPC   C3A60221   8.037  20.468   6.965
 4558POPC   C4A60222   8.132  20.296   7.354
 4558POPC   C1B60223   8.494  20.723   6.316
 4558POPC   C2B60224   8.488  20.681   6.770
 4558POPC   C3B60225   8.539  20.519   7.165
 4558POPC   C4B60226   8.454  20.668   7.575
 4559POPC   NC360227  25.449  40.164   5.301
 4559POPC   PO460228  25.051  40.663   5.276
 4559POPC   GL160229  24.990  40.339   5.655
 4559POPC   GL260230  25.114  39.951   5.655
 4559POPC   C1A60231  25.078  40.168   6.110
 4559POPC   D2A60232  25.400  40.017   6.429
 4559POPC   C3A60233  25.378  40.044   6.869
 4559POPC   C4A60234  25.165  40.236   7.192
 4559POPC   C1B60235  25.252  39.685   6.060
 4559POPC   C2B60236  25.293  39.497   6.510
 4559POPC   C3B60237  25.331  39.559   6.981
 4559POPC   C4B60238  24.987  39.755   7.231
 4560POPC   NC360239  42.656  10.788   5.437
 4560POPC   PO460240  41.990  10.613   5.415
 4560POPC   GL160241  42.222  10.480   5.800
 4560POPC   GL260242  42.532  10.687   5.927
 4560POPC   C1A60243  42.235  10.387   6.247
 4560POPC   D2A60244  42.458  10.658   6.539
 4560POPC   C3A60245  42.281  10.651   6.946
 4560POPC   C4A60246  42.327  10.337   7.263
 4560POPC   C1B60247  42.693  10.268   6.069
 4560POPC   C2B60248  42.762  10.172   6.504
 4560POPC   C3B60249  42.765  10.387   6.909
 4560POPC   C4B60250  42.712  10.731   7.232
 4561POPC   NC360251   2.564  23.275   5.289
 4561POPC   PO460252   2.997  22.727   5.434
 4561POPC   GL160253   2.772  22.935   5.774
 4561POPC   GL260254   2.932  23.232   5.895
 4561POPC   C1A60255   2.594  23.016   6.204
 4561POPC   D2A60256   2.709  23.041   6.634
 4561POPC   C3A60257   2.381  23.034   6.937
 4561POPC   C4A60258   2.521  22.760   7.253
 4561POPC   C1B60259   2.977  23.405   6.330
 4561POPC   C2B60260   3.022  23.404   6.794
 4561POPC   C3B60261   2.866  23.153   7.149
 4561POPC   C4B60262   2.901  23.237   7.603
 4562POPC   NC360263  38.535  12.900   5.542
 4562POPC   PO460264  37.944  13.010   5.219
 4562POPC   GL160265  38.085  13.095   5.749
 4562POPC   GL260266  38.282  13.304   5.934
 4562POPC   C1A60267  38.392  12.856   6.160
 4562POPC   D2A60268  38.412  12.507   6.493
 4562POPC   C3A60269  38.497  12.588   6.940
 4562POPC   C4A60270  38.536  12.623   7.404
 4562POPC   C1B60271  38.071  13.183   6.340
 4562POPC   C2B60272  38.198  13.019   6.749
 4562POPC   C3B60273  38.373  13.041   7.171
 4562POPC   C4B60274  38.333  13.019   7.646
 4563POPC   NC360275  22.504  35.446   5.529
 4563POPC   PO460276  21.839  35.253   5.389
 4563POPC   GL160277  22.073  35.423   5.788
 4563POPC   GL260278  22.073  35.101   5.864
 4563POPC   C1A60279  22.350  35.374   6.221
 4563POPC   D2A60280  22.410  35.496   6.680
 4563POPC   C3A60281  22.198  35.244   7.018
 4563POPC   C4A60282  22.256  35.001   7.399
 4563POPC   C1B60283  21.853  35.324   6.248
 4563POPC   C2B60284  21.917  35.608   6.598
 4563POPC   C3B60285  22.090  35.745   7.008
 4563POPC   C4B60286  21.988  35.539   7.400
 4564POPC   NC360287  15.758   9.065   5.154
 4564POPC   PO460288  15.787   8.545   5.610
 4564POPC   GL160289  15.791   8.856   5.909
 4564POPC   GL260290  16.141   8.808   5.933
 4564POPC   C1A60291  15.565   8.885   6.311
 4564POPC   D2A60292  15.715   8.638   6.678
 4564POPC   C3A60293  15.677   8.764   7.104
 4564POPC   C4A60294  15.734   8.953   7.535
 4564POPC   C1B60295  16.056   8.911   6.374
 4564POPC   C2B60296  15.802   9.127   6.723
 4564POPC   C3B60297  15.968   9.193   7.136
 4564POPC   C4B60298  16.416   9.146   7.286
 4565POPC   NC360299   8.581  12.818   5.585
 4565POPC   PO460300   8.181  13.203   5.253
 4565POPC   GL160301   8.143  13.057   5.695
 4565POPC   GL260302   8.101  12.673   5.761
 4565POPC   C1A60303   8.287  12.963   6.147
 4565POPC   D2A60304   8.225  12.763   6.550
 4565POPC   C3A60305   8.373  13.005   6.893
 4565POPC   C4A60306   8.213  13.028   7.283
 4565POPC   C1B60307   7.879  12.604   6.177
 4565POPC   C2B60308   7.870  12.380   6.583
 4565POPC   C3B60309   7.931  12.538   7.000
 4565POPC   C4B60310   8.263  12.531   7.316
 4566POPC   NC360311  38.613  42.608   5.524
 4566POPC   PO460312  38.178  43.073   5.319
 4566POPC   GL160313  38.182  43.007   5.749
 4566POPC   GL260314  38.160  42.656   5.753
 4566POPC   C1A60315  38.352  43.172   6.133
 4566POPC   D2A60316  38.540  42.915   6.441
 4566POPC   C3A60317  38.412  43.004   6.852
 4566POPC   C4A60318  38.638  42.968   7.215
 4566POPC   C1B60319  38.073  42.738   6.190
 4566POPC   C2B60320  37.983  43.077   6.491
 4566POPC   C3B60321  38.010  43.332   6.879
 4566POPC   C4B60322  38.275  43.334   7.253
 4567POPC   NC360323  37.996  16.686   5.406
 4567POPC   PO460324  37.465  16.407   5.159
 4567POPC   GL160325  37.534  16.559   5.623
 4567POPC   GL260326  37.258  16.655   5.834
 4567POPC   C1A60327  37.731  16.827   5.992
 4567POPC   D2A60328  37.786  17.012   6.441
 4567POPC   C3A60329  37.646  16.996   6.888
 4567POPC   C4A60330  37.821  17.000   7.298
 4567POPC   C1B60331  37.391  16.661   6.317
 4567POPC   C2B60332  37.712  16.550   6.663
 4567POPC   C3B60333  37.688  16.533   7.129
 4567POPC   C4B60334  37.499  16.646   7.503
 4568POPC   NC360335  39.626  44.705   5.205
 4568POPC   PO460336  40.305  44.880   5.180
 4568POPC   GL160337  40.349  44.758   5.662
 4568POPC   GL260338  39.976  44.727   5.840
 4568POPC   C1A60339  40.347  44.911   6.118
 4568POPC   D2A60340  40.050  44.694   6.430
 4568POPC   C3A60341  40.193  44.420   6.775
 4568POPC   C4A60342  40.296  44.665   7.141
 4568POPC   C1B60343  39.669  44.924   6.172
 4568POPC   C2B60344  39.693   0.063   6.638
 4568POPC   C3B60345  39.812   0.012   7.117
 4568POPC   C4B60346  39.689   0.055   7.613
 4569POPC   NC360347   8.428  16.784   5.303
 4569POPC   PO460348   7.821  16.473   5.430
 4569POPC   GL160349   8.143  16.748   5.733
 4569POPC   GL260350   8.354  16.520   5.956
 4569POPC   C1A60351   8.410  16.985   6.066
 4569POPC   D2A60352   8.550  16.697   6.415
 4569POPC   C3A60353   8.586  16.861   6.825
 4569POPC   C4A60354   8.440  16.831   7.267
 4569POPC   C1B60355   7.995  16.717   6.238
 4569POPC   C2B60356   7.701  16.885   6.584
 4569POPC   C3B60357   7.763  16.901   7.027
 4569POPC   C4B60358   8.000  16.583   7.203
 4570POPC   NC360359  19.977  24.096   5.377
 4570POPC   PO460360  20.315  24.622   5.064
 4570POPC   GL160361  19.883  24.496   5.619
 4570POPC   GL260362  19.577  24.646   5.677
 4570POPC   C1A60363  19.863  24.434   6.123
 4570POPC   D2A60364  20.014  24.342   6.592
 4570POPC   C3A60365  19.943  24.542   7.030
 4570POPC   C4A60366  20.008  24.736   7.481
 4570POPC   C1B60367  19.444  24.714   6.103
 4570POPC   C2B60368  19.550  24.609   6.534
 4570POPC   C3B60369  19.426  24.629   6.959
 4570POPC   C4B60370  19.544  24.395   7.319
 4571POPC   NC360371  31.005  28.709   5.415
 4571POPC   PO460372  30.964  28.052   5.467
 4571POPC   GL160373  30.861  28.360   5.785
 4571POPC   GL260374  31.179  28.539   5.869
 4571POPC   C1A60375  30.739  28.472   6.209
 4571POPC   D2A60376  30.760  28.581   6.627
 4571POPC   C3A60377  30.479  28.440   6.910
 4571POPC   C4A60378  30.627  28.522   7.284
 4571POPC   C1B60379  31.199  28.169   6.139
 4571POPC   C2B60380  31.008  28.141   6.532
 4571POPC   C3B60381  31.105  28.214   6.971
 4571POPC   C4B60382  31.212  28.013   7.372
 4572POPC   NC360383  33.348  31.148   5.439
 4572POPC   PO460384  33.952  31.384   5.386
 4572POPC   GL160385  33.669  31.372   5.782
 4572POPC   GL260386  33.412  31.088   5.933
 4572POPC   C1A60387  33.721  31.354   6.243
 4572POPC   D2A60388  33.853  31.610   6.562
 4572POPC   C3A60389  33.924  31.416   6.930
 4572POPC   C4A60390  34.261  31.464   7.221
 4572POPC   C1B60391  33.272  31.498   6.082
 4572POPC   C2B60392  33.311  31.602   6.492
 4572POPC   C3B60393  33.351  31.390   6.880
 4572POPC   C4B60394  33.550  31.424   7.272
 4573POPC   NC360395   3.184   4.142   5.562
 4573POPC   PO460396   2.757   4.587   5.345
 4573POPC   GL160397   2.603   4.562   5.772
 4573POPC   GL260398   2.866   4.384   5.921
 4573POPC   C1A60399   2.458   4.452   6.217
 4573POPC   D2A60400   2.339   4.134   6.527
 4573POPC   C3A60401   2.506   4.168   6.950
 4573POPC   C4A60402   2.808   4.045   7.238
 4573POPC   C1B60403   2.875   4.158   6.330
 4573POPC   C2B60404   3.003   4.181   6.767
 4573POPC   C3B60405   3.073   4.458   7.142
 4573POPC   C4B60406   3.245   4.629   7.527
 4574POPC   NC360407  25.478  22.672   5.522
 4574POPC   PO460408  25.153  23.236   5.269
 4574POPC   GL160409  25.302  23.176   5.676
 4574POPC   GL260410  25.061  22.931   5.731
 4574POPC   C1A60411  25.402  23.041   6.101
 4574POPC   D2A60412  25.320  23.211   6.480
 4574POPC   C3A60413  25.391  23.025   6.851
 4574POPC   C4A60414  25.210  23.057   7.237
 4574POPC   C1B60415  24.973  22.726   6.138
 4574POPC   C2B60416  25.188  22.685   6.519
 4574POPC   C3B60417  25.137  22.567   6.951
 4574POPC   C4B60418  25.277  22.569   7.381
 4575POPC   NC360419  13.828  23.356   5.446
 4575POPC   PO460420  13.433  22.844   5.341
 4575POPC   GL160421  13.464  22.903   5.768
 4575POPC   GL260422  13.437  23.216   5.780
 4575POPC   C1A60423  13.716  22.951   6.152
 4575POPC   D2A60424  13.748  22.678   6.494
 4575POPC   C3A60425  13.796  22.842   6.920
 4575POPC   C4A60426  13.562  22.647   7.225
 4575POPC   C1B60427  13.303  23.317   6.153
 4575POPC   C2B60428  13.477  23.238   6.525
 4575POPC   C3B60429  13.371  23.146   6.917
 4575POPC   C4B60430  13.101  23.118   7.245
 4576POPC   NC360431  43.725  21.823   5.394
 4576POPC   PO460432  44.080  21.337   5.401
 4576POPC   GL160433  44.174  21.474   5.772
 4576POPC   GL260434  43.873  21.552   5.839
 4576POPC   C1A60435  44.244  21.358   6.170
 4576POPC   D2A60436  44.063  21.189   6.518
 4576POPC   C3A60437  44.194  21.336   6.919
 4576POPC   C4A60438  44.262  21.559   7.317
 4576POPC   C1B60439  43.669  21.371   6.217
 4576POPC   C2B60440  43.681  21.509   6.674
 4576POPC   C3B60441  43.546  21.568   7.123
 4576POPC   C4B60442  43.209  21.458   7.442
 4577POPC   NC360443  17.299  30.459   5.508
 4577POPC   PO460444  17.095  29.957   5.533
 4577POPC   GL160445  17.352  30.159   5.919
 4577POPC   GL260446  17.706  30.295   5.905
 4577POPC   C1A60447  17.440  30.222   6.366
 4577POPC   D2A60448  17.682  29.965   6.652
 4577POPC   C3A60449  17.379  29.703   6.863
 4577POPC   C4A60450  17.029  29.765   7.149
 4577POPC   C1B60451  17.917  30.373   6.330
 4577POPC   C2B60452  17.746  30.468   6.737
 4577POPC   C3B60453  17.420  30.225   7.007
 4577POPC   C4B60454  17.499  29.899   7.338
 4578POPC   NC360455  27.726  18.740   5.581
 4578POPC   PO460456  28.028  19.237   5.256
 4578POPC   GL160457  27.852  19.266   5.738
 4578POPC   GL260458  27.530  19.401   5.808
 4578POPC   C1A60459  27.692  19.078   6.165
 4578POPC   D2A60460  27.442  19.122   6.548
 4578POPC   C3A60461  27.642  18.980   6.918
 4578POPC   C4A60462  27.448  18.707   7.209
 4578POPC   C1B60463  27.258  19.462   6.170
 4578POPC   C2B60464  27.053  19.453   6.584
 4578POPC   C3B60465  27.211  19.534   6.964
 4578POPC   C4B60466  27.411  19.285   7.252
 4579POPC   NC360467  21.800   3.751   5.354
 4579POPC   PO460468  21.379   4.307   5.413
 4579POPC   GL160469  21.535   4.180   5.798
 4579POPC   GL260470  21.214   4.098   5.885
 4579POPC   C1A60471  21.522   4.380   6.216
 4579POPC   D2A60472  21.766   4.402   6.586
 4579POPC   C3A60473  21.603   4.205   6.934
 4579POPC   C4A60474  21.481   4.344   7.320
 4579POPC   C1B60475  21.110   4.102   6.323
 4579POPC   C2B60476  21.128   4.205   6.754
 4579POPC   C3B60477  21.195   3.960   7.164
 4579POPC   C4B60478  21.034   4.173   7.568
 4580POPC   NC360479  30.554  27.817   5.445
 4580POPC   PO460480  31.082  27.335   5.308
 4580POPC   GL160481  30.846  27.451   5.697
 4580POPC   GL260482  31.009  27.731   5.888
 4580POPC   C1A60483  30.637  27.460   6.119
 4580POPC   D2A60484  30.794  27.636   6.491
 4580POPC   C3A60485  30.752  27.409   6.878
 4580POPC   C4A60486  30.784  27.521   7.302
 4580POPC   C1B60487  30.691  27.981   6.110
 4580POPC   C2B60488  30.510  28.071   6.534
 4580POPC   C3B60489  30.683  27.937   6.898
 4580POPC   C4B60490  30.731  28.029   7.296
 4581POPC   NC360491  21.267  40.914   5.450
 4581POPC   PO460492  21.738  40.599   5.223
 4581POPC   GL160493  21.625  40.669   5.727
 4581POPC   GL260494  21.592  40.370   5.966
 4581POPC   C1A60495  21.302  40.781   6.085
 4581POPC   D2A60496  21.119  40.942   6.487
 4581POPC   C3A60497  21.148  40.779   6.924
 4581POPC   C4A60498  21.197  41.044   7.293
 4581POPC   C1B60499  21.498  40.454   6.418
 4581POPC   C2B60500  21.614  40.803   6.672
 4581POPC   C3B60501  21.667  40.939   7.069
 4581POPC   C4B60502  21.526  40.666   7.371
 4582POPC   NC360503  15.573  21.668   5.502
 4582POPC   PO460504  15.238  21.168   5.374
 4582POPC   GL160505  15.122  21.232   5.790
 4582POPC   GL260506  15.112  21.588   5.803
 4582POPC   C1A60507  15.255  21.121   6.205
 4582POPC   D2A60508  15.592  21.240   6.503
 4582POPC   C3A60509  15.443  21.307   6.932
 4582POPC   C4A60510  15.198  21.178   7.283
 4582POPC   C1B60511  15.384  21.604   6.162
 4582POPC   C2B60512  15.351  21.721   6.591
 4582POPC   C3B60513  15.500  21.816   6.998
 4582POPC   C4B60514  15.464  21.610   7.404
 4583POPC   NC360515   9.085  13.268   5.097
 4583POPC   PO460516   8.853  13.864   5.264
 4583POPC   GL160517   8.850  13.644   5.700
 4583POPC   GL260518   8.572  13.370   5.821
 4583POPC   C1A60519   8.938  13.839   6.130
 4583POPC   D2A60520   8.793  13.766   6.587
 4583POPC   C3A60521   9.107  13.684   6.957
 4583POPC   C4A60522   9.223  13.618   7.407
 4583POPC   C1B60523   8.773  13.357   6.239
 4583POPC   C2B60524   8.794  13.254   6.712
 4583POPC   C3B60525   8.736  13.328   7.169
 4583POPC   C4B60526   8.942  13.219   7.555
 4584POPC   NC360527  24.894  17.491   5.322
 4584POPC   PO460528  25.547  17.205   5.370
 4584POPC   GL160529  25.230  17.305   5.694
 4584POPC   GL260530  25.268  17.675   5.782
 4584POPC   C1A60531  25.092  17.359   6.127
 4584POPC   D2A60532  25.328  17.425   6.479
 4584POPC   C3A60533  25.123  17.349   6.839
 4584POPC   C4A60534  25.386  17.479   7.130
 4584POPC   C1B60535  25.376  17.876   6.214
 4584POPC   C2B60536  25.508  17.901   6.689
 4584POPC   C3B60537  25.444  17.985   7.158
 4584POPC   C4B60538  25.208  17.781   7.499
 4585POPC   NC360539  22.569  27.410   5.463
 4585POPC   PO460540  23.103  27.868   5.435
 4585POPC   GL160541  23.045  27.572   5.777
 4585POPC   GL260542  22.974  27.852   5.988
 4585POPC   C1A60543  22.942  27.342   6.163
 4585POPC   D2A60544  23.024  27.311   6.615
 4585POPC   C3A60545  22.890  27.561   6.933
 4585POPC   C4A60546  22.921  27.341   7.279
 4585POPC   C1B60547  23.218  27.745   6.355
 4585POPC   C2B60548  23.311  27.815   6.797
 4585POPC   C3B60549  23.328  27.705   7.221
 4585POPC   C4B60550  23.343  27.832   7.656
 4586POPC   NC360551  43.319  39.751   5.468
 4586POPC   PO460552  42.938  40.317   5.362
 4586POPC   GL160553  42.978  40.270   5.787
 4586POPC   GL260554  43.022  39.927   5.872
 4586POPC   C1A60555  42.830  40.255   6.218
 4586POPC   D2A60556  42.823  39.944   6.544
 4586POPC   C3A60557  42.974  40.106   6.921
 4586POPC   C4A60558  43.291  40.161   7.233
 4586POPC   C1B60559  43.297  40.001   6.273
 4586POPC   C2B60560  43.291  39.767   6.684
 4586POPC   C3B60561  43.318  39.688   7.118
 4586POPC   C4B60562  43.406  39.736   7.547
 4587POPC   NC360563  12.385   6.823   5.271
 4587POPC   PO460564  11.852   6.424   5.424
 4587POPC   GL160565  12.027   6.660   5.709
 4587POPC   GL260566  11.714   6.685   5.874
 4587POPC   C1A60567  12.247   6.524   6.084
 4587POPC   D2A60568  12.209   6.497   6.539
 4587POPC   C3A60569  12.290   6.608   6.976
 4587POPC   C4A60570  11.928   6.612   7.248
 4587POPC   C1B60571  11.873   6.795   6.286
 4587POPC   C2B60572  12.071   6.998   6.648
 4587POPC   C3B60573  12.048   7.101   7.077
 4587POPC   C4B60574  12.279   7.330   7.349
 4588POPC   NC360575  34.348  44.806   5.235
 4588POPC   PO460576  34.766  44.405   5.554
 4588POPC   GL160577  34.496  44.535   5.841
 4588POPC   GL260578  34.451  44.859   5.738
 4588POPC   C1A60579  34.662  44.691   6.228
 4588POPC   D2A60580  34.931  44.569   6.585
 4588POPC   C3A60581  34.755  44.390   6.938
 4588POPC   C4A60582  34.713  44.521   7.347
 4588POPC   C1B60583  34.286   0.051   6.118
 4588POPC   C2B60584  34.428   0.023   6.545
 4588POPC   C3B60585  34.575  44.907   6.970
 4588POPC   C4B60586  34.244  44.743   7.266
 4589POPC   NC360587  12.219   1.375   5.272
 4589POPC   PO460588  11.809   0.944   5.509
 4589POPC   GL160589  11.959   1.092   5.899
 4589POPC   GL260590  12.071   1.407   5.794
 4589POPC   C1A60591  11.776   1.152   6.334
 4589POPC   D2A60592  11.840   1.278   6.781
 4589POPC   C3A60593  12.264   1.140   6.908
 4589POPC   C4A60594  12.379   0.770   7.170
 4589POPC   C1B60595  12.236   1.558   6.197
 4589POPC   C2B60596  12.519   1.628   6.576
 4589POPC   C3B60597  12.466   1.612   7.027
 4589POPC   C4B60598  12.166   1.459   7.309
 4590POPC   NC360599  19.011  13.419   5.282
 4590POPC   PO460600  19.084  13.980   4.983
 4590POPC   GL160601  19.030  13.825   5.555
 4590POPC   GL260602  18.774  13.603   5.702
 4590POPC   C1A60603  19.206  13.677   5.991
 4590POPC   D2A60604  19.215  13.415   6.404
 4590POPC   C3A60605  19.194  13.399   6.857
 4590POPC   C4A60606  19.188  13.769   7.119
 4590POPC   C1B60607  18.731  13.781   6.140
 4590POPC   C2B60608  18.703  13.613   6.571
 4590POPC   C3B60609  18.550  13.784   6.947
 4590POPC   C4B60610  18.695  13.787   7.357
 4591POPC   NC360611  31.725  26.973   4.971
 4591POPC   PO460612  31.287  26.621   5.423
 4591POPC   GL160613  31.337  26.832   5.805
 4591POPC   GL260614  31.674  26.954   5.733
 4591POPC   C1A60615  31.406  26.710   6.236
 4591POPC   D2A60616  31.269  26.488   6.602
 4591POPC   C3A60617  31.522  26.712   6.900
 4591POPC   C4A60618  31.478  26.786   7.321
 4591POPC   C1B60619  31.645  27.163   6.150
 4591POPC   C2B60620  31.702  27.214   6.610
 4591POPC   C3B60621  31.919  27.057   6.980
 4591POPC   C4B60622  31.971  26.985   7.404
 4592POPC   NC360623  12.315   7.805   5.446
 4592POPC   PO460624  12.127   7.143   5.446
 4592POPC   GL160625  11.913   7.439   5.710
 4592POPC   GL260626  11.941   7.159   5.934
 4592POPC   C1A60627  12.027   7.662   6.112
 4592POPC   D2A60628  12.268   7.459   6.471
 4592POPC   C3A60629  12.303   7.627   6.916
 4592POPC   C4A60630  12.230   7.838   7.356
 4592POPC   C1B60631  11.750   7.291   6.320
 4592POPC   C2B60632  11.834   7.464   6.736
 4592POPC   C3B60633  11.846   7.588   7.152
 4592POPC   C4B60634  11.794   7.320   7.529
 4593POPC   NC360635  35.542  33.167   5.437
 4593POPC   PO460636  34.932  32.973   5.499
 4593POPC   GL160637  35.220  33.004   5.822
 4593POPC   GL260638  35.517  32.785   5.801
 4593POPC   C1A60639  35.151  33.131   6.223
 4593POPC   D2A60640  35.175  32.944   6.616
 4593POPC   C3A60641  35.345  33.203   6.889
 4593POPC   C4A60642  35.232  33.378   7.245
 4593POPC   C1B60643  35.639  32.923   6.231
 4593POPC   C2B60644  35.700  32.868   6.699
 4593POPC   C3B60645  35.741  33.003   7.139
 4593POPC   C4B60646  35.740  32.946   7.594
 4594POPC   NC360647  25.623  37.792   5.515
 4594POPC   PO460648  24.992  37.605   5.396
 4594POPC   GL160649  25.223  37.633   5.803
 4594POPC   GL260650  25.553  37.418   5.838
 4594POPC   C1A60651  25.316  37.839   6.218
 4594POPC   D2A60652  25.036  37.987   6.569
 4594POPC   C3A60653  25.131  37.789   6.957
 4594POPC   C4A60654  25.543  37.913   7.140
 4594POPC   C1B60655  25.642  37.423   6.260
 4594POPC   C2B60656  25.494  37.565   6.648
 4594POPC   C3B60657  25.675  37.441   7.028
 4594POPC   C4B60658  25.534  37.443   7.431
 4595POPC   NC360659   7.031  15.729   5.377
 4595POPC   PO460660   7.647  15.552   5.455
 4595POPC   GL160661   7.425  15.817   5.717
 4595POPC   GL260662   7.729  16.017   5.711
 4595POPC   C1A60663   7.294  15.899   6.147
 4595POPC   D2A60664   7.230  15.625   6.514
 4595POPC   C3A60665   7.064  15.853   6.834
 4595POPC   C4A60666   7.094  16.211   7.109
 4595POPC   C1B60667   7.781  15.747   6.080
 4595POPC   C2B60668   7.701  15.870   6.482
 4595POPC   C3B60669   7.554  15.991   6.882
 4595POPC   C4B60670   7.621  16.254   7.221
 4596POPC   NC360671   5.265  28.910   5.332
 4596POPC   PO460672   4.766  29.328   5.484
 4596POPC   GL160673   4.975  29.356   5.857
 4596POPC   GL260674   5.272  29.164   5.810
 4596POPC   C1A60675   5.030  29.158   6.280
 4596POPC   D2A60676   4.947  28.972   6.681
 4596POPC   C3A60677   5.160  29.201   6.987
 4596POPC   C4A60678   5.154  29.426   7.361
 4596POPC   C1B60679   5.448  28.877   6.154
 4596POPC   C2B60680   5.584  28.804   6.581
 4596POPC   C3B60681   5.369  28.734   6.968
 4596POPC   C4B60682   5.474  28.555   7.340
 4597POPC   NC360683  36.606  19.647   5.413
 4597POPC   PO460684  36.936  19.039   5.454
 4597POPC   GL160685  36.861  19.342   5.784
 4597POPC   GL260686  37.155  19.288   6.002
 4597POPC   C1A60687  36.678  19.338   6.201
 4597POPC   D2A60688  36.772  19.058   6.535
 4597POPC   C3A60689  36.944  19.194   6.913
 4597POPC   C4A60690  36.717  19.175   7.279
 4597POPC   C1B60691  36.951  18.862   6.088
 4597POPC   C2B60692  36.996  18.578   6.440
 4597POPC   C3B60693  37.017  18.702   6.840
 4597POPC   C4B60694  37.136  18.866   7.244
 4598POPC   NC360695  34.637  33.345   5.505
 4598POPC   PO460696  34.284  32.778   5.329
 4598POPC   GL160697  34.330  32.930   5.754
 4598POPC   GL260698  34.662  32.888   5.900
 4598POPC   C1A60699  34.246  32.842   6.203
 4598POPC   D2A60700  34.248  33.075   6.603
 4598POPC   C3A60701  34.510  32.944   6.907
 4598POPC   C4A60702  34.873  33.070   7.074
 4598POPC   C1B60703  34.631  33.204   6.203
 4598POPC   C2B60704  34.758  33.302   6.605
 4598POPC   C3B60705  34.517  33.463   6.940
 4598POPC   C4B60706  34.725  33.525   7.301
 4599POPC   NC360707  27.583  41.841   5.488
 4599POPC   PO460708  27.492  41.152   5.491
 4599POPC   GL160709  27.595  41.436   5.844
 4599POPC   GL260710  27.738  41.202   6.115
 4599POPC   C1A60711  27.641  41.667   6.261
 4599POPC   D2A60712  27.763  41.489   6.691
 4599POPC   C3A60713  27.561  41.688   7.052
 4599POPC   C4A60714  27.318  41.892   7.385
 4599POPC   C1B60715  27.304  41.277   6.236
 4599POPC   C2B60716  27.245  41.490   6.625
 4599POPC   C3B60717  27.212  41.308   7.000
 4599POPC   C4B60718  27.617  41.170   7.149
 4600POPC   NC360719  27.059  43.284   5.459
 4600POPC   PO460720  26.618  42.779   5.372
 4600POPC   GL160721  26.700  43.009   5.741
 4600POPC   GL260722  26.407  42.908   5.857
 4600POPC   C1A60723  26.833  43.040   6.204
 4600POPC   D2A60724  27.125  43.112   6.590
 4600POPC   C3A60725  26.972  43.109   7.049
 4600POPC   C4A60726  27.181  43.150   7.470
 4600POPC   C1B60727  26.220  42.849   6.258
 4600POPC   C2B60728  26.300  42.685   6.658
 4600POPC   C3B60729  26.261  42.877   7.071
 4600POPC   C4B60730  26.529  43.036   7.408
 4601POPC   NC360731  28.703  13.073   5.294
 4601POPC   PO460732  28.331  13.655   5.264
 4601POPC   GL160733  28.228  13.724   5.692
 4601POPC   GL260734  28.205  13.370   5.789
 4601POPC   C1A60735  28.441  13.684   6.111
 4601POPC   D2A60736  28.636  13.739   6.494
 4601POPC   C3A60737  28.479  13.647   6.902
 4601POPC   C4A60738  28.706  13.611   7.279
 4601POPC   C1B60739  27.973  13.317   6.210
 4601POPC   C2B60740  27.827  13.339   6.639
 4601POPC   C3B60741  28.020  13.417   7.037
 4601POPC   C4B60742  27.893  13.324   7.480
 4602POPC   NC360743   8.460  21.217   5.250
 4602POPC   PO460744   8.003  21.701   5.345
 4602POPC   GL160745   8.153  21.499   5.705
 4602POPC   GL260746   8.481  21.309   5.752
 4602POPC   C1A60747   8.186  21.556   6.151
 4602POPC   D2A60748   8.521  21.656   6.445
 4602POPC   C3A60749   8.350  21.653   6.851
 4602POPC   C4A60750   8.030  21.397   7.004
 4602POPC   C1B60751   8.582  21.221   6.197
 4602POPC   C2B60752   8.450  21.176   6.658
 4602POPC   C3B60753   8.449  21.092   7.127
 4602POPC   C4B60754   8.729  21.187   7.502
 4603POPC   NC360755   6.015   0.166   5.316
 4603POPC   PO460756   5.587   0.654   5.257
 4603POPC   GL160757   5.730   0.680   5.688
 4603POPC   GL260758   6.031   0.467   5.724
 4603POPC   C1A60759   5.628   0.506   6.107
 4603POPC   D2A60760   5.523   0.734   6.506
 4603POPC   C3A60761   5.594   0.490   6.879
 4603POPC   C4A60762   5.822   0.544   7.248
 4603POPC   C1B60763   6.189   0.534   6.110
 4603POPC   C2B60764   5.996   0.505   6.481
 4603POPC   C3B60765   6.135   0.569   6.862
 4603POPC   C4B60766   6.408   0.288   7.109
 4604POPC   NC360767  26.567  37.901   5.317
 4604POPC   PO460768  25.984  37.507   5.479
 4604POPC   GL160769  26.012  37.671   5.871
 4604POPC   GL260770  26.307  37.538   5.922
 4604POPC   C1A60771  25.999  37.787   6.316
 4604POPC   D2A60772  25.896  37.859   6.752
 4604POPC   C3A60773  26.082  38.023   7.121
 4604POPC   C4A60774  25.912  37.781   7.500
 4604POPC   C1B60775  26.189  37.322   6.275
 4604POPC   C2B60776  26.050  37.361   6.669
 4604POPC   C3B60777  26.186  37.510   7.053
 4604POPC   C4B60778  26.384  37.696   7.370
 4605POPC   NC360779  12.338  44.055   5.327
 4605POPC   PO460780  11.777  43.778   5.554
 4605POPC   GL160781  12.051  44.031   5.764
 4605POPC   GL260782  12.287  43.767   5.756
 4605POPC   C1A60783  12.049  44.004   6.202
 4605POPC   D2A60784  11.714  43.857   6.468
 4605POPC   C3A60785  11.906  43.844   6.837
 4605POPC   C4A60786  11.779  43.957   7.189
 4605POPC   C1B60787  12.364  43.589   6.131
 4605POPC   C2B60788  12.142  43.521   6.501
 4605POPC   C3B60789  12.286  43.507   6.902
 4605POPC   C4B60790  12.178  43.662   7.303
 4606POPC   NC360791  25.231  12.735   5.449
 4606POPC   PO460792  25.894  12.481   5.408
 4606POPC   GL160793  25.601  12.605   5.754
 4606POPC   GL260794  25.519  12.987   5.764
 4606POPC   C1A60795  25.319  12.700   6.119
 4606POPC   D2A60796  24.902  12.674   6.307
 4606POPC   C3A60797  24.881  12.630   6.763
 4606POPC   C4A60798  25.015  12.881   7.110
 4606POPC   C1B60799  25.581  13.143   6.195
 4606POPC   C2B60800  25.324  12.995   6.540
 4606POPC   C3B60801  25.466  12.995   6.925
 4606POPC   C4B60802  25.488  12.827   7.318
 4607POPC   NC360803  37.172  21.264   5.368
 4607POPC   PO460804  36.670  21.673   5.402
 4607POPC   GL160805  36.903  21.519   5.784
 4607POPC   GL260806  36.982  21.155   5.859
 4607POPC   C1A60807  36.931  21.608   6.237
 4607POPC   D2A60808  36.954  21.445   6.638
 4607POPC   C3A60809  36.618  21.501   6.927
 4607POPC   C4A60810  36.630  21.738   7.300
 4607POPC   C1B60811  37.242  21.205   6.237
 4607POPC   C2B60812  37.421  21.217   6.644
 4607POPC   C3B60813  37.212  21.037   7.002
 4607POPC   C4B60814  37.028  21.156   7.396
 4608POPC   NC360815  18.918  33.053   5.151
 4608POPC   PO460816  19.439  32.677   5.116
 4608POPC   GL160817  19.305  32.859   5.588
 4608POPC   GL260818  18.999  32.975   5.693
 4608POPC   C1A60819  19.286  32.871   6.112
 4608POPC   D2A60820  19.076  32.883   6.553
 4608POPC   C3A60821  19.209  33.063   6.945
 4608POPC   C4A60822  19.258  33.027   7.396
 4608POPC   C1B60823  18.815  33.083   6.099
 4608POPC   C2B60824  18.650  33.160   6.533
 4608POPC   C3B60825  18.713  33.181   6.973
 4608POPC   C4B60826  18.806  32.825   7.207
 4609POPC   NC360827  27.125  40.479   5.404
 4609POPC   PO460828  26.695  40.970   5.254
 4609POPC   GL160829  26.725  40.897   5.722
 4609POPC   GL260830  26.498  40.611   5.809
 4609POPC   C1A60831  26.643  41.032   6.167
 4609POPC   D2A60832  26.902  41.119   6.561
 4609POPC   C3A60833  26.833  40.938   6.980
 4609POPC   C4A60834  26.705  40.757   7.380
 4609POPC   C1B60835  26.733  40.545   6.209
 4609POPC   C2B60836  26.923  40.579   6.624
 4609POPC   C3B60837  26.671  40.443   6.973
 4609POPC   C4B60838  26.608  40.247   7.367
 4610POPC   NC360839  20.315  40.931   5.436
 4610POPC   PO460840  20.980  40.540   5.461
 4610POPC   GL160841  20.726  40.778   5.714
 4610POPC   GL260842  20.814  41.135   5.645
 4610POPC   C1A60843  20.560  40.662   6.110
 4610POPC   D2A60844  20.688  40.676   6.489
 4610POPC   C3A60845  20.367  40.737   6.745
 4610POPC   C4A60846  20.515  40.580   7.125
 4610POPC   C1B60847  20.746  41.135   6.104
 4610POPC   C2B60848  20.649  41.179   6.530
 4610POPC   C3B60849  20.702  41.060   6.950
 4610POPC   C4B60850  20.671  40.985   7.385
 4611POPC   NC360851   5.469  42.414   5.651
 4611POPC   PO460852   6.023  42.680   5.304
 4611POPC   GL160853   6.067  42.565   5.709
 4611POPC   GL260854   6.186  42.874   5.782
 4611POPC   C1A60855   6.005  42.342   6.110
 4611POPC   D2A60856   5.756  42.413   6.483
 4611POPC   C3A60857   5.869  42.209   6.871
 4611POPC   C4A60858   5.618  42.132   7.225
 4611POPC   C1B60859   5.832  42.826   6.079
 4611POPC   C2B60860   5.804  42.917   6.514
 4611POPC   C3B60861   5.872  42.729   6.917
 4611POPC   C4B60862   5.976  42.506   7.294
 4612POPC   NC360863  15.459   0.335   5.446
 4612POPC   PO460864  15.245   1.007   5.315
 4612POPC   GL160865  15.203   0.862   5.768
 4612POPC   GL260866  15.439   0.568   5.899
 4612POPC   C1A60867  15.018   0.704   6.160
 4612POPC   D2A60868  15.181   0.489   6.529
 4612POPC   C3A60869  15.054   0.604   6.957
 4612POPC   C4A60870  15.438   0.484   7.174
 4612POPC   C1B60871  15.286   0.190   6.109
 4612POPC   C2B60872  15.372  44.993   6.512
 4612POPC   C3B60873  15.179   0.112   6.879
 4612POPC   C4B60874  15.059   0.047   7.271
 4613POPC   NC360875  16.014  39.419   5.158
 4613POPC   PO460876  15.749  39.000   5.617
 4613POPC   GL160877  15.942  39.279   5.896
 4613POPC   GL260878  16.209  39.460   5.713
 4613POPC   C1A60879  15.831  39.272   6.342
 4613POPC   D2A60880  15.848  38.941   6.651
 4613POPC   C3A60881  16.020  39.019   7.086
 4613POPC   C4A60882  15.782  39.041   7.475
 4613POPC   C1B60883  16.281  39.514   6.170
 4613POPC   C2B60884  16.310  39.315   6.580
 4613POPC   C3B60885  16.264  39.492   6.984
 4613POPC   C4B60886  16.050  39.458   7.372
 4614POPC   NC360887  35.501  41.131   5.554
 4614POPC   PO460888  34.951  40.711   5.466
 4614POPC   GL160889  35.229  40.767   5.806
 4614POPC   GL260890  35.043  41.063   5.856
 4614POPC   C1A60891  35.545  40.722   6.179
 4614POPC   D2A60892  35.688  40.800   6.627
 4614POPC   C3A60893  35.606  40.477   6.960
 4614POPC   C4A60894  35.389  40.623   7.329
 4614POPC   C1B60895  35.194  41.119   6.235
 4614POPC   C2B60896  35.053  41.101   6.643
 4614POPC   C3B60897  35.268  40.994   6.997
 4614POPC   C4B60898  35.689  41.032   7.124
 4615POPC   NC360899  22.458  37.155   5.475
 4615POPC   PO460900  22.195  36.604   5.270
 4615POPC   GL160901  22.315  36.681   5.715
 4615POPC   GL260902  22.182  36.969   5.829
 4615POPC   C1A60903  22.221  36.643   6.201
 4615POPC   D2A60904  22.404  36.660   6.609
 4615POPC   C3A60905  22.162  36.743   6.952
 4615POPC   C4A60906  22.284  36.897   7.348
 4615POPC   C1B60907  22.052  37.120   6.192
 4615POPC   C2B60908  22.177  37.113   6.612
 4615POPC   C3B60909  22.049  37.258   7.015
 4615POPC   C4B60910  22.296  37.474   7.277
 4616POPC   NC360911   4.622  34.684   5.598
 4616POPC   PO460912   5.302  34.477   5.488
 4616POPC   GL160913   5.054  34.551   5.821
 4616POPC   GL260914   4.797  34.308   5.926
 4616POPC   C1A60915   5.094  34.755   6.175
 4616POPC   D2A60916   5.216  34.655   6.575
 4616POPC   C3A60917   5.208  34.858   6.951
 4616POPC   C4A60918   5.295  34.572   7.280
 4616POPC   C1B60919   4.605  34.633   6.248
 4616POPC   C2B60920   4.707  34.723   6.684
 4616POPC   C3B60921   4.778  34.654   7.122
 4616POPC   C4B60922   4.485  34.640   7.461
 4617POPC   NC360923  20.184  31.500   5.354
 4617POPC   PO460924  20.801  31.252   5.400
 4617POPC   GL160925  20.684  31.562   5.722
 4617POPC   GL260926  20.342  31.704   5.781
 4617POPC   C1A60927  20.763  31.566   6.162
 4617POPC   D2A60928  20.991  31.678   6.539
 4617POPC   C3A60929  20.747  31.693   6.883
 4617POPC   C4A60930  20.812  31.480   7.254
 4617POPC   C1B60931  20.217  31.637   6.210
 4617POPC   C2B60932  20.406  31.409   6.548
 4617POPC   C3B60933  20.447  31.303   6.980
 4617POPC   C4B60934  20.415  31.163   7.406
 4618POPC   NC360935  20.206  34.536   5.591
 4618POPC   PO460936  19.693  34.774   5.213
 4618POPC   GL160937  19.676  34.648   5.714
 4618POPC   GL260938  19.923  34.749   5.957
 4618POPC   C1A60939  19.559  34.372   6.137
 4618POPC   D2A60940  19.445  34.383   6.628
 4618POPC   C3A60941  19.720  34.431   7.026
 4618POPC   C4A60942  19.690  34.248   7.476
 4618POPC   C1B60943  19.847  34.698   6.394
 4618POPC   C2B60944  20.096  34.871   6.699
 4618POPC   C3B60945  19.997  34.857   7.106
 4618POPC   C4B60946  20.107  34.534   7.365
 4619POPC   NC360947  19.018  35.615   5.351
 4619POPC   PO460948  18.914  34.931   5.462
 4619POPC   GL160949  18.956  35.018   5.835
 4619POPC   GL260950  19.080  35.331   5.788
 4619POPC   C1A60951  18.999  35.164   6.257
 4619POPC   D2A60952  19.177  35.377   6.569
 4619POPC   C3A60953  19.032  35.154   6.912
 4619POPC   C4A60954  19.222  35.285   7.251
 4619POPC   C1B60955  18.792  35.578   6.053
 4619POPC   C2B60956  18.801  35.746   6.505
 4619POPC   C3B60957  18.917  35.642   6.932
 4619POPC   C4B60958  19.137  35.762   7.332
 4620POPC   NC360959  16.237  37.108   5.458
 4620POPC   PO460960  15.657  36.675   5.372
 4620POPC   GL160961  15.745  36.818   5.794
 4620POPC   GL260962  15.756  36.450   5.839
 4620POPC   C1A60963  15.871  37.119   6.150
 4620POPC   D2A60964  16.136  37.216   6.529
 4620POPC   C3A60965  15.948  37.114   6.922
 4620POPC   C4A60966  16.114  36.842   7.239
 4620POPC   C1B60967  15.927  36.500   6.232
 4620POPC   C2B60968  15.837  36.749   6.562
 4620POPC   C3B60969  15.679  36.625   6.940
 4620POPC   C4B60970  15.599  36.732   7.316
 4621POPC   NC360971  36.244  24.636   5.221
 4621POPC   PO460972  35.879  24.141   5.521
 4621POPC   GL160973  35.996  24.379   5.943
 4621POPC   GL260974  36.226  24.617   5.784
 4621POPC   C1A60975  35.958  24.470   6.361
 4621POPC   D2A60976  36.034  24.636   6.759
 4621POPC   C3A60977  36.212  24.394   7.068
 4621POPC   C4A60978  36.030  24.339   7.419
 4621POPC   C1B60979  36.465  24.546   6.174
 4621POPC   C2B60980  36.536  24.667   6.620
 4621POPC   C3B60981  36.498  24.817   7.066
 4621POPC   C4B60982  36.382  24.698   7.532
 4622POPC   NC360983  11.643  39.576   5.495
 4622POPC   PO460984  11.248  39.039   5.372
 4622POPC   GL160985  11.371  39.062   5.798
 4622POPC   GL260986  11.295  39.403   5.827
 4622POPC   C1A60987  11.170  39.048   6.224
 4622POPC   D2A60988  11.299  38.926   6.667
 4622POPC   C3A60989  11.067  39.120   7.010
 4622POPC   C4A60990  11.076  39.553   7.155
 4622POPC   C1B60991  11.258  39.649   6.188
 4622POPC   C2B60992  11.254  39.456   6.577
 4622POPC   C3B60993  11.527  39.371   6.861
 4622POPC   C4B60994  11.675  39.685   7.082
 4623POPC   NC360995  11.585  44.213   5.537
 4623POPC   PO460996  11.100  43.735   5.362
 4623POPC   GL160997  11.268  43.853   5.740
 4623POPC   GL260998  11.110  44.183   5.745
 4623POPC   C1A60999  11.398  43.640   6.115
 4623POPC   D2A61000  11.241  43.576   6.540
 4623POPC   C3A61001  11.407  43.687   6.906
 4623POPC   C4A61002  11.305  43.711   7.336
 4623POPC   C1B61003  11.318  44.150   6.164
 4623POPC   C2B61004  11.226  44.076   6.604
 4623POPC   C3B61005  11.346  44.166   7.046
 4623POPC   C4B61006  11.446  44.192   7.502
 4624POPC   NC361007   6.023  14.259   5.375
 4624POPC   PO461008   5.402  14.119   5.692
 4624POPC   GL161009   5.714  14.450   5.802
 4624POPC   GL261010   5.653  14.833   5.691
 4624POPC   C1A61011   5.864  14.368   6.232
 4624POPC   D2A61012   5.796  14.132   6.629
 4624POPC   C3A61013   5.597  14.392   6.951
 4624POPC   C4A61014   5.581  14.521   7.367
 4624POPC   C1B61015   5.620  14.846   6.147
 4624POPC   C2B61016   5.721  14.745   6.595
 4624POPC   C3B61017   5.573  14.906   6.991
 4624POPC   C4B61018   5.566  15.044   7.400
 4625POPC   NC361019  12.369   8.774   4.861
 4625POPC   PO461020  11.982   9.066   5.297
 4625POPC   GL161021  11.949   8.972   5.749
 4625POPC   GL261022  11.725   9.203   5.893
 4625POPC   C1A61023  12.066   9.013   6.218
 4625POPC   D2A61024  12.186   9.274   6.585
 4625POPC   C3A61025  12.356   9.109   6.989
 4625POPC   C4A61026  12.308   9.249   7.425
 4625POPC   C1B61027  11.740   9.463   6.308
 4625POPC   C2B61028  11.766   9.515   6.776
 4625POPC   C3B61029  11.876   9.220   7.120
 4625POPC   C4B61030  11.817   9.206   7.569
 4626POPC   NC361031   6.769  38.658   5.437
 4626POPC   PO461032   6.201  38.292   5.355
 4626POPC   GL161033   6.503  38.332   5.739
 4626POPC   GL261034   6.474  38.667   5.898
 4626POPC   C1A61035   6.826  38.349   6.110
 4626POPC   D2A61036   6.892  38.249   6.557
 4626POPC   C3A61037   7.029  38.496   6.911
 4626POPC   C4A61038   6.831  38.577   7.322
 4626POPC   C1B61039   6.333  38.352   6.246
 4626POPC   C2B61040   6.404  38.213   6.704
 4626POPC   C3B61041   6.539  38.196   7.185
 4626POPC   C4B61042   6.503  38.338   7.662
 4627POPC   NC361043  14.048  33.463   5.473
 4627POPC   PO461044  14.676  33.722   5.320
 4627POPC   GL161045  14.498  33.609   5.732
 4627POPC   GL261046  14.212  33.845   5.791
 4627POPC   C1A61047  14.602  33.779   6.154
 4627POPC   D2A61048  14.441  33.868   6.573
 4627POPC   C3A61049  14.615  33.821   7.013
 4627POPC   C4A61050  14.618  33.787   7.498
 4627POPC   C1B61051  13.921  33.983   6.125
 4627POPC   C2B61052  13.979  34.155   6.542
 4627POPC   C3B61053  14.037  33.880   6.892
 4627POPC   C4B61054  14.155  33.823   7.317
 4628POPC   NC361055  34.096  27.441   5.513
 4628POPC   PO461056  33.613  27.735   5.203
 4628POPC   GL161057  33.686  27.720   5.663
 4628POPC   GL261058  33.521  27.997   5.784
 4628POPC   C1A61059  33.756  27.544   6.087
 4628POPC   D2A61060  33.558  27.533   6.502
 4628POPC   C3A61061  33.813  27.562   6.866
 4628POPC   C4A61062  33.847  27.357   7.264
 4628POPC   C1B61063  33.421  27.925   6.187
 4628POPC   C2B61064  33.546  28.049   6.584
 4628POPC   C3B61065  33.352  27.822   6.891
 4628POPC   C4B61066  33.374  27.633   7.287
 4629POPC   NC361067  36.073  16.938   5.309
 4629POPC   PO461068  36.218  17.563   5.257
 4629POPC   GL161069  36.355  17.684   5.720
 4629POPC   GL261070  36.049  17.816   5.882
 4629POPC   C1A61071  36.441  17.687   6.198
 4629POPC   D2A61072  36.260  17.466   6.592
 4629POPC   C3A61073  36.351  17.608   6.982
 4629POPC   C4A61074  36.156  17.712   7.332
 4629POPC   C1B61075  35.934  17.494   6.199
 4629POPC   C2B61076  35.768  17.315   6.578
 4629POPC   C3B61077  35.900  17.303   6.970
 4629POPC   C4B61078  35.748  17.384   7.347
 4630POPC   NC361079  25.214  20.391   5.610
 4630POPC   PO461080  25.180  21.060   5.565
 4630POPC   GL161081  25.167  20.827   5.916
 4630POPC   GL261082  24.909  20.595   5.965
 4630POPC   C1A61083  25.282  21.010   6.277
 4630POPC   D2A61084  25.130  21.108   6.664
 4630POPC   C3A61085  25.151  20.744   6.888
 4630POPC   C4A61086  25.342  20.654   7.251
 4630POPC   C1B61087  25.037  20.262   6.246
 4630POPC   C2B61088  25.009  20.088   6.657
 4630POPC   C3B61089  25.121  20.218   7.067
 4630POPC   C4B61090  24.924  20.380   7.424
 4631POPC   NC361091  10.739   0.055   5.657
 4631POPC   PO461092  10.474  44.479   5.238
 4631POPC   GL161093  10.314  44.407   5.684
 4631POPC   GL261094  10.645  44.517   5.735
 4631POPC   C1A61095  10.314  44.520   6.167
 4631POPC   D2A61096  10.512  44.695   6.569
 4631POPC   C3A61097  10.265  44.920   6.899
 4631POPC   C4A61098  10.192  44.925   7.341
 4631POPC   C1B61099  10.763  44.282   6.090
 4631POPC   C2B61100  10.720  44.219   6.539
 4631POPC   C3B61101  10.645  44.350   6.958
 4631POPC   C4B61102  10.235  44.442   7.107
 4632POPC   NC361103  43.647   3.957   5.365
 4632POPC   PO461104  44.231   4.289   5.422
 4632POPC   GL161105  44.194   4.349   5.855
 4632POPC   GL261106  43.821   4.395   5.926
 4632POPC   C1A61107  44.209   4.481   6.261
 4632POPC   D2A61108  44.473   4.534   6.614
 4632POPC   C3A61109  44.296   4.336   6.993
 4632POPC   C4A61110  43.862   4.401   7.145
 4632POPC   C1B61111  43.605   4.274   6.315
 4632POPC   C2B61112  43.511   4.191   6.770
 4632POPC   C3B61113  43.357   4.265   7.198
 4632POPC   C4B61114  43.515   4.472   7.534
 4633POPC   NC361115  42.870  44.033   5.324
 4633POPC   PO461116  43.387  43.684   5.551
 4633POPC   GL161117  43.043  43.724   5.758
 4633POPC   GL261118  42.868  43.456   5.625
 4633POPC   C1A61119  42.906  43.841   6.162
 4633POPC   D2A61120  43.137  43.988   6.502
 4633POPC   C3A61121  43.059  43.837   6.901
 4633POPC   C4A61122  42.826  44.004   7.233
 4633POPC   C1B61123  42.842  43.337   6.076
 4633POPC   C2B61124  43.003  43.413   6.494
 4633POPC   C3B61125  42.915  43.352   6.933
 4633POPC   C4B61126  42.727  43.385   7.348
 4634POPC   NC361127   0.326  42.084   5.548
 4634POPC   PO461128   0.785  42.547   5.445
 4634POPC   GL161129   0.533  42.484   5.855
 4634POPC   GL261130   0.185  42.310   5.962
 4634POPC   C1A61131   0.500  42.517   6.305
 4634POPC   D2A61132   0.337  42.323   6.622
 4634POPC   C3A61133   0.506  42.548   6.927
 4634POPC   C4A61134   0.410  42.324   7.237
 4634POPC   C1B61135   0.045  42.675   6.174
 4634POPC   C2B61136   0.134  42.800   6.627
 4634POPC   C3B61137   0.023  42.644   7.044
 4634POPC   C4B61138   0.166  42.686   7.496
 4635POPC   NC361139  33.857   3.210   5.338
 4635POPC   PO461140  33.781   2.590   5.176
 4635POPC   GL161141  33.831   2.754   5.601
 4635POPC   GL261142  33.680   2.462   5.759
 4635POPC   C1A61143  33.684   2.932   6.020
 4635POPC   D2A61144  33.686   2.708   6.441
 4635POPC   C3A61145  33.574   2.948   6.833
 4635POPC   C4A61146  33.358   2.723   7.180
 4635POPC   C1B61147  34.057   2.593   6.042
 4635POPC   C2B61148  34.163   2.884   6.390
 4635POPC   C3B61149  34.082   2.794   6.830
 4635POPC   C4B61150  33.879   2.781   7.233
 4636POPC   NC361151  20.924  26.775   5.372
 4636POPC   PO461152  21.391  26.491   5.362
 4636POPC   GL161153  21.280  26.697   5.784
 4636POPC   GL261154  21.050  26.994   5.872
 4636POPC   C1A61155  21.361  26.547   6.229
 4636POPC   D2A61156  21.387  26.912   6.483
 4636POPC   C3A61157  21.381  26.958   6.943
 4636POPC   C4A61158  21.598  26.762   7.286
 4636POPC   C1B61159  21.016  27.216   6.273
 4636POPC   C2B61160  20.988  27.197   6.712
 4636POPC   C3B61161  20.849  27.030   7.082
 4636POPC   C4B61162  21.080  26.771   7.319
 4637POPC   NC361163   9.869  33.809   5.274
 4637POPC   PO461164   9.241  33.693   5.484
 4637POPC   GL161165   9.584  33.688   5.785
 4637POPC   GL261166   9.804  33.951   5.751
 4637POPC   C1A61167   9.613  33.632   6.235
 4637POPC   D2A61168   9.879  33.762   6.590
 4637POPC   C3A61169   9.698  33.654   6.990
 4637POPC   C4A61170   9.287  33.586   7.137
 4637POPC   C1B61171   9.910  34.061   6.162
 4637POPC   C2B61172   9.884  34.328   6.524
 4637POPC   C3B61173   9.848  34.148   6.931
 4637POPC   C4B61174   9.591  34.053   7.279
 4638POPC   NC361175  36.616  35.091   5.088
 4638POPC   PO461176  36.808  34.573   5.288
 4638POPC   GL161177  36.803  34.648   5.793
 4638POPC   GL261178  36.863  34.327   6.002
 4638POPC   C1A61179  36.628  34.736   6.241
 4638POPC   D2A61180  36.483  34.678   6.688
 4638POPC   C3A61181  36.788  34.481   6.982
 4638POPC   C4A61182  37.104  34.694   7.253
 4638POPC   C1B61183  36.957  34.390   6.469
 4638POPC   C2B61184  37.273  34.485   6.800
 4638POPC   C3B61185  37.412  34.308   7.192
 4638POPC   C4B61186  37.386  34.395   7.655
 4639POPC   NC361187  43.106  39.031   5.391
 4639POPC   PO461188  42.877  39.617   5.466
 4639POPC   GL161189  43.109  39.412   5.794
 4639POPC   GL261190  42.952  39.098   5.872
 4639POPC   C1A61191  43.072  39.554   6.238
 4639POPC   D2A61192  42.965  39.361   6.622
 4639POPC   C3A61193  42.851  39.547   7.010
 4639POPC   C4A61194  43.017  39.409   7.443
 4639POPC   C1B61195  43.306  39.124   6.171
 4639POPC   C2B61196  43.478  39.287   6.555
 4639POPC   C3B61197  43.372  39.210   6.980
 4639POPC   C4B61198  43.257  38.937   7.312
 4640POPC   NC361199  27.471  11.233   5.182
 4640POPC   PO461200  27.779  11.825   5.347
 4640POPC   GL161201  27.517  11.533   5.644
 4640POPC   GL261202  27.638  11.188   5.707
 4640POPC   C1A61203  27.292  11.406   6.045
 4640POPC   D2A61204  27.298  11.562   6.482
 4640POPC   C3A61205  27.541  11.279   6.762
 4640POPC   C4A61206  27.559  11.374   7.197
 4640POPC   C1B61207  27.710  11.148   6.171
 4640POPC   C2B61208  27.970  11.095   6.520
 4640POPC   C3B61209  28.003  10.927   6.907
 4640POPC   C4B61210  28.029  11.087   7.351
 4641POPC   NC361211  14.518  28.474   5.556
 4641POPC   PO461212  13.978  28.626   5.520
 4641POPC   GL161213  14.201  28.669   5.921
 4641POPC   GL261214  14.153  28.327   5.950
 4641POPC   C1A61215  14.390  28.557   6.357
 4641POPC   D2A61216  14.452  28.257   6.717
 4641POPC   C3A61217  14.363  28.353   7.151
 4641POPC   C4A61218  14.376  28.772   7.402
 4641POPC   C1B61219  14.088  28.130   6.346
 4641POPC   C2B61220  14.034  27.942   6.752
 4641POPC   C3B61221  13.904  28.092   7.138
 4641POPC   C4B61222  14.120  27.999   7.492
 4642POPC   NC361223  11.676  20.196   5.325
 4642POPC   PO461224  11.033  19.816   5.253
 4642POPC   GL161225  11.319  19.836   5.593
 4642POPC   GL261226  11.269  20.184   5.695
 4642POPC   C1A61227  11.317  19.770   6.044
 4642POPC   D2A61228  11.102  19.775   6.449
 4642POPC   C3A61229  11.291  19.568   6.817
 4642POPC   C4A61230  11.199  19.658   7.236
 4642POPC   C1B61231  11.413  20.261   6.130
 4642POPC   C2B61232  11.503  20.121   6.544
 4642POPC   C3B61233  11.213  20.087   6.901
 4642POPC   C4B61234  11.014  20.115   7.296
 4643POPC   NC361235  42.091  31.534   5.174
 4643POPC   PO461236  41.567  31.436   5.472
 4643POPC   GL161237  41.711  31.294   5.883
 4643POPC   GL261238  41.396  31.250   5.923
 4643POPC   C1A61239  41.689  31.369   6.334
 4643POPC   D2A61240  41.453  31.460   6.709
 4643POPC   C3A61241  41.700  31.388   7.061
 4643POPC   C4A61242  41.995  31.708   7.214
 4643POPC   C1B61243  41.206  31.213   6.296
 4643POPC   C2B61244  41.236  31.014   6.671
 4643POPC   C3B61245  41.151  31.166   7.031
 4643POPC   C4B61246  41.350  31.196   7.391
 4644POPC   NC361247   2.703  30.859   5.372
 4644POPC   PO461248   2.785  30.279   5.356
 4644POPC   GL161249   2.955  30.538   5.714
 4644POPC   GL261250   2.743  30.839   5.865
 4644POPC   C1A61251   3.069  30.594   6.146
 4644POPC   D2A61252   2.818  30.571   6.501
 4644POPC   C3A61253   2.977  30.662   6.889
 4644POPC   C4A61254   2.948  30.524   7.300
 4644POPC   C1B61255   2.440  30.631   6.165
 4644POPC   C2B61256   2.304  30.560   6.629
 4644POPC   C3B61257   2.490  30.684   7.061
 4644POPC   C4B61258   2.641  30.940   7.432
 4645POPC   NC361259  13.972  32.619   5.577
 4645POPC   PO461260  13.867  33.158   5.150
 4645POPC   GL161261  13.591  33.203   5.574
 4645POPC   GL261262  13.569  32.853   5.813
 4645POPC   C1A61263  13.411  33.279   6.027
 4645POPC   D2A61264  13.582  33.041   6.367
 4645POPC   C3A61265  13.701  33.129   6.769
 4645POPC   C4A61266  13.464  33.079   7.143
 4645POPC   C1B61267  13.810  32.619   6.188
 4645POPC   C2B61268  13.949  32.469   6.592
 4645POPC   C3B61269  13.806  32.661   6.968
 4645POPC   C4B61270  13.894  32.871   7.334
 4646POPC   NC361271  39.173  44.035   5.239
 4646POPC   PO461272  39.596  43.496   5.386
 4646POPC   GL161273  39.648  43.715   5.821
 4646POPC   GL261274  39.544  44.058   5.745
 4646POPC   C1A61275  39.645  43.793   6.307
 4646POPC   D2A61276  39.563  43.854   6.764
 4646POPC   C3A61277  39.227  43.709   7.037
 4646POPC   C4A61278  39.303  43.364   7.320
 4646POPC   C1B61279  39.225  44.030   6.098
 4646POPC   C2B61280  39.215  44.189   6.539
 4646POPC   C3B61281  39.299  44.230   6.998
 4646POPC   C4B61282  39.086  44.394   7.361
 4647POPC   NC361283  35.387  22.180   4.882
 4647POPC   PO461284  35.201  22.026   5.509
 4647POPC   GL161285  35.377  21.996   5.901
 4647POPC   GL261286  35.377  22.350   5.912
 4647POPC   C1A61287  35.442  22.048   6.361
 4647POPC   D2A61288  35.177  22.158   6.723
 4647POPC   C3A61289  35.328  22.016   7.136
 4647POPC   C4A61290  35.648  21.685   7.238
 4647POPC   C1B61291  35.124  22.448   6.281
 4647POPC   C2B61292  35.149  22.699   6.653
 4647POPC   C3B61293  35.253  22.551   7.062
 4647POPC   C4B61294  35.278  22.430   7.480
 4648POPC   NC361295  22.440  36.198   5.481
 4648POPC   PO461296  21.760  36.163   5.481
 4648POPC   GL161297  22.010  36.254   5.853
 4648POPC   GL261298  22.376  36.243   5.972
 4648POPC   C1A61299  22.019  35.940   6.186
 4648POPC   D2A61300  22.278  35.971   6.542
 4648POPC   C3A61301  22.219  36.237   6.907
 4648POPC   C4A61302  22.559  36.488   7.103
 4648POPC   C1B61303  22.661  36.396   6.258
 4648POPC   C2B61304  22.711  36.241   6.659
 4648POPC   C3B61305  22.634  35.913   6.919
 4648POPC   C4B61306  22.513  35.879   7.305
 4649POPC   NC361307  28.264   4.603   5.306
 4649POPC   PO461308  28.129   4.082   5.532
 4649POPC   GL161309  28.322   4.451   5.798
 4649POPC   GL261310  28.087   4.714   5.787
 4649POPC   C1A61311  28.454   4.730   6.172
 4649POPC   D2A61312  28.720   4.652   6.540
 4649POPC   C3A61313  28.550   4.500   6.957
 4649POPC   C4A61314  28.235   4.168   7.106
 4649POPC   C1B61315  27.987   4.544   6.205
 4649POPC   C2B61316  28.197   4.489   6.597
 4649POPC   C3B61317  28.057   4.640   7.025
 4649POPC   C4B61318  27.857   4.428   7.397
 4650POPC   NC361319  15.432  17.775   5.538
 4650POPC   PO461320  14.907  17.398   5.384
 4650POPC   GL161321  15.124  17.442   5.798
 4650POPC   GL261322  14.963  17.737   5.808
 4650POPC   C1A61323  15.326  17.707   6.180
 4650POPC   D2A61324  15.460  17.840   6.606
 4650POPC   C3A61325  15.243  17.658   6.933
 4650POPC   C4A61326  15.106  17.249   6.884
 4650POPC   C1B61327  14.836  17.540   6.223
 4650POPC   C2B61328  14.735  17.531   6.692
 4650POPC   C3B61329  14.776  17.522   7.168
 4650POPC   C4B61330  14.771  17.662   7.616
 4651POPC   NC361331  29.054  39.041   5.451
 4651POPC   PO461332  29.620  39.322   5.412
 4651POPC   GL161333  29.471  39.073   5.758
 4651POPC   GL261334  29.116  39.210   5.910
 4651POPC   C1A61335  29.431  38.929   6.183
 4651POPC   D2A61336  29.100  39.046   6.497
 4651POPC   C3A61337  29.268  39.115   6.913
 4651POPC   C4A61338  29.542  38.892   7.180
 4651POPC   C1B61339  28.888  39.416   6.229
 4651POPC   C2B61340  29.189  39.603   6.487
 4651POPC   C3B61341  29.351  39.764   6.829
 4651POPC   C4B61342  29.218  39.554   7.172
 4652POPC   NC361343  24.628  24.117   5.659
 4652POPC   PO461344  24.704  24.750   5.432
 4652POPC   GL161345  24.549  24.606   5.803
 4652POPC   GL261346  24.203  24.573   5.709
 4652POPC   C1A61347  24.653  24.498   6.250
 4652POPC   D2A61348  24.528  24.449   6.674
 4652POPC   C3A61349  24.759  24.565   7.017
 4652POPC   C4A61350  24.888  24.227   7.196
 4652POPC   C1B61351  24.158  24.378   6.098
 4652POPC   C2B61352  24.063  24.517   6.499
 4652POPC   C3B61353  24.081  24.308   6.896
 4652POPC   C4B61354  24.340  24.324   7.250
 4653POPC   NC361355  11.605  38.633   5.532
 4653POPC   PO461356  10.952  38.314   5.411
 4653POPC   GL161357  11.128  38.232   5.839
 4653POPC   GL261358  11.288  38.561   5.911
 4653POPC   C1A61359  11.301  38.202   6.276
 4653POPC   D2A61360  11.203  38.419   6.673
 4653POPC   C3A61361  11.357  38.527   7.083
 4653POPC   C4A61362  11.285  38.829   7.400
 4653POPC   C1B61363  11.543  38.677   6.269
 4653POPC   C2B61364  11.714  38.402   6.593
 4653POPC   C3B61365  11.747  38.220   6.995
 4653POPC   C4B61366  11.864  38.532   7.272
 4654POPC   NC361367  38.983  10.025   5.540
 4654POPC   PO461368  39.512   9.722   5.364
 4654POPC   GL161369  39.363   9.764   5.782
 4654POPC   GL261370  39.300   9.446   5.973
 4654POPC   C1A61371  39.318   9.947   6.191
 4654POPC   D2A61372  39.434   9.764   6.577
 4654POPC   C3A61373  39.341   9.989   6.968
 4654POPC   C4A61374  39.449   9.687   7.269
 4654POPC   C1B61375  38.973   9.594   6.304
 4654POPC   C2B61376  38.946   9.883   6.638
 4654POPC   C3B61377  39.009   9.608   7.010
 4654POPC   C4B61378  38.948   9.817   7.418
 4655POPC   NC361379  13.393  38.020   5.569
 4655POPC   PO461380  13.534  38.523   5.142
 4655POPC   GL161381  13.581  38.482   5.655
 4655POPC   GL261382  13.858  38.242   5.786
 4655POPC   C1A61383  13.640  38.563   6.153
 4655POPC   D2A61384  13.645  38.765   6.586
 4655POPC   C3A61385  13.635  38.498   6.964
 4655POPC   C4A61386  13.438  38.496   7.398
 4655POPC   C1B61387  14.150  38.135   6.157
 4655POPC   C2B61388  14.150  37.970   6.579
 4655POPC   C3B61389  13.999  38.135   6.977
 4655POPC   C4B61390  13.945  38.417   7.368
 4656POPC   NC361391  43.703  12.395   5.721
 4656POPC   PO461392  43.561  11.741   5.429
 4656POPC   GL161393  43.831  11.881   5.786
 4656POPC   GL261394  44.131  12.119   5.711
 4656POPC   C1A61395  43.825  11.983   6.242
 4656POPC   D2A61396  43.850  11.952   6.679
 4656POPC   C3A61397  43.635  12.235   6.953
 4656POPC   C4A61398  43.576  12.082   7.354
 4656POPC   C1B61399  44.181  12.323   6.154
 4656POPC   C2B61400  44.284  12.212   6.601
 4656POPC   C3B61401  44.126  12.148   7.056
 4656POPC   C4B61402  44.306  12.419   7.326
 4657POPC   NC361403  17.990  14.009   5.474
 4657POPC   PO461404  17.808  14.654   5.519
 4657POPC   GL161405  18.212  14.652   5.757
 4657POPC   GL261406  18.337  14.297   5.860
 4657POPC   C1A61407  18.404  14.713   6.163
 4657POPC   D2A61408  18.194  14.589   6.555
 4657POPC   C3A61409  18.438  14.713   6.935
 4657POPC   C4A61410  18.314  14.595   7.354
 4657POPC   C1B61411  18.286  14.045   6.244
 4657POPC   C2B61412  18.162  13.855   6.600
 4657POPC   C3B61413  17.991  14.131   6.879
 4657POPC   C4B61414  18.183  14.043   7.258
 4658POPC   NC361415  30.355  30.287   5.214
 4658POPC   PO461416  29.974  30.800   5.226
 4658POPC   GL161417  29.918  30.746   5.695
 4658POPC   GL261418  29.585  30.658   5.807
 4658POPC   C1A61419  29.973  30.708   6.181
 4658POPC   D2A61420  29.856  30.847   6.639
 4658POPC   C3A61421  29.921  30.602   7.033
 4658POPC   C4A61422  29.671  30.276   7.277
 4658POPC   C1B61423  29.486  30.875   6.236
 4658POPC   C2B61424  29.379  31.040   6.665
 4658POPC   C3B61425  29.583  31.085   7.071
 4658POPC   C4B61426  29.816  31.246   7.455
 4659POPC   NC361427  31.642  26.437   5.643
 4659POPC   PO461428  32.085  26.957   5.302
 4659POPC   GL161429  32.185  26.992   5.746
 4659POPC   GL261430  32.113  26.633   5.765
 4659POPC   C1A61431  32.330  27.022   6.197
 4659POPC   D2A61432  32.588  26.866   6.559
 4659POPC   C3A61433  32.458  27.015   6.960
 4659POPC   C4A61434  32.538  26.736   7.294
 4659POPC   C1B61435  32.135  26.550   6.196
 4659POPC   C2B61436  32.077  26.746   6.590
 4659POPC   C3B61437  32.144  26.587   6.986
 4659POPC   C4B61438  31.875  26.486   7.299
 4660POPC   NC361439  22.416  16.926   5.601
 4660POPC   PO461440  23.088  16.859   5.486
 4660POPC   GL161441  22.990  16.813   5.909
 4660POPC   GL261442  23.172  16.544   5.991
 4660POPC   C1A61443  22.979  16.932   6.368
 4660POPC   D2A61444  22.603  16.853   6.645
 4660POPC   C3A61445  22.635  16.665   7.085
 4660POPC   C4A61446  22.683  16.847   7.518
 4660POPC   C1B61447  22.810  16.474   6.269
 4660POPC   C2B61448  22.950  16.492   6.685
 4660POPC   C3B61449  23.015  16.323   7.059
 4660POPC   C4B61450  23.059  16.516   7.410
 4661POPC   NC361451  37.126  16.669   5.316
 4661POPC   PO461452  36.517  16.867   5.234
 4661POPC   GL161453  36.767  16.857   5.652
 4661POPC   GL261454  36.726  16.547   5.847
 4661POPC   C1A61455  36.945  16.929   6.111
 4661POPC   D2A61456  36.783  16.791   6.535
 4661POPC   C3A61457  36.818  16.876   6.997
 4661POPC   C4A61458  36.667  16.932   7.440
 4661POPC   C1B61459  36.975  16.388   6.180
 4661POPC   C2B61460  37.062  16.378   6.592
 4661POPC   C3B61461  37.251  16.659   6.849
 4661POPC   C4B61462  37.096  16.513   7.203
 4662POPC   NC361463  30.746   4.645   5.280
 4662POPC   PO461464  30.411   5.222   5.363
 4662POPC   GL161465  30.706   5.013   5.636
 4662POPC   GL261466  30.681   5.331   5.821
 4662POPC   C1A61467  30.807   4.869   6.021
 4662POPC   D2A61468  30.649   4.887   6.446
 4662POPC   C3A61469  30.841   4.950   6.849
 4662POPC   C4A61470  30.625   4.982   7.246
 4662POPC   C1B61471  30.852   5.327   6.237
 4662POPC   C2B61472  30.683   5.407   6.620
 4662POPC   C3B61473  30.788   5.408   7.027
 4662POPC   C4B61474  30.971   5.330   7.440
 4663POPC   NC361475  33.292  14.077   5.338
 4663POPC   PO461476  33.063  13.389   5.297
 4663POPC   GL161477  33.048  13.636   5.733
 4663POPC   GL261478  33.090  13.998   5.805
 4663POPC   C1A61479  32.923  13.743   6.202
 4663POPC   D2A61480  32.874  13.558   6.610
 4663POPC   C3A61481  33.196  13.464   6.912
 4663POPC   C4A61482  32.979  13.479   7.245
 4663POPC   C1B61483  33.361  14.012   6.184
 4663POPC   C2B61484  33.308  13.865   6.613
 4663POPC   C3B61485  33.027  13.939   6.979
 4663POPC   C4B61486  33.112  13.940   7.438
 4664POPC   NC361487   7.807  10.756   5.097
 4664POPC   PO461488   8.374  10.670   5.450
 4664POPC   GL161489   8.196  10.778   5.815
 4664POPC   GL261490   7.937  10.557   5.762
 4664POPC   C1A61491   7.964  10.814   6.206
 4664POPC   D2A61492   8.114  10.524   6.522
 4664POPC   C3A61493   7.996  10.630   6.914
 4664POPC   C4A61494   8.094  10.577   7.348
 4664POPC   C1B61495   7.808  10.327   6.158
 4664POPC   C2B61496   7.698  10.236   6.638
 4664POPC   C3B61497   7.926  10.149   7.064
 4664POPC   C4B61498   8.176  10.062   7.450
 4665POPC   NC361499   1.751  12.985   5.391
 4665POPC   PO461500   2.216  12.581   5.556
 4665POPC   GL161501   2.221  12.815   5.922
 4665POPC   GL261502   2.018  13.086   5.814
 4665POPC   C1A61503   2.302  13.173   6.230
 4665POPC   D2A61504   2.318  13.207   6.661
 4665POPC   C3A61505   2.308  12.814   6.793
 4665POPC   C4A61506   2.352  12.644   7.179
 4665POPC   C1B61507   1.747  12.855   6.145
 4665POPC   C2B61508   1.746  12.685   6.593
 4665POPC   C3B61509   1.853  12.849   6.997
 4665POPC   C4B61510   1.747  13.038   7.374
 4666POPC   NC361511  44.412   8.793   5.402
 4666POPC   PO461512  43.700   8.914   5.365
 4666POPC   GL161513  43.775   9.035   5.780
 4666POPC   GL261514  44.126   9.021   5.789
 4666POPC   C1A61515  43.636   9.179   6.198
 4666POPC   D2A61516  43.528   8.938   6.583
 4666POPC   C3A61517  43.463   9.116   6.990
 4666POPC   C4A61518  43.682   9.016   7.331
 4666POPC   C1B61519  44.290   9.079   6.199
 4666POPC   C2B61520  44.024   9.136   6.539
 4666POPC   C3B61521  43.957   9.000   6.906
 4666POPC   C4B61522  44.178   8.915   7.242
 4667POPC   NC361523  32.058  33.076   5.156
 4667POPC   PO461524  32.655  33.065   5.516
 4667POPC   GL161525  32.310  33.099   5.807
 4667POPC   GL261526  32.544  33.245   5.988
 4667POPC   C1A61527  32.136  33.193   6.273
 4667POPC   D2A61528  32.254  33.008   6.670
 4667POPC   C3A61529  32.173  33.056   7.099
 4667POPC   C4A61530  31.978  32.946   7.494
 4667POPC   C1B61531  32.518  32.828   6.206
 4667POPC   C2B61532  32.403  32.535   6.544
 4667POPC   C3B61533  32.488  32.661   6.977
 4667POPC   C4B61534  32.668  32.929   7.293
 4668POPC   NC361535   1.148  17.644   5.369
 4668POPC   PO461536   1.752  17.285   5.373
 4668POPC   GL161537   1.478  17.395   5.723
 4668POPC   GL261538   1.507  17.757   5.767
 4668POPC   C1A61539   1.267  17.509   6.121
 4668POPC   D2A61540   1.112  17.419   6.502
 4668POPC   C3A61541   1.261  17.377   6.909
 4668POPC   C4A61542   1.045  17.567   7.224
 4668POPC   C1B61543   1.582  17.917   6.164
 4668POPC   C2B61544   1.532  17.704   6.560
 4668POPC   C3B61545   1.512  17.899   6.969
 4668POPC   C4B61546   1.399  17.932   7.377
 4669POPC   NC361547  27.896  13.478   5.356
 4669POPC   PO461548  27.437  13.991   5.311
 4669POPC   GL161549  27.393  13.689   5.742
 4669POPC   GL261550  27.718  13.541   5.807
 4669POPC   C1A61551  27.502  13.545   6.238
 4669POPC   D2A61552  27.626  13.812   6.600
 4669POPC   C3A61553  27.575  13.670   7.039
 4669POPC   C4A61554  27.436  13.579   7.476
 4669POPC   C1B61555  27.938  13.795   6.110
 4669POPC   C2B61556  28.124  13.760   6.530
 4669POPC   C3B61557  28.022  13.954   6.944
 4669POPC   C4B61558  27.945  13.855   7.391
 4670POPC   NC361559  10.061  36.333   5.425
 4670POPC   PO461560  10.028  36.989   5.263
 4670POPC   GL161561   9.879  37.033   5.694
 4670POPC   GL261562  10.183  37.185   5.807
 4670POPC   C1A61563   9.784  36.764   6.089
 4670POPC   D2A61564   9.611  36.702   6.525
 4670POPC   C3A61565   9.889  36.703   6.868
 4670POPC   C4A61566   9.689  36.795   7.248
 4670POPC   C1B61567   9.996  37.263   6.165
 4670POPC   C2B61568   9.969  37.089   6.540
 4670POPC   C3B61569  10.073  37.202   6.943
 4670POPC   C4B61570  10.152  36.972   7.280
 4671POPC   NC361571  14.176  41.755   5.420
 4671POPC   PO461572  14.710  41.912   5.692
 4671POPC   GL161573  14.528  41.501   5.775
 4671POPC   GL261574  14.165  41.386   5.843
 4671POPC   C1A61575  14.630  41.250   6.114
 4671POPC   D2A61576  14.642  41.300   6.560
 4671POPC   C3A61577  14.668  41.507   6.978
 4671POPC   C4A61578  14.461  41.293   7.328
 4671POPC   C1B61579  14.141  41.217   6.305
 4671POPC   C2B61580  14.171  41.405   6.737
 4671POPC   C3B61581  14.169  41.683   7.115
 4671POPC   C4B61582  14.097  41.802   7.568
 4672POPC   NC361583   9.044   1.258   5.387
 4672POPC   PO461584   8.379   0.908   5.463
 4672POPC   GL161585   8.718   1.140   5.764
 4672POPC   GL261586   9.127   1.040   5.830
 4672POPC   C1A61587   8.671   1.240   6.187
 4672POPC   D2A61588   8.744   1.475   6.548
 4672POPC   C3A61589   8.632   1.342   6.969
 4672POPC   C4A61590   8.549   1.010   7.263
 4672POPC   C1B61591   9.175   1.173   6.271
 4672POPC   C2B61592   9.134   1.201   6.731
 4672POPC   C3B61593   9.039   1.055   7.148
 4672POPC   C4B61594   9.303   0.886   7.449
 4673POPC   NC361595  17.468  16.278   5.523
 4673POPC   PO461596  17.865  15.651   5.463
 4673POPC   GL161597  17.645  15.768   5.884
 4673POPC   GL261598  17.571  16.096   5.998
 4673POPC   C1A61599  17.339  15.663   6.246
 4673POPC   D2A61600  17.274  15.906   6.642
 4673POPC   C3A61601  17.448  15.826   7.055
 4673POPC   C4A61602  17.370  16.000   7.472
 4673POPC   C1B61603  17.792  15.925   6.356
 4673POPC   C2B61604  17.889  15.951   6.767
 4673POPC   C3B61605  17.801  16.188   7.092
 4673POPC   C4B61606  17.813  16.216   7.492
 4674POPC   NC361607   6.834  29.717   5.566
 4674POPC   PO461608   6.303  29.926   5.232
 4674POPC   GL161609   6.437  30.023   5.689
 4674POPC   GL261610   6.591  30.365   5.673
 4674POPC   C1A61611   6.539  29.852   6.148
 4674POPC   D2A61612   6.433  29.563   6.511
 4674POPC   C3A61613   6.403  29.760   6.918
 4674POPC   C4A61614   6.754  29.732   7.200
 4674POPC   C1B61615   6.552  30.388   6.144
 4674POPC   C2B61616   6.526  30.195   6.588
 4674POPC   C3B61617   6.669  30.188   7.039
 4674POPC   C4B61618   6.496  30.117   7.475
 4675POPC   NC361619  35.274  31.254   5.210
 4675POPC   PO461620  35.592  31.772   5.497
 4675POPC   GL161621  35.376  31.444   5.805
 4675POPC   GL261622  35.417  31.098   5.784
 4675POPC   C1A61623  35.138  31.514   6.202
 4675POPC   D2A61624  34.998  31.711   6.585
 4675POPC   C3A61625  35.084  31.511   6.979
 4675POPC   C4A61626  35.232  31.742   7.324
 4675POPC   C1B61627  35.547  31.206   6.238
 4675POPC   C2B61628  35.456  31.331   6.667
 4675POPC   C3B61629  35.548  31.347   7.130
 4675POPC   C4B61630  35.196  31.262   7.433
 4676POPC   NC361631  24.267  17.016   5.626
 4676POPC   PO461632  24.721  17.088   5.130
 4676POPC   GL161633  24.497  17.457   5.587
 4676POPC   GL261634  24.702  17.764   5.722
 4676POPC   C1A61635  24.492  17.445   6.093
 4676POPC   D2A61636  24.726  17.347   6.504
 4676POPC   C3A61637  24.596  17.391   6.963
 4676POPC   C4A61638  24.469  17.267   7.417
 4676POPC   C1B61639  24.854  17.791   6.147
 4676POPC   C2B61640  24.998  17.818   6.588
 4676POPC   C3B61641  24.953  17.768   7.050
 4676POPC   C4B61642  24.712  17.743   7.448
 4677POPC   NC361643   3.002  21.562   5.499
 4677POPC   PO461644   2.811  20.845   5.404
 4677POPC   GL161645   2.824  21.089   5.776
 4677POPC   GL261646   2.566  21.346   5.709
 4677POPC   C1A61647   2.904  21.198   6.232
 4677POPC   D2A61648   2.755  21.203   6.701
 4677POPC   C3A61649   2.909  21.502   7.051
 4677POPC   C4A61650   3.030  21.425   7.495
 4677POPC   C1B61651   2.410  21.375   6.134
 4677POPC   C2B61652   2.324  21.566   6.554
 4677POPC   C3B61653   2.401  21.456   7.000
 4677POPC   C4B61654   2.530  21.518   7.403
 4678POPC   NC361655   9.685  42.690   5.313
 4678POPC   PO461656   9.830  42.079   5.256
 4678POPC   GL161657   9.679  42.279   5.654
 4678POPC   GL261658   9.901  42.074   5.810
 4678POPC   C1A61659   9.822  42.504   6.082
 4678POPC   D2A61660  10.064  42.710   6.453
 4678POPC   C3A61661  10.009  42.593   6.883
 4678POPC   C4A61662   9.712  42.332   7.147
 4678POPC   C1B61663   9.793  41.979   6.213
 4678POPC   C2B61664   9.913  42.179   6.582
 4678POPC   C3B61665  10.087  42.030   6.943
 4678POPC   C4B61666   9.961  41.835   7.305
 4679POPC   NC361667  23.869  10.785   5.347
 4679POPC   PO461668  23.410  10.391   5.591
 4679POPC   GL161669  23.684  10.648   5.855
 4679POPC   GL261670  24.064  10.678   5.803
 4679POPC   C1A61671  23.598  10.696   6.300
 4679POPC   D2A61672  23.452  10.463   6.678
 4679POPC   C3A61673  23.742  10.531   6.945
 4679POPC   C4A61674  23.736  10.707   7.298
 4679POPC   C1B61675  24.118  10.356   6.092
 4679POPC   C2B61676  23.947  10.292   6.482
 4679POPC   C3B61677  24.192  10.304   6.842
 4679POPC   C4B61678  24.204  10.563   7.206
 4680POPC   NC361679  20.759  36.345   5.193
 4680POPC   PO461680  20.447  35.921   5.571
 4680POPC   GL161681  20.639  35.724   5.859
 4680POPC   GL261682  20.349  35.515   5.896
 4680POPC   C1A61683  20.745  35.936   6.248
 4680POPC   D2A61684  20.716  36.329   6.513
 4680POPC   C3A61685  20.521  36.312   6.933
 4680POPC   C4A61686  20.775  36.163   7.235
 4680POPC   C1B61687  20.376  35.597   6.327
 4680POPC   C2B61688  20.384  35.832   6.715
 4680POPC   C3B61689  20.468  35.764   7.139
 4680POPC   C4B61690  20.392  35.936   7.541
 4681POPC   NC361691   2.260  17.261   5.518
 4681POPC   PO461692   2.030  16.770   5.158
 4681POPC   GL161693   2.051  16.783   5.716
 4681POPC   GL261694   1.893  17.077   5.826
 4681POPC   C1A61695   1.895  16.731   6.244
 4681POPC   D2A61696   1.802  16.465   6.670
 4681POPC   C3A61697   1.895  16.522   7.086
 4681POPC   C4A61698   1.763  16.400   7.530
 4681POPC   C1B61699   2.227  17.129   6.143
 4681POPC   C2B61700   2.457  17.072   6.534
 4681POPC   C3B61701   2.244  16.935   6.915
 4681POPC   C4B61702   2.009  17.088   7.258
 4682POPC   NC361703   0.761  13.024   5.526
 4682POPC   PO461704   0.839  12.308   5.456
 4682POPC   GL161705   0.590  12.442   5.850
 4682POPC   GL261706   0.841  12.657   5.978
 4682POPC   C1A61707   0.172  12.501   6.087
 4682POPC   D2A61708  44.979  12.445   6.523
 4682POPC   C3A61709   0.136  12.492   6.984
 4682POPC   C4A61710   0.508  12.651   7.217
 4682POPC   C1B61711   0.518  12.878   6.218
 4682POPC   C2B61712   0.493  13.094   6.649
 4682POPC   C3B61713   0.749  13.074   7.025
 4682POPC   C4B61714   0.694  13.272   7.420
 4683POPC   NC361715  40.020  10.715   5.504
 4683POPC   PO461716  40.036  11.325   5.122
 4683POPC   GL161717  40.025  11.241   5.575
 4683POPC   GL261718  39.794  11.449   5.738
 4683POPC   C1A61719  40.155  11.228   6.041
 4683POPC   D2A61720  40.179  11.492   6.424
 4683POPC   C3A61721  40.183  11.265   6.833
 4683POPC   C4A61722  40.068  11.173   7.255
 4683POPC   C1B61723  39.686  11.070   6.030
 4683POPC   C2B61724  39.776  11.160   6.476
 4683POPC   C3B61725  39.652  11.165   6.913
 4683POPC   C4B61726  39.545  11.061   7.331
 4684POPC   NC361727  10.942  40.289   5.512
 4684POPC   PO461728  11.559  40.013   5.397
 4684POPC   GL161729  11.374  40.007   5.778
 4684POPC   GL261730  11.486  40.358   5.812
 4684POPC   C1A61731  11.101  40.146   6.114
 4684POPC   D2A61732  11.016  40.098   6.530
 4684POPC   C3A61733  11.272  39.916   6.833
 4684POPC   C4A61734  11.139  40.071   7.219
 4684POPC   C1B61735  11.600  40.216   6.226
 4684POPC   C2B61736  11.532  40.325   6.659
 4684POPC   C3B61737  11.726  40.180   6.998
 4684POPC   C4B61738  11.623  40.096   7.394
 4685POPC   NC361739  13.121   8.417   5.400
 4685POPC   PO461740  12.753   7.922   5.479
 4685POPC   GL161741  12.825   8.247   5.796
 4685POPC   GL261742  12.516   8.373   5.730
 4685POPC   C1A61743  12.864   8.365   6.262
 4685POPC   D2A61744  12.718   8.190   6.681
 4685POPC   C3A61745  12.870   8.385   7.063
 4685POPC   C4A61746  12.959   8.220   7.473
 4685POPC   C1B61747  12.399   8.605   6.116
 4685POPC   C2B61748  12.354   8.510   6.535
 4685POPC   C3B61749  12.378   8.597   6.960
 4685POPC   C4B61750  12.588   8.778   7.330
 4686POPC   NC361751  25.412  22.035   5.141
 4686POPC   PO461752  24.968  22.533   5.420
 4686POPC   GL161753  25.141  22.362   5.829
 4686POPC   GL261754  25.309  22.035   5.891
 4686POPC   C1A61755  25.042  22.237   6.285
 4686POPC   D2A61756  24.765  22.044   6.573
 4686POPC   C3A61757  24.966  21.967   6.984
 4686POPC   C4A61758  25.354  22.121   7.156
 4686POPC   C1B61759  25.526  22.366   6.200
 4686POPC   C2B61760  25.674  22.374   6.669
 4686POPC   C3B61761  25.863  22.082   7.011
 4686POPC   C4B61762  25.747  22.033   7.461
 4687POPC   NC361763   9.846   8.735   5.311
 4687POPC   PO461764   9.145   8.846   5.341
 4687POPC   GL161765   9.456   8.973   5.689
 4687POPC   GL261766   9.826   9.101   5.692
 4687POPC   C1A61767   9.594   8.867   6.134
 4687POPC   D2A61768   9.853   8.573   6.411
 4687POPC   C3A61769   9.856   8.637   6.864
 4687POPC   C4A61770   9.621   8.789   7.208
 4687POPC   C1B61771  10.082   8.942   6.065
 4687POPC   C2B61772  10.079   8.997   6.542
 4687POPC   C3B61773   9.968   9.133   6.981
 4687POPC   C4B61774   9.566   9.333   7.144
 4688POPC   NC361775  20.308  27.497   5.288
 4688POPC   PO461776  19.751  27.735   5.223
 4688POPC   GL161777  19.916  27.602   5.649
 4688POPC   GL261778  20.093  27.805   5.840
 4688POPC   C1A61779  19.976  27.373   6.081
 4688POPC   D2A61780  20.143  27.288   6.521
 4688POPC   C3A61781  19.974  27.222   6.958
 4688POPC   C4A61782  19.608  27.011   7.167
 4688POPC   C1B61783  20.306  27.746   6.200
 4688POPC   C2B61784  20.206  27.844   6.608
 4688POPC   C3B61785  20.175  27.983   7.022
 4688POPC   C4B61786  20.041  27.655   7.232
 4689POPC   NC361787  21.961   9.677   5.520
 4689POPC   PO461788  22.571   9.543   5.222
 4689POPC   GL161789  22.428   9.461   5.683
 4689POPC   GL261790  22.062   9.337   5.877
 4689POPC   C1A61791  22.438   9.594   6.102
 4689POPC   D2A61792  22.380   9.436   6.497
 4689POPC   C3A61793  22.158   9.612   6.845
 4689POPC   C4A61794  22.354   9.687   7.218
 4689POPC   C1B61795  21.915   9.637   6.217
 4689POPC   C2B61796  22.019   9.998   6.518
 4689POPC   C3B61797  22.044  10.101   6.979
 4689POPC   C4B61798  22.047   9.995   7.444
 4690POPC   NC361799  36.705  24.432   5.498
 4690POPC   PO461800  37.007  24.967   5.179
 4690POPC   GL161801  37.055  24.780   5.638
 4690POPC   GL261802  37.110  24.424   5.800
 4690POPC   C1A61803  36.951  24.785   6.120
 4690POPC   D2A61804  36.986  24.939   6.578
 4690POPC   C3A61805  36.981  24.641   6.950
 4690POPC   C4A61806  36.861  24.572   7.393
 4690POPC   C1B61807  36.904  24.279   6.262
 4690POPC   C2B61808  36.797  24.221   6.710
 4690POPC   C3B61809  36.944  24.143   7.139
 4690POPC   C4B61810  36.978  24.057   7.639
 4691POPC   NC361811   5.164  24.855   5.437
 4691POPC   PO461812   4.665  24.350   5.445
 4691POPC   GL161813   4.814  24.630   5.792
 4691POPC   GL261814   5.162  24.500   5.810
 4691POPC   C1A61815   4.988  24.711   6.245
 4691POPC   D2A61816   5.157  24.596   6.650
 4691POPC   C3A61817   4.921  24.478   7.015
 4691POPC   C4A61818   4.691  24.310   7.348
 4691POPC   C1B61819   5.358  24.341   6.202
 4691POPC   C2B61820   5.387  24.109   6.586
 4691POPC   C3B61821   5.414  24.268   6.994
 4691POPC   C4B61822   5.424  24.719   7.092
 4692POPC   NC361823  19.775  40.905   5.228
 4692POPC   PO461824  20.186  40.508   5.621
 4692POPC   GL161825  19.964  40.647   5.939
 4692POPC   GL261826  19.855  40.918   5.762
 4692POPC   C1A61827  19.968  40.742   6.387
 4692POPC   D2A61828  19.597  40.910   6.632
 4692POPC   C3A61829  19.696  40.808   7.039
 4692POPC   C4A61830  20.016  40.489   7.019
 4692POPC   C1B61831  20.217  41.063   6.057
 4692POPC   C2B61832  20.152  41.209   6.479
 4692POPC   C3B61833  20.189  41.202   6.885
 4692POPC   C4B61834  20.163  40.942   7.225
 4693POPC   NC361835  31.724  31.111   5.475
 4693POPC   PO461836  31.547  31.733   5.187
 4693POPC   GL161837  31.653  31.628   5.657
 4693POPC   GL261838  31.353  31.423   5.722
 4693POPC   C1A61839  31.801  31.569   6.148
 4693POPC   D2A61840  31.824  31.747   6.626
 4693POPC   C3A61841  31.767  31.575   7.079
 4693POPC   C4A61842  31.742  31.619   7.579
 4693POPC   C1B61843  31.325  31.311   6.153
 4693POPC   C2B61844  31.386  31.447   6.587
 4693POPC   C3B61845  31.334  31.271   7.002
 4693POPC   C4B61846  31.578  31.175   7.349
 4694POPC   NC361847  25.116  34.342   5.360
 4694POPC   PO461848  25.350  34.906   5.465
 4694POPC   GL161849  25.184  34.652   5.825
 4694POPC   GL261850  24.843  34.713   5.770
 4694POPC   C1A61851  25.204  34.538   6.294
 4694POPC   D2A61852  25.260  34.785   6.711
 4694POPC   C3A61853  25.449  34.612   7.069
 4694POPC   C4A61854  25.636  34.792   7.391
 4694POPC   C1B61855  24.844  34.867   6.221
 4694POPC   C2B61856  24.778  34.677   6.651
 4694POPC   C3B61857  24.944  34.545   7.060
 4694POPC   C4B61858  24.771  34.375   7.450
 4695POPC   NC361859  44.354   3.747   5.404
 4695POPC   PO461860  43.717   3.500   5.440
 4695POPC   GL161861  43.768   3.625   5.792
 4695POPC   GL261862  43.989   3.895   5.744
 4695POPC   C1A61863  43.768   3.489   6.173
 4695POPC   D2A61864  43.879   3.613   6.561
 4695POPC   C3A61865  43.706   3.429   6.909
 4695POPC   C4A61866  43.850   3.531   7.302
 4695POPC   C1B61867  44.002   3.979   6.171
 4695POPC   C2B61868  44.018   4.130   6.595
 4695POPC   C3B61869  43.933   3.927   6.975
 4695POPC   C4B61870  44.232   3.881   7.291
 4696POPC   NC361871  27.262  23.146   5.367
 4696POPC   PO461872  26.579  23.020   5.324
 4696POPC   GL161873  26.684  22.861   5.726
 4696POPC   GL261874  27.045  22.891   5.745
 4696POPC   C1A61875  26.695  22.986   6.153
 4696POPC   D2A61876  26.488  23.067   6.553
 4696POPC   C3A61877  26.745  23.188   6.886
 4696POPC   C4A61878  26.743  23.173   7.318
 4696POPC   C1B61879  27.181  23.170   6.078
 4696POPC   C2B61880  27.080  23.052   6.505
 4696POPC   C3B61881  27.211  22.923   6.906
 4696POPC   C4B61882  27.261  23.070   7.323
 4697POPC   NC361883  33.231  15.650   5.467
 4697POPC   PO461884  32.811  16.171   5.424
 4697POPC   GL161885  32.973  15.971   5.777
 4697POPC   GL261886  33.324  16.058   5.765
 4697POPC   C1A61887  33.126  15.711   6.134
 4697POPC   D2A61888  33.344  15.714   6.521
 4697POPC   C3A61889  33.095  15.779   6.892
 4697POPC   C4A61890  32.965  15.792   7.324
 4697POPC   C1B61891  33.444  16.121   6.179
 4697POPC   C2B61892  33.284  16.215   6.576
 4697POPC   C3B61893  33.523  16.056   6.883
 4697POPC   C4B61894  33.437  15.947   7.275
 4698POPC   NC361895  29.319  18.968   5.320
 4698POPC   PO461896  28.911  19.515   5.440
 4698POPC   GL161897  29.188  19.271   5.736
 4698POPC   GL261898  29.177  18.874   5.812
 4698POPC   C1A61899  29.255  19.196   6.170
 4698POPC   D2A61900  29.038  19.075   6.521
 4698POPC   C3A61901  29.202  19.101   6.912
 4698POPC   C4A61902  28.975  19.240   7.227
 4698POPC   C1B61903  29.105  18.638   6.247
 4698POPC   C2B61904  29.026  18.622   6.742
 4698POPC   C3B61905  29.107  18.567   7.207
 4698POPC   C4B61906  29.358  18.516   7.631
 4699POPC   NC361907  36.607  22.117   5.510
 4699POPC   PO461908  37.068  22.590   5.395
 4699POPC   GL161909  36.965  22.390   5.756
 4699POPC   GL261910  36.627  22.528   5.840
 4699POPC   C1A61911  36.973  22.082   6.068
 4699POPC   D2A61912  36.981  22.141   6.519
 4699POPC   C3A61913  36.914  21.918   6.877
 4699POPC   C4A61914  37.151  22.026   7.228
 4699POPC   C1B61915  36.701  22.478   6.239
 4699POPC   C2B61916  36.520  22.358   6.602
 4699POPC   C3B61917  36.712  22.377   6.950
 4699POPC   C4B61918  36.671  22.254   7.361
 4700POPC   NC361919   8.807   8.550   5.426
 4700POPC   PO461920   8.652   9.141   5.664
 4700POPC   GL161921   8.977   8.961   5.911
 4700POPC   GL261922   8.758   8.676   5.918
 4700POPC   C1A61923   9.173   9.025   6.364
 4700POPC   D2A61924   9.471   8.998   6.746
 4700POPC   C3A61925   9.170   8.996   7.112
 4700POPC   C4A61926   8.876   9.083   7.468
 4700POPC   C1B61927   8.735   8.740   6.349
 4700POPC   C2B61928   8.862   8.844   6.758
 4700POPC   C3B61929   8.757   8.646   7.171
 4700POPC   C4B61930   8.637   8.674   7.640
 4701POPC   NC361931  26.090   9.599   5.332
 4701POPC   PO461932  25.563   9.343   5.662
 4701POPC   GL161933  25.958   9.471   5.854
 4701POPC   GL261934  26.212   9.735   5.818
 4701POPC   C1A61935  26.198   9.427   6.237
 4701POPC   D2A61936  26.163   9.690   6.633
 4701POPC   C3A61937  26.177   9.448   7.011
 4701POPC   C4A61938  25.916   9.218   7.299
 4701POPC   C1B61939  25.975   9.901   6.175
 4701POPC   C2B61940  25.661   9.952   6.524
 4701POPC   C3B61941  25.777  10.026   6.952
 4701POPC   C4B61942  26.158  10.142   7.170
 4702POPC   NC361943  31.866   3.617   5.541
 4702POPC   PO461944  31.373   3.334   5.232
 4702POPC   GL161945  31.416   3.422   5.699
 4702POPC   GL261946  31.724   3.219   5.806
 4702POPC   C1A61947  31.489   3.723   6.089
 4702POPC   D2A61948  31.696   3.596   6.479
 4702POPC   C3A61949  31.560   3.641   6.895
 4702POPC   C4A61950  31.573   3.719   7.345
 4702POPC   C1B61951  31.475   3.234   6.190
 4702POPC   C2B61952  31.236   3.343   6.589
 4702POPC   C3B61953  31.280   3.230   7.004
 4702POPC   C4B61954  31.644   3.234   7.217
 4703POPC   NC361955   2.198  20.212   5.555
 4703POPC   PO461956   1.827  20.748   5.439
 4703POPC   GL161957   1.997  20.652   5.816
 4703POPC   GL261958   1.841  20.375   5.901
 4703POPC   C1A61959   2.161  20.638   6.252
 4703POPC   D2A61960   2.377  20.639   6.683
 4703POPC   C3A61961   2.091  20.559   7.055
 4703POPC   C4A61962   1.783  20.783   7.238
 4703POPC   C1B61963   1.650  20.570   6.300
 4703POPC   C2B61964   1.577  20.532   6.763
 4703POPC   C3B61965   1.656  20.250   7.121
 4703POPC   C4B61966   1.852  20.211   7.510
 4704POPC   NC361967   9.588  28.100   5.602
 4704POPC   PO461968  10.139  28.507   5.414
 4704POPC   GL161969   9.918  28.411   5.864
 4704POPC   GL261970   9.780  28.105   6.066
 4704POPC   C1A61971   9.779  28.533   6.332
 4704POPC   D2A61972   9.758  28.372   6.777
 4704POPC   C3A61973   9.820  28.664   7.140
 4704POPC   C4A61974  10.053  28.912   7.440
 4704POPC   C1B61975   9.349  27.954   6.233
 4704POPC   C2B61976   9.172  27.924   6.638
 4704POPC   C3B61977   9.348  28.050   7.032
 4704POPC   C4B61978   9.758  28.145   7.234
 4705POPC   NC361979  29.804  38.809   5.373
 4705POPC   PO461980  29.903  38.035   5.446
 4705POPC   GL161981  29.934  38.400   5.721
 4705POPC   GL261982  29.608  38.561   5.826
 4705POPC   C1A61983  30.000  38.560   6.145
 4705POPC   D2A61984  29.802  38.747   6.505
 4705POPC   C3A61985  29.862  38.510   6.884
 4705POPC   C4A61986  30.076  38.180   7.123
 4705POPC   C1B61987  29.572  38.241   6.180
 4705POPC   C2B61988  29.452  38.148   6.655
 4705POPC   C3B61989  29.431  38.371   7.105
 4705POPC   C4B61990  29.665  38.531   7.514
 4706POPC   NC361991  19.586   1.126   5.451
 4706POPC   PO461992  19.977   1.728   5.344
 4706POPC   GL161993  19.846   1.489   5.708
 4706POPC   GL261994  19.966   1.149   5.812
 4706POPC   C1A61995  19.572   1.372   6.077
 4706POPC   D2A61996  19.461   1.347   6.529
 4706POPC   C3A61997  19.792   1.210   6.797
 4706POPC   C4A61998  19.771   1.106   7.210
 4706POPC   C1B61999  19.925   1.070   6.294
 4706POPC   C2B62000  20.077   0.794   6.629
 4706POPC   C3B62001  20.220   0.935   7.045
 4706POPC   C4B62002  20.223   1.327   7.311
 4707POPC   NC362003  11.121  16.936   5.385
 4707POPC   PO462004  11.545  16.368   5.491
 4707POPC   GL162005  11.425  16.700   5.792
 4707POPC   GL262006  11.066  16.694   5.849
 4707POPC   C1A62007  11.458  16.769   6.246
 4707POPC   D2A62008  11.711  16.730   6.644
 4707POPC   C3A62009  11.509  16.816   7.051
 4707POPC   C4A62010  11.146  16.591   7.212
 4707POPC   C1B62011  11.118  17.103   6.067
 4707POPC   C2B62012  11.021  17.169   6.470
 4707POPC   C3B62013  11.107  17.081   6.878
 4707POPC   C4B62014  10.957  17.054   7.283
 4708POPC   NC362015  39.119   1.518   5.505
 4708POPC   PO462016  39.021   0.918   5.492
 4708POPC   GL162017  39.230   1.094   5.814
 4708POPC   GL262018  39.506   0.931   5.727
 4708POPC   C1A62019  39.368   1.337   6.167
 4708POPC   D2A62020  39.229   1.504   6.556
 4708POPC   C3A62021  39.342   1.378   6.983
 4708POPC   C4A62022  39.008   1.229   7.260
 4708POPC   C1B62023  39.428   0.767   6.156
 4708POPC   C2B62024  39.428   1.008   6.569
 4708POPC   C3B62025  39.294   0.878   6.985
 4708POPC   C4B62026  39.441   0.994   7.397
 4709POPC   NC362027   3.546  38.660   5.377
 4709POPC   PO462028   3.731  38.003   5.209
 4709POPC   GL162029   3.724  38.136   5.645
 4709POPC   GL262030   3.868  38.454   5.728
 4709POPC   C1A62031   3.682  38.142   6.107
 4709POPC   D2A62032   3.893  38.166   6.530
 4709POPC   C3A62033   3.618  38.195   6.912
 4709POPC   C4A62034   3.244  38.413   7.084
 4709POPC   C1B62035   3.961  38.589   6.158
 4709POPC   C2B62036   3.758  38.677   6.558
 4709POPC   C3B62037   3.875  38.656   6.998
 4709POPC   C4B62038   3.582  38.707   7.355
 4710POPC   NC362039  20.679  10.691   5.307
 4710POPC   PO462040  20.462  10.009   5.446
 4710POPC   GL162041  20.471  10.390   5.707
 4710POPC   GL262042  20.818  10.485   5.746
 4710POPC   C1A62043  20.488  10.481   6.157
 4710POPC   D2A62044  20.320  10.361   6.561
 4710POPC   C3A62045  20.594  10.433   6.907
 4710POPC   C4A62046  20.484  10.513   7.348
 4710POPC   C1B62047  20.939  10.223   6.077
 4710POPC   C2B62048  20.929  10.325   6.500
 4710POPC   C3B62049  21.078  10.131   6.866
 4710POPC   C4B62050  20.888  10.211   7.254
 4711POPC   NC362051  10.170  20.480   5.149
 4711POPC   PO462052  10.657  20.941   5.243
 4711POPC   GL162053  10.524  20.757   5.692
 4711POPC   GL262054  10.380  20.429   5.763
 4711POPC   C1A62055  10.585  20.660   6.167
 4711POPC   D2A62056  10.329  20.696   6.553
 4711POPC   C3A62057  10.428  20.544   6.962
 4711POPC   C4A62058  10.209  20.595   7.337
 4711POPC   C1B62059  10.226  20.199   6.158
 4711POPC   C2B62060  10.267  20.169   6.614
 4711POPC   C3B62061  10.104  20.128   7.053
 4711POPC   C4B62062  10.033  20.152   7.516
 4712POPC   NC362063  22.277  14.001   5.366
 4712POPC   PO462064  21.876  13.506   5.287
 4712POPC   GL162065  22.037  13.702   5.705
 4712POPC   GL262066  22.397  13.856   5.849
 4712POPC   C1A62067  21.905  13.765   6.143
 4712POPC   D2A62068  21.654  13.865   6.540
 4712POPC   C3A62069  21.851  13.765   6.970
 4712POPC   C4A62070  22.202  13.901   7.234
 4712POPC   C1B62071  22.608  13.984   6.265
 4712POPC   C2B62072  22.519  13.944   6.731
 4712POPC   C3B62073  22.597  13.621   7.057
 4712POPC   C4B62074  22.512  13.547   7.510
 4713POPC   NC362075  25.799  17.625   5.361
 4713POPC   PO462076  26.322  17.110   5.463
 4713POPC   GL162077  25.952  17.257   5.700
 4713POPC   GL262078  26.139  17.564   5.741
 4713POPC   C1A62079  25.666  17.376   6.067
 4713POPC   D2A62080  25.849  17.422   6.517
 4713POPC   C3A62081  25.808  17.250   6.964
 4713POPC   C4A62082  26.079  17.185   7.329
 4713POPC   C1B62083  25.991  17.762   6.113
 4713POPC   C2B62084  26.048  17.909   6.522
 4713POPC   C3B62085  26.067  17.708   6.905
 4713POPC   C4B62086  26.212  17.857   7.256
 4714POPC   NC362087  38.201   0.083   5.524
 4714POPC   PO462088  38.652   0.458   5.257
 4714POPC   GL162089  38.601   0.469   5.745
 4714POPC   GL262090  38.312   0.668   5.904
 4714POPC   C1A62091  38.518   0.302   6.194
 4714POPC   D2A62092  38.583   0.105   6.613
 4714POPC   C3A62093  38.503   0.402   6.953
 4714POPC   C4A62094  38.545   0.516   7.395
 4714POPC   C1B62095  38.430   0.881   6.290
 4714POPC   C2B62096  38.343   0.847   6.732
 4714POPC   C3B62097  38.185   0.781   7.182
 4714POPC   C4B62098  38.153   0.822   7.662
 4715POPC   NC362099  31.241  19.838   5.582
 4715POPC   PO462100  31.933  19.931   5.529
 4715POPC   GL162101  31.640  20.038   5.871
 4715POPC   GL262102  31.363  20.277   5.830
 4715POPC   C1A62103  31.603  19.812   6.264
 4715POPC   D2A62104  31.814  19.843   6.651
 4715POPC   C3A62105  31.560  19.908   7.029
 4715POPC   C4A62106  31.672  19.751   7.446
 4715POPC   C1B62107  31.126  20.076   6.186
 4715POPC   C2B62108  31.232  19.988   6.615
 4715POPC   C3B62109  31.059  19.830   6.984
 4715POPC   C4B62110  31.268  19.497   7.211
 4716POPC   NC362111  15.046  36.241   5.032
 4716POPC   PO462112  15.541  35.826   5.234
 4716POPC   GL162113  15.318  36.097   5.586
 4716POPC   GL262114  15.240  35.808   5.797
 4716POPC   C1A62115  15.064  36.220   6.013
 4716POPC   D2A62116  14.950  36.017   6.442
 4716POPC   C3A62117  14.846  36.242   6.842
 4716POPC   C4A62118  14.986  36.123   7.236
 4716POPC   C1B62119  15.494  35.611   6.122
 4716POPC   C2B62120  15.568  35.746   6.538
 4716POPC   C3B62121  15.288  35.892   6.859
 4716POPC   C4B62122  15.385  35.757   7.269
 4717POPC   NC362123  38.421   0.819   5.423
 4717POPC   PO462124  38.204   1.467   5.368
 4717POPC   GL162125  38.364   1.224   5.762
 4717POPC   GL262126  38.686   1.016   5.853
 4717POPC   C1A62127  38.509   1.385   6.170
 4717POPC   D2A62128  38.309   1.380   6.574
 4717POPC   C3A62129  38.488   1.296   6.951
 4717POPC   C4A62130  38.572   1.511   7.285
 4717POPC   C1B62131  38.934   1.075   6.261
 4717POPC   C2B62132  38.913   1.099   6.715
 4717POPC   C3B62133  38.731   0.865   7.060
 4717POPC   C4B62134  38.578   1.028   7.464
 4718POPC   NC362135   9.884  35.602   5.528
 4718POPC   PO462136   9.601  36.179   5.504
 4718POPC   GL162137   9.672  36.030   5.877
 4718POPC   GL262138  10.020  35.975   5.849
 4718POPC   C1A62139   9.588  36.262   6.251
 4718POPC   D2A62140   9.503  36.089   6.648
 4718POPC   C3A62141   9.526  36.365   6.974
 4718POPC   C4A62142   9.395  36.090   7.264
 4718POPC   C1B62143  10.089  36.310   6.154
 4718POPC   C2B62144  10.008  36.220   6.600
 4718POPC   C3B62145   9.965  36.110   7.031
 4718POPC   C4B62146  10.106  36.451   7.270
 4719POPC   NC362147  34.261  19.554   5.515
 4719POPC   PO462148  34.543  20.251   5.377
 4719POPC   GL162149  34.543  19.980   5.738
 4719POPC   GL262150  34.902  19.989   5.737
 4719POPC   C1A62151  34.413  19.759   6.132
 4719POPC   D2A62152  34.195  19.808   6.518
 4719POPC   C3A62153  34.423  19.763   6.900
 4719POPC   C4A62154  34.559  19.542   7.283
 4719POPC   C1B62155  34.923  19.813   6.139
 4719POPC   C2B62156  34.778  19.784   6.555
 4719POPC   C3B62157  34.950  19.744   6.986
 4719POPC   C4B62158  34.982  19.878   7.445
 4720POPC   NC362159  42.674   5.088   5.455
 4720POPC   PO462160  42.038   5.144   5.461
 4720POPC   GL162161  42.258   5.077   5.814
 4720POPC   GL262162  42.516   5.389   5.841
 4720POPC   C1A62163  42.186   4.800   6.187
 4720POPC   D2A62164  42.155   4.625   6.625
 4720POPC   C3A62165  42.064   4.970   6.909
 4720POPC   C4A62166  42.301   5.317   7.085
 4720POPC   C1B62167  42.638   5.053   6.139
 4720POPC   C2B62168  42.496   4.995   6.547
 4720POPC   C3B62169  42.582   4.869   6.923
 4720POPC   C4B62170  42.745   5.100   7.239
 4721POPC   NC362171  11.049   2.238   5.209
 4721POPC   PO462172  11.332   1.702   5.557
 4721POPC   GL162173  11.118   1.797   5.897
 4721POPC   GL262174  11.198   2.148   5.888
 4721POPC   C1A62175  11.343   1.716   6.276
 4721POPC   D2A62176  11.519   1.899   6.626
 4721POPC   C3A62177  11.187   1.911   6.896
 4721POPC   C4A62178  11.156   1.754   7.282
 4721POPC   C1B62179  11.129   2.171   6.358
 4721POPC   C2B62180  11.329   2.371   6.701
 4721POPC   C3B62181  11.269   2.326   7.170
 4721POPC   C4B62182  11.347   2.442   7.597
 4722POPC   NC362183  39.689  16.908   5.305
 4722POPC   PO462184  39.820  16.468   5.453
 4722POPC   GL162185  39.913  16.643   5.866
 4722POPC   GL262186  39.865  16.984   5.802
 4722POPC   C1A62187  40.009  16.765   6.317
 4722POPC   D2A62188  39.957  16.520   6.712
 4722POPC   C3A62189  40.242  16.606   7.082
 4722POPC   C4A62190  40.251  16.318   7.446
 4722POPC   C1B62191  39.557  16.927   6.138
 4722POPC   C2B62192  39.595  16.903   6.606
 4722POPC   C3B62193  39.843  16.931   6.997
 4722POPC   C4B62194  39.902  16.752   7.416
 4723POPC   NC362195  35.731  16.020   5.505
 4723POPC   PO462196  36.334  15.827   5.532
 4723POPC   GL162197  36.241  15.773   5.893
 4723POPC   GL262198  35.904  15.633   5.904
 4723POPC   C1A62199  36.321  15.548   6.235
 4723POPC   D2A62200  36.055  15.506   6.591
 4723POPC   C3A62201  36.201  15.749   6.958
 4723POPC   C4A62202  36.027  15.782   7.405
 4723POPC   C1B62203  35.932  15.918   6.267
 4723POPC   C2B62204  35.901  16.104   6.678
 4723POPC   C3B62205  36.106  16.237   7.078
 4723POPC   C4B62206  36.155  16.260   7.521
 4724POPC   NC362207  10.634   9.330   5.472
 4724POPC   PO462208  10.311   8.763   5.441
 4724POPC   GL162209  10.537   8.811   5.845
 4724POPC   GL262210  10.547   9.168   5.948
 4724POPC   C1A62211  10.501   8.779   6.312
 4724POPC   D2A62212  10.548   8.968   6.732
 4724POPC   C3A62213  10.464   8.749   7.121
 4724POPC   C4A62214  10.104   8.647   7.387
 4724POPC   C1B62215  10.895   9.099   6.225
 4724POPC   C2B62216  11.033   9.009   6.628
 4724POPC   C3B62217  10.968   8.906   7.061
 4724POPC   C4B62218  10.915   8.955   7.501
 4725POPC   NC362219   2.059  43.655   5.425
 4725POPC   PO462220   1.628  44.119   5.436
 4725POPC   GL162221   1.687  43.789   5.753
 4725POPC   GL262222   2.008  43.922   5.851
 4725POPC   C1A62223   1.714  43.654   6.176
 4725POPC   D2A62224   1.883  43.918   6.512
 4725POPC   C3A62225   1.678  44.046   6.899
 4725POPC   C4A62226   1.867  43.817   7.247
 4725POPC   C1B62227   1.970  44.284   6.126
 4725POPC   C2B62228   2.200  44.316   6.529
 4725POPC   C3B62229   2.190  44.106   6.919
 4725POPC   C4B62230   2.033  44.283   7.276
 4726POPC   NC362231   7.028  20.667   5.496
 4726POPC   PO462232   7.591  20.229   5.615
 4726POPC   GL162233   7.350  20.500   5.853
 4726POPC   GL262234   7.091  20.275   5.887
 4726POPC   C1A62235   7.470  20.719   6.221
 4726POPC   D2A62236   7.654  20.524   6.600
 4726POPC   C3A62237   7.511  20.653   7.007
 4726POPC   C4A62238   7.649  20.427   7.346
 4726POPC   C1B62239   6.968  20.552   6.221
 4726POPC   C2B62240   7.139  20.665   6.603
 4726POPC   C3B62241   6.989  20.649   6.994
 4726POPC   C4B62242   7.123  20.612   7.379
 4727POPC   NC362243  27.399  27.536   5.347
 4727POPC   PO462244  28.037  27.259   5.381
 4727POPC   GL162245  27.797  27.504   5.662
 4727POPC   GL262246  27.762  27.269   5.864
 4727POPC   C1A62247  27.750  27.712   6.105
 4727POPC   D2A62248  27.732  27.630   6.579
 4727POPC   C3A62249  27.475  27.658   6.977
 4727POPC   C4A62250  27.172  27.568   7.333
 4727POPC   C1B62251  27.536  27.270   6.248
 4727POPC   C2B62252  27.475  27.128   6.670
 4727POPC   C3B62253  27.479  27.163   7.104
 4727POPC   C4B62254  27.583  27.317   7.492
 4728POPC   NC362255  25.887  15.208   5.214
 4728POPC   PO462256  26.467  15.438   5.132
 4728POPC   GL162257  26.242  15.173   5.572
 4728POPC   GL262258  25.866  15.189   5.707
 4728POPC   C1A62259  26.196  15.054   6.063
 4728POPC   D2A62260  26.287  14.931   6.524
 4728POPC   C3A62261  26.099  15.111   6.923
 4728POPC   C4A62262  26.110  15.320   7.326
 4728POPC   C1B62263  25.798  15.404   6.107
 4728POPC   C2B62264  25.842  15.322   6.536
 4728POPC   C3B62265  25.626  15.438   6.930
 4728POPC   C4B62266  25.590  15.304   7.363
 4729POPC   NC362267  39.067   0.056   5.450
 4729POPC   PO462268  39.252  44.459   5.079
 4729POPC   GL162269  39.198  44.533   5.536
 4729POPC   GL262270  39.504  44.572   5.720
 4729POPC   C1A62271  39.036  44.535   5.989
 4729POPC   D2A62272  38.820  44.678   6.381
 4729POPC   C3A62273  38.911  44.535   6.823
 4729POPC   C4A62274  38.911  44.840   7.152
 4729POPC   C1B62275  39.499  44.456   6.173
 4729POPC   C2B62276  39.331  44.696   6.541
 4729POPC   C3B62277  39.392  44.738   6.999
 4729POPC   C4B62278  39.645  44.583   7.356
 4730POPC   NC362279  10.136  40.910   5.445
 4730POPC   PO462280  10.531  40.426   5.355
 4730POPC   GL162281  10.445  40.714   5.801
 4730POPC   GL262282  10.591  41.035   5.868
 4730POPC   C1A62283  10.309  40.912   6.272
 4730POPC   D2A62284  10.536  40.781   6.659
 4730POPC   C3A62285  10.373  40.801   7.066
 4730POPC   C4A62286  10.477  40.828   7.485
 4730POPC   C1B62287  10.801  40.844   6.230
 4730POPC   C2B62288  11.001  41.024   6.557
 4730POPC   C3B62289  10.808  41.133   6.960
 4730POPC   C4B62290  10.939  41.029   7.384
 4731POPC   NC362291  11.678  17.693   5.418
 4731POPC   PO462292  11.044  17.400   5.310
 4731POPC   GL162293  11.253  17.485   5.733
 4731POPC   GL262294  11.462  17.215   5.653
 4731POPC   C1A62295  11.355  17.618   6.225
 4731POPC   D2A62296  11.248  17.571   6.704
 4731POPC   C3A62297  11.316  17.801   7.118
 4731POPC   C4A62298  11.173  17.819   7.591
 4731POPC   C1B62299  11.625  17.220   6.047
 4731POPC   C2B62300  11.549  17.199   6.485
 4731POPC   C3B62301  11.642  17.292   6.889
 4731POPC   C4B62302  11.412  17.298   7.245
 4732POPC   NC362303   6.087  18.656   5.418
 4732POPC   PO462304   5.862  17.972   5.300
 4732POPC   GL162305   5.715  18.192   5.722
 4732POPC   GL262306   5.842  18.515   5.829
 4732POPC   C1A62307   5.953  18.148   6.140
 4732POPC   D2A62308   5.874  18.272   6.554
 4732POPC   C3A62309   6.102  18.244   6.919
 4732POPC   C4A62310   5.863  18.139   7.301
 4732POPC   C1B62311   5.994  18.656   6.252
 4732POPC   C2B62312   5.832  18.758   6.682
 4732POPC   C3B62313   5.824  18.622   7.101
 4732POPC   C4B62314   6.132  18.540   7.419
 4733POPC   NC362315  20.376  16.134   5.551
 4733POPC   PO462316  20.675  15.633   5.434
 4733POPC   GL162317  20.705  15.854   5.815
 4733POPC   GL262318  20.919  16.109   5.812
 4733POPC   C1A62319  20.777  15.701   6.220
 4733POPC   D2A62320  20.692  15.863   6.639
 4733POPC   C3A62321  20.555  15.736   7.042
 4733POPC   C4A62322  20.197  15.945   7.249
 4733POPC   C1B62323  20.897  16.197   6.256
 4733POPC   C2B62324  20.961  16.288   6.687
 4733POPC   C3B62325  20.882  16.141   7.100
 4733POPC   C4B62326  20.926  16.290   7.504
 4734POPC   NC362327  44.956   0.669   5.425
 4734POPC   PO462328  44.512   0.131   5.477
 4734POPC   GL162329  44.609   0.330   5.876
 4734POPC   GL262330  44.462   0.648   5.869
 4734POPC   C1A62331  44.737   0.282   6.339
 4734POPC   D2A62332  44.613   0.140   6.768
 4734POPC   C3A62333  44.804   0.267   7.165
 4734POPC   C4A62334  44.547   0.291   7.520
 4734POPC   C1B62335  44.610   0.767   6.251
 4734POPC   C2B62336  44.522   0.645   6.670
 4734POPC   C3B62337  44.638   0.737   7.077
 4734POPC   C4B62338  44.382   0.779   7.474
 4735POPC   NC362339   9.877  44.502   5.374
 4735POPC   PO462340  10.328  44.915   5.526
 4735POPC   GL162341   9.974  44.826   5.824
 4735POPC   GL262342   9.654  44.640   5.843
 4735POPC   C1A62343   9.863  44.804   6.278
 4735POPC   D2A62344   9.980  44.580   6.651
 4735POPC   C3A62345   9.796  44.714   7.061
 4735POPC   C4A62346   9.774  44.705   7.524
 4735POPC   C1B62347   9.366  44.909   6.178
 4735POPC   C2B62348   9.479  44.953   6.650
 4735POPC   C3B62349   9.340  44.947   7.106
 4735POPC   C4B62350   9.308  44.890   7.554
 4736POPC   NC362351  37.956   5.952   5.331
 4736POPC   PO462352  37.535   5.519   5.476
 4736POPC   GL162353  37.746   5.749   5.763
 4736POPC   GL262354  38.043   5.589   5.711
 4736POPC   C1A62355  37.644   5.943   6.137
 4736POPC   D2A62356  37.527   5.993   6.567
 4736POPC   C3A62357  37.398   5.801   6.956
 4736POPC   C4A62358  37.632   6.010   7.252
 4736POPC   C1B62359  38.092   5.670   6.134
 4736POPC   C2B62360  38.025   5.857   6.504
 4736POPC   C3B62361  37.877   5.711   6.856
 4736POPC   C4B62362  38.043   5.725   7.241
 4737POPC   NC362363   7.302   1.147   5.290
 4737POPC   PO462364   7.051   1.723   5.466
 4737POPC   GL162365   7.291   1.413   5.767
 4737POPC   GL262366   7.420   1.070   5.810
 4737POPC   C1A62367   7.596   1.420   6.135
 4737POPC   D2A62368   7.757   1.365   6.550
 4737POPC   C3A62369   7.508   1.316   6.922
 4737POPC   C4A62370   7.651   1.269   7.341
 4737POPC   C1B62371   7.263   1.015   6.238
 4737POPC   C2B62372   7.077   0.984   6.672
 4737POPC   C3B62373   7.161   0.935   7.121
 4737POPC   C4B62374   7.198   1.099   7.524
 4738POPC   NC362375   5.480  27.455   5.369
 4738POPC   PO462376   4.871  27.678   5.507
 4738POPC   GL162377   5.115  27.620   5.854
 4738POPC   GL262378   5.471  27.770   5.811
 4738POPC   C1A62379   4.909  27.764   6.241
 4738POPC   D2A62380   4.792  28.058   6.567
 4738POPC   C3A62381   4.843  27.898   7.001
 4738POPC   C4A62382   4.934  27.675   7.410
 4738POPC   C1B62383   5.409  27.727   6.254
 4738POPC   C2B62384   5.258  27.781   6.681
 4738POPC   C3B62385   5.367  27.701   7.122
 4738POPC   C4B62386   5.410  27.672   7.609
 4739POPC   NC362387   6.895  28.175   5.463
 4739POPC   PO462388   6.393  28.631   5.444
 4739POPC   GL162389   6.515  28.405   5.787
 4739POPC   GL262390   6.860  28.505   5.836
 4739POPC   C1A62391   6.394  28.434   6.227
 4739POPC   D2A62392   6.482  28.131   6.560
 4739POPC   C3A62393   6.346  28.251   6.957
 4739POPC   C4A62394   6.511  28.443   7.296
 4739POPC   C1B62395   6.846  28.191   6.163
 4739POPC   C2B62396   7.002  28.099   6.576
 4739POPC   C3B62397   6.868  28.153   6.972
 4739POPC   C4B62398   7.082  28.440   7.167
 4740POPC   NC362399  36.646  17.376   5.373
 4740POPC   PO462400  37.297  17.091   5.464
 4740POPC   GL162401  37.024  17.339   5.764
 4740POPC   GL262402  36.681  17.313   5.874
 4740POPC   C1A62403  36.984  17.496   6.212
 4740POPC   D2A62404  37.148  17.621   6.593
 4740POPC   C3A62405  36.837  17.769   6.876
 4740POPC   C4A62406  36.747  17.832   7.309
 4740POPC   C1B62407  36.554  17.189   6.293
 4740POPC   C2B62408  36.745  17.295   6.699
 4740POPC   C3B62409  36.746  17.347   7.174
 4740POPC   C4B62410  36.577  17.432   7.609
 4741POPC   NC362411  25.457  23.703   5.281
 4741POPC   PO462412  24.824  23.752   5.483
 4741POPC   GL162413  25.039  23.608   5.846
 4741POPC   GL262414  25.405  23.699   5.815
 4741POPC   C1A62415  25.086  23.638   6.310
 4741POPC   D2A62416  25.256  23.869   6.666
 4741POPC   C3A62417  25.157  23.784   7.134
 4741POPC   C4A62418  25.028  23.908   7.573
 4741POPC   C1B62419  25.581  23.565   6.223
 4741POPC   C2B62420  25.654  23.546   6.687
 4741POPC   C3B62421  25.589  23.476   7.155
 4741POPC   C4B62422  25.716  23.284   7.560
 4742POPC   NC362423   9.952   0.198   5.439
 4742POPC   PO462424  10.640   0.361   5.293
 4742POPC   GL162425  10.445   0.466   5.726
 4742POPC   GL262426  10.135   0.624   5.684
 4742POPC   C1A62427  10.497   0.518   6.230
 4742POPC   D2A62428  10.651   0.230   6.577
 4742POPC   C3A62429  10.763   0.371   6.983
 4742POPC   C4A62430  10.614   0.215   7.382
 4742POPC   C1B62431  10.060   0.327   6.056
 4742POPC   C2B62432  10.104   0.225   6.506
 4742POPC   C3B62433  10.260   0.422   6.889
 4742POPC   C4B62434  10.154   0.447   7.327
 4743POPC   NC362435  32.954   0.746   5.386
 4743POPC   PO462436  33.357   0.206   5.740
 4743POPC   GL162437  33.058   0.306   6.021
 4743POPC   GL262438  32.842   0.563   5.865
 4743POPC   C1A62439  33.069   0.267   6.469
 4743POPC   D2A62440  32.925   0.586   6.760
 4743POPC   C3A62441  33.139   0.415   7.092
 4743POPC   C4A62442  33.370   0.225   7.362
 4743POPC   C1B62443  32.682   0.563   6.281
 4743POPC   C2B62444  32.568   0.251   6.597
 4743POPC   C3B62445  32.629   0.298   7.074
 4743POPC   C4B62446  32.800   0.609   7.417
 4744POPC   NC362447  13.723  24.202   5.559
 4744POPC   PO462448  13.353  23.631   5.524
 4744POPC   GL162449  13.442  23.774   5.870
 4744POPC   GL262450  13.739  23.635   5.873
 4744POPC   C1A62451  13.507  23.776   6.319
 4744POPC   D2A62452  13.278  23.710   6.677
 4744POPC   C3A62453  13.430  23.951   7.036
 4744POPC   C4A62454  13.602  23.584   7.110
 4744POPC   C1B62455  13.895  23.444   6.251
 4744POPC   C2B62456  13.901  23.452   6.706
 4744POPC   C3B62457  14.094  23.679   7.058
 4744POPC   C4B62458  13.931  23.670   7.485
 4745POPC   NC362459   5.534  40.194   5.277
 4745POPC   PO462460   6.094  39.875   5.126
 4745POPC   GL162461   5.987  40.020   5.573
 4745POPC   GL262462   6.277  40.027   5.773
 4745POPC   C1A62463   5.827  40.010   6.031
 4745POPC   D2A62464   5.860  39.967   6.490
 4745POPC   C3A62465   5.617  40.067   6.900
 4745POPC   C4A62466   5.674  40.200   7.368
 4745POPC   C1B62467   6.387  39.974   6.203
 4745POPC   C2B62468   6.269  39.647   6.465
 4745POPC   C3B62469   6.038  39.637   6.832
 4745POPC   C4B62470   5.948  39.817   7.220
 4746POPC   NC362471   2.296  20.887   5.283
 4746POPC   PO462472   1.794  21.482   5.348
 4746POPC   GL162473   2.047  21.496   5.714
 4746POPC   GL262474   2.078  21.147   5.675
 4746POPC   C1A62475   1.994  21.668   6.123
 4746POPC   D2A62476   1.789  21.488   6.470
 4746POPC   C3A62477   1.921  21.532   6.883
 4746POPC   C4A62478   1.764  21.312   7.234
 4746POPC   C1B62479   1.931  21.126   6.096
 4746POPC   C2B62480   2.132  21.094   6.496
 4746POPC   C3B62481   2.093  21.050   6.922
 4746POPC   C4B62482   2.250  21.055   7.348
 4747POPC   NC362483   4.313  10.696   5.351
 4747POPC   PO462484   3.822  10.406   5.665
 4747POPC   GL162485   4.287  10.492   5.824
 4747POPC   GL262486   4.575  10.790   5.809
 4747POPC   C1A62487   4.264  10.491   6.254
 4747POPC   D2A62488   4.482  10.277   6.569
 4747POPC   C3A62489   4.295  10.328   6.949
 4747POPC   C4A62490   4.488  10.162   7.281
 4747POPC   C1B62491   4.532  10.935   6.251
 4747POPC   C2B62492   4.389  10.790   6.670
 4747POPC   C3B62493   4.625  10.753   7.080
 4747POPC   C4B62494   4.864  10.895   7.484
 4748POPC   NC362495   2.323  37.797   5.394
 4748POPC   PO462496   2.189  37.158   5.427
 4748POPC   GL162497   1.955  37.549   5.694
 4748POPC   GL262498   2.059  37.930   5.805
 4748POPC   C1A62499   1.776  37.641   6.126
 4748POPC   D2A62500   1.894  37.784   6.529
 4748POPC   C3A62501   1.799  37.711   6.964
 4748POPC   C4A62502   2.026  37.623   7.356
 4748POPC   C1B62503   2.281  37.795   6.165
 4748POPC   C2B62504   2.379  37.683   6.607
 4748POPC   C3B62505   2.298  37.864   7.006
 4748POPC   C4B62506   2.402  37.960   7.452
 4749POPC   NC362507  40.667  28.017   5.487
 4749POPC   PO462508  40.735  28.590   5.536
 4749POPC   GL162509  40.727  28.329   5.929
 4749POPC   GL262510  40.706  27.947   5.998
 4749POPC   C1A62511  40.892  28.416   6.337
 4749POPC   D2A62512  40.993  28.546   6.755
 4749POPC   C3A62513  40.766  28.434   7.111
 4749POPC   C4A62514  40.961  28.219   7.424
 4749POPC   C1B62515  40.831  27.939   6.442
 4749POPC   C2B62516  40.907  28.000   6.904
 4749POPC   C3B62517  40.594  27.937   7.232
 4749POPC   C4B62518  40.577  27.902   7.689
 4750POPC   NC362519  33.114  38.731   5.348
 4750POPC   PO462520  33.304  38.131   5.741
 4750POPC   GL162521  33.042  38.351   5.980
 4750POPC   GL262522  32.927  38.634   5.835
 4750POPC   C1A62523  33.058  38.470   6.397
 4750POPC   D2A62524  33.356  38.612   6.708
 4750POPC   C3A62525  33.363  38.286   7.020
 4750POPC   C4A62526  33.008  38.236   7.293
 4750POPC   C1B62527  32.738  38.837   6.214
 4750POPC   C2B62528  32.728  38.731   6.669
 4750POPC   C3B62529  32.844  38.733   7.109
 4750POPC   C4B62530  32.912  38.969   7.520
 4751POPC   NC362531  10.705  29.821   5.473
 4751POPC   PO462532  10.202  30.026   5.142
 4751POPC   GL162533  10.218  29.860   5.663
 4751POPC   GL262534  10.272  29.536   5.787
 4751POPC   C1A62535  10.399  29.962   6.107
 4751POPC   D2A62536  10.284  29.901   6.544
 4751POPC   C3A62537  10.415  30.180   6.873
 4751POPC   C4A62538  10.472  30.007   7.270
 4751POPC   C1B62539  10.590  29.499   6.147
 4751POPC   C2B62540  10.524  29.418   6.592
 4751POPC   C3B62541  10.647  29.593   6.985
 4751POPC   C4B62542  10.892  29.732   7.363
 4752POPC   NC362543  16.413   0.702   5.040
 4752POPC   PO462544  15.916   0.344   5.296
 4752POPC   GL162545  16.030   0.502   5.675
 4752POPC   GL262546  15.857   0.229   5.811
 4752POPC   C1A62547  16.067   0.654   6.108
 4752POPC   D2A62548  15.915   0.770   6.504
 4752POPC   C3A62549  16.129   0.768   6.882
 4752POPC   C4A62550  15.981   0.629   7.249
 4752POPC   C1B62551  15.768   0.020   6.172
 4752POPC   C2B62552  15.847   0.257   6.512
 4752POPC   C3B62553  15.852   0.261   6.930
 4752POPC   C4B62554  15.591  44.996   7.175
 4753POPC   NC362555  43.929   9.444   5.477
 4753POPC   PO462556  44.209   9.972   5.213
 4753POPC   GL162557  44.186  10.001   5.722
 4753POPC   GL262558  44.289   9.658   5.793
 4753POPC   C1A62559  43.922  10.051   6.170
 4753POPC   D2A62560  43.666  10.129   6.582
 4753POPC   C3A62561  43.779   9.999   7.019
 4753POPC   C4A62562  43.548  10.031   7.446
 4753POPC   C1B62563  44.015   9.539   6.143
 4753POPC   C2B62564  43.891   9.660   6.576
 4753POPC   C3B62565  43.885   9.492   6.974
 4753POPC   C4B62566  44.110   9.403   7.322
 4754POPC   NC362567   8.554  22.884   5.167
 4754POPC   PO462568   8.055  22.597   5.183
 4754POPC   GL162569   8.197  22.816   5.640
 4754POPC   GL262570   8.034  23.145   5.766
 4754POPC   C1A62571   8.095  22.786   6.127
 4754POPC   D2A62572   7.896  22.942   6.503
 4754POPC   C3A62573   8.060  22.747   6.871
 4754POPC   C4A62574   7.836  22.774   7.258
 4754POPC   C1B62575   8.104  23.332   6.179
 4754POPC   C2B62576   8.276  23.260   6.610
 4754POPC   C3B62577   8.103  23.224   7.013
 4754POPC   C4B62578   8.256  23.324   7.378
 4755POPC   NC362579   9.316  25.011   5.422
 4755POPC   PO462580   9.882  24.674   5.491
 4755POPC   GL162581   9.597  24.461   5.754
 4755POPC   GL262582   9.284  24.638   5.755
 4755POPC   C1A62583   9.696  24.342   6.176
 4755POPC   D2A62584   9.926  24.337   6.572
 4755POPC   C3A62585   9.729  24.456   6.988
 4755POPC   C4A62586   9.901  24.268   7.363
 4755POPC   C1B62587   9.453  24.794   6.131
 4755POPC   C2B62588   9.488  24.637   6.552
 4755POPC   C3B62589   9.319  24.790   6.924
 4755POPC   C4B62590   9.350  24.663   7.370
 4756POPC   NC362591   5.421  11.933   5.483
 4756POPC   PO462592   5.016  12.474   5.357
 4756POPC   GL162593   4.949  12.105   5.643
 4756POPC   GL262594   5.228  12.264   5.816
 4756POPC   C1A62595   4.923  11.925   6.098
 4756POPC   D2A62596   5.075  11.745   6.517
 4756POPC   C3A62597   4.989  11.976   6.927
 4756POPC   C4A62598   5.123  12.065   7.401
 4756POPC   C1B62599   5.483  12.280   6.181
 4756POPC   C2B62600   5.367  12.156   6.581
 4756POPC   C3B62601   5.313  12.369   6.955
 4756POPC   C4B62602   5.547  12.357   7.315
 4757POPC   NC362603  22.196  13.233   5.484
 4757POPC   PO462604  22.475  12.625   5.634
 4757POPC   GL162605  22.322  12.936   5.889
 4757POPC   GL262606  22.073  12.714   6.041
 4757POPC   C1A62607  22.125  13.151   6.264
 4757POPC   D2A62608  21.893  12.905   6.575
 4757POPC   C3A62609  21.978  12.977   7.015
 4757POPC   C4A62610  22.298  13.180   7.227
 4757POPC   C1B62611  21.910  12.394   6.265
 4757POPC   C2B62612  21.744  12.416   6.684
 4757POPC   C3B62613  21.876  12.474   7.118
 4757POPC   C4B62614  21.797  12.478   7.573
 4758POPC   NC362615  33.528  37.071   5.485
 4758POPC   PO462616  33.046  36.561   5.510
 4758POPC   GL162617  32.960  36.915   5.780
 4758POPC   GL262618  33.277  36.940   5.929
 4758POPC   C1A62619  32.757  36.921   6.182
 4758POPC   D2A62620  32.916  37.071   6.549
 4758POPC   C3A62621  32.796  36.912   6.919
 4758POPC   C4A62622  33.136  36.840   7.185
 4758POPC   C1B62623  33.290  37.263   6.237
 4758POPC   C2B62624  33.394  37.320   6.691
 4758POPC   C3B62625  33.278  37.331   7.149
 4758POPC   C4B62626  33.283  37.413   7.602
 4759POPC   NC362627  15.656  42.363   5.579
 4759POPC   PO462628  16.027  41.895   5.249
 4759POPC   GL162629  16.204  42.081   5.704
 4759POPC   GL262630  16.004  42.298   5.953
 4759POPC   C1A62631  16.424  42.074   6.147
 4759POPC   D2A62632  16.499  41.921   6.591
 4759POPC   C3A62633  16.164  42.132   6.881
 4759POPC   C4A62634  16.251  42.418   7.213
 4759POPC   C1B62635  15.672  42.420   6.271
 4759POPC   C2B62636  15.547  42.393   6.728
 4759POPC   C3B62637  15.732  42.442   7.149
 4759POPC   C4B62638  15.842  42.328   7.577
 4760POPC   NC362639  30.803  13.459   5.290
 4760POPC   PO462640  30.699  14.069   5.331
 4760POPC   GL162641  30.719  13.753   5.715
 4760POPC   GL262642  30.782  13.381   5.804
 4760POPC   C1A62643  30.516  13.742   6.136
 4760POPC   D2A62644  30.378  13.474   6.456
 4760POPC   C3A62645  30.700  13.348   6.735
 4760POPC   C4A62646  30.700  13.463   7.183
 4760POPC   C1B62647  30.966  13.487   6.219
 4760POPC   C2B62648  31.139  13.670   6.597
 4760POPC   C3B62649  31.125  13.859   7.025
 4760POPC   C4B62650  30.988  13.797   7.492
 4761POPC   NC362651  38.322  31.298   5.304
 4761POPC   PO462652  38.323  30.658   5.140
 4761POPC   GL162653  38.398  30.734   5.602
 4761POPC   GL262654  38.645  30.902   5.747
 4761POPC   C1A62655  38.251  30.707   6.054
 4761POPC   D2A62656  38.177  30.461   6.470
 4761POPC   C3A62657  38.342  30.630   6.894
 4761POPC   C4A62658  38.335  30.701   7.356
 4761POPC   C1B62659  38.773  30.811   6.128
 4761POPC   C2B62660  38.729  30.670   6.525
 4761POPC   C3B62661  38.895  30.628   6.890
 4761POPC   C4B62662  38.744  30.904   7.149
 4762POPC   NC362663  24.288  36.934   5.483
 4762POPC   PO462664  24.884  36.615   5.361
 4762POPC   GL162665  24.689  36.779   5.778
 4762POPC   GL262666  24.693  37.112   5.878
 4762POPC   C1A62667  24.317  36.866   6.152
 4762POPC   D2A62668  24.083  36.582   6.492
 4762POPC   C3A62669  24.021  36.703   6.960
 4762POPC   C4A62670  24.223  36.738   7.393
 4762POPC   C1B62671  24.809  36.941   6.281
 4762POPC   C2B62672  24.686  37.030   6.711
 4762POPC   C3B62673  24.781  36.914   7.113
 4762POPC   C4B62674  24.724  37.300   7.273
 4763POPC   NC362675  32.802  29.581   5.474
 4763POPC   PO462676  32.678  30.260   5.436
 4763POPC   GL162677  32.325  30.084   5.698
 4763POPC   GL262678  32.311  29.738   5.819
 4763POPC   C1A62679  32.282  30.153   6.161
 4763POPC   D2A62680  32.314  30.344   6.600
 4763POPC   C3A62681  32.335  30.123   7.010
 4763POPC   C4A62682  32.255  30.049   7.474
 4763POPC   C1B62683  32.232  29.654   6.279
 4763POPC   C2B62684  32.326  29.681   6.747
 4763POPC   C3B62685  32.129  29.616   7.196
 4763POPC   C4B62686  32.161  29.601   7.678
 4764POPC   NC362687  13.838  16.811   5.352
 4764POPC   PO462688  13.247  17.106   5.544
 4764POPC   GL162689  13.414  16.798   5.790
 4764POPC   GL262690  13.769  16.724   5.833
 4764POPC   C1A62691  13.460  16.649   6.236
 4764POPC   D2A62692  13.293  16.732   6.657
 4764POPC   C3A62693  13.533  16.907   7.000
 4764POPC   C4A62694  13.415  17.169   7.350
 4764POPC   C1B62695  13.968  16.533   6.170
 4764POPC   C2B62696  13.809  16.416   6.579
 4764POPC   C3B62697  14.001  16.452   6.987
 4764POPC   C4B62698  13.959  16.689   7.335
 4765POPC   NC362699  32.572   1.315   5.625
 4765POPC   PO462700  33.155   1.380   5.354
 4765POPC   GL162701  33.169   1.342   5.776
 4765POPC   GL262702  32.970   1.059   5.789
 4765POPC   C1A62703  33.244   1.462   6.205
 4765POPC   D2A62704  32.963   1.458   6.578
 4765POPC   C3A62705  33.101   1.579   6.978
 4765POPC   C4A62706  32.991   1.478   7.405
 4765POPC   C1B62707  33.009   0.981   6.198
 4765POPC   C2B62708  33.287   1.066   6.537
 4765POPC   C3B62709  33.107   1.065   6.919
 4765POPC   C4B62710  33.228   0.863   7.271
 4766POPC   NC362711  33.480  43.392   5.396
 4766POPC   PO462712  33.105  42.813   5.334
 4766POPC   GL162713  33.031  42.982   5.759
 4766POPC   GL262714  33.192  43.332   5.834
 4766POPC   C1A62715  32.911  43.117   6.186
 4766POPC   D2A62716  33.028  43.022   6.594
 4766POPC   C3A62717  32.874  43.180   6.985
 4766POPC   C4A62718  32.948  43.034   7.429
 4766POPC   C1B62719  33.369  43.369   6.295
 4766POPC   C2B62720  33.341  43.421   6.766
 4766POPC   C3B62721  33.343  43.249   7.190
 4766POPC   C4B62722  33.302  43.362   7.651
 4767POPC   NC362723   8.519   0.414   5.279
 4767POPC   PO462724   9.073   0.821   5.244
 4767POPC   GL162725   8.834   0.677   5.607
 4767POPC   GL262726   8.793   0.370   5.737
 4767POPC   C1A62727   8.809   0.741   6.082
 4767POPC   D2A62728   9.084   0.658   6.419
 4767POPC   C3A62729   8.948   0.641   6.828
 4767POPC   C4A62730   9.290   0.470   7.047
 4767POPC   C1B62731   8.925   0.224   6.168
 4767POPC   C2B62732   8.976   0.113   6.622
 4767POPC   C3B62733   8.866   0.149   7.071
 4767POPC   C4B62734   8.816   0.084   7.534
 4768POPC   NC362735  32.864  35.113   5.444
 4768POPC   PO462736  33.033  35.672   5.462
 4768POPC   GL162737  32.974  35.434   5.820
 4768POPC   GL262738  33.263  35.258   5.750
 4768POPC   C1A62739  32.762  35.448   6.200
 4768POPC   D2A62740  32.816  35.538   6.633
 4768POPC   C3A62741  32.641  35.232   6.891
 4768POPC   C4A62742  32.739  35.308   7.295
 4768POPC   C1B62743  33.271  35.067   6.146
 4768POPC   C2B62744  33.346  35.107   6.576
 4768POPC   C3B62745  33.154  35.180   6.966
 4768POPC   C4B62746  33.236  35.024   7.354
 4769POPC   NC362747  36.487  41.741   5.455
 4769POPC   PO462748  35.920  41.368   5.440
 4769POPC   GL162749  36.111  41.264   5.809
 4769POPC   GL262750  36.458  41.332   5.856
 4769POPC   C1A62751  36.077  41.290   6.244
 4769POPC   D2A62752  35.919  41.309   6.665
 4769POPC   C3A62753  36.229  41.485   6.910
 4769POPC   C4A62754  36.176  41.630   7.312
 4769POPC   C1B62755  36.447  41.668   6.178
 4769POPC   C2B62756  36.618  41.710   6.604
 4769POPC   C3B62757  36.569  41.840   7.044
 4769POPC   C4B62758  36.633  41.654   7.492
 4770POPC   NC362759  14.660  42.391   5.660
 4770POPC   PO462760  14.004  42.210   5.425
 4770POPC   GL162761  14.176  42.234   5.833
 4770POPC   GL262762  14.218  41.906   5.898
 4770POPC   C1A62763  14.297  42.230   6.292
 4770POPC   D2A62764  13.985  42.394   6.556
 4770POPC   C3A62765  14.073  42.548   6.968
 4770POPC   C4A62766  14.099  42.629   7.387
 4770POPC   C1B62767  14.361  41.684   6.243
 4770POPC   C2B62768  14.505  41.828   6.607
 4770POPC   C3B62769  14.316  42.111   6.853
 4770POPC   C4B62770  14.300  42.169   7.260
 4771POPC   NC362771   6.436  27.548   5.090
 4771POPC   PO462772   5.808  27.851   5.325
 4771POPC   GL162773   5.920  27.539   5.651
 4771POPC   GL262774   6.270  27.563   5.630
 4771POPC   C1A62775   5.925  27.460   6.117
 4771POPC   D2A62776   5.767  27.575   6.558
 4771POPC   C3A62777   5.908  27.375   6.909
 4771POPC   C4A62778   5.803  27.502   7.331
 4771POPC   C1B62779   6.444  27.425   6.027
 4771POPC   C2B62780   6.311  27.187   6.408
 4771POPC   C3B62781   6.427  27.242   6.842
 4771POPC   C4B62782   6.293  27.413   7.243
 4772POPC   NC362783  22.811  44.679   5.381
 4772POPC   PO462784  23.230  44.556   5.798
 4772POPC   GL162785  22.869  44.540   5.987
 4772POPC   GL262786  22.666  44.357   5.775
 4772POPC   C1A62787  22.957  44.370   6.386
 4772POPC   D2A62788  23.001  44.598   6.756
 4772POPC   C3A62789  23.209  44.497   7.115
 4772POPC   C4A62790  23.526  44.838   7.154
 4772POPC   C1B62791  22.450  44.387   6.214
 4772POPC   C2B62792  22.542  44.416   6.663
 4772POPC   C3B62793  22.561  44.664   7.046
 4772POPC   C4B62794  22.750  44.712   7.477
 4773POPC   NC362795  35.062  21.601   5.630
 4773POPC   PO462796  35.675  21.716   5.304
 4773POPC   GL162797  35.603  21.535   5.749
 4773POPC   GL262798  35.382  21.244   5.802
 4773POPC   C1A62799  35.430  21.564   6.200
 4773POPC   D2A62800  35.104  21.650   6.524
 4773POPC   C3A62801  35.229  21.523   6.949
 4773POPC   C4A62802  35.339  21.173   7.223
 4773POPC   C1B62803  35.644  21.116   6.158
 4773POPC   C2B62804  35.859  21.304   6.483
 4773POPC   C3B62805  35.693  21.266   6.868
 4773POPC   C4B62806  35.857  21.150   7.241
 4774POPC   NC362807   2.860   8.487   5.414
 4774POPC   PO462808   2.651   7.907   5.671
 4774POPC   GL162809   2.525   8.114   5.940
 4774POPC   GL262810   2.535   8.455   5.814
 4774POPC   C1A62811   2.658   8.071   6.319
 4774POPC   D2A62812   2.882   8.026   6.640
 4774POPC   C3A62813   2.582   8.005   6.905
 4774POPC   C4A62814   2.760   7.855   7.240
 4774POPC   C1B62815   2.361   8.480   6.235
 4774POPC   C2B62816   2.526   8.446   6.623
 4774POPC   C3B62817   2.872   8.495   6.837
 4774POPC   C4B62818   2.778   8.354   7.228
 4775POPC   NC362819  35.644  22.186   5.475
 4775POPC   PO462820  36.273  22.499   5.475
 4775POPC   GL162821  36.201  22.210   5.812
 4775POPC   GL262822  35.870  22.167   5.947
 4775POPC   C1A62823  36.305  22.078   6.222
 4775POPC   D2A62824  36.064  22.124   6.616
 4775POPC   C3A62825  36.322  22.034   6.996
 4775POPC   C4A62826  36.209  22.042   7.440
 4775POPC   C1B62827  35.731  22.455   6.269
 4775POPC   C2B62828  35.625  22.421   6.715
 4775POPC   C3B62829  35.803  22.224   7.093
 4775POPC   C4B62830  35.799  22.366   7.517
 4776POPC   NC362831   8.681  33.747   5.384
 4776POPC   PO462832   8.766  34.340   5.635
 4776POPC   GL162833   8.958  34.067   5.943
 4776POPC   GL262834   9.322  34.102   5.965
 4776POPC   C1A62835   8.997  33.787   6.311
 4776POPC   D2A62836   8.678  33.653   6.634
 4776POPC   C3A62837   8.760  33.614   7.087
 4776POPC   C4A62838   8.761  33.927   7.441
 4776POPC   C1B62839   9.428  34.113   6.389
 4776POPC   C2B62840   9.337  33.916   6.740
 4776POPC   C3B62841   9.089  34.045   7.070
 4776POPC   C4B62842   9.055  34.358   7.372
 4777POPC   NC362843   2.996   1.754   5.430
 4777POPC   PO462844   2.910   2.391   5.436
 4777POPC   GL162845   2.771   2.110   5.732
 4777POPC   GL262846   2.509   1.891   5.592
 4777POPC   C1A62847   2.728   1.866   6.118
 4777POPC   D2A62848   2.850   1.934   6.544
 4777POPC   C3A62849   2.885   1.762   6.956
 4777POPC   C4A62850   2.959   1.823   7.394
 4777POPC   C1B62851   2.309   2.135   5.945
 4777POPC   C2B62852   2.321   2.068   6.396
 4777POPC   C3B62853   2.398   1.955   6.830
 4777POPC   C4B62854   2.504   2.005   7.256
 4778POPC   NC362855   9.933  39.314   5.453
 4778POPC   PO462856   9.330  39.317   5.623
 4778POPC   GL162857   9.692  39.541   5.877
 4778POPC   GL262858  10.100  39.577   5.874
 4778POPC   C1A62859   9.787  39.383   6.283
 4778POPC   D2A62860   9.617  39.114   6.625
 4778POPC   C3A62861   9.838  38.964   6.999
 4778POPC   C4A62862   9.468  38.908   7.249
 4778POPC   C1B62863  10.289  39.424   6.279
 4778POPC   C2B62864  10.086  39.355   6.715
 4778POPC   C3B62865  10.142  39.400   7.140
 4778POPC   C4B62866  10.242  39.474   7.568
 4779POPC   NC362867   2.649  11.574   5.522
 4779POPC   PO462868   2.975  11.118   5.147
 4779POPC   GL162869   2.741  11.055   5.598
 4779POPC   GL262870   2.394  11.155   5.700
 4779POPC   C1A62871   2.754  11.110   6.102
 4779POPC   D2A62872   2.691  11.348   6.508
 4779POPC   C3A62873   2.822  11.236   6.946
 4779POPC   C4A62874   2.609  11.381   7.353
 4779POPC   C1B62875   2.259  11.183   6.143
 4779POPC   C2B62876   2.291  11.020   6.554
 4779POPC   C3B62877   2.296  11.216   6.963
 4779POPC   C4B62878   2.194  11.055   7.374
 4780POPC   NC362879  12.317   4.343   5.463
 4780POPC   PO462880  11.725   4.069   5.315
 4780POPC   GL162881  11.891   4.048   5.762
 4780POPC   GL262882  11.863   4.400   5.846
 4780POPC   C1A62883  11.830   4.100   6.244
 4780POPC   D2A62884  11.828   4.337   6.636
 4780POPC   C3A62885  11.980   4.163   7.001
 4780POPC   C4A62886  12.319   4.145   7.266
 4780POPC   C1B62887  12.158   4.510   6.206
 4780POPC   C2B62888  12.220   4.709   6.631
 4780POPC   C3B62889  12.256   4.606   7.080
 4780POPC   C4B62890  12.119   4.498   7.556
 4781POPC   NC362891   5.563   9.478   5.445
 4781POPC   PO462892   6.237   9.627   5.559
 4781POPC   GL162893   5.835   9.720   5.810
 4781POPC   GL262894   5.698  10.068   5.881
 4781POPC   C1A62895   5.590   9.669   6.219
 4781POPC   D2A62896   5.640   9.376   6.588
 4781POPC   C3A62897   5.877   9.489   6.937
 4781POPC   C4A62898   5.648   9.833   7.084
 4781POPC   C1B62899   6.029   9.965   6.223
 4781POPC   C2B62900   6.104  10.041   6.689
 4781POPC   C3B62901   6.054  10.146   7.134
 4781POPC   C4B62902   5.780  10.081   7.524
 4782POPC   NC362903  23.766  15.754   5.497
 4782POPC   PO462904  23.277  16.224   5.608
 4782POPC   GL162905  23.367  15.828   5.813
 4782POPC   GL262906  23.708  15.878   6.009
 4782POPC   C1A62907  23.310  15.632   6.192
 4782POPC   D2A62908  23.560  15.776   6.556
 4782POPC   C3A62909  23.399  16.099   6.828
 4782POPC   C4A62910  23.433  16.148   7.294
 4782POPC   C1B62911  24.095  16.014   6.268
 4782POPC   C2B62912  24.197  16.156   6.695
 4782POPC   C3B62913  23.884  16.114   7.002
 4782POPC   C4B62914  23.652  15.734   7.100
 4783POPC   NC362915  13.083  24.022   5.487
 4783POPC   PO462916  12.740  23.564   5.315
 4783POPC   GL162917  12.891  23.601   5.741
 4783POPC   GL262918  12.670  23.887   5.820
 4783POPC   C1A62919  13.011  23.744   6.157
 4783POPC   D2A62920  12.713  23.861   6.461
 4783POPC   C3A62921  12.789  23.621   6.788
 4783POPC   C4A62922  13.054  23.611   7.129
 4783POPC   C1B62923  12.536  23.514   6.116
 4783POPC   C2B62924  12.410  23.335   6.528
 4783POPC   C3B62925  12.409  23.362   6.979
 4783POPC   C4B62926  12.542  23.689   7.238
 4784POPC   NC362927  21.628   4.730   5.439
 4784POPC   PO462928  21.254   5.274   5.637
 4784POPC   GL162929  21.403   4.930   5.875
 4784POPC   GL262930  21.229   4.622   5.761
 4784POPC   C1A62931  21.577   5.088   6.254
 4784POPC   D2A62932  21.401   5.261   6.629
 4784POPC   C3A62933  21.609   5.182   7.025
 4784POPC   C4A62934  21.604   4.840   7.296
 4784POPC   C1B62935  21.066   4.590   6.146
 4784POPC   C2B62936  21.256   4.742   6.512
 4784POPC   C3B62937  21.316   4.675   6.922
 4784POPC   C4B62938  21.063   4.616   7.293
 4785POPC   NC362939   8.173  25.583   5.111
 4785POPC   PO462940   7.993  25.028   5.506
 4785POPC   GL162941   8.149  25.147   5.844
 4785POPC   GL262942   8.265  25.455   5.719
 4785POPC   C1A62943   8.062  25.145   6.263
 4785POPC   D2A62944   8.180  25.346   6.616
 4785POPC   C3A62945   8.040  25.110   6.937
 4785POPC   C4A62946   8.197  24.964   7.321
 4785POPC   C1B62947   8.047  25.627   6.111
 4785POPC   C2B62948   7.800  25.706   6.514
 4785POPC   C3B62949   7.870  25.593   6.951
 4785POPC   C4B62950   8.217  25.473   7.244
 4786POPC   NC362951  20.146   1.312   5.243
 4786POPC   PO462952  20.746   1.093   5.276
 4786POPC   GL162953  20.466   1.109   5.645
 4786POPC   GL262954  20.381   1.468   5.711
 4786POPC   C1A62955  20.379   0.986   6.080
 4786POPC   D2A62956  20.429   1.138   6.491
 4786POPC   C3A62957  20.687   0.997   6.834
 4786POPC   C4A62958  20.691   1.141   7.244
 4786POPC   C1B62959  20.161   1.514   6.129
 4786POPC   C2B62960  20.145   1.545   6.586
 4786POPC   C3B62961  20.494   1.475   6.889
 4786POPC   C4B62962  20.637   1.642   7.291
 4787POPC   NC362963  33.182  27.836   5.425
 4787POPC   PO462964  33.463  27.286   5.470
 4787POPC   GL162965  33.245  27.538   5.867
 4787POPC   GL262966  33.007  27.866   5.889
 4787POPC   C1A62967  33.043  27.567   6.318
 4787POPC   D2A62968  32.752  27.378   6.657
 4787POPC   C3A62969  32.910  27.336   7.067
 4787POPC   C4A62970  32.921  27.481   7.483
 4787POPC   C1B62971  32.956  28.145   6.249
 4787POPC   C2B62972  32.848  27.958   6.662
 4787POPC   C3B62973  32.892  27.864   7.117
 4787POPC   C4B62974  32.850  28.036   7.551
 4788POPC   NC362975  13.150  10.743   5.339
 4788POPC   PO462976  13.693  10.291   5.408
 4788POPC   GL162977  13.665  10.520   5.794
 4788POPC   GL262978  13.419  10.757   5.782
 4788POPC   C1A62979  13.532  10.418   6.229
 4788POPC   D2A62980  13.557  10.139   6.595
 4788POPC   C3A62981  13.457  10.361   6.969
 4788POPC   C4A62982  13.767  10.603   7.173
 4788POPC   C1B62983  13.550  10.942   6.179
 4788POPC   C2B62984  13.457  10.824   6.586
 4788POPC   C3B62985  13.316  11.105   6.869
 4788POPC   C4B62986  13.427  11.001   7.269
 4789POPC   NC362987  19.604   5.328   5.416
 4789POPC   PO462988  19.967   5.793   5.143
 4789POPC   GL162989  19.899   5.808   5.619
 4789POPC   GL262990  20.208   5.939   5.803
 4789POPC   C1A62991  19.827   5.885   6.110
 4789POPC   D2A62992  20.158   6.084   6.406
 4789POPC   C3A62993  20.073   6.095   6.866
 4789POPC   C4A62994  20.162   6.253   7.276
 4789POPC   C1B62995  20.280   5.633   6.193
 4789POPC   C2B62996  20.119   5.619   6.651
 4789POPC   C3B62997  20.265   5.601   7.098
 4789POPC   C4B62998  20.162   5.550   7.551
 4790POPC   NC362999  36.754   4.697   5.436
 4790POPC   PO463000  37.182   4.123   5.276
 4790POPC   GL163001  37.130   4.366   5.699
 4790POPC   GL263002  36.798   4.346   5.855
 4790POPC   C1A63003  37.211   4.501   6.145
 4790POPC   D2A63004  36.935   4.630   6.492
 4790POPC   C3A63005  36.991   4.331   6.828
 4790POPC   C4A63006  37.150   4.353   7.218
 4790POPC   C1B63007  36.879   4.119   6.299
 4790POPC   C2B63008  36.868   3.834   6.691
 4790POPC   C3B63009  36.821   3.936   7.136
 4790POPC   C4B63010  36.769   4.174   7.528
 4791POPC   NC363011  23.083  28.337   5.480
 4791POPC   PO463012  22.453  28.625   5.371
 4791POPC   GL163013  22.688  28.548   5.730
 4791POPC   GL263014  22.613  28.198   5.730
 4791POPC   C1A63015  22.903  28.355   6.135
 4791POPC   D2A63016  23.023  28.185   6.561
 4791POPC   C3A63017  22.945  28.425   6.963
 4791POPC   C4A63018  22.729  28.388   7.356
 4791POPC   C1B63019  22.495  27.986   6.123
 4791POPC   C2B63020  22.672  27.804   6.503
 4791POPC   C3B63021  22.656  28.007   6.906
 4791POPC   C4B63022  22.390  28.035   7.243
 4792POPC   NC363023   8.833  11.907   5.506
 4792POPC   PO463024   8.725  12.522   5.258
 4792POPC   GL163025   8.873  12.394   5.694
 4792POPC   GL263026   8.558  12.376   5.836
 4792POPC   C1A63027   9.162  12.275   6.055
 4792POPC   D2A63028   9.135  11.984   6.406
 4792POPC   C3A63029   8.946  12.205   6.765
 4792POPC   C4A63030   9.093  12.378   7.164
 4792POPC   C1B63031   8.693  12.056   6.133
 4792POPC   C2B63032   8.665  11.827   6.508
 4792POPC   C3B63033   8.651  11.797   6.932
 4792POPC   C4B63034   8.975  11.882   7.165
 4793POPC   NC363035  23.978  11.765   5.184
 4793POPC   PO463036  23.455  12.076   5.559
 4793POPC   GL163037  23.679  11.955   5.921
 4793POPC   GL263038  23.848  11.655   5.855
 4793POPC   C1A63039  23.656  12.115   6.334
 4793POPC   D2A63040  23.841  11.970   6.720
 4793POPC   C3A63041  23.915  12.299   6.963
 4793POPC   C4A63042  23.763  12.382   7.352
 4793POPC   C1B63043  23.927  11.653   6.317
 4793POPC   C2B63044  24.140  11.501   6.713
 4793POPC   C3B63045  23.959  11.529   7.127
 4793POPC   C4B63046  23.819  11.894   7.250
 4794POPC   NC363047  22.557   5.420   5.128
 4794POPC   PO463048  22.189   4.926   5.575
 4794POPC   GL163049  22.041   5.143   5.898
 4794POPC   GL263050  22.351   5.057   6.084
 4794POPC   C1A63051  22.005   5.445   6.205
 4794POPC   D2A63052  21.879   5.423   6.612
 4794POPC   C3A63053  22.146   5.279   6.918
 4794POPC   C4A63054  22.030   5.196   7.344
 4794POPC   C1B63055  22.005   4.795   6.269
 4794POPC   C2B63056  21.822   4.897   6.659
 4794POPC   C3B63057  22.031   4.791   7.008
 4794POPC   C4B63058  22.091   4.693   7.396
 4795POPC   NC363059  35.734  27.258   5.163
 4795POPC   PO463060  36.302  27.549   5.383
 4795POPC   GL163061  36.015  27.628   5.729
 4795POPC   GL263062  36.308  27.650   5.932
 4795POPC   C1A63063  35.829  27.736   6.147
 4795POPC   D2A63064  35.698  27.528   6.521
 4795POPC   C3A63065  35.841  27.563   6.950
 4795POPC   C4A63066  36.140  27.633   7.268
 4795POPC   C1B63067  36.231  27.511   6.389
 4795POPC   C2B63068  36.365  27.471   6.810
 4795POPC   C3B63069  36.610  27.450   7.173
 4795POPC   C4B63070  36.464  27.248   7.530
 4796POPC   NC363071  18.131  19.596   5.470
 4796POPC   PO463072  17.567  19.641   5.552
 4796POPC   GL163073  17.311  19.724   5.963
 4796POPC   GL263074  17.224  20.060   5.899
 4796POPC   C1A63075  17.314  19.773   6.465
 4796POPC   D2A63076  17.355  19.804   6.953
 4796POPC   C3A63077  17.807  19.904   7.109
 4796POPC   C4A63078  18.114  19.833   7.467
 4796POPC   C1B63079  17.117  20.224   6.322
 4796POPC   C2B63080  17.323  20.277   6.749
 4796POPC   C3B63081  17.296  20.289   7.213
 4796POPC   C4B63082  17.283  20.296   7.692
 4797POPC   NC363083   6.929  39.356   5.588
 4797POPC   PO463084   6.363  38.972   5.462
 4797POPC   GL163085   6.473  39.219   5.821
 4797POPC   GL263086   6.277  39.513   5.946
 4797POPC   C1A63087   6.531  39.059   6.231
 4797POPC   D2A63088   6.616  38.695   6.488
 4797POPC   C3A63089   6.599  38.783   6.901
 4797POPC   C4A63090   6.636  39.069   7.221
 4797POPC   C1B63091   6.686  39.544   6.186
 4797POPC   C2B63092   6.811  39.357   6.569
 4797POPC   C3B63093   6.741  39.515   6.977
 4797POPC   C4B63094   6.364  39.494   7.186
 4798POPC   NC363095   9.436  21.005   5.209
 4798POPC   PO463096   8.842  21.485   5.349
 4798POPC   GL163097   9.013  21.376   5.763
 4798POPC   GL263098   9.296  21.134   5.773
 4798POPC   C1A63099   9.055  21.476   6.213
 4798POPC   D2A63100   8.935  21.322   6.610
 4798POPC   C3A63101   8.809  21.485   6.990
 4798POPC   C4A63102   9.033  21.611   7.326
 4798POPC   C1B63103   9.490  21.191   6.180
 4798POPC   C2B63104   9.401  21.110   6.604
 4798POPC   C3B63105   9.316  21.303   6.990
 4798POPC   C4B63106   9.262  21.170   7.395
 4799POPC   NC363107  10.640  44.897   5.152
 4799POPC   PO463108  11.281  44.621   5.453
 4799POPC   GL163109  11.297  44.643   5.910
 4799POPC   GL263110  10.987  44.775   6.009
 4799POPC   C1A63111  11.374  44.905   6.295
 4799POPC   D2A63112  11.149   0.019   6.690
 4799POPC   C3A63113  11.467  44.967   6.960
 4799POPC   C4A63114  11.599  44.611   7.187
 4799POPC   C1B63115  11.079  44.536   6.393
 4799POPC   C2B63116  11.408  44.544   6.686
 4799POPC   C3B63117  11.105  44.604   7.014
 4799POPC   C4B63118  10.751  44.860   7.020
 4800POPC   NC363119  33.510  44.916   5.420
 4800POPC   PO463120  34.022  44.473   5.336
 4800POPC   GL163121  33.995  44.628   5.750
 4800POPC   GL263122  33.916  44.989   5.749
 4800POPC   C1A63123  33.944  44.475   6.193
 4800POPC   D2A63124  33.894  44.706   6.606
 4800POPC   C3A63125  33.855  44.511   7.009
 4800POPC   C4A63126  33.902  44.391   7.455
 4800POPC   C1B63127  33.781  44.986   6.182
 4800POPC   C2B63128  33.648   0.170   6.567
 4800POPC   C3B63129  33.583  44.997   6.975
 4800POPC   C4B63130  33.585  44.770   7.378
 4801POPC   NC363131  31.378  33.175   5.254
 4801POPC   PO463132  31.795  32.701   5.184
 4801POPC   GL163133  31.747  32.995   5.585
 4801POPC   GL263134  31.375  32.978   5.715
 4801POPC   C1A63135  31.705  33.205   6.009
 4801POPC   D2A63136  31.482  33.179   6.415
 4801POPC   C3A63137  31.740  33.190   6.781
 4801POPC   C4A63138  31.666  32.901   7.091
 4801POPC   C1B63139  31.190  32.836   6.109
 4801POPC   C2B63140  31.140  32.775   6.558
 4801POPC   C3B63141  31.168  32.807   6.986
 4801POPC   C4B63142  31.361  32.470   7.212
 4802POPC   NC363143  18.666   2.527   5.385
 4802POPC   PO463144  17.982   2.699   5.346
 4802POPC   GL163145  18.273   2.713   5.659
 4802POPC   GL263146  18.368   2.392   5.799
 4802POPC   C1A63147  18.389   2.856   6.045
 4802POPC   D2A63148  18.336   2.677   6.422
 4802POPC   C3A63149  18.417   2.792   6.833
 4802POPC   C4A63150  18.415   2.669   7.233
 4802POPC   C1B63151  18.038   2.418   6.084
 4802POPC   C2B63152  18.006   2.321   6.528
 4802POPC   C3B63153  17.985   2.497   6.946
 4802POPC   C4B63154  17.733   2.245   7.171
 4803POPC   NC363155  31.932  19.424   5.551
 4803POPC   PO463156  32.069  18.671   5.474
 4803POPC   GL163157  32.238  18.905   5.864
 4803POPC   GL263158  32.163  19.254   5.964
 4803POPC   C1A63159  32.390  19.017   6.315
 4803POPC   D2A63160  32.615  19.148   6.692
 4803POPC   C3A63161  32.410  19.010   7.052
 4803POPC   C4A63162  31.982  19.013   7.115
 4803POPC   C1B63163  31.828  19.245   6.226
 4803POPC   C2B63164  31.668  19.316   6.637
 4803POPC   C3B63165  31.817  19.476   7.022
 4803POPC   C4B63166  32.095  19.465   7.374
 4804POPC   NC363167   1.666  26.574   5.133
 4804POPC   PO463168   1.065  26.762   5.465
 4804POPC   GL163169   1.418  26.899   5.697
 4804POPC   GL263170   1.608  26.593   5.652
 4804POPC   C1A63171   1.336  27.031   6.110
 4804POPC   D2A63172   1.094  27.137   6.473
 4804POPC   C3A63173   1.273  27.245   6.866
 4804POPC   C4A63174   1.175  26.949   7.188
 4804POPC   C1B63175   1.650  26.549   6.102
 4804POPC   C2B63176   1.471  26.683   6.511
 4804POPC   C3B63177   1.606  26.629   6.946
 4804POPC   C4B63178   1.491  26.587   7.366
 4805POPC   NC363179  20.104  34.596   5.094
 4805POPC   PO463180  20.615  34.349   5.500
 4805POPC   GL163181  20.828  34.388   5.873
 4805POPC   GL263182  20.614  34.606   5.955
 4805POPC   C1A63183  20.842  34.349   6.343
 4805POPC   D2A63184  20.730  34.715   6.588
 4805POPC   C3A63185  20.906  34.808   6.977
 4805POPC   C4A63186  20.759  34.899   7.374
 4805POPC   C1B63187  20.320  34.559   6.263
 4805POPC   C2B63188  20.354  34.383   6.632
 4805POPC   C3B63189  20.465  34.548   7.011
 4805POPC   C4B63190  20.602  34.388   7.391
 4806POPC   NC363191  38.404  17.605   5.453
 4806POPC   PO463192  38.483  18.168   5.655
 4806POPC   GL163193  38.204  17.864   5.890
 4806POPC   GL263194  38.267  17.492   5.950
 4806POPC   C1A63195  38.201  17.783   6.364
 4806POPC   D2A63196  38.465  17.609   6.712
 4806POPC   C3A63197  38.372  17.587   7.157
 4806POPC   C4A63198  38.345  17.878   7.475
 4806POPC   C1B63199  38.240  17.261   6.387
 4806POPC   C2B63200  38.337  17.133   6.841
 4806POPC   C3B63201  38.720  17.204   7.105
 4806POPC   C4B63202  38.824  17.559   7.386
 4807POPC   NC363203  14.879  32.444   5.347
 4807POPC   PO463204  15.231  31.830   5.333
 4807POPC   GL163205  15.163  32.046   5.758
 4807POPC   GL263206  15.171  32.416   5.761
 4807POPC   C1A63207  15.205  32.227   6.217
 4807POPC   D2A63208  15.333  32.557   6.497
 4807POPC   C3A63209  15.328  32.351   6.886
 4807POPC   C4A63210  15.289  32.334   7.323
 4807POPC   C1B63211  14.823  32.551   6.064
 4807POPC   C2B63212  14.844  32.708   6.497
 4807POPC   C3B63213  14.848  32.542   6.911
 4807POPC   C4B63214  14.691  32.525   7.333
 4808POPC   NC363215   8.593  10.263   5.471
 4808POPC   PO463216   9.186  10.655   5.382
 4808POPC   GL163217   8.921  10.664   5.771
 4808POPC   GL263218   8.690  10.968   5.801
 4808POPC   C1A63219   9.050  10.543   6.193
 4808POPC   D2A63220   9.188  10.239   6.476
 4808POPC   C3A63221   9.230  10.317   6.911
 4808POPC   C4A63222   8.959  10.531   7.138
 4808POPC   C1B63223   8.588  10.752   6.178
 4808POPC   C2B63224   8.733  10.701   6.605
 4808POPC   C3B63225   8.509  10.756   6.995
 4808POPC   C4B63226   8.716  10.916   7.343
 4809POPC   NC363227  20.098  37.046   5.385
 4809POPC   PO463228  19.760  36.488   5.558
 4809POPC   GL163229  19.780  36.906   5.759
 4809POPC   GL263230  19.513  36.975   5.993
 4809POPC   C1A63231  20.023  37.101   6.084
 4809POPC   D2A63232  20.320  37.223   6.417
 4809POPC   C3A63233  20.104  37.354   6.797
 4809POPC   C4A63234  20.016  37.191   7.221
 4809POPC   C1B63235  19.685  36.867   6.417
 4809POPC   C2B63236  19.689  36.853   6.901
 4809POPC   C3B63237  19.774  36.559   7.265
 4809POPC   C4B63238  19.670  36.528   7.724
 4810POPC   NC363239  24.878  37.144   5.358
 4810POPC   PO463240  25.444  36.685   5.297
 4810POPC   GL163241  25.526  36.908   5.746
 4810POPC   GL263242  25.187  37.072   5.777
 4810POPC   C1A63243  25.343  36.854   6.220
 4810POPC   D2A63244  25.138  36.657   6.590
 4810POPC   C3A63245  25.358  36.812   6.970
 4810POPC   C4A63246  25.538  36.668   7.366
 4810POPC   C1B63247  25.132  37.321   6.186
 4810POPC   C2B63248  25.162  37.177   6.620
 4810POPC   C3B63249  25.186  37.277   7.064
 4810POPC   C4B63250  25.132  37.089   7.501
 4811POPC   NC363251   2.289   0.176   5.505
 4811POPC   PO463252   2.929   0.475   5.311
 4811POPC   GL163253   2.759   0.469   5.706
 4811POPC   GL263254   2.676   0.151   5.832
 4811POPC   C1A63255   2.783   0.508   6.170
 4811POPC   D2A63256   2.692   0.531   6.600
 4811POPC   C3A63257   2.942   0.679   6.920
 4811POPC   C4A63258   3.057   0.369   7.187
 4811POPC   C1B63259   2.426   0.086   6.210
 4811POPC   C2B63260   2.324   0.195   6.630
 4811POPC   C3B63261   2.574   0.212   7.022
 4811POPC   C4B63262   2.727   0.049   7.416
 4812POPC   NC363263  34.431   3.670   5.302
 4812POPC   PO463264  35.127   3.773   5.244
 4812POPC   GL163265  34.837   3.785   5.633
 4812POPC   GL263266  34.630   3.520   5.792
 4812POPC   C1A63267  34.871   3.834   6.102
 4812POPC   D2A63268  34.940   3.902   6.555
 4812POPC   C3A63269  34.603   3.799   6.843
 4812POPC   C4A63270  34.679   3.693   7.260
 4812POPC   C1B63271  34.480   3.434   6.244
 4812POPC   C2B63272  34.562   3.249   6.682
 4812POPC   C3B63273  34.452   3.222   7.156
 4812POPC   C4B63274  34.117   3.175   7.507
 4813POPC   NC363275   2.880  43.369   5.520
 4813POPC   PO463276   2.514  42.898   5.245
 4813POPC   GL163277   2.646  42.897   5.672
 4813POPC   GL263278   2.994  42.947   5.764
 4813POPC   C1A63279   2.511  43.039   6.079
 4813POPC   D2A63280   2.591  43.331   6.412
 4813POPC   C3A63281   2.455  43.256   6.815
 4813POPC   C4A63282   2.655  43.234   7.216
 4813POPC   C1B63283   3.020  43.121   6.189
 4813POPC   C2B63284   3.141  42.966   6.597
 4813POPC   C3B63285   3.143  42.894   7.020
 4813POPC   C4B63286   3.133  43.145   7.363
 4814POPC   NC363287  32.843  44.172   5.449
 4814POPC   PO463288  33.294  43.791   5.254
 4814POPC   GL163289  33.311  43.852   5.701
 4814POPC   GL263290  33.259  44.176   5.763
 4814POPC   C1A63291  33.107  43.779   6.131
 4814POPC   D2A63292  32.881  43.528   6.494
 4814POPC   C3A63293  32.904  43.689   6.919
 4814POPC   C4A63294  32.902  43.545   7.352
 4814POPC   C1B63295  33.035  44.306   6.112
 4814POPC   C2B63296  33.062  44.347   6.551
 4814POPC   C3B63297  32.884  44.368   6.966
 4814POPC   C4B63298  32.938  44.070   7.267
 4815POPC   NC363299   4.522  43.379   5.477
 4815POPC   PO463300   4.369  42.821   5.460
 4815POPC   GL163301   4.262  43.046   5.811
 4815POPC   GL263302   4.016  42.837   5.959
 4815POPC   C1A63303   4.523  43.127   6.166
 4815POPC   D2A63304   4.527  43.278   6.593
 4815POPC   C3A63305   4.478  43.129   7.014
 4815POPC   C4A63306   4.359  43.215   7.465
 4815POPC   C1B63307   4.236  42.670   6.315
 4815POPC   C2B63308   4.295  42.649   6.784
 4815POPC   C3B63309   4.088  42.823   7.148
 4815POPC   C4B63310   3.994  42.883   7.572
 4816POPC   NC363311   2.563   5.724   5.543
 4816POPC   PO463312   2.360   6.265   5.147
 4816POPC   GL163313   2.519   6.254   5.632
 4816POPC   GL263314   2.279   6.082   5.837
 4816POPC   C1A63315   2.741   6.106   6.075
 4816POPC   D2A63316   2.859   6.183   6.554
 4816POPC   C3A63317   2.820   5.914   6.984
 4816POPC   C4A63318   2.627   5.968   7.412
 4816POPC   C1B63319   2.278   6.175   6.292
 4816POPC   C2B63320   2.416   5.954   6.668
 4816POPC   C3B63321   2.375   5.632   6.984
 4816POPC   C4B63322   2.304   5.574   7.404
 4817POPC   NC363323  25.882  16.833   5.408
 4817POPC   PO463324  26.345  16.297   5.398
 4817POPC   GL163325  26.036  16.442   5.724
 4817POPC   GL263326  26.146  16.776   5.839
 4817POPC   C1A63327  25.690  16.443   6.048
 4817POPC   D2A63328  25.541  16.613   6.438
 4817POPC   C3A63329  25.642  16.475   6.854
 4817POPC   C4A63330  25.818  16.755   7.162
 4817POPC   C1B63331  25.891  16.919   6.179
 4817POPC   C2B63332  25.932  16.890   6.631
 4817POPC   C3B63333  26.266  16.902   6.942
 4817POPC   C4B63334  26.333  16.713   7.367
 4818POPC   NC363335  37.554  12.820   5.366
 4818POPC   PO463336  38.111  12.619   5.633
 4818POPC   GL163337  37.693  12.770   5.872
 4818POPC   GL263338  37.549  13.119   5.783
 4818POPC   C1A63339  37.563  12.652   6.316
 4818POPC   D2A63340  37.753  12.559   6.769
 4818POPC   C3A63341  37.548  12.738   7.129
 4818POPC   C4A63342  37.491  12.650   7.583
 4818POPC   C1B63343  37.586  13.201   6.219
 4818POPC   C2B63344  37.665  13.049   6.644
 4818POPC   C3B63345  37.787  13.181   7.041
 4818POPC   C4B63346  37.653  13.124   7.463
 4819POPC   NC363347  38.758  31.685   5.608
 4819POPC   PO463348  38.151  31.772   5.327
 4819POPC   GL163349  38.153  31.582   5.727
 4819POPC   GL263350  38.411  31.344   5.813
 4819POPC   C1A63351  38.232  31.656   6.176
 4819POPC   D2A63352  38.110  31.479   6.584
 4819POPC   C3A63353  38.376  31.693   6.842
 4819POPC   C4A63354  38.520  31.744   7.246
 4819POPC   C1B63355  38.470  31.197   6.270
 4819POPC   C2B63356  38.488  31.123   6.737
 4819POPC   C3B63357  38.405  31.252   7.178
 4819POPC   C4B63358  38.580  31.107   7.607
 4820POPC   NC363359  43.227  40.704   5.374
 4820POPC   PO463360  42.711  41.189   5.531
 4820POPC   GL163361  42.996  40.993   5.719
 4820POPC   GL263362  43.250  41.199   5.594
 4820POPC   C1A63363  43.058  40.702   6.057
 4820POPC   D2A63364  43.105  40.700   6.506
 4820POPC   C3A63365  43.329  40.507   6.848
 4820POPC   C4A63366  43.292  40.641   7.298
 4820POPC   C1B63367  43.312  41.152   6.064
 4820POPC   C2B63368  43.294  41.197   6.513
 4820POPC   C3B63369  43.252  41.028   6.920
 4820POPC   C4B63370  43.149  41.103   7.355
 4821POPC   NC363371  15.892  15.425   5.610
 4821POPC   PO463372  15.555  14.963   5.142
 4821POPC   GL163373  15.511  15.067   5.642
 4821POPC   GL263374  15.827  14.920   5.831
 4821POPC   C1A63375  15.534  15.202   6.132
 4821POPC   D2A63376  15.725  15.334   6.571
 4821POPC   C3A63377  15.678  15.153   6.983
 4821POPC   C4A63378  15.700  15.353   7.410
 4821POPC   C1B63379  16.067  15.153   6.210
 4821POPC   C2B63380  16.228  15.201   6.658
 4821POPC   C3B63381  16.148  15.272   7.120
 4821POPC   C4B63382  16.025  14.975   7.476
 4822POPC   NC363383  11.296  37.705   5.372
 4822POPC   PO463384  11.634  38.179   5.707
 4822POPC   GL163385  11.417  37.801   5.886
 4822POPC   GL263386  11.074  37.704   5.835
 4822POPC   C1A63387  11.463  37.485   6.210
 4822POPC   D2A63388  11.514  37.557   6.661
 4822POPC   C3A63389  11.160  37.526   6.970
 4822POPC   C4A63390  11.384  37.374   7.291
 4822POPC   C1B63391  10.989  37.733   6.265
 4822POPC   C2B63392  11.133  37.904   6.643
 4822POPC   C3B63393  11.042  38.091   7.035
 4822POPC   C4B63394  10.944  37.854   7.366
 4823POPC   NC363395   3.461  24.793   5.399
 4823POPC   PO463396   3.690  24.131   5.403
 4823POPC   GL163397   3.692  24.399   5.783
 4823POPC   GL263398   3.344  24.510   5.800
 4823POPC   C1A63399   3.687  24.649   6.198
 4823POPC   D2A63400   3.814  24.934   6.566
 4823POPC   C3A63401   3.808  24.700   6.982
 4823POPC   C4A63402   3.670  24.287   7.233
 4823POPC   C1B63403   3.093  24.647   6.156
 4823POPC   C2B63404   3.125  24.466   6.549
 4823POPC   C3B63405   3.339  24.489   6.904
 4823POPC   C4B63406   3.210  24.495   7.290
 4824POPC   NC363407  25.365  43.820   5.084
 4824POPC   PO463408  24.915  44.055   5.340
 4824POPC   GL163409  24.911  43.676   5.638
 4824POPC   GL263410  25.258  43.655   5.836
 4824POPC   C1A63411  24.833  43.587   6.094
 4824POPC   D2A63412  24.717  43.763   6.516
 4824POPC   C3A63413  24.976  43.682   6.880
 4824POPC   C4A63414  25.163  43.898   7.216
 4824POPC   C1B63415  25.265  43.791   6.323
 4824POPC   C2B63416  25.425  43.913   6.764
 4824POPC   C3B63417  25.651  43.789   7.169
 4824POPC   C4B63418  25.686  43.869   7.641
 4825POPC   NC363419   0.344   7.381   5.269
 4825POPC   PO463420   0.047   7.661   5.708
 4825POPC   GL163421   0.229   7.281   5.842
 4825POPC   GL263422   0.573   7.231   5.742
 4825POPC   C1A63423   0.295   7.400   6.258
 4825POPC   D2A63424   0.280   7.679   6.575
 4825POPC   C3A63425   0.351   7.456   6.925
 4825POPC   C4A63426   0.181   7.444   7.294
 4825POPC   C1B63427   0.625   7.038   6.152
 4825POPC   C2B63428   0.637   7.198   6.580
 4825POPC   C3B63429   0.831   7.217   6.974
 4825POPC   C4B63430   0.577   7.126   7.331
 4826POPC   NC363431   5.389  17.941   5.376
 4826POPC   PO463432   5.041  17.255   5.571
 4826POPC   GL163433   5.008  17.534   5.898
 4826POPC   GL263434   5.165  17.855   5.828
 4826POPC   C1A63435   4.993  17.514   6.323
 4826POPC   D2A63436   5.179  17.627   6.718
 4826POPC   C3A63437   4.843  17.597   6.980
 4826POPC   C4A63438   4.732  17.225   7.216
 4826POPC   C1B63439   5.487  17.907   6.167
 4826POPC   C2B63440   5.649  17.822   6.621
 4826POPC   C3B63441   5.516  17.773   7.085
 4826POPC   C4B63442   5.263  17.394   7.215
 4827POPC   NC363443  15.271  20.219   5.284
 4827POPC   PO463444  14.927  20.648   5.515
 4827POPC   GL163445  15.119  20.706   5.884
 4827POPC   GL263446  15.436  20.825   5.829
 4827POPC   C1A63447  15.003  20.664   6.292
 4827POPC   D2A63448  15.195  20.837   6.640
 4827POPC   C3A63449  14.990  20.761   6.972
 4827POPC   C4A63450  15.042  20.680   7.369
 4827POPC   C1B63451  15.534  20.704   6.266
 4827POPC   C2B63452  15.575  20.514   6.689
 4827POPC   C3B63453  15.470  20.556   7.130
 4827POPC   C4B63454  15.571  20.418   7.552
 4828POPC   NC363455  37.473  39.583   5.605
 4828POPC   PO463456  37.788  39.151   5.172
 4828POPC   GL163457  37.900  39.344   5.652
 4828POPC   GL263458  37.657  39.168   5.880
 4828POPC   C1A63459  38.017  39.365   6.147
 4828POPC   D2A63460  37.829  39.085   6.509
 4828POPC   C3A63461  37.943  38.994   6.984
 4828POPC   C4A63462  37.783  38.887   7.418
 4828POPC   C1B63463  37.424  39.311   6.205
 4828POPC   C2B63464  37.345  39.536   6.558
 4828POPC   C3B63465  37.608  39.391   6.877
 4828POPC   C4B63466  37.431  39.046   7.101
 4829POPC   NC363467   8.990   2.917   5.410
 4829POPC   PO463468   8.943   2.331   5.356
 4829POPC   GL163469   8.783   2.544   5.745
 4829POPC   GL263470   9.105   2.633   5.853
 4829POPC   C1A63471   8.769   2.702   6.224
 4829POPC   D2A63472   9.006   2.544   6.615
 4829POPC   C3A63473   9.017   2.739   7.043
 4829POPC   C4A63474   8.837   2.973   7.437
 4829POPC   C1B63475   9.282   2.777   6.257
 4829POPC   C2B63476   9.197   3.034   6.643
 4829POPC   C3B63477   9.326   3.151   7.093
 4829POPC   C4B63478   9.708   3.244   7.356
 4830POPC   NC363479  39.417   4.164   5.205
 4830POPC   PO463480  38.929   4.486   5.602
 4830POPC   GL163481  39.160   4.244   5.881
 4830POPC   GL263482  39.476   4.258   5.715
 4830POPC   C1A63483  39.128   4.276   6.333
 4830POPC   D2A63484  39.386   4.510   6.622
 4830POPC   C3A63485  39.328   4.528   7.064
 4830POPC   C4A63486  39.043   4.412   7.433
 4830POPC   C1B63487  39.598   4.250   6.163
 4830POPC   C2B63488  39.547   3.988   6.558
 4830POPC   C3B63489  39.576   4.013   7.013
 4830POPC   C4B63490  39.522   4.236   7.407
 4831POPC   NC363491   0.485  32.203   5.455
 4831POPC   PO463492   0.185  31.778   5.252
 4831POPC   GL163493   0.203  31.936   5.782
 4831POPC   GL263494   0.528  32.051   5.951
 4831POPC   C1A63495   0.138  32.209   6.214
 4831POPC   D2A63496  44.960  32.426   6.624
 4831POPC   C3A63497   0.153  32.353   7.071
 4831POPC   C4A63498   0.113  32.524   7.541
 4831POPC   C1B63499   0.571  31.992   6.390
 4831POPC   C2B63500   0.481  32.370   6.603
 4831POPC   C3B63501   0.621  32.552   6.963
 4831POPC   C4B63502   0.679  32.183   7.160
 4832POPC   NC363503   8.122  37.041   5.178
 4832POPC   PO463504   8.479  37.600   5.444
 4832POPC   GL163505   8.260  37.583   5.851
 4832POPC   GL263506   8.293  37.261   6.029
 4832POPC   C1A63507   8.303  37.789   6.261
 4832POPC   D2A63508   8.539  37.689   6.638
 4832POPC   C3A63509   8.320  37.878   6.958
 4832POPC   C4A63510   8.017  38.181   7.080
 4832POPC   C1B63511   7.921  37.447   6.273
 4832POPC   C2B63512   7.957  37.585   6.712
 4832POPC   C3B63513   8.180  37.327   7.029
 4832POPC   C4B63514   8.587  37.093   7.047
 4833POPC   NC363515  22.847  16.395   5.576
 4833POPC   PO463516  22.621  15.822   5.322
 4833POPC   GL163517  22.826  15.764   5.803
 4833POPC   GL263518  22.934  16.075   5.962
 4833POPC   C1A63519  22.809  15.710   6.283
 4833POPC   D2A63520  23.086  15.624   6.647
 4833POPC   C3A63521  23.053  15.788   7.058
 4833POPC   C4A63522  23.092  15.739   7.472
 4833POPC   C1B63523  23.120  16.089   6.383
 4833POPC   C2B63524  22.776  16.021   6.690
 4833POPC   C3B63525  22.567  16.111   7.068
 4833POPC   C4B63526  22.743  16.086   7.452
 4834POPC   NC363527  37.456  23.851   5.476
 4834POPC   PO463528  37.640  23.284   5.430
 4834POPC   GL163529  37.814  23.397   5.815
 4834POPC   GL263530  37.876  23.754   5.877
 4834POPC   C1A63531  37.752  23.408   6.267
 4834POPC   D2A63532  37.513  23.472   6.642
 4834POPC   C3A63533  37.724  23.504   7.080
 4834POPC   C4A63534  37.645  23.528   7.581
 4834POPC   C1B63535  37.753  23.944   6.289
 4834POPC   C2B63536  37.674  23.949   6.735
 4834POPC   C3B63537  37.847  23.986   7.163
 4834POPC   C4B63538  37.799  24.065   7.602
 4835POPC   NC363539  18.073  38.856   5.488
 4835POPC   PO463540  17.920  38.171   5.369
 4835POPC   GL163541  18.124  38.365   5.722
 4835POPC   GL263542  17.916  38.626   5.894
 4835POPC   C1A63543  18.277  38.381   6.152
 4835POPC   D2A63544  18.467  38.489   6.540
 4835POPC   C3A63545  18.316  38.260   6.868
 4835POPC   C4A63546  18.381  38.423   7.225
 4835POPC   C1B63547  17.985  38.838   6.272
 4835POPC   C2B63548  18.154  38.919   6.654
 4835POPC   C3B63549  18.047  38.764   7.027
 4835POPC   C4B63550  17.994  38.659   7.469
 4836POPC   NC363551  24.541  27.823   5.385
 4836POPC   PO463552  24.742  28.386   5.640
 4836POPC   GL163553  24.504  28.048   5.897
 4836POPC   GL263554  24.145  28.011   5.814
 4836POPC   C1A63555  24.358  28.011   6.354
 4836POPC   D2A63556  24.217  28.049   6.797
 4836POPC   C3A63557  24.574  28.180   7.014
 4836POPC   C4A63558  24.887  28.168   7.341
 4836POPC   C1B63559  24.147  28.388   6.095
 4836POPC   C2B63560  24.279  28.496   6.533
 4836POPC   C3B63561  24.169  28.531   6.979
 4836POPC   C4B63562  23.968  28.604   7.390
 4837POPC   NC363563  42.626   0.608   5.446
 4837POPC   PO463564  41.959   0.379   5.337
 4837POPC   GL163565  42.127   0.319   5.784
 4837POPC   GL263566  42.417   0.535   5.908
 4837POPC   C1A63567  42.209   0.133   6.215
 4837POPC   D2A63568  42.041  44.904   6.581
 4837POPC   C3A63569  42.050   0.108   7.007
 4837POPC   C4A63570  42.005   0.400   7.364
 4837POPC   C1B63571  42.696   0.349   6.207
 4837POPC   C2B63572  42.762   0.267   6.634
 4837POPC   C3B63573  42.725   0.490   7.003
 4837POPC   C4B63574  42.498   0.454   7.355
 4838POPC   NC363575  34.596  28.489   5.625
 4838POPC   PO463576  34.271  27.874   5.475
 4838POPC   GL163577  34.397  28.078   5.874
 4838POPC   GL263578  34.741  28.107   5.947
 4838POPC   C1A63579  34.398  28.202   6.315
 4838POPC   D2A63580  34.467  28.533   6.638
 4838POPC   C3A63581  34.616  28.371   7.005
 4838POPC   C4A63582  34.500  28.118   7.316
 4838POPC   C1B63583  34.857  28.411   6.275
 4838POPC   C2B63584  35.031  28.315   6.698
 4838POPC   C3B63585  35.105  28.545   7.025
 4838POPC   C4B63586  34.823  28.872   7.069
 4839POPC   NC363587  30.881  24.668   5.315
 4839POPC   PO463588  30.448  24.270   5.589
 4839POPC   GL163589  30.762  24.401   5.860
 4839POPC   GL263590  30.918  24.749   5.807
 4839POPC   C1A63591  30.610  24.354   6.275
 4839POPC   D2A63592  30.404  24.429   6.645
 4839POPC   C3A63593  30.502  24.171   7.010
 4839POPC   C4A63594  30.733  24.312   7.375
 4839POPC   C1B63595  30.604  24.827   6.092
 4839POPC   C2B63596  30.752  24.800   6.498
 4839POPC   C3B63597  30.771  24.680   6.908
 4839POPC   C4B63598  30.805  24.831   7.287
 4840POPC   NC363599  37.397   3.699   5.166
 4840POPC   PO463600  36.763   3.595   5.412
 4840POPC   GL163601  36.894   3.359   5.826
 4840POPC   GL263602  37.238   3.380   5.912
 4840POPC   C1A63603  36.754   3.202   6.249
 4840POPC   D2A63604  36.565   3.350   6.658
 4840POPC   C3A63605  36.798   3.415   7.079
 4840POPC   C4A63606  36.660   3.416   7.536
 4840POPC   C1B63607  37.112   3.583   6.282
 4840POPC   C2B63608  37.073   3.340   6.631
 4840POPC   C3B63609  37.272   3.278   6.978
 4840POPC   C4B63610  37.446   3.507   7.300
 4841POPC   NC363611  12.983   9.116   5.572
 4841POPC   PO463612  12.579   8.625   5.243
 4841POPC   GL163613  12.530   8.878   5.681
 4841POPC   GL263614  12.823   8.755   5.901
 4841POPC   C1A63615  12.556   9.114   6.127
 4841POPC   D2A63616  12.609   8.954   6.560
 4841POPC   C3A63617  12.854   9.198   6.857
 4841POPC   C4A63618  12.760   9.376   7.233
 4841POPC   C1B63619  13.045   8.863   6.301
 4841POPC   C2B63620  13.102   8.741   6.742
 4841POPC   C3B63621  13.054   8.853   7.200
 4841POPC   C4B63622  13.060   8.693   7.641
 4842POPC   NC363623  17.872  36.704   5.563
 4842POPC   PO463624  17.550  37.329   5.493
 4842POPC   GL163625  17.365  37.130   5.864
 4842POPC   GL263626  17.690  37.008   5.927
 4842POPC   C1A63627  17.374  36.941   6.296
 4842POPC   D2A63628  17.653  36.969   6.640
 4842POPC   C3A63629  17.380  36.874   6.942
 4842POPC   C4A63630  16.999  36.902   7.162
 4842POPC   C1B63631  17.850  36.697   6.244
 4842POPC   C2B63632  17.985  36.587   6.674
 4842POPC   C3B63633  17.857  36.746   7.094
 4842POPC   C4B63634  17.922  36.992   7.490
 4843POPC   NC363635   1.105   2.446   5.440
 4843POPC   PO463636   1.422   3.066   5.381
 4843POPC   GL163637   1.325   2.816   5.750
 4843POPC   GL263638   1.515   2.521   5.759
 4843POPC   C1A63639   1.014   2.748   6.093
 4843POPC   D2A63640   0.803   2.641   6.473
 4843POPC   C3A63641   0.978   2.706   6.854
 4843POPC   C4A63642   1.094   2.821   7.242
 4843POPC   C1B63643   1.406   2.434   6.164
 4843POPC   C2B63644   1.354   2.677   6.508
 4843POPC   C3B63645   1.495   2.760   6.915
 4843POPC   C4B63646   1.581   3.059   7.268
 4844POPC   NC363647  41.519  40.654   5.486
 4844POPC   PO463648  41.722  41.221   5.678
 4844POPC   GL163649  41.687  40.839   5.934
 4844POPC   GL263650  41.326  40.856   5.903
 4844POPC   C1A63651  41.612  40.715   6.365
 4844POPC   D2A63652  41.574  41.020   6.713
 4844POPC   C3A63653  41.860  40.964   7.049
 4844POPC   C4A63654  41.839  41.036   7.500
 4844POPC   C1B63655  41.101  40.901   6.268
 4844POPC   C2B63656  41.138  40.742   6.686
 4844POPC   C3B63657  41.365  40.710   7.099
 4844POPC   C4B63658  41.419  40.765   7.562
 4845POPC   NC363659  26.920  19.058   5.449
 4845POPC   PO463660  27.337  18.619   5.822
 4845POPC   GL163661  27.113  18.985   5.915
 4845POPC   GL263662  26.744  18.837   5.889
 4845POPC   C1A63663  26.980  19.034   6.302
 4845POPC   D2A63664  26.860  18.760   6.593
 4845POPC   C3A63665  27.074  18.945   6.917
 4845POPC   C4A63666  26.923  19.175   7.216
 4845POPC   C1B63667  26.479  19.050   6.207
 4845POPC   C2B63668  26.608  19.192   6.652
 4845POPC   C3B63669  26.427  19.255   7.067
 4845POPC   C4B63670  26.589  19.465   7.418
 4846POPC   NC363671  39.796  14.383   5.445
 4846POPC   PO463672  40.352  14.146   5.353
 4846POPC   GL163673  40.164  14.310   5.807
 4846POPC   GL263674  39.778  14.381   5.939
 4846POPC   C1A63675  40.085  14.182   6.275
 4846POPC   D2A63676  39.795  14.300   6.608
 4846POPC   C3A63677  40.029  14.297   6.972
 4846POPC   C4A63678  40.171  13.968   7.232
 4846POPC   C1B63679  39.908  14.671   6.277
 4846POPC   C2B63680  39.899  14.792   6.724
 4846POPC   C3B63681  39.855  14.731   7.176
 4846POPC   C4B63682  39.944  14.762   7.639
 4847POPC   NC363683   6.497  40.071   5.038
 4847POPC   PO463684   6.586  39.662   5.552
 4847POPC   GL163685   6.794  39.971   5.781
 4847POPC   GL263686   6.694  40.275   5.591
 4847POPC   C1A63687   6.920  40.032   6.220
 4847POPC   D2A63688   6.747  39.875   6.592
 4847POPC   C3A63689   6.396  40.038   6.795
 4847POPC   C4A63690   6.418  39.991   7.227
 4847POPC   C1B63691   6.634  40.402   6.020
 4847POPC   C2B63692   6.595  40.430   6.474
 4847POPC   C3B63693   6.841  40.327   6.853
 4847POPC   C4B63694   6.780  40.339   7.301
 4848POPC   NC363695  33.427  28.805   5.387
 4848POPC   PO463696  32.789  29.108   5.344
 4848POPC   GL163697  32.927  29.184   5.792
 4848POPC   GL263698  33.283  29.311   5.901
 4848POPC   C1A63699  32.891  29.073   6.221
 4848POPC   D2A63700  32.602  28.914   6.556
 4848POPC   C3A63701  32.879  28.937   6.886
 4848POPC   C4A63702  32.892  29.015   7.299
 4848POPC   C1B63703  33.409  29.077   6.324
 4848POPC   C2B63704  33.407  29.011   6.808
 4848POPC   C3B63705  33.369  29.165   7.252
 4848POPC   C4B63706  33.452  29.256   7.721
 4849POPC   NC363707  17.297  14.618   5.469
 4849POPC   PO463708  17.142  13.912   5.600
 4849POPC   GL163709  17.461  14.078   5.953
 4849POPC   GL263710  17.849  14.088   5.943
 4849POPC   C1A63711  17.466  14.487   6.165
 4849POPC   D2A63712  17.667  14.619   6.526
 4849POPC   C3A63713  17.446  14.601   6.908
 4849POPC   C4A63714  17.482  14.666   7.325
 4849POPC   C1B63715  17.796  14.152   6.371
 4849POPC   C2B63716  17.420  14.182   6.601
 4849POPC   C3B63717  17.417  14.059   6.992
 4849POPC   C4B63718  17.692  14.193   7.307
 4850POPC   NC363719  18.541  41.766   5.408
 4850POPC   PO463720  18.031  41.383   5.531
 4850POPC   GL163721  18.304  41.502   5.881
 4850POPC   GL263722  18.291  41.852   5.846
 4850POPC   C1A63723  18.478  41.485   6.350
 4850POPC   D2A63724  18.242  41.447   6.774
 4850POPC   C3A63725  18.284  41.372   7.226
 4850POPC   C4A63726  18.588  41.269   7.581
 4850POPC   C1B63727  18.084  41.796   6.243
 4850POPC   C2B63728  18.085  41.909   6.648
 4850POPC   C3B63729  18.167  41.903   7.060
 4850POPC   C4B63730  18.002  41.828   7.423
 4851POPC   NC363731  35.962  22.841   5.357
 4851POPC   PO463732  36.372  23.276   5.433
 4851POPC   GL163733  36.236  22.960   5.795
 4851POPC   GL263734  35.972  22.677   5.843
 4851POPC   C1A63735  36.026  23.052   6.212
 4851POPC   D2A63736  35.971  23.229   6.645
 4851POPC   C3A63737  36.239  23.056   6.973
 4851POPC   C4A63738  36.086  22.903   7.362
 4851POPC   C1B63739  36.217  22.587   6.202
 4851POPC   C2B63740  36.080  22.656   6.630
 4851POPC   C3B63741  36.225  22.535   7.037
 4851POPC   C4B63742  36.562  22.739   7.267
 4852POPC   NC363743  12.662  14.394   5.355
 4852POPC   PO463744  13.175  14.717   5.364
 4852POPC   GL163745  12.958  14.532   5.762
 4852POPC   GL263746  12.650  14.689   5.756
 4852POPC   C1A63747  12.920  14.409   6.226
 4852POPC   D2A63748  13.139  14.199   6.601
 4852POPC   C3A63749  13.047  14.343   7.018
 4852POPC   C4A63750  12.656  14.239   7.243
 4852POPC   C1B63751  12.668  14.856   6.133
 4852POPC   C2B63752  12.519  14.724   6.490
 4852POPC   C3B63753  12.604  14.531   6.833
 4852POPC   C4B63754  12.684  14.734   7.209
 4853POPC   NC363755  11.105  19.380   5.416
 4853POPC   PO463756  11.543  18.843   5.428
 4853POPC   GL163757  11.399  18.945   5.858
 4853POPC   GL263758  11.446  19.315   5.826
 4853POPC   C1A63759  11.247  18.818   6.302
 4853POPC   D2A63760  11.184  18.659   6.746
 4853POPC   C3A63761  11.142  18.851   7.133
 4853POPC   C4A63762  11.372  19.195   7.226
 4853POPC   C1B63763  11.159  19.306   6.206
 4853POPC   C2B63764  11.029  19.165   6.640
 4853POPC   C3B63765  10.868  19.291   7.049
 4853POPC   C4B63766  10.918  19.329   7.494
 4854POPC   NC363767  42.395  41.057   5.222
 4854POPC   PO463768  41.932  40.623   5.261
 4854POPC   GL163769  42.142  40.868   5.666
 4854POPC   GL263770  42.502  40.822   5.811
 4854POPC   C1A63771  42.171  41.017   6.136
 4854POPC   D2A63772  42.083  40.911   6.560
 4854POPC   C3A63773  42.374  40.892   6.898
 4854POPC   C4A63774  42.294  41.109   7.278
 4854POPC   C1B63775  42.570  40.708   6.271
 4854POPC   C2B63776  42.655  40.484   6.662
 4854POPC   C3B63777  42.864  40.678   7.000
 4854POPC   C4B63778  42.676  40.777   7.376
 4855POPC   NC363779  18.715  22.895   5.454
 4855POPC   PO463780  19.076  22.418   5.267
 4855POPC   GL163781  19.085  22.416   5.748
 4855POPC   GL263782  18.856  22.161   5.896
 4855POPC   C1A63783  19.142  22.447   6.243
 4855POPC   D2A63784  19.197  22.245   6.678
 4855POPC   C3A63785  18.985  22.401   7.059
 4855POPC   C4A63786  18.541  22.467   7.162
 4855POPC   C1B63787  18.876  21.992   6.329
 4855POPC   C2B63788  18.754  21.996   6.780
 4855POPC   C3B63789  18.936  21.916   7.195
 4855POPC   C4B63790  19.211  21.842   7.551
 4856POPC   NC363791  12.183  29.931   5.236
 4856POPC   PO463792  11.619  29.669   5.318
 4856POPC   GL163793  11.900  29.883   5.673
 4856POPC   GL263794  12.257  30.034   5.752
 4856POPC   C1A63795  11.965  29.912   6.149
 4856POPC   D2A63796  12.001  30.107   6.569
 4856POPC   C3A63797  11.874  29.886   6.952
 4856POPC   C4A63798  11.770  29.702   7.357
 4856POPC   C1B63799  12.326  30.278   6.178
 4856POPC   C2B63800  12.382  30.434   6.610
 4856POPC   C3B63801  12.297  30.226   7.026
 4856POPC   C4B63802  12.581  30.174   7.401
 4857POPC   NC363803  38.501   1.816   5.424
 4857POPC   PO463804  38.211   2.457   5.431
 4857POPC   GL163805  38.325   2.185   5.747
 4857POPC   GL263806  38.694   2.164   5.796
 4857POPC   C1A63807  38.341   1.971   6.141
 4857POPC   D2A63808  38.455   2.129   6.545
 4857POPC   C3A63809  38.409   1.827   6.844
 4857POPC   C4A63810  38.624   2.031   7.139
 4857POPC   C1B63811  38.847   2.209   6.217
 4857POPC   C2B63812  38.949   1.986   6.600
 4857POPC   C3B63813  38.886   1.644   6.900
 4857POPC   C4B63814  39.018   1.730   7.306
 4858POPC   NC363815   7.835  11.852   5.487
 4858POPC   PO463816   7.307  12.089   5.133
 4858POPC   GL163817   7.354  12.078   5.668
 4858POPC   GL263818   7.441  11.779   5.893
 4858POPC   C1A63819   7.446  12.215   6.154
 4858POPC   D2A63820   7.516  11.979   6.559
 4858POPC   C3A63821   7.462  12.259   6.902
 4858POPC   C4A63822   7.393  12.097   7.274
 4858POPC   C1B63823   7.112  11.845   6.235
 4858POPC   C2B63824   6.895  11.657   6.578
 4858POPC   C3B63825   7.123  11.752   6.951
 4858POPC   C4B63826   6.959  11.854   7.356
 4859POPC   NC363827   8.659  25.365   5.350
 4859POPC   PO463828   8.939  24.728   5.378
 4859POPC   GL163829   8.878  25.074   5.723
 4859POPC   GL263830   8.779  25.475   5.825
 4859POPC   C1A63831   9.078  25.173   6.104
 4859POPC   D2A63832   9.170  25.311   6.498
 4859POPC   C3A63833   9.032  25.271   6.908
 4859POPC   C4A63834   9.224  25.168   7.273
 4859POPC   C1B63835   8.560  25.269   6.154
 4859POPC   C2B63836   8.658  25.168   6.566
 4859POPC   C3B63837   8.547  25.151   7.004
 4859POPC   C4B63838   8.610  25.186   7.484
 4860POPC   NC363839  28.236  10.852   5.261
 4860POPC   PO463840  28.254  10.209   5.445
 4860POPC   GL163841  28.437  10.575   5.678
 4860POPC   GL263842  28.250  10.479   5.946
 4860POPC   C1A63843  28.617  10.778   6.099
 4860POPC   D2A63844  28.383  10.751   6.505
 4860POPC   C3A63845  28.457  10.700   6.951
 4860POPC   C4A63846  28.119  10.593   7.268
 4860POPC   C1B63847  28.091  10.154   6.208
 4860POPC   C2B63848  28.265  10.026   6.593
 4860POPC   C3B63849  28.254  10.200   6.997
 4860POPC   C4B63850  28.376  10.142   7.425
 4861POPC   NC363851  40.951  21.235   5.406
 4861POPC   PO463852  40.548  21.700   5.428
 4861POPC   GL163853  40.596  21.450   5.811
 4861POPC   GL263854  40.605  21.070   5.767
 4861POPC   C1A63855  40.663  21.628   6.255
 4861POPC   D2A63856  40.836  21.509   6.655
 4861POPC   C3A63857  40.698  21.661   7.058
 4861POPC   C4A63858  40.806  21.531   7.479
 4861POPC   C1B63859  40.698  21.117   6.217
 4861POPC   C2B63860  40.504  21.125   6.634
 4861POPC   C3B63861  40.689  21.147   7.060
 4861POPC   C4B63862  40.543  21.094   7.469
 4862POPC   NC363863   2.043  38.897   5.458
 4862POPC   PO463864   2.169  38.252   5.396
 4862POPC   GL163865   2.195  38.447   5.793
 4862POPC   GL263866   1.898  38.583   5.856
 4862POPC   C1A63867   2.208  38.303   6.215
 4862POPC   D2A63868   1.973  38.282   6.583
 4862POPC   C3A63869   2.097  38.385   6.970
 4862POPC   C4A63870   1.923  38.123   7.281
 4862POPC   C1B63871   1.856  38.700   6.296
 4862POPC   C2B63872   1.668  38.695   6.718
 4862POPC   C3B63873   1.748  38.933   7.100
 4862POPC   C4B63874   1.781  38.768   7.538
 4863POPC   NC363875  23.833  17.819   5.420
 4863POPC   PO463876  23.769  17.080   5.448
 4863POPC   GL163877  23.702  17.397   5.749
 4863POPC   GL263878  24.027  17.485   5.778
 4863POPC   C1A63879  23.603  17.334   6.226
 4863POPC   D2A63880  23.716  17.195   6.684
 4863POPC   C3A63881  23.480  17.208   7.054
 4863POPC   C4A63882  23.652  17.194   7.430
 4863POPC   C1B63883  24.032  17.605   6.215
 4863POPC   C2B63884  24.184  17.393   6.593
 4863POPC   C3B63885  24.093  17.337   7.052
 4863POPC   C4B63886  24.227  17.710   7.306
 4864POPC   NC363887  27.529  37.912   5.046
 4864POPC   PO463888  26.971  37.653   5.414
 4864POPC   GL163889  26.798  37.609   5.822
 4864POPC   GL263890  26.802  37.268   5.917
 4864POPC   C1A63891  26.647  37.586   6.294
 4864POPC   D2A63892  26.390  37.744   6.630
 4864POPC   C3A63893  26.610  37.922   6.981
 4864POPC   C4A63894  26.976  37.688   7.195
 4864POPC   C1B63895  27.139  37.516   6.199
 4864POPC   C2B63896  27.049  37.587   6.645
 4864POPC   C3B63897  26.696  37.425   6.856
 4864POPC   C4B63898  26.638  37.277   7.248
 4865POPC   NC363899  37.140   2.156   5.383
 4865POPC   PO463900  36.464   2.236   5.449
 4865POPC   GL163901  36.776   2.058   5.745
 4865POPC   GL263902  36.923   2.370   5.791
 4865POPC   C1A63903  36.993   1.974   6.169
 4865POPC   D2A63904  36.920   1.979   6.621
 4865POPC   C3A63905  37.118   1.644   6.894
 4865POPC   C4A63906  36.931   1.584   7.339
 4865POPC   C1B63907  37.258   2.398   6.079
 4865POPC   C2B63908  37.231   2.394   6.498
 4865POPC   C3B63909  37.276   2.246   6.907
 4865POPC   C4B63910  37.000   2.050   7.158
 4866POPC   NC363911  27.852  17.757   5.449
 4866POPC   PO463912  27.496  18.394   5.336
 4866POPC   GL163913  27.804  18.248   5.708
 4866POPC   GL263914  27.917  17.958   5.901
 4866POPC   C1A63915  27.809  18.375   6.172
 4866POPC   D2A63916  27.436  18.640   6.338
 4866POPC   C3A63917  27.298  18.519   6.738
 4866POPC   C4A63918  27.265  18.252   7.092
 4866POPC   C1B63919  27.631  17.865   6.255
 4866POPC   C2B63920  27.464  18.005   6.641
 4866POPC   C3B63921  27.669  17.938   7.024
 4866POPC   C4B63922  27.578  18.057   7.432
 4867POPC   NC363923  29.605  20.382   5.287
 4867POPC   PO463924  30.215  20.678   5.407
 4867POPC   GL163925  29.895  20.640   5.707
 4867POPC   GL263926  29.823  20.279   5.742
 4867POPC   C1A63927  29.986  20.806   6.117
 4867POPC   D2A63928  30.164  20.614   6.495
 4867POPC   C3A63929  29.916  20.781   6.834
 4867POPC   C4A63930  29.908  21.093   7.172
 4867POPC   C1B63931  29.678  20.404   6.146
 4867POPC   C2B63932  29.672  20.304   6.591
 4867POPC   C3B63933  29.668  20.369   7.033
 4867POPC   C4B63934  29.601  20.721   7.311
 4868POPC   NC363935  21.358  25.449   5.488
 4868POPC   PO463936  21.119  24.837   5.422
 4868POPC   GL163937  21.359  25.038   5.785
 4868POPC   GL263938  21.681  24.875   5.917
 4868POPC   C1A63939  21.319  25.266   6.167
 4868POPC   D2A63940  21.211  25.129   6.572
 4868POPC   C3A63941  21.161  25.374   6.874
 4868POPC   C4A63942  21.171  25.248   7.258
 4868POPC   C1B63943  21.808  25.237   6.207
 4868POPC   C2B63944  21.630  25.438   6.625
 4868POPC   C3B63945  21.636  25.437   7.097
 4868POPC   C4B63946  21.635  25.102   7.421
 4869POPC   NC363947   2.362  19.906   5.103
 4869POPC   PO463948   1.802  19.980   5.555
 4869POPC   GL163949   2.042  19.795   5.817
 4869POPC   GL263950   1.767  19.690   6.000
 4869POPC   C1A63951   2.249  19.826   6.189
 4869POPC   D2A63952   2.029  19.740   6.537
 4869POPC   C3A63953   2.231  19.719   6.919
 4869POPC   C4A63954   2.152  20.058   7.129
 4869POPC   C1B63955   1.728  20.048   6.250
 4869POPC   C2B63956   1.607  20.020   6.659
 4869POPC   C3B63957   1.737  19.754   6.954
 4869POPC   C4B63958   1.795  19.732   7.371
 4870POPC   NC363959  10.937  41.146   5.521
 4870POPC   PO463960  10.318  41.336   5.547
 4870POPC   GL163961  10.502  41.602   5.857
 4870POPC   GL263962  10.869  41.577   5.811
 4870POPC   C1A63963  10.426  41.683   6.308
 4870POPC   D2A63964  10.413  41.353   6.652
 4870POPC   C3A63965  10.308  41.553   7.057
 4870POPC   C4A63966  10.488  41.950   7.261
 4870POPC   C1B63967  10.813  41.367   6.206
 4870POPC   C2B63968  10.921  41.524   6.601
 4870POPC   C3B63969  10.785  41.660   6.956
 4870POPC   C4B63970  10.773  41.506   7.376
 4871POPC   NC363971  40.365  23.180   5.025
 4871POPC   PO463972  40.116  22.721   5.286
 4871POPC   GL163973  40.011  22.652   5.770
 4871POPC   GL263974  39.917  22.973   5.918
 4871POPC   C1A63975  40.113  22.666   6.272
 4871POPC   D2A63976  40.204  22.977   6.625
 4871POPC   C3A63977  40.179  22.908   7.074
 4871POPC   C4A63978  39.813  22.820   7.318
 4871POPC   C1B63979  39.756  23.031   6.353
 4871POPC   C2B63980  39.387  22.996   6.631
 4871POPC   C3B63981  39.360  22.967   7.086
 4871POPC   C4B63982  39.511  23.201   7.472
 4872POPC   NC363983  18.637  37.324   5.403
 4872POPC   PO463984  18.417  36.675   5.588
 4872POPC   GL163985  18.222  36.876   5.919
 4872POPC   GL263986  18.144  37.236   5.814
 4872POPC   C1A63987  18.367  36.682   6.305
 4872POPC   D2A63988  18.470  36.435   6.667
 4872POPC   C3A63989  18.372  36.721   6.982
 4872POPC   C4A63990  18.395  36.902   7.371
 4872POPC   C1B63991  18.011  37.215   6.250
 4872POPC   C2B63992  18.175  37.054   6.608
 4872POPC   C3B63993  18.186  37.189   7.001
 4872POPC   C4B63994  18.374  37.414   7.276
 4873POPC   NC363995  25.009  42.582   5.346
 4873POPC   PO463996  25.700  42.727   5.468
 4873POPC   GL163997  25.474  42.533   5.821
 4873POPC   GL263998  25.670  42.235   5.872
 4873POPC   C1A63999  25.098  42.352   6.054
 4873POPC   D2A64000  24.976  42.430   6.501
 4873POPC   C3A64001  24.793  42.154   6.807
 4873POPC   C4A64002  24.771  42.315   7.220
 4873POPC   C1B64003  25.505  42.111   6.266
 4873POPC   C2B64004  25.478  42.340   6.633
 4873POPC   C3B64005  25.684  42.244   7.007
 4873POPC   C4B64006  25.492  42.206   7.387
 4874POPC   NC364007  37.073  29.357   5.328
 4874POPC   PO464008  37.298  28.663   5.485
 4874POPC   GL164009  37.172  29.049   5.723
 4874POPC   GL264010  36.794  29.171   5.722
 4874POPC   C1A64011  37.062  29.139   6.123
 4874POPC   D2A64012  36.968  28.982   6.464
 4874POPC   C3A64013  36.866  29.262   6.777
 4874POPC   C4A64014  36.914  29.140   7.183
 4874POPC   C1B64015  36.596  28.909   6.085
 4874POPC   C2B64016  36.481  28.839   6.556
 4874POPC   C3B64017  36.456  28.967   7.013
 4874POPC   C4B64018  36.574  28.784   7.420
 4875POPC   NC364019   9.251  21.791   5.434
 4875POPC   PO464020   9.881  22.130   5.484
 4875POPC   GL164021   9.677  22.104   5.849
 4875POPC   GL264022   9.436  22.311   5.726
 4875POPC   C1A64023   9.785  22.257   6.256
 4875POPC   D2A64024   9.785  22.012   6.623
 4875POPC   C3A64025  10.053  22.043   6.953
 4875POPC   C4A64026   9.964  21.849   7.316
 4875POPC   C1B64027   9.290  22.395   6.127
 4875POPC   C2B64028   9.342  22.304   6.568
 4875POPC   C3B64029   9.572  22.347   6.959
 4875POPC   C4B64030   9.415  22.190   7.357
 4876POPC   NC364031  21.033  41.626   5.492
 4876POPC   PO464032  20.432  41.370   5.356
 4876POPC   GL164033  20.497  41.527   5.769
 4876POPC   GL264034  20.843  41.607   5.969
 4876POPC   C1A64035  20.384  41.542   6.155
 4876POPC   D2A64036  20.622  41.675   6.464
 4876POPC   C3A64037  20.530  41.583   6.865
 4876POPC   C4A64038  20.593  41.851   7.207
 4876POPC   C1B64039  21.022  41.935   6.281
 4876POPC   C2B64040  20.937  41.979   6.743
 4876POPC   C3B64041  21.113  41.870   7.126
 4876POPC   C4B64042  20.964  41.823   7.569
 4877POPC   NC364043  16.607  22.551   5.446
 4877POPC   PO464044  16.521  23.217   5.282
 4877POPC   GL164045  16.655  23.283   5.714
 4877POPC   GL264046  16.818  22.951   5.799
 4877POPC   C1A64047  16.796  23.274   6.183
 4877POPC   D2A64048  16.611  23.106   6.566
 4877POPC   C3A64049  16.778  23.105   6.982
 4877POPC   C4A64050  16.696  23.309   7.353
 4877POPC   C1B64051  16.890  22.768   6.252
 4877POPC   C2B64052  16.860  22.611   6.716
 4877POPC   C3B64053  16.941  22.670   7.176
 4877POPC   C4B64054  16.952  22.910   7.567
 4878POPC   NC364055  35.141  35.625   5.374
 4878POPC   PO464056  35.762  35.404   5.578
 4878POPC   GL164057  35.394  35.429   5.779
 4878POPC   GL264058  35.231  35.104   5.668
 4878POPC   C1A64059  35.241  35.628   6.176
 4878POPC   D2A64060  35.057  35.520   6.588
 4878POPC   C3A64061  35.234  35.625   6.999
 4878POPC   C4A64062  35.081  35.551   7.419
 4878POPC   C1B64063  35.225  35.103   6.111
 4878POPC   C2B64064  35.282  35.043   6.534
 4878POPC   C3B64065  35.253  35.104   6.973
 4878POPC   C4B64066  35.411  35.141   7.381
 4879POPC   NC364067  36.389  34.702   5.474
 4879POPC   PO464068  35.741  34.412   5.449
 4879POPC   GL164069  35.914  34.374   5.896
 4879POPC   GL264070  36.227  34.575   5.953
 4879POPC   C1A64071  36.073  34.240   6.345
 4879POPC   D2A64072  36.401  34.147   6.703
 4879POPC   C3A64073  36.305  34.350   7.108
 4879POPC   C4A64074  35.885  34.457   7.226
 4879POPC   C1B64075  36.020  34.925   6.169
 4879POPC   C2B64076  35.791  34.984   6.581
 4879POPC   C3B64077  35.878  34.936   7.011
 4879POPC   C4B64078  36.259  34.846   7.180
 4880POPC   NC364079  11.396   3.991   5.629
 4880POPC   PO464080  11.394   3.360   5.422
 4880POPC   GL164081  11.291   3.423   5.808
 4880POPC   GL264082  11.588   3.605   5.883
 4880POPC   C1A64083  11.314   3.223   6.206
 4880POPC   D2A64084  11.349   3.313   6.651
 4880POPC   C3A64085  11.233   3.510   7.045
 4880POPC   C4A64086  11.159   3.317   7.420
 4880POPC   C1B64087  11.557   3.658   6.311
 4880POPC   C2B64088  11.688   3.829   6.690
 4880POPC   C3B64089  11.653   3.794   7.116
 4880POPC   C4B64090  11.392   3.772   7.485
 4881POPC   NC364091  42.042   9.299   5.392
 4881POPC   PO464092  42.168   8.609   5.593
 4881POPC   GL164093  42.386   8.794   5.889
 4881POPC   GL264094  42.304   9.094   5.787
 4881POPC   C1A64095  42.429   8.808   6.302
 4881POPC   D2A64096  42.594   8.880   6.674
 4881POPC   C3A64097  42.362   8.847   7.040
 4881POPC   C4A64098  42.681   9.018   7.297
 4881POPC   C1B64099  42.052   9.205   6.150
 4881POPC   C2B64100  41.848   9.295   6.577
 4881POPC   C3B64101  41.973   9.201   6.993
 4881POPC   C4B64102  42.228   9.275   7.351
 4882POPC   NC364103  17.003  11.663   5.431
 4882POPC   PO464104  16.848  10.935   5.386
 4882POPC   GL164105  16.786  11.290   5.693
 4882POPC   GL264106  17.058  11.410   5.869
 4882POPC   C1A64107  16.621  11.447   6.100
 4882POPC   D2A64108  16.674  11.418   6.534
 4882POPC   C3A64109  16.438  11.317   6.857
 4882POPC   C4A64110  16.627  11.287   7.229
 4882POPC   C1B64111  17.079  11.602   6.275
 4882POPC   C2B64112  17.170  11.421   6.656
 4882POPC   C3B64113  17.085  11.449   7.085
 4882POPC   C4B64114  17.207  11.720   7.399
 4883POPC   NC364115  35.778  20.591   5.429
 4883POPC   PO464116  36.316  20.951   5.228
 4883POPC   GL164117  36.201  20.802   5.711
 4883POPC   GL264118  35.949  20.603   5.908
 4883POPC   C1A64119  36.139  20.979   6.155
 4883POPC   D2A64120  35.878  20.787   6.503
 4883POPC   C3A64121  36.161  20.659   6.844
 4883POPC   C4A64122  36.229  20.752   7.271
 4883POPC   C1B64123  35.774  20.298   6.220
 4883POPC   C2B64124  35.572  20.166   6.619
 4883POPC   C3B64125  35.726  20.126   7.056
 4883POPC   C4B64126  36.131  20.233   7.174
 4884POPC   NC364127  40.384  44.407   5.263
 4884POPC   PO464128  40.907  44.757   5.368
 4884POPC   GL164129  40.898  44.685   5.788
 4884POPC   GL264130  41.138  44.936   5.821
 4884POPC   C1A64131  40.706  44.549   6.190
 4884POPC   D2A64132  40.594  44.689   6.626
 4884POPC   C3A64133  40.704  44.382   6.987
 4884POPC   C4A64134  40.673  44.352   7.470
 4884POPC   C1B64135  40.908   0.040   6.182
 4884POPC   C2B64136  40.954   0.181   6.593
 4884POPC   C3B64137  40.877  44.973   6.988
 4884POPC   C4B64138  41.029  44.676   7.286
 4885POPC   NC364139  33.402  22.796   5.588
 4885POPC   PO464140  32.828  22.942   5.183
 4885POPC   GL164141  32.941  22.955   5.646
 4885POPC   GL264142  33.155  23.225   5.790
 4885POPC   C1A64143  32.902  22.917   6.112
 4885POPC   D2A64144  32.888  22.771   6.542
 4885POPC   C3A64145  32.748  22.959   6.942
 4885POPC   C4A64146  32.887  22.807   7.359
 4885POPC   C1B64147  33.447  23.148   6.173
 4885POPC   C2B64148  33.445  22.933   6.602
 4885POPC   C3B64149  33.276  22.989   7.048
 4885POPC   C4B64150  33.303  23.043   7.537
 4886POPC   NC364151  23.535  12.498   5.385
 4886POPC   PO464152  23.927  12.975   5.390
 4886POPC   GL164153  23.681  12.880   5.745
 4886POPC   GL264154  23.382  13.062   5.705
 4886POPC   C1A64155  23.722  12.676   6.156
 4886POPC   D2A64156  23.956  12.511   6.496
 4886POPC   C3A64157  23.892  12.789   6.831
 4886POPC   C4A64158  24.069  12.761   7.229
 4886POPC   C1B64159  23.480  13.134   6.143
 4886POPC   C2B64160  23.451  12.981   6.550
 4886POPC   C3B64161  23.499  13.111   6.964
 4886POPC   C4B64162  23.571  12.833   7.256
 4887POPC   NC364163   9.456  32.872   5.099
 4887POPC   PO464164   9.877  33.323   5.364
 4887POPC   GL164165   9.902  33.268   5.804
 4887POPC   GL264166  10.109  33.553   5.891
 4887POPC   C1A64167   9.673  33.010   6.152
 4887POPC   D2A64168   9.559  32.722   6.506
 4887POPC   C3A64169   9.557  32.874   6.929
 4887POPC   C4A64170   9.862  32.843   7.261
 4887POPC   C1B64171  10.041  33.338   6.291
 4887POPC   C2B64172   9.852  33.249   6.692
 4887POPC   C3B64173  10.023  33.301   7.116
 4887POPC   C4B64174  10.056  33.281   7.554
 4888POPC   NC364175  37.800  27.772   5.447
 4888POPC   PO464176  37.672  27.164   5.779
 4888POPC   GL164177  37.468  27.589   6.015
 4888POPC   GL264178  37.428  27.891   5.835
 4888POPC   C1A64179  37.445  27.675   6.462
 4888POPC   D2A64180  37.417  27.326   6.764
 4888POPC   C3A64181  37.643  27.211   7.173
 4888POPC   C4A64182  37.858  27.529   7.468
 4888POPC   C1B64183  37.154  28.032   6.137
 4888POPC   C2B64184  37.092  28.028   6.568
 4888POPC   C3B64185  37.360  28.023   6.916
 4888POPC   C4B64186  37.499  27.687   7.144
 4889POPC   NC364187  24.576  39.741   5.060
 4889POPC   PO464188  24.321  40.315   5.297
 4889POPC   GL164189  24.435  40.311   5.718
 4889POPC   GL264190  24.121  40.469   5.806
 4889POPC   C1A64191  24.624  39.972   5.998
 4889POPC   D2A64192  24.834  39.779   6.391
 4889POPC   C3A64193  24.845  40.054   6.783
 4889POPC   C4A64194  24.657  40.166   7.200
 4889POPC   C1B64195  24.410  40.541   6.180
 4889POPC   C2B64196  24.617  40.506   6.599
 4889POPC   C3B64197  24.399  40.563   6.975
 4889POPC   C4B64198  24.118  40.358   7.278
 4890POPC   NC364199  24.285  38.888   5.371
 4890POPC   PO464200  24.598  38.331   5.279
 4890POPC   GL164201  24.517  38.417   5.736
 4890POPC   GL264202  24.168  38.524   5.730
 4890POPC   C1A64203  24.521  38.191   6.149
 4890POPC   D2A64204  24.394  37.890   6.485
 4890POPC   C3A64205  24.365  38.155   6.855
 4890POPC   C4A64206  24.648  38.210   7.186
 4890POPC   C1B64207  24.178  38.605   6.177
 4890POPC   C2B64208  24.468  38.590   6.548
 4890POPC   C3B64209  24.515  38.683   6.996
 4890POPC   C4B64210  24.252  38.497   7.289
 4891POPC   NC364211   2.698  42.448   5.178
 4891POPC   PO464212   3.012  41.884   5.458
 4891POPC   GL164213   2.895  42.162   5.827
 4891POPC   GL264214   2.618  42.393   5.763
 4891POPC   C1A64215   2.680  42.173   6.257
 4891POPC   D2A64216   2.858  42.303   6.655
 4891POPC   C3A64217   2.626  42.089   6.994
 4891POPC   C4A64218   2.441  42.387   7.242
 4891POPC   C1B64219   2.818  42.632   6.121
 4891POPC   C2B64220   2.665  42.813   6.522
 4891POPC   C3B64221   2.639  42.782   6.980
 4891POPC   C4B64222   2.711  42.769   7.464
 4892POPC   NC364223  32.447   5.763   5.120
 4892POPC   PO464224  32.116   6.149   5.385
 4892POPC   GL164225  32.269   5.868   5.735
 4892POPC   GL264226  31.963   5.838   5.932
 4892POPC   C1A64227  32.381   5.778   6.193
 4892POPC   D2A64228  32.146   5.738   6.600
 4892POPC   C3A64229  32.318   5.750   7.020
 4892POPC   C4A64230  32.492   5.773   7.435
 4892POPC   C1B64231  31.977   6.105   6.276
 4892POPC   C2B64232  31.774   6.155   6.671
 4892POPC   C3B64233  31.902   6.050   7.074
 4892POPC   C4B64234  32.045   6.157   7.488
 4893POPC   NC364235  31.076  42.138   5.383
 4893POPC   PO464236  30.571  42.341   5.699
 4893POPC   GL164237  30.753  42.274   5.998
 4893POPC   GL264238  31.012  42.107   5.887
 4893POPC   C1A64239  30.579  42.253   6.365
 4893POPC   D2A64240  30.752  42.427   6.659
 4893POPC   C3A64241  30.571  42.434   7.013
 4893POPC   C4A64242  30.534  42.643   7.365
 4893POPC   C1B64243  30.936  41.908   6.310
 4893POPC   C2B64244  31.017  42.019   6.748
 4893POPC   C3B64245  30.992  42.154   7.190
 4893POPC   C4B64246  30.913  41.896   7.545
 4894POPC   NC364247  23.166  23.293   5.512
 4894POPC   PO464248  22.688  23.795   5.521
 4894POPC   GL164249  23.061  23.737   5.805
 4894POPC   GL264250  23.343  23.983   5.809
 4894POPC   C1A64251  23.050  23.661   6.233
 4894POPC   D2A64252  22.843  23.865   6.583
 4894POPC   C3A64253  22.964  23.673   6.986
 4894POPC   C4A64254  22.858  23.858   7.357
 4894POPC   C1B64255  23.180  24.148   6.178
 4894POPC   C2B64256  23.102  24.334   6.557
 4894POPC   C3B64257  23.072  24.160   6.945
 4894POPC   C4B64258  23.300  24.096   7.291
 4895POPC   NC364259  44.235   0.501   5.439
 4895POPC   PO464260  43.682   0.195   5.593
 4895POPC   GL164261  43.967   0.455   5.872
 4895POPC   GL264262  43.951   0.826   5.872
 4895POPC   C1A64263  44.150   0.534   6.293
 4895POPC   D2A64264  44.127   0.265   6.672
 4895POPC   C3A64265  44.212   0.443   7.076
 4895POPC   C4A64266  43.939   0.766   7.235
 4895POPC   C1B64267  43.645   0.653   6.229
 4895POPC   C2B64268  43.658   0.491   6.675
 4895POPC   C3B64269  43.703   0.293   7.098
 4895POPC   C4B64270  43.666   0.435   7.526
 4896POPC   NC364271   3.265   3.014   5.247
 4896POPC   PO464272   3.771   2.562   5.281
 4896POPC   GL164273   3.620   2.702   5.715
 4896POPC   GL264274   3.272   2.808   5.718
 4896POPC   C1A64275   3.616   2.972   6.119
 4896POPC   D2A64276   3.445   2.950   6.531
 4896POPC   C3A64277   3.683   2.955   6.908
 4896POPC   C4A64278   3.648   2.624   7.185
 4896POPC   C1B64279   3.192   2.671   6.142
 4896POPC   C2B64280   2.964   2.769   6.524
 4896POPC   C3B64281   3.149   2.672   6.919
 4896POPC   C4B64282   3.203   2.799   7.328
 4897POPC   NC364283   7.631  44.372   5.438
 4897POPC   PO464284   7.177  44.905   5.402
 4897POPC   GL164285   7.207  44.556   5.692
 4897POPC   GL264286   7.520  44.727   5.815
 4897POPC   C1A64287   7.372  44.310   6.060
 4897POPC   D2A64288   7.556  44.573   6.375
 4897POPC   C3A64289   7.561  44.604   6.794
 4897POPC   C4A64290   7.624  44.540   7.232
 4897POPC   C1B64291   7.484   0.035   6.135
 4897POPC   C2B64292   7.352   0.056   6.566
 4897POPC   C3B64293   7.455   0.047   7.017
 4897POPC   C4B64294   7.319  44.958   7.433
 4898POPC   NC364295   5.127  41.107   5.297
 4898POPC   PO464296   5.413  40.626   5.197
 4898POPC   GL164297   5.334  40.963   5.716
 4898POPC   GL264298   5.476  40.830   5.994
 4898POPC   C1A64299   4.936  40.954   6.071
 4898POPC   D2A64300   4.761  40.956   6.563
 4898POPC   C3A64301   4.972  40.791   6.992
 4898POPC   C4A64302   4.891  40.561   7.436
 4898POPC   C1B64303   5.262  40.761   6.399
 4898POPC   C2B64304   5.347  40.508   6.745
 4898POPC   C3B64305   5.569  40.633   7.107
 4898POPC   C4B64306   5.413  40.625   7.525
 4899POPC   NC364307  28.206  11.787   5.574
 4899POPC   PO464308  28.530  11.170   5.430
 4899POPC   GL164309  28.235  11.245   5.812
 4899POPC   GL264310  27.986  11.525   5.940
 4899POPC   C1A64311  28.397  11.211   6.250
 4899POPC   D2A64312  28.676  11.144   6.632
 4899POPC   C3A64313  28.464  11.209   7.015
 4899POPC   C4A64314  28.527  11.449   7.388
 4899POPC   C1B64315  28.276  11.698   6.265
 4899POPC   C2B64316  28.294  11.513   6.654
 4899POPC   C3B64317  28.014  11.428   6.950
 4899POPC   C4B64318  28.022  11.595   7.329
 4900POPC   NC364319  21.369  14.444   5.352
 4900POPC   PO464320  21.901  14.860   5.446
 4900POPC   GL164321  21.504  14.672   5.758
 4900POPC   GL264322  21.496  14.264   5.802
 4900POPC   C1A64323  21.414  14.602   6.199
 4900POPC   D2A64324  21.429  14.340   6.571
 4900POPC   C3A64325  21.355  14.572   6.931
 4900POPC   C4A64326  21.614  14.694   7.289
 4900POPC   C1B64327  21.171  14.143   6.130
 4900POPC   C2B64328  21.025  14.021   6.559
 4900POPC   C3B64329  21.015  14.158   7.007
 4900POPC   C4B64330  21.364  14.253   7.303
 4901POPC   NC364331  13.890   6.833   5.063
 4901POPC   PO464332  13.548   6.558   5.412
 4901POPC   GL164333  13.491   6.644   5.865
 4901POPC   GL264334  13.760   6.863   5.949
 4901POPC   C1A64335  13.278   6.640   6.287
 4901POPC   D2A64336  13.184   6.443   6.687
 4901POPC   C3A64337  13.401   6.525   7.108
 4901POPC   C4A64338  13.576   6.378   7.522
 4901POPC   C1B64339  13.793   6.624   6.347
 4901POPC   C2B64340  13.693   6.345   6.710
 4901POPC   C3B64341  13.890   6.283   7.127
 4901POPC   C4B64342  14.150   6.393   7.505
 4902POPC   NC364343  11.350  23.577   5.537
 4902POPC   PO464344  10.895  24.119   5.782
 4902POPC   GL164345  11.329  23.949   5.914
 4902POPC   GL264346  11.619  24.217   5.824
 4902POPC   C1A64347  11.473  23.579   6.225
 4902POPC   D2A64348  11.513  23.448   6.692
 4902POPC   C3A64349  11.156  23.621   6.912
 4902POPC   C4A64350  11.118  23.902   7.247
 4902POPC   C1B64351  11.728  24.019   6.216
 4902POPC   C2B64352  11.537  23.950   6.630
 4902POPC   C3B64353  11.602  23.895   7.073
 4902POPC   C4B64354  11.549  23.855   7.543
 4903POPC   NC364355  27.010  13.906   5.174
 4903POPC   PO464356  26.636  13.542   5.490
 4903POPC   GL164357  26.798  13.707   5.824
 4903POPC   GL264358  26.743  13.404   6.012
 4903POPC   C1A64359  26.616  13.913   6.177
 4903POPC   D2A64360  26.567  13.607   6.526
 4903POPC   C3A64361  26.534  13.798   6.903
 4903POPC   C4A64362  26.590  13.977   7.281
 4903POPC   C1B64363  27.022  13.647   6.299
 4903POPC   C2B64364  27.123  13.730   6.733
 4903POPC   C3B64365  27.020  13.685   7.134
 4903POPC   C4B64366  26.683  13.459   7.256
 4904POPC   NC364367  33.818  32.836   5.383
 4904POPC   PO464368  34.099  33.523   5.455
 4904POPC   GL164369  33.876  33.338   5.815
 4904POPC   GL264370  33.701  33.023   5.840
 4904POPC   C1A64371  33.903  33.259   6.265
 4904POPC   D2A64372  33.762  33.283   6.708
 4904POPC   C3A64373  34.022  33.251   7.050
 4904POPC   C4A64374  34.081  32.820   7.137
 4904POPC   C1B64375  33.446  33.021   6.212
 4904POPC   C2B64376  33.322  33.007   6.645
 4904POPC   C3B64377  33.564  32.856   7.001
 4904POPC   C4B64378  33.651  32.827   7.445
 4905POPC   NC364379  22.615  29.064   5.452
 4905POPC   PO464380  23.149  28.777   5.594
 4905POPC   GL164381  22.862  29.021   5.896
 4905POPC   GL264382  22.778  29.391   5.838
 4905POPC   C1A64383  22.529  29.024   6.202
 4905POPC   D2A64384  22.465  28.936   6.658
 4905POPC   C3A64385  22.687  28.892   7.067
 4905POPC   C4A64386  23.030  28.813   7.375
 4905POPC   C1B64387  22.850  29.405   6.300
 4905POPC   C2B64388  22.743  29.381   6.757
 4905POPC   C3B64389  22.906  29.345   7.185
 4905POPC   C4B64390  23.277  29.271   7.452
 4906POPC   NC364391  17.032  17.146   5.285
 4906POPC   PO464392  16.360  17.017   5.442
 4906POPC   GL164393  16.394  17.332   5.755
 4906POPC   GL264394  16.742  17.380   5.861
 4906POPC   C1A64395  16.351  17.364   6.205
 4906POPC   D2A64396  16.681  17.298   6.520
 4906POPC   C3A64397  16.517  17.378   6.906
 4906POPC   C4A64398  16.561  17.280   7.326
 4906POPC   C1B64399  16.790  17.684   6.220
 4906POPC   C2B64400  16.808  17.762   6.707
 4906POPC   C3B64401  16.717  17.786   7.178
 4906POPC   C4B64402  16.849  17.958   7.588
 4907POPC   NC364403  10.730  20.080   5.021
 4907POPC   PO464404  10.197  20.079   5.453
 4907POPC   GL164405  10.484  19.909   5.822
 4907POPC   GL264406  10.824  19.733   5.763
 4907POPC   C1A64407  10.556  19.821   6.288
 4907POPC   D2A64408  10.668  19.590   6.673
 4907POPC   C3A64409  10.314  19.603   6.949
 4907POPC   C4A64410  10.151  19.689   7.340
 4907POPC   C1B64411  10.910  20.105   6.064
 4907POPC   C2B64412  10.810  20.222   6.518
 4907POPC   C3B64413  10.650  20.068   6.938
 4907POPC   C4B64414  10.530  20.215   7.379
 4908POPC   NC364415  42.838  13.078   5.329
 4908POPC   PO464416  43.376  12.649   5.523
 4908POPC   GL164417  43.069  12.635   5.856
 4908POPC   GL264418  42.745  12.811   5.810
 4908POPC   C1A64419  42.993  12.922   6.257
 4908POPC   D2A64420  43.057  13.178   6.667
 4908POPC   C3A64421  43.203  12.985   7.060
 4908POPC   C4A64422  43.310  12.551   7.206
 4908POPC   C1B64423  42.682  12.478   6.138
 4908POPC   C2B64424  42.907  12.480   6.518
 4908POPC   C3B64425  42.859  12.576   6.951
 4908POPC   C4B64426  42.693  12.960   7.099
 4909POPC   NC364427  19.148  24.654   5.388
 4909POPC   PO464428  19.510  24.120   5.378
 4909POPC   GL164429  19.383  24.186   5.793
 4909POPC   GL264430  19.135  24.411   5.840
 4909POPC   C1A64431  19.365  24.212   6.263
 4909POPC   D2A64432  19.093  24.044   6.599
 4909POPC   C3A64433  19.134  24.155   7.041
 4909POPC   C4A64434  19.053  24.474   7.307
 4909POPC   C1B64435  18.908  24.425   6.262
 4909POPC   C2B64436  18.974  24.549   6.716
 4909POPC   C3B64437  18.732  24.752   7.063
 4909POPC   C4B64438  18.567  24.594   7.457
 4910POPC   NC364439  23.816  36.863   5.135
 4910POPC   PO464440  24.098  36.483   5.528
 4910POPC   GL164441  23.725  36.806   5.662
 4910POPC   GL264442  23.325  36.726   5.723
 4910POPC   C1A64443  23.549  37.078   6.020
 4910POPC   D2A64444  23.750  37.124   6.443
 4910POPC   C3A64445  23.598  37.128   6.871
 4910POPC   C4A64446  23.758  37.066   7.271
 4910POPC   C1B64447  23.499  36.601   6.169
 4910POPC   C2B64448  23.447  36.697   6.634
 4910POPC   C3B64449  23.521  36.539   7.097
 4910POPC   C4B64450  23.439  36.407   7.607
 4911POPC   NC364451  17.956   0.789   5.373
 4911POPC   PO464452  18.350   0.188   5.497
 4911POPC   GL164453  18.268   0.575   5.771
 4911POPC   GL264454  17.954   0.772   5.862
 4911POPC   C1A64455  18.469   0.527   6.177
 4911POPC   D2A64456  18.593   0.686   6.589
 4911POPC   C3A64457  18.713   0.383   6.925
 4911POPC   C4A64458  18.495   0.298   7.310
 4911POPC   C1B64459  17.782   0.710   6.220
 4911POPC   C2B64460  18.054   0.577   6.482
 4911POPC   C3B64461  18.205   0.575   6.901
 4911POPC   C4B64462  18.086   0.622   7.291
 4912POPC   NC364463  22.515  34.034   5.654
 4912POPC   PO464464  22.044  33.669   5.328
 4912POPC   GL164465  21.930  33.735   5.765
 4912POPC   GL264466  22.015  34.073   5.748
 4912POPC   C1A64467  22.058  33.615   6.218
 4912POPC   D2A64468  22.379  33.747   6.553
 4912POPC   C3A64469  22.252  33.620   6.951
 4912POPC   C4A64470  21.850  33.686   7.077
 4912POPC   C1B64471  22.019  34.148   6.177
 4912POPC   C2B64472  21.900  33.972   6.579
 4912POPC   C3B64473  22.046  34.147   6.968
 4912POPC   C4B64474  22.266  33.972   7.314
 4913POPC   NC364475  23.853  40.370   5.347
 4913POPC   PO464476  23.424  39.781   5.396
 4913POPC   GL164477  23.677  40.039   5.697
 4913POPC   GL264478  24.029  39.963   5.659
 4913POPC   C1A64479  23.789  40.226   6.115
 4913POPC   D2A64480  23.862  39.993   6.513
 4913POPC   C3A64481  23.802  40.159   6.919
 4913POPC   C4A64482  23.762  39.902   7.289
 4913POPC   C1B64483  24.138  39.831   6.096
 4913POPC   C2B64484  24.371  40.059   6.439
 4913POPC   C3B64485  24.305  40.041   6.872
 4913POPC   C4B64486  24.269  39.842   7.295
 4914POPC   NC364487  37.325  16.014   5.375
 4914POPC   PO464488  37.761  15.465   5.323
 4914POPC   GL164489  37.697  15.737   5.713
 4914POPC   GL264490  37.758  16.084   5.655
 4914POPC   C1A64491  37.722  15.761   6.201
 4914POPC   D2A64492  37.523  15.692   6.652
 4914POPC   C3A64493  37.689  15.801   7.082
 4914POPC   C4A64494  37.693  15.677   7.506
 4914POPC   C1B64495  37.692  16.300   6.063
 4914POPC   C2B64496  37.491  16.157   6.436
 4914POPC   C3B64497  37.424  16.170   6.882
 4914POPC   C4B64498  37.396  16.147   7.342
 4915POPC   NC364499  44.139  20.850   5.364
 4915POPC   PO464500  43.568  20.481   5.387
 4915POPC   GL164501  43.840  20.688   5.749
 4915POPC   GL264502  43.826  21.040   5.818
 4915POPC   C1A64503  44.202  20.826   6.073
 4915POPC   D2A64504  44.370  20.771   6.511
 4915POPC   C3A64505  44.098  20.827   6.879
 4915POPC   C4A64506  43.839  20.619   7.191
 4915POPC   C1B64507  43.727  20.876   6.284
 4915POPC   C2B64508  43.646  21.007   6.764
 4915POPC   C3B64509  43.816  21.139   7.216
 4915POPC   C4B64510  43.621  21.225   7.644
 4916POPC   NC364511   8.081  15.686   5.385
 4916POPC   PO464512   8.205  15.009   5.329
 4916POPC   GL164513   7.996  15.226   5.695
 4916POPC   GL264514   7.731  15.010   5.846
 4916POPC   C1A64515   8.028  15.291   6.160
 4916POPC   D2A64516   8.278  15.211   6.579
 4916POPC   C3A64517   8.228  15.258   7.063
 4916POPC   C4A64518   8.254  15.182   7.539
 4916POPC   C1B64519   7.589  14.910   6.255
 4916POPC   C2B64520   7.879  14.890   6.578
 4916POPC   C3B64521   7.829  14.955   6.989
 4916POPC   C4B64522   7.690  14.587   7.148
 4917POPC   NC364523  24.952  39.405   4.836
 4917POPC   PO464524  24.360  39.321   5.191
 4917POPC   GL164525  24.402  39.301   5.672
 4917POPC   GL264526  24.277  39.013   5.866
 4917POPC   C1A64527  24.509  39.441   6.107
 4917POPC   D2A64528  24.353  39.555   6.518
 4917POPC   C3A64529  24.648  39.567   6.851
 4917POPC   C4A64530  24.578  39.430   7.255
 4917POPC   C1B64531  24.608  38.917   6.166
 4917POPC   C2B64532  24.620  39.096   6.583
 4917POPC   C3B64533  24.311  39.149   6.930
 4917POPC   C4B64534  24.317  39.012   7.401
 4918POPC   NC364535  27.416  37.686   5.581
 4918POPC   PO464536  27.918  38.034   5.266
 4918POPC   GL164537  27.912  37.844   5.709
 4918POPC   GL264538  27.854  37.470   5.788
 4918POPC   C1A64539  27.763  37.848   6.167
 4918POPC   D2A64540  27.798  37.737   6.620
 4918POPC   C3A64541  27.462  37.759   6.937
 4918POPC   C4A64542  27.416  37.948   7.346
 4918POPC   C1B64543  27.640  37.316   6.162
 4918POPC   C2B64544  27.486  37.333   6.575
 4918POPC   C3B64545  27.313  37.284   6.967
 4918POPC   C4B64546  27.378  37.444   7.419
 4919POPC   NC364547  14.321  43.200   5.181
 4919POPC   PO464548  14.706  42.870   5.693
 4919POPC   GL164549  14.294  43.005   5.844
 4919POPC   GL264550  14.248  43.370   5.739
 4919POPC   C1A64551  14.140  42.878   6.275
 4919POPC   D2A64552  14.406  42.690   6.617
 4919POPC   C3A64553  14.419  42.934   7.008
 4919POPC   C4A64554  14.597  43.313   7.079
 4919POPC   C1B64555  14.372  43.364   6.212
 4919POPC   C2B64556  14.219  43.313   6.645
 4919POPC   C3B64557  14.157  43.534   7.014
 4919POPC   C4B64558  14.200  43.400   7.392
 4920POPC   NC364559  23.126  10.745   5.745
 4920POPC   PO464560  22.664  10.340   5.647
 4920POPC   GL164561  22.616  10.624   5.975
 4920POPC   GL264562  22.910  10.465   6.123
 4920POPC   C1A64563  22.614  10.712   6.450
 4920POPC   D2A64564  22.880  10.393   6.669
 4920POPC   C3A64565  23.059  10.527   7.049
 4920POPC   C4A64566  22.840  10.507   7.417
 4920POPC   C1B64567  23.226  10.199   6.319
 4920POPC   C2B64568  23.229   9.975   6.726
 4920POPC   C3B64569  23.350  10.055   7.172
 4920POPC   C4B64570  23.386  10.385   7.441
 4921POPC   NC364571  43.510  31.878   5.303
 4921POPC   PO464572  43.000  31.474   5.275
 4921POPC   GL164573  43.186  31.534   5.664
 4921POPC   GL264574  43.208  31.880   5.716
 4921POPC   C1A64575  43.345  31.290   6.025
 4921POPC   D2A64576  43.230  31.174   6.428
 4921POPC   C3A64577  43.278  31.360   6.825
 4921POPC   C4A64578  43.025  31.242   7.172
 4921POPC   C1B64579  43.519  31.763   6.048
 4921POPC   C2B64580  43.478  31.748   6.496
 4921POPC   C3B64581  43.263  31.855   6.882
 4921POPC   C4B64582  43.059  31.717   7.268
 4922POPC   NC364583   6.969  32.557   5.460
 4922POPC   PO464584   6.723  31.957   5.519
 4922POPC   GL164585   6.728  32.266   5.809
 4922POPC   GL264586   6.440  32.140   5.943
 4922POPC   C1A64587   6.917  32.477   6.162
 4922POPC   D2A64588   6.901  32.318   6.577
 4922POPC   C3A64589   6.654  32.395   6.921
 4922POPC   C4A64590   6.892  32.301   7.290
 4922POPC   C1B64591   6.431  32.244   6.350
 4922POPC   C2B64592   6.551  31.948   6.616
 4922POPC   C3B64593   6.351  31.838   6.937
 4922POPC   C4B64594   6.442  32.068   7.242
 4923POPC   NC364595   3.786  22.402   5.371
 4923POPC   PO464596   3.369  21.868   5.522
 4923POPC   GL164597   3.725  22.105   5.779
 4923POPC   GL264598   3.504  22.386   5.857
 4923POPC   C1A64599   3.850  22.267   6.209
 4923POPC   D2A64600   3.545  22.384   6.519
 4923POPC   C3A64601   3.670  22.462   6.954
 4923POPC   C4A64602   3.328  22.351   7.242
 4923POPC   C1B64603   3.415  21.999   6.156
 4923POPC   C2B64604   3.651  21.850   6.490
 4923POPC   C3B64605   3.517  21.977   6.856
 4923POPC   C4B64606   3.690  22.005   7.194
 4924POPC   NC364607  18.675  11.800   5.637
 4924POPC   PO464608  19.162  12.312   5.289
 4924POPC   GL164609  19.037  12.159   5.681
 4924POPC   GL264610  19.339  12.130   5.800
 4924POPC   C1A64611  18.899  12.242   6.127
 4924POPC   D2A64612  18.860  12.021   6.519
 4924POPC   C3A64613  19.000  12.152   6.914
 4924POPC   C4A64614  18.867  11.954   7.295
 4924POPC   C1B64615  19.208  11.834   6.107
 4924POPC   C2B64616  19.234  11.672   6.527
 4924POPC   C3B64617  19.048  11.658   6.928
 4924POPC   C4B64618  19.250  11.613   7.348
 4925POPC   NC364619   1.842  34.864   5.369
 4925POPC   PO464620   2.376  35.392   5.330
 4925POPC   GL164621   2.173  35.248   5.732
 4925POPC   GL264622   1.924  35.027   5.847
 4925POPC   C1A64623   2.129  35.426   6.156
 4925POPC   D2A64624   2.206  35.349   6.596
 4925POPC   C3A64625   1.935  35.474   6.932
 4925POPC   C4A64626   2.062  35.549   7.339
 4925POPC   C1B64627   1.650  35.231   6.126
 4925POPC   C2B64628   1.720  35.154   6.546
 4925POPC   C3B64629   1.610  35.059   6.951
 4925POPC   C4B64630   1.954  35.019   7.225
 4926POPC   NC364631   9.856  30.995   5.304
 4926POPC   PO464632   9.446  31.466   5.498
 4926POPC   GL164633   9.739  31.481   5.829
 4926POPC   GL264634   9.848  31.787   5.796
 4926POPC   C1A64635   9.617  31.583   6.246
 4926POPC   D2A64636   9.384  31.341   6.493
 4926POPC   C3A64637   9.467  31.366   6.905
 4926POPC   C4A64638   9.383  31.360   7.328
 4926POPC   C1B64639   9.943  31.972   6.216
 4926POPC   C2B64640   9.841  31.858   6.665
 4926POPC   C3B64641  10.074  31.979   7.057
 4926POPC   C4B64642  10.158  31.888   7.519
 4927POPC   NC364643   7.927  37.168   5.684
 4927POPC   PO464644   8.425  36.805   5.435
 4927POPC   GL164645   8.356  36.751   5.846
 4927POPC   GL264646   8.021  36.641   5.847
 4927POPC   C1A64647   8.359  36.494   6.200
 4927POPC   D2A64648   8.169  36.474   6.582
 4927POPC   C3A64649   8.173  36.790   6.858
 4927POPC   C4A64650   8.110  36.654   7.248
 4927POPC   C1B64651   8.020  36.885   6.275
 4927POPC   C2B64652   7.824  37.091   6.639
 4927POPC   C3B64653   7.707  36.930   7.056
 4927POPC   C4B64654   7.846  37.000   7.479
 4928POPC   NC364655   1.651  23.668   5.389
 4928POPC   PO464656   2.288  23.747   5.333
 4928POPC   GL164657   2.098  23.679   5.734
 4928POPC   GL264658   1.972  24.002   5.799
 4928POPC   C1A64659   2.027  23.630   6.194
 4928POPC   D2A64660   1.933  23.805   6.617
 4928POPC   C3A64661   2.032  23.557   6.987
 4928POPC   C4A64662   2.133  23.665   7.415
 4928POPC   C1B64663   2.177  24.148   6.196
 4928POPC   C2B64664   2.165  24.264   6.656
 4928POPC   C3B64665   2.048  24.064   7.079
 4928POPC   C4B64666   1.820  24.052   7.524
 4929POPC   NC364667  38.246  19.216   5.408
 4929POPC   PO464668  38.822  19.047   5.614
 4929POPC   GL164669  38.430  19.061   5.894
 4929POPC   GL264670  38.181  19.391   5.891
 4929POPC   C1A64671  38.313  18.846   6.301
 4929POPC   D2A64672  38.407  19.020   6.730
 4929POPC   C3A64673  38.192  18.851   7.131
 4929POPC   C4A64674  38.379  18.782   7.576
 4929POPC   C1B64675  38.302  19.360   6.342
 4929POPC   C2B64676  38.180  19.467   6.768
 4929POPC   C3B64677  38.236  19.420   7.246
 4929POPC   C4B64678  38.141  19.596   7.670
 4930POPC   NC364679  37.652  38.852   5.505
 4930POPC   PO464680  37.464  38.200   5.333
 4930POPC   GL164681  37.538  38.417   5.742
 4930POPC   GL264682  37.281  38.250   5.848
 4930POPC   C1A64683  37.623  38.590   6.201
 4930POPC   D2A64684  37.810  38.579   6.657
 4930POPC   C3A64685  37.591  38.534   7.057
 4930POPC   C4A64686  37.699  38.364   7.474
 4930POPC   C1B64687  37.341  38.157   6.282
 4930POPC   C2B64688  37.531  38.143   6.708
 4930POPC   C3B64689  37.474  37.995   7.162
 4930POPC   C4B64690  37.521  37.933   7.647
 4931POPC   NC364691   8.030  39.659   5.330
 4931POPC   PO464692   8.276  40.294   5.314
 4931POPC   GL164693   8.122  40.042   5.690
 4931POPC   GL264694   8.317  39.711   5.779
 4931POPC   C1A64695   8.072  39.967   6.149
 4931POPC   D2A64696   8.304  39.981   6.547
 4931POPC   C3A64697   8.124  39.801   6.915
 4931POPC   C4A64698   8.228  39.913   7.342
 4931POPC   C1B64699   8.591  39.749   6.173
 4931POPC   C2B64700   8.748  39.678   6.610
 4931POPC   C3B64701   8.633  39.788   7.049
 4931POPC   C4B64702   8.593  39.662   7.555
 4932POPC   NC364703  26.867  26.860   5.419
 4932POPC   PO464704  27.274  26.527   5.753
 4932POPC   GL164705  26.867  26.588   5.953
 4932POPC   GL264706  26.750  26.931   5.930
 4932POPC   C1A64707  26.798  26.536   6.416
 4932POPC   D2A64708  26.981  26.789   6.764
 4932POPC   C3A64709  26.905  26.617   7.163
 4932POPC   C4A64710  27.079  26.545   7.584
 4932POPC   C1B64711  26.466  26.899   6.311
 4932POPC   C2B64712  26.482  26.904   6.794
 4932POPC   C3B64713  26.736  27.110   7.134
 4932POPC   C4B64714  26.649  27.216   7.590
 4933POPC   NC364715  22.040  25.598   5.581
 4933POPC   PO464716  22.256  26.212   5.569
 4933POPC   GL164717  22.131  25.984   5.900
 4933POPC   GL264718  21.795  26.069   5.967
 4933POPC   C1A64719  22.260  26.080   6.297
 4933POPC   D2A64720  22.154  26.392   6.577
 4933POPC   C3A64721  22.268  26.235   6.932
 4933POPC   C4A64722  22.202  26.306   7.343
 4933POPC   C1B64723  21.865  25.753   6.289
 4933POPC   C2B64724  22.062  25.767   6.709
 4933POPC   C3B64725  21.989  25.829   7.152
 4933POPC   C4B64726  21.670  25.941   7.435
 4934POPC   NC364727  19.952  43.708   5.458
 4934POPC   PO464728  20.062  44.335   5.447
 4934POPC   GL164729  20.025  44.063   5.824
 4934POPC   GL264730  19.805  43.789   5.922
 4934POPC   C1A64731  20.148  43.924   6.253
 4934POPC   D2A64732  19.912  43.867   6.615
 4934POPC   C3A64733  20.093  43.944   7.004
 4934POPC   C4A64734  19.996  43.807   7.417
 4934POPC   C1B64735  19.623  44.085   6.199
 4934POPC   C2B64736  19.506  44.364   6.538
 4934POPC   C3B64737  19.340  44.302   6.943
 4934POPC   C4B64738  19.595  44.030   7.190
 4935POPC   NC364739  14.076  31.878   5.552
 4935POPC   PO464740  14.381  32.474   5.342
 4935POPC   GL164741  14.332  32.289   5.741
 4935POPC   GL264742  14.659  32.184   5.772
 4935POPC   C1A64743  14.240  32.298   6.175
 4935POPC   D2A64744  14.476  32.364   6.554
 4935POPC   C3A64745  14.420  32.222   6.959
 4935POPC   C4A64746  14.209  32.462   7.252
 4935POPC   C1B64747  14.706  32.049   6.218
 4935POPC   C2B64748  14.911  32.098   6.655
 4935POPC   C3B64749  14.897  32.089   7.133
 4935POPC   C4B64750  14.616  32.042   7.477
 4936POPC   NC364751  29.444  12.962   5.452
 4936POPC   PO464752  28.944  12.638   5.306
 4936POPC   GL164753  28.968  12.835   5.716
 4936POPC   GL264754  28.804  12.606   5.956
 4936POPC   C1A64755  29.201  12.960   6.094
 4936POPC   D2A64756  29.379  12.763   6.465
 4936POPC   C3A64757  29.429  13.021   6.805
 4936POPC   C4A64758  29.435  13.093   7.239
 4936POPC   C1B64759  28.775  12.861   6.345
 4936POPC   C2B64760  28.931  12.823   6.719
 4936POPC   C3B64761  29.023  12.828   7.093
 4936POPC   C4B64762  28.843  13.138   7.235
 4937POPC   NC364763  39.665   3.416   5.398
 4937POPC   PO464764  40.151   3.807   5.067
 4937POPC   GL164765  40.269   3.732   5.578
 4937POPC   GL264766  39.978   3.573   5.785
 4937POPC   C1A64767  40.381   3.670   6.070
 4937POPC   D2A64768  40.159   3.446   6.457
 4937POPC   C3A64769  40.243   3.572   6.910
 4937POPC   C4A64770  40.329   3.636   7.333
 4937POPC   C1B64771  39.723   3.350   6.091
 4937POPC   C2B64772  39.537   3.403   6.482
 4937POPC   C3B64773  39.746   3.541   6.838
 4937POPC   C4B64774  39.887   3.357   7.245
 4938POPC   NC364775   5.450  19.881   5.550
 4938POPC   PO464776   6.147  19.793   5.436
 4938POPC   GL164777   6.163  19.884   5.857
 4938POPC   GL264778   5.817  19.775   5.906
 4938POPC   C1A64779   6.059  19.968   6.302
 4938POPC   D2A64780   5.717  20.205   6.519
 4938POPC   C3A64781   5.548  20.104   6.911
 4938POPC   C4A64782   5.808  20.158   7.252
 4938POPC   C1B64783   5.645  19.683   6.334
 4938POPC   C2B64784   5.854  19.737   6.741
 4938POPC   C3B64785   5.934  19.638   7.156
 4938POPC   C4B64786   5.729  19.394   7.486
 4939POPC   NC364787  35.784  14.473   5.574
 4939POPC   PO464788  36.411  14.317   5.473
 4939POPC   GL164789  36.274  14.269   5.889
 4939POPC   GL264790  35.960  14.122   5.890
 4939POPC   C1A64791  36.234  14.223   6.347
 4939POPC   D2A64792  36.112  14.438   6.696
 4939POPC   C3A64793  36.242  14.212   6.988
 4939POPC   C4A64794  36.537  14.089   7.247
 4939POPC   C1B64795  35.801  13.976   6.269
 4939POPC   C2B64796  35.930  13.918   6.693
 4939POPC   C3B64797  35.718  14.090   7.043
 4939POPC   C4B64798  35.861  14.488   7.183
 4940POPC   NC364799  38.540  13.892   5.415
 4940POPC   PO464800  38.757  13.292   5.677
 4940POPC   GL164801  38.623  13.675   5.905
 4940POPC   GL264802  38.319  13.820   5.866
 4940POPC   C1A64803  38.650  13.599   6.340
 4940POPC   D2A64804  38.662  13.311   6.710
 4940POPC   C3A64805  38.522  13.526   7.080
 4940POPC   C4A64806  38.572  13.439   7.524
 4940POPC   C1B64807  38.424  14.048   6.209
 4940POPC   C2B64808  38.512  13.993   6.638
 4940POPC   C3B64809  38.550  14.049   7.069
 4940POPC   C4B64810  38.310  13.887   7.385
 4941POPC   NC364811  23.837   4.916   5.482
 4941POPC   PO464812  23.767   5.539   5.524
 4941POPC   GL164813  23.517   5.383   5.915
 4941POPC   GL264814  23.641   5.039   5.937
 4941POPC   C1A64815  23.378   5.144   6.343
 4941POPC   D2A64816  23.634   4.957   6.699
 4941POPC   C3A64817  23.728   5.174   7.089
 4941POPC   C4A64818  23.886   5.432   7.428
 4941POPC   C1B64819  23.901   5.201   6.304
 4941POPC   C2B64820  24.080   5.260   6.729
 4941POPC   C3B64821  24.254   5.188   7.150
 4941POPC   C4B64822  24.322   5.195   7.600
 4942POPC   NC364823  32.455  30.698   5.432
 4942POPC   PO464824  31.876  30.371   5.525
 4942POPC   GL164825  32.202  30.559   5.842
 4942POPC   GL264826  32.582  30.482   5.878
 4942POPC   C1A64827  32.312  30.705   6.237
 4942POPC   D2A64828  32.028  30.869   6.518
 4942POPC   C3A64829  32.154  30.743   6.902
 4942POPC   C4A64830  31.941  30.830   7.268
 4942POPC   C1B64831  32.747  30.380   6.277
 4942POPC   C2B64832  32.742  30.654   6.624
 4942POPC   C3B64833  32.715  30.610   7.057
 4942POPC   C4B64834  32.335  30.522   7.323
 4943POPC   NC364835  22.569  38.734   5.375
 4943POPC   PO464836  22.851  38.137   5.573
 4943POPC   GL164837  22.858  38.573   5.774
 4943POPC   GL264838  22.511  38.600   5.854
 4943POPC   C1A64839  22.992  38.620   6.202
 4943POPC   D2A64840  22.960  38.235   6.473
 4943POPC   C3A64841  22.946  38.311   6.906
 4943POPC   C4A64842  23.126  38.580   7.191
 4943POPC   C1B64843  22.513  38.490   6.265
 4943POPC   C2B64844  22.604  38.633   6.640
 4943POPC   C3B64845  22.516  38.512   7.050
 4943POPC   C4B64846  22.641  38.805   7.319
 4944POPC   NC364847  20.161  38.603   5.429
 4944POPC   PO464848  19.709  38.102   5.456
 4944POPC   GL164849  19.696  38.354   5.824
 4944POPC   GL264850  19.975  38.514   5.882
 4944POPC   C1A64851  19.587  38.490   6.233
 4944POPC   D2A64852  19.507  38.320   6.614
 4944POPC   C3A64853  19.773  38.498   6.931
 4944POPC   C4A64854  19.698  38.372   7.390
 4944POPC   C1B64855  20.134  38.788   6.154
 4944POPC   C2B64856  19.953  38.893   6.536
 4944POPC   C3B64857  20.180  38.808   6.889
 4944POPC   C4B64858  20.070  38.722   7.276
 4945POPC   NC364859   6.945  10.793   5.251
 4945POPC   PO464860   6.707  10.195   5.316
 4945POPC   GL164861   6.642  10.559   5.620
 4945POPC   GL264862   6.973  10.565   5.722
 4945POPC   C1A64863   6.445  10.701   6.044
 4945POPC   D2A64864   6.388  10.371   6.397
 4945POPC   C3A64865   6.448  10.460   6.862
 4945POPC   C4A64866   6.364  10.709   7.244
 4945POPC   C1B64867   6.841  10.390   6.117
 4945POPC   C2B64868   6.873  10.514   6.562
 4945POPC   C3B64869   6.940  10.504   7.029
 4945POPC   C4B64870   6.806  10.408   7.471
 4946POPC   NC364871  39.525  26.238   5.251
 4946POPC   PO464872  39.021  26.097   5.486
 4946POPC   GL164873  39.176  26.029   5.954
 4946POPC   GL264874  39.211  25.680   6.013
 4946POPC   C1A64875  39.239  25.980   6.453
 4946POPC   D2A64876  39.396  25.812   6.890
 4946POPC   C3A64877  39.175  25.995   7.260
 4946POPC   C4A64878  39.006  26.286   7.504
 4946POPC   C1B64879  39.359  25.484   6.409
 4946POPC   C2B64880  39.052  25.468   6.718
 4946POPC   C3B64881  38.859  25.788   6.934
 4946POPC   C4B64882  38.693  25.772   7.334
 4947POPC   NC364883   3.370   2.357   5.418
 4947POPC   PO464884   3.441   1.622   5.370
 4947POPC   GL164885   3.689   1.851   5.659
 4947POPC   GL264886   3.573   2.161   5.849
 4947POPC   C1A64887   3.764   1.709   6.071
 4947POPC   D2A64888   3.585   1.922   6.421
 4947POPC   C3A64889   3.726   1.800   6.821
 4947POPC   C4A64890   3.751   2.132   7.153
 4947POPC   C1B64891   3.185   2.154   6.089
 4947POPC   C2B64892   3.178   2.305   6.506
 4947POPC   C3B64893   3.293   2.089   6.853
 4947POPC   C4B64894   3.245   2.224   7.245
 4948POPC   NC364895  22.022  12.501   5.582
 4948POPC   PO464896  22.448  11.935   5.401
 4948POPC   GL164897  22.278  11.996   5.817
 4948POPC   GL264898  21.964  11.829   5.814
 4948POPC   C1A64899  22.381  12.174   6.238
 4948POPC   D2A64900  22.280  12.491   6.612
 4948POPC   C3A64901  22.369  12.311   7.023
 4948POPC   C4A64902  22.458  11.864   7.111
 4948POPC   C1B64903  21.812  11.867   6.222
 4948POPC   C2B64904  22.037  11.992   6.567
 4948POPC   C3B64905  21.957  11.974   6.947
 4948POPC   C4B64906  21.641  11.747   7.122
 4949POPC   NC364907  34.726  22.429   5.501
 4949POPC   PO464908  34.302  21.937   5.491
 4949POPC   GL164909  34.466  22.067   5.876
 4949POPC   GL264910  34.851  22.127   5.916
 4949POPC   C1A64911  34.243  22.120   6.267
 4949POPC   D2A64912  34.448  22.092   6.645
 4949POPC   C3A64913  34.284  22.292   6.992
 4949POPC   C4A64914  34.472  22.068   7.343
 4949POPC   C1B64915  34.621  22.464   6.180
 4949POPC   C2B64916  34.644  22.561   6.625
 4949POPC   C3B64917  34.791  22.322   7.015
 4949POPC   C4B64918  34.757  22.462   7.451
 4950POPC   NC364919  30.586  23.517   5.140
 4950POPC   PO464920  30.717  22.802   5.273
 4950POPC   GL164921  30.738  22.786   5.709
 4950POPC   GL264922  30.511  22.556   5.836
 4950POPC   C1A64923  30.847  22.931   6.126
 4950POPC   D2A64924  31.014  22.851   6.553
 4950POPC   C3A64925  30.857  23.127   6.892
 4950POPC   C4A64926  30.488  23.097   7.148
 4950POPC   C1B64927  30.409  22.695   6.246
 4950POPC   C2B64928  30.465  22.886   6.629
 4950POPC   C3B64929  30.213  22.725   6.930
 4950POPC   C4B64930  30.265  22.617   7.336
 4951POPC   NC364931   5.265  14.534   5.481
 4951POPC   PO464932   4.631  14.733   5.518
 4951POPC   GL164933   4.857  14.532   5.801
 4951POPC   GL264934   4.861  14.201   5.671
 4951POPC   C1A64935   5.152  14.571   6.136
 4951POPC   D2A64936   5.358  14.387   6.481
 4951POPC   C3A64937   5.096  14.437   6.842
 4951POPC   C4A64938   5.092  14.641   7.220
 4951POPC   C1B64939   4.856  14.103   6.118
 4951POPC   C2B64940   5.047  13.971   6.503
 4951POPC   C3B64941   5.317  13.988   6.847
 4951POPC   C4B64942   5.261  14.134   7.262
 4952POPC   NC364943  17.416  38.239   5.348
 4952POPC   PO464944  17.593  38.874   5.471
 4952POPC   GL164945  17.426  38.565   5.793
 4952POPC   GL264946  17.601  38.201   5.815
 4952POPC   C1A64947  17.559  38.538   6.252
 4952POPC   D2A64948  17.897  38.425   6.598
 4952POPC   C3A64949  17.764  38.350   7.068
 4952POPC   C4A64950  17.513  38.675   7.317
 4952POPC   C1B64951  17.421  38.027   6.192
 4952POPC   C2B64952  17.369  38.219   6.603
 4952POPC   C3B64953  17.266  38.423   6.962
 4952POPC   C4B64954  17.295  38.201   7.358
 4953POPC   NC364955  20.418  25.773   5.382
 4953POPC   PO464956  20.565  26.451   5.359
 4953POPC   GL164957  20.467  26.161   5.711
 4953POPC   GL264958  20.763  25.965   5.764
 4953POPC   C1A64959  20.444  26.252   6.146
 4953POPC   D2A64960  20.594  26.390   6.536
 4953POPC   C3A64961  20.532  26.119   6.882
 4953POPC   C4A64962  20.304  26.206   7.219
 4953POPC   C1B64963  20.575  25.760   6.108
 4953POPC   C2B64964  20.425  25.779   6.531
 4953POPC   C3B64965  20.280  25.701   7.011
 4953POPC   C4B64966  20.450  25.786   7.463
 4954POPC   NC364967  42.222   3.973   5.368
 4954POPC   PO464968  42.395   3.319   5.406
 4954POPC   GL164969  42.445   3.621   5.720
 4954POPC   GL264970  42.734   3.873   5.718
 4954POPC   C1A64971  42.240   3.483   6.112
 4954POPC   D2A64972  42.179   3.244   6.493
 4954POPC   C3A64973  42.090   3.536   6.799
 4954POPC   C4A64974  42.086   3.569   7.235
 4954POPC   C1B64975  42.713   3.673   6.152
 4954POPC   C2B64976  42.548   3.680   6.587
 4954POPC   C3B64977  42.599   3.620   7.058
 4954POPC   C4B64978  42.477   3.796   7.477
 4955POPC   NC364979  32.441  26.425   5.404
 4955POPC   PO464980  32.588  25.859   5.202
 4955POPC   GL164981  32.454  25.998   5.683
 4955POPC   GL264982  32.698  26.166   5.820
 4955POPC   C1A64983  32.186  26.051   6.085
 4955POPC   D2A64984  32.037  25.925   6.536
 4955POPC   C3A64985  32.165  26.070   6.939
 4955POPC   C4A64986  32.272  25.796   7.218
 4955POPC   C1B64987  32.671  26.083   6.251
 4955POPC   C2B64988  32.447  26.314   6.576
 4955POPC   C3B64989  32.623  26.338   6.986
 4955POPC   C4B64990  32.712  26.004   7.274
 4956POPC   NC364991   0.949   3.238   5.256
 4956POPC   PO464992   1.214   3.865   5.278
 4956POPC   GL164993   1.014   3.617   5.612
 4956POPC   GL264994   1.134   3.305   5.728
 4956POPC   C1A64995   1.024   3.654   6.085
 4956POPC   D2A64996   1.188   3.600   6.528
 4956POPC   C3A64997   1.179   3.738   6.984
 4956POPC   C4A64998   1.525   3.583   7.267
 4956POPC   C1B64999   1.279   3.184   6.136
 4956POPC   C2B65000   1.085   3.100   6.521
 4956POPC   C3B65001   1.247   3.217   6.906
 4956POPC   C4B65002   1.083   3.321   7.296
 4957POPC   NC365003   1.561  31.543   5.439
 4957POPC   PO465004   2.120  31.321   5.047
 4957POPC   GL165005   2.192  31.206   5.565
 4957POPC   GL265006   1.834  31.230   5.745
 4957POPC   C1A65007   2.197  31.292   6.081
 4957POPC   D2A65008   2.100  31.618   6.447
 4957POPC   C3A65009   2.129  31.561   6.928
 4957POPC   C4A65010   2.157  31.814   7.320
 4957POPC   C1B65011   1.592  31.177   6.148
 4957POPC   C2B65012   1.607  31.106   6.632
 4957POPC   C3B65013   1.696  31.274   7.073
 4957POPC   C4B65014   1.877  31.409   7.492
 4958POPC   NC365015  22.319  14.675   5.558
 4958POPC   PO465016  21.817  14.201   5.354
 4958POPC   GL165017  22.073  14.244   5.758
 4958POPC   GL265018  21.953  14.507   5.845
 4958POPC   C1A65019  22.299  14.399   6.183
 4958POPC   D2A65020  22.560  14.432   6.551
 4958POPC   C3A65021  22.369  14.409   6.954
 4958POPC   C4A65022  22.519  14.266   7.401
 4958POPC   C1B65023  21.804  14.267   6.201
 4958POPC   C2B65024  21.956  14.318   6.598
 4958POPC   C3B65025  21.786  14.279   6.987
 4958POPC   C4B65026  22.022  14.392   7.308
 4959POPC   NC365027   0.331   2.499   5.525
 4959POPC   PO465028   0.914   2.782   5.206
 4959POPC   GL165029   0.759   2.813   5.654
 4959POPC   GL265030   0.638   3.148   5.699
 4959POPC   C1A65031   0.489   2.769   6.092
 4959POPC   D2A65032   0.276   2.640   6.515
 4959POPC   C3A65033   0.460   2.713   6.915
 4959POPC   C4A65034   0.669   2.517   7.265
 4959POPC   C1B65035   0.740   3.222   6.132
 4959POPC   C2B65036   0.573   3.096   6.536
 4959POPC   C3B65037   0.743   3.134   6.940
 4959POPC   C4B65038   0.624   3.054   7.315
 4960POPC   NC365039  34.648  40.372   5.331
 4960POPC   PO465040  34.708  39.741   5.425
 4960POPC   GL165041  34.650  40.040   5.745
 4960POPC   GL265042  34.962  40.190   5.692
 4960POPC   C1A65043  34.428  40.255   6.121
 4960POPC   D2A65044  34.307  40.377   6.562
 4960POPC   C3A65045  34.331  40.034   6.854
 4960POPC   C4A65046  34.438  40.022   7.273
 4960POPC   C1B65047  34.952  40.124   6.142
 4960POPC   C2B65048  34.749  40.091   6.542
 4960POPC   C3B65049  34.832  40.138   6.978
 4960POPC   C4B65050  35.191  40.199   7.209
 4961POPC   NC365051   4.440  44.046   5.430
 4961POPC   PO465052   4.062  43.449   5.503
 4961POPC   GL165053   4.198  43.661   5.845
 4961POPC   GL265054   4.515  43.844   5.864
 4961POPC   C1A65055   4.326  43.608   6.259
 4961POPC   D2A65056   4.118  43.589   6.652
 4961POPC   C3A65057   4.360  43.649   6.986
 4961POPC   C4A65058   4.183  43.706   7.372
 4961POPC   C1B65059   4.279  44.096   6.127
 4961POPC   C2B65060   4.305  44.048   6.542
 4961POPC   C3B65061   4.628  44.084   6.888
 4961POPC   C4B65062   4.560  44.027   7.299
 4962POPC   NC365063  21.680  39.190   5.382
 4962POPC   PO465064  21.013  38.935   5.434
 4962POPC   GL165065  21.142  39.048   5.895
 4962POPC   GL265066  21.441  39.277   5.861
 4962POPC   C1A65067  21.194  39.245   6.309
 4962POPC   D2A65068  21.088  39.021   6.662
 4962POPC   C3A65069  21.255  39.246   6.960
 4962POPC   C4A65070  21.016  39.237   7.280
 4962POPC   C1B65071  21.607  38.978   6.214
 4962POPC   C2B65072  21.745  39.037   6.650
 4962POPC   C3B65073  21.697  39.004   7.104
 4962POPC   C4B65074  21.592  39.369   7.345
 4963POPC   NC365075  22.319   7.941   5.560
 4963POPC   PO465076  22.542   7.383   5.199
 4963POPC   GL165077  22.410   7.447   5.696
 4963POPC   GL265078  22.599   7.526   5.909
 4963POPC   C1A65079  22.258   7.180   6.073
 4963POPC   D2A65080  22.245   7.138   6.539
 4963POPC   C3A65081  22.074   7.437   6.853
 4963POPC   C4A65082  21.833   7.446   7.272
 4963POPC   C1B65083  22.297   7.686   6.170
 4963POPC   C2B65084  22.492   7.635   6.531
 4963POPC   C3B65085  22.548   7.679   6.945
 4963POPC   C4B65086  22.332   7.529   7.286
 4964POPC   NC365087  16.345  43.952   5.606
 4964POPC   PO465088  16.858  44.093   5.198
 4964POPC   GL165089  16.860  43.904   5.611
 4964POPC   GL265090  16.768  44.234   5.698
 4964POPC   C1A65091  16.821  43.812   6.073
 4964POPC   D2A65092  16.587  43.650   6.457
 4964POPC   C3A65093  16.685  43.797   6.855
 4964POPC   C4A65094  16.784  43.898   7.251
 4964POPC   C1B65095  16.944  44.306   6.079
 4964POPC   C2B65096  16.894  44.165   6.482
 4964POPC   C3B65097  16.812  44.356   6.852
 4964POPC   C4B65098  17.006  44.353   7.224
 4965POPC   NC365099  21.122   1.404   5.334
 4965POPC   PO465100  21.743   1.058   5.333
 4965POPC   GL165101  21.409   1.159   5.694
 4965POPC   GL265102  21.069   0.987   5.656
 4965POPC   C1A65103  21.332   1.331   6.126
 4965POPC   D2A65104  21.384   1.554   6.529
 4965POPC   C3A65105  21.503   1.262   6.845
 4965POPC   C4A65106  21.590   1.367   7.242
 4965POPC   C1B65107  20.861   1.143   6.032
 4965POPC   C2B65108  20.912   1.321   6.462
 4965POPC   C3B65109  21.014   1.382   6.893
 4965POPC   C4B65110  21.174   1.022   7.167
 4966POPC   NC365111   3.860  20.816   5.327
 4966POPC   PO465112   4.302  20.298   5.194
 4966POPC   GL165113   4.483  20.493   5.609
 4966POPC   GL265114   4.226  20.726   5.729
 4966POPC   C1A65115   4.542  20.507   6.100
 4966POPC   D2A65116   4.557  20.657   6.555
 4966POPC   C3A65117   4.550  20.432   6.947
 4966POPC   C4A65118   4.451  20.601   7.381
 4966POPC   C1B65119   4.052  20.625   6.146
 4966POPC   C2B65120   3.919  20.700   6.553
 4966POPC   C3B65121   4.112  20.726   6.959
 4966POPC   C4B65122   3.855  20.704   7.273
 4967POPC   NC365123   0.216  13.825   5.413
 4967POPC   PO465124  44.664  13.307   5.151
 4967POPC   GL165125  44.735  13.281   5.615
 4967POPC   GL265126  44.573  13.582   5.715
 4967POPC   C1A65127  44.647  13.243   6.095
 4967POPC   D2A65128  44.590  13.134   6.547
 4967POPC   C3A65129  44.708  13.396   6.884
 4967POPC   C4A65130  44.744  13.286   7.296
 4967POPC   C1B65131  44.553  13.757   6.123
 4967POPC   C2B65132  44.419  13.613   6.514
 4967POPC   C3B65133  44.372  13.811   6.886
 4967POPC   C4B65134  44.479  13.704   7.267
 4968POPC   NC365135  26.197   7.774   5.552
 4968POPC   PO465136  25.758   8.217   5.237
 4968POPC   GL165137  25.926   8.206   5.702
 4968POPC   GL265138  26.077   7.984   5.978
 4968POPC   C1A65139  26.020   8.493   6.061
 4968POPC   D2A65140  25.901   8.604   6.489
 4968POPC   C3A65141  25.653   8.448   6.860
 4968POPC   C4A65142  25.828   8.237   7.242
 4968POPC   C1B65143  26.122   8.032   6.381
 4968POPC   C2B65144  26.146   8.226   6.782
 4968POPC   C3B65145  26.319   8.064   7.154
 4968POPC   C4B65146  26.167   7.861   7.524
 4969POPC   NC365147  37.118   5.406   5.321
 4969POPC   PO465148  36.516   5.118   5.475
 4969POPC   GL165149  36.902   5.175   5.744
 4969POPC   GL265150  36.966   4.851   5.878
 4969POPC   C1A65151  37.103   5.258   6.182
 4969POPC   D2A65152  36.835   5.243   6.590
 4969POPC   C3A65153  36.980   5.348   6.990
 4969POPC   C4A65154  37.071   5.059   7.356
 4969POPC   C1B65155  36.677   4.981   6.192
 4969POPC   C2B65156  36.453   4.863   6.563
 4969POPC   C3B65157  36.660   4.859   6.941
 4969POPC   C4B65158  36.656   4.499   7.173
 4970POPC   NC365159   5.459  30.335   5.290
 4970POPC   PO465160   5.979  30.782   5.214
 4970POPC   GL165161   5.742  30.929   5.620
 4970POPC   GL265162   5.671  30.614   5.825
 4970POPC   C1A65163   5.751  31.036   6.099
 4970POPC   D2A65164   5.670  30.856   6.501
 4970POPC   C3A65165   5.748  31.016   6.915
 4970POPC   C4A65166   5.576  30.949   7.347
 4970POPC   C1B65167   5.673  30.391   6.259
 4970POPC   C2B65168   5.640  30.378   6.733
 4970POPC   C3B65169   5.713  30.457   7.167
 4970POPC   C4B65170   6.084  30.416   7.452
 4971POPC   NC365171   2.457  34.091   5.313
 4971POPC   PO465172   3.186  34.062   5.211
 4971POPC   GL165173   2.972  33.891   5.647
 4971POPC   GL265174   2.621  33.889   5.748
 4971POPC   C1A65175   2.940  33.805   6.130
 4971POPC   D2A65176   2.581  33.690   6.444
 4971POPC   C3A65177   2.755  33.538   6.847
 4971POPC   C4A65178   3.044  33.798   7.113
 4971POPC   C1B65179   2.545  34.151   6.117
 4971POPC   C2B65180   2.454  34.209   6.554
 4971POPC   C3B65181   2.579  34.044   6.960
 4971POPC   C4B65182   2.414  34.133   7.374
 4972POPC   NC365183  41.091   5.780   5.473
 4972POPC   PO465184  41.666   6.082   5.391
 4972POPC   GL165185  41.564   6.048   5.828
 4972POPC   GL265186  41.341   5.749   5.920
 4972POPC   C1A65187  41.536   6.138   6.267
 4972POPC   D2A65188  41.517   5.904   6.667
 4972POPC   C3A65189  41.435   6.157   7.034
 4972POPC   C4A65190  41.410   6.097   7.509
 4972POPC   C1B65191  41.724   5.670   6.169
 4972POPC   C2B65192  41.876   5.504   6.559
 4972POPC   C3B65193  41.884   5.670   6.962
 4972POPC   C4B65194  41.528   5.703   7.229
 4973POPC   NC365195  13.694  24.255   5.031
 4973POPC   PO465196  13.304  24.421   5.561
 4973POPC   GL165197  13.278  24.264   5.913
 4973POPC   GL265198  13.594  24.228   6.052
 4973POPC   C1A65199  13.259  24.571   6.202
 4973POPC   D2A65200  13.530  24.532   6.509
 4973POPC   C3A65201  13.346  24.457   6.864
 4973POPC   C4A65202  13.562  24.546   7.223
 4973POPC   C1B65203  13.946  23.993   6.150
 4973POPC   C2B65204  14.007  23.931   6.562
 4973POPC   C3B65205  13.830  24.209   6.860
 4973POPC   C4B65206  13.933  24.134   7.272
 4974POPC   NC365207  40.031   7.116   5.466
 4974POPC   PO465208  39.645   7.743   5.693
 4974POPC   GL165209  39.972   7.475   5.837
 4974POPC   GL265210  39.823   7.145   5.914
 4974POPC   C1A65211  40.158   7.392   6.239
 4974POPC   D2A65212  39.978   7.445   6.652
 4974POPC   C3A65213  40.175   7.357   7.038
 4974POPC   C4A65214  40.034   7.718   7.256
 4974POPC   C1B65215  39.634   7.311   6.237
 4974POPC   C2B65216  39.512   7.228   6.616
 4974POPC   C3B65217  39.562   7.456   6.979
 4974POPC   C4B65218  39.701   7.288   7.338
 4975POPC   NC365219  20.281  29.979   5.365
 4975POPC   PO465220  20.561  29.428   5.333
 4975POPC   GL165221  20.718  29.787   5.657
 4975POPC   GL265222  20.436  29.921   5.850
 4975POPC   C1A65223  20.837  30.112   6.051
 4975POPC   D2A65224  20.704  29.954   6.469
 4975POPC   C3A65225  20.761  30.001   6.917
 4975POPC   C4A65226  20.780  29.652   7.163
 4975POPC   C1B65227  20.303  30.140   6.240
 4975POPC   C2B65228  20.361  30.252   6.723
 4975POPC   C3B65229  20.346  30.181   7.204
 4975POPC   C4B65230  20.345  30.301   7.667
 4976POPC   NC365231  35.079  39.661   5.154
 4976POPC   PO465232  35.179  39.084   5.483
 4976POPC   GL165233  35.316  39.004   5.853
 4976POPC   GL265234  35.068  38.743   5.913
 4976POPC   C1A65235  35.523  39.281   6.169
 4976POPC   D2A65236  35.710  39.212   6.580
 4976POPC   C3A65237  35.607  39.493   6.881
 4976POPC   C4A65238  35.521  39.420   7.308
 4976POPC   C1B65239  35.148  38.948   6.323
 4976POPC   C2B65240  35.183  39.314   6.586
 4976POPC   C3B65241  35.078  39.238   7.001
 4976POPC   C4B65242  34.883  39.325   7.366
 4977POPC   NC365243  23.658   6.747   5.394
 4977POPC   PO465244  23.221   6.236   5.537
 4977POPC   GL165245  23.527   6.444   5.848
 4977POPC   GL265246  23.844   6.676   5.844
 4977POPC   C1A65247  23.566   6.619   6.281
 4977POPC   D2A65248  23.673   6.495   6.709
 4977POPC   C3A65249  23.485   6.757   7.021
 4977POPC   C4A65250  23.458   6.780   7.474
 4977POPC   C1B65251  24.007   6.947   6.122
 4977POPC   C2B65252  24.046   6.782   6.497
 4977POPC   C3B65253  23.994   6.835   6.906
 4977POPC   C4B65254  23.846   7.050   7.229
 4978POPC   NC365255  15.201  41.875   5.615
 4978POPC   PO465256  15.368  41.348   5.194
 4978POPC   GL165257  15.376  41.380   5.697
 4978POPC   GL265258  15.071  41.474   5.915
 4978POPC   C1A65259  15.551  41.398   6.150
 4978POPC   D2A65260  15.478  41.559   6.594
 4978POPC   C3A65261  15.555  41.332   7.008
 4978POPC   C4A65262  15.229  41.237   7.330
 4978POPC   C1B65263  14.891  41.668   6.278
 4978POPC   C2B65264  15.023  41.838   6.655
 4978POPC   C3B65265  15.185  41.689   7.013
 4978POPC   C4B65266  15.089  41.738   7.406
 4979POPC   NC365267  31.420  30.394   5.525
 4979POPC   PO465268  31.215  31.006   5.445
 4979POPC   GL165269  31.430  30.907   5.845
 4979POPC   GL265270  31.697  30.685   5.868
 4979POPC   C1A65271  31.527  30.861   6.303
 4979POPC   D2A65272  31.325  30.649   6.614
 4979POPC   C3A65273  31.496  30.778   6.985
 4979POPC   C4A65274  31.486  30.614   7.370
 4979POPC   C1B65275  31.861  30.454   6.247
 4979POPC   C2B65276  31.799  30.424   6.706
 4979POPC   C3B65277  31.864  30.315   7.156
 4979POPC   C4B65278  31.913  30.425   7.602
 4980POPC   NC365279   4.342  18.493   5.411
 4980POPC   PO465280   4.450  17.868   5.320
 4980POPC   GL165281   4.309  18.058   5.698
 4980POPC   GL265282   3.935  18.091   5.684
 4980POPC   C1A65283   4.516  18.000   6.116
 4980POPC   D2A65284   4.335  18.083   6.516
 4980POPC   C3A65285   4.498  17.984   6.893
 4980POPC   C4A65286   4.388  18.155   7.251
 4980POPC   C1B65287   4.026  18.192   6.117
 4980POPC   C2B65288   4.085  18.520   6.446
 4980POPC   C3B65289   4.140  18.407   6.888
 4980POPC   C4B65290   4.185  18.596   7.329
 4981POPC   NC365291  41.599  43.336   5.414
 4981POPC   PO465292  41.504  42.735   5.445
 4981POPC   GL165293  41.464  43.008   5.778
 4981POPC   GL265294  41.174  43.159   5.661
 4981POPC   C1A65295  41.649  43.162   6.151
 4981POPC   D2A65296  41.817  42.972   6.539
 4981POPC   C3A65297  41.784  43.250   6.895
 4981POPC   C4A65298  41.762  43.205   7.322
 4981POPC   C1B65299  41.133  43.272   6.092
 4981POPC   C2B65300  41.285  43.204   6.523
 4981POPC   C3B65301  41.286  43.004   6.929
 4981POPC   C4B65302  41.263  43.188   7.344
 4982POPC   NC365303  26.723  15.124   5.378
 4982POPC   PO465304  27.268  15.498   5.479
 4982POPC   GL165305  27.021  15.244   5.794
 4982POPC   GL265306  26.682  15.111   5.899
 4982POPC   C1A65307  27.077  15.003   6.202
 4982POPC   D2A65308  26.808  15.006   6.584
 4982POPC   C3A65309  26.827  14.930   7.049
 4982POPC   C4A65310  26.441  14.944   7.296
 4982POPC   C1B65311  26.789  15.432   6.240
 4982POPC   C2B65312  26.606  15.526   6.640
 4982POPC   C3B65313  26.529  15.383   7.037
 4982POPC   C4B65314  26.720  15.347   7.439
 4983POPC   NC365315  26.972  15.783   5.687
 4983POPC   PO465316  27.517  15.890   5.186
 4983POPC   GL165317  27.578  15.859   5.664
 4983POPC   GL265318  27.833  16.131   5.760
 4983POPC   C1A65319  27.602  15.861   6.138
 4983POPC   D2A65320  27.920  15.871   6.497
 4983POPC   C3A65321  27.765  15.739   6.903
 4983POPC   C4A65322  27.519  15.886   7.248
 4983POPC   C1B65323  27.819  16.329   6.185
 4983POPC   C2B65324  27.733  16.325   6.649
 4983POPC   C3B65325  27.897  16.191   7.082
 4983POPC   C4B65326  27.778  16.202   7.556
 4984POPC   NC365327  20.398  12.369   5.357
 4984POPC   PO465328  20.727  11.824   5.341
 4984POPC   GL165329  20.653  12.066   5.692
 4984POPC   GL265330  20.342  11.894   5.737
 4984POPC   C1A65331  20.599  12.336   6.049
 4984POPC   D2A65332  20.366  12.387   6.446
 4984POPC   C3A65333  20.486  12.308   6.860
 4984POPC   C4A65334  20.300  12.505   7.242
 4984POPC   C1B65335  20.550  11.853   6.172
 4984POPC   C2B65336  20.577  11.821   6.637
 4984POPC   C3B65337  20.616  11.774   7.043
 4984POPC   C4B65338  20.346  11.986   7.224
 4985POPC   NC365339  29.198   9.479   5.457
 4985POPC   PO465340  28.914   8.769   5.346
 4985POPC   GL165341  28.994   8.790   5.772
 4985POPC   GL265342  29.138   9.106   5.797
 4985POPC   C1A65343  28.856   8.925   6.197
 4985POPC   D2A65344  28.899   8.782   6.625
 4985POPC   C3A65345  28.981   8.906   7.026
 4985POPC   C4A65346  29.376   8.778   7.144
 4985POPC   C1B65347  29.193   9.363   6.174
 4985POPC   C2B65348  29.138   9.271   6.590
 4985POPC   C3B65349  29.339   9.307   6.982
 4985POPC   C4B65350  29.238   9.608   7.285
 4986POPC   NC365351  29.325  35.943   5.389
 4986POPC   PO465352  29.303  35.223   5.271
 4986POPC   GL165353  29.279  35.316   5.737
 4986POPC   GL265354  29.136  35.638   5.810
 4986POPC   C1A65355  29.183  35.250   6.206
 4986POPC   D2A65356  29.359  35.244   6.624
 4986POPC   C3A65357  29.242  35.323   7.082
 4986POPC   C4A65358  29.468  35.530   7.443
 4986POPC   C1B65359  28.864  35.625   6.192
 4986POPC   C2B65360  28.892  35.489   6.622
 4986POPC   C3B65361  28.937  35.724   7.018
 4986POPC   C4B65362  28.621  35.695   7.303
 4987POPC   NC365363  34.045  26.167   5.333
 4987POPC   PO465364  33.488  25.797   5.480
 4987POPC   GL165365  33.696  26.113   5.721
 4987POPC   GL265366  33.982  25.881   5.780
 4987POPC   C1A65367  33.911  26.287   6.091
 4987POPC   D2A65368  33.901  26.407   6.527
 4987POPC   C3A65369  33.961  26.140   6.895
 4987POPC   C4A65370  33.718  26.181   7.263
 4987POPC   C1B65371  33.666  25.794   6.128
 4987POPC   C2B65372  33.505  25.697   6.559
 4987POPC   C3B65373  33.565  25.779   6.993
 4987POPC   C4B65374  33.926  25.721   7.283
 4988POPC   NC365375  15.199  15.440   5.184
 4988POPC   PO465376  14.705  15.051   5.377
 4988POPC   GL165377  14.981  15.217   5.686
 4988POPC   GL265378  14.994  14.902   5.814
 4988POPC   C1A65379  14.993  15.289   6.149
 4988POPC   D2A65380  15.259  15.526   6.412
 4988POPC   C3A65381  15.270  15.484   6.846
 4988POPC   C4A65382  15.231  15.285   7.213
 4988POPC   C1B65383  15.205  14.809   6.192
 4988POPC   C2B65384  15.297  15.018   6.565
 4988POPC   C3B65385  15.261  14.860   6.950
 4988POPC   C4B65386  15.093  14.627   7.266
 4989POPC   NC365387  27.691  24.718   5.464
 4989POPC   PO465388  27.246  24.237   5.461
 4989POPC   GL165389  27.530  24.361   5.803
 4989POPC   GL265390  27.431  24.688   5.891
 4989POPC   C1A65391  27.725  24.433   6.210
 4989POPC   D2A65392  27.639  24.577   6.602
 4989POPC   C3A65393  27.708  24.302   6.996
 4989POPC   C4A65394  27.933  24.238   7.434
 4989POPC   C1B65395  27.171  24.744   6.244
 4989POPC   C2B65396  27.202  24.837   6.702
 4989POPC   C3B65397  27.511  24.768   7.039
 4989POPC   C4B65398  27.529  24.549   7.406
 4990POPC   NC365399  32.398  15.164   5.220
 4990POPC   PO465400  33.049  15.200   5.398
 4990POPC   GL165401  32.697  15.186   5.683
 4990POPC   GL265402  32.650  14.846   5.783
 4990POPC   C1A65403  32.675  15.342   6.123
 4990POPC   D2A65404  32.817  15.532   6.524
 4990POPC   C3A65405  32.721  15.417   6.959
 4990POPC   C4A65406  33.001  15.290   7.272
 4990POPC   C1B65407  32.979  14.906   6.077
 4990POPC   C2B65408  33.075  14.742   6.485
 4990POPC   C3B65409  33.067  14.936   6.875
 4990POPC   C4B65410  32.815  14.824   7.218
 4991POPC   NC365411  16.473  14.128   5.515
 4991POPC   PO465412  16.947  14.461   5.186
 4991POPC   GL165413  16.839  14.419   5.685
 4991POPC   GL265414  17.059  14.363   5.867
 4991POPC   C1A65415  16.565  14.372   6.143
 4991POPC   D2A65416  16.338  14.254   6.581
 4991POPC   C3A65417  16.498  14.398   6.973
 4991POPC   C4A65418  16.643  14.306   7.406
 4991POPC   C1B65419  17.030  14.172   6.262
 4991POPC   C2B65420  16.950  14.433   6.609
 4991POPC   C3B65421  17.013  14.363   7.030
 4991POPC   C4B65422  17.197  14.241   7.432
 4992POPC   NC365423   9.009  26.089   5.355
 4992POPC   PO465424   9.188  25.446   5.507
 4992POPC   GL165425   9.224  25.749   5.843
 4992POPC   GL265426   9.105  26.101   5.853
 4992POPC   C1A65427   9.063  25.758   6.254
 4992POPC   D2A65428   8.807  25.684   6.617
 4992POPC   C3A65429   8.998  25.925   6.944
 4992POPC   C4A65430   9.232  25.725   7.262
 4992POPC   C1B65431   8.874  26.249   6.235
 4992POPC   C2B65432   8.675  26.191   6.634
 4992POPC   C3B65433   8.583  26.366   7.054
 4992POPC   C4B65434   8.605  26.317   7.529
 4993POPC   NC365435  24.984  38.305   4.978
 4993POPC   PO465436  25.488  38.229   5.430
 4993POPC   GL165437  25.289  38.426   5.780
 4993POPC   GL265438  25.038  38.203   5.959
 4993POPC   C1A65439  25.422  38.570   6.188
 4993POPC   D2A65440  25.380  38.384   6.593
 4993POPC   C3A65441  25.336  38.685   6.888
 4993POPC   C4A65442  25.006  38.747   7.187
 4993POPC   C1B65443  24.925  38.464   6.328
 4993POPC   C2B65444  24.905  38.430   6.785
 4993POPC   C3B65445  25.149  38.259   7.158
 4993POPC   C4B65446  24.955  38.102   7.569
 4994POPC   NC365447  34.995  44.830   5.582
 4994POPC   PO465448  35.624  44.719   5.510
 4994POPC   GL165449  35.431  44.597   5.847
 4994POPC   GL265450  35.466  44.247   5.755
 4994POPC   C1A65451  35.237  44.747   6.218
 4994POPC   D2A65452  35.388  44.879   6.637
 4994POPC   C3A65453  35.187  44.719   7.027
 4994POPC   C4A65454  35.364  44.668   7.453
 4994POPC   C1B65455  35.241  44.232   6.156
 4994POPC   C2B65456  35.411  44.369   6.558
 4994POPC   C3B65457  35.554  44.377   6.984
 4994POPC   C4B65458  35.673  44.260   7.386
 4995POPC   NC365459  31.002  30.280   5.039
 4995POPC   PO465460  30.524  29.848   5.360
 4995POPC   GL165461  30.686  29.833   5.786
 4995POPC   GL265462  30.971  30.067   5.785
 4995POPC   C1A65463  30.646  29.676   6.224
 4995POPC   D2A65464  30.700  29.853   6.637
 4995POPC   C3A65465  30.675  29.690   7.062
 4995POPC   C4A65466  30.297  29.794   7.280
 4995POPC   C1B65467  30.954  30.086   6.243
 4995POPC   C2B65468  30.914  30.327   6.643
 4995POPC   C3B65469  30.710  30.194   7.027
 4995POPC   C4B65470  30.655  30.125   7.452
 4996POPC   NC365471  22.760  11.575   5.323
 4996POPC   PO465472  23.211  11.177   5.627
 4996POPC   GL165473  23.019  11.273   5.960
 4996POPC   GL265474  22.710  11.112   5.858
 4996POPC   C1A65475  23.121  11.115   6.371
 4996POPC   D2A65476  23.210  11.319   6.773
 4996POPC   C3A65477  23.109  11.079   7.122
 4996POPC   C4A65478  23.159  10.897   7.502
 4996POPC   C1B65479  22.614  11.268   6.259
 4996POPC   C2B65480  22.706  11.208   6.661
 4996POPC   C3B65481  22.657  10.921   6.955
 4996POPC   C4B65482  22.613  11.192   7.288
 4997POPC   NC365483  30.158  16.031   5.398
 4997POPC   PO465484  29.530  16.112   5.552
 4997POPC   GL165485  29.670  15.866   5.886
 4997POPC   GL265486  30.017  15.932   5.867
 4997POPC   C1A65487  29.807  15.751   6.289
 4997POPC   D2A65488  30.013  15.952   6.606
 4997POPC   C3A65489  29.841  15.800   7.017
 4997POPC   C4A65490  29.728  15.811   7.467
 4997POPC   C1B65491  30.328  15.740   6.101
 4997POPC   C2B65492  30.493  15.781   6.516
 4997POPC   C3B65493  30.364  15.781   6.946
 4997POPC   C4B65494  30.213  15.895   7.353
 4998POPC   NC365495  37.038   8.048   5.450
 4998POPC   PO465496  36.500   7.936   5.503
 4998POPC   GL165497  36.793   8.151   5.887
 4998POPC   GL265498  37.120   8.389   5.852
 4998POPC   C1A65499  36.984   8.135   6.326
 4998POPC   D2A65500  36.912   7.957   6.754
 4998POPC   C3A65501  36.951   8.185   7.145
 4998POPC   C4A65502  36.761   8.319   7.535
 4998POPC   C1B65503  37.172   8.604   6.296
 4998POPC   C2B65504  37.016   8.526   6.740
 4998POPC   C3B65505  37.089   8.666   7.179
 4998POPC   C4B65506  37.305   8.492   7.549
 4999POPC   NC365507  20.759  44.764   5.130
 4999POPC   PO465508  21.398  44.832   5.394
 4999POPC   GL165509  21.408  44.666   5.800
 4999POPC   GL265510  21.102  44.717   5.842
 4999POPC   C1A65511  21.547  44.777   6.217
 4999POPC   D2A65512  21.702  44.561   6.580
 4999POPC   C3A65513  21.501  44.619   6.972
 4999POPC   C4A65514  21.604  44.876   7.324
 4999POPC   C1B65515  21.018  44.616   6.249
 4999POPC   C2B65516  21.146  44.802   6.618
 4999POPC   C3B65517  21.009  44.712   7.027
 4999POPC   C4B65518  21.181  44.602   7.421
 5000POPC   NC365519  24.386  20.882   5.338
 5000POPC   PO465520  24.842  20.493   5.365
 5000POPC   GL165521  24.477  20.546   5.698
 5000POPC   GL265522  24.259  20.291   5.771
 5000POPC   C1A65523  24.452  20.777   6.121
 5000POPC   D2A65524  24.806  20.695   6.459
 5000POPC   C3A65525  24.716  20.476   6.853
 5000POPC   C4A65526  24.497  20.561   7.223
 5000POPC   C1B65527  24.522  20.281   6.161
 5000POPC   C2B65528  24.312  20.429   6.551
 5000POPC   C3B65529  24.156  20.275   6.978
 5000POPC   C4B65530  24.058  20.404   7.452
 5001POPC   NC365531  41.643  10.917   5.392
 5001POPC   PO465532  41.790  11.568   5.444
 5001POPC   GL165533  41.615  11.323   5.823
 5001POPC   GL265534  41.366  11.056   5.833
 5001POPC   C1A65535  41.435  11.397   6.249
 5001POPC   D2A65536  41.220  11.507   6.649
 5001POPC   C3A65537  41.494  11.557   7.007
 5001POPC   C4A65538  41.655  11.401   7.427
 5001POPC   C1B65539  41.472  10.857   6.250
 5001POPC   C2B65540  41.579  11.069   6.638
 5001POPC   C3B65541  41.753  11.094   7.030
 5001POPC   C4B65542  41.497  10.903   7.322
 5002POPC   NC365543  38.792   3.900   5.746
 5002POPC   PO465544  39.301   3.716   5.317
 5002POPC   GL165545  39.247   3.569   5.745
 5002POPC   GL265546  39.509   3.776   5.892
 5002POPC   C1A65547  39.174   3.253   6.110
 5002POPC   D2A65548  38.989   3.089   6.487
 5002POPC   C3A65549  39.158   3.326   6.834
 5002POPC   C4A65550  39.380   3.523   7.184
 5002POPC   C1B65551  39.223   3.752   6.234
 5002POPC   C2B65552  39.039   3.856   6.609
 5002POPC   C3B65553  39.071   4.113   6.919
 5002POPC   C4B65554  39.126   3.937   7.309
 5003POPC   NC365555   0.373  32.969   5.599
 5003POPC   PO465556   0.827  32.527   5.428
 5003POPC   GL165557   0.597  32.567   5.840
 5003POPC   GL265558   0.242  32.491   5.816
 5003POPC   C1A65559   0.677  32.827   6.222
 5003POPC   D2A65560   0.983  32.892   6.567
 5003POPC   C3A65561   0.766  33.048   6.958
 5003POPC   C4A65562   0.619  32.902   7.370
 5003POPC   C1B65563   0.154  32.735   6.208
 5003POPC   C2B65564   0.303  32.847   6.624
 5003POPC   C3B65565   0.210  32.853   7.055
 5003POPC   C4B65566   0.124  33.039   7.445
 5004POPC   NC365567   6.835  14.811   5.163
 5004POPC   PO465568   6.354  15.282   5.501
 5004POPC   GL165569   6.439  15.399   5.916
 5004POPC   GL265570   6.742  15.227   5.918
 5004POPC   C1A65571   6.426  15.420   6.387
 5004POPC   D2A65572   6.771  15.410   6.694
 5004POPC   C3A65573   6.628  15.249   7.066
 5004POPC   C4A65574   6.897  14.935   7.123
 5004POPC   C1B65575   6.578  14.957   6.237
 5004POPC   C2B65576   6.524  14.941   6.668
 5004POPC   C3B65577   6.426  14.762   7.057
 5004POPC   C4B65578   6.526  14.850   7.496
 5005POPC   NC365579  36.598  22.839   5.438
 5005POPC   PO465580  36.900  23.406   5.317
 5005POPC   GL165581  36.803  23.195   5.740
 5005POPC   GL265582  36.990  22.897   5.805
 5005POPC   C1A65583  36.619  22.991   6.142
 5005POPC   D2A65584  36.552  22.867   6.596
 5005POPC   C3A65585  36.844  23.018   6.947
 5005POPC   C4A65586  36.714  23.213   7.344
 5005POPC   C1B65587  37.183  22.636   6.154
 5005POPC   C2B65588  37.026  22.669   6.592
 5005POPC   C3B65589  37.166  22.573   7.004
 5005POPC   C4B65590  37.305  22.775   7.320
 5006POPC   NC365591   1.405   8.677   5.311
 5006POPC   PO465592   1.119   9.340   5.175
 5006POPC   GL165593   0.970   9.040   5.578
 5006POPC   GL265594   1.257   8.925   5.742
 5006POPC   C1A65595   0.914   9.045   6.091
 5006POPC   D2A65596   1.123   9.305   6.431
 5006POPC   C3A65597   1.087   9.204   6.860
 5006POPC   C4A65598   1.076   9.169   7.298
 5006POPC   C1B65599   1.292   8.719   6.161
 5006POPC   C2B65600   1.100   8.803   6.555
 5006POPC   C3B65601   1.324   8.767   6.970
 5006POPC   C4B65602   1.570   9.017   7.265
 5007POPC   NC365603  33.492  36.299   5.233
 5007POPC   PO465604  34.018  35.819   5.380
 5007POPC   GL165605  33.891  35.952   5.787
 5007POPC   GL265606  33.830  36.288   5.738
 5007POPC   C1A65607  33.682  35.924   6.193
 5007POPC   D2A65608  33.532  36.121   6.570
 5007POPC   C3A65609  33.608  35.932   6.967
 5007POPC   C4A65610  33.987  35.827   7.155
 5007POPC   C1B65611  33.713  36.425   6.165
 5007POPC   C2B65612  33.848  36.521   6.604
 5007POPC   C3B65613  33.618  36.455   7.013
 5007POPC   C4B65614  33.703  36.210   7.388
 5008POPC   NC365615  24.690  25.805   5.126
 5008POPC   PO465616  24.137  26.053   5.368
 5008POPC   GL165617  24.536  26.080   5.594
 5008POPC   GL265618  24.591  26.426   5.674
 5008POPC   C1A65619  24.632  26.046   6.057
 5008POPC   D2A65620  24.464  25.962   6.480
 5008POPC   C3A65621  24.688  25.862   6.872
 5008POPC   C4A65622  24.485  25.942   7.260
 5008POPC   C1B65623  24.563  26.550   6.104
 5008POPC   C2B65624  24.415  26.470   6.527
 5008POPC   C3B65625  24.561  26.362   6.958
 5008POPC   C4B65626  24.600  26.537   7.377
 5009POPC   NC365627   1.544  24.660   5.466
 5009POPC   PO465628   0.853  24.719   5.298
 5009POPC   GL165629   1.093  24.470   5.657
 5009POPC   GL265630   1.253  24.716   5.863
 5009POPC   C1A65631   1.110  24.315   6.136
 5009POPC   D2A65632   1.090  24.484   6.597
 5009POPC   C3A65633   1.215  24.326   7.008
 5009POPC   C4A65634   1.317  24.103   7.406
 5009POPC   C1B65635   1.120  24.836   6.224
 5009POPC   C2B65636   1.229  25.032   6.597
 5009POPC   C3B65637   1.401  24.828   6.922
 5009POPC   C4B65638   1.333  24.752   7.328
 5010POPC   NC365639   4.268  28.034   5.521
 5010POPC   PO465640   4.533  27.515   5.102
 5010POPC   GL165641   4.374  27.515   5.566
 5010POPC   GL265642   4.060  27.343   5.643
 5010POPC   C1A65643   4.514  27.480   6.019
 5010POPC   D2A65644   4.419  27.689   6.423
 5010POPC   C3A65645   4.456  27.457   6.809
 5010POPC   C4A65646   4.470  27.605   7.214
 5010POPC   C1B65647   4.016  27.461   6.107
 5010POPC   C2B65648   3.984  27.422   6.564
 5010POPC   C3B65649   4.015  27.684   6.946
 5010POPC   C4B65650   3.739  27.764   7.272
 5011POPC   NC365651   8.501  40.614   5.577
 5011POPC   PO465652   8.145  41.258   5.545
 5011POPC   GL165653   8.171  40.915   5.870
 5011POPC   GL265654   8.014  40.583   5.763
 5011POPC   C1A65655   8.387  40.925   6.301
 5011POPC   D2A65656   8.542  41.217   6.650
 5011POPC   C3A65657   8.345  41.094   7.051
 5011POPC   C4A65658   8.076  40.725   7.070
 5011POPC   C1B65659   8.152  40.476   6.186
 5011POPC   C2B65660   8.270  40.488   6.618
 5011POPC   C3B65661   8.386  40.283   7.001
 5011POPC   C4B65662   8.270  40.410   7.427
 5012POPC   NC365663  29.899  11.574   5.301
 5012POPC   PO465664  29.432  11.138   5.470
 5012POPC   GL165665  29.765  11.315   5.805
 5012POPC   GL265666  29.899  11.663   5.897
 5012POPC   C1A65667  29.875  11.332   6.276
 5012POPC   D2A65668  29.734  11.418   6.705
 5012POPC   C3A65669  29.793  11.073   7.009
 5012POPC   C4A65670  29.750  11.113   7.459
 5012POPC   C1B65671  30.235  11.755   6.222
 5012POPC   C2B65672  30.432  11.612   6.617
 5012POPC   C3B65673  30.204  11.392   6.917
 5012POPC   C4B65674  29.916  11.517   7.209
 5013POPC   NC365675  29.441  15.657   5.491
 5013POPC   PO465676  29.133  15.029   5.487
 5013POPC   GL165677  29.194  15.316   5.797
 5013POPC   GL265678  29.523  15.213   5.792
 5013POPC   C1A65679  29.316  15.536   6.177
 5013POPC   D2A65680  29.114  15.676   6.568
 5013POPC   C3A65681  29.353  15.506   6.895
 5013POPC   C4A65682  29.163  15.284   7.186
 5013POPC   C1B65683  29.476  14.853   6.071
 5013POPC   C2B65684  29.422  14.739   6.489
 5013POPC   C3B65685  29.205  14.914   6.819
 5013POPC   C4B65686  29.362  14.830   7.216
 5014POPC   NC365687  29.458  22.556   5.446
 5014POPC   PO465688  29.259  23.211   5.378
 5014POPC   GL165689  29.326  22.976   5.706
 5014POPC   GL265690  29.696  23.056   5.655
 5014POPC   C1A65691  29.108  22.827   6.088
 5014POPC   D2A65692  28.972  22.987   6.493
 5014POPC   C3A65693  29.157  22.784   6.863
 5014POPC   C4A65694  29.035  22.720   7.263
 5014POPC   C1B65695  29.621  22.968   6.105
 5014POPC   C2B65696  29.484  22.773   6.475
 5014POPC   C3B65697  29.643  22.899   6.899
 5014POPC   C4B65698  29.452  23.033   7.240
 5015POPC   NC365699  16.163   1.840   5.094
 5015POPC   PO465700  15.732   1.632   5.558
 5015POPC   GL165701  15.976   1.749   5.902
 5015POPC   GL265702  16.179   2.020   5.691
 5015POPC   C1A65703  15.944   1.756   6.359
 5015POPC   D2A65704  15.977   1.778   6.802
 5015POPC   C3A65705  15.778   2.085   7.020
 5015POPC   C4A65706  15.978   1.995   7.381
 5015POPC   C1B65707  16.276   2.097   6.123
 5015POPC   C2B65708  16.280   2.136   6.574
 5015POPC   C3B65709  16.329   2.129   7.037
 5015POPC   C4B65710  16.393   2.265   7.492
 5016POPC   NC365711  30.454  41.139   5.157
 5016POPC   PO465712  31.018  41.491   5.420
 5016POPC   GL165713  30.953  41.622   5.854
 5016POPC   GL265714  30.592  41.799   5.840
 5016POPC   C1A65715  31.043  41.395   6.227
 5016POPC   D2A65716  30.840  41.163   6.539
 5016POPC   C3A65717  30.963  41.257   6.934
 5016POPC   C4A65718  30.854  41.524   7.204
 5016POPC   C1B65719  30.547  41.567   6.254
 5016POPC   C2B65720  30.667  41.614   6.699
 5016POPC   C3B65721  30.588  41.909   7.027
 5016POPC   C4B65722  30.476  42.130   7.404
 5017POPC   NC365723  44.732  41.642   5.586
 5017POPC   PO465724  44.333  41.167   5.242
 5017POPC   GL165725  44.282  41.422   5.713
 5017POPC   GL265726  44.157  41.293   5.994
 5017POPC   C1A65727  44.445  41.647   6.185
 5017POPC   D2A65728  44.763  41.510   6.480
 5017POPC   C3A65729  44.815  41.637   6.896
 5017POPC   C4A65730  44.890  41.386   7.267
 5017POPC   C1B65731  44.238  41.231   6.425
 5017POPC   C2B65732  44.303  41.493   6.763
 5017POPC   C3B65733  44.411  41.530   7.181
 5017POPC   C4B65734  44.245  41.726   7.544
 5018POPC   NC365735  33.997   3.941   5.598
 5018POPC   PO465736  33.569   4.383   5.324
 5018POPC   GL165737  33.651   4.264   5.777
 5018POPC   GL265738  33.988   4.392   5.876
 5018POPC   C1A65739  33.503   4.084   6.201
 5018POPC   D2A65740  33.560   4.069   6.680
 5018POPC   C3A65741  33.535   4.348   7.037
 5018POPC   C4A65742  33.546   4.238   7.477
 5018POPC   C1B65743  34.010   4.076   6.238
 5018POPC   C2B65744  34.051   3.840   6.642
 5018POPC   C3B65745  33.970   4.016   7.045
 5018POPC   C4B65746  34.014   4.427   7.229
 5019POPC   NC365747  32.471  18.209   5.224
 5019POPC   PO465748  32.021  17.890   5.400
 5019POPC   GL165749  32.221  17.987   5.765
 5019POPC   GL265750  32.306  18.324   5.758
 5019POPC   C1A65751  32.235  17.978   6.205
 5019POPC   D2A65752  32.300  18.203   6.556
 5019POPC   C3A65753  32.449  18.146   6.957
 5019POPC   C4A65754  32.350  18.052   7.347
 5019POPC   C1B65755  32.381  18.514   6.165
 5019POPC   C2B65756  32.514  18.641   6.617
 5019POPC   C3B65757  32.171  18.598   6.862
 5019POPC   C4B65758  32.158  18.574   7.276
 5020POPC   NC365759   0.217  38.219   5.477
 5020POPC   PO465760  44.653  37.887   5.283
 5020POPC   GL165761  44.693  37.870   5.739
 5020POPC   GL265762   0.011  37.902   5.835
 5020POPC   C1A65763  44.670  37.844   6.218
 5020POPC   D2A65764  44.562  37.791   6.662
 5020POPC   C3A65765  44.722  37.446   6.934
 5020POPC   C4A65766  44.595  37.489   7.337
 5020POPC   C1B65767   0.176  37.872   6.252
 5020POPC   C2B65768   0.079  37.751   6.676
 5020POPC   C3B65769  44.879  37.909   7.054
 5020POPC   C4B65770  44.934  37.852   7.486
 5021POPC   NC365771  29.189  16.409   5.431
 5021POPC   PO465772  28.963  15.738   5.424
 5021POPC   GL165773  29.099  15.836   5.833
 5021POPC   GL265774  29.164  16.170   5.877
 5021POPC   C1A65775  28.866  15.942   6.210
 5021POPC   D2A65776  28.663  16.093   6.585
 5021POPC   C3A65777  28.865  15.966   6.948
 5021POPC   C4A65778  28.788  15.618   7.181
 5021POPC   C1B65779  29.367  16.051   6.258
 5021POPC   C2B65780  29.500  15.996   6.685
 5021POPC   C3B65781  29.358  15.971   7.106
 5021POPC   C4B65782  29.174  16.297   7.287
 5022POPC   NC365783  36.948  34.165   5.459
 5022POPC   PO465784  36.698  33.517   5.493
 5022POPC   GL165785  36.825  33.821   5.828
 5022POPC   GL265786  37.139  33.888   5.872
 5022POPC   C1A65787  36.899  33.859   6.303
 5022POPC   D2A65788  37.242  33.955   6.589
 5022POPC   C3A65789  37.051  34.030   6.964
 5022POPC   C4A65790  36.638  33.948   7.136
 5022POPC   C1B65791  37.022  33.419   6.047
 5022POPC   C2B65792  37.040  33.284   6.465
 5022POPC   C3B65793  37.211  33.476   6.826
 5022POPC   C4B65794  37.098  33.604   7.239
 5023POPC   NC365795  11.668  25.818   5.487
 5023POPC   PO465796  12.005  26.410   5.458
 5023POPC   GL165797  11.953  26.066   5.826
 5023POPC   GL265798  12.220  25.866   6.055
 5023POPC   C1A65799  11.727  25.870   6.176
 5023POPC   D2A65800  11.946  25.813   6.583
 5023POPC   C3A65801  11.671  25.788   6.950
 5023POPC   C4A65802  11.812  25.815   7.373
 5023POPC   C1B65803  12.069  26.239   6.314
 5023POPC   C2B65804  12.071  26.339   6.753
 5023POPC   C3B65805  12.128  26.001   7.032
 5023POPC   C4B65806  12.498  25.715   7.049
 5024POPC   NC365807  10.238  40.071   5.435
 5024POPC   PO465808  10.877  39.823   5.542
 5024POPC   GL165809  10.556  39.871   5.812
 5024POPC   GL265810  10.557  40.218   5.831
 5024POPC   C1A65811  10.646  39.933   6.227
 5024POPC   D2A65812  10.551  39.760   6.549
 5024POPC   C3A65813  10.750  39.864   6.905
 5024POPC   C4A65814  10.540  39.814   7.264
 5024POPC   C1B65815  10.465  40.419   6.224
 5024POPC   C2B65816  10.337  40.250   6.602
 5024POPC   C3B65817  10.514  40.302   6.992
 5024POPC   C4B65818  10.370  40.316   7.388
 5025POPC   NC365819   7.754  31.304   5.283
 5025POPC   PO465820   7.190  31.148   5.491
 5025POPC   GL165821   7.450  31.477   5.687
 5025POPC   GL265822   7.640  31.248   5.869
 5025POPC   C1A65823   7.741  31.705   6.020
 5025POPC   D2A65824   7.847  31.462   6.412
 5025POPC   C3A65825   7.534  31.529   6.752
 5025POPC   C4A65826   7.423  31.771   7.130
 5025POPC   C1B65827   7.327  31.438   6.197
 5025POPC   C2B65828   7.076  31.345   6.578
 5025POPC   C3B65829   7.132  31.344   7.034
 5025POPC   C4B65830   7.497  31.154   7.209
 5026POPC   NC365831   0.894  23.016   5.431
 5026POPC   PO465832   0.269  22.765   5.478
 5026POPC   GL165833   0.504  22.951   5.773
 5026POPC   GL265834   0.243  23.036   5.963
 5026POPC   C1A65835   0.745  22.988   6.161
 5026POPC   D2A65836   0.699  22.836   6.599
 5026POPC   C3A65837   0.763  23.041   7.013
 5026POPC   C4A65838   0.569  22.856   7.363
 5026POPC   C1B65839   0.249  22.938   6.400
 5026POPC   C2B65840  44.995  23.224   6.619
 5026POPC   C3B65841   0.002  23.443   7.002
 5026POPC   C4B65842   0.252  23.266   7.313
 5027POPC   NC365843  32.685  42.031   5.521
 5027POPC   PO465844  32.210  42.480   5.310
 5027POPC   GL165845  32.154  42.414   5.731
 5027POPC   GL265846  32.476  42.565   5.763
 5027POPC   C1A65847  32.084  42.582   6.142
 5027POPC   D2A65848  32.144  42.728   6.572
 5027POPC   C3A65849  32.116  42.407   6.927
 5027POPC   C4A65850  32.332  42.091   7.228
 5027POPC   C1B65851  32.571  42.453   6.161
 5027POPC   C2B65852  32.670  42.613   6.541
 5027POPC   C3B65853  32.627  42.370   6.869
 5027POPC   C4B65854  32.530  42.548   7.246
 5028POPC   NC365855  43.255  14.715   5.052
 5028POPC   PO465856  43.285  14.315   5.418
 5028POPC   GL165857  43.207  14.161   5.847
 5028POPC   GL265858  43.047  13.885   5.820
 5028POPC   C1A65859  43.278  14.079   6.315
 5028POPC   D2A65860  43.130  14.333   6.690
 5028POPC   C3A65861  43.244  14.343   7.147
 5028POPC   C4A65862  43.175  14.625   7.517
 5028POPC   C1B65863  42.811  13.909   6.205
 5028POPC   C2B65864  42.893  13.876   6.649
 5028POPC   C3B65865  42.804  14.086   7.052
 5028POPC   C4B65866  42.876  14.210   7.489
 5029POPC   NC365867  30.462  44.072   5.617
 5029POPC   PO465868  30.823  43.577   5.293
 5029POPC   GL165869  30.894  43.823   5.666
 5029POPC   GL265870  30.576  43.600   5.760
 5029POPC   C1A65871  30.948  44.153   6.066
 5029POPC   D2A65872  31.029  44.294   6.522
 5029POPC   C3A65873  30.763  44.205   6.918
 5029POPC   C4A65874  30.562  44.258   7.346
 5029POPC   C1B65875  30.804  43.676   6.136
 5029POPC   C2B65876  30.728  43.855   6.527
 5029POPC   C3B65877  30.628  43.719   6.955
 5029POPC   C4B65878  30.346  43.816   7.257
 5030POPC   NC365879   0.514  11.234   5.236
 5030POPC   PO465880   0.582  10.794   5.782
 5030POPC   GL165881   0.587  11.245   5.738
 5030POPC   GL265882   0.251  11.425   5.678
 5030POPC   C1A65883   0.614  11.510   6.086
 5030POPC   D2A65884   0.455  11.507   6.526
 5030POPC   C3A65885   0.560  11.378   6.964
 5030POPC   C4A65886   0.664  11.045   7.247
 5030POPC   C1B65887   0.166  11.228   6.062
 5030POPC   C2B65888   0.201  11.024   6.462
 5030POPC   C3B65889   0.303  10.936   6.891
 5030POPC   C4B65890   0.177  11.167   7.252
 5031POPC   NC365891  24.678  33.774   5.223
 5031POPC   PO465892  25.270  33.940   5.220
 5031POPC   GL165893  25.265  33.956   5.690
 5031POPC   GL265894  25.260  33.621   5.843
 5031POPC   C1A65895  25.390  34.061   6.138
 5031POPC   D2A65896  25.196  34.091   6.552
 5031POPC   C3A65897  25.403  34.119   6.944
 5031POPC   C4A65898  25.242  34.200   7.341
 5031POPC   C1B65899  25.207  33.594   6.302
 5031POPC   C2B65900  25.361  33.633   6.742
 5031POPC   C3B65901  25.263  33.681   7.193
 5031POPC   C4B65902  25.172  33.431   7.579
 5032POPC   NC365903  10.437  26.728   5.044
 5032POPC   PO465904  10.418  27.185   5.508
 5032POPC   GL165905  10.567  26.811   5.729
 5032POPC   GL265906  10.283  26.588   5.772
 5032POPC   C1A65907  10.714  26.685   6.149
 5032POPC   D2A65908  10.557  26.757   6.547
 5032POPC   C3A65909  10.714  26.870   6.957
 5032POPC   C4A65910  10.445  26.958   7.304
 5032POPC   C1B65911  10.288  26.403   6.186
 5032POPC   C2B65912  10.353  26.302   6.623
 5032POPC   C3B65913  10.368  26.511   7.002
 5032POPC   C4B65914  10.609  26.465   7.386
 5033POPC   NC365915  22.787  20.495   5.641
 5033POPC   PO465916  23.108  20.793   5.223
 5033POPC   GL165917  23.131  20.861   5.739
 5033POPC   GL265918  22.823  20.970   5.881
 5033POPC   C1A65919  23.123  20.705   6.237
 5033POPC   D2A65920  22.915  20.572   6.680
 5033POPC   C3A65921  23.076  20.519   7.130
 5033POPC   C4A65922  23.217  20.741   7.502
 5033POPC   C1B65923  22.640  20.881   6.297
 5033POPC   C2B65924  22.688  21.030   6.724
 5033POPC   C3B65925  22.643  20.782   7.113
 5033POPC   C4B65926  22.575  20.330   7.171
 5034POPC   NC365927  30.221  34.304   5.320
 5034POPC   PO465928  29.759  34.762   5.357
 5034POPC   GL165929  29.872  34.643   5.776
 5034POPC   GL265930  30.212  34.607   5.763
 5034POPC   C1A65931  29.982  34.772   6.203
 5034POPC   D2A65932  29.782  34.918   6.564
 5034POPC   C3A65933  29.937  34.707   6.908
 5034POPC   C4A65934  29.742  34.581   7.243
 5034POPC   C1B65935  30.331  34.371   6.162
 5034POPC   C2B65936  30.270  34.475   6.588
 5034POPC   C3B65937  30.381  34.313   6.995
 5034POPC   C4B65938  30.232  34.522   7.348
 5035POPC   NC365939   9.896   9.731   5.238
 5035POPC   PO465940  10.609   9.803   5.379
 5035POPC   GL165941  10.517   9.710   5.793
 5035POPC   GL265942  10.836   9.611   5.885
 5035POPC   C1A65943  10.297   9.941   6.092
 5035POPC   D2A65944  10.391   9.953   6.512
 5035POPC   C3A65945  10.211   9.948   6.902
 5035POPC   C4A65946  10.380   9.695   7.246
 5035POPC   C1B65947  10.659   9.557   6.289
 5035POPC   C2B65948  10.756   9.563   6.719
 5035POPC   C3B65949  10.670   9.318   7.091
 5035POPC   C4B65950  10.794   9.445   7.521
 5036POPC   NC365951  14.583  44.230   5.166
 5036POPC   PO465952  14.313  43.656   5.217
 5036POPC   GL165953  14.378  43.860   5.631
 5036POPC   GL265954  14.082  44.031   5.722
 5036POPC   C1A65955  14.594  43.891   6.067
 5036POPC   D2A65956  14.797  43.669   6.463
 5036POPC   C3A65957  14.637  43.782   6.886
 5036POPC   C4A65958  14.420  43.854   7.305
 5036POPC   C1B65959  14.071  43.753   6.093
 5036POPC   C2B65960  14.283  43.834   6.488
 5036POPC   C3B65961  14.208  44.044   6.865
 5036POPC   C4B65962  13.898  44.011   7.151
 5037POPC   NC365963   2.857  37.064   5.130
 5037POPC   PO465964   2.841  37.690   5.420
 5037POPC   GL165965   2.620  37.600   5.798
 5037POPC   GL265966   2.923  37.743   5.941
 5037POPC   C1A65967   2.651  37.449   6.235
 5037POPC   D2A65968   2.884  37.650   6.550
 5037POPC   C3A65969   2.769  37.612   6.973
 5037POPC   C4A65970   2.548  37.460   7.320
 5037POPC   C1B65971   3.221  37.909   6.254
 5037POPC   C2B65972   3.159  38.052   6.702
 5037POPC   C3B65973   3.170  37.902   7.135
 5037POPC   C4B65974   2.883  37.855   7.494
 5038POPC   NC365975  24.890  36.144   5.365
 5038POPC   PO465976  24.317  35.693   5.430
 5038POPC   GL165977  24.578  35.893   5.722
 5038POPC   GL265978  24.543  36.262   5.728
 5038POPC   C1A65979  24.587  35.938   6.164
 5038POPC   D2A65980  24.405  36.122   6.535
 5038POPC   C3A65981  24.503  35.936   6.936
 5038POPC   C4A65982  24.790  36.050   7.202
 5038POPC   C1B65983  24.595  36.445   6.148
 5038POPC   C2B65984  24.616  36.562   6.585
 5038POPC   C3B65985  24.512  36.465   7.022
 5038POPC   C4B65986  24.711  36.500   7.451
 5039POPC   NC365987  41.122  31.528   5.526
 5039POPC   PO465988  40.680  31.927   5.425
 5039POPC   GL165989  40.675  31.709   5.873
 5039POPC   GL265990  40.910  31.457   5.982
 5039POPC   C1A65991  40.604  31.636   6.351
 5039POPC   D2A65992  40.928  31.456   6.642
 5039POPC   C3A65993  40.950  31.649   7.040
 5039POPC   C4A65994  40.537  31.712   7.240
 5039POPC   C1B65995  40.699  31.155   6.248
 5039POPC   C2B65996  40.665  31.016   6.666
 5039POPC   C3B65997  40.622  31.253   7.018
 5039POPC   C4B65998  40.844  31.319   7.412
 5040POPC   NC365999  15.184  13.122   5.147
 5040POPC   PO466000  14.894  12.758   5.662
 5040POPC   GL166001  15.049  13.057   5.895
 5040POPC   GL266002  15.332  13.071   5.673
 5040POPC   C1A66003  15.049  13.071   6.342
 5040POPC   D2A66004  15.008  13.123   6.766
 5040POPC   C3A66005  14.877  12.751   6.998
 5040POPC   C4A66006  14.936  12.729   7.435
 5040POPC   C1B66007  15.482  12.883   6.104
 5040POPC   C2B66008  15.521  12.993   6.571
 5040POPC   C3B66009  15.420  12.847   6.999
 5040POPC   C4B66010  15.353  13.003   7.467
 5041POPC   NC366011  22.295   2.711   5.390
 5041POPC   PO466012  22.300   3.258   5.391
 5041POPC   GL166013  22.182   3.057   5.796
 5041POPC   GL266014  21.920   2.804   5.823
 5041POPC   C1A66015  22.291   2.819   6.206
 5041POPC   D2A66016  22.542   2.964   6.602
 5041POPC   C3A66017  22.465   2.785   7.017
 5041POPC   C4A66018  22.119   2.942   7.253
 5041POPC   C1B66019  21.701   2.559   6.191
 5041POPC   C2B66020  21.723   2.421   6.646
 5041POPC   C3B66021  22.094   2.441   6.924
 5041POPC   C4B66022  22.260   2.391   7.340
 5042POPC   NC366023  31.850  17.495   5.548
 5042POPC   PO466024  31.200  17.564   5.357
 5042POPC   GL166025  31.306  17.548   5.769
 5042POPC   GL266026  30.955  17.570   5.848
 5042POPC   C1A66027  31.363  17.753   6.168
 5042POPC   D2A66028  31.654  17.816   6.512
 5042POPC   C3A66029  31.598  17.645   6.903
 5042POPC   C4A66030  31.624  17.826   7.268
 5042POPC   C1B66031  30.969  17.433   6.275
 5042POPC   C2B66032  31.150  17.673   6.625
 5042POPC   C3B66033  31.072  17.730   7.043
 5042POPC   C4B66034  30.944  17.338   7.278
 5043POPC   NC366035   0.281  25.600   5.675
 5043POPC   PO466036   0.765  25.887   5.304
 5043POPC   GL166037   0.660  25.971   5.804
 5043POPC   GL266038   0.310  26.079   5.872
 5043POPC   C1A66039   0.535  25.758   6.259
 5043POPC   D2A66040   0.304  25.637   6.657
 5043POPC   C3A66041   0.543  25.756   7.037
 5043POPC   C4A66042   0.750  26.137   7.189
 5043POPC   C1B66043   0.217  26.149   6.334
 5043POPC   C2B66044   0.306  26.148   6.798
 5043POPC   C3B66045   0.204  26.101   7.251
 5043POPC   C4B66046   0.074  26.067   7.708
 5044POPC   NC366047  37.245  37.840   5.521
 5044POPC   PO466048  36.708  37.986   5.205
 5044POPC   GL166049  36.683  38.001   5.692
 5044POPC   GL266050  36.945  37.866   5.904
 5044POPC   C1A66051  36.529  37.897   6.156
 5044POPC   D2A66052  36.666  37.636   6.520
 5044POPC   C3A66053  36.710  37.843   6.921
 5044POPC   C4A66054  36.687  37.633   7.319
 5044POPC   C1B66055  37.098  37.687   6.256
 5044POPC   C2B66056  37.180  37.754   6.687
 5044POPC   C3B66057  37.128  37.579   7.074
 5044POPC   C4B66058  37.173  37.600   7.509
 5045POPC   NC366059  28.514  18.646   5.522
 5045POPC   PO466060  28.262  17.983   5.505
 5045POPC   GL166061  28.517  18.102   5.803
 5045POPC   GL266062  28.281  18.361   5.895
 5045POPC   C1A66063  28.499  17.960   6.214
 5045POPC   D2A66064  28.392  18.067   6.628
 5045POPC   C3A66065  28.055  18.246   6.840
 5045POPC   C4A66066  28.087  18.227   7.281
 5045POPC   C1B66067  28.594  18.490   6.178
 5045POPC   C2B66068  28.536  18.575   6.594
 5045POPC   C3B66069  28.562  18.408   6.979
 5045POPC   C4B66070  28.582  18.587   7.348
 5046POPC   NC366071  16.698  34.128   5.471
 5046POPC   PO466072  17.046  33.512   5.504
 5046POPC   GL166073  16.853  33.767   5.900
 5046POPC   GL266074  16.846  34.160   6.036
 5046POPC   C1A66075  16.743  33.796   6.364
 5046POPC   D2A66076  16.726  34.168   6.646
 5046POPC   C3A66077  16.855  34.099   7.089
 5046POPC   C4A66078  16.668  33.850   7.446
 5046POPC   C1B66079  17.166  34.064   6.312
 5046POPC   C2B66080  17.205  33.702   6.570
 5046POPC   C3B66081  17.016  33.605   6.972
 5046POPC   C4B66082  17.146  33.767   7.400
 5047POPC   NC366083  20.717  15.184   5.519
 5047POPC   PO466084  20.215  14.667   5.513
 5047POPC   GL166085  20.450  14.893   5.860
 5047POPC   GL266086  20.834  14.847   5.895
 5047POPC   C1A66087  20.435  15.140   6.253
 5047POPC   D2A66088  20.481  15.004   6.685
 5047POPC   C3A66089  20.419  15.219   7.068
 5047POPC   C4A66090  20.530  14.892   7.377
 5047POPC   C1B66091  20.938  15.195   6.171
 5047POPC   C2B66092  20.894  15.364   6.596
 5047POPC   C3B66093  20.921  15.212   7.030
 5047POPC   C4B66094  20.819  15.283   7.473
 5048POPC   NC366095  10.823  16.123   5.446
 5048POPC   PO466096  10.209  15.834   5.456
 5048POPC   GL166097  10.515  15.899   5.823
 5048POPC   GL266098  10.750  16.200   5.931
 5048POPC   C1A66099  10.491  15.906   6.286
 5048POPC   D2A66100  10.439  16.169   6.667
 5048POPC   C3A66101  10.549  15.972   7.096
 5048POPC   C4A66102  10.412  16.092   7.520
 5048POPC   C1B66103  10.978  16.072   6.251
 5048POPC   C2B66104  10.881  15.923   6.634
 5048POPC   C3B66105  10.983  16.186   6.970
 5048POPC   C4B66106  10.944  16.136   7.436
 5049POPC   NC366107   1.509  21.103   5.442
 5049POPC   PO466108   0.883  21.511   5.471
 5049POPC   GL166109   1.283  21.518   5.652
 5049POPC   GL266110   1.184  21.202   5.799
 5049POPC   C1A66111   1.477  21.537   6.064
 5049POPC   D2A66112   1.262  21.467   6.473
 5049POPC   C3A66113   1.430  21.447   6.858
 5049POPC   C4A66114   1.236  21.420   7.238
 5049POPC   C1B66115   0.956  21.265   6.122
 5049POPC   C2B66116   0.800  21.195   6.514
 5049POPC   C3B66117   0.924  21.215   6.904
 5049POPC   C4B66118   0.935  20.995   7.300
 5050POPC   NC366119  20.109  37.808   5.459
 5050POPC   PO466120  19.745  37.355   5.385
 5050POPC   GL166121  19.862  37.522   5.823
 5050POPC   GL266122  19.662  37.820   5.884
 5050POPC   C1A66123  19.840  37.518   6.310
 5050POPC   D2A66124  19.595  37.309   6.636
 5050POPC   C3A66125  19.634  37.495   7.022
 5050POPC   C4A66126  19.999  37.697   7.187
 5050POPC   C1B66127  19.786  38.023   6.254
 5050POPC   C2B66128  19.921  37.937   6.681
 5050POPC   C3B66129  19.659  38.020   7.014
 5050POPC   C4B66130  19.493  37.873   7.374
 5051POPC   NC366131  30.744  22.339   5.302
 5051POPC   PO466132  31.199  21.815   5.201
 5051POPC   GL166133  31.007  21.891   5.663
 5051POPC   GL266134  30.849  22.184   5.802
 5051POPC   C1A66135  30.885  21.845   6.152
 5051POPC   D2A66136  30.955  21.984   6.564
 5051POPC   C3A66137  30.879  22.067   7.013
 5051POPC   C4A66138  30.671  22.191   7.408
 5051POPC   C1B66139  30.922  22.408   6.216
 5051POPC   C2B66140  30.738  22.441   6.661
 5051POPC   C3B66141  30.722  22.624   7.102
 5051POPC   C4B66142  30.716  22.650   7.608
 5052POPC   NC366143  11.105  18.706   5.510
 5052POPC   PO466144  11.376  18.100   5.404
 5052POPC   GL166145  11.429  18.376   5.757
 5052POPC   GL266146  11.790  18.290   5.846
 5052POPC   C1A66147  11.261  18.317   6.195
 5052POPC   D2A66148  11.317  18.087   6.584
 5052POPC   C3A66149  11.021  18.198   6.920
 5052POPC   C4A66150  11.189  18.264   7.316
 5052POPC   C1B66151  11.691  18.605   6.136
 5052POPC   C2B66152  11.618  18.538   6.557
 5052POPC   C3B66153  11.543  18.363   6.958
 5052POPC   C4B66154  11.833  18.277   7.246
 5053POPC   NC366155  23.097   4.529   5.196
 5053POPC   PO466156  22.643   4.081   5.499
 5053POPC   GL166157  22.829   4.384   5.810
 5053POPC   GL266158  23.097   4.572   5.729
 5053POPC   C1A66159  22.945   4.342   6.242
 5053POPC   D2A66160  22.762   4.389   6.654
 5053POPC   C3A66161  22.591   4.073   6.966
 5053POPC   C4A66162  22.725   3.890   7.370
 5053POPC   C1B66163  23.335   4.657   6.126
 5053POPC   C2B66164  23.259   4.624   6.572
 5053POPC   C3B66165  23.178   4.395   6.970
 5053POPC   C4B66166  23.374   4.163   7.324
 5054POPC   NC366167  19.277  34.650   5.375
 5054POPC   PO466168  18.652  34.478   5.220
 5054POPC   GL166169  18.829  34.497   5.679
 5054POPC   GL266170  19.164  34.476   5.824
 5054POPC   C1A66171  18.795  34.655   6.145
 5054POPC   D2A66172  18.732  34.837   6.591
 5054POPC   C3A66173  18.994  34.640   6.946
 5054POPC   C4A66174  18.879  34.453   7.337
 5054POPC   C1B66175  19.332  34.810   6.104
 5054POPC   C2B66176  19.265  34.851   6.555
 5054POPC   C3B66177  19.464  34.873   6.978
 5054POPC   C4B66178  19.368  34.664   7.367
 5055POPC   NC366179   3.043  20.469   5.221
 5055POPC   PO466180   2.361  20.422   5.181
 5055POPC   GL166181   2.522  20.547   5.704
 5055POPC   GL266182   2.871  20.481   5.767
 5055POPC   C1A66183   2.564  20.312   6.190
 5055POPC   D2A66184   2.517  20.120   6.674
 5055POPC   C3A66185   2.560  20.380   7.105
 5055POPC   C4A66186   2.598  20.649   7.511
 5055POPC   C1B66187   2.960  20.660   6.185
 5055POPC   C2B66188   2.891  20.490   6.590
 5055POPC   C3B66189   2.893  20.722   6.960
 5055POPC   C4B66190   2.750  21.056   7.221
 5056POPC   NC366191  29.456  32.788   5.354
 5056POPC   PO466192  30.127  32.962   5.460
 5056POPC   GL166193  29.930  32.939   5.887
 5056POPC   GL266194  29.731  33.234   5.964
 5056POPC   C1A66195  29.986  33.006   6.375
 5056POPC   D2A66196  29.753  33.185   6.750
 5056POPC   C3A66197  29.878  33.005   7.149
 5056POPC   C4A66198  29.904  32.649   7.447
 5056POPC   C1B66199  30.204  33.335   6.049
 5056POPC   C2B66200  30.398  33.299   6.459
 5056POPC   C3B66201  30.234  33.318   6.897
 5056POPC   C4B66202  30.373  33.210   7.336
 5057POPC   NC366203  12.560  34.664   5.487
 5057POPC   PO466204  13.034  34.206   5.410
 5057POPC   GL166205  12.920  34.454   5.807
 5057POPC   GL266206  12.919  34.846   5.832
 5057POPC   C1A66207  12.657  34.422   6.189
 5057POPC   D2A66208  12.648  34.142   6.548
 5057POPC   C3A66209  12.630  34.302   6.973
 5057POPC   C4A66210  12.824  34.327   7.398
 5057POPC   C1B66211  12.823  34.918   6.284
 5057POPC   C2B66212  12.731  34.706   6.664
 5057POPC   C3B66213  12.882  34.723   7.117
 5057POPC   C4B66214  12.787  34.801   7.607
 5058POPC   NC366215  31.844  20.941   5.713
 5058POPC   PO466216  32.346  20.654   5.388
 5058POPC   GL166217  32.361  20.462   5.787
 5058POPC   GL266218  32.120  20.212   5.917
 5058POPC   C1A66219  32.327  20.671   6.180
 5058POPC   D2A66220  32.050  20.833   6.509
 5058POPC   C3A66221  32.201  20.849   6.949
 5058POPC   C4A66222  31.889  20.815   7.238
 5058POPC   C1B66223  32.070  20.283   6.384
 5058POPC   C2B66224  32.421  20.482   6.653
 5058POPC   C3B66225  32.567  20.402   7.064
 5058POPC   C4B66226  32.275  20.486   7.363
 5059POPC   NC366227  31.299   2.165   5.426
 5059POPC   PO466228  31.660   1.660   5.155
 5059POPC   GL166229  31.629   1.863   5.665
 5059POPC   GL266230  31.621   2.212   5.832
 5059POPC   C1A66231  31.765   1.907   6.188
 5059POPC   D2A66232  31.722   2.039   6.670
 5059POPC   C3A66233  31.742   2.032   7.157
 5059POPC   C4A66234  31.899   2.075   7.617
 5059POPC   C1B66235  31.549   2.360   6.282
 5059POPC   C2B66236  31.260   2.299   6.643
 5059POPC   C3B66237  31.250   2.249   7.092
 5059POPC   C4B66238  31.115   2.467   7.452
 5060POPC   NC366239  21.545  35.761   5.394
 5060POPC   PO466240  21.223  36.400   5.161
 5060POPC   GL166241  21.258  36.228   5.629
 5060POPC   GL266242  21.170  35.861   5.752
 5060POPC   C1A66243  21.178  36.218   6.125
 5060POPC   D2A66244  21.135  36.000   6.560
 5060POPC   C3A66245  21.258  36.267   6.898
 5060POPC   C4A66246  21.694  36.397   7.030
 5060POPC   C1B66247  21.495  35.809   6.117
 5060POPC   C2B66248  21.639  36.030   6.530
 5060POPC   C3B66249  21.592  35.872   6.966
 5060POPC   C4B66250  21.779  36.001   7.361
 5061POPC   NC366251   1.943  42.029   5.302
 5061POPC   PO466252   1.874  41.351   5.358
 5061POPC   GL166253   2.050  41.632   5.675
 5061POPC   GL266254   1.764  41.831   5.768
 5061POPC   C1A66255   2.067  41.600   6.143
 5061POPC   D2A66256   1.861  41.731   6.554
 5061POPC   C3A66257   2.030  41.701   6.994
 5061POPC   C4A66258   1.828  41.777   7.391
 5061POPC   C1B66259   1.539  41.602   6.120
 5061POPC   C2B66260   1.510  41.340   6.490
 5061POPC   C3B66261   1.716  41.322   6.861
 5061POPC   C4B66262   1.886  41.261   7.276
 5062POPC   NC366263  31.271   0.401   5.431
 5062POPC   PO466264  31.803   0.657   5.096
 5062POPC   GL166265  31.714   0.356   5.613
 5062POPC   GL266266  31.454   0.473   5.912
 5062POPC   C1A66267  31.815   0.151   6.019
 5062POPC   D2A66268  31.637   0.323   6.438
 5062POPC   C3A66269  31.698   0.192   6.860
 5062POPC   C4A66270  31.530   0.377   7.257
 5062POPC   C1B66271  31.165   0.282   6.259
 5062POPC   C2B66272  31.202   0.182   6.750
 5062POPC   C3B66273  31.023   0.435   7.113
 5062POPC   C4B66274  31.084   0.624   7.535
 5063POPC   NC366275  21.472   0.712   5.476
 5063POPC   PO466276  20.912   0.512   5.332
 5063POPC   GL166277  21.132   0.495   5.798
 5063POPC   GL266278  21.317   0.182   5.918
 5063POPC   C1A66279  21.228   0.747   6.188
 5063POPC   D2A66280  21.121   0.760   6.661
 5063POPC   C3A66281  21.462   0.632   6.990
 5063POPC   C4A66282  21.707   0.374   7.299
 5063POPC   C1B66283  21.352   0.240   6.363
 5063POPC   C2B66284  21.513   0.129   6.773
 5063POPC   C3B66285  21.216   0.173   7.089
 5063POPC   C4B66286  21.197   0.166   7.506
 5064POPC   NC366287  30.958  19.407   5.286
 5064POPC   PO466288  30.454  18.982   5.478
 5064POPC   GL166289  30.821  19.130   5.736
 5064POPC   GL266290  30.992  18.818   5.923
 5064POPC   C1A66291  30.899  19.305   6.113
 5064POPC   D2A66292  30.661  19.287   6.498
 5064POPC   C3A66293  30.771  19.418   6.907
 5064POPC   C4A66294  30.611  19.252   7.304
 5064POPC   C1B66295  30.614  18.837   6.133
 5064POPC   C2B66296  30.526  18.788   6.548
 5064POPC   C3B66297  30.695  18.919   6.927
 5064POPC   C4B66298  30.734  18.729   7.320
 5065POPC   NC366299  21.294  12.814   5.374
 5065POPC   PO466300  21.877  12.940   5.623
 5065POPC   GL166301  21.561  12.733   5.833
 5065POPC   GL266302  21.246  12.530   5.801
 5065POPC   C1A66303  21.525  12.729   6.249
 5065POPC   D2A66304  21.359  12.989   6.531
 5065POPC   C3A66305  21.500  12.835   6.900
 5065POPC   C4A66306  21.532  12.821   7.300
 5065POPC   C1B66307  21.050  12.573   6.197
 5065POPC   C2B66308  21.210  12.506   6.642
 5065POPC   C3B66309  21.102  12.584   7.085
 5065POPC   C4B66310  21.279  12.432   7.483
 5066POPC   NC366311   0.210   4.036   5.676
 5066POPC   PO466312   0.548   3.547   5.317
 5066POPC   GL166313   0.524   3.639   5.732
 5066POPC   GL266314   0.209   3.525   5.811
 5066POPC   C1A66315   0.527   3.714   6.165
 5066POPC   D2A66316   0.364   3.566   6.525
 5066POPC   C3A66317   0.700   3.600   6.789
 5066POPC   C4A66318   0.693   3.631   7.221
 5066POPC   C1B66319   0.215   3.211   6.134
 5066POPC   C2B66320   0.055   3.149   6.544
 5066POPC   C3B66321   0.231   3.213   6.947
 5066POPC   C4B66322   0.109   3.106   7.355
 5067POPC   NC366323  32.192  22.743   5.330
 5067POPC   PO466324  32.555  23.250   5.543
 5067POPC   GL166325  32.461  22.962   5.848
 5067POPC   GL266326  32.116  22.978   5.840
 5067POPC   C1A66327  32.393  22.947   6.298
 5067POPC   D2A66328  32.176  23.212   6.598
 5067POPC   C3A66329  32.233  23.045   7.030
 5067POPC   C4A66330  32.460  23.083   7.422
 5067POPC   C1B66331  31.882  22.891   6.243
 5067POPC   C2B66332  31.816  22.862   6.702
 5067POPC   C3B66333  31.798  22.787   7.145
 5067POPC   C4B66334  32.026  22.800   7.533
 5068POPC   NC366335   6.187  22.291   5.582
 5068POPC   PO466336   6.633  22.581   5.177
 5068POPC   GL166337   6.656  22.426   5.707
 5068POPC   GL266338   6.565  22.597   6.013
 5068POPC   C1A66339   6.701  22.097   6.066
 5068POPC   D2A66340   6.823  22.022   6.516
 5068POPC   C3A66341   6.557  21.918   6.870
 5068POPC   C4A66342   6.565  21.970   7.320
 5068POPC   C1B66343   6.962  22.506   6.249
 5068POPC   C2B66344   7.015  22.458   6.697
 5068POPC   C3B66345   6.777  22.378   7.052
 5068POPC   C4B66346   6.850  22.395   7.494
 5069POPC   NC366347  20.627  43.155   5.477
 5069POPC   PO466348  20.315  42.559   5.441
 5069POPC   GL166349  20.409  42.842   5.806
 5069POPC   GL266350  20.790  42.867   5.885
 5069POPC   C1A66351  20.384  43.163   6.122
 5069POPC   D2A66352  20.534  43.182   6.540
 5069POPC   C3A66353  20.379  43.187   6.984
 5069POPC   C4A66354  20.532  43.157   7.410
 5069POPC   C1B66355  20.912  43.262   6.129
 5069POPC   C2B66356  20.957  43.458   6.562
 5069POPC   C3B66357  20.883  43.259   6.938
 5069POPC   C4B66358  21.021  43.276   7.324
 5070POPC   NC366359  37.239  23.037   5.376
 5070POPC   PO466360  37.769  22.464   5.449
 5070POPC   GL166361  37.484  22.766   5.718
 5070POPC   GL266362  37.718  22.892   5.896
 5070POPC   C1A66363  37.340  23.119   6.087
 5070POPC   D2A66364  37.497  22.932   6.481
 5070POPC   C3A66365  37.442  23.045   6.919
 5070POPC   C4A66366  37.672  23.088   7.345
 5070POPC   C1B66367  37.738  22.566   6.190
 5070POPC   C2B66368  37.868  22.595   6.631
 5070POPC   C3B66369  37.815  22.699   7.035
 5070POPC   C4B66370  37.985  22.721   7.454
 5071POPC   NC366371  12.634  44.875   5.258
 5071POPC   PO466372  13.087  44.537   5.588
 5071POPC   GL166373  12.848  44.742   5.874
 5071POPC   GL266374  12.616  44.990   5.758
 5071POPC   C1A66375  12.541  44.604   6.182
 5071POPC   D2A66376  12.416  44.405   6.576
 5071POPC   C3A66377  12.763  44.439   6.851
 5071POPC   C4A66378  12.956  44.579   7.204
 5071POPC   C1B66379  12.602   0.118   6.173
 5071POPC   C2B66380  12.404  44.953   6.553
 5071POPC   C3B66381  12.468  44.835   6.981
 5071POPC   C4B66382  12.579  44.833   7.435
 5072POPC   NC366383  24.181   7.906   5.548
 5072POPC   PO466384  24.822   7.867   5.282
 5072POPC   GL166385  24.672   8.009   5.741
 5072POPC   GL266386  24.628   8.380   5.860
 5072POPC   C1A66387  24.499   8.028   6.204
 5072POPC   D2A66388  24.727   8.125   6.600
 5072POPC   C3A66389  24.510   7.944   6.946
 5072POPC   C4A66390  24.275   7.986   7.302
 5072POPC   C1B66391  24.324   8.491   6.241
 5072POPC   C2B66392  24.210   8.257   6.624
 5072POPC   C3B66393  24.243   8.424   7.040
 5072POPC   C4B66394  24.115   8.643   7.419
 5073POPC   NC366395   8.253  27.962   5.514
 5073POPC   PO466396   8.569  27.385   5.292
 5073POPC   GL166397   8.264  27.373   5.663
 5073POPC   GL266398   8.352  27.663   5.909
 5073POPC   C1A66399   8.141  27.247   6.116
 5073POPC   D2A66400   8.304  27.322   6.535
 5073POPC   C3A66401   8.064  27.261   6.908
 5073POPC   C4A66402   8.246  27.260   7.307
 5073POPC   C1B66403   7.966  27.738   6.156
 5073POPC   C2B66404   8.020  27.833   6.596
 5073POPC   C3B66405   8.297  27.700   6.941
 5073POPC   C4B66406   8.102  27.748   7.320
 5074POPC   NC366407  35.507   3.321   5.369
 5074POPC   PO466408  35.110   2.774   5.207
 5074POPC   GL166409  35.133   2.644   5.660
 5074POPC   GL266410  34.927   2.929   5.778
 5074POPC   C1A66411  35.391   2.439   6.045
 5074POPC   D2A66412  35.557   2.477   6.502
 5074POPC   C3A66413  35.357   2.474   6.938
 5074POPC   C4A66414  35.343   2.696   7.342
 5074POPC   C1B66415  35.154   2.865   6.171
 5074POPC   C2B66416  35.019   2.869   6.585
 5074POPC   C3B66417  35.071   2.919   6.989
 5074POPC   C4B66418  34.905   3.062   7.368
 5075POPC   NC366419  20.183   4.504   5.410
 5075POPC   PO466420  19.699   4.899   5.551
 5075POPC   GL166421  19.878   4.515   5.859
 5075POPC   GL266422  20.204   4.330   5.902
 5075POPC   C1A66423  19.873   4.221   6.280
 5075POPC   D2A66424  19.838   4.370   6.727
 5075POPC   C3A66425  19.864   4.147   7.146
 5075POPC   C4A66426  20.109   4.077   7.548
 5075POPC   C1B66427  20.201   4.606   6.297
 5075POPC   C2B66428  20.262   4.718   6.717
 5075POPC   C3B66429  20.049   4.649   7.104
 5075POPC   C4B66430  20.074   4.606   7.539
 5076POPC   NC366431  33.164  30.472   5.202
 5076POPC   PO466432  33.163  29.871   5.534
 5076POPC   GL166433  33.102  29.841   5.932
 5076POPC   GL266434  32.769  29.980   5.926
 5076POPC   C1A66435  33.036  29.927   6.371
 5076POPC   D2A66436  32.794  29.979   6.766
 5076POPC   C3A66437  33.091  29.993   7.123
 5076POPC   C4A66438  33.092  29.969   7.577
 5076POPC   C1B66439  32.725  29.572   6.152
 5076POPC   C2B66440  32.772  29.407   6.586
 5076POPC   C3B66441  32.845  29.459   7.017
 5076POPC   C4B66442  32.628  29.752   7.233
 5077POPC   NC366443  25.084   6.462   5.291
 5077POPC   PO466444  25.127   7.024   5.627
 5077POPC   GL166445  25.243   6.626   5.770
 5077POPC   GL266446  25.590   6.613   5.814
 5077POPC   C1A66447  25.236   6.506   6.200
 5077POPC   D2A66448  25.065   6.688   6.579
 5077POPC   C3A66449  25.132   6.506   6.983
 5077POPC   C4A66450  25.210   6.632   7.412
 5077POPC   C1B66451  25.720   6.863   6.205
 5077POPC   C2B66452  25.684   6.936   6.681
 5077POPC   C3B66453  25.630   6.613   7.015
 5077POPC   C4B66454  25.474   6.200   7.213
 5078POPC   NC366455  27.002  37.169   5.441
 5078POPC   PO466456  26.432  36.811   5.393
 5078POPC   GL166457  26.742  36.782   5.729
 5078POPC   GL266458  27.105  36.773   5.735
 5078POPC   C1A66459  26.814  36.669   6.155
 5078POPC   D2A66460  26.625  36.594   6.555
 5078POPC   C3A66461  26.474  36.546   6.960
 5078POPC   C4A66462  26.783  36.611   7.253
 5078POPC   C1B66463  27.184  37.016   6.145
 5078POPC   C2B66464  26.876  37.111   6.466
 5078POPC   C3B66465  26.855  36.953   6.892
 5078POPC   C4B66466  27.069  37.028   7.303
 5079POPC   NC366467  16.305  17.379   5.152
 5079POPC   PO466468  15.815  17.807   5.292
 5079POPC   GL166469  15.885  17.580   5.740
 5079POPC   GL266470  15.693  17.267   5.801
 5079POPC   C1A66471  15.857  17.542   6.233
 5079POPC   D2A66472  16.048  17.424   6.645
 5079POPC   C3A66473  15.797  17.614   6.992
 5079POPC   C4A66474  15.920  17.695   7.413
 5079POPC   C1B66475  15.453  17.206   6.202
 5079POPC   C2B66476  15.547  17.322   6.637
 5079POPC   C3B66477  15.556  17.154   7.092
 5079POPC   C4B66478  15.634  17.256   7.516
 5080POPC   NC366479  44.426   2.097   5.392
 5080POPC   PO466480   0.054   1.815   5.429
 5080POPC   GL166481  44.889   1.818   5.851
 5080POPC   GL266482  44.556   1.966   5.856
 5080POPC   C1A66483  44.702   1.722   6.266
 5080POPC   D2A66484  44.826   1.519   6.642
 5080POPC   C3A66485  44.860   1.856   6.960
 5080POPC   C4A66486  44.549   1.924   7.248
 5080POPC   C1B66487  44.789   2.237   6.158
 5080POPC   C2B66488  44.908   2.266   6.610
 5080POPC   C3B66489  44.594   2.339   6.948
 5080POPC   C4B66490  44.472   2.411   7.382
 5081POPC   NC366491   6.037  29.547   5.326
 5081POPC   PO466492   5.511  29.901   5.141
 5081POPC   GL166493   5.684  29.954   5.596
 5081POPC   GL266494   5.950  30.212   5.662
 5081POPC   C1A66495   5.639  29.871   6.086
 5081POPC   D2A66496   5.464  29.933   6.539
 5081POPC   C3A66497   5.699  29.909   6.962
 5081POPC   C4A66498   5.617  29.665   7.385
 5081POPC   C1B66499   6.100  30.139   6.092
 5081POPC   C2B66500   6.025  30.082   6.545
 5081POPC   C3B66501   6.141  30.203   6.980
 5081POPC   C4B66502   6.071  29.904   7.312
 5082POPC   NC366503  30.322  14.311   5.495
 5082POPC   PO466504  29.847  14.730   5.209
 5082POPC   GL166505  29.807  14.616   5.682
 5082POPC   GL266506  29.862  14.246   5.756
 5082POPC   C1A66507  29.907  14.577   6.147
 5082POPC   D2A66508  29.786  14.314   6.512
 5082POPC   C3A66509  29.800  14.541   6.884
 5082POPC   C4A66510  30.210  14.600   7.091
 5082POPC   C1B66511  30.106  14.100   6.139
 5082POPC   C2B66512  30.332  14.043   6.504
 5082POPC   C3B66513  30.162  14.136   6.884
 5082POPC   C4B66514  29.915  14.163   7.213
 5083POPC   NC366515   9.232  29.420   5.386
 5083POPC   PO466516   9.246  28.680   5.334
 5083POPC   GL166517   9.113  28.905   5.732
 5083POPC   GL266518   8.782  28.803   5.854
 5083POPC   C1A66519   9.072  29.235   6.095
 5083POPC   D2A66520   8.807  29.398   6.471
 5083POPC   C3A66521   8.919  29.283   6.910
 5083POPC   C4A66522   9.252  29.043   7.118
 5083POPC   C1B66523   8.977  28.746   6.249
 5083POPC   C2B66524   9.051  28.857   6.664
 5083POPC   C3B66525   8.819  28.782   7.063
 5083POPC   C4B66526   8.794  29.102   7.368
 5084POPC   NC366527   6.739  25.492   5.383
 5084POPC   PO466528   6.404  24.909   5.538
 5084POPC   GL166529   6.632  24.954   5.920
 5084POPC   GL266530   6.783  25.281   5.861
 5084POPC   C1A66531   6.731  25.149   6.357
 5084POPC   D2A66532   6.610  25.198   6.798
 5084POPC   C3A66533   6.884  25.157   7.161
 5084POPC   C4A66534   6.570  25.061   7.485
 5084POPC   C1B66535   7.024  25.558   6.174
 5084POPC   C2B66536   7.188  25.542   6.621
 5084POPC   C3B66537   6.990  25.652   7.041
 5084POPC   C4B66538   6.645  25.553   7.386
 5085POPC   NC366539  21.789  19.002   5.314
 5085POPC   PO466540  22.260  19.280   5.322
 5085POPC   GL166541  22.229  19.126   5.792
 5085POPC   GL266542  21.936  18.925   5.825
 5085POPC   C1A66543  22.283  19.133   6.303
 5085POPC   D2A66544  22.346  19.010   6.782
 5085POPC   C3A66545  22.445  19.317   7.143
 5085POPC   C4A66546  22.400  19.471   7.587
 5085POPC   C1B66547  21.858  18.839   6.267
 5085POPC   C2B66548  21.847  19.040   6.681
 5085POPC   C3B66549  21.949  19.139   7.118
 5085POPC   C4B66550  21.774  18.934   7.491
 5086POPC   NC366551  20.094  39.445   5.526
 5086POPC   PO466552  19.736  38.809   5.397
 5086POPC   GL166553  19.879  39.030   5.774
 5086POPC   GL266554  19.680  39.309   5.800
 5086POPC   C1A66555  20.034  39.284   6.172
 5086POPC   D2A66556  20.272  39.277   6.572
 5086POPC   C3A66557  20.009  39.269   6.944
 5086POPC   C4A66558  19.681  38.986   7.121
 5086POPC   C1B66559  19.562  39.487   6.164
 5086POPC   C2B66560  19.657  39.351   6.559
 5086POPC   C3B66561  19.517  39.444   6.953
 5086POPC   C4B66562  19.758  39.447   7.354
 5087POPC   NC366563  13.339  17.521   5.348
 5087POPC   PO466564  14.021  17.321   5.242
 5087POPC   GL166565  13.759  17.225   5.647
 5087POPC   GL266566  13.590  17.507   5.769
 5087POPC   C1A66567  13.610  17.145   6.110
 5087POPC   D2A66568  13.449  17.247   6.516
 5087POPC   C3A66569  13.759  17.409   6.798
 5087POPC   C4A66570  13.868  17.333   7.209
 5087POPC   C1B66571  13.542  17.680   6.167
 5087POPC   C2B66572  13.625  17.914   6.530
 5087POPC   C3B66573  13.452  17.813   6.898
 5087POPC   C4B66574  13.460  17.671   7.299
 5088POPC   NC366575  10.698  25.580   5.541
 5088POPC   PO466576  10.545  26.248   5.488
 5088POPC   GL166577  10.667  26.213   5.897
 5088POPC   GL266578  10.546  25.897   5.927
 5088POPC   C1A66579  10.732  26.117   6.327
 5088POPC   D2A66580  10.786  25.852   6.669
 5088POPC   C3A66581  10.624  26.072   7.028
 5088POPC   C4A66582  10.507  25.961   7.452
 5088POPC   C1B66583  10.245  25.896   6.276
 5088POPC   C2B66584  10.293  25.822   6.694
 5088POPC   C3B66585  10.152  25.876   7.081
 5088POPC   C4B66586  10.073  25.708   7.488
 5089POPC   NC366587  15.793  32.848   5.374
 5089POPC   PO466588  16.073  33.430   5.571
 5089POPC   GL166589  15.926  33.144   5.880
 5089POPC   GL266590  15.604  32.969   5.837
 5089POPC   C1A66591  16.027  33.291   6.292
 5089POPC   D2A66592  16.044  33.467   6.698
 5089POPC   C3A66593  16.154  33.174   7.014
 5089POPC   C4A66594  16.461  32.958   7.254
 5089POPC   C1B66595  15.649  32.945   6.293
 5089POPC   C2B66596  15.638  33.157   6.686
 5089POPC   C3B66597  15.728  32.874   7.010
 5089POPC   C4B66598  15.748  32.463   7.171
 5090POPC   NC366599  26.423  23.498   4.952
 5090POPC   PO466600  26.017  23.697   5.471
 5090POPC   GL166601  25.952  23.606   5.877
 5090POPC   GL266602  25.846  23.957   5.999
 5090POPC   C1A66603  26.090  23.575   6.299
 5090POPC   D2A66604  26.057  23.910   6.557
 5090POPC   C3A66605  26.022  23.774   6.970
 5090POPC   C4A66606  25.710  23.988   7.175
 5090POPC   C1B66607  26.322  23.954   6.052
 5090POPC   C2B66608  26.540  24.062   6.436
 5090POPC   C3B66609  26.440  24.082   6.872
 5090POPC   C4B66610  26.347  24.023   7.310
 5091POPC   NC366611   6.893  18.933   5.512
 5091POPC   PO466612   6.257  19.169   5.460
 5091POPC   GL166613   6.552  19.185   5.838
 5091POPC   GL266614   6.616  18.858   5.950
 5091POPC   C1A66615   6.830  19.264   6.204
 5091POPC   D2A66616   6.726  19.318   6.654
 5091POPC   C3A66617   6.988  19.283   7.049
 5091POPC   C4A66618   6.990  18.891   7.324
 5091POPC   C1B66619   6.395  18.977   6.334
 5091POPC   C2B66620   6.338  18.729   6.722
 5091POPC   C3B66621   6.527  18.692   7.129
 5091POPC   C4B66622   6.444  18.951   7.482
 5092POPC   NC366623   4.605  20.855   5.238
 5092POPC   PO466624   5.073  20.364   5.543
 5092POPC   GL166625   4.960  20.658   5.865
 5092POPC   GL266626   4.693  20.912   5.817
 5092POPC   C1A66627   5.002  20.760   6.308
 5092POPC   D2A66628   5.133  20.863   6.737
 5092POPC   C3A66629   5.392  20.576   6.964
 5092POPC   C4A66630   5.336  20.343   7.353
 5092POPC   C1B66631   4.593  21.060   6.227
 5092POPC   C2B66632   4.722  21.151   6.645
 5092POPC   C3B66633   4.655  20.927   7.032
 5092POPC   C4B66634   4.941  20.624   7.202
 5093POPC   NC366635  11.225  36.743   5.108
 5093POPC   PO466636  11.381  36.168   5.400
 5093POPC   GL166637  11.555  36.083   5.787
 5093POPC   GL266638  11.222  36.178   5.906
 5093POPC   C1A66639  11.530  36.036   6.254
 5093POPC   D2A66640  11.466  36.280   6.616
 5093POPC   C3A66641  11.538  36.034   6.972
 5093POPC   C4A66642  11.294  35.897   7.293
 5093POPC   C1B66643  11.031  36.246   6.288
 5093POPC   C2B66644  10.935  36.215   6.710
 5093POPC   C3B66645  11.021  36.306   7.139
 5093POPC   C4B66646  11.426  36.395   7.338
 5094POPC   NC366647   0.101  13.346   5.231
 5094POPC   PO466648   0.707  13.478   5.383
 5094POPC   GL166649   0.462  13.393   5.762
 5094POPC   GL266650   0.474  13.731   5.876
 5094POPC   C1A66651   0.403  13.379   6.240
 5094POPC   D2A66652   0.490  13.669   6.594
 5094POPC   C3A66653   0.434  13.502   7.024
 5094POPC   C4A66654   0.454  13.728   7.445
 5094POPC   C1B66655   0.024  13.576   5.981
 5094POPC   C2B66656  44.929  13.520   6.426
 5094POPC   C3B66657   0.040  13.773   6.785
 5094POPC   C4B66658  44.997  13.712   7.191
 5095POPC   NC366659  27.489   6.880   5.317
 5095POPC   PO466660  27.378   6.339   5.416
 5095POPC   GL166661  27.549   6.679   5.788
 5095POPC   GL266662  27.411   7.034   5.788
 5095POPC   C1A66663  27.662   6.860   6.242
 5095POPC   D2A66664  27.663   6.859   6.730
 5095POPC   C3A66665  27.721   6.454   6.895
 5095POPC   C4A66666  27.823   6.352   7.346
 5095POPC   C1B66667  27.175   6.929   6.136
 5095POPC   C2B66668  27.223   7.062   6.541
 5095POPC   C3B66669  27.176   6.900   6.979
 5095POPC   C4B66670  27.449   6.685   7.233
 5096POPC   NC366671   7.850  35.366   5.274
 5096POPC   PO466672   7.191  35.141   5.463
 5096POPC   GL166673   7.496  35.260   5.770
 5096POPC   GL266674   7.651  35.585   5.762
 5096POPC   C1A66675   7.428  35.322   6.208
 5096POPC   D2A66676   7.439  35.023   6.525
 5096POPC   C3A66677   7.478  35.239   6.888
 5096POPC   C4A66678   7.648  35.195   7.282
 5096POPC   C1B66679   7.645  35.782   6.166
 5096POPC   C2B66680   7.580  35.678   6.594
 5096POPC   C3B66681   7.670  35.696   7.029
 5096POPC   C4B66682   7.357  35.661   7.328
 5097POPC   NC366683  33.567  42.586   5.104
 5097POPC   PO466684  33.142  42.160   5.478
 5097POPC   GL166685  32.976  42.437   5.775
 5097POPC   GL266686  32.934  42.165   5.973
 5097POPC   C1A66687  33.066  42.624   6.192
 5097POPC   D2A66688  33.183  42.527   6.619
 5097POPC   C3A66689  33.004  42.684   7.001
 5097POPC   C4A66690  32.998  42.512   7.420
 5097POPC   C1B66691  32.893  42.153   6.427
 5097POPC   C2B66692  32.938  41.927   6.804
 5097POPC   C3B66693  32.859  42.076   7.214
 5097POPC   C4B66694  32.660  42.032   7.619
 5098POPC   NC366695   9.073  42.961   5.423
 5098POPC   PO466696   8.861  43.580   5.604
 5098POPC   GL166697   8.808  43.145   5.862
 5098POPC   GL266698   8.870  42.749   5.867
 5098POPC   C1A66699   8.838  43.136   6.330
 5098POPC   D2A66700   9.041  43.424   6.617
 5098POPC   C3A66701   9.029  43.252   7.000
 5098POPC   C4A66702   8.783  42.994   7.229
 5098POPC   C1B66703   8.969  42.632   6.318
 5098POPC   C2B66704   8.979  42.633   6.788
 5098POPC   C3B66705   9.228  42.754   7.160
 5098POPC   C4B66706   9.389  42.867   7.607
 5099POPC   NC366707   5.015   7.644   4.924
 5099POPC   PO466708   4.578   7.912   5.303
 5099POPC   GL166709   4.566   8.049   5.773
 5099POPC   GL266710   4.797   8.340   5.805
 5099POPC   C1A66711   4.602   8.151   6.244
 5099POPC   D2A66712   4.705   8.189   6.712
 5099POPC   C3A66713   5.054   8.056   7.019
 5099POPC   C4A66714   5.408   8.153   7.338
 5099POPC   C1B66715   4.691   8.661   6.125
 5099POPC   C2B66716   4.674   8.713   6.578
 5099POPC   C3B66717   4.718   8.600   7.041
 5099POPC   C4B66718   4.949   8.377   7.407
 5100POPC   NC366719  36.189   0.840   5.410
 5100POPC   PO466720  36.395   1.472   5.325
 5100POPC   GL166721  36.243   1.429   5.781
 5100POPC   GL266722  36.121   1.079   5.886
 5100POPC   C1A66723  36.018   1.527   6.207
 5100POPC   D2A66724  35.950   1.206   6.554
 5100POPC   C3A66725  35.979   1.124   7.020
 5100POPC   C4A66726  36.061   1.237   7.475
 5100POPC   C1B66727  36.416   1.222   6.237
 5100POPC   C2B66728  36.469   1.192   6.665
 5100POPC   C3B66729  36.645   1.454   6.945
 5100POPC   C4B66730  36.536   1.257   7.287
 5101POPC   NC366731   5.902  25.009   5.486
 5101POPC   PO466732   6.120  25.635   5.405
 5101POPC   GL166733   5.925  25.440   5.773
 5101POPC   GL266734   6.196  25.241   5.876
 5101POPC   C1A66735   5.693  25.421   6.185
 5101POPC   D2A66736   5.558  25.587   6.599
 5101POPC   C3A66737   5.736  25.492   6.997
 5101POPC   C4A66738   5.731  25.124   7.236
 5101POPC   C1B66739   6.192  25.177   6.321
 5101POPC   C2B66740   6.163  25.447   6.682
 5101POPC   C3B66741   6.234  25.421   7.119
 5101POPC   C4B66742   6.149  25.305   7.522
 5102POPC   NC366743  12.959   0.817   5.347
 5102POPC   PO466744  12.582   0.327   5.362
 5102POPC   GL166745  12.823   0.469   5.709
 5102POPC   GL266746  13.108   0.222   5.711
 5102POPC   C1A66747  12.935   0.570   6.132
 5102POPC   D2A66748  12.997   0.405   6.547
 5102POPC   C3A66749  12.822   0.578   6.950
 5102POPC   C4A66750  12.857   0.680   7.422
 5102POPC   C1B66751  13.111   0.074   6.132
 5102POPC   C2B66752  12.920  44.877   6.493
 5102POPC   C3B66753  12.914   0.035   6.898
 5102POPC   C4B66754  13.028   0.096   7.305
 5103POPC   NC366755  30.875  43.111   5.350
 5103POPC   PO466756  30.514  42.571   5.225
 5103POPC   GL166757  30.714  42.805   5.713
 5103POPC   GL266758  30.810  43.146   5.860
 5103POPC   C1A66759  30.762  42.737   6.208
 5103POPC   D2A66760  30.511  42.857   6.608
 5103POPC   C3A66761  30.663  43.016   7.015
 5103POPC   C4A66762  30.454  43.307   7.290
 5103POPC   C1B66763  30.696  43.227   6.313
 5103POPC   C2B66764  30.904  43.372   6.701
 5103POPC   C3B66765  30.985  43.411   7.172
 5103POPC   C4B66766  30.829  43.487   7.573
 5104POPC   NC366767  28.431  19.423   5.393
 5104POPC   PO466768  28.173  18.893   5.703
 5104POPC   GL166769  28.383  19.210   5.850
 5104POPC   GL266770  28.707  19.101   5.688
 5104POPC   C1A66771  28.308  19.465   6.211
 5104POPC   D2A66772  28.126  19.513   6.629
 5104POPC   C3A66773  28.167  19.184   6.969
 5104POPC   C4A66774  28.130  18.740   7.131
 5104POPC   C1B66775  28.747  18.993   6.117
 5104POPC   C2B66776  28.529  19.087   6.522
 5104POPC   C3B66777  28.642  18.957   6.958
 5104POPC   C4B66778  28.533  19.082   7.398
 5105POPC   NC366779  27.266   9.581   5.238
 5105POPC   PO466780  26.663   9.612   5.549
 5105POPC   GL166781  26.802   9.607   5.929
 5105POPC   GL266782  27.160   9.516   5.898
 5105POPC   C1A66783  26.657   9.638   6.342
 5105POPC   D2A66784  26.676   9.477   6.760
 5105POPC   C3A66785  26.549   9.796   7.053
 5105POPC   C4A66786  26.562   9.810   7.498
 5105POPC   C1B66787  27.126   9.866   6.210
 5105POPC   C2B66788  26.974   9.929   6.620
 5105POPC   C3B66789  27.064   9.736   7.009
 5105POPC   C4B66790  26.949  10.048   7.278
 5106POPC   NC366791  42.318  21.478   5.004
 5106POPC   PO466792  42.282  21.232   5.405
 5106POPC   GL166793  42.446  21.457   5.827
 5106POPC   GL266794  42.591  21.813   5.827
 5106POPC   C1A66795  42.581  21.406   6.306
 5106POPC   D2A66796  42.710  21.371   6.778
 5106POPC   C3A66797  42.457  21.455   7.179
 5106POPC   C4A66798  42.293  21.325   7.617
 5106POPC   C1B66799  42.593  21.917   6.308
 5106POPC   C2B66800  42.562  21.874   6.807
 5106POPC   C3B66801  42.366  22.034   7.220
 5106POPC   C4B66802  42.431  21.932   7.644
 5107POPC   NC366803  44.063  43.067   5.433
 5107POPC   PO466804  43.634  43.377   5.090
 5107POPC   GL166805  43.776  43.397   5.651
 5107POPC   GL266806  43.740  43.049   5.829
 5107POPC   C1A66807  43.889  43.406   6.143
 5107POPC   D2A66808  44.142  43.042   6.407
 5107POPC   C3A66809  44.123  42.973   6.864
 5107POPC   C4A66810  43.895  43.296   7.143
 5107POPC   C1B66811  43.585  43.000   6.278
 5107POPC   C2B66812  43.612  43.072   6.751
 5107POPC   C3B66813  43.722  42.830   7.167
 5107POPC   C4B66814  43.504  42.860   7.566
 5108POPC   NC366815   6.241  32.013   5.488
 5108POPC   PO466816   5.558  32.129   5.577
 5108POPC   GL166817   5.679  32.452   5.851
 5108POPC   GL266818   6.030  32.453   5.876
 5108POPC   C1A66819   5.531  32.525   6.225
 5108POPC   D2A66820   5.793  32.419   6.533
 5108POPC   C3A66821   5.650  32.223   6.892
 5108POPC   C4A66822   5.459  32.320   7.251
 5108POPC   C1B66823   5.958  32.076   6.142
 5108POPC   C2B66824   6.030  31.965   6.569
 5108POPC   C3B66825   6.150  32.295   6.886
 5108POPC   C4B66826   5.961  32.457   7.272
 5109POPC   NC366827  25.405  40.960   5.309
 5109POPC   PO466828  24.775  41.194   5.445
 5109POPC   GL166829  25.100  40.968   5.736
 5109POPC   GL266830  25.489  41.027   5.791
 5109POPC   C1A66831  25.258  40.645   6.053
 5109POPC   D2A66832  25.139  40.484   6.490
 5109POPC   C3A66833  25.367  40.554   6.842
 5109POPC   C4A66834  25.438  40.681   7.227
 5109POPC   C1B66835  25.314  41.142   6.185
 5109POPC   C2B66836  25.452  40.964   6.564
 5109POPC   C3B66837  25.553  41.122   6.956
 5109POPC   C4B66838  25.529  41.323   7.369
 5110POPC   NC366839  14.330  34.102   5.187
 5110POPC   PO466840  14.498  34.706   5.337
 5110POPC   GL166841  14.292  34.676   5.743
 5110POPC   GL266842  14.086  34.364   5.800
 5110POPC   C1A66843  14.325  34.743   6.188
 5110POPC   D2A66844  14.093  34.714   6.562
 5110POPC   C3A66845  14.318  34.759   6.913
 5110POPC   C4A66846  14.174  34.698   7.316
 5110POPC   C1B66847  14.362  34.242   6.172
 5110POPC   C2B66848  14.472  34.367   6.609
 5110POPC   C3B66849  14.355  34.261   7.049
 5110POPC   C4B66850  14.398  34.261   7.514
 5111POPC   NC366851  13.028  43.346   5.268
 5111POPC   PO466852  12.544  42.904   5.419
 5111POPC   GL166853  12.793  43.162   5.701
 5111POPC   GL266854  12.832  42.872   5.863
 5111POPC   C1A66855  12.765  43.278   6.157
 5111POPC   D2A66856  12.548  43.204   6.520
 5111POPC   C3A66857  12.788  43.324   6.869
 5111POPC   C4A66858  12.652  43.467   7.259
 5111POPC   C1B66859  12.796  42.779   6.305
 5111POPC   C2B66860  12.659  42.724   6.730
 5111POPC   C3B66861  12.586  42.909   7.111
 5111POPC   C4B66862  12.924  43.043   7.312
 5112POPC   NC366863   1.323   4.699   5.504
 5112POPC   PO466864   1.330   5.346   5.466
 5112POPC   GL166865   1.314   5.111   5.820
 5112POPC   GL266866   0.974   4.958   5.829
 5112POPC   C1A66867   1.326   4.949   6.240
 5112POPC   D2A66868   1.602   4.810   6.583
 5112POPC   C3A66869   1.506   4.931   7.021
 5112POPC   C4A66870   1.483   5.066   7.472
 5112POPC   C1B66871   0.982   5.367   6.092
 5112POPC   C2B66872   1.184   5.383   6.497
 5112POPC   C3B66873   1.087   5.238   6.908
 5112POPC   C4B66874   0.980   5.497   7.256
 5113POPC   NC366875  18.280  15.868   5.354
 5113POPC   PO466876  17.788  16.335   5.203
 5113POPC   GL166877  17.973  16.128   5.672
 5113POPC   GL266878  18.346  16.124   5.776
 5113POPC   C1A66879  18.141  15.742   6.028
 5113POPC   D2A66880  18.185  15.562   6.484
 5113POPC   C3A66881  18.314  15.725   6.894
 5113POPC   C4A66882  18.162  15.866   7.281
 5113POPC   C1B66883  18.199  16.217   6.179
 5113POPC   C2B66884  18.348  16.139   6.585
 5113POPC   C3B66885  18.334  16.246   7.014
 5113POPC   C4B66886  18.304  16.316   7.477
 5114POPC   NC366887  31.108   3.713   5.317
 5114POPC   PO466888  30.545   3.413   5.511
 5114POPC   GL166889  30.917   3.548   5.758
 5114POPC   GL266890  31.059   3.906   5.781
 5114POPC   C1A66891  31.019   3.560   6.187
 5114POPC   D2A66892  30.722   3.520   6.523
 5114POPC   C3A66893  30.827   3.470   6.946
 5114POPC   C4A66894  31.127   3.685   7.139
 5114POPC   C1B66895  30.666   3.918   6.059
 5114POPC   C2B66896  30.620   4.021   6.530
 5114POPC   C3B66897  30.509   3.916   6.974
 5114POPC   C4B66898  30.569   4.129   7.372
 5115POPC   NC366899  40.554  29.011   5.466
 5115POPC   PO466900  41.009  29.517   5.477
 5115POPC   GL166901  40.962  29.239   5.873
 5115POPC   GL266902  40.749  28.913   5.939
 5115POPC   C1A66903  41.086  29.404   6.295
 5115POPC   D2A66904  40.964  29.605   6.710
 5115POPC   C3A66905  40.869  29.468   7.148
 5115POPC   C4A66906  40.713  29.209   7.503
 5115POPC   C1B66907  41.014  28.902   6.285
 5115POPC   C2B66908  41.027  29.066   6.706
 5115POPC   C3B66909  40.786  28.956   7.052
 5115POPC   C4B66910  40.434  28.783   7.251
 5116POPC   NC366911  15.127  14.851   5.319
 5116POPC   PO466912  14.916  14.286   5.517
 5116POPC   GL166913  15.116  14.414   5.861
 5116POPC   GL266914  15.395  14.565   5.715
 5116POPC   C1A66915  15.045  14.317   6.278
 5116POPC   D2A66916  14.977  14.559   6.634
 5116POPC   C3A66917  14.755  14.372   6.941
 5116POPC   C4A66918  14.969  14.129   7.198
 5116POPC   C1B66919  15.599  14.451   6.104
 5116POPC   C2B66920  15.477  14.488   6.539
 5116POPC   C3B66921  15.433  14.369   6.971
 5116POPC   C4B66922  15.658  14.669   7.228
 5117POPC   NC366923  31.182  10.319   5.608
 5117POPC   PO466924  31.081  10.946   5.511
 5117POPC   GL166925  31.305  10.776   5.839
 5117POPC   GL266926  31.600  10.699   5.704
 5117POPC   C1A66927  31.254  10.883   6.292
 5117POPC   D2A66928  31.389  10.612   6.636
 5117POPC   C3A66929  31.397  10.571   7.082
 5117POPC   C4A66930  31.309  10.178   7.287
 5117POPC   C1B66931  31.623  10.547   6.149
 5117POPC   C2B66932  31.844  10.397   6.503
 5117POPC   C3B66933  31.872  10.485   6.926
 5117POPC   C4B66934  31.880  10.726   7.284
 5118POPC   NC366935  10.525   8.337   5.415
 5118POPC   PO466936   9.917   8.287   5.405
 5118POPC   GL166937  10.217   8.387   5.824
 5118POPC   GL266938  10.622   8.280   5.914
 5118POPC   C1A66939  10.280   8.300   6.285
 5118POPC   D2A66940  10.331   8.480   6.698
 5118POPC   C3A66941  10.437   8.221   7.074
 5118POPC   C4A66942  10.383   8.199   7.525
 5118POPC   C1B66943  10.800   8.368   6.354
 5118POPC   C2B66944  10.836   8.470   6.825
 5118POPC   C3B66945  10.828   8.434   7.315
 5118POPC   C4B66946  10.845   8.246   7.763
 5119POPC   NC366947   5.614  23.495   5.062
 5119POPC   PO466948   6.127  23.831   5.331
 5119POPC   GL166949   6.271  23.935   5.771
 5119POPC   GL266950   6.141  23.612   5.856
 5119POPC   C1A66951   6.233  24.016   6.244
 5119POPC   D2A66952   5.907  24.060   6.580
 5119POPC   C3A66953   5.942  23.967   6.989
 5119POPC   C4A66954   5.822  23.738   7.284
 5119POPC   C1B66955   5.954  23.585   6.276
 5119POPC   C2B66956   5.855  23.520   6.713
 5119POPC   C3B66957   6.081  23.368   7.052
 5119POPC   C4B66958   6.084  23.414   7.549
 5120POPC   NC366959  13.065  15.198   5.313
 5120POPC   PO466960  12.365  15.027   5.497
 5120POPC   GL166961  12.733  15.192   5.755
 5120POPC   GL266962  13.045  15.033   5.791
 5120POPC   C1A66963  12.909  15.330   6.190
 5120POPC   D2A66964  12.747  15.426   6.611
 5120POPC   C3A66965  12.709  15.092   6.840
 5120POPC   C4A66966  12.843  15.207   7.224
 5120POPC   C1B66967  13.175  14.874   6.215
 5120POPC   C2B66968  13.073  14.736   6.650
 5120POPC   C3B66969  13.183  14.836   7.097
 5120POPC   C4B66970  13.033  14.853   7.557
 5121POPC   NC366971   0.256  23.934   5.396
 5121POPC   PO466972   0.754  23.458   5.470
 5121POPC   GL166973   0.574  23.447   5.874
 5121POPC   GL266974   0.251  23.553   5.840
 5121POPC   C1A66975   0.445  23.389   6.312
 5121POPC   D2A66976   0.731  23.390   6.654
 5121POPC   C3A66977   0.637  23.612   7.037
 5121POPC   C4A66978   0.691  24.118   7.045
 5121POPC   C1B66979   0.397  23.866   6.171
 5121POPC   C2B66980   0.386  23.816   6.648
 5121POPC   C3B66981   0.226  23.899   7.107
 5121POPC   C4B66982   0.016  24.113   7.471
 5122POPC   NC366983  30.909   9.266   5.363
 5122POPC   PO466984  30.340   9.525   5.359
 5122POPC   GL166985  30.483   9.194   5.704
 5122POPC   GL266986  30.780   8.935   5.735
 5122POPC   C1A66987  30.467   8.957   6.139
 5122POPC   D2A66988  30.646   9.078   6.559
 5122POPC   C3A66989  30.749   8.933   7.003
 5122POPC   C4A66990  30.726   8.689   7.395
 5122POPC   C1B66991  30.975   8.885   6.186
 5122POPC   C2B66992  31.002   8.677   6.631
 5122POPC   C3B66993  31.140   8.613   7.096
 5122POPC   C4B66994  31.175   8.975   7.378
 5123POPC   NC366995  16.197  19.881   5.220
 5123POPC   PO466996  15.587  19.889   5.361
 5123POPC   GL166997  15.567  19.939   5.822
 5123POPC   GL266998  15.459  20.298   5.853
 5123POPC   C1A66999  15.848  19.763   6.203
 5123POPC   D2A67000  16.242  19.851   6.527
 5123POPC   C3A67001  16.148  19.864   7.019
 5123POPC   C4A67002  16.017  19.674   7.452
 5123POPC   C1B67003  15.753  20.258   6.210
 5123POPC   C2B67004  15.788  20.064   6.613
 5123POPC   C3B67005  15.614  20.071   6.997
 5123POPC   C4B67006  15.576  19.938   7.388
 5124POPC   NC367007  24.803  38.002   5.542
 5124POPC   PO467008  24.448  37.371   5.518
 5124POPC   GL167009  24.636  37.614   5.812
 5124POPC   GL267010  24.340  37.744   5.957
 5124POPC   C1A67011  24.809  37.735   6.193
 5124POPC   D2A67012  24.798  37.530   6.613
 5124POPC   C3A67013  24.567  37.693   6.973
 5124POPC   C4A67014  24.592  37.762   7.429
 5124POPC   C1B67015  24.438  37.388   6.258
 5124POPC   C2B67016  24.231  37.262   6.635
 5124POPC   C3B67017  24.247  37.181   7.075
 5124POPC   C4B67018  24.282  37.276   7.508
 5125POPC   NC367019   9.291  13.317   5.673
 5125POPC   PO467020   9.798  13.551   5.366
 5125POPC   GL167021   9.825  13.381   5.782
 5125POPC   GL267022   9.928  13.704   5.856
 5125POPC   C1A67023   9.874  13.377   6.239
 5125POPC   D2A67024   9.948  13.588   6.608
 5125POPC   C3A67025   9.647  13.498   6.897
 5125POPC   C4A67026   9.725  13.389   7.304
 5125POPC   C1B67027   9.856  13.950   6.211
 5125POPC   C2B67028  10.050  14.079   6.575
 5125POPC   C3B67029   9.936  14.060   7.009
 5125POPC   C4B67030   9.602  13.884   7.218
 5126POPC   NC367031  36.416  16.461   5.455
 5126POPC   PO467032  36.254  17.168   5.659
 5126POPC   GL167033  36.223  16.739   5.892
 5126POPC   GL267034  36.156  16.344   5.882
 5126POPC   C1A67035  36.152  16.602   6.353
 5126POPC   D2A67036  36.356  16.622   6.779
 5126POPC   C3A67037  36.352  17.060   6.936
 5126POPC   C4A67038  36.229  17.196   7.344
 5126POPC   C1B67039  35.739  16.396   6.099
 5126POPC   C2B67040  35.618  16.536   6.514
 5126POPC   C3B67041  35.860  16.797   6.798
 5126POPC   C4B67042  36.075  16.732   7.203
 5127POPC   NC367043  34.163  37.156   5.422
 5127POPC   PO467044  33.768  36.661   5.350
 5127POPC   GL167045  33.776  36.790   5.818
 5127POPC   GL267046  34.099  36.783   5.771
 5127POPC   C1A67047  33.668  36.917   6.284
 5127POPC   D2A67048  33.419  36.813   6.684
 5127POPC   C3A67049  33.625  36.971   7.079
 5127POPC   C4A67050  33.558  36.963   7.532
 5127POPC   C1B67051  34.141  36.704   6.194
 5127POPC   C2B67052  34.135  36.969   6.536
 5127POPC   C3B67053  34.090  36.845   6.932
 5127POPC   C4B67054  34.145  37.102   7.268
 5128POPC   NC367055   7.177  34.688   5.569
 5128POPC   PO467056   7.720  34.293   5.434
 5128POPC   GL167057   7.730  34.382   5.857
 5128POPC   GL267058   7.381  34.322   5.849
 5128POPC   C1A67059   7.555  34.488   6.294
 5128POPC   D2A67060   7.373  34.547   6.709
 5128POPC   C3A67061   7.604  34.738   7.037
 5128POPC   C4A67062   7.767  34.500   7.376
 5128POPC   C1B67063   7.008  34.297   6.121
 5128POPC   C2B67064   6.899  34.428   6.524
 5128POPC   C3B67065   7.001  34.275   6.938
 5128POPC   C4B67066   7.279  34.383   7.248
 5129POPC   NC367067  30.751  37.103   5.402
 5129POPC   PO467068  30.564  36.393   5.520
 5129POPC   GL167069  30.386  36.636   5.848
 5129POPC   GL267070  30.389  36.986   5.757
 5129POPC   C1A67071  30.609  36.792   6.218
 5129POPC   D2A67072  30.881  37.026   6.542
 5129POPC   C3A67073  30.868  36.849   6.962
 5129POPC   C4A67074  31.136  36.763   7.313
 5129POPC   C1B67075  30.454  37.275   6.094
 5129POPC   C2B67076  30.383  37.145   6.508
 5129POPC   C3B67077  30.509  37.247   6.897
 5129POPC   C4B67078  30.435  37.018   7.235
 5130POPC   NC367079  28.762  26.072   5.218
 5130POPC   PO467080  29.338  25.830   5.170
 5130POPC   GL167081  29.299  25.960   5.631
 5130POPC   GL267082  28.970  26.106   5.693
 5130POPC   C1A67083  29.352  25.901   6.108
 5130POPC   D2A67084  29.178  26.003   6.548
 5130POPC   C3A67085  29.382  25.899   6.957
 5130POPC   C4A67086  29.231  25.638   7.338
 5130POPC   C1B67087  28.848  26.130   6.131
 5130POPC   C2B67088  28.829  26.390   6.501
 5130POPC   C3B67089  29.015  26.408   6.923
 5130POPC   C4B67090  29.053  26.128   7.268
 5131POPC   NC367091   5.266  21.541   5.533
 5131POPC   PO467092   5.022  20.935   5.433
 5131POPC   GL167093   5.111  21.198   5.871
 5131POPC   GL267094   5.053  21.610   5.967
 5131POPC   C1A67095   5.117  21.266   6.330
 5131POPC   D2A67096   5.078  21.529   6.695
 5131POPC   C3A67097   5.030  21.254   7.049
 5131POPC   C4A67098   5.318  20.981   7.247
 5131POPC   C1B67099   5.296  21.809   6.292
 5131POPC   C2B67100   5.551  21.770   6.662
 5131POPC   C3B67101   5.324  21.919   7.030
 5131POPC   C4B67102   4.976  21.739   7.150
 5132POPC   NC367103   8.652  22.541   5.714
 5132POPC   PO467104   8.946  23.010   5.369
 5132POPC   GL167105   8.887  23.000   5.797
 5132POPC   GL267106   8.586  23.164   5.803
 5132POPC   C1A67107   8.970  22.794   6.215
 5132POPC   D2A67108   9.191  22.901   6.553
 5132POPC   C3A67109   9.030  22.914   6.953
 5132POPC   C4A67110   9.223  22.633   7.208
 5132POPC   C1B67111   8.531  23.048   6.205
 5132POPC   C2B67112   8.541  22.810   6.566
 5132POPC   C3B67113   8.527  22.941   6.982
 5132POPC   C4B67114   8.348  22.845   7.371
 5133POPC   NC367115  28.727  24.377   5.610
 5133POPC   PO467116  28.137  24.669   5.325
 5133POPC   GL167117  28.209  24.571   5.759
 5133POPC   GL267118  28.017  24.780   5.959
 5133POPC   C1A67119  28.227  24.311   6.171
 5133POPC   D2A67120  28.036  24.242   6.591
 5133POPC   C3A67121  28.224  24.312   6.991
 5133POPC   C4A67122  28.458  24.221   7.347
 5133POPC   C1B67123  28.453  24.755   6.180
 5133POPC   C2B67124  28.489  24.569   6.619
 5133POPC   C3B67125  28.603  24.667   7.100
 5133POPC   C4B67126  28.409  24.686   7.552
 5134POPC   NC367127  35.014  20.160   5.259
 5134POPC   PO467128  35.471  19.724   5.318
 5134POPC   GL167129  35.433  19.953   5.698
 5134POPC   GL267130  35.330  20.295   5.668
 5134POPC   C1A67131  35.423  19.919   6.151
 5134POPC   D2A67132  35.282  19.653   6.489
 5134POPC   C3A67133  35.558  19.690   6.822
 5134POPC   C4A67134  35.409  19.752   7.212
 5134POPC   C1B67135  35.103  20.324   6.085
 5134POPC   C2B67136  35.060  20.191   6.536
 5134POPC   C3B67137  35.199  20.213   6.993
 5134POPC   C4B67138  35.372  20.222   7.424
 5135POPC   NC367139  34.686  30.111   5.397
 5135POPC   PO467140  34.236  29.555   5.368
 5135POPC   GL167141  34.453  29.700   5.719
 5135POPC   GL267142  34.400  30.053   5.800
 5135POPC   C1A67143  34.448  29.687   6.163
 5135POPC   D2A67144  34.620  29.830   6.535
 5135POPC   C3A67145  34.428  29.633   6.864
 5135POPC   C4A67146  34.368  29.723   7.266
 5135POPC   C1B67147  34.422  30.207   6.195
 5135POPC   C2B67148  34.490  30.320   6.601
 5135POPC   C3B67149  34.270  30.199   6.936
 5135POPC   C4B67150  34.485  30.212   7.274
 5136POPC   NC367151  12.388  22.576   5.533
 5136POPC   PO467152  11.921  23.069   5.392
 5136POPC   GL167153  12.024  22.945   5.799
 5136POPC   GL267154  11.998  22.609   5.847
 5136POPC   C1A67155  12.144  22.992   6.225
 5136POPC   D2A67156  11.924  23.160   6.607
 5136POPC   C3A67157  11.743  23.040   7.001
 5136POPC   C4A67158  12.165  22.936   7.095
 5136POPC   C1B67159  11.852  22.588   6.267
 5136POPC   C2B67160  11.727  22.670   6.668
 5136POPC   C3B67161  11.850  22.535   7.109
 5136POPC   C4B67162  11.726  22.607   7.551
 5137POPC   NC367163   7.751  22.240   5.344
 5137POPC   PO467164   8.277  22.305   5.676
 5137POPC   GL167165   8.110  21.992   5.901
 5137POPC   GL267166   7.770  21.871   5.809
 5137POPC   C1A67167   8.222  22.054   6.337
 5137POPC   D2A67168   8.379  22.309   6.676
 5137POPC   C3A67169   8.423  22.112   7.042
 5137POPC   C4A67170   8.199  22.372   7.273
 5137POPC   C1B67171   7.755  21.855   6.290
 5137POPC   C2B67172   7.883  21.873   6.747
 5137POPC   C3B67173   7.983  21.880   7.220
 5137POPC   C4B67174   7.896  21.926   7.711
 5138POPC   NC367175  12.679  18.946   5.557
 5138POPC   PO467176  13.263  18.809   5.349
 5138POPC   GL167177  13.164  18.934   5.797
 5138POPC   GL267178  13.074  19.288   5.910
 5138POPC   C1A67179  12.983  18.873   6.231
 5138POPC   D2A67180  12.612  18.930   6.501
 5138POPC   C3A67181  12.674  19.272   6.822
 5138POPC   C4A67182  12.867  19.120   7.194
 5138POPC   C1B67183  13.321  19.266   6.291
 5138POPC   C2B67184  13.196  19.096   6.713
 5138POPC   C3B67185  13.321  19.302   7.091
 5138POPC   C4B67186  13.123  19.459   7.485
 5139POPC   NC367187  32.106  23.392   5.503
 5139POPC   PO467188  31.983  24.012   5.237
 5139POPC   GL167189  32.338  23.819   5.648
 5139POPC   GL267190  32.294  23.468   5.936
 5139POPC   C1A67191  32.440  23.878   6.129
 5139POPC   D2A67192  32.210  23.727   6.469
 5139POPC   C3A67193  32.302  23.981   6.801
 5139POPC   C4A67194  32.144  24.046   7.154
 5139POPC   C1B67195  32.630  23.386   6.193
 5139POPC   C2B67196  32.711  23.620   6.531
 5139POPC   C3B67197  32.501  23.486   6.889
 5139POPC   C4B67198  32.426  23.592   7.279
 5140POPC   NC367199   4.015   3.010   5.432
 5140POPC   PO467200   4.506   2.586   5.431
 5140POPC   GL167201   4.429   2.544   5.852
 5140POPC   GL267202   4.118   2.699   5.824
 5140POPC   C1A67203   4.361   2.497   6.305
 5140POPC   D2A67204   4.526   2.746   6.611
 5140POPC   C3A67205   4.700   2.602   6.997
 5140POPC   C4A67206   4.518   2.746   7.384
 5140POPC   C1B67207   3.863   2.533   6.146
 5140POPC   C2B67208   3.924   2.602   6.594
 5140POPC   C3B67209   4.142   2.678   6.984
 5140POPC   C4B67210   4.031   2.917   7.349
 5141POPC   NC367211   3.667  43.677   5.599
 5141POPC   PO467212   4.001  44.233   5.487
 5141POPC   GL167213   3.851  44.067   5.870
 5141POPC   GL267214   3.492  44.059   5.922
 5141POPC   C1A67215   3.860  43.813   6.252
 5141POPC   D2A67216   3.760  43.958   6.667
 5141POPC   C3A67217   3.757  43.767   7.080
 5141POPC   C4A67218   3.740  43.879   7.539
 5141POPC   C1B67219   3.359  43.861   6.331
 5141POPC   C2B67220   3.292  43.838   6.818
 5141POPC   C3B67221   3.315  43.983   7.255
 5141POPC   C4B67222   2.975  44.053   7.546
 5142POPC   NC367223   3.184   1.261   5.210
 5142POPC   PO467224   3.787   0.987   5.350
 5142POPC   GL167225   3.695   1.169   5.829
 5142POPC   GL267226   3.347   1.200   5.847
 5142POPC   C1A67227   3.562   1.285   6.322
 5142POPC   D2A67228   3.266   1.564   6.639
 5142POPC   C3A67229   3.354   1.641   7.117
 5142POPC   C4A67230   3.760   1.577   7.330
 5142POPC   C1B67231   3.139   0.916   6.164
 5142POPC   C2B67232   3.256   0.956   6.603
 5142POPC   C3B67233   3.505   1.188   6.903
 5142POPC   C4B67234   3.419   1.178   7.315
 5143POPC   NC367235   9.229  35.822   5.641
 5143POPC   PO467236   8.845  36.212   5.276
 5143POPC   GL167237   8.878  36.257   5.754
 5143POPC   GL267238   9.225  36.313   5.862
 5143POPC   C1A67239   8.857  36.441   6.187
 5143POPC   D2A67240   9.140  36.441   6.550
 5143POPC   C3A67241   9.034  36.284   6.932
 5143POPC   C4A67242   8.908  36.230   7.340
 5143POPC   C1B67243   9.135  36.030   6.229
 5143POPC   C2B67244   8.985  35.878   6.597
 5143POPC   C3B67245   9.085  35.758   6.998
 5143POPC   C4B67246   9.039  35.740   7.428
 5144POPC   NC367247  22.767   6.340   5.463
 5144POPC   PO467248  22.777   5.667   5.458
 5144POPC   GL167249  22.914   5.885   5.825
 5144POPC   GL267250  23.240   6.004   5.983
 5144POPC   C1A67251  22.808   5.871   6.251
 5144POPC   D2A67252  22.599   5.982   6.613
 5144POPC   C3A67253  22.803   6.086   6.988
 5144POPC   C4A67254  22.672   5.758   7.215
 5144POPC   C1B67255  23.282   5.696   6.283
 5144POPC   C2B67256  23.155   5.861   6.675
 5144POPC   C3B67257  23.130   5.641   7.032
 5144POPC   C4B67258  23.225   5.205   7.028
 5145POPC   NC367259  44.907   1.381   5.524
 5145POPC   PO467260  44.459   0.900   5.410
 5145POPC   GL167261  44.373   1.141   5.786
 5145POPC   GL267262  44.500   1.454   5.827
 5145POPC   C1A67263  44.262   1.156   6.199
 5145POPC   D2A67264  44.471   1.144   6.581
 5145POPC   C3A67265  44.281   1.066   6.953
 5145POPC   C4A67266  44.520   1.217   7.249
 5145POPC   C1B67267  44.789   1.235   6.158
 5145POPC   C2B67268  44.970   1.018   6.550
 5145POPC   C3B67269  44.960   1.143   6.986
 5145POPC   C4B67270  44.950   1.486   7.311
 5146POPC   NC367271  22.813   0.362   5.431
 5146POPC   PO467272  23.209  44.908   5.309
 5146POPC   GL167273  22.957  44.997   5.769
 5146POPC   GL267274  22.823   0.330   5.942
 5146POPC   C1A67275  23.037  44.997   6.261
 5146POPC   D2A67276  22.982   0.378   6.534
 5146POPC   C3A67277  23.036   0.349   6.972
 5146POPC   C4A67278  23.020  44.955   7.122
 5146POPC   C1B67279  22.529   0.460   6.314
 5146POPC   C2B67280  22.567   0.606   6.772
 5146POPC   C3B67281  22.723   0.687   7.196
 5146POPC   C4B67282  22.615   0.682   7.643
 5147POPC   NC367283   7.882   0.884   5.457
 5147POPC   PO467284   8.070   0.300   5.184
 5147POPC   GL167285   8.124   0.451   5.619
 5147POPC   GL267286   7.940   0.191   5.796
 5147POPC   C1A67287   8.371   0.474   6.025
 5147POPC   D2A67288   8.570   0.458   6.467
 5147POPC   C3A67289   8.364   0.253   6.832
 5147POPC   C4A67290   8.423   0.317   7.265
 5147POPC   C1B67291   7.913   0.363   6.223
 5147POPC   C2B67292   7.972   0.545   6.628
 5147POPC   C3B67293   7.840   0.382   7.039
 5147POPC   C4B67294   7.987   0.460   7.459
 5148POPC   NC367295  19.574   2.746   5.348
 5148POPC   PO467296  18.892   2.952   5.401
 5148POPC   GL167297  19.039   2.593   5.740
 5148POPC   GL267298  18.861   2.241   5.766
 5148POPC   C1A67299  19.249   2.639   6.166
 5148POPC   D2A67300  19.404   2.808   6.555
 5148POPC   C3A67301  19.201   2.793   6.934
 5148POPC   C4A67302  18.851   2.982   7.139
 5148POPC   C1B67303  18.749   2.468   6.163
 5148POPC   C2B67304  18.840   2.708   6.555
 5148POPC   C3B67305  18.814   2.484   6.965
 5148POPC   C4B67306  19.067   2.378   7.278
 5149POPC   NC367307  21.010  29.263   5.378
 5149POPC   PO467308  21.566  29.015   5.122
 5149POPC   GL167309  21.545  28.993   5.638
 5149POPC   GL267310  21.235  29.094   5.816
 5149POPC   C1A67311  21.670  29.197   6.080
 5149POPC   D2A67312  21.447  29.390   6.480
 5149POPC   C3A67313  21.671  29.501   6.880
 5149POPC   C4A67314  21.851  29.305   7.248
 5149POPC   C1B67315  21.297  28.920   6.252
 5149POPC   C2B67316  21.617  28.884   6.538
 5149POPC   C3B67317  21.561  28.982   6.959
 5149POPC   C4B67318  21.146  28.841   7.145
 5150POPC   NC367319  37.373  22.243   5.358
 5150POPC   PO467320  37.668  21.737   5.496
 5150POPC   GL167321  37.661  21.968   5.849
 5150POPC   GL267322  37.486  22.273   5.848
 5150POPC   C1A67323  37.922  22.023   6.174
 5150POPC   D2A67324  37.851  22.096   6.555
 5150POPC   C3A67325  37.910  21.891   6.912
 5150POPC   C4A67326  37.621  21.802   7.230
 5150POPC   C1B67327  37.428  22.177   6.257
 5150POPC   C2B67328  37.425  22.378   6.591
 5150POPC   C3B67329  37.542  22.236   6.945
 5150POPC   C4B67330  37.604  22.341   7.326
 5151POPC   NC367331  14.139  18.055   5.623
 5151POPC   PO467332  14.693  18.305   5.315
 5151POPC   GL167333  14.541  18.313   5.810
 5151POPC   GL267334  14.207  18.477   5.925
 5151POPC   C1A67335  14.463  18.335   6.316
 5151POPC   D2A67336  14.121  18.281   6.609
 5151POPC   C3A67337  14.242  18.350   7.046
 5151POPC   C4A67338  14.662  18.449   7.187
 5151POPC   C1B67339  14.067  18.731   6.309
 5151POPC   C2B67340  14.143  18.805   6.766
 5151POPC   C3B67341  14.153  18.834   7.203
 5151POPC   C4B67342  13.847  18.531   7.351
 5152POPC   NC367343  42.854   3.199   5.333
 5152POPC   PO467344  43.262   3.757   5.197
 5152POPC   GL167345  43.225   3.622   5.650
 5152POPC   GL267346  42.946   3.413   5.768
 5152POPC   C1A67347  43.263   3.551   6.138
 5152POPC   D2A67348  43.348   3.339   6.535
 5152POPC   C3A67349  43.179   3.546   6.916
 5152POPC   C4A67350  43.388   3.755   7.246
 5152POPC   C1B67351  42.894   3.187   6.155
 5152POPC   C2B67352  42.840   3.241   6.598
 5152POPC   C3B67353  42.871   3.153   7.038
 5152POPC   C4B67354  42.593   3.043   7.363
 5153POPC   NC367355  39.128  14.204   5.148
 5153POPC   PO467356  39.610  13.964   5.553
 5153POPC   GL167357  39.295  14.143   5.801
 5153POPC   GL267358  38.923  14.105   5.709
 5153POPC   C1A67359  39.288  14.419   6.166
 5153POPC   D2A67360  39.425  14.652   6.550
 5153POPC   C3A67361  39.376  14.522   7.006
 5153POPC   C4A67362  39.459  14.618   7.474
 5153POPC   C1B67363  38.937  14.015   6.154
 5153POPC   C2B67364  39.088  14.163   6.554
 5153POPC   C3B67365  39.067  14.074   6.971
 5153POPC   C4B67366  39.214  14.181   7.360
 5154POPC   NC367367   8.339  17.763   5.404
 5154POPC   PO467368   8.078  17.100   5.359
 5154POPC   GL167369   8.206  17.353   5.721
 5154POPC   GL267370   7.966  17.617   5.764
 5154POPC   C1A67371   8.198  17.424   6.205
 5154POPC   D2A67372   8.169  17.088   6.539
 5154POPC   C3A67373   8.194  17.177   6.971
 5154POPC   C4A67374   8.296  17.361   7.352
 5154POPC   C1B67375   7.860  17.830   6.168
 5154POPC   C2B67376   8.061  17.822   6.579
 5154POPC   C3B67377   8.132  17.685   7.002
 5154POPC   C4B67378   8.088  17.816   7.470
 5155POPC   NC367379   7.352   9.242   5.107
 5155POPC   PO467380   6.732   8.890   5.292
 5155POPC   GL167381   6.681   8.978   5.781
 5155POPC   GL267382   6.496   9.295   5.899
 5155POPC   C1A67383   6.840   9.076   6.221
 5155POPC   D2A67384   6.669   9.294   6.608
 5155POPC   C3A67385   6.747   9.100   7.026
 5155POPC   C4A67386   6.797   9.062   7.482
 5155POPC   C1B67387   6.339   9.084   6.259
 5155POPC   C2B67388   6.154   9.130   6.650
 5155POPC   C3B67389   6.241   9.063   7.070
 5155POPC   C4B67390   6.378   9.362   7.386
 5156POPC   NC367391  40.617   5.414   5.644
 5156POPC   PO467392  40.667   6.034   5.396
 5156POPC   GL167393  40.786   5.863   5.864
 5156POPC   GL267394  40.875   5.538   6.055
 5156POPC   C1A67395  41.020   5.975   6.261
 5156POPC   D2A67396  41.043   5.726   6.626
 5156POPC   C3A67397  40.982   5.914   7.035
 5156POPC   C4A67398  40.875   6.073   7.462
 5156POPC   C1B67399  40.567   5.641   6.387
 5156POPC   C2B67400  40.535   5.673   6.856
 5156POPC   C3B67401  40.561   5.722   7.286
 5156POPC   C4B67402  40.554   5.671   7.749
 5157POPC   NC367403  36.461  30.213   5.540
 5157POPC   PO467404  36.972  29.817   5.364
 5157POPC   GL167405  36.917  29.989   5.789
 5157POPC   GL267406  36.985  29.644   5.889
 5157POPC   C1A67407  36.687  30.130   6.199
 5157POPC   D2A67408  36.492  30.288   6.620
 5157POPC   C3A67409  36.715  30.106   6.998
 5157POPC   C4A67410  37.174  30.064   7.117
 5157POPC   C1B67411  37.156  29.852   6.272
 5157POPC   C2B67412  37.018  29.788   6.710
 5157POPC   C3B67413  36.884  29.647   7.150
 5157POPC   C4B67414  37.024  29.482   7.540
 5158POPC   NC367415  29.014  23.721   5.587
 5158POPC   PO467416  29.589  24.002   5.369
 5158POPC   GL167417  29.474  23.813   5.789
 5158POPC   GL267418  29.408  23.477   5.791
 5158POPC   C1A67419  29.308  23.886   6.204
 5158POPC   D2A67420  29.257  24.111   6.608
 5158POPC   C3A67421  29.227  23.790   6.938
 5158POPC   C4A67422  29.310  23.579   7.347
 5158POPC   C1B67423  29.173  23.350   6.139
 5158POPC   C2B67424  29.063  23.499   6.545
 5158POPC   C3B67425  29.080  23.283   6.943
 5158POPC   C4B67426  28.965  23.198   7.361
 5159POPC   NC367427  22.197  40.561   5.343
 5159POPC   PO467428  22.341  41.164   5.155
 5159POPC   GL167429  22.484  40.914   5.608
 5159POPC   GL267430  22.396  40.533   5.796
 5159POPC   C1A67431  22.390  40.929   6.096
 5159POPC   D2A67432  22.064  40.934   6.442
 5159POPC   C3A67433  22.153  40.829   6.876
 5159POPC   C4A67434  22.159  41.120   7.217
 5159POPC   C1B67435  22.083  40.489   6.173
 5159POPC   C2B67436  21.976  40.424   6.600
 5159POPC   C3B67437  21.823  40.411   7.017
 5159POPC   C4B67438  22.020  40.639   7.340
 5160POPC   NC367439  30.358   0.433   5.639
 5160POPC   PO467440  30.863   0.178   5.346
 5160POPC   GL167441  30.848   0.257   5.804
 5160POPC   GL267442  30.633   0.009   5.939
 5160POPC   C1A67443  30.664   0.418   6.222
 5160POPC   D2A67444  30.792   0.451   6.633
 5160POPC   C3A67445  30.513   0.523   6.976
 5160POPC   C4A67446  30.611   0.580   7.413
 5160POPC   C1B67447  30.432  44.969   6.345
 5160POPC   C2B67448  30.536   0.037   6.785
 5160POPC   C3B67449  30.529   0.089   7.238
 5160POPC   C4B67450  30.366   0.136   7.672
 5161POPC   NC367451   2.490  28.469   5.381
 5161POPC   PO467452   1.815  28.391   5.334
 5161POPC   GL167453   2.074  28.441   5.694
 5161POPC   GL267454   2.280  28.137   5.747
 5161POPC   C1A67455   2.230  28.478   6.122
 5161POPC   D2A67456   2.254  28.191   6.497
 5161POPC   C3A67457   2.214  28.407   6.892
 5161POPC   C4A67458   1.877  28.462   7.177
 5161POPC   C1B67459   1.870  28.135   6.051
 5161POPC   C2B67460   1.755  28.054   6.460
 5161POPC   C3B67461   1.582  28.165   6.840
 5161POPC   C4B67462   1.590  28.043   7.245
 5162POPC   NC367463  42.612   9.794   5.334
 5162POPC   PO467464  41.959   9.818   5.367
 5162POPC   GL167465  42.123   9.629   5.768
 5162POPC   GL267466  42.498   9.560   5.772
 5162POPC   C1A67467  42.224   9.693   6.187
 5162POPC   D2A67468  42.330   9.870   6.539
 5162POPC   C3A67469  42.082   9.695   6.838
 5162POPC   C4A67470  42.283   9.802   7.181
 5162POPC   C1B67471  42.581   9.301   6.153
 5162POPC   C2B67472  42.364   9.314   6.543
 5162POPC   C3B67473  42.494   9.373   6.935
 5162POPC   C4B67474  42.682   9.520   7.318
 5163POPC   NC367475  22.412   5.344   5.610
 5163POPC   PO467476  22.743   4.811   5.315
 5163POPC   GL167477  22.764   4.987   5.776
 5163POPC   GL267478  23.111   5.047   5.898
 5163POPC   C1A67479  22.809   5.351   6.144
 5163POPC   D2A67480  22.987   5.377   6.586
 5163POPC   C3A67481  22.709   5.325   6.960
 5163POPC   C4A67482  22.500   5.044   7.235
 5163POPC   C1B67483  22.885   4.865   6.297
 5163POPC   C2B67484  22.866   4.877   6.778
 5163POPC   C3B67485  22.980   4.800   7.218
 5163POPC   C4B67486  23.274   4.687   7.565
 5164POPC   NC367487  17.642   2.984   5.301
 5164POPC   PO467488  17.362   2.392   5.123
 5164POPC   GL167489  17.457   2.473   5.640
 5164POPC   GL267490  17.705   2.727   5.802
 5164POPC   C1A67491  17.519   2.387   6.150
 5164POPC   D2A67492  17.550   2.510   6.635
 5164POPC   C3A67493  17.383   2.623   7.056
 5164POPC   C4A67494  17.492   3.011   7.328
 5164POPC   C1B67495  17.507   2.882   6.246
 5164POPC   C2B67496  17.213   2.903   6.647
 5164POPC   C3B67497  17.077   3.099   7.061
 5164POPC   C4B67498  17.075   3.264   7.505
 5165POPC   NC367499  34.892  17.378   5.445
 5165POPC   PO467500  34.363  17.767   5.385
 5165POPC   GL167501  34.357  17.559   5.749
 5165POPC   GL267502  34.711  17.561   5.886
 5165POPC   C1A67503  34.311  17.619   6.163
 5165POPC   D2A67504  34.631  17.630   6.448
 5165POPC   C3A67505  34.484  17.528   6.787
 5165POPC   C4A67506  34.466  17.315   7.177
 5165POPC   C1B67507  34.913  17.273   6.194
 5165POPC   C2B67508  34.926  17.262   6.652
 5165POPC   C3B67509  34.913  17.522   7.041
 5165POPC   C4B67510  34.822  17.505   7.505
 5166POPC   NC367511   0.955  30.579   5.506
 5166POPC   PO467512   1.400  31.079   5.484
 5166POPC   GL167513   1.187  30.886   5.886
 5166POPC   GL267514   1.186  30.499   5.941
 5166POPC   C1A67515   1.302  30.782   6.342
 5166POPC   D2A67516   1.282  30.625   6.766
 5166POPC   C3A67517   1.320  30.905   7.122
 5166POPC   C4A67518   0.984  30.967   7.430
 5166POPC   C1B67519   1.458  30.292   6.216
 5166POPC   C2B67520   1.437  30.112   6.605
 5166POPC   C3B67521   1.428  30.201   7.014
 5166POPC   C4B67522   1.606  30.492   7.211
 5167POPC   NC367523  15.547  12.669   5.438
 5167POPC   PO467524  15.934  13.202   5.222
 5167POPC   GL167525  15.858  13.062   5.644
 5167POPC   GL267526  16.011  12.713   5.655
 5167POPC   C1A67527  15.921  13.144   6.098
 5167POPC   D2A67528  16.041  12.980   6.510
 5167POPC   C3A67529  15.894  13.156   6.920
 5167POPC   C4A67530  15.828  12.947   7.307
 5167POPC   C1B67531  15.939  12.626   6.093
 5167POPC   C2B67532  15.767  12.540   6.505
 5167POPC   C3B67533  15.932  12.630   6.907
 5167POPC   C4B67534  15.883  12.461   7.317
 5168POPC   NC367535  26.307  12.537   5.595
 5168POPC   PO467536  26.179  11.920   5.374
 5168POPC   GL167537  25.932  11.954   5.742
 5168POPC   GL267538  25.970  12.267   5.865
 5168POPC   C1A67539  25.984  11.852   6.189
 5168POPC   D2A67540  26.252  11.738   6.527
 5168POPC   C3A67541  26.148  11.827   6.943
 5168POPC   C4A67542  26.203  11.807   7.391
 5168POPC   C1B67543  25.714  12.299   6.216
 5168POPC   C2B67544  25.823  12.163   6.626
 5168POPC   C3B67545  26.074  12.328   6.964
 5168POPC   C4B67546  25.983  12.283   7.400
 5169POPC   NC367547   2.873  32.636   5.230
 5169POPC   PO467548   2.481  32.069   5.146
 5169POPC   GL167549   2.679  32.262   5.561
 5169POPC   GL267550   2.978  32.529   5.721
 5169POPC   C1A67551   2.725  32.218   6.034
 5169POPC   D2A67552   3.000  32.136   6.417
 5169POPC   C3A67553   2.781  32.242   6.811
 5169POPC   C4A67554   2.680  32.154   7.240
 5169POPC   C1B67555   3.180  32.534   6.142
 5169POPC   C2B67556   3.099  32.634   6.597
 5169POPC   C3B67557   3.231  32.435   7.000
 5169POPC   C4B67558   3.175  32.441   7.457
 5170POPC   NC367559  39.921   9.949   5.397
 5170POPC   PO467560  40.449   9.638   5.647
 5170POPC   GL167561  40.164   9.586   5.927
 5170POPC   GL267562  39.862   9.775   5.887
 5170POPC   C1A67563  40.178   9.736   6.313
 5170POPC   D2A67564  39.950   9.817   6.650
 5170POPC   C3A67565  40.183   9.657   6.959
 5170POPC   C4A67566  40.115   9.901   7.288
 5170POPC   C1B67567  39.802  10.094   6.218
 5170POPC   C2B67568  39.609  10.249   6.612
 5170POPC   C3B67569  39.794  10.210   7.038
 5170POPC   C4B67570  39.690  10.141   7.495
 5171POPC   NC367571  24.732  18.261   5.492
 5171POPC   PO467572  24.272  17.911   5.480
 5171POPC   GL167573  24.332  18.241   5.804
 5171POPC   GL267574  24.370  18.627   5.690
 5171POPC   C1A67575  24.458  18.109   6.229
 5171POPC   D2A67576  24.486  17.819   6.592
 5171POPC   C3A67577  24.586  18.096   6.935
 5171POPC   C4A67578  24.697  18.518   7.047
 5171POPC   C1B67579  24.525  18.637   6.154
 5171POPC   C2B67580  24.385  18.613   6.632
 5171POPC   C3B67581  24.189  18.498   7.068
 5171POPC   C4B67582  24.065  18.500   7.524
 5172POPC   NC367583  34.848  23.899   5.523
 5172POPC   PO467584  34.203  23.503   5.342
 5172POPC   GL167585  34.199  23.530   5.798
 5172POPC   GL267586  34.396  23.804   5.794
 5172POPC   C1A67587  34.458  23.413   6.199
 5172POPC   D2A67588  34.385  23.440   6.673
 5172POPC   C3A67589  34.696  23.607   7.007
 5172POPC   C4A67590  34.509  23.746   7.384
 5172POPC   C1B67591  34.628  23.936   6.150
 5172POPC   C2B67592  34.726  23.856   6.569
 5172POPC   C3B67593  34.621  24.118   6.947
 5172POPC   C4B67594  34.852  24.093   7.322
 5173POPC   NC367595  30.778  11.673   5.261
 5173POPC   PO467596  30.457  12.276   5.454
 5173POPC   GL167597  30.508  12.029   5.854
 5173POPC   GL267598  30.813  11.893   5.818
 5173POPC   C1A67599  30.546  12.204   6.264
 5173POPC   D2A67600  30.800  12.190   6.633
 5173POPC   C3A67601  30.625  11.955   6.959
 5173POPC   C4A67602  30.403  12.262   7.131
 5173POPC   C1B67603  30.756  11.760   6.253
 5173POPC   C2B67604  31.009  11.710   6.577
 5173POPC   C3B67605  31.126  11.928   6.923
 5173POPC   C4B67606  30.997  11.711   7.243
 5174POPC   NC367607   4.786   3.107   5.463
 5174POPC   PO467608   4.244   3.432   5.418
 5174POPC   GL167609   4.136   3.279   5.842
 5174POPC   GL267610   4.444   3.076   5.917
 5174POPC   C1A67611   4.129   3.462   6.263
 5174POPC   D2A67612   4.379   3.699   6.567
 5174POPC   C3A67613   4.301   3.583   6.979
 5174POPC   C4A67614   3.969   3.364   7.126
 5174POPC   C1B67615   4.150   2.960   6.266
 5174POPC   C2B67616   4.136   3.110   6.692
 5174POPC   C3B67617   4.458   3.096   7.006
 5174POPC   C4B67618   4.765   3.399   7.170
 5175POPC   NC367619  10.700   0.861   5.406
 5175POPC   PO467620  10.381   1.431   5.407
 5175POPC   GL167621  10.605   1.263   5.822
 5175POPC   GL267622  10.474   0.961   5.875
 5175POPC   C1A67623  10.702   1.019   6.302
 5175POPC   D2A67624  10.604   0.791   6.681
 5175POPC   C3A67625  10.918   0.962   6.952
 5175POPC   C4A67626  11.017   1.217   7.278
 5175POPC   C1B67627  10.280   1.265   6.215
 5175POPC   C2B67628  10.366   1.254   6.677
 5175POPC   C3B67629  10.464   1.181   7.094
 5175POPC   C4B67630  10.521   0.760   7.189
 5176POPC   NC367631  22.687  34.520   5.199
 5176POPC   PO467632  22.817  35.081   5.504
 5176POPC   GL167633  22.940  34.860   5.857
 5176POPC   GL267634  22.816  34.517   5.863
 5176POPC   C1A67635  22.952  34.833   6.287
 5176POPC   D2A67636  22.879  34.630   6.674
 5176POPC   C3A67637  22.986  34.831   7.044
 5176POPC   C4A67638  22.793  34.588   7.319
 5176POPC   C1B67639  22.901  34.323   6.264
 5176POPC   C2B67640  22.636  34.188   6.623
 5176POPC   C3B67641  22.741  34.135   7.073
 5176POPC   C4B67642  23.093  34.177   7.414
 5177POPC   NC367643  18.131  43.929   5.499
 5177POPC   PO467644  18.752  43.569   5.414
 5177POPC   GL167645  18.521  43.723   5.783
 5177POPC   GL267646  18.660  43.997   5.936
 5177POPC   C1A67647  18.240  43.758   6.168
 5177POPC   D2A67648  18.015  43.761   6.579
 5177POPC   C3A67649  18.204  43.803   7.009
 5177POPC   C4A67650  18.091  43.575   7.365
 5177POPC   C1B67651  18.606  44.141   6.340
 5177POPC   C2B67652  18.434  44.181   6.739
 5177POPC   C3B67653  18.437  44.231   7.193
 5177POPC   C4B67654  18.242  44.053   7.559
 5178POPC   NC367655  24.890   7.395   5.420
 5178POPC   PO467656  24.161   7.372   5.464
 5178POPC   GL167657  24.507   7.496   5.743
 5178POPC   GL267658  24.680   7.180   5.843
 5178POPC   C1A67659  24.728   7.595   6.129
 5178POPC   D2A67660  24.562   7.615   6.537
 5178POPC   C3A67661  24.679   7.459   6.957
 5178POPC   C4A67662  24.500   7.537   7.353
 5178POPC   C1B67663  24.470   7.153   6.248
 5178POPC   C2B67664  24.348   7.155   6.691
 5178POPC   C3B67665  24.342   7.109   7.149
 5178POPC   C4B67666  24.230   7.208   7.598
 5179POPC   NC367667  36.314  25.452   5.533
 5179POPC   PO467668  35.796  24.977   5.398
 5179POPC   GL167669  35.910  25.032   5.834
 5179POPC   GL267670  36.249  25.121   5.933
 5179POPC   C1A67671  35.843  25.341   6.182
 5179POPC   D2A67672  35.959  25.640   6.522
 5179POPC   C3A67673  35.745  25.471   6.868
 5179POPC   C4A67674  35.794  25.325   7.314
 5179POPC   C1B67675  36.161  24.936   6.305
 5179POPC   C2B67676  36.027  25.122   6.658
 5179POPC   C3B67677  36.212  25.271   7.036
 5179POPC   C4B67678  36.445  25.196   7.406
 5180POPC   NC367679  43.456  13.883   5.480
 5180POPC   PO467680  43.218  13.327   5.335
 5180POPC   GL167681  43.317  13.445   5.813
 5180POPC   GL267682  43.536  13.732   5.969
 5180POPC   C1A67683  43.189  13.543   6.284
 5180POPC   D2A67684  43.359  13.621   6.722
 5180POPC   C3A67685  43.050  13.631   7.092
 5180POPC   C4A67686  42.736  13.712   7.452
 5180POPC   C1B67687  43.657  13.333   6.202
 5180POPC   C2B67688  43.580  13.143   6.610
 5180POPC   C3B67689  43.621  13.305   7.057
 5180POPC   C4B67690  43.336  13.359   7.414
 5181POPC   NC367691   9.982  12.180   5.546
 5181POPC   PO467692   9.295  12.006   5.477
 5181POPC   GL167693   9.606  11.998   5.875
 5181POPC   GL267694   9.967  11.872   5.948
 5181POPC   C1A67695   9.643  11.910   6.338
 5181POPC   D2A67696   9.497  12.149   6.719
 5181POPC   C3A67697   9.479  11.977   7.111
 5181POPC   C4A67698   9.770  11.650   7.211
 5181POPC   C1B67699  10.154  11.788   6.366
 5181POPC   C2B67700   9.943  11.854   6.776
 5181POPC   C3B67701   9.924  12.223   7.052
 5181POPC   C4B67702  10.151  12.639   7.046
 5182POPC   NC367703   9.782  15.623   5.388
 5182POPC   PO467704   9.319  16.139   5.498
 5182POPC   GL167705   9.572  15.917   5.808
 5182POPC   GL267706   9.913  15.711   5.848
 5182POPC   C1A67707   9.494  15.956   6.238
 5182POPC   D2A67708   9.251  15.988   6.597
 5182POPC   C3A67709   9.550  16.047   6.923
 5182POPC   C4A67710   9.748  16.212   7.274
 5182POPC   C1B67711   9.995  15.955   6.156
 5182POPC   C2B67712   9.924  16.034   6.570
 5182POPC   C3B67713  10.062  15.952   6.985
 5182POPC   C4B67714   9.999  15.784   7.419
 5183POPC   NC367715   4.586  22.273   5.595
 5183POPC   PO467716   4.076  21.939   5.318
 5183POPC   GL167717   4.219  21.921   5.786
 5183POPC   GL267718   4.581  21.928   5.957
 5183POPC   C1A67719   4.159  21.876   6.241
 5183POPC   D2A67720   4.326  22.055   6.629
 5183POPC   C3A67721   4.150  22.141   7.025
 5183POPC   C4A67722   4.111  22.023   7.463
 5183POPC   C1B67723   4.443  22.310   6.214
 5183POPC   C2B67724   4.548  22.540   6.579
 5183POPC   C3B67725   4.418  22.598   7.002
 5183POPC   C4B67726   4.475  22.359   7.376
 5184POPC   NC367727  34.378  26.751   5.298
 5184POPC   PO467728  34.622  26.263   5.501
 5184POPC   GL167729  34.763  26.590   5.756
 5184POPC   GL267730  34.850  26.931   5.646
 5184POPC   C1A67731  34.539  26.794   6.110
 5184POPC   D2A67732  34.238  26.812   6.459
 5184POPC   C3A67733  34.465  26.799   6.830
 5184POPC   C4A67734  34.468  26.549   7.220
 5184POPC   C1B67735  34.901  27.152   6.069
 5184POPC   C2B67736  34.592  27.234   6.418
 5184POPC   C3B67737  34.760  27.236   6.854
 5184POPC   C4B67738  34.659  27.032   7.241
 5185POPC   NC367739  31.648  38.888   5.448
 5185POPC   PO467740  31.141  39.282   5.338
 5185POPC   GL167741  31.455  39.272   5.745
 5185POPC   GL267742  31.715  39.049   5.928
 5185POPC   C1A67743  31.328  39.250   6.211
 5185POPC   D2A67744  31.166  39.479   6.599
 5185POPC   C3A67745  31.523  39.508   6.875
 5185POPC   C4A67746  31.482  39.132   7.145
 5185POPC   C1B67747  31.797  38.956   6.376
 5185POPC   C2B67748  31.882  39.084   6.806
 5185POPC   C3B67749  31.927  38.910   7.228
 5185POPC   C4B67750  31.678  38.837   7.607
 5186POPC   NC367751  37.366  15.084   5.544
 5186POPC   PO467752  36.606  15.218   5.422
 5186POPC   GL167753  36.595  15.242   5.853
 5186POPC   GL267754  36.944  15.083   5.842
 5186POPC   C1A67755  36.821  15.446   6.198
 5186POPC   D2A67756  37.173  15.369   6.434
 5186POPC   C3A67757  37.135  15.394   6.869
 5186POPC   C4A67758  36.996  15.218   7.285
 5186POPC   C1B67759  36.796  14.904   6.221
 5186POPC   C2B67760  36.836  15.034   6.638
 5186POPC   C3B67761  37.007  14.816   6.969
 5186POPC   C4B67762  36.815  14.747   7.357
 5187POPC   NC367763  10.117   1.779   5.242
 5187POPC   PO467764   9.431   1.523   5.537
 5187POPC   GL167765   9.687   1.684   5.849
 5187POPC   GL267766  10.031   1.663   5.739
 5187POPC   C1A67767   9.628   1.799   6.303
 5187POPC   D2A67768   9.880   2.001   6.637
 5187POPC   C3A67769   9.680   2.057   7.035
 5187POPC   C4A67770   9.364   2.359   7.173
 5187POPC   C1B67771  10.143   1.758   6.170
 5187POPC   C2B67772  10.305   1.737   6.594
 5187POPC   C3B67773  10.136   1.724   7.022
 5187POPC   C4B67774   9.786   1.679   7.364
 5188POPC   NC367775  30.122  36.547   5.391
 5188POPC   PO467776  29.583  36.838   5.528
 5188POPC   GL167777  29.898  36.855   5.790
 5188POPC   GL267778  29.903  37.211   5.844
 5188POPC   C1A67779  30.068  36.895   6.191
 5188POPC   D2A67780  29.848  36.981   6.547
 5188POPC   C3A67781  30.069  36.894   6.892
 5188POPC   C4A67782  29.949  36.741   7.271
 5188POPC   C1B67783  29.562  37.217   6.192
 5188POPC   C2B67784  29.538  37.367   6.681
 5188POPC   C3B67785  29.630  37.132   7.085
 5188POPC   C4B67786  29.789  37.115   7.552
 5189POPC   NC367787  43.536  10.623   5.394
 5189POPC   PO467788  42.891  10.183   5.355
 5189POPC   GL167789  42.987  10.476   5.717
 5189POPC   GL267790  43.274  10.365   5.831
 5189POPC   C1A67791  43.052  10.614   6.193
 5189POPC   D2A67792  43.218  10.460   6.595
 5189POPC   C3A67793  43.173  10.758   6.924
 5189POPC   C4A67794  43.383  10.885   7.292
 5189POPC   C1B67795  43.198  10.116   6.199
 5189POPC   C2B67796  43.201   9.926   6.613
 5189POPC   C3B67797  43.251  10.134   7.007
 5189POPC   C4B67798  43.108  10.421   7.299
 5190POPC   NC367799  21.264  11.144   5.207
 5190POPC   PO467800  21.602  11.480   5.681
 5190POPC   GL167801  21.443  11.089   5.803
 5190POPC   GL267802  21.073  11.075   5.767
 5190POPC   C1A67803  21.351  11.026   6.237
 5190POPC   D2A67804  21.359  11.289   6.609
 5190POPC   C3A67805  21.260  11.134   7.026
 5190POPC   C4A67806  21.376  11.423   7.373
 5190POPC   C1B67807  21.104  11.461   6.099
 5190POPC   C2B67808  21.052  11.692   6.504
 5190POPC   C3B67809  21.103  11.620   6.959
 5190POPC   C4B67810  20.881  11.390   7.316
 5191POPC   NC367811   6.677  13.845   5.364
 5191POPC   PO467812   6.553  13.272   5.700
 5191POPC   GL167813   6.447  13.690   5.818
 5191POPC   GL267814   6.731  13.861   5.876
 5191POPC   C1A67815   6.288  13.965   6.159
 5191POPC   D2A67816   6.315  14.055   6.605
 5191POPC   C3A67817   6.231  13.765   6.937
 5191POPC   C4A67818   6.464  13.438   7.166
 5191POPC   C1B67819   6.744  13.540   6.246
 5191POPC   C2B67820   6.837  13.278   6.616
 5191POPC   C3B67821   6.932  13.510   6.971
 5191POPC   C4B67822   6.691  13.900   7.094
 5192POPC   NC367823   9.761  20.061   5.267
 5192POPC   PO467824   9.952  19.298   5.404
 5192POPC   GL167825   9.842  19.632   5.744
 5192POPC   GL267826   9.746  19.988   5.756
 5192POPC   C1A67827   9.891  19.773   6.204
 5192POPC   D2A67828   9.622  19.661   6.585
 5192POPC   C3A67829   9.765  19.661   7.006
 5192POPC   C4A67830   9.633  19.888   7.367
 5192POPC   C1B67831   9.698  20.257   6.096
 5192POPC   C2B67832   9.765  20.255   6.522
 5192POPC   C3B67833   9.581  20.148   6.915
 5192POPC   C4B67834   9.697  20.396   7.258
 5193POPC   NC367835  43.969  44.803   5.592
 5193POPC   PO467836  44.081  44.254   5.266
 5193POPC   GL167837  43.792  44.327   5.732
 5193POPC   GL267838  43.586  44.629   5.842
 5193POPC   C1A67839  43.883  44.492   6.229
 5193POPC   D2A67840  44.152  44.768   6.515
 5193POPC   C3A67841  44.046  44.705   6.972
 5193POPC   C4A67842  43.795  44.345   7.158
 5193POPC   C1B67843  43.626  44.943   6.221
 5193POPC   C2B67844  43.662  44.947   6.682
 5193POPC   C3B67845  43.522  44.779   7.084
 5193POPC   C4B67846  43.602  44.895   7.513
 5194POPC   NC367847   9.232  36.434   5.359
 5194POPC   PO467848   9.278  37.111   5.339
 5194POPC   GL167849   9.243  36.839   5.700
 5194POPC   GL267850   8.887  36.770   5.748
 5194POPC   C1A67851   9.258  36.748   6.150
 5194POPC   D2A67852   9.129  36.947   6.554
 5194POPC   C3A67853   9.195  36.786   6.985
 5194POPC   C4A67854   9.266  37.041   7.390
 5194POPC   C1B67855   8.742  36.933   6.166
 5194POPC   C2B67856   8.636  36.738   6.586
 5194POPC   C3B67857   8.612  36.565   7.018
 5194POPC   C4B67858   8.835  36.770   7.367
 5195POPC   NC367859  31.780  28.174   5.078
 5195POPC   PO467860  31.591  28.648   5.401
 5195POPC   GL167861  31.702  28.437   5.776
 5195POPC   GL267862  31.685  28.079   5.696
 5195POPC   C1A67863  31.585  28.542   6.193
 5195POPC   D2A67864  31.239  28.595   6.458
 5195POPC   C3A67865  31.394  28.619   6.844
 5195POPC   C4A67866  31.751  28.431   6.959
 5195POPC   C1B67867  31.723  28.052   6.159
 5195POPC   C2B67868  31.532  28.170   6.582
 5195POPC   C3B67869  31.575  27.979   7.032
 5195POPC   C4B67870  31.628  27.764   7.482
 5196POPC   NC367871  17.100  42.401   5.350
 5196POPC   PO467872  17.705  42.066   5.308
 5196POPC   GL167873  17.556  42.353   5.642
 5196POPC   GL267874  17.268  42.175   5.759
 5196POPC   C1A67875  17.577  42.514   6.085
 5196POPC   D2A67876  17.781  42.634   6.494
 5196POPC   C3A67877  17.497  42.613   6.845
 5196POPC   C4A67878  17.755  42.518   7.182
 5196POPC   C1B67879  17.470  42.006   6.091
 5196POPC   C2B67880  17.454  42.204   6.488
 5196POPC   C3B67881  17.684  42.147   6.836
 5196POPC   C4B67882  17.589  42.044   7.231
 5197POPC   NC367883  42.927  31.032   5.394
 5197POPC   PO467884  42.808  30.367   5.290
 5197POPC   GL167885  43.003  30.563   5.662
 5197POPC   GL267886  43.193  30.269   5.755
 5197POPC   C1A67887  43.024  30.828   6.070
 5197POPC   D2A67888  42.860  30.818   6.524
 5197POPC   C3A67889  43.182  30.868   6.835
 5197POPC   C4A67890  43.245  30.809   7.253
 5197POPC   C1B67891  43.129  30.335   6.175
 5197POPC   C2B67892  43.268  30.448   6.561
 5197POPC   C3B67893  43.228  30.384   6.986
 5197POPC   C4B67894  43.488  30.375   7.337
 5198POPC   NC367895  36.096  35.703   5.442
 5198POPC   PO467896  36.167  35.049   5.234
 5198POPC   GL167897  36.265  35.227   5.686
 5198POPC   GL267898  36.056  35.425   5.965
 5198POPC   C1A67899  36.472  35.212   6.116
 5198POPC   D2A67900  36.618  35.238   6.535
 5198POPC   C3A67901  36.313  35.244   6.848
 5198POPC   C4A67902  36.428  35.351   7.244
 5198POPC   C1B67903  35.679  35.338   6.224
 5198POPC   C2B67904  35.556  35.474   6.621
 5198POPC   C3B67905  35.688  35.407   7.047
 5198POPC   C4B67906  35.956  35.276   7.381
 5199POPC   NC367907  36.332  41.004   5.403
 5199POPC   PO467908  35.706  40.638   5.530
 5199POPC   GL167909  36.088  40.729   5.751
 5199POPC   GL267910  36.320  40.464   5.731
 5199POPC   C1A67911  36.355  40.870   6.105
 5199POPC   D2A67912  36.226  40.910   6.552
 5199POPC   C3A67913  36.446  41.029   6.951
 5199POPC   C4A67914  36.153  41.131   7.279
 5199POPC   C1B67915  36.166  40.395   6.158
 5199POPC   C2B67916  36.059  40.426   6.600
 5199POPC   C3B67917  36.075  40.690   6.982
 5199POPC   C4B67918  35.905  40.607   7.367
 5200POPC   NC367919  17.319  10.904   5.271
 5200POPC   PO467920  17.424  10.343   5.569
 5200POPC   GL167921  17.450  10.721   5.770
 5200POPC   GL267922  17.152  10.904   5.809
 5200POPC   C1A67923  17.670  10.733   6.163
 5200POPC   D2A67924  17.900  10.660   6.547
 5200POPC   C3A67925  17.759  10.669   6.979
 5200POPC   C4A67926  17.632  10.256   7.159
 5200POPC   C1B67927  17.175  10.650   6.219
 5200POPC   C2B67928  17.363  10.488   6.606
 5200POPC   C3B67929  17.244  10.573   7.020
 5200POPC   C4B67930  17.047  10.431   7.406
 5201POPC   NC367931  27.610  22.300   5.384
 5201POPC   PO467932  27.463  21.690   5.390
 5201POPC   GL167933  27.391  21.919   5.757
 5201POPC   GL267934  27.730  21.996   5.814
 5201POPC   C1A67935  27.417  22.181   6.149
 5201POPC   D2A67936  27.582  22.097   6.563
 5201POPC   C3A67937  27.356  21.913   6.915
 5201POPC   C4A67938  27.619  22.007   7.248
 5201POPC   C1B67939  27.935  22.204   6.146
 5201POPC   C2B67940  28.035  22.333   6.551
 5201POPC   C3B67941  27.812  22.457   6.901
 5201POPC   C4B67942  27.962  22.383   7.292
 5202POPC   NC367943  21.328  28.646   5.270
 5202POPC   PO467944  20.926  28.672   5.809
 5202POPC   GL167945  21.347  28.525   5.792
 5202POPC   GL267946  21.355  28.160   5.841
 5202POPC   C1A67947  21.629  28.517   6.127
 5202POPC   D2A67948  21.661  28.350   6.541
 5202POPC   C3A67949  21.374  28.513   6.823
 5202POPC   C4A67950  21.347  28.376   7.257
 5202POPC   C1B67951  21.631  27.982   6.118
 5202POPC   C2B67952  21.658  27.845   6.543
 5202POPC   C3B67953  21.542  28.004   6.942
 5202POPC   C4B67954  21.697  28.019   7.352
 5203POPC   NC367955  13.709  42.638   5.453
 5203POPC   PO467956  13.140  42.101   5.399
 5203POPC   GL167957  13.378  42.045   5.868
 5203POPC   GL267958  13.604  42.341   5.851
 5203POPC   C1A67959  13.787  41.997   6.156
 5203POPC   D2A67960  13.975  41.871   6.555
 5203POPC   C3A67961  13.790  42.098   6.947
 5203POPC   C4A67962  13.391  42.134   7.199
 5203POPC   C1B67963  13.525  42.416   6.303
 5203POPC   C2B67964  13.561  42.601   6.739
 5203POPC   C3B67965  13.615  42.594   7.167
 5203POPC   C4B67966  13.635  42.669   7.597
 5204POPC   NC367967   2.499   9.790   5.434
 5204POPC   PO467968   3.082   9.563   5.404
 5204POPC   GL167969   2.933   9.563   5.836
 5204POPC   GL267970   2.844   9.931   5.839
 5204POPC   C1A67971   2.960   9.747   6.283
 5204POPC   D2A67972   2.773  10.080   6.531
 5204POPC   C3A67973   2.959   9.989   6.913
 5204POPC   C4A67974   3.131   9.638   7.114
 5204POPC   C1B67975   2.493   9.720   6.091
 5204POPC   C2B67976   2.503   9.649   6.543
 5204POPC   C3B67977   2.589   9.664   6.976
 5204POPC   C4B67978   2.630   9.552   7.416
 5205POPC   NC367979   1.118   6.936   5.484
 5205POPC   PO467980   1.466   7.452   5.429
 5205POPC   GL167981   1.441   7.207   5.806
 5205POPC   GL267982   1.093   7.300   5.878
 5205POPC   C1A67983   1.419   7.178   6.249
 5205POPC   D2A67984   1.128   7.321   6.508
 5205POPC   C3A67985   1.329   7.403   6.872
 5205POPC   C4A67986   1.341   7.265   7.272
 5205POPC   C1B67987   1.339   7.668   6.101
 5205POPC   C2B67988   1.235   7.824   6.536
 5205POPC   C3B67989   0.854   7.675   6.787
 5205POPC   C4B67990   0.707   7.627   7.235
 5206POPC   NC367991  33.202   4.509   5.062
 5206POPC   PO467992  32.824   3.902   5.199
 5206POPC   GL167993  32.797   3.874   5.669
 5206POPC   GL267994  32.591   4.143   5.718
 5206POPC   C1A67995  32.991   4.113   6.069
 5206POPC   D2A67996  33.168   4.392   6.433
 5206POPC   C3A67997  33.046   4.297   6.876
 5206POPC   C4A67998  33.142   4.054   7.241
 5206POPC   C1B67999  32.570   4.412   6.095
 5206POPC   C2B68000  32.661   4.393   6.530
 5206POPC   C3B68001  32.638   4.629   6.931
 5206POPC   C4B68002  32.705   4.406   7.325
 5207POPC   NC368003  10.472   2.688   5.321
 5207POPC   PO468004  11.033   2.528   5.557
 5207POPC   GL168005  10.720   2.586   5.779
 5207POPC   GL268006  10.734   2.919   5.735
 5207POPC   C1A68007  10.623   2.645   6.201
 5207POPC   D2A68008  10.744   2.476   6.574
 5207POPC   C3A68009  10.563   2.696   6.935
 5207POPC   C4A68010  10.770   2.509   7.261
 5207POPC   C1B68011  10.830   3.098   6.125
 5207POPC   C2B68012  10.688   3.145   6.580
 5207POPC   C3B68013  10.850   3.179   6.995
 5207POPC   C4B68014  10.725   3.025   7.389
 5208POPC   NC368015  17.832  37.698   5.466
 5208POPC   PO468016  17.168  37.842   5.409
 5208POPC   GL168017  17.351  37.689   5.810
 5208POPC   GL268018  17.688  37.553   5.932
 5208POPC   C1A68019  17.232  37.492   6.200
 5208POPC   D2A68020  17.344  37.375   6.613
 5208POPC   C3A68021  17.455  37.708   6.908
 5208POPC   C4A68022  17.348  37.574   7.305
 5208POPC   C1B68023  17.729  37.648   6.360
 5208POPC   C2B68024  17.848  37.435   6.709
 5208POPC   C3B68025  17.708  37.278   7.113
 5208POPC   C4B68026  17.714  37.434   7.607
 5209POPC   NC368027  34.322  43.389   5.467
 5209POPC   PO468028  33.743  42.913   5.416
 5209POPC   GL168029  33.666  43.130   5.830
 5209POPC   GL268030  33.672  43.526   5.858
 5209POPC   C1A68031  33.640  42.939   6.263
 5209POPC   D2A68032  33.501  42.906   6.712
 5209POPC   C3A68033  33.764  42.990   7.027
 5209POPC   C4A68034  34.121  42.931   7.237
 5209POPC   C1B68035  33.913  43.433   6.209
 5209POPC   C2B68036  33.832  43.291   6.614
 5209POPC   C3B68037  34.026  43.419   7.023
 5209POPC   C4B68038  33.751  43.532   7.322
 5210POPC   NC368039  13.211  31.232   5.429
 5210POPC   PO468040  12.763  31.790   5.352
 5210POPC   GL168041  12.715  31.837   5.816
 5210POPC   GL268042  12.497  31.548   5.865
 5210POPC   C1A68043  12.709  31.711   6.291
 5210POPC   D2A68044  12.507  31.545   6.689
 5210POPC   C3A68045  12.820  31.587   7.058
 5210POPC   C4A68046  12.858  31.417   7.472
 5210POPC   C1B68047  12.334  31.315   6.210
 5210POPC   C2B68048  12.420  31.044   6.534
 5210POPC   C3B68049  12.499  31.105   6.977
 5210POPC   C4B68050  12.562  31.008   7.407
 5211POPC   NC368051   8.457  43.746   5.486
 5211POPC   PO468052   7.968  44.084   5.237
 5211POPC   GL168053   7.974  43.977   5.675
 5211POPC   GL268054   7.803  43.645   5.709
 5211POPC   C1A68055   8.204  43.998   6.119
 5211POPC   D2A68056   8.329  44.136   6.570
 5211POPC   C3A68057   8.411  43.980   7.000
 5211POPC   C4A68058   8.335  43.570   7.149
 5211POPC   C1B68059   7.713  43.883   6.100
 5211POPC   C2B68060   7.797  44.097   6.477
 5211POPC   C3B68061   7.930  43.865   6.847
 5211POPC   C4B68062   7.658  43.671   7.137
 5212POPC   NC368063  40.943   8.256   5.358
 5212POPC   PO468064  40.260   8.364   5.430
 5212POPC   GL168065  40.568   8.375   5.713
 5212POPC   GL268066  40.682   8.042   5.764
 5212POPC   C1A68067  40.670   8.483   6.136
 5212POPC   D2A68068  41.022   8.573   6.421
 5212POPC   C3A68069  40.939   8.583   6.857
 5212POPC   C4A68070  41.072   8.491   7.299
 5212POPC   C1B68071  40.937   8.055   6.137
 5212POPC   C2B68072  40.757   8.129   6.563
 5212POPC   C3B68073  40.965   8.072   6.964
 5212POPC   C4B68074  40.885   7.999   7.375
 5213POPC   NC368075  30.657  33.867   5.215
 5213POPC   PO468076  31.281  34.069   5.443
 5213POPC   GL168077  30.917  33.912   5.719
 5213POPC   GL268078  30.525  33.866   5.728
 5213POPC   C1A68079  30.844  33.966   6.164
 5213POPC   D2A68080  30.701  34.200   6.542
 5213POPC   C3A68081  30.803  34.009   6.920
 5213POPC   C4A68082  30.657  33.985   7.330
 5213POPC   C1B68083  30.351  33.837   6.179
 5213POPC   C2B68084  30.404  33.782   6.642
 5213POPC   C3B68085  30.247  33.822   7.063
 5213POPC   C4B68086  30.227  33.666   7.475
 5214POPC   NC368087   4.527  11.491   5.406
 5214POPC   PO468088   3.947  11.131   5.415
 5214POPC   GL168089   4.116  10.987   5.802
 5214POPC   GL268090   4.365  11.263   5.878
 5214POPC   C1A68091   4.040  11.072   6.240
 5214POPC   D2A68092   4.305  11.326   6.530
 5214POPC   C3A68093   4.250  11.201   6.949
 5214POPC   C4A68094   4.330  11.044   7.372
 5214POPC   C1B68095   4.426  11.682   6.092
 5214POPC   C2B68096   4.569  11.829   6.503
 5214POPC   C3B68097   4.468  11.716   6.919
 5214POPC   C4B68098   4.344  11.553   7.304
 5215POPC   NC368099  13.980  40.179   5.629
 5215POPC   PO468100  14.563  39.848   5.419
 5215POPC   GL168101  14.420  39.847   5.805
 5215POPC   GL268102  14.469  40.196   5.800
 5215POPC   C1A68103  14.314  39.949   6.215
 5215POPC   D2A68104  14.391  40.210   6.520
 5215POPC   C3A68105  14.365  39.972   6.884
 5215POPC   C4A68106  14.215  39.798   7.271
 5215POPC   C1B68107  14.756  40.250   6.138
 5215POPC   C2B68108  14.867  40.390   6.539
 5215POPC   C3B68109  14.625  40.449   6.913
 5215POPC   C4B68110  14.475  40.238   7.301
 5216POPC   NC368111   0.563  40.463   5.389
 5216POPC   PO468112   0.283  40.982   5.286
 5216POPC   GL168113   0.516  40.902   5.691
 5216POPC   GL268114   0.447  40.617   5.847
 5216POPC   C1A68115   0.631  41.006   6.143
 5216POPC   D2A68116   0.453  41.138   6.553
 5216POPC   C3A68117   0.571  40.965   6.942
 5216POPC   C4A68118   0.177  40.936   7.180
 5216POPC   C1B68119   0.433  40.432   6.219
 5216POPC   C2B68120   0.507  40.603   6.590
 5216POPC   C3B68121   0.446  40.465   7.007
 5216POPC   C4B68122   0.629  40.636   7.336
 5217POPC   NC368123  28.299  16.863   5.401
 5217POPC   PO468124  28.915  17.225   5.501
 5217POPC   GL168125  28.616  17.047   5.798
 5217POPC   GL268126  28.374  16.739   5.885
 5217POPC   C1A68127  28.739  16.917   6.206
 5217POPC   D2A68128  28.624  16.630   6.524
 5217POPC   C3A68129  28.434  16.862   6.816
 5217POPC   C4A68130  28.469  16.897   7.221
 5217POPC   C1B68131  28.175  16.802   6.297
 5217POPC   C2B68132  28.193  17.204   6.510
 5217POPC   C3B68133  28.109  17.270   6.930
 5217POPC   C4B68134  27.948  17.034   7.266
 5218POPC   NC368135  31.106  34.468   5.605
 5218POPC   PO468136  31.758  34.423   5.408
 5218POPC   GL168137  31.599  34.722   5.739
 5218POPC   GL268138  31.877  34.938   5.938
 5218POPC   C1A68139  31.439  34.716   6.165
 5218POPC   D2A68140  31.659  34.674   6.547
 5218POPC   C3A68141  31.513  34.862   6.897
 5218POPC   C4A68142  31.347  34.554   7.165
 5218POPC   C1B68143  31.907  34.499   6.103
 5218POPC   C2B68144  31.735  34.173   6.379
 5218POPC   C3B68145  31.627  34.218   6.812
 5218POPC   C4B68146  31.568  34.085   7.228
 5219POPC   NC368147  16.268   1.554   5.544
 5219POPC   PO468148  16.555   2.072   5.264
 5219POPC   GL168149  16.728   1.942   5.726
 5219POPC   GL268150  16.558   1.705   5.914
 5219POPC   C1A68151  16.770   2.031   6.232
 5219POPC   D2A68152  16.968   1.860   6.625
 5219POPC   C3A68153  16.811   1.968   7.036
 5219POPC   C4A68154  16.806   2.369   7.219
 5219POPC   C1B68155  16.441   1.640   6.317
 5219POPC   C2B68156  16.484   1.704   6.735
 5219POPC   C3B68157  16.358   1.613   7.133
 5219POPC   C4B68158  16.591   1.397   7.411
 5220POPC   NC368159  33.346  16.827   5.389
 5220POPC   PO468160  33.912  16.554   5.149
 5220POPC   GL168161  33.787  16.701   5.643
 5220POPC   GL268162  33.532  16.528   5.809
 5220POPC   C1A68163  33.871  16.794   6.126
 5220POPC   D2A68164  34.052  16.845   6.570
 5220POPC   C3A68165  33.872  16.881   6.991
 5220POPC   C4A68166  33.481  17.084   7.141
 5220POPC   C1B68167  33.396  16.619   6.227
 5220POPC   C2B68168  33.591  16.615   6.636
 5220POPC   C3B68169  33.545  16.510   7.085
 5220POPC   C4B68170  33.287  16.657   7.352
 5221POPC   NC368171  25.698  12.078   5.285
 5221POPC   PO468172  25.001  12.331   5.364
 5221POPC   GL168173  25.070  12.117   5.774
 5221POPC   GL268174  25.433  12.093   5.830
 5221POPC   C1A68175  25.120  11.763   6.081
 5221POPC   D2A68176  25.496  11.798   6.348
 5221POPC   C3A68177  25.381  11.944   6.761
 5221POPC   C4A68178  25.180  11.996   7.146
 5221POPC   C1B68179  25.215  12.231   6.248
 5221POPC   C2B68180  25.348  12.450   6.633
 5221POPC   C3B68181  25.547  12.381   7.058
 5221POPC   C4B68182  25.469  12.245   7.504
 5222POPC   NC368183   2.615  19.472   5.539
 5222POPC   PO468184   2.943  18.896   5.561
 5222POPC   GL168185   2.586  18.870   5.884
 5222POPC   GL268186   2.494  19.228   5.975
 5222POPC   C1A68187   2.333  18.882   6.301
 5222POPC   D2A68188   2.611  19.066   6.653
 5222POPC   C3A68189   2.660  18.879   7.062
 5222POPC   C4A68190   2.618  18.914   7.516
 5222POPC   C1B68191   2.872  19.245   6.243
 5222POPC   C2B68192   3.037  19.453   6.641
 5222POPC   C3B68193   3.125  19.383   7.080
 5222POPC   C4B68194   3.083  19.024   7.361
 5223POPC   NC368195  27.918  22.955   5.238
 5223POPC   PO468196  27.301  22.682   5.309
 5223POPC   GL168197  27.590  22.872   5.659
 5223POPC   GL268198  27.693  22.567   5.828
 5223POPC   C1A68199  27.710  23.072   6.097
 5223POPC   D2A68200  27.612  22.945   6.558
 5223POPC   C3A68201  27.670  23.194   6.971
 5223POPC   C4A68202  27.919  23.368   7.344
 5223POPC   C1B68203  27.381  22.694   6.116
 5223POPC   C2B68204  27.278  22.551   6.506
 5223POPC   C3B68205  27.296  22.422   6.905
 5223POPC   C4B68206  27.464  22.515   7.313
 5224POPC   NC368207   0.253  17.811   4.956
 5224POPC   PO468208   0.714  17.492   5.272
 5224POPC   GL168209   0.818  17.426   5.730
 5224POPC   GL268210   0.578  17.170   5.834
 5224POPC   C1A68211   0.737  17.590   6.198
 5224POPC   D2A68212   0.648  17.470   6.671
 5224POPC   C3A68213   0.559  17.720   7.056
 5224POPC   C4A68214   0.182  17.690   7.340
 5224POPC   C1B68215   0.912  17.118   6.136
 5224POPC   C2B68216   0.883  16.979   6.583
 5224POPC   C3B68217   0.800  17.138   7.035
 5224POPC   C4B68218   0.392  17.235   7.203
 5225POPC   NC368219  39.316   4.747   5.661
 5225POPC   PO468220  39.115   5.447   5.396
 5225POPC   GL168221  39.255   5.283   5.762
 5225POPC   GL268222  38.931   5.169   5.851
 5225POPC   C1A68223  39.537   5.273   6.130
 5225POPC   D2A68224  39.554   5.007   6.505
 5225POPC   C3A68225  39.265   4.984   6.831
 5225POPC   C4A68226  39.467   4.990   7.245
 5225POPC   C1B68227  39.076   5.023   6.263
 5225POPC   C2B68228  38.899   4.700   6.537
 5225POPC   C3B68229  38.820   4.571   6.950
 5225POPC   C4B68230  38.980   4.873   7.239
 5226POPC   NC368231  20.912   5.222   5.323
 5226POPC   PO468232  20.552   4.722   5.270
 5226POPC   GL168233  20.579   5.011   5.639
 5226POPC   GL268234  20.886   4.984   5.797
 5226POPC   C1A68235  20.516   5.171   6.085
 5226POPC   D2A68236  20.367   5.197   6.522
 5226POPC   C3A68237  20.497   5.146   6.964
 5226POPC   C4A68238  20.260   5.060   7.355
 5226POPC   C1B68239  21.044   5.120   6.226
 5226POPC   C2B68240  20.908   5.178   6.668
 5226POPC   C3B68241  21.053   5.129   7.115
 5226POPC   C4B68242  21.131   5.493   7.413
 5227POPC   NC368243   4.010  34.145   5.400
 5227POPC   PO468244   4.231  34.773   5.382
 5227POPC   GL168245   4.093  34.688   5.783
 5227POPC   GL268246   4.284  34.385   5.856
 5227POPC   C1A68247   4.023  34.659   6.220
 5227POPC   D2A68248   4.205  34.479   6.558
 5227POPC   C3A68249   4.282  34.617   6.951
 5227POPC   C4A68250   4.027  34.769   7.218
 5227POPC   C1B68251   4.432  34.152   6.258
 5227POPC   C2B68252   4.603  34.188   6.708
 5227POPC   C3B68253   4.521  34.217   7.180
 5227POPC   C4B68254   4.460  34.174   7.652
 5228POPC   NC368255  38.727  37.433   5.641
 5228POPC   PO468256  38.362  37.954   5.447
 5228POPC   GL168257  38.334  37.704   5.840
 5228POPC   GL268258  38.003  37.555   5.822
 5228POPC   C1A68259  38.584  37.591   6.247
 5228POPC   D2A68260  38.668  37.778   6.651
 5228POPC   C3A68261  38.340  37.826   6.945
 5228POPC   C4A68262  38.446  37.765   7.357
 5228POPC   C1B68263  38.086  37.662   6.286
 5228POPC   C2B68264  38.197  37.424   6.673
 5228POPC   C3B68265  38.115  37.391   7.139
 5228POPC   C4B68266  38.145  37.428   7.608
 5229POPC   NC368267  35.658  30.341   5.346
 5229POPC   PO468268  35.142  29.840   5.420
 5229POPC   GL168269  35.268  29.918   5.837
 5229POPC   GL268270  34.920  29.812   5.933
 5229POPC   C1A68271  35.604  29.832   6.171
 5229POPC   D2A68272  35.776  29.851   6.603
 5229POPC   C3A68273  35.525  29.910   6.985
 5229POPC   C4A68274  35.624  30.072   7.387
 5229POPC   C1B68275  35.107  29.872   6.340
 5229POPC   C2B68276  35.053  29.959   6.763
 5229POPC   C3B68277  34.851  29.838   7.123
 5229POPC   C4B68278  35.168  29.865   7.414
 5230POPC   NC368279  17.826  16.759   5.375
 5230POPC   PO468280  18.319  16.325   5.300
 5230POPC   GL168281  18.201  16.601   5.717
 5230POPC   GL268282  18.500  16.600   5.925
 5230POPC   C1A68283  18.074  16.695   6.216
 5230POPC   D2A68284  17.965  16.467   6.661
 5230POPC   C3A68285  18.029  16.639   7.138
 5230POPC   C4A68286  18.175  16.805   7.559
 5230POPC   C1B68287  18.560  16.575   6.380
 5230POPC   C2B68288  18.407  16.703   6.782
 5230POPC   C3B68289  18.566  16.672   7.219
 5230POPC   C4B68290  18.661  16.708   7.684
 5231POPC   NC368291  11.671  22.672   5.443
 5231POPC   PO468292  11.156  23.152   5.634
 5231POPC   GL168293  11.536  23.088   5.861
 5231POPC   GL268294  11.510  22.731   5.923
 5231POPC   C1A68295  11.517  23.061   6.316
 5231POPC   D2A68296  11.123  23.162   6.548
 5231POPC   C3A68297  11.205  23.105   6.983
 5231POPC   C4A68298  11.031  23.270   7.323
 5231POPC   C1B68299  11.249  22.615   6.280
 5231POPC   C2B68300  11.186  22.675   6.712
 5231POPC   C3B68301  11.352  22.628   7.131
 5231POPC   C4B68302  11.192  22.502   7.558
 5232POPC   NC368303  14.095  35.076   5.421
 5232POPC   PO468304  14.579  35.591   5.370
 5232POPC   GL168305  14.563  35.229   5.695
 5232POPC   GL268306  14.250  35.174   5.881
 5232POPC   C1A68307  14.654  35.149   6.167
 5232POPC   D2A68308  14.375  35.143   6.544
 5232POPC   C3A68309  14.629  35.208   6.910
 5232POPC   C4A68310  14.603  35.391   7.324
 5232POPC   C1B68311  13.937  35.064   6.196
 5232POPC   C2B68312  13.757  35.132   6.588
 5232POPC   C3B68313  13.840  34.983   6.959
 5232POPC   C4B68314  14.176  35.187   7.135
 5233POPC   NC368315  16.165  11.883   5.446
 5233POPC   PO468316  15.694  12.246   5.347
 5233POPC   GL168317  15.895  12.200   5.767
 5233POPC   GL268318  16.287  12.191   5.845
 5233POPC   C1A68319  15.931  12.131   6.214
 5233POPC   D2A68320  16.153  12.178   6.592
 5233POPC   C3A68321  15.846  12.116   6.930
 5233POPC   C4A68322  15.950  11.975   7.379
 5233POPC   C1B68323  16.243  11.769   6.069
 5233POPC   C2B68324  16.198  11.617   6.481
 5233POPC   C3B68325  16.185  11.750   6.914
 5233POPC   C4B68326  16.290  11.624   7.336
 5234POPC   NC368327  31.730   3.055   5.280
 5234POPC   PO468328  31.697   2.398   5.365
 5234POPC   GL168329  31.633   2.717   5.745
 5234POPC   GL268330  31.325   2.893   5.800
 5234POPC   C1A68331  31.807   2.814   6.190
 5234POPC   D2A68332  31.959   2.559   6.590
 5234POPC   C3A68333  31.668   2.495   6.914
 5234POPC   C4A68334  31.404   2.765   7.148
 5234POPC   C1B68335  31.268   2.784   6.261
 5234POPC   C2B68336  31.153   2.815   6.709
 5234POPC   C3B68337  30.922   2.888   7.123
 5234POPC   C4B68338  31.010   2.935   7.605
 5235POPC   NC368339   8.631  15.208   5.321
 5235POPC   PO468340   9.281  15.470   5.383
 5235POPC   GL168341   9.029  15.235   5.681
 5235POPC   GL268342   8.734  15.407   5.806
 5235POPC   C1A68343   9.102  15.003   6.094
 5235POPC   D2A68344   8.941  14.727   6.477
 5235POPC   C3A68345   9.021  14.889   6.919
 5235POPC   C4A68346   9.213  15.201   7.191
 5235POPC   C1B68347   8.667  15.637   6.199
 5235POPC   C2B68348   8.649  15.568   6.653
 5235POPC   C3B68349   8.752  15.382   7.036
 5235POPC   C4B68350   8.733  15.369   7.472
 5236POPC   NC368351  36.571  39.251   5.406
 5236POPC   PO468352  37.269  39.159   5.538
 5236POPC   GL168353  37.018  39.353   5.845
 5236POPC   GL268354  36.694  39.519   5.827
 5236POPC   C1A68355  36.933  39.351   6.283
 5236POPC   D2A68356  36.966  39.063   6.606
 5236POPC   C3A68357  37.019  39.307   6.919
 5236POPC   C4A68358  36.960  39.186   7.298
 5236POPC   C1B68359  36.470  39.529   6.222
 5236POPC   C2B68360  36.610  39.604   6.674
 5236POPC   C3B68361  36.513  39.430   7.090
 5236POPC   C4B68362  36.597  39.456   7.554
 5237POPC   NC368363   9.145  18.115   5.415
 5237POPC   PO468364   8.805  18.689   5.513
 5237POPC   GL168365   8.788  18.433   5.900
 5237POPC   GL268366   8.770  18.079   5.790
 5237POPC   C1A68367   8.655  18.184   6.285
 5237POPC   D2A68368   8.839  17.944   6.621
 5237POPC   C3A68369   9.089  18.166   6.921
 5237POPC   C4A68370   8.873  18.368   7.245
 5237POPC   C1B68371   9.112  18.043   6.112
 5237POPC   C2B68372   9.381  18.006   6.480
 5237POPC   C3B68373   9.520  17.889   6.908
 5237POPC   C4B68374   9.381  17.960   7.359
 5238POPC   NC368375  24.028   2.631   4.893
 5238POPC   PO468376  23.563   2.801   5.246
 5238POPC   GL168377  23.505   2.748   5.745
 5238POPC   GL268378  23.820   2.639   5.894
 5238POPC   C1A68379  23.317   2.697   6.196
 5238POPC   D2A68380  23.304   2.501   6.634
 5238POPC   C3A68381  23.369   2.712   7.046
 5238POPC   C4A68382  23.711   2.866   7.333
 5238POPC   C1B68383  23.790   2.608   6.367
 5238POPC   C2B68384  23.809   2.547   6.831
 5238POPC   C3B68385  23.807   2.344   7.243
 5238POPC   C4B68386  23.885   2.404   7.699
 5239POPC   NC368387  13.805  13.043   5.398
 5239POPC   PO468388  13.430  12.570   5.758
 5239POPC   GL168389  13.554  12.941   5.923
 5239POPC   GL268390  13.881  12.842   5.857
 5239POPC   C1A68391  13.483  13.056   6.368
 5239POPC   D2A68392  13.150  13.077   6.687
 5239POPC   C3A68393  13.264  12.783   7.010
 5239POPC   C4A68394  13.482  12.709   7.401
 5239POPC   C1B68395  13.988  13.047   6.238
 5239POPC   C2B68396  13.978  12.890   6.637
 5239POPC   C3B68397  13.826  12.884   7.027
 5239POPC   C4B68398  14.116  13.097   7.236
 5240POPC   NC368399  41.247   2.556   5.285
 5240POPC   PO468400  40.654   2.823   5.418
 5240POPC   GL168401  40.894   2.772   5.735
 5240POPC   GL268402  40.972   2.423   5.690
 5240POPC   C1A68403  40.789   2.825   6.161
 5240POPC   D2A68404  40.937   2.934   6.563
 5240POPC   C3A68405  40.608   2.773   6.838
 5240POPC   C4A68406  40.691   2.715   7.212
 5240POPC   C1B68407  40.969   2.337   6.119
 5240POPC   C2B68408  40.835   2.440   6.520
 5240POPC   C3B68409  41.052   2.513   6.902
 5240POPC   C4B68410  41.146   2.183   7.177
 5241POPC   NC368411  11.868  27.866   5.256
 5241POPC   PO468412  11.783  27.274   5.216
 5241POPC   GL168413  11.841  27.556   5.644
 5241POPC   GL268414  12.150  27.748   5.682
 5241POPC   C1A68415  11.763  27.593   6.111
 5241POPC   D2A68416  11.975  27.470   6.526
 5241POPC   C3A68417  11.932  27.676   6.939
 5241POPC   C4A68418  11.913  27.766   7.385
 5241POPC   C1B68419  12.238  27.890   6.127
 5241POPC   C2B68420  12.264  27.902   6.595
 5241POPC   C3B68421  12.357  27.899   7.083
 5241POPC   C4B68422  12.369  27.970   7.554
 5242POPC   NC368423  39.437  20.100   5.160
 5242POPC   PO468424  39.301  19.611   5.468
 5242POPC   GL168425  39.256  19.786   5.916
 5242POPC   GL268426  39.154  20.124   5.927
 5242POPC   C1A68427  39.017  19.830   6.332
 5242POPC   D2A68428  38.983  19.789   6.791
 5242POPC   C3A68429  39.268  19.795   7.136
 5242POPC   C4A68430  39.253  20.063   7.510
 5242POPC   C1B68431  39.375  20.219   6.313
 5242POPC   C2B68432  39.306  20.236   6.772
 5242POPC   C3B68433  39.525  20.331   7.167
 5242POPC   C4B68434  39.683  20.309   7.627
 5243POPC   NC368435  30.291  43.699   5.256
 5243POPC   PO468436  29.641  43.389   5.172
 5243POPC   GL168437  29.752  43.509   5.677
 5243POPC   GL268438  30.059  43.732   5.774
 5243POPC   C1A68439  29.803  43.529   6.156
 5243POPC   D2A68440  29.759  43.896   6.480
 5243POPC   C3A68441  29.888  43.801   6.924
 5243POPC   C4A68442  29.865  43.749   7.379
 5243POPC   C1B68443  30.232  43.900   6.222
 5243POPC   C2B68444  30.282  44.069   6.696
 5243POPC   C3B68445  30.093  44.241   7.093
 5243POPC   C4B68446  30.059  44.186   7.549
 5244POPC   NC368447  31.860  24.358   5.580
 5244POPC   PO468448  31.323  24.600   5.234
 5244POPC   GL168449  31.399  24.624   5.675
 5244POPC   GL268450  31.270  24.329   5.800
 5244POPC   C1A68451  31.338  24.740   6.135
 5244POPC   D2A68452  31.230  24.684   6.601
 5244POPC   C3A68453  31.554  24.597   6.909
 5244POPC   C4A68454  31.674  24.311   7.217
 5244POPC   C1B68455  31.114  24.294   6.241
 5244POPC   C2B68456  30.935  24.247   6.670
 5244POPC   C3B68457  31.140  24.345   7.073
 5244POPC   C4B68458  31.217  24.400   7.534
 5245POPC   NC368459  30.445  23.812   5.559
 5245POPC   PO468460  31.056  23.637   5.245
 5245POPC   GL168461  30.910  23.654   5.694
 5245POPC   GL268462  30.680  23.363   5.744
 5245POPC   C1A68463  30.806  23.891   6.108
 5245POPC   D2A68464  30.545  23.904   6.499
 5245POPC   C3A68465  30.744  23.680   6.819
 5245POPC   C4A68466  30.851  23.820   7.199
 5245POPC   C1B68467  30.440  23.503   6.128
 5245POPC   C2B68468  30.113  23.610   6.431
 5245POPC   C3B68469  30.134  23.800   6.821
 5245POPC   C4B68470  30.341  23.601   7.137
 5246POPC   NC368471  28.583  30.576   5.431
 5246POPC   PO468472  28.067  30.393   5.573
 5246POPC   GL168473  28.368  30.576   5.913
 5246POPC   GL268474  28.688  30.418   5.923
 5246POPC   C1A68475  28.481  30.823   6.320
 5246POPC   D2A68476  28.343  31.023   6.734
 5246POPC   C3A68477  28.230  30.755   7.085
 5246POPC   C4A68478  28.323  30.885   7.479
 5246POPC   C1B68479  28.713  30.376   6.387
 5246POPC   C2B68480  28.637  30.604   6.785
 5246POPC   C3B68481  28.687  30.580   7.234
 5246POPC   C4B68482  28.407  30.411   7.565
 5247POPC   NC368483   6.528  23.899   5.113
 5247POPC   PO468484   6.792  23.379   5.362
 5247POPC   GL168485   6.690  23.629   5.724
 5247POPC   GL268486   6.758  23.981   5.590
 5247POPC   C1A68487   6.518  23.576   6.170
 5247POPC   D2A68488   6.357  23.390   6.572
 5247POPC   C3A68489   6.638  23.327   6.918
 5247POPC   C4A68490   6.879  23.509   7.279
 5247POPC   C1B68491   6.723  24.033   6.060
 5247POPC   C2B68492   6.683  23.925   6.500
 5247POPC   C3B68493   6.752  23.838   6.913
 5247POPC   C4B68494   6.379  23.745   7.174
 5248POPC   NC368495  21.438  35.017   5.418
 5248POPC   PO468496  21.051  35.462   5.406
 5248POPC   GL168497  21.236  35.350   5.805
 5248POPC   GL268498  21.567  35.374   5.799
 5248POPC   C1A68499  21.329  35.312   6.258
 5248POPC   D2A68500  21.085  35.097   6.562
 5248POPC   C3A68501  21.176  35.270   6.946
 5248POPC   C4A68502  21.069  35.328   7.376
 5248POPC   C1B68503  21.596  34.952   6.021
 5248POPC   C2B68504  21.607  34.924   6.480
 5248POPC   C3B68505  21.707  35.206   6.833
 5248POPC   C4B68506  21.574  35.266   7.269
 5249POPC   NC368507   1.647  14.205   5.405
 5249POPC   PO468508   2.150  14.576   5.404
 5249POPC   GL168509   1.961  14.487   5.777
 5249POPC   GL268510   1.931  14.129   5.834
 5249POPC   C1A68511   2.064  14.482   6.216
 5249POPC   D2A68512   2.134  14.172   6.519
 5249POPC   C3A68513   2.004  14.333   6.915
 5249POPC   C4A68514   2.040  14.189   7.332
 5249POPC   C1B68515   1.674  13.885   6.147
 5249POPC   C2B68516   1.842  13.738   6.559
 5249POPC   C3B68517   1.721  13.877   6.961
 5249POPC   C4B68518   1.522  14.110   7.266
 5250POPC   NC368519  41.537   1.596   5.279
 5250POPC   PO468520  41.240   2.107   5.364
 5250POPC   GL168521  41.473   1.965   5.748
 5250POPC   GL268522  41.769   1.717   5.717
 5250POPC   C1A68523  41.444   2.109   6.202
 5250POPC   D2A68524  41.251   2.129   6.617
 5250POPC   C3A68525  41.464   1.890   6.922
 5250POPC   C4A68526  41.737   2.059   7.222
 5250POPC   C1B68527  41.878   1.821   6.120
 5250POPC   C2B68528  41.861   1.888   6.555
 5250POPC   C3B68529  41.948   1.699   6.942
 5250POPC   C4B68530  41.975   1.624   7.368
 5251POPC   NC368531  33.993  23.091   5.345
 5251POPC   PO468532  33.719  22.541   5.374
 5251POPC   GL168533  33.898  22.741   5.759
 5251POPC   GL268534  33.880  23.092   5.840
 5251POPC   C1A68535  33.843  22.748   6.224
 5251POPC   D2A68536  34.012  22.548   6.605
 5251POPC   C3A68537  33.821  22.768   6.941
 5251POPC   C4A68538  33.598  22.682   7.294
 5251POPC   C1B68539  33.955  23.286   6.231
 5251POPC   C2B68540  33.864  23.255   6.680
 5251POPC   C3B68541  33.991  23.348   7.117
 5251POPC   C4B68542  33.753  23.283   7.525
 5252POPC   NC368543  26.493  36.350   5.546
 5252POPC   PO468544  27.173  36.342   5.445
 5252POPC   GL168545  27.070  36.000   5.737
 5252POPC   GL268546  26.739  35.958   5.795
 5252POPC   C1A68547  27.076  35.842   6.190
 5252POPC   D2A68548  27.095  36.160   6.526
 5252POPC   C3A68549  27.144  36.223   6.978
 5252POPC   C4A68550  27.122  36.070   7.404
 5252POPC   C1B68551  26.682  36.180   6.220
 5252POPC   C2B68552  26.604  36.110   6.699
 5252POPC   C3B68553  26.643  36.131   7.195
 5252POPC   C4B68554  26.421  36.396   7.554
 5253POPC   NC368555  21.506  40.264   5.445
 5253POPC   PO468556  21.632  39.639   5.480
 5253POPC   GL168557  21.456  39.890   5.823
 5253POPC   GL268558  21.145  40.126   5.797
 5253POPC   C1A68559  21.469  39.964   6.269
 5253POPC   D2A68560  21.670  40.032   6.683
 5253POPC   C3A68561  21.568  39.766   7.013
 5253POPC   C4A68562  21.206  39.712   7.227
 5253POPC   C1B68563  21.008  40.362   6.175
 5253POPC   C2B68564  21.031  40.313   6.627
 5253POPC   C3B68565  21.304  40.279   6.959
 5253POPC   C4B68566  21.444  40.168   7.332
 5254POPC   NC368567  35.262  15.304   5.491
 5254POPC   PO468568  35.266  16.046   5.514
 5254POPC   GL168569  35.459  15.943   5.920
 5254POPC   GL268570  35.330  15.647   5.888
 5254POPC   C1A68571  35.440  16.037   6.357
 5254POPC   D2A68572  35.300  16.183   6.743
 5254POPC   C3A68573  35.600  16.357   7.020
 5254POPC   C4A68574  35.322  16.463   7.288
 5254POPC   C1B68575  35.559  15.531   6.295
 5254POPC   C2B68576  35.564  15.682   6.755
 5254POPC   C3B68577  35.312  15.836   7.135
 5254POPC   C4B68578  35.099  15.677   7.547
 5255POPC   NC368579  29.219   8.715   4.996
 5255POPC   PO468580  29.092   8.132   5.215
 5255POPC   GL168581  29.072   8.113   5.669
 5255POPC   GL268582  29.288   7.822   5.684
 5255POPC   C1A68583  29.039   8.344   6.065
 5255POPC   D2A68584  28.820   8.310   6.467
 5255POPC   C3A68585  28.986   8.306   6.874
 5255POPC   C4A68586  28.842   8.351   7.290
 5255POPC   C1B68587  29.263   7.823   6.116
 5255POPC   C2B68588  29.296   8.109   6.450
 5255POPC   C3B68589  29.455   8.088   6.862
 5255POPC   C4B68590  29.212   7.996   7.254
 5256POPC   NC368591  19.367  38.431   5.439
 5256POPC   PO468592  18.692  38.660   5.331
 5256POPC   GL168593  18.817  38.431   5.757
 5256POPC   GL268594  19.170  38.443   5.911
 5256POPC   C1A68595  18.787  38.251   6.204
 5256POPC   D2A68596  18.863  38.001   6.598
 5256POPC   C3A68597  18.833  38.207   7.021
 5256POPC   C4A68598  18.847  38.583   7.282
 5256POPC   C1B68599  19.063  38.714   6.274
 5256POPC   C2B68600  18.996  38.607   6.713
 5256POPC   C3B68601  19.285  38.522   7.048
 5256POPC   C4B68602  19.337  38.761   7.429
 5257POPC   NC368603  44.964   3.332   5.406
 5257POPC   PO468604  44.238   3.298   5.291
 5257POPC   GL168605  44.499   3.292   5.659
 5257POPC   GL268606  44.260   3.461   5.845
 5257POPC   C1A68607  44.749   3.424   6.058
 5257POPC   D2A68608  44.828   3.644   6.455
 5257POPC   C3A68609  44.757   3.457   6.879
 5257POPC   C4A68610  44.853   3.597   7.293
 5257POPC   C1B68611  44.312   3.595   6.261
 5257POPC   C2B68612  44.363   3.745   6.681
 5257POPC   C3B68613  44.226   3.492   6.964
 5257POPC   C4B68614  44.337   3.368   7.358
 5258POPC   NC368615   5.956  35.016   5.684
 5258POPC   PO468616   5.473  35.434   5.467
 5258POPC   GL168617   5.709  35.449   5.856
 5258POPC   GL268618   6.072  35.459   5.877
 5258POPC   C1A68619   5.817  35.290   6.276
 5258POPC   D2A68620   6.139  35.174   6.573
 5258POPC   C3A68621   6.041  35.266   7.004
 5258POPC   C4A68622   6.267  35.164   7.403
 5258POPC   C1B68623   6.221  35.640   6.249
 5258POPC   C2B68624   6.411  35.603   6.650
 5258POPC   C3B68625   6.209  35.761   6.988
 5258POPC   C4B68626   6.106  35.638   7.354
 5259POPC   NC368627  13.352  22.382   5.350
 5259POPC   PO468628  13.790  21.885   5.339
 5259POPC   GL168629  13.626  22.084   5.719
 5259POPC   GL268630  13.271  21.961   5.732
 5259POPC   C1A68631  13.765  22.304   6.121
 5259POPC   D2A68632  13.727  22.123   6.516
 5259POPC   C3A68633  13.749  22.332   6.876
 5259POPC   C4A68634  13.721  22.119   7.229
 5259POPC   C1B68635  13.322  22.045   6.163
 5259POPC   C2B68636  13.235  22.244   6.532
 5259POPC   C3B68637  13.317  22.079   6.876
 5259POPC   C4B68638  13.234  22.230   7.235
 5260POPC   NC368639  28.876  38.441   5.429
 5260POPC   PO468640  28.326  38.744   5.421
 5260POPC   GL168641  28.522  38.554   5.792
 5260POPC   GL268642  28.474  38.226   5.772
 5260POPC   C1A68643  28.318  38.562   6.216
 5260POPC   D2A68644  28.290  38.358   6.636
 5260POPC   C3A68645  28.490  38.487   7.045
 5260POPC   C4A68646  28.293  38.516   7.458
 5260POPC   C1B68647  28.293  38.018   6.150
 5260POPC   C2B68648  28.295  37.836   6.566
 5260POPC   C3B68649  28.133  37.962   6.968
 5260POPC   C4B68650  28.393  38.023   7.306
 5261POPC   NC368651  19.951  35.362   5.326
 5261POPC   PO468652  19.481  35.735   5.389
 5261POPC   GL168653  19.584  35.446   5.743
 5261POPC   GL268654  19.904  35.241   5.812
 5261POPC   C1A68655  19.520  35.285   6.165
 5261POPC   D2A68656  19.658  35.146   6.554
 5261POPC   C3A68657  19.591  35.366   6.910
 5261POPC   C4A68658  19.714  35.245   7.329
 5261POPC   C1B68659  20.064  35.188   6.251
 5261POPC   C2B68660  20.064  35.410   6.684
 5261POPC   C3B68661  20.170  35.342   7.105
 5261POPC   C4B68662  20.169  35.108   7.516
 5262POPC   NC368663  38.845   3.358   5.358
 5262POPC   PO468664  39.169   2.725   5.325
 5262POPC   GL168665  39.193   2.810   5.744
 5262POPC   GL268666  39.439   3.079   5.723
 5262POPC   C1A68667  38.969   2.709   6.136
 5262POPC   D2A68668  38.822   2.602   6.587
 5262POPC   C3A68669  39.097   2.821   6.920
 5262POPC   C4A68670  39.138   3.090   7.319
 5262POPC   C1B68671  39.514   2.867   6.135
 5262POPC   C2B68672  39.458   2.875   6.560
 5262POPC   C3B68673  39.577   3.047   6.950
 5262POPC   C4B68674  39.647   2.870   7.330
 5263POPC   NC368675  20.937   8.397   5.231
 5263POPC   PO468676  20.289   8.485   5.449
 5263POPC   GL168677  20.607   8.372   5.743
 5263POPC   GL268678  20.935   8.513   5.745
 5263POPC   C1A68679  20.827   8.101   6.051
 5263POPC   D2A68680  20.991   8.226   6.485
 5263POPC   C3A68681  20.784   8.130   6.893
 5263POPC   C4A68682  20.815   8.178   7.351
 5263POPC   C1B68683  20.747   8.592   6.190
 5263POPC   C2B68684  20.578   8.543   6.620
 5263POPC   C3B68685  20.678   8.597   7.071
 5263POPC   C4B68686  20.464   8.517   7.501
 5264POPC   NC368687  31.966   0.948   5.427
 5264POPC   PO468688  32.191   1.541   5.510
 5264POPC   GL168689  32.168   1.160   5.848
 5264POPC   GL268690  32.472   0.946   6.003
 5264POPC   C1A68691  32.068   1.122   6.243
 5264POPC   D2A68692  32.208   1.056   6.620
 5264POPC   C3A68693  31.945   1.195   6.929
 5264POPC   C4A68694  32.199   1.151   7.235
 5264POPC   C1B68695  32.572   1.306   6.254
 5264POPC   C2B68696  32.450   1.525   6.581
 5264POPC   C3B68697  32.586   1.300   6.907
 5264POPC   C4B68698  32.712   1.081   7.251
 5265POPC   NC368699  15.476  32.245   5.342
 5265POPC   PO468700  16.046  32.447   5.390
 5265POPC   GL168701  15.936  32.569   5.788
 5265POPC   GL268702  16.249  32.457   5.892
 5265POPC   C1A68703  15.757  32.456   6.197
 5265POPC   D2A68704  15.818  32.425   6.660
 5265POPC   C3A68705  15.737  32.025   6.912
 5265POPC   C4A68706  15.665  31.969   7.364
 5265POPC   C1B68707  16.195  32.797   6.183
 5265POPC   C2B68708  16.083  32.881   6.598
 5265POPC   C3B68709  16.185  32.655   6.955
 5265POPC   C4B68710  16.203  32.231   7.084
 5266POPC   NC368711   6.302  20.263   5.483
 5266POPC   PO468712   6.608  20.891   5.503
 5266POPC   GL168713   6.666  20.782   5.873
 5266POPC   GL268714   6.621  20.453   5.830
 5266POPC   C1A68715   6.464  20.726   6.236
 5266POPC   D2A68716   6.650  20.782   6.615
 5266POPC   C3A68717   6.446  20.604   6.979
 5266POPC   C4A68718   6.605  20.635   7.391
 5266POPC   C1B68719   6.476  20.230   6.168
 5266POPC   C2B68720   6.271  20.356   6.561
 5266POPC   C3B68721   6.201  20.115   6.918
 5266POPC   C4B68722   6.309  20.180   7.341
 5267POPC   NC368723  35.305  40.417   5.391
 5267POPC   PO468724  35.568  39.804   5.577
 5267POPC   GL168725  35.363  39.935   5.902
 5267POPC   GL268726  35.423  40.296   5.892
 5267POPC   C1A68727  35.307  39.778   6.326
 5267POPC   D2A68728  35.238  39.968   6.726
 5267POPC   C3A68729  35.173  39.720   7.097
 5267POPC   C4A68730  35.355  39.835   7.527
 5267POPC   C1B68731  35.667  40.195   6.267
 5267POPC   C2B68732  35.746  40.004   6.672
 5267POPC   C3B68733  35.639  39.943   7.120
 5267POPC   C4B68734  35.727  40.164   7.515
 5268POPC   NC368735   7.944  33.154   5.557
 5268POPC   PO468736   7.414  32.704   5.458
 5268POPC   GL168737   7.629  32.822   5.831
 5268POPC   GL268738   7.533  33.172   5.905
 5268POPC   C1A68739   7.617  32.843   6.288
 5268POPC   D2A68740   7.472  33.170   6.618
 5268POPC   C3A68741   7.254  33.091   7.020
 5268POPC   C4A68742   7.318  32.786   7.388
 5268POPC   C1B68743   7.714  33.495   6.182
 5268POPC   C2B68744   7.646  33.662   6.607
 5268POPC   C3B68745   7.583  33.494   7.025
 5268POPC   C4B68746   7.713  33.105   7.262
 5269POPC   NC368747  12.173   2.909   5.355
 5269POPC   PO468748  12.019   2.418   5.681
 5269POPC   GL168749  12.220   2.594   5.960
 5269POPC   GL268750  12.187   2.942   5.892
 5269POPC   C1A68751  12.170   2.693   6.373
 5269POPC   D2A68752  12.047   2.889   6.742
 5269POPC   C3A68753  12.144   2.633   7.064
 5269POPC   C4A68754  12.509   2.396   7.119
 5269POPC   C1B68755  12.312   3.184   6.280
 5269POPC   C2B68756  12.415   3.244   6.734
 5269POPC   C3B68757  12.190   3.192   7.138
 5269POPC   C4B68758  11.978   2.965   7.442
 5270POPC   NC368759  37.206  32.745   5.456
 5270POPC   PO468760  37.521  32.100   5.408
 5270POPC   GL168761  37.674  32.223   5.785
 5270POPC   GL268762  37.320  32.357   5.825
 5270POPC   C1A68763  37.877  32.020   6.150
 5270POPC   D2A68764  38.037  31.993   6.591
 5270POPC   C3A68765  37.715  32.209   6.888
 5270POPC   C4A68766  37.680  32.256   7.308
 5270POPC   C1B68767  37.543  32.596   6.138
 5270POPC   C2B68768  37.438  32.423   6.522
 5270POPC   C3B68769  37.275  32.528   6.918
 5270POPC   C4B68770  37.450  32.694   7.273
 5271POPC   NC368771  24.406   6.525   5.324
 5271POPC   PO468772  24.896   6.842   5.104
 5271POPC   GL168773  24.749   6.706   5.623
 5271POPC   GL268774  24.385   6.752   5.780
 5271POPC   C1A68775  24.773   6.739   6.113
 5271POPC   D2A68776  24.555   6.723   6.526
 5271POPC   C3A68777  24.701   6.798   6.942
 5271POPC   C4A68778  24.732   6.504   7.287
 5271POPC   C1B68779  24.285   6.497   6.146
 5271POPC   C2B68780  24.247   6.317   6.587
 5271POPC   C3B68781  24.280   6.444   7.022
 5271POPC   C4B68782  23.900   6.501   7.303
 5272POPC   NC368783  21.594   3.123   5.529
 5272POPC   PO468784  21.663   2.493   5.496
 5272POPC   GL168785  21.408   2.722   5.808
 5272POPC   GL268786  21.073   2.753   5.634
 5272POPC   C1A68787  21.522   3.046   6.195
 5272POPC   D2A68788  21.649   3.336   6.574
 5272POPC   C3A68789  21.607   3.130   7.007
 5272POPC   C4A68790  21.702   2.689   7.179
 5272POPC   C1B68791  21.036   2.946   6.048
 5272POPC   C2B68792  21.165   2.776   6.445
 5272POPC   C3B68793  21.321   2.719   6.841
 5272POPC   C4B68794  21.179   2.826   7.267
 5273POPC   NC368795  21.511  30.104   5.585
 5273POPC   PO468796  21.453  29.493   5.522
 5273POPC   GL168797  21.409  29.614   5.918
 5273POPC   GL268798  21.734  29.753   5.937
 5273POPC   C1A68799  21.166  29.778   6.250
 5273POPC   D2A68800  21.170  30.076   6.573
 5273POPC   C3A68801  21.229  29.777   6.891
 5273POPC   C4A68802  21.210  29.362   7.101
 5273POPC   C1B68803  21.600  30.059   6.272
 5273POPC   C2B68804  21.652  30.031   6.730
 5273POPC   C3B68805  21.605  30.035   7.166
 5273POPC   C4B68806  21.800  29.854   7.530
 5274POPC   NC368807  19.914  30.517   5.481
 5274POPC   PO468808  19.980  31.099   5.411
 5274POPC   GL168809  20.120  30.928   5.851
 5274POPC   GL268810  20.102  30.563   5.978
 5274POPC   C1A68811  20.142  30.954   6.323
 5274POPC   D2A68812  20.031  30.615   6.612
 5274POPC   C3A68813  20.151  30.658   7.054
 5274POPC   C4A68814  19.881  30.903   7.285
 5274POPC   C1B68815  19.715  30.612   6.189
 5274POPC   C2B68816  19.531  30.462   6.588
 5274POPC   C3B68817  19.672  30.481   7.030
 5274POPC   C4B68818  19.894  30.415   7.446
 5275POPC   NC368819  18.457  34.880   5.375
 5275POPC   PO468820  18.570  35.523   5.250
 5275POPC   GL168821  18.550  35.316   5.671
 5275POPC   GL268822  18.239  35.460   5.835
 5275POPC   C1A68823  18.517  35.095   6.090
 5275POPC   D2A68824  18.561  35.315   6.488
 5275POPC   C3A68825  18.507  35.253   6.923
 5275POPC   C4A68826  18.719  35.341   7.308
 5275POPC   C1B68827  18.105  35.346   6.255
 5275POPC   C2B68828  18.097  35.465   6.675
 5275POPC   C3B68829  18.016  35.322   7.084
 5275POPC   C4B68830  18.284  35.117   7.424
 5276POPC   NC368831   9.816  21.010   5.603
 5276POPC   PO468832   9.726  20.605   5.108
 5276POPC   GL168833   9.863  20.510   5.649
 5276POPC   GL268834   9.616  20.729   5.958
 5276POPC   C1A68835  10.070  20.669   6.096
 5276POPC   D2A68836   9.843  20.865   6.463
 5276POPC   C3A68837   9.913  20.690   6.888
 5276POPC   C4A68838   9.805  20.880   7.291
 5276POPC   C1B68839   9.395  20.638   6.311
 5276POPC   C2B68840   9.427  20.599   6.728
 5276POPC   C3B68841   9.364  20.760   7.103
 5276POPC   C4B68842   9.409  20.704   7.565
 5277POPC   NC368843  11.068   9.808   5.469
 5277POPC   PO468844  11.758   9.952   5.419
 5277POPC   GL168845  11.450   9.939   5.784
 5277POPC   GL268846  11.379   9.598   5.851
 5277POPC   C1A68847  11.321  10.123   6.191
 5277POPC   D2A68848  11.179   9.927   6.567
 5277POPC   C3A68849  11.349   9.884   6.969
 5277POPC   C4A68850  11.070   9.911   7.319
 5277POPC   C1B68851  11.199   9.524   6.235
 5277POPC   C2B68852  11.285   9.440   6.647
 5277POPC   C3B68853  11.161   9.421   7.078
 5277POPC   C4B68854  11.309   9.476   7.480
 5278POPC   NC368855   0.213  10.684   5.539
 5278POPC   PO468856  44.699  10.271   5.486
 5278POPC   GL168857  44.589  10.501   5.819
 5278POPC   GL268858  44.499  10.826   5.695
 5278POPC   C1A68859  44.534  10.423   6.242
 5278POPC   D2A68860  44.718  10.226   6.575
 5278POPC   C3A68861  44.539  10.473   6.844
 5278POPC   C4A68862  44.600  10.563   7.259
 5278POPC   C1B68863  44.732  10.948   6.090
 5278POPC   C2B68864  44.732  10.826   6.532
 5278POPC   C3B68865  44.800  10.962   6.962
 5278POPC   C4B68866  44.685  11.039   7.404
 5279POPC   NC368867   9.105  38.879   5.515
 5279POPC   PO468868   8.595  39.331   5.544
 5279POPC   GL168869   8.659  39.291   5.947
 5279POPC   GL268870   8.998  39.169   5.987
 5279POPC   C1A68871   8.665  39.183   6.365
 5279POPC   D2A68872   9.033  39.011   6.564
 5279POPC   C3A68873   9.170  39.252   6.919
 5279POPC   C4A68874   8.856  39.363   7.212
 5279POPC   C1B68875   9.148  39.471   6.329
 5279POPC   C2B68876   9.496  39.618   6.620
 5279POPC   C3B68877   9.637  39.482   7.041
 5279POPC   C4B68878   9.384  39.418   7.413
 5280POPC   NC368879   1.472   0.270   5.327
 5280POPC   PO468880   2.137   0.601   5.359
 5280POPC   GL168881   1.955   0.530   5.786
 5280POPC   GL268882   2.287   0.495   5.912
 5280POPC   C1A68883   1.922   0.267   6.191
 5280POPC   D2A68884   1.745   0.296   6.607
 5280POPC   C3A68885   1.950   0.186   6.987
 5280POPC   C4A68886   1.775   0.165   7.370
 5280POPC   C1B68887   2.260   0.632   6.324
 5280POPC   C2B68888   2.110   0.658   6.734
 5280POPC   C3B68889   2.247   0.581   7.156
 5280POPC   C4B68890   2.263   0.241   7.477
 5281POPC   NC368891  15.624  39.441   5.536
 5281POPC   PO468892  16.144  39.839   5.295
 5281POPC   GL168893  15.898  39.855   5.716
 5281POPC   GL268894  15.794  40.156   5.864
 5281POPC   C1A68895  15.767  39.744   6.156
 5281POPC   D2A68896  15.982  39.752   6.568
 5281POPC   C3A68897  15.810  39.769   6.989
 5281POPC   C4A68898  15.741  39.883   7.433
 5281POPC   C1B68899  15.753  40.266   6.295
 5281POPC   C2B68900  15.695  40.226   6.736
 5281POPC   C3B68901  15.784  40.303   7.156
 5281POPC   C4B68902  16.145  40.396   7.428
 5282POPC   NC368903  23.384   9.926   5.514
 5282POPC   PO468904  23.903   9.539   5.415
 5282POPC   GL168905  23.693   9.599   5.802
 5282POPC   GL268906  23.415   9.419   5.905
 5282POPC   C1A68907  23.702   9.811   6.209
 5282POPC   D2A68908  23.635   9.666   6.636
 5282POPC   C3A68909  23.745  10.012   6.858
 5282POPC   C4A68910  23.905  10.136   7.229
 5282POPC   C1B68911  23.667   9.301   6.247
 5282POPC   C2B68912  23.982   9.268   6.563
 5282POPC   C3B68913  24.013   9.440   6.964
 5282POPC   C4B68914  23.681   9.642   7.206
 5283POPC   NC368915  14.628  13.928   5.350
 5283POPC   PO468916  14.161  13.402   5.446
 5283POPC   GL168917  14.255  13.680   5.791
 5283POPC   GL268918  14.592  13.779   5.832
 5283POPC   C1A68919  14.229  13.532   6.228
 5283POPC   D2A68920  14.411  13.511   6.649
 5283POPC   C3A68921  14.151  13.557   7.031
 5283POPC   C4A68922  14.152  13.529   7.499
 5283POPC   C1B68923  14.480  13.978   6.213
 5283POPC   C2B68924  14.410  14.098   6.628
 5283POPC   C3B68925  14.523  13.919   7.009
 5283POPC   C4B68926  14.250  13.991   7.320
 5284POPC   NC368927  17.174  31.441   5.368
 5284POPC   PO468928  17.515  30.863   5.476
 5284POPC   GL168929  17.570  30.782   5.888
 5284POPC   GL268930  17.481  31.101   5.966
 5284POPC   C1A68931  17.747  30.856   6.322
 5284POPC   D2A68932  17.904  31.209   6.614
 5284POPC   C3A68933  17.765  31.063   7.028
 5284POPC   C4A68934  17.557  30.691   7.157
 5284POPC   C1B68935  17.224  30.793   6.258
 5284POPC   C2B68936  17.270  30.614   6.685
 5284POPC   C3B68937  17.066  30.633   7.123
 5284POPC   C4B68938  17.189  30.696   7.596
 5285POPC   NC368939  33.883  38.725   5.431
 5285POPC   PO468940  33.363  38.303   5.246
 5285POPC   GL168941  33.483  38.580   5.696
 5285POPC   GL268942  33.810  38.384   5.794
 5285POPC   C1A68943  33.516  38.528   6.191
 5285POPC   D2A68944  33.599  38.204   6.534
 5285POPC   C3A68945  33.830  38.452   6.824
 5285POPC   C4A68946  33.767  38.511   7.233
 5285POPC   C1B68947  33.981  38.695   6.090
 5285POPC   C2B68948  33.832  38.888   6.474
 5285POPC   C3B68949  34.028  38.910   6.859
 5285POPC   C4B68950  34.136  38.837   7.262
 5286POPC   NC368951  44.324  39.935   5.380
 5286POPC   PO468952  43.766  39.670   5.429
 5286POPC   GL168953  43.989  39.885   5.772
 5286POPC   GL268954  44.302  39.726   5.833
 5286POPC   C1A68955  43.935  40.099   6.162
 5286POPC   D2A68956  43.973  40.260   6.587
 5286POPC   C3A68957  43.677  40.098   6.897
 5286POPC   C4A68958  43.773  40.023   7.328
 5286POPC   C1B68959  44.193  39.653   6.216
 5286POPC   C2B68960  44.284  39.839   6.590
 5286POPC   C3B68961  44.146  39.880   7.000
 5286POPC   C4B68962  44.250  39.584   7.330
 5287POPC   NC368963  14.771  21.076   5.417
 5287POPC   PO468964  14.308  21.492   5.547
 5287POPC   GL168965  14.281  21.265   5.873
 5287POPC   GL268966  14.623  21.138   5.923
 5287POPC   C1A68967  14.273  21.469   6.255
 5287POPC   D2A68968  14.484  21.406   6.627
 5287POPC   C3A68969  14.426  21.609   7.016
 5287POPC   C4A68970  14.253  21.255   7.233
 5287POPC   C1B68971  14.831  21.401   6.227
 5287POPC   C2B68972  15.001  21.300   6.636
 5287POPC   C3B68973  14.767  21.210   7.007
 5287POPC   C4B68974  14.718  21.398   7.389
 5288POPC   NC368975  14.115  40.949   5.422
 5288POPC   PO468976  14.710  40.739   5.309
 5288POPC   GL168977  14.598  40.684   5.746
 5288POPC   GL268978  14.214  40.643   5.846
 5288POPC   C1A68979  14.772  40.766   6.171
 5288POPC   D2A68980  14.498  40.777   6.524
 5288POPC   C3A68981  14.450  40.971   6.911
 5288POPC   C4A68982  14.511  40.773   7.292
 5288POPC   C1B68983  14.087  40.573   6.312
 5288POPC   C2B68984  14.112  40.505   6.804
 5288POPC   C3B68985  14.009  40.743   7.161
 5288POPC   C4B68986  14.096  40.655   7.568
 5289POPC   NC368987   4.369  21.636   5.101
 5289POPC   PO468988   4.059  21.187   5.528
 5289POPC   GL168989   4.221  21.405   5.903
 5289POPC   GL268990   4.583  21.425   5.873
 5289POPC   C1A68991   4.239  21.404   6.365
 5289POPC   D2A68992   4.232  21.096   6.652
 5289POPC   C3A68993   4.273  21.267   7.059
 5289POPC   C4A68994   3.989  21.608   7.123
 5289POPC   C1B68995   4.701  21.579   6.318
 5289POPC   C2B68996   4.541  21.617   6.753
 5289POPC   C3B68997   4.479  21.745   7.172
 5289POPC   C4B68998   4.701  21.430   7.430
 5290POPC   NC368999  25.077  19.268   5.477
 5290POPC   PO469000  25.623  18.930   5.414
 5290POPC   GL169001  25.535  19.100   5.799
 5290POPC   GL269002  25.265  18.896   5.803
 5290POPC   C1A69003  25.257  19.248   6.158
 5290POPC   D2A69004  25.178  19.081   6.550
 5290POPC   C3A69005  25.290  19.233   6.938
 5290POPC   C4A69006  25.488  19.046   7.250
 5290POPC   C1B69007  25.052  18.744   6.158
 5290POPC   C2B69008  24.897  18.657   6.572
 5290POPC   C3B69009  25.118  18.761   6.943
 5290POPC   C4B69010  25.000  18.867   7.346
 5291POPC   NC369011  40.807  10.556   5.232
 5291POPC   PO469012  41.266  10.169   5.424
 5291POPC   GL169013  40.930  10.429   5.707
 5291POPC   GL269014  40.572  10.544   5.702
 5291POPC   C1A69015  40.849  10.428   6.150
 5291POPC   D2A69016  40.942  10.237   6.545
 5291POPC   C3A69017  40.830  10.421   6.931
 5291POPC   C4A69018  40.983  10.753   7.188
 5291POPC   C1B69019  40.475  10.776   6.086
 5291POPC   C2B69020  40.523  10.632   6.528
 5291POPC   C3B69021  40.532  10.847   6.922
 5291POPC   C4B69022  40.371  10.781   7.305
 5292POPC   NC369023  33.580  44.168   5.290
 5292POPC   PO469024  34.015  43.744   5.543
 5292POPC   GL169025  34.000  43.945   5.935
 5292POPC   GL269026  33.771  44.171   5.779
 5292POPC   C1A69027  33.972  43.929   6.384
 5292POPC   D2A69028  33.744  43.773   6.735
 5292POPC   C3A69029  33.836  43.991   7.096
 5292POPC   C4A69030  34.143  43.842   7.411
 5292POPC   C1B69031  33.549  44.100   6.166
 5292POPC   C2B69032  33.592  44.250   6.596
 5292POPC   C3B69033  33.318  44.034   6.876
 5292POPC   C4B69034  33.341  43.763   7.193
 5293POPC   NC369035  38.401  44.354   5.374
 5293POPC   PO469036  38.640  44.966   5.612
 5293POPC   GL169037  38.319  44.687   5.838
 5293POPC   GL269038  38.122  44.353   5.792
 5293POPC   C1A69039  38.275  44.572   6.264
 5293POPC   D2A69040  38.429  44.487   6.658
 5293POPC   C3A69041  38.404  44.768   6.976
 5293POPC   C4A69042  38.442   0.027   7.289
 5293POPC   C1B69043  38.204  44.083   6.151
 5293POPC   C2B69044  38.338  44.006   6.549
 5293POPC   C3B69045  38.219  44.153   6.967
 5293POPC   C4B69046  38.069  44.273   7.373
 5294POPC   NC369047  29.310  12.285   5.196
 5294POPC   PO469048  28.744  12.013   5.162
 5294POPC   GL169049  29.104  12.030   5.582
 5294POPC   GL269050  29.203  12.360   5.680
 5294POPC   C1A69051  29.100  11.971   6.095
 5294POPC   D2A69052  29.181  11.950   6.551
 5294POPC   C3A69053  28.859  12.044   6.873
 5294POPC   C4A69054  29.204  11.936   7.151
 5294POPC   C1B69055  29.266  12.448   6.076
 5294POPC   C2B69056  28.999  12.405   6.431
 5294POPC   C3B69057  29.192  12.404   6.840
 5294POPC   C4B69058  29.501  12.581   7.060
 5295POPC   NC369059  30.012  39.597   5.349
 5295POPC   PO469060  30.214  38.947   5.174
 5295POPC   GL169061  30.042  39.155   5.651
 5295POPC   GL269062  29.863  39.480   5.819
 5295POPC   C1A69063  29.934  39.073   6.104
 5295POPC   D2A69064  30.129  39.149   6.511
 5295POPC   C3A69065  30.004  39.005   6.914
 5295POPC   C4A69066  29.964  39.162   7.327
 5295POPC   C1B69067  29.543  39.432   6.139
 5295POPC   C2B69068  29.602  39.247   6.555
 5295POPC   C3B69069  29.682  39.395   6.983
 5295POPC   C4B69070  29.699  39.597   7.384
 5296POPC   NC369071   2.352  40.856   5.455
 5296POPC   PO469072   3.072  40.695   5.366
 5296POPC   GL169073   2.773  40.722   5.737
 5296POPC   GL269074   2.428  40.568   5.868
 5296POPC   C1A69075   2.714  40.920   6.143
 5296POPC   D2A69076   2.483  40.952   6.498
 5296POPC   C3A69077   2.481  40.645   6.855
 5296POPC   C4A69078   2.686  40.673   7.229
 5296POPC   C1B69079   2.755  40.414   6.157
 5296POPC   C2B69080   2.883  40.590   6.541
 5296POPC   C3B69081   2.946  40.353   6.891
 5296POPC   C4B69082   2.712  40.081   7.106
 5297POPC   NC369083   6.100  24.287   5.430
 5297POPC   PO469084   5.589  24.669   5.429
 5297POPC   GL169085   5.799  24.527   5.788
 5297POPC   GL269086   6.084  24.718   5.869
 5297POPC   C1A69087   5.880  24.416   6.221
 5297POPC   D2A69088   5.679  24.556   6.614
 5297POPC   C3A69089   5.879  24.481   7.016
 5297POPC   C4A69090   5.760  24.235   7.402
 5297POPC   C1B69091   5.766  24.915   6.160
 5297POPC   C2B69092   5.763  25.084   6.608
 5297POPC   C3B69093   6.095  24.965   6.917
 5297POPC   C4B69094   6.136  24.807   7.359
 5298POPC   NC369095  31.555  37.141   5.420
 5298POPC   PO469096  31.056  36.723   5.412
 5298POPC   GL169097  31.356  36.797   5.793
 5298POPC   GL269098  31.685  37.004   5.867
 5298POPC   C1A69099  31.505  36.722   6.259
 5298POPC   D2A69100  31.282  36.672   6.677
 5298POPC   C3A69101  31.548  36.610   7.055
 5298POPC   C4A69102  31.890  36.582   7.359
 5298POPC   C1B69103  31.375  37.224   6.115
 5298POPC   C2B69104  31.347  37.263   6.562
 5298POPC   C3B69105  31.372  37.081   6.971
 5298POPC   C4B69106  31.708  37.071   7.278
 5299POPC   NC369107   1.808   7.120   5.455
 5299POPC   PO469108   2.005   7.731   5.324
 5299POPC   GL169109   1.868   7.583   5.745
 5299POPC   GL269110   2.179   7.734   5.845
 5299POPC   C1A69111   1.879   7.398   6.198
 5299POPC   D2A69112   1.814   7.124   6.609
 5299POPC   C3A69113   1.839   7.299   7.055
 5299POPC   C4A69114   1.695   7.678   7.276
 5299POPC   C1B69115   2.334   7.673   6.262
 5299POPC   C2B69116   2.166   7.562   6.676
 5299POPC   C3B69117   2.287   7.639   7.094
 5299POPC   C4B69118   2.261   7.942   7.411
 5300POPC   NC369119   6.017  35.667   5.402
 5300POPC   PO469120   6.017  36.276   5.268
 5300POPC   GL169121   6.232  36.166   5.708
 5300POPC   GL269122   5.963  35.950   5.834
 5300POPC   C1A69123   6.207  36.173   6.224
 5300POPC   D2A69124   5.956  36.139   6.685
 5300POPC   C3A69125   6.123  36.237   7.157
 5300POPC   C4A69126   5.876  36.400   7.593
 5300POPC   C1B69127   5.754  35.815   6.225
 5300POPC   C2B69128   5.859  35.636   6.634
 5300POPC   C3B69129   5.664  35.760   6.986
 5300POPC   C4B69130   5.736  35.974   7.335
 5301POPC   NC369131   7.768  24.687   5.296
 5301POPC   PO469132   7.187  24.294   5.443
 5301POPC   GL169133   7.340  24.567   5.739
 5301POPC   GL269134   7.652  24.441   5.747
 5301POPC   C1A69135   7.305  24.370   6.147
 5301POPC   D2A69136   7.077  24.249   6.530
 5301POPC   C3A69137   7.240  24.368   6.924
 5301POPC   C4A69138   7.255  24.770   7.133
 5301POPC   C1B69139   7.781  24.192   6.114
 5301POPC   C2B69140   7.566  24.080   6.494
 5301POPC   C3B69141   7.418  23.855   6.848
 5301POPC   C4B69142   7.181  23.942   7.220
 5302POPC   NC369143  32.988  38.027   5.423
 5302POPC   PO469144  33.368  37.501   5.394
 5302POPC   GL169145  33.025  37.582   5.744
 5302POPC   GL269146  32.807  37.885   5.868
 5302POPC   C1A69147  32.819  37.455   6.145
 5302POPC   D2A69148  32.980  37.566   6.537
 5302POPC   C3A69149  32.832  37.448   6.915
 5302POPC   C4A69150  32.951  37.716   7.244
 5302POPC   C1B69151  32.845  37.993   6.304
 5302POPC   C2B69152  33.010  38.042   6.716
 5302POPC   C3B69153  33.336  37.795   6.882
 5302POPC   C4B69154  33.436  37.797   7.298
 5303POPC   NC369155  31.919  33.983   5.485
 5303POPC   PO469156  32.593  33.915   5.550
 5303POPC   GL169157  32.378  33.716   5.844
 5303POPC   GL269158  32.081  33.545   5.730
 5303POPC   C1A69159  32.390  33.644   6.256
 5303POPC   D2A69160  32.152  33.728   6.612
 5303POPC   C3A69161  32.322  33.551   6.982
 5303POPC   C4A69162  32.337  33.756   7.372
 5303POPC   C1B69163  31.887  33.682   6.136
 5303POPC   C2B69164  31.640  33.673   6.534
 5303POPC   C3B69165  31.773  33.683   6.977
 5303POPC   C4B69166  31.936  33.449   7.327
 5304POPC   NC369167  39.310  41.565   5.255
 5304POPC   PO469168  38.716  41.267   5.286
 5304POPC   GL169169  38.969  41.452   5.615
 5304POPC   GL269170  39.321  41.420   5.747
 5304POPC   C1A69171  38.941  41.471   6.078
 5304POPC   D2A69172  39.003  41.703   6.477
 5304POPC   C3A69173  39.051  41.520   6.891
 5304POPC   C4A69174  38.848  41.305   7.248
 5304POPC   C1B69175  39.441  41.516   6.160
 5304POPC   C2B69176  39.553  41.387   6.578
 5304POPC   C3B69177  39.560  41.575   6.989
 5304POPC   C4B69178  39.310  41.612   7.334
 5305POPC   NC369179  27.900  41.048   5.677
 5305POPC   PO469180  28.503  41.116   5.397
 5305POPC   GL169181  28.401  40.878   5.771
 5305POPC   GL269182  28.311  40.518   5.792
 5305POPC   C1A69183  28.518  40.831   6.185
 5305POPC   D2A69184  28.659  41.005   6.542
 5305POPC   C3A69185  28.586  40.859   6.922
 5305POPC   C4A69186  28.446  41.139   7.216
 5305POPC   C1B69187  28.061  40.604   6.186
 5305POPC   C2B69188  28.076  40.930   6.496
 5305POPC   C3B69189  28.058  40.911   6.949
 5305POPC   C4B69190  28.272  40.638   7.264
 5306POPC   NC369191  12.301   6.240   5.509
 5306POPC   PO469192  11.972   5.719   5.238
 5306POPC   GL169193  11.915   5.800   5.700
 5306POPC   GL269194  11.947   6.141   5.861
 5306POPC   C1A69195  12.028   5.582   6.122
 5306POPC   D2A69196  11.912   5.647   6.576
 5306POPC   C3A69197  12.079   5.622   7.016
 5306POPC   C4A69198  11.913   5.623   7.454
 5306POPC   C1B69199  12.103   6.068   6.288
 5306POPC   C2B69200  12.248   6.022   6.724
 5306POPC   C3B69201  12.156   6.133   7.146
 5306POPC   C4B69202  11.885   6.158   7.518
 5307POPC   NC369203  20.330  42.103   5.565
 5307POPC   PO469204  19.684  42.118   5.551
 5307POPC   GL169205  19.760  42.381   5.911
 5307POPC   GL269206  20.062  42.437   5.862
 5307POPC   C1A69207  19.659  42.429   6.348
 5307POPC   D2A69208  19.785  42.119   6.645
 5307POPC   C3A69209  19.544  42.141   7.002
 5307POPC   C4A69210  19.719  42.115   7.388
 5307POPC   C1B69211  20.136  42.272   6.257
 5307POPC   C2B69212  20.190  42.496   6.644
 5307POPC   C3B69213  19.972  42.437   7.013
 5307POPC   C4B69214  19.569  42.616   7.129
 5308POPC   NC369215  31.736  13.244   5.138
 5308POPC   PO469216  31.233  13.625   5.341
 5308POPC   GL169217  31.262  13.606   5.791
 5308POPC   GL269218  31.334  13.267   5.810
 5308POPC   C1A69219  31.499  13.619   6.189
 5308POPC   D2A69220  31.788  13.676   6.545
 5308POPC   C3A69221  31.576  13.630   6.927
 5308POPC   C4A69222  31.554  13.777   7.332
 5308POPC   C1B69223  31.592  13.106   6.150
 5308POPC   C2B69224  31.500  13.260   6.555
 5308POPC   C3B69225  31.188  13.262   6.879
 5308POPC   C4B69226  31.206  13.414   7.248
 5309POPC   NC369227  41.703   0.678   5.069
 5309POPC   PO469228  41.338   0.244   5.408
 5309POPC   GL169229  41.529   0.263   5.806
 5309POPC   GL269230  41.677  44.987   5.823
 5309POPC   C1A69231  41.761   0.440   6.159
 5309POPC   D2A69232  41.893   0.387   6.600
 5309POPC   C3A69233  41.662   0.479   6.991
 5309POPC   C4A69234  41.499   0.886   7.143
 5309POPC   C1B69235  41.450   0.041   6.258
 5309POPC   C2B69236  41.465   0.055   6.700
 5309POPC   C3B69237  41.399   0.019   7.123
 5309POPC   C4B69238  41.517   0.282   7.465
 5310POPC   NC369239   3.558  15.004   5.339
 5310POPC   PO469240   3.324  15.547   5.648
 5310POPC   GL169241   3.384  15.113   5.851
 5310POPC   GL269242   3.744  14.936   5.859
 5310POPC   C1A69243   3.522  15.105   6.288
 5310POPC   D2A69244   3.739  14.918   6.633
 5310POPC   C3A69245   3.517  14.984   7.033
 5310POPC   C4A69246   3.281  14.734   7.356
 5310POPC   C1B69247   4.014  15.181   6.216
 5310POPC   C2B69248   3.925  15.420   6.592
 5310POPC   C3B69249   4.002  15.213   6.985
 5310POPC   C4B69250   3.833  15.200   7.390
 5311POPC   NC369251  32.729  28.346   5.309
 5311POPC   PO469252  33.380  28.320   5.389
 5311POPC   GL169253  33.135  28.369   5.755
 5311POPC   GL269254  32.883  28.650   5.694
 5311POPC   C1A69255  33.161  28.655   6.107
 5311POPC   D2A69256  33.015  28.618   6.502
 5311POPC   C3A69257  33.165  28.335   6.811
 5311POPC   C4A69258  33.192  28.621   7.174
 5311POPC   C1B69259  32.639  28.651   6.103
 5311POPC   C2B69260  32.556  28.398   6.473
 5311POPC   C3B69261  32.696  28.424   6.912
 5311POPC   C4B69262  32.488  28.162   7.193
 5312POPC   NC369263  10.727   3.791   5.317
 5312POPC   PO469264  10.416   3.147   5.418
 5312POPC   GL169265  10.618   3.413   5.762
 5312POPC   GL269266  10.495   3.702   5.785
 5312POPC   C1A69267  10.609   3.537   6.251
 5312POPC   D2A69268  10.395   3.626   6.666
 5312POPC   C3A69269  10.424   3.445   7.078
 5312POPC   C4A69270  10.706   3.539   7.392
 5312POPC   C1B69271  10.476   4.015   6.157
 5312POPC   C2B69272  10.699   4.022   6.565
 5312POPC   C3B69273  10.735   3.885   7.008
 5312POPC   C4B69274  10.858   4.069   7.440
 5313POPC   NC369275   4.793  25.519   5.403
 5313POPC   PO469276   5.468  25.252   5.459
 5313POPC   GL169277   5.178  25.429   5.736
 5313POPC   GL269278   4.933  25.165   5.773
 5313POPC   C1A69279   5.133  25.391   6.189
 5313POPC   D2A69280   5.160  25.191   6.576
 5313POPC   C3A69281   5.103  25.471   6.932
 5313POPC   C4A69282   5.320  25.491   7.324
 5313POPC   C1B69283   4.694  25.108   6.165
 5313POPC   C2B69284   4.699  24.959   6.617
 5313POPC   C3B69285   4.943  24.985   7.005
 5313POPC   C4B69286   4.826  25.220   7.365
 5314POPC   NC369287   6.969  13.299   5.515
 5314POPC   PO469288   6.587  12.673   5.436
 5314POPC   GL169289   6.623  12.798   5.867
 5314POPC   GL269290   6.957  12.841   5.773
 5314POPC   C1A69291   6.474  12.855   6.310
 5314POPC   D2A69292   6.164  12.761   6.672
 5314POPC   C3A69293   6.407  12.927   7.023
 5314POPC   C4A69294   6.748  13.043   7.305
 5314POPC   C1B69295   6.970  13.033   6.173
 5314POPC   C2B69296   6.999  12.783   6.530
 5314POPC   C3B69297   6.873  12.702   6.928
 5314POPC   C4B69298   7.024  12.515   7.323
 5315POPC   NC369299  14.564  19.442   5.434
 5315POPC   PO469300  14.233  20.050   5.600
 5315POPC   GL169301  14.425  19.746   5.811
 5315POPC   GL269302  14.125  19.512   5.770
 5315POPC   C1A69303  14.681  19.801   6.169
 5315POPC   D2A69304  14.848  19.895   6.580
 5315POPC   C3A69305  14.482  19.969   6.847
 5315POPC   C4A69306  14.396  20.017   7.297
 5315POPC   C1B69307  14.125  19.728   6.210
 5315POPC   C2B69308  14.008  19.808   6.648
 5315POPC   C3B69309  14.096  19.687   7.079
 5315POPC   C4B69310  14.123  19.695   7.551
 5316POPC   NC369311  11.624  21.884   5.557
 5316POPC   PO469312  11.231  21.276   5.438
 5316POPC   GL169313  11.357  21.253   5.850
 5316POPC   GL269314  11.635  21.485   5.873
 5316POPC   C1A69315  11.448  21.249   6.285
 5316POPC   D2A69316  11.616  21.460   6.657
 5316POPC   C3A69317  11.524  21.258   7.055
 5316POPC   C4A69318  11.141  21.188   7.234
 5316POPC   C1B69319  11.453  21.751   6.193
 5316POPC   C2B69320  11.244  21.858   6.592
 5316POPC   C3B69321  11.205  21.685   7.003
 5316POPC   C4B69322  11.246  21.734   7.466
 5317POPC   NC369323  36.856  28.744   5.436
 5317POPC   PO469324  36.749  28.078   5.418
 5317POPC   GL169325  36.888  28.305   5.766
 5317POPC   GL269326  36.570  28.194   5.908
 5317POPC   C1A69327  37.036  28.612   6.090
 5317POPC   D2A69328  37.193  28.519   6.494
 5317POPC   C3A69329  37.057  28.730   6.883
 5317POPC   C4A69330  37.035  28.665   7.299
 5317POPC   C1B69331  36.720  28.273   6.289
 5317POPC   C2B69332  36.733  28.396   6.664
 5317POPC   C3B69333  36.904  28.245   7.020
 5317POPC   C4B69334  36.711  28.272   7.408
 5318POPC   NC369335  29.401  43.183   5.514
 5318POPC   PO469336  29.123  42.589   5.474
 5318POPC   GL169337  29.004  42.868   5.802
 5318POPC   GL269338  29.028  43.242   5.880
 5318POPC   C1A69339  28.938  42.914   6.228
 5318POPC   D2A69340  28.979  43.252   6.510
 5318POPC   C3A69341  28.798  43.041   6.839
 5318POPC   C4A69342  28.974  42.890   7.215
 5318POPC   C1B69343  29.381  43.192   6.161
 5318POPC   C2B69344  29.494  43.201   6.596
 5318POPC   C3B69345  29.251  43.279   6.983
 5318POPC   C4B69346  29.458  43.389   7.342
 5319POPC   NC369347  36.802  13.642   5.231
 5319POPC   PO469348  37.433  13.770   5.428
 5319POPC   GL169349  37.056  13.767   5.699
 5319POPC   GL269350  37.225  13.979   5.945
 5319POPC   C1A69351  36.757  13.815   6.092
 5319POPC   D2A69352  36.832  13.648   6.533
 5319POPC   C3A69353  36.917  13.773   6.985
 5319POPC   C4A69354  36.657  13.627   7.324
 5319POPC   C1B69355  37.189  13.523   6.135
 5319POPC   C2B69356  37.233  13.343   6.565
 5319POPC   C3B69357  37.243  13.224   7.011
 5319POPC   C4B69358  37.168  13.500   7.382
 5320POPC   NC369359  22.185   7.150   5.380
 5320POPC   PO469360  21.895   6.621   5.159
 5320POPC   GL169361  22.032   6.639   5.652
 5320POPC   GL269362  22.318   6.393   5.752
 5320POPC   C1A69363  21.959   6.491   6.115
 5320POPC   D2A69364  21.894   6.749   6.507
 5320POPC   C3A69365  21.910   6.539   6.930
 5320POPC   C4A69366  21.885   6.221   7.256
 5320POPC   C1B69367  22.438   6.678   6.128
 5320POPC   C2B69368  22.620   6.768   6.528
 5320POPC   C3B69369  22.642   6.584   6.940
 5320POPC   C4B69370  22.308   6.599   7.267
 5321POPC   NC369371  30.197  15.039   5.276
 5321POPC   PO469372  29.936  15.624   5.451
 5321POPC   GL169373  29.980  15.422   5.849
 5321POPC   GL269374  30.076  15.061   5.812
 5321POPC   C1A69375  29.782  15.239   6.226
 5321POPC   D2A69376  29.904  14.938   6.522
 5321POPC   C3A69377  29.707  15.065   6.887
 5321POPC   C4A69378  29.858  14.901   7.251
 5321POPC   C1B69379  30.289  15.223   6.211
 5321POPC   C2B69380  30.138  15.413   6.629
 5321POPC   C3B69381  30.101  15.354   7.105
 5321POPC   C4B69382  30.100  15.403   7.582
 5322POPC   NC369383  41.188  12.854   5.348
 5322POPC   PO469384  40.560  12.746   5.448
 5322POPC   GL169385  40.772  12.836   5.811
 5322POPC   GL269386  41.056  13.081   5.796
 5322POPC   C1A69387  40.562  12.825   6.226
 5322POPC   D2A69388  40.426  12.865   6.648
 5322POPC   C3A69389  40.620  12.848   7.037
 5322POPC   C4A69390  40.405  12.492   7.158
 5322POPC   C1B69391  41.072  12.866   6.209
 5322POPC   C2B69392  40.950  12.932   6.632
 5322POPC   C3B69393  41.151  12.873   7.030
 5322POPC   C4B69394  41.129  12.913   7.471
 5323POPC   NC369395  27.598  36.509   5.501
 5323POPC   PO469396  27.447  37.218   5.528
 5323POPC   GL169397  27.758  36.954   5.731
 5323POPC   GL269398  27.552  36.753   5.944
 5323POPC   C1A69399  27.967  36.917   6.125
 5323POPC   D2A69400  27.654  36.868   6.473
 5323POPC   C3A69401  27.776  37.000   6.881
 5323POPC   C4A69402  27.592  36.992   7.275
 5323POPC   C1B69403  27.301  36.514   6.205
 5323POPC   C2B69404  27.145  36.669   6.568
 5323POPC   C3B69405  27.317  36.723   6.949
 5323POPC   C4B69406  27.283  36.581   7.370
 5324POPC   NC369407  28.904  37.317   5.581
 5324POPC   PO469408  28.887  37.985   5.466
 5324POPC   GL169409  29.125  37.802   5.835
 5324POPC   GL269410  29.139  37.492   5.977
 5324POPC   C1A69411  29.114  37.947   6.238
 5324POPC   D2A69412  28.811  37.825   6.524
 5324POPC   C3A69413  29.087  37.790   6.824
 5324POPC   C4A69414  29.312  37.869   7.149
 5324POPC   C1B69415  29.143  37.458   6.389
 5324POPC   C2B69416  29.009  37.301   6.750
 5324POPC   C3B69417  29.168  37.374   7.140
 5324POPC   C4B69418  29.285  37.228   7.504
 5325POPC   NC369419  38.127  33.043   5.407
 5325POPC   PO469420  38.225  33.664   5.601
 5325POPC   GL169421  38.253  33.214   5.879
 5325POPC   GL269422  38.427  32.859   5.882
 5325POPC   C1A69423  38.077  32.919   6.234
 5325POPC   D2A69424  38.214  32.833   6.702
 5325POPC   C3A69425  38.168  33.154   7.056
 5325POPC   C4A69426  37.910  33.398   7.386
 5325POPC   C1B69427  38.591  32.859   6.339
 5325POPC   C2B69428  38.655  33.028   6.793
 5325POPC   C3B69429  38.510  32.761   7.153
 5325POPC   C4B69430  38.663  32.670   7.578
 5326POPC   NC369431  12.101  15.073   5.098
 5326POPC   PO469432  11.928  15.475   5.654
 5326POPC   GL169433  12.205  15.248   5.938
 5326POPC   GL269434  12.175  14.893   5.966
 5326POPC   C1A69435  12.375  15.231   6.315
 5326POPC   D2A69436  12.100  15.023   6.575
 5326POPC   C3A69437  12.252  14.886   6.938
 5326POPC   C4A69438  12.329  15.157   7.237
 5326POPC   C1B69439  11.738  14.932   6.173
 5326POPC   C2B69440  11.571  15.013   6.590
 5326POPC   C3B69441  11.795  15.148   6.975
 5326POPC   C4B69442  11.873  14.829   7.278
 5327POPC   NC369443  10.648  28.803   5.410
 5327POPC   PO469444  10.505  29.434   5.330
 5327POPC   GL169445  10.664  29.202   5.733
 5327POPC   GL269446  10.378  29.022   5.824
 5327POPC   C1A69447  10.706  29.010   6.217
 5327POPC   D2A69448  10.574  28.916   6.682
 5327POPC   C3A69449  10.784  29.094   7.071
 5327POPC   C4A69450  10.971  28.767   7.308
 5327POPC   C1B69451  10.206  28.944   6.255
 5327POPC   C2B69452  10.093  29.091   6.665
 5327POPC   C3B69453  10.278  29.197   7.076
 5327POPC   C4B69454  10.460  29.462   7.432
 5328POPC   NC369455  23.793  42.755   5.452
 5328POPC   PO469456  23.434  43.362   5.439
 5328POPC   GL169457  23.504  43.171   5.864
 5328POPC   GL269458  23.785  42.953   5.918
 5328POPC   C1A69459  23.765  43.329   6.238
 5328POPC   D2A69460  23.914  43.204   6.621
 5328POPC   C3A69461  23.760  43.221   7.031
 5328POPC   C4A69462  23.824  43.483   7.397
 5328POPC   C1B69463  23.643  42.840   6.331
 5328POPC   C2B69464  23.522  42.856   6.749
 5328POPC   C3B69465  23.394  42.598   7.086
 5328POPC   C4B69466  23.537  42.581   7.493
 5329POPC   NC369467  32.559  25.064   5.466
 5329POPC   PO469468  33.239  25.101   5.166
 5329POPC   GL169469  33.041  25.233   5.617
 5329POPC   GL269470  32.909  24.963   5.823
 5329POPC   C1A69471  33.192  25.286   6.089
 5329POPC   D2A69472  33.248  25.030   6.490
 5329POPC   C3A69473  33.243  25.214   6.898
 5329POPC   C4A69474  32.962  25.198   7.236
 5329POPC   C1B69475  32.770  25.024   6.256
 5329POPC   C2B69476  32.741  25.041   6.705
 5329POPC   C3B69477  32.560  24.893   7.100
 5329POPC   C4B69478  32.601  25.031   7.572
 5330POPC   NC369479  36.164  12.165   5.292
 5330POPC   PO469480  35.608  12.151   5.716
 5330POPC   GL169481  35.916  12.481   5.859
 5330POPC   GL269482  36.267  12.401   5.801
 5330POPC   C1A69483  36.061  12.564   6.311
 5330POPC   D2A69484  36.291  12.390   6.684
 5330POPC   C3A69485  36.109  12.287   7.100
 5330POPC   C4A69486  35.773  12.312   7.428
 5330POPC   C1B69487  36.436  12.195   6.176
 5330POPC   C2B69488  36.630  12.029   6.557
 5330POPC   C3B69489  36.442  11.903   6.945
 5330POPC   C4B69490  36.394  11.861   7.391
 5331POPC   NC369491  27.482  16.286   5.398
 5331POPC   PO469492  27.840  16.785   5.496
 5331POPC   GL169493  27.536  16.607   5.846
 5331POPC   GL269494  27.356  16.266   5.901
 5331POPC   C1A69495  27.575  16.775   6.289
 5331POPC   D2A69496  27.757  16.968   6.649
 5331POPC   C3A69497  27.950  16.700   6.899
 5331POPC   C4A69498  27.646  16.600   7.209
 5331POPC   C1B69499  27.319  16.336   6.341
 5331POPC   C2B69500  27.279  16.649   6.696
 5331POPC   C3B69501  27.155  16.664   7.156
 5331POPC   C4B69502  27.302  16.550   7.583
 5332POPC   NC369503  28.838  26.702   5.695
 5332POPC   PO469504  29.439  27.016   5.473
 5332POPC   GL169505  29.322  26.820   5.861
 5332POPC   GL269506  29.327  26.472   5.744
 5332POPC   C1A69507  29.081  26.868   6.286
 5332POPC   D2A69508  28.817  26.866   6.655
 5332POPC   C3A69509  29.016  26.947   7.008
 5332POPC   C4A69510  29.421  26.860   7.192
 5332POPC   C1B69511  29.281  26.398   6.177
 5332POPC   C2B69512  29.364  26.511   6.574
 5332POPC   C3B69513  29.551  26.384   6.945
 5332POPC   C4B69514  29.507  26.370   7.367
 5333POPC   NC369515  17.380  32.014   5.449
 5333POPC   PO469516  17.436  32.628   5.422
 5333POPC   GL169517  17.632  32.357   5.761
 5333POPC   GL269518  17.921  32.539   5.881
 5333POPC   C1A69519  17.612  32.023   6.121
 5333POPC   D2A69520  17.415  32.123   6.535
 5333POPC   C3A69521  17.600  32.017   6.923
 5333POPC   C4A69522  17.510  32.300   7.232
 5333POPC   C1B69523  17.733  32.490   6.273
 5333POPC   C2B69524  17.880  32.331   6.638
 5333POPC   C3B69525  17.928  32.512   7.044
 5333POPC   C4B69526  17.926  32.366   7.498
 5334POPC   NC369527  16.069  23.064   5.251
 5334POPC   PO469528  15.625  23.109   5.713
 5334POPC   GL169529  15.967  22.906   5.877
 5334POPC   GL269530  16.302  22.912   5.734
 5334POPC   C1A69531  15.984  22.841   6.299
 5334POPC   D2A69532  16.109  23.084   6.663
 5334POPC   C3A69533  15.988  22.973   7.057
 5334POPC   C4A69534  15.880  22.857   7.459
 5334POPC   C1B69535  16.420  22.665   6.084
 5334POPC   C2B69536  16.395  22.651   6.524
 5334POPC   C3B69537  16.409  22.725   6.956
 5334POPC   C4B69538  16.154  22.475   7.265
 5335POPC   NC369539  44.590  12.717   5.388
 5335POPC   PO469540   0.292  12.977   5.449
 5335POPC   GL169541  44.992  12.803   5.709
 5335POPC   GL269542   0.098  13.052   5.942
 5335POPC   C1A69543  44.697  12.733   6.077
 5335POPC   D2A69544  44.416  12.675   6.447
 5335POPC   C3A69545  44.618  12.568   6.865
 5335POPC   C4A69546  44.719  12.785   7.239
 5335POPC   C1B69547   0.044  12.983   6.384
 5335POPC   C2B69548   0.018  12.983   6.846
 5335POPC   C3B69549   0.195  13.062   7.273
 5335POPC   C4B69550  44.978  13.056   7.707
 5336POPC   NC369551  32.221  25.654   5.416
 5336POPC   PO469552  32.156  24.997   5.223
 5336POPC   GL169553  32.152  25.218   5.724
 5336POPC   GL269554  32.133  25.563   5.908
 5336POPC   C1A69555  32.252  25.118   6.205
 5336POPC   D2A69556  32.203  25.092   6.708
 5336POPC   C3A69557  31.995  25.471   6.942
 5336POPC   C4A69558  31.903  25.562   7.435
 5336POPC   C1B69559  32.407  25.630   6.296
 5336POPC   C2B69560  32.515  25.744   6.729
 5336POPC   C3B69561  32.521  25.399   7.012
 5336POPC   C4B69562  32.207  25.186   7.295
 5337POPC   NC369563  22.552  43.512   5.121
 5337POPC   PO469564  22.696  42.824   5.341
 5337POPC   GL169565  22.666  43.049   5.732
 5337POPC   GL269566  22.939  43.325   5.843
 5337POPC   C1A69567  22.818  42.902   6.123
 5337POPC   D2A69568  23.123  42.987   6.425
 5337POPC   C3A69569  22.995  42.963   6.854
 5337POPC   C4A69570  23.102  42.989   7.276
 5337POPC   C1B69571  22.790  43.401   6.302
 5337POPC   C2B69572  22.767  43.435   6.755
 5337POPC   C3B69573  22.973  43.457   7.158
 5337POPC   C4B69574  22.880  43.388   7.620
 5338POPC   NC369575  26.439  25.807   5.632
 5338POPC   PO469576  26.893  26.174   5.191
 5338POPC   GL169577  26.892  26.132   5.678
 5338POPC   GL269578  27.208  25.913   5.788
 5338POPC   C1A69579  26.773  26.082   6.137
 5338POPC   D2A69580  26.489  26.045   6.523
 5338POPC   C3A69581  26.731  26.079   6.934
 5338POPC   C4A69582  27.089  26.138   7.232
 5338POPC   C1B69583  27.049  25.601   6.103
 5338POPC   C2B69584  26.788  25.650   6.461
 5338POPC   C3B69585  26.614  25.562   6.850
 5338POPC   C4B69586  26.912  25.637   7.161
 5339POPC   NC369587   0.918  14.445   5.403
 5339POPC   PO469588   1.539  14.646   5.256
 5339POPC   GL169589   1.424  14.576   5.737
 5339POPC   GL269590   1.093  14.403   5.943
 5339POPC   C1A69591   1.565  14.384   6.129
 5339POPC   D2A69592   1.612  14.216   6.550
 5339POPC   C3A69593   1.294  14.384   6.801
 5339POPC   C4A69594   1.212  14.523   7.211
 5339POPC   C1B69595   1.147  14.072   6.307
 5339POPC   C2B69596   0.937  14.000   6.760
 5339POPC   C3B69597   0.983  14.058   7.249
 5339POPC   C4B69598   0.761  14.051   7.721
 5340POPC   NC369599  38.297  11.564   5.445
 5340POPC   PO469600  38.883  11.156   5.345
 5340POPC   GL169601  38.797  11.298   5.748
 5340POPC   GL269602  38.690  11.020   5.946
 5340POPC   C1A69603  38.870  11.503   6.164
 5340POPC   D2A69604  38.819  11.602   6.603
 5340POPC   C3A69605  38.701  11.303   6.862
 5340POPC   C4A69606  38.602  11.169   7.238
 5340POPC   C1B69607  38.564  11.147   6.368
 5340POPC   C2B69608  38.342  10.970   6.709
 5340POPC   C3B69609  38.106  11.112   7.049
 5340POPC   C4B69610  38.181  10.983   7.439
 5341POPC   NC369611   5.310  43.567   5.542
 5341POPC   PO469612   5.247  42.843   5.542
 5341POPC   GL169613   5.189  43.100   5.893
 5341POPC   GL269614   4.909  43.306   5.810
 5341POPC   C1A69615   5.030  43.168   6.323
 5341POPC   D2A69616   4.966  43.042   6.762
 5341POPC   C3A69617   5.189  43.244   7.106
 5341POPC   C4A69618   4.863  43.094   7.353
 5341POPC   C1B69619   4.838  43.602   6.142
 5341POPC   C2B69620   4.729  43.740   6.528
 5341POPC   C3B69621   4.852  43.560   6.878
 5341POPC   C4B69622   4.907  43.646   7.277
 5342POPC   NC369623  37.171  41.767   5.166
 5342POPC   PO469624  36.695  41.321   5.407
 5342POPC   GL169625  36.964  41.415   5.719
 5342POPC   GL269626  36.971  41.769   5.630
 5342POPC   C1A69627  36.924  41.499   6.165
 5342POPC   D2A69628  37.063  41.440   6.588
 5342POPC   C3A69629  36.823  41.409   6.963
 5342POPC   C4A69630  37.032  41.356   7.308
 5342POPC   C1B69631  36.859  41.987   6.000
 5342POPC   C2B69632  37.014  42.007   6.413
 5342POPC   C3B69633  37.104  41.879   6.837
 5342POPC   C4B69634  37.015  41.859   7.249
 5343POPC   NC369635  35.450   2.472   5.269
 5343POPC   PO469636  35.334   1.785   5.367
 5343POPC   GL169637  35.290   1.778   5.803
 5343POPC   GL269638  35.130   2.096   5.788
 5343POPC   C1A69639  35.424   1.845   6.266
 5343POPC   D2A69640  35.300   2.009   6.702
 5343POPC   C3A69641  35.591   1.993   7.077
 5343POPC   C4A69642  35.782   1.633   7.261
 5343POPC   C1B69643  34.938   1.965   6.144
 5343POPC   C2B69644  34.781   1.945   6.539
 5343POPC   C3B69645  34.857   1.823   6.944
 5343POPC   C4B69646  35.110   2.059   7.201
 5344POPC   NC369647   5.055  17.079   5.137
 5344POPC   PO469648   5.249  16.503   5.523
 5344POPC   GL169649   4.958  16.727   5.795
 5344POPC   GL269650   4.891  16.463   6.054
 5344POPC   C1A69651   4.840  17.006   6.163
 5344POPC   D2A69652   4.725  17.138   6.613
 5344POPC   C3A69653   4.898  16.810   6.912
 5344POPC   C4A69654   5.037  16.596   7.291
 5344POPC   C1B69655   5.298  16.416   6.305
 5344POPC   C2B69656   5.337  16.498   6.760
 5344POPC   C3B69657   5.493  16.421   7.160
 5344POPC   C4B69658   5.380  16.317   7.597
 5345POPC   NC369659  11.999   5.287   5.382
 5345POPC   PO469660  11.951   4.661   5.404
 5345POPC   GL169661  12.000   4.901   5.796
 5345POPC   GL269662  11.659   4.883   5.901
 5345POPC   C1A69663  12.104   5.065   6.239
 5345POPC   D2A69664  12.283   5.290   6.628
 5345POPC   C3A69665  12.151   5.114   7.038
 5345POPC   C4A69666  12.254   4.964   7.447
 5345POPC   C1B69667  11.719   4.732   6.331
 5345POPC   C2B69668  11.747   4.837   6.782
 5345POPC   C3B69669  11.792   4.748   7.217
 5345POPC   C4B69670  11.610   4.628   7.617
 5346POPC   NC369671  12.396  17.264   5.378
 5346POPC   PO469672  12.044  17.968   5.345
 5346POPC   GL169673  12.156  17.672   5.682
 5346POPC   GL269674  12.489  17.720   5.611
 5346POPC   C1A69675  12.092  17.431   6.102
 5346POPC   D2A69676  11.893  17.572   6.492
 5346POPC   C3A69677  12.107  17.488   6.909
 5346POPC   C4A69678  11.965  17.314   7.329
 5346POPC   C1B69679  12.531  17.671   6.075
 5346POPC   C2B69680  12.336  17.827   6.510
 5346POPC   C3B69681  12.282  17.963   6.968
 5346POPC   C4B69682  12.355  17.668   7.322
 5347POPC   NC369683  32.089   0.246   5.336
 5347POPC   PO469684  32.514   0.847   5.519
 5347POPC   GL169685  32.352   0.492   5.733
 5347POPC   GL269686  32.073   0.643   5.805
 5347POPC   C1A69687  32.295   0.270   6.134
 5347POPC   D2A69688  32.061   0.039   6.458
 5347POPC   C3A69689  32.191   0.100   6.877
 5347POPC   C4A69690  32.025   0.234   7.255
 5347POPC   C1B69691  31.934   0.639   6.176
 5347POPC   C2B69692  32.098   0.535   6.588
 5347POPC   C3B69693  31.936   0.665   6.994
 5347POPC   C4B69694  31.988   0.734   7.425
 5348POPC   NC369695  15.274  13.988   5.639
 5348POPC   PO469696  14.944  13.485   5.326
 5348POPC   GL169697  15.041  13.537   5.743
 5348POPC   GL269698  15.385  13.539   5.840
 5348POPC   C1A69699  14.902  13.543   6.191
 5348POPC   D2A69700  14.834  13.798   6.584
 5348POPC   C3A69701  14.994  13.656   6.998
 5348POPC   C4A69702  15.386  13.838   7.213
 5348POPC   C1B69703  15.434  13.380   6.227
 5348POPC   C2B69704  15.350  13.487   6.646
 5348POPC   C3B69705  15.398  13.343   7.062
 5348POPC   C4B69706  15.660  13.404   7.397
 5349POPC   NC369707   0.450  21.654   5.328
 5349POPC   PO469708   0.332  21.062   5.269
 5349POPC   GL169709   0.398  21.285   5.706
 5349POPC   GL269710   0.123  21.167   5.878
 5349POPC   C1A69711   0.505  21.519   6.133
 5349POPC   D2A69712   0.787  21.707   6.493
 5349POPC   C3A69713   0.634  21.660   6.939
 5349POPC   C4A69714   0.584  21.379   7.283
 5349POPC   C1B69715   0.132  21.222   6.315
 5349POPC   C2B69716   0.329  21.360   6.670
 5349POPC   C3B69717   0.129  21.479   7.062
 5349POPC   C4B69718  44.770  21.278   7.291
 5350POPC   NC369719  44.647  32.355   5.389
 5350POPC   PO469720  44.735  31.743   5.563
 5350POPC   GL169721  44.688  32.031   5.857
 5350POPC   GL269722  44.371  32.163   5.812
 5350POPC   C1A69723  44.667  32.079   6.289
 5350POPC   D2A69724  44.640  31.863   6.686
 5350POPC   C3A69725  44.673  32.166   7.004
 5350POPC   C4A69726  44.815  32.138   7.406
 5350POPC   C1B69727  44.273  32.386   6.184
 5350POPC   C2B69728  44.435  32.377   6.611
 5350POPC   C3B69729  44.221  32.427   6.977
 5350POPC   C4B69730  44.260  32.186   7.336
 5351POPC   NC369731  33.826  40.372   5.631
 5351POPC   PO469732  33.747  39.688   5.514
 5351POPC   GL169733  33.639  39.945   5.892
 5351POPC   GL269734  33.414  40.259   5.932
 5351POPC   C1A69735  33.912  40.083   6.236
 5351POPC   D2A69736  33.851  40.151   6.655
 5351POPC   C3A69737  33.878  39.803   6.906
 5351POPC   C4A69738  33.995  39.804   7.289
 5351POPC   C1B69739  33.399  40.065   6.346
 5351POPC   C2B69740  33.409  39.954   6.791
 5351POPC   C3B69741  33.532  40.076   7.209
 5351POPC   C4B69742  33.465  40.371   7.561
 5352POPC   NC369743  34.027  20.180   5.099
 5352POPC   PO469744  33.803  19.582   5.405
 5352POPC   GL169745  33.883  19.783   5.794
 5352POPC   GL269746  34.025  20.068   5.668
 5352POPC   C1A69747  33.746  19.810   6.222
 5352POPC   D2A69748  33.712  19.595   6.609
 5352POPC   C3A69749  33.851  19.885   6.906
 5352POPC   C4A69750  34.081  19.829   7.249
 5352POPC   C1B69751  34.090  20.178   6.134
 5352POPC   C2B69752  33.950  20.257   6.573
 5352POPC   C3B69753  34.147  20.291   7.029
 5352POPC   C4B69754  34.074  20.271   7.529
 5353POPC   NC369755   9.429  40.212   5.560
 5353POPC   PO469756   9.883  39.772   5.444
 5353POPC   GL169757   9.846  40.049   5.797
 5353POPC   GL269758  10.070  40.336   5.901
 5353POPC   C1A69759   9.647  40.124   6.203
 5353POPC   D2A69760   9.766  40.259   6.603
 5353POPC   C3A69761   9.687  39.995   6.932
 5353POPC   C4A69762   9.523  39.936   7.324
 5353POPC   C1B69763  10.155  39.992   6.176
 5353POPC   C2B69764  10.003  39.811   6.513
 5353POPC   C3B69765  10.185  39.849   6.896
 5353POPC   C4B69766  10.043  39.895   7.288
 5354POPC   NC369767   7.186  10.169   5.444
 5354POPC   PO469768   7.444   9.584   5.399
 5354POPC   GL169769   7.436   9.878   5.794
 5354POPC   GL269770   7.133  10.025   5.934
 5354POPC   C1A69771   7.525   9.910   6.262
 5354POPC   D2A69772   7.523   9.719   6.695
 5354POPC   C3A69773   7.511   9.874   7.150
 5354POPC   C4A69774   7.354   9.865   7.594
 5354POPC   C1B69775   7.055  10.016   6.406
 5354POPC   C2B69776   7.180  10.104   6.832
 5354POPC   C3B69777   6.948   9.934   7.233
 5354POPC   C4B69778   6.839   9.933   7.707
 5355POPC   NC369779  12.400  39.237   5.581
 5355POPC   PO469780  11.783  39.141   5.479
 5355POPC   GL169781  11.856  39.240   5.853
 5355POPC   GL269782  11.873  38.888   5.918
 5355POPC   C1A69783  11.640  39.258   6.243
 5355POPC   D2A69784  11.906  39.469   6.519
 5355POPC   C3A69785  12.099  39.291   6.876
 5355POPC   C4A69786  12.007  39.271   7.292
 5355POPC   C1B69787  12.086  39.016   6.286
 5355POPC   C2B69788  11.833  38.924   6.645
 5355POPC   C3B69789  11.678  38.943   7.074
 5355POPC   C4B69790  11.753  38.934   7.570
 5356POPC   NC369791  36.894  25.393   5.295
 5356POPC   PO469792  36.399  24.994   5.471
 5356POPC   GL169793  36.732  25.185   5.759
 5356POPC   GL269794  37.099  25.288   5.745
 5356POPC   C1A69795  36.684  25.214   6.214
 5356POPC   D2A69796  36.524  25.194   6.626
 5356POPC   C3A69797  36.724  25.339   6.991
 5356POPC   C4A69798  36.928  25.067   7.256
 5356POPC   C1B69799  37.163  25.371   6.192
 5356POPC   C2B69800  37.066  25.486   6.636
 5356POPC   C3B69801  37.235  25.441   7.086
 5356POPC   C4B69802  37.224  25.357   7.566
 5357POPC   NC369803  19.382  29.863   4.943
 5357POPC   PO469804  19.837  30.116   5.277
 5357POPC   GL169805  19.944  30.088   5.765
 5357POPC   GL269806  19.974  29.733   5.886
 5357POPC   C1A69807  19.806  30.099   6.228
 5357POPC   D2A69808  19.992  29.920   6.621
 5357POPC   C3A69809  19.894  30.010   7.064
 5357POPC   C4A69810  20.007  29.895   7.507
 5357POPC   C1B69811  19.875  29.533   6.297
 5357POPC   C2B69812  19.876  29.418   6.753
 5357POPC   C3B69813  19.741  29.530   7.177
 5357POPC   C4B69814  19.620  29.544   7.621
 5358POPC   NC369815  37.412  24.775   5.097
 5358POPC   PO469816  37.395  24.274   5.334
 5358POPC   GL169817  37.732  24.253   5.663
 5358POPC   GL269818  37.510  24.118   5.890
 5358POPC   C1A69819  37.910  24.387   6.077
 5358POPC   D2A69820  37.781  24.599   6.462
 5358POPC   C3A69821  37.871  24.415   6.851
 5358POPC   C4A69822  37.825  24.488   7.293
 5358POPC   C1B69823  37.402  24.376   6.207
 5358POPC   C2B69824  37.304  24.370   6.625
 5358POPC   C3B69825  37.412  24.280   7.035
 5358POPC   C4B69826  37.334  24.375   7.446
 5359POPC   NC369827  41.595   2.214   5.064
 5359POPC   PO469828  41.701   2.878   5.311
 5359POPC   GL169829  41.406   2.944   5.626
 5359POPC   GL269830  41.707   3.051   5.804
 5359POPC   C1A69831  41.295   2.833   6.044
 5359POPC   D2A69832  41.315   2.607   6.406
 5359POPC   C3A69833  41.425   2.822   6.766
 5359POPC   C4A69834  41.549   2.504   7.086
 5359POPC   C1B69835  41.741   3.306   6.169
 5359POPC   C2B69836  41.604   3.316   6.586
 5359POPC   C3B69837  41.697   3.281   7.002
 5359POPC   C4B69838  41.576   2.980   7.223
 5360POPC   NC369839  36.527  23.680   5.150
 5360POPC   PO469840  36.813  24.027   5.684
 5360POPC   GL169841  37.043  23.654   5.765
 5360POPC   GL269842  37.365  23.613   5.920
 5360POPC   C1A69843  36.929  23.473   6.165
 5360POPC   D2A69844  36.705  23.738   6.478
 5360POPC   C3A69845  36.784  23.552   6.886
 5360POPC   C4A69846  36.827  23.697   7.299
 5360POPC   C1B69847  37.244  23.877   6.259
 5360POPC   C2B69848  37.160  23.875   6.672
 5360POPC   C3B69849  37.264  23.725   7.025
 5360POPC   C4B69850  37.366  23.878   7.377
 5361POPC   NC369851   0.719  29.693   5.437
 5361POPC   PO469852   0.239  30.149   5.347
 5361POPC   GL169853   0.465  30.086   5.706
 5361POPC   GL269854   0.387  29.784   5.821
 5361POPC   C1A69855   0.344  30.167   6.145
 5361POPC   D2A69856   0.521  30.120   6.529
 5361POPC   C3A69857   0.310  30.080   6.898
 5361POPC   C4A69858   0.486  30.186   7.261
 5361POPC   C1B69859   0.493  29.657   6.223
 5361POPC   C2B69860   0.419  29.634   6.654
 5361POPC   C3B69861   0.652  29.730   7.039
 5361POPC   C4B69862   0.663  29.577   7.460
 5362POPC   NC369863  38.491   7.065   5.361
 5362POPC   PO469864  38.750   7.703   5.487
 5362POPC   GL169865  38.722   7.534   5.852
 5362POPC   GL269866  38.437   7.312   5.831
 5362POPC   C1A69867  38.652   7.533   6.269
 5362POPC   D2A69868  38.722   7.350   6.659
 5362POPC   C3A69869  38.535   7.630   6.964
 5362POPC   C4A69870  38.629   7.522   7.376
 5362POPC   C1B69871  38.405   7.061   6.234
 5362POPC   C2B69872  38.268   7.098   6.676
 5362POPC   C3B69873  38.318   7.183   7.119
 5362POPC   C4B69874  38.102   7.364   7.477
 5363POPC   NC369875  10.768  21.381   5.280
 5363POPC   PO469876  10.234  21.207   5.638
 5363POPC   GL169877  10.538  21.186   5.973
 5363POPC   GL269878  10.821  21.293   5.796
 5363POPC   C1A69879  10.514  21.387   6.374
 5363POPC   D2A69880  10.254  21.704   6.601
 5363POPC   C3A69881  10.250  21.524   7.005
 5363POPC   C4A69882  10.280  21.057   7.094
 5363POPC   C1B69883  10.997  21.501   6.151
 5363POPC   C2B69884  11.049  21.394   6.577
 5363POPC   C3B69885  10.755  21.383   6.899
 5363POPC   C4B69886  10.794  21.572   7.277
 5364POPC   NC369887  44.468  34.171   5.090
 5364POPC   PO469888  44.922  33.726   5.314
 5364POPC   GL169889  44.936  33.640   5.785
 5364POPC   GL269890  44.986  33.960   5.973
 5364POPC   C1A69891  44.682  33.609   6.176
 5364POPC   D2A69892  44.726  33.505   6.618
 5364POPC   C3A69893  44.537  33.579   7.067
 5364POPC   C4A69894  44.513  33.626   7.548
 5364POPC   C1B69895   0.057  33.876   6.430
 5364POPC   C2B69896  44.747  33.987   6.790
 5364POPC   C3B69897  44.679  34.029   7.248
 5364POPC   C4B69898  44.991  34.025   7.599
 5365POPC   NC369899  44.966  20.791   5.191
 5365POPC   PO469900  44.488  20.426   5.468
 5365POPC   GL169901  44.608  20.637   5.801
 5365POPC   GL269902  44.919  20.725   5.709
 5365POPC   C1A69903  44.678  20.488   6.226
 5365POPC   D2A69904  44.974  20.327   6.586
 5365POPC   C3A69905  44.724  20.331   6.991
 5365POPC   C4A69906  44.364  20.537   7.189
 5365POPC   C1B69907   0.101  20.725   6.148
 5365POPC   C2B69908  44.943  20.833   6.570
 5365POPC   C3B69909   0.048  20.710   6.984
 5365POPC   C4B69910  44.800  20.721   7.357
 5366POPC   NC369911  30.167  12.630   5.328
 5366POPC   PO469912  29.804  13.243   5.545
 5366POPC   GL169913  29.927  12.901   5.728
 5366POPC   GL269914  29.640  12.775   5.910
 5366POPC   C1A69915  30.129  12.823   6.130
 5366POPC   D2A69916  29.884  12.693   6.491
 5366POPC   C3A69917  29.962  12.769   6.919
 5366POPC   C4A69918  29.957  12.471   7.258
 5366POPC   C1B69919  29.695  13.118   6.208
 5366POPC   C2B69920  29.908  13.232   6.580
 5366POPC   C3B69921  29.843  13.279   6.993
 5366POPC   C4B69922  29.934  13.073   7.349
 5367POPC   NC369923  15.482  24.161   5.450
 5367POPC   PO469924  14.957  23.790   5.413
 5367POPC   GL169925  15.071  23.679   5.877
 5367POPC   GL269926  15.277  23.382   5.963
 5367POPC   C1A69927  14.961  23.612   6.351
 5367POPC   D2A69928  15.208  23.294   6.599
 5367POPC   C3A69929  15.242  23.366   7.038
 5367POPC   C4A69930  15.034  23.706   7.256
 5367POPC   C1B69931  15.457  23.664   6.269
 5367POPC   C2B69932  15.356  23.776   6.729
 5367POPC   C3B69933  15.538  23.809   7.166
 5367POPC   C4B69934  15.577  24.074   7.556
 5368POPC   NC369935  37.677  31.669   5.412
 5368POPC   PO469936  37.871  31.083   5.529
 5368POPC   GL169937  37.674  31.420   5.851
 5368POPC   GL269938  37.466  31.761   5.879
 5368POPC   C1A69939  37.498  31.379   6.245
 5368POPC   D2A69940  37.657  31.159   6.592
 5368POPC   C3A69941  37.645  31.344   6.993
 5368POPC   C4A69942  37.990  31.566   7.132
 5368POPC   C1B69943  37.420  31.883   6.329
 5368POPC   C2B69944  37.630  31.747   6.723
 5368POPC   C3B69945  37.513  31.780   7.210
 5368POPC   C4B69946  37.401  31.989   7.674
 5369POPC   NC369947   5.386  32.549   5.462
 5369POPC   PO469948   4.905  32.144   5.314
 5369POPC   GL169949   5.074  32.109   5.765
 5369POPC   GL269950   5.148  32.439   5.897
 5369POPC   C1A69951   5.061  32.106   6.249
 5369POPC   D2A69952   5.244  32.327   6.609
 5369POPC   C3A69953   5.146  32.051   6.952
 5369POPC   C4A69954   5.012  32.097   7.384
 5369POPC   C1B69955   5.022  32.675   6.279
 5369POPC   C2B69956   4.972  32.761   6.733
 5369POPC   C3B69957   4.960  32.517   7.097
 5369POPC   C4B69958   5.117  32.561   7.530
 5370POPC   NC369959  41.598  13.626   5.441
 5370POPC   PO469960  41.229  14.089   5.544
 5370POPC   GL169961  41.408  13.775   5.906
 5370POPC   GL269962  41.456  13.388   5.896
 5370POPC   C1A69963  41.677  13.643   6.289
 5370POPC   D2A69964  41.905  13.614   6.699
 5370POPC   C3A69965  41.725  13.476   7.106
 5370POPC   C4A69966  41.521  13.724   7.443
 5370POPC   C1B69967  41.276  13.324   6.325
 5370POPC   C2B69968  41.377  13.273   6.775
 5370POPC   C3B69969  41.225  13.356   7.222
 5370POPC   C4B69970  41.328  13.317   7.678
 5371POPC   NC369971  23.150  42.898   5.561
 5371POPC   PO469972  23.577  42.369   5.264
 5371POPC   GL169973  23.724  42.208   5.740
 5371POPC   GL269974  23.953  42.461   5.830
 5371POPC   C1A69975  23.598  42.200   6.180
 5371POPC   D2A69976  23.722  42.343   6.582
 5371POPC   C3A69977  23.870  42.020   6.844
 5371POPC   C4A69978  23.776  42.190   7.210
 5371POPC   C1B69979  24.046  42.537   6.220
 5371POPC   C2B69980  24.061  42.722   6.628
 5371POPC   C3B69981  23.924  42.674   7.049
 5371POPC   C4B69982  23.996  42.954   7.398
 5372POPC   NC369983  37.958   2.909   5.470
 5372POPC   PO469984  37.420   2.530   5.459
 5372POPC   GL169985  37.609   2.717   5.833
 5372POPC   GL269986  37.966   2.589   5.870
 5372POPC   C1A69987  37.627   2.667   6.302
 5372POPC   D2A69988  37.699   2.402   6.664
 5372POPC   C3A69989  37.735   2.611   7.052
 5372POPC   C4A69990  37.606   2.996   7.212
 5372POPC   C1B69991  38.037   2.920   6.188
 5372POPC   C2B69992  37.886   3.006   6.628
 5372POPC   C3B69993  38.098   3.017   7.015
 5372POPC   C4B69994  38.041   2.841   7.430
 5373POPC   NC369995   9.762   1.266   5.329
 5373POPC   PO469996   9.683   0.603   5.452
 5373POPC   GL169997   9.688   0.989   5.737
 5373POPC   GL269998  10.025   1.155   5.757
 5373POPC   C1A69999   9.699   1.270   6.130
 5373POPC   D2A70000   9.897   1.417   6.528
 5373POPC   C3A70001   9.610   1.590   6.818
 5373POPC   C4A70002   9.411   1.393   7.150
 5373POPC   C1B70003  10.008   0.848   6.114
 5373POPC   C2B70004  10.114   0.752   6.511
 5373POPC   C3B70005  10.065   0.888   6.917
 5373POPC   C4B70006   9.927   1.264   7.074
 5374POPC   NC370007  16.544  33.499   5.491
 5374POPC   PO470008  16.701  32.802   5.391
 5374POPC   GL170009  16.648  32.790   5.839
 5374POPC   GL270010  16.455  33.113   5.874
 5374POPC   C1A70011  16.785  32.812   6.297
 5374POPC   D2A70012  16.598  32.950   6.711
 5374POPC   C3A70013  16.883  33.080   7.031
 5374POPC   C4A70014  16.955  32.877   7.441
 5374POPC   C1B70015  16.579  33.291   6.287
 5374POPC   C2B70016  16.567  33.464   6.715
 5374POPC   C3B70017  16.553  33.454   7.162
 5374POPC   C4B70018  16.395  33.453   7.585
 5375POPC   NC370019   8.682  40.383   5.108
 5375POPC   PO470020   8.864  40.914   5.475
 5375POPC   GL170021   9.163  40.646   5.691
 5375POPC   GL270022   8.903  40.580   5.908
 5375POPC   C1A70023   9.356  40.577   6.133
 5375POPC   D2A70024   9.379  40.792   6.546
 5375POPC   C3A70025   9.220  40.631   6.954
 5375POPC   C4A70026   9.162  40.771   7.389
 5375POPC   C1B70027   8.881  40.727   6.342
 5375POPC   C2B70028   8.711  40.707   6.772
 5375POPC   C3B70029   8.677  40.664   7.220
 5375POPC   C4B70030   8.765  40.575   7.663
 5376POPC   NC370031  11.245  37.116   5.594
 5376POPC   PO470032  11.678  36.816   5.173
 5376POPC   GL170033  11.700  36.816   5.621
 5376POPC   GL270034  11.437  36.600   5.690
 5376POPC   C1A70035  11.645  36.921   6.088
 5376POPC   D2A70036  11.335  37.020   6.424
 5376POPC   C3A70037  11.408  37.084   6.865
 5376POPC   C4A70038  11.667  36.809   7.117
 5376POPC   C1B70039  11.175  36.678   6.066
 5376POPC   C2B70040  10.919  36.713   6.453
 5376POPC   C3B70041  11.143  36.667   6.801
 5376POPC   C4B70042  11.132  36.796   7.196
 5377POPC   NC370043  34.334  33.922   5.308
 5377POPC   PO470044  34.980  33.657   5.416
 5377POPC   GL170045  34.792  33.826   5.810
 5377POPC   GL270046  34.463  33.983   5.823
 5377POPC   C1A70047  34.714  33.763   6.283
 5377POPC   D2A70048  34.858  33.823   6.729
 5377POPC   C3A70049  34.645  33.962   7.090
 5377POPC   C4A70050  34.651  33.973   7.560
 5377POPC   C1B70051  34.331  34.145   6.241
 5377POPC   C2B70052  34.185  33.938   6.624
 5377POPC   C3B70053  34.162  34.054   7.066
 5377POPC   C4B70054  34.225  33.698   7.331
 5378POPC   NC370055  13.777  20.986   5.362
 5378POPC   PO470056  13.500  20.363   5.442
 5378POPC   GL170057  13.577  20.545   5.824
 5378POPC   GL270058  13.931  20.448   5.817
 5378POPC   C1A70059  13.348  20.708   6.201
 5378POPC   D2A70060  13.395  20.560   6.634
 5378POPC   C3A70061  13.506  20.801   7.025
 5378POPC   C4A70062  13.898  20.899   7.265
 5378POPC   C1B70063  13.904  20.203   6.198
 5378POPC   C2B70064  13.858  20.307   6.613
 5378POPC   C3B70065  14.032  20.217   6.989
 5378POPC   C4B70066  14.203  20.484   7.292
 5379POPC   NC370067  40.674   6.498   5.312
 5379POPC   PO470068  40.498   7.003   5.528
 5379POPC   GL170069  40.693   6.764   5.856
 5379POPC   GL270070  40.712   6.375   5.834
 5379POPC   C1A70071  40.640   6.634   6.287
 5379POPC   D2A70072  40.914   6.540   6.628
 5379POPC   C3A70073  40.763   6.741   7.011
 5379POPC   C4A70074  40.987   7.019   7.296
 5379POPC   C1B70075  40.536   6.135   6.209
 5379POPC   C2B70076  40.656   6.110   6.642
 5379POPC   C3B70077  40.568   6.253   7.074
 5379POPC   C4B70078  40.638   6.529   7.466
 5380POPC   NC370079  32.969   1.795   5.238
 5380POPC   PO470080  33.557   2.014   5.499
 5380POPC   GL170081  33.329   1.869   5.831
 5380POPC   GL270082  32.975   1.843   5.755
 5380POPC   C1A70083  33.265   2.057   6.216
 5380POPC   D2A70084  33.233   1.896   6.597
 5380POPC   C3A70085  33.287   2.150   6.958
 5380POPC   C4A70086  33.101   1.973   7.302
 5380POPC   C1B70087  32.845   1.762   6.183
 5380POPC   C2B70088  32.714   1.953   6.585
 5380POPC   C3B70089  32.644   1.803   7.002
 5380POPC   C4B70090  32.478   1.557   7.327
 5381POPC   NC370091  31.427  21.409   5.131
 5381POPC   PO470092  31.719  20.831   5.275
 5381POPC   GL170093  31.492  21.255   5.602
 5381POPC   GL270094  31.469  21.632   5.610
 5381POPC   C1A70095  31.647  21.418   6.069
 5381POPC   D2A70096  31.748  21.283   6.524
 5381POPC   C3A70097  31.615  21.433   6.942
 5381POPC   C4A70098  31.435  21.183   7.271
 5381POPC   C1B70099  31.178  21.494   5.948
 5381POPC   C2B70100  31.265  21.564   6.408
 5381POPC   C3B70101  31.118  21.571   6.831
 5381POPC   C4B70102  31.234  21.728   7.207
 5382POPC   NC370103  22.219  28.199   5.357
 5382POPC   PO470104  21.554  28.233   5.369
 5382POPC   GL170105  21.870  28.240   5.751
 5382POPC   GL270106  22.148  28.493   5.786
 5382POPC   C1A70107  22.048  28.227   6.216
 5382POPC   D2A70108  22.183  28.016   6.591
 5382POPC   C3A70109  22.007  28.182   6.945
 5382POPC   C4A70110  21.794  28.536   7.088
 5382POPC   C1B70111  22.431  28.530   6.149
 5382POPC   C2B70112  22.540  28.385   6.547
 5382POPC   C3B70113  22.421  28.471   6.961
 5382POPC   C4B70114  22.211  28.480   7.373
 5383POPC   NC370115   9.393  16.596   5.446
 5383POPC   PO470116   9.872  16.954   5.323
 5383POPC   GL170117   9.973  16.665   5.689
 5383POPC   GL270118   9.962  16.265   5.688
 5383POPC   C1A70119  10.055  16.832   6.113
 5383POPC   D2A70120   9.783  16.951   6.472
 5383POPC   C3A70121  10.003  16.965   6.856
 5383POPC   C4A70122   9.789  17.043   7.251
 5383POPC   C1B70123   9.740  16.397   6.085
 5383POPC   C2B70124   9.565  16.409   6.509
 5383POPC   C3B70125   9.665  16.573   6.899
 5383POPC   C4B70126   9.430  16.622   7.254
 5384POPC   NC370127   0.622  41.345   5.435
 5384POPC   PO470128   0.136  41.753   5.800
 5384POPC   GL170129   0.600  41.680   5.850
 5384POPC   GL270130   0.762  42.008   5.808
 5384POPC   C1A70131   0.643  41.530   6.289
 5384POPC   D2A70132   0.313  41.653   6.629
 5384POPC   C3A70133   0.343  41.417   7.021
 5384POPC   C4A70134   0.741  41.334   7.241
 5384POPC   C1B70135   0.570  42.032   6.220
 5384POPC   C2B70136   0.738  41.985   6.627
 5384POPC   C3B70137   0.582  41.868   7.030
 5384POPC   C4B70138   0.158  41.872   7.196
 5385POPC   NC370139   2.963  35.529   5.425
 5385POPC   PO470140   2.410  35.821   5.689
 5385POPC   GL170141   2.710  35.649   5.912
 5385POPC   GL270142   2.643  35.368   5.847
 5385POPC   C1A70143   2.798  35.554   6.333
 5385POPC   D2A70144   2.582  35.691   6.690
 5385POPC   C3A70145   2.841  35.600   7.033
 5385POPC   C4A70146   2.883  35.236   7.288
 5385POPC   C1B70147   2.538  35.121   6.248
 5385POPC   C2B70148   2.660  35.122   6.708
 5385POPC   C3B70149   2.410  35.254   7.085
 5385POPC   C4B70150   2.312  35.170   7.550
 5386POPC   NC370151  24.088  42.216   5.400
 5386POPC   PO470152  24.822  42.084   5.403
 5386POPC   GL170153  24.583  41.961   5.800
 5386POPC   GL270154  24.212  42.014   5.854
 5386POPC   C1A70155  24.563  42.200   6.197
 5386POPC   D2A70156  24.531  42.637   6.359
 5386POPC   C3A70157  24.561  42.649   6.813
 5386POPC   C4A70158  24.401  42.664   7.263
 5386POPC   C1B70159  24.061  42.027   6.286
 5386POPC   C2B70160  24.259  42.264   6.604
 5386POPC   C3B70161  24.304  42.246   7.004
 5386POPC   C4B70162  24.244  41.986   7.295
 5387POPC   NC370163  29.102  21.632   5.583
 5387POPC   PO470164  29.005  22.363   5.391
 5387POPC   GL170165  29.146  22.127   5.731
 5387POPC   GL270166  28.825  22.010   5.815
 5387POPC   C1A70167  29.171  22.135   6.190
 5387POPC   D2A70168  29.021  22.459   6.474
 5387POPC   C3A70169  28.870  22.355   6.887
 5387POPC   C4A70170  29.154  22.225   7.206
 5387POPC   C1B70171  28.748  21.806   6.205
 5387POPC   C2B70172  28.941  21.910   6.604
 5387POPC   C3B70173  28.845  21.861   7.046
 5387POPC   C4B70174  28.857  21.984   7.532
 5388POPC   NC370175  22.634  31.025   5.346
 5388POPC   PO470176  22.221  30.483   5.462
 5388POPC   GL170177  22.035  30.696   5.879
 5388POPC   GL270178  21.942  31.061   5.859
 5388POPC   C1A70179  22.092  30.856   6.318
 5388POPC   D2A70180  22.220  31.078   6.717
 5388POPC   C3A70181  22.356  30.801   7.074
 5388POPC   C4A70182  22.384  30.509   7.447
 5388POPC   C1B70183  21.692  31.156   6.210
 5388POPC   C2B70184  21.707  30.954   6.643
 5388POPC   C3B70185  21.845  30.981   7.075
 5388POPC   C4B70186  22.034  30.899   7.467
 5389POPC   NC370187  31.788  29.052   5.515
 5389POPC   PO470188  31.118  29.160   5.564
 5389POPC   GL170189  31.435  29.213   5.897
 5389POPC   GL270190  31.734  29.457   5.851
 5389POPC   C1A70191  31.443  29.042   6.314
 5389POPC   D2A70192  31.519  29.095   6.739
 5389POPC   C3A70193  31.234  29.070   7.088
 5389POPC   C4A70194  31.201  29.472   7.269
 5389POPC   C1B70195  31.753  29.443   6.311
 5389POPC   C2B70196  31.820  29.509   6.769
 5389POPC   C3B70197  31.689  29.332   7.169
 5389POPC   C4B70198  31.676  29.431   7.605
 5390POPC   NC370199  20.761  42.523   5.292
 5390POPC   PO470200  20.744  41.951   5.627
 5390POPC   GL170201  20.582  42.050   6.011
 5390POPC   GL270202  20.559  42.387   5.954
 5390POPC   C1A70203  20.588  42.179   6.427
 5390POPC   D2A70204  20.372  42.056   6.775
 5390POPC   C3A70205  20.601  42.307   7.021
 5390POPC   C4A70206  21.039  42.371   7.084
 5390POPC   C1B70207  20.572  42.691   6.322
 5390POPC   C2B70208  20.621  42.752   6.789
 5390POPC   C3B70209  20.360  42.714   7.186
 5390POPC   C4B70210  20.395  42.679   7.614
 5391POPC   NC370211  10.759   7.328   5.250
 5391POPC   PO470212  10.875   7.999   5.403
 5391POPC   GL170213  10.937   7.770   5.804
 5391POPC   GL270214  10.856   7.407   5.778
 5391POPC   C1A70215  10.723   7.833   6.226
 5391POPC   D2A70216  10.591   7.998   6.638
 5391POPC   C3A70217  10.510   7.703   6.976
 5391POPC   C4A70218  10.469   7.451   7.375
 5391POPC   C1B70219  10.648   7.317   6.210
 5391POPC   C2B70220  10.628   7.170   6.660
 5391POPC   C3B70221  10.675   7.062   7.095
 5391POPC   C4B70222  10.675   6.971   7.520
 5392POPC   NC370223  17.805   2.273   5.311
 5392POPC   PO470224  18.472   2.063   5.417
 5392POPC   GL170225  18.478   1.871   5.827
 5392POPC   GL270226  18.138   1.783   5.817
 5392POPC   C1A70227  18.360   2.040   6.249
 5392POPC   D2A70228  18.530   2.256   6.613
 5392POPC   C3A70229  18.393   2.196   7.056
 5392POPC   C4A70230  18.540   2.262   7.504
 5392POPC   C1B70231  18.214   1.544   6.209
 5392POPC   C2B70232  18.302   1.510   6.659
 5392POPC   C3B70233  18.351   1.689   7.052
 5392POPC   C4B70234  18.121   1.913   7.390
 5393POPC   NC370235  11.605   6.046   5.306
 5393POPC   PO470236  11.045   5.834   5.419
 5393POPC   GL170237  11.397   5.875   5.757
 5393POPC   GL270238  11.454   6.221   5.805
 5393POPC   C1A70239  11.626   5.892   6.194
 5393POPC   D2A70240  11.707   6.113   6.635
 5393POPC   C3A70241  11.651   5.914   7.085
 5393POPC   C4A70242  11.462   5.885   7.536
 5393POPC   C1B70243  11.217   6.187   6.222
 5393POPC   C2B70244  11.172   6.149   6.701
 5393POPC   C3B70245  11.146   6.084   7.167
 5393POPC   C4B70246  11.007   6.161   7.608
 5394POPC   NC370247  12.021  39.065   5.101
 5394POPC   PO470248  12.058  38.453   5.378
 5394POPC   GL170249  12.165  38.480   5.798
 5394POPC   GL270250  12.470  38.289   5.821
 5394POPC   C1A70251  12.062  38.504   6.230
 5394POPC   D2A70252  12.313  38.652   6.572
 5394POPC   C3A70253  12.212  38.772   6.985
 5394POPC   C4A70254  12.458  38.656   7.343
 5394POPC   C1B70255  12.350  38.078   6.229
 5394POPC   C2B70256  12.188  38.155   6.688
 5394POPC   C3B70257  12.238  38.237   7.167
 5394POPC   C4B70258  12.395  38.232   7.642
 5395POPC   NC370259  12.020  16.559   5.456
 5395POPC   PO470260  11.934  17.271   5.435
 5395POPC   GL170261  12.103  16.984   5.789
 5395POPC   GL270262  12.291  16.651   5.906
 5395POPC   C1A70263  11.969  16.890   6.217
 5395POPC   D2A70264  12.076  17.097   6.590
 5395POPC   C3A70265  12.010  16.939   7.010
 5395POPC   C4A70266  11.876  16.832   7.440
 5395POPC   C1B70267  12.442  16.765   6.366
 5395POPC   C2B70268  12.440  16.756   6.825
 5395POPC   C3B70269  12.263  16.549   7.232
 5395POPC   C4B70270  12.204  16.541   7.713
 5396POPC   NC370271  18.968  12.786   5.311
 5396POPC   PO470272  18.560  12.342   5.552
 5396POPC   GL170273  18.826  12.628   5.778
 5396POPC   GL270274  19.216  12.642   5.723
 5396POPC   C1A70275  18.928  12.747   6.190
 5396POPC   D2A70276  18.894  13.045   6.493
 5396POPC   C3A70277  18.913  12.881   6.888
 5396POPC   C4A70278  19.120  12.973   7.237
 5396POPC   C1B70279  19.392  12.515   6.122
 5396POPC   C2B70280  19.222  12.419   6.525
 5396POPC   C3B70281  19.315  12.552   6.954
 5396POPC   C4B70282  19.098  12.471   7.332
 5397POPC   NC370283  38.638  41.745   5.289
 5397POPC   PO470284  38.161  41.350   5.507
 5397POPC   GL170285  38.391  41.557   5.813
 5397POPC   GL270286  38.628  41.764   5.788
 5397POPC   C1A70287  38.461  41.508   6.228
 5397POPC   D2A70288  38.235  41.559   6.565
 5397POPC   C3A70289  38.518  41.527   6.890
 5397POPC   C4A70290  38.360  41.493   7.281
 5397POPC   C1B70291  38.711  41.955   6.137
 5397POPC   C2B70292  38.551  41.967   6.549
 5397POPC   C3B70293  38.755  42.002   6.923
 5397POPC   C4B70294  38.848  41.817   7.293
 5398POPC   NC370295  31.346   1.394   5.341
 5398POPC   PO470296  31.515   0.804   5.528
 5398POPC   GL170297  31.657   1.063   5.839
 5398POPC   GL270298  31.733   1.363   5.667
 5398POPC   C1A70299  31.570   1.130   6.273
 5398POPC   D2A70300  31.719   0.875   6.578
 5398POPC   C3A70301  31.440   0.645   6.814
 5398POPC   C4A70302  31.349   0.868   7.173
 5398POPC   C1B70303  31.453   1.539   6.001
 5398POPC   C2B70304  31.442   1.626   6.470
 5398POPC   C3B70305  31.591   1.585   6.914
 5398POPC   C4B70306  31.386   1.608   7.316
 5399POPC   NC370307   8.446  36.343   5.460
 5399POPC   PO470308   7.931  35.835   5.423
 5399POPC   GL170309   8.020  36.077   5.795
 5399POPC   GL270310   8.360  36.026   5.862
 5399POPC   C1A70311   8.030  36.101   6.261
 5399POPC   D2A70312   7.866  36.085   6.703
 5399POPC   C3A70313   8.159  36.196   7.039
 5399POPC   C4A70314   8.053  36.209   7.497
 5399POPC   C1B70315   8.578  36.018   6.243
 5399POPC   C2B70316   8.615  36.225   6.614
 5399POPC   C3B70317   8.620  35.997   6.973
 5399POPC   C4B70318   8.485  35.949   7.379
 5400POPC   NC370319  19.560   0.332   5.386
 5400POPC   PO470320  19.985   0.887   5.346
 5400POPC   GL170321  19.776   0.674   5.703
 5400POPC   GL270322  19.840   0.320   5.840
 5400POPC   C1A70323  19.566   0.775   6.075
 5400POPC   D2A70324  19.518   0.815   6.528
 5400POPC   C3A70325  19.691   0.698   6.937
 5400POPC   C4A70326  19.539   0.700   7.384
 5400POPC   C1B70327  19.890   0.430   6.299
 5400POPC   C2B70328  19.726   0.250   6.707
 5400POPC   C3B70329  19.789   0.276   7.194
 5400POPC   C4B70330  19.854   0.122   7.650
 5401POPC   NC370331  29.520  24.495   5.205
 5401POPC   PO470332  29.136  24.161   5.606
 5401POPC   GL170333  29.115  24.345   5.955
 5401POPC   GL270334  29.222  24.675   5.893
 5401POPC   C1A70335  28.890  24.452   6.294
 5401POPC   D2A70336  28.986  24.566   6.691
 5401POPC   C3A70337  28.982  24.265   7.011
 5401POPC   C4A70338  29.315  24.124   7.299
 5401POPC   C1B70339  29.134  24.918   6.284
 5401POPC   C2B70340  29.245  24.987   6.732
 5401POPC   C3B70341  29.121  24.747   7.143
 5401POPC   C4B70342  28.900  24.869   7.523
 5402POPC   NC370343   2.045  41.081   5.001
 5402POPC   PO470344   1.649  40.630   5.338
 5402POPC   GL170345   1.901  40.646   5.663
 5402POPC   GL270346   1.886  40.978   5.724
 5402POPC   C1A70347   1.916  40.558   6.088
 5402POPC   D2A70348   2.125  40.600   6.482
 5402POPC   C3A70349   1.973  40.523   6.903
 5402POPC   C4A70350   1.975  40.757   7.270
 5402POPC   C1B70351   2.146  41.040   6.085
 5402POPC   C2B70352   2.043  41.208   6.480
 5402POPC   C3B70353   2.149  41.048   6.876
 5402POPC   C4B70354   2.368  41.091   7.255
 5403POPC   NC370355   3.541  17.905   5.343
 5403POPC   PO470356   3.863  18.584   5.437
 5403POPC   GL170357   3.619  18.500   5.791
 5403POPC   GL270358   3.412  18.230   5.718
 5403POPC   C1A70359   3.616  18.493   6.233
 5403POPC   D2A70360   3.698  18.153   6.517
 5403POPC   C3A70361   3.626  18.228   6.927
 5403POPC   C4A70362   3.784  18.303   7.304
 5403POPC   C1B70363   3.238  18.171   6.124
 5403POPC   C2B70364   3.199  18.269   6.581
 5403POPC   C3B70365   3.156  18.071   7.014
 5403POPC   C4B70366   3.286  18.204   7.439
 5404POPC   NC370367  37.900  37.892   5.376
 5404POPC   PO470368  37.470  37.445   5.559
 5404POPC   GL170369  37.500  37.697   5.945
 5404POPC   GL270370  37.690  37.949   5.845
 5404POPC   C1A70371  37.603  37.726   6.406
 5404POPC   D2A70372  37.789  37.703   6.847
 5404POPC   C3A70373  37.605  37.485   7.221
 5404POPC   C4A70374  37.630  37.425   7.685
 5404POPC   C1B70375  37.857  38.125   6.200
 5404POPC   C2B70376  38.025  38.093   6.600
 5404POPC   C3B70377  37.960  38.151   7.035
 5404POPC   C4B70378  37.936  37.841   7.359
 5405POPC   NC370379  21.836  44.824   5.564
 5405POPC   PO470380  22.470   0.040   5.364
 5405POPC   GL170381  22.354  44.770   5.739
 5405POPC   GL270382  22.174  44.467   5.773
 5405POPC   C1A70383  22.093  44.774   6.154
 5405POPC   D2A70384  22.182  44.742   6.568
 5405POPC   C3A70385  21.952  44.876   6.921
 5405POPC   C4A70386  22.157  44.903   7.298
 5405POPC   C1B70387  21.937  44.311   6.185
 5405POPC   C2B70388  22.086  44.200   6.582
 5405POPC   C3B70389  22.122  44.387   6.972
 5405POPC   C4B70390  21.842  44.412   7.287
 5406W        W70391  23.376  17.651  10.694
 5407W        W70392  30.653  13.640  13.481
 5408W        W70393  22.390  34.119  11.465
 5409W        W70394  44.594  22.218  14.807
 5410W        W70395  31.096  39.576   0.772
 5411W        W70396  37.010  43.758  11.221
 5412W        W70397  10.790  39.816  12.619
 5413W        W70398  28.506  16.666  12.984
 5414W        W70399   1.967  21.560  10.720
 5415W        W70400  36.370  21.169  10.029
 5416W        W70401   7.154  42.940   4.321
 5417W        W70402  26.622  39.084  11.612
 5418W        W70403  41.425  37.395  13.158
 5419W        W70404  12.300  19.163   2.113
 5420W        W70405   1.442  40.471   4.385
 5421W        W70406  43.776   6.058  11.115
 5422W        W70407  43.339  32.054   3.416
 5423W        W70408  43.483  15.809   1.312
 5424W        W70409  10.688  11.704  14.278
 5425W        W70410   6.944  31.989  11.605
 5426W        W70411  21.615  26.825  12.910
 5427W        W70412  23.792   9.109   1.336
 5428W        W70413  22.699  32.316  14.302
 5429W        W70414  20.139   1.248   0.328
 5430W        W70415  18.097  44.549   4.202
 5431W        W70416  32.645   2.288   0.992
 5432W        W70417  43.077  15.573  14.382
 5433W        W70418  36.216  40.681  13.847
 5434W        W70419   5.396   6.687   0.810
 5435W        W70420   5.327  26.083  10.711
 5436W        W70421  24.337  15.640  13.922
 5437W        W70422   9.486  41.433   2.786
 5438W        W70423  23.713  35.874   3.640
 5439W        W70424   1.938  34.135   2.680
 5440W        W70425  11.673   5.027  11.697
 5441W        W70426  30.385   6.822   1.856
 5442W        W70427  42.089  11.375   2.726
 5443W        W70428   0.436  30.441  10.527
 5444W        W70429   8.382  30.198  12.553
 5445W        W70430   5.434  30.275  11.645
 5446W        W70431  11.636  39.662  14.937
 5447W        W70432  14.667  14.102  14.430
 5448W        W70433   4.623   3.352   0.056
 5449W        W70434  26.848  24.327   3.074
 5450W        W70435  35.064   0.965  13.341
 5451W        W70436  24.817   5.607  12.084
 5452W        W70437  16.134  16.360  11.513
 5453W        W70438  28.475  37.823  11.869
 5454W        W70439  26.250  35.709  14.953
 5455W        W70440  41.791  39.829   0.919
 5456W        W70441  32.802  36.515   4.636
 5457W        W70442   0.176   7.936   3.763
 5458W        W70443  44.317  42.204  14.463
 5459W        W70444  33.210   4.318   1.703
 5460W        W70445  20.682  43.703   3.249
 5461W        W70446  16.523  41.364  13.013
 5462W        W70447  19.414  37.341  12.692
 5463W        W70448  33.901  22.843   3.551
 5464W        W70449  24.226  29.903   1.930
 5465W        W70450  38.404  31.671   2.335
 5466W        W70451  26.502  34.787  10.477
 5467W        W70452  21.486  42.799   4.746
 5468W        W70453  14.868  34.205  14.984
 5469W        W70454  18.017  12.293  13.923
 5470W        W70455  40.006  17.304  12.351
 5471W        W70456  20.791  35.852   2.259
 5472W        W70457  14.738  40.843  14.773
 5473W        W70458  12.346  15.088  14.337
 5474W        W70459  38.944  17.285  14.858
 5475W        W70460   7.613   9.087   3.440
 5476W        W70461   6.147   9.395  13.930
 5477W        W70462  12.981  44.644  14.410
 5478W        W70463  38.124  16.146  12.945
 5479W        W70464  28.969  26.937   3.634
 5480W        W70465  23.464   6.754   3.208
 5481W        W70466  42.362  12.130   0.919
 5482W        W70467   3.267  33.548   1.894
 5483W        W70468   5.691  17.155  14.486
 5484W        W70469  26.264  20.598   3.280
 5485W        W70470  18.438  10.814  11.353
 5486W        W70471   3.782  23.732  11.134
 5487W        W70472  33.597   5.291   1.791
 5488W        W70473  31.090   0.083   4.365
 5489W        W70474   4.987  10.612   4.812
 5490W        W70475  30.053   5.911  13.461
 5491W        W70476  25.051  36.332   3.597
 5492W        W70477  25.450  23.216   0.877
 5493W        W70478   0.830  25.182  10.867
 5494W        W70479  44.244  33.462  12.325
 5495W        W70480  30.552  13.714  12.554
 5496W        W70481  10.587  37.597  10.787
 5497W        W70482  35.885  16.283   1.971
 5498W        W70483  21.719  39.549  14.184
 5499W        W70484  18.614  14.655  11.708
 5500W        W70485  19.186   7.915  14.814
 5501W        W70486  43.563  41.968   4.805
 5502W        W70487   4.889   4.430   3.867
 5503W        W70488  24.242   6.010   3.187
 5504W        W70489  44.433  23.619   2.433
 5505W        W70490   3.312   7.419   2.208
 5506W        W70491  38.556  27.755  13.560
 5507W        W70492  10.757  29.819   3.387
 5508W        W70493   0.952  21.260   3.596
 5509W        W70494  41.500  41.017  12.946
 5510W        W70495  29.938  19.653   2.703
 5511W        W70496  23.505   7.932  14.349
 5512W        W70497  29.973   2.889   3.318
 5513W        W70498  33.152  16.948  14.437
 5514W        W70499  40.647   3.363  14.554
 5515W        W70500  10.284   7.546  14.479
 5516W        W70501  21.153   1.852   3.667
 5517W        W70502  18.196   3.309  13.422
 5518W        W70503   9.169   4.362   3.126
 5519W        W70504   8.664  22.594   0.359
 5520W        W70505  21.877  15.029  12.504
 5521W        W70506   3.196   1.193  12.067
 5522W        W70507  17.833  36.629   1.615
 5523W        W70508   3.208  42.034   1.391
 5524W        W70509  12.325  34.830   1.251
 5525W        W70510  33.444  23.745  10.464
 5526W        W70511   4.121   7.037  12.613
 5527W        W70512  36.877  43.921  12.244
 5528W        W70513  32.584  32.504  11.316
 5529W        W70514  26.925  35.154   3.089
 5530W        W70515  37.544  34.118   2.416
 5531W        W70516   4.178  43.751   3.166
 5532W        W70517  35.664  19.290  14.715
 5533W        W70518  42.771   3.740  14.842
 5534W        W70519  10.688  41.625  13.461
 5535W        W70520  43.783  43.326   0.479
 5536W        W70521  13.399   4.287   1.458
 5537W        W70522  33.422  21.554  12.847
 5538W        W70523  25.517  33.895   1.251
 5539W        W70524  14.359  20.595  11.552
 5540W        W70525  41.475   7.282   2.109
 5541W        W70526  16.985   1.839  13.239
 5542W        W70527  12.316  21.264   1.903
 5543W        W70528   2.401  29.656  12.482
 5544W        W70529   5.667   3.893   3.651
 5545W        W70530   1.275  41.389   2.302
 5546W        W70531   0.011  42.939  13.394
 5547W        W70532   7.741  41.687   0.483
 5548W        W70533  44.291   7.938   4.483
 5549W        W70534  15.701  41.323  10.711
 5550W        W70535  32.222  31.917  10.752
 5551W        W70536  17.863  37.854   2.350
 5552W        W70537   1.464  33.598   1.369
 5553W        W70538  16.064  21.002   3.174
 5554W        W70539  16.330  17.062   1.370
 5555W        W70540   1.921  18.595   1.058
 5556W        W70541  10.504  32.956   2.876
 5557W        W70542  43.613  19.667   3.088
 5558W        W70543   0.314  22.008  10.909
 5559W        W70544  26.739  18.078   4.329
 5560W        W70545  23.080  31.921   1.657
 5561W        W70546  19.190  10.273   4.113
 5562W        W70547  13.856   9.687  13.009
 5563W        W70548  18.355  31.383   0.731
 5564W        W70549  21.944   4.770   3.333
 5565W        W70550  31.049  17.257   4.107
 5566W        W70551  25.837  22.411  12.008
 5567W        W70552  43.258  37.157  13.324
 5568W        W70553  16.670   8.918  14.969
 5569W        W70554  41.307  38.636  10.721
 5570W        W70555  11.010   9.605  13.530
 5571W        W70556   8.361  29.904  14.245
 5572W        W70557  21.516  22.533   3.163
 5573W        W70558  10.840  42.956   2.783
 5574W        W70559  39.408   0.834  12.968
 5575W        W70560  31.682  40.432  12.512
 5576W        W70561   6.848  33.123   4.128
 5577W        W70562  33.059  31.707  14.843
 5578W        W70563   0.359  39.630  14.262
 5579W        W70564  16.698  42.018   3.583
 5580W        W70565  25.048  15.773   0.299
 5581W        W70566  21.460  37.301  10.445
 5582W        W70567  26.550  41.995  13.448
 5583W        W70568  39.209   1.324   3.941
 5584W        W70569  39.776  24.261   4.092
 5585W        W70570  21.811  22.222   2.757
 5586W        W70571   3.256  42.814  13.132
 5587W        W70572  21.079   2.781  10.742
 5588W        W70573  24.508  20.266   2.683
 5589W        W70574   8.285  44.297  14.123
 5590W        W70575   3.936  14.666  10.624
 5591W        W70576   7.852   4.321  11.315
 5592W        W70577  12.408  40.967   3.670
 5593W        W70578  33.467  15.050  14.908
 5594W        W70579   9.234  28.263  11.599
 5595W        W70580  14.567   2.295  14.460
 5596W        W70581  32.144  15.986   3.273
 5597W        W70582  10.339   8.579   0.219
 5598W        W70583  10.830   7.271  12.464
 5599W        W70584  35.891  20.186   2.823
 5600W        W70585  35.383  20.074  14.187
 5601W        W70586  39.951  41.652   3.673
 5602W        W70587  43.814  43.949  11.564
 5603W        W70588  15.828  11.282   0.576
 5604W        W70589  15.358  16.304   0.894
 5605W        W70590  25.254  12.920  10.489
 5606W        W70591  34.478  33.158  13.339
 5607W        W70592  21.700  26.065   1.944
 5608W        W70593  38.850  18.364   4.850
 5609W        W70594  33.013  21.332   3.128
 5610W        W70595  41.213  25.146  14.714
 5611W        W70596  11.963   9.367  13.123
 5612W        W70597  21.672  31.583   0.875
 5613W        W70598  22.793   9.629  10.643
 5614W        W70599  32.710  29.159   1.754
 5615W        W70600  19.706  12.378  10.858
 5616W        W70601  20.202  30.825   0.813
 5617W        W70602  28.236  10.328   0.890
 5618W        W70603  11.298  29.672  12.139
 5619W        W70604  17.959   4.802  10.363
 5620W        W70605  14.657  36.364   2.839
 5621W        W70606   7.436  25.744   0.666
 5622W        W70607   9.816   3.284   1.889
 5623W        W70608  14.989  39.786  11.172
 5624W        W70609  41.492  21.277   1.761
 5625W        W70610  26.941   9.252  13.486
 5626W        W70611  27.866  30.210   4.919
 5627W        W70612  40.653   2.177  11.850
 5628W        W70613   8.155  18.555   4.357
 5629W        W70614  33.332  39.554  11.149
 5630W        W70615  31.747  11.630   3.647
 5631W        W70616  27.937   3.312  13.541
 5632W        W70617  40.058   8.696   4.181
 5633W        W70618  14.636  27.240   2.318
 5634W        W70619  11.665  13.423   3.227
 5635W        W70620  44.227  21.201  11.883
 5636W        W70621   7.915   0.210   0.421
 5637W        W70622  44.702  25.180  12.475
 5638W        W70623  20.515  39.546  14.530
 5639W        W70624  21.003  28.102   4.553
 5640W        W70625  27.004   6.324  14.890
 5641W        W70626  43.374  15.302   2.696
 5642W        W70627  33.659   7.208   0.723
 5643W        W70628   1.797  27.600  13.262
 5644W        W70629  38.946  41.978  10.041
 5645W        W70630  15.786  31.093   1.461
 5646W        W70631  37.863  28.931   0.709
 5647W        W70632  16.514   0.462   4.556
 5648W        W70633  33.193  14.772  14.045
 5649W        W70634   6.313  10.098   4.996
 5650W        W70635   6.800  33.595   1.629
 5651W        W70636   8.877  18.591  12.966
 5652W        W70637  40.987  38.530  13.268
 5653W        W70638  12.130  39.606   2.711
 5654W        W70639  20.579  33.615   4.714
 5655W        W70640  34.111  44.516  13.935
 5656W        W70641  33.919  13.133  11.654
 5657W        W70642  34.996  41.361  13.762
 5658W        W70643  24.618   7.404  11.636
 5659W        W70644  36.979  40.583   3.260
 5660W        W70645   0.958  29.761  13.277
 5661W        W70646   0.760  15.584   4.131
 5662W        W70647   5.782  10.901  14.826
 5663W        W70648  23.523  37.342  13.781
 5664W        W70649  24.109  24.180   3.233
 5665W        W70650   2.810  29.163  13.452
 5666W        W70651  29.124  27.536   4.791
 5667W        W70652  17.826  29.423   1.094
 5668W        W70653  11.700  16.596   0.022
 5669W        W70654  27.100  13.341  14.845
 5670W        W70655  19.475  41.225  11.716
 5671W        W70656  38.276  16.737  11.423
 5672W        W70657  29.678  17.142  14.436
 5673W        W70658   5.744  40.585  11.238
 5674W        W70659   1.765  16.409  11.279
 5675W        W70660  29.683  44.331   0.440
 5676W        W70661  22.393  36.836   3.027
 5677W        W70662  22.202  26.646  14.035
 5678W        W70663  16.211  44.691  13.913
 5679W        W70664  23.465  42.372   4.142
 5680W        W70665   1.450  35.561   0.898
 5681W        W70666   3.520  34.106   0.452
 5682W        W70667  23.216   5.687  11.671
 5683W        W70668  43.877  43.917  14.778
 5684W        W70669  12.279  12.139  14.484
 5685W        W70670   0.245  25.917  11.376
 5686W        W70671  39.420   0.447   1.686
 5687W        W70672  41.613   6.759  14.930
 5688W        W70673  44.368  14.768   1.465
 5689W        W70674   5.409  40.548  12.752
 5690W        W70675  28.247  12.482  14.848
 5691W        W70676   9.264  26.529   0.911
 5692W        W70677  28.403  25.613  10.687
 5693W        W70678  14.766  21.973  11.601
 5694W        W70679   6.354  20.782   1.731
 5695W        W70680  24.220  31.618  11.943
 5696W        W70681   3.400  40.851  12.887
 5697W        W70682  41.435  22.912  10.777
 5698W        W70683  38.381   7.700   1.651
 5699W        W70684  22.827  11.259   2.745
 5700W        W70685  20.158   6.646   3.237
 5701W        W70686   7.413  10.366  12.982
 5702W        W70687  34.146  22.103  12.916
 5703W        W70688  35.198   3.176   4.797
 5704W        W70689  37.470  39.016  11.013
 5705W        W70690  30.982  40.110  10.985
 5706W        W70691  28.552   0.048   3.278
 5707W        W70692  38.365  14.824   4.634
 5708W        W70693   7.128  16.027   0.312
 5709W        W70694  12.782  32.424   2.664
 5710W        W70695   2.436  10.165   1.816
 5711W        W70696  17.523  12.063  11.155
 5712W        W70697  22.964  29.013  13.015
 5713W        W70698   3.715  12.844  14.919
 5714W        W70699  11.064  39.208  11.947
 5715W        W70700   5.672  26.193   4.768
 5716W        W70701  22.323  32.199  13.893
 5717W        W70702  31.040  25.725  13.047
 5718W        W70703  11.425   3.974   2.366
 5719W        W70704  41.985   0.517  10.961
 5720W        W70705  27.131  33.922  12.085
 5721W        W70706  25.669  24.116   4.521
 5722W        W70707  20.500  43.819   4.533
 5723W        W70708  17.781   8.216  14.010
 5724W        W70709  27.917  40.899   3.760
 5725W        W70710  29.052  24.175  14.481
 5726W        W70711   3.481  43.938  11.594
 5727W        W70712  13.669   0.313   3.247
 5728W        W70713  21.786  28.545  12.012
 5729W        W70714  24.772  22.498   2.017
 5730W        W70715  32.455  41.893   3.244
 5731W        W70716  28.675  36.109   4.450
 5732W        W70717   0.904  32.321  12.619
 5733W        W70718  40.722  18.017   2.243
 5734W        W70719  12.424  43.829  12.040
 5735W        W70720  14.620  34.577   1.297
 5736W        W70721  44.462  29.509   4.147
 5737W        W70722  18.782   6.687   2.858
 5738W        W70723  42.361  25.009   1.305
 5739W        W70724   8.413  44.867   3.174
 5740W        W70725  26.920  30.412   3.290
 5741W        W70726  17.205  24.691   5.078
 5742W        W70727  11.127  35.972   3.143
 5743W        W70728   4.343  11.143   2.200
 5744W        W70729  27.552  21.177   4.685
 5745W        W70730  12.436  41.325   0.595
 5746W        W70731  31.879  27.972  14.301
 5747W        W70732  38.312  30.998   2.907
 5748W        W70733  34.009  10.156   0.699
 5749W        W70734  19.126   5.042  12.576
 5750W        W70735  16.566  39.937   1.981
 5751W        W70736  29.407  18.345   2.094
 5752W        W70737   3.558  14.351  11.554
 5753W        W70738  38.834  31.994  11.415
 5754W        W70739  31.400   8.199  10.331
 5755W        W70740   5.317  41.090   3.179
 5756W        W70741  15.210  36.018  13.864
 5757W        W70742   2.412   7.725  12.971
 5758W        W70743  20.592  37.100  10.940
 5759W        W70744  12.501  22.480   3.301
 5760W        W70745   3.690  25.034  14.326
 5761W        W70746  14.366  35.381  10.725
 5762W        W70747   9.805  28.267   2.394
 5763W        W70748  14.336  36.907  12.553
 5764W        W70749  42.504  13.785  13.442
 5765W        W70750   8.676  32.476  12.788
 5766W        W70751  15.185   0.251   3.481
 5767W        W70752  32.176  14.113  11.269
 5768W        W70753   1.432  25.657  13.986
 5769W        W70754   9.586  41.473   1.705
 5770W        W70755  25.398  13.551   4.713
 5771W        W70756  15.671  16.598   3.686
 5772W        W70757   0.719  40.324   2.640
 5773W        W70758  29.497  27.524  12.564
 5774W        W70759   8.262  10.107   2.863
 5775W        W70760  23.735   9.325  14.521
 5776W        W70761  14.864  10.236   2.361
 5777W        W70762  29.802   4.804  10.668
 5778W        W70763  14.136  20.523   1.244
 5779W        W70764   6.884  12.712  11.399
 5780W        W70765  31.088   2.898  10.173
 5781W        W70766   9.444  27.685   2.899
 5782W        W70767   6.756   0.725   1.883
 5783W        W70768  32.101  13.185   1.395
 5784W        W70769  38.154  28.406  10.774
 5785W        W70770  20.519  16.314  14.596
 5786W        W70771  10.385  19.584   3.693
 5787W        W70772  13.122  43.822  10.985
 5788W        W70773  23.490  40.019   4.925
 5789W        W70774  16.231  20.746  11.504
 5790W        W70775   6.977  32.524   3.068
 5791W        W70776  44.462  16.309   3.631
 5792W        W70777   0.955  22.796  14.989
 5793W        W70778  35.512  31.887  13.045
 5794W        W70779  15.029  41.277  13.074
 5795W        W70780  18.502   5.725   2.704
 5796W        W70781  42.093  44.678  13.477
 5797W        W70782  34.872  30.188  14.757
 5798W        W70783  41.473   0.347   1.940
 5799W        W70784  13.055  36.099   1.395
 5800W        W70785   9.912  33.469   3.269
 5801W        W70786  23.527  36.858  11.646
 5802W        W70787  27.202   0.035  14.035
 5803W        W70788   5.885  42.765   4.426
 5804W        W70789   1.695  41.481   1.611
 5805W        W70790   7.160  38.705  12.777
 5806W        W70791  30.620  31.702  12.500
 5807W        W70792  37.843   7.253   3.466
 5808W        W70793  15.297   0.555   0.739
 5809W        W70794   9.024  12.644   1.115
 5810W        W70795   4.910  38.082   1.885
 5811W        W70796  12.841  39.367   2.338
 5812W        W70797  29.755  20.129   3.282
 5813W        W70798  37.179   4.430   2.568
 5814W        W70799  41.073   1.418  13.298
 5815W        W70800  35.073  30.856   3.102
 5816W        W70801  39.446  42.363   3.281
 5817W        W70802  42.260  41.048   3.385
 5818W        W70803  28.512   6.149  10.139
 5819W        W70804  31.161  31.103   2.424
 5820W        W70805  27.698  33.819  13.341
 5821W        W70806  16.385  16.563  11.112
 5822W        W70807   2.400   7.602   1.878
 5823W        W70808  15.376  17.997  10.763
 5824W        W70809   7.585  10.191   5.054
 5825W        W70810  36.955  25.706  13.186
 5826W        W70811  22.355   9.814  14.302
 5827W        W70812   1.214   0.932   1.715
 5828W        W70813  17.455  36.823   1.912
 5829W        W70814  21.991  19.328   0.343
 5830W        W70815  36.127  21.241  14.613
 5831W        W70816  44.071  18.270  10.087
 5832W        W70817   3.781  14.480  14.750
 5833W        W70818   3.046  37.332   0.580
 5834W        W70819  39.225  44.268  14.808
 5835W        W70820   0.776   3.640   2.685
 5836W        W70821  40.495  30.622   0.971
 5837W        W70822  20.127  39.719  14.839
 5838W        W70823   0.503  30.175   2.639
 5839W        W70824  23.184   2.649   1.056
 5840W        W70825  35.031   2.934   3.564
 5841W        W70826   5.258  34.521   0.708
 5842W        W70827   8.792  33.159   2.705
 5843W        W70828   9.330  39.110  12.354
 5844W        W70829  15.998  19.993   0.772
 5845W        W70830  36.967  29.487   2.728
 5846W        W70831  33.156  42.538  11.856
 5847W        W70832  32.438  31.996   2.736
 5848W        W70833  41.719  22.556  14.540
 5849W        W70834  36.426   6.715   2.262
 5850W        W70835  27.084  27.561  12.719
 5851W        W70836  40.804  31.352   3.628
 5852W        W70837  11.824  17.219  12.019
 5853W        W70838  16.700  21.449   1.952
 5854W        W70839  27.474  10.626  11.573
 5855W        W70840  38.825  19.365  12.431
 5856W        W70841   9.240  32.754   3.730
 5857W        W70842  13.612  21.011   0.441
 5858W        W70843   2.052  32.871  14.491
 5859W        W70844  16.757  40.438   3.659
 5860W        W70845   0.851  19.779  14.916
 5861W        W70846  35.594  19.127   4.105
 5862W        W70847   2.950   5.480  12.503
 5863W        W70848  33.660   5.389  11.891
 5864W        W70849   0.417   5.302   4.125
 5865W        W70850  22.573  26.979  10.948
 5866W        W70851  11.398  42.444  12.486
 5867W        W70852  29.289   6.845   0.398
 5868W        W70853  23.687  32.954  12.159
 5869W        W70854  25.216  26.933  14.363
 5870W        W70855  25.241  17.807   2.784
 5871W        W70856  26.093  35.483   3.214
 5872W        W70857   2.428  34.030   2.790
 5873W        W70858  19.017   4.474   3.797
 5874W        W70859  17.576  23.718  12.531
 5875W        W70860   9.157  18.264   4.660
 5876W        W70861  33.871   1.458   1.922
 5877W        W70862  43.348  25.286   0.857
 5878W        W70863  25.061  12.869   3.384
 5879W        W70864  36.630  25.272   1.876
 5880W        W70865  38.060  28.585  13.025
 5881W        W70866  23.059  25.450  14.815
 5882W        W70867  29.325   7.927   4.601
 5883W        W70868   5.486  32.314  11.977
 5884W        W70869  17.246  10.829   0.335
 5885W        W70870   3.293  19.223  12.385
 5886W        W70871   5.011   2.833   4.171
 5887W        W70872   1.910   6.598  13.300
 5888W        W70873  22.305  29.902   2.747
 5889W        W70874  33.277  30.588  13.374
 5890W        W70875   1.736  16.397  13.330
 5891W        W70876  13.167  40.656   4.495
 5892W        W70877  38.575  26.122  14.950
 5893W        W70878  32.225  38.004  12.880
 5894W        W70879  14.414   3.029  11.450
 5895W        W70880  43.572  21.042  13.649
 5896W        W70881  28.475  42.183   1.227
 5897W        W70882  34.208  25.672  12.371
 5898W        W70883  23.755   9.939  14.536
 5899W        W70884  16.991  11.256  10.246
 5900W        W70885  16.737  41.517  13.475
 5901W        W70886   6.307  39.900   2.950
 5902W        W70887  29.591  41.630   2.861
 5903W        W70888  36.622  22.246   3.198
 5904W        W70889  11.513  11.867  13.730
 5905W        W70890  14.283  41.452   3.433
 5906W        W70891  33.577   4.935  14.875
 5907W        W70892  24.999  14.558  14.461
 5908W        W70893  26.699  27.985   4.638
 5909W        W70894  32.503  36.550   3.703
 5910W        W70895   2.289  31.675  12.519
 5911W        W70896  19.600  31.135  12.770
 5912W        W70897   4.558  40.715  11.154
 5913W        W70898  17.815  43.714   3.127
 5914W        W70899  41.520   1.814  10.556
 5915W        W70900   1.854  18.175  14.793
 5916W        W70901  43.519  37.605   1.049
 5917W        W70902   5.810  12.202   1.817
 5918W        W70903  23.886  32.687   2.581
 5919W        W70904  31.973  32.119   2.536
 5920W        W70905   3.737  44.289   0.984
 5921W        W70906  17.591  20.696   3.607
 5922W        W70907  35.479  37.252   0.959
 5923W        W70908  22.458   5.904  12.291
 5924W        W70909  35.564  29.708   4.639
 5925W        W70910  12.089  38.955   1.343
 5926W        W70911  10.328  20.812  11.146
 5927W        W70912  25.644  18.484   1.574
 5928W        W70913  23.618  30.139   0.879
 5929W        W70914  36.544  19.723   1.113
 5930W        W70915  41.642  13.046  12.340
 5931W        W70916  27.008  44.174  14.360
 5932W        W70917  19.085   4.303   0.249
 5933W        W70918  22.269   6.770   2.228
 5934W        W70919  22.068  27.437  12.006
 5935W        W70920   7.921  43.491   3.678
 5936W        W70921  25.911  33.766  12.335
 5937W        W70922  36.369  40.264  14.972
 5938W        W70923  31.575  24.152  11.542
 5939W        W70924  34.762   0.153  12.078
 5940W        W70925  26.187   3.555  11.645
 5941W        W70926  39.434   5.253   2.647
 5942W        W70927   4.336  27.045   3.337
 5943W        W70928  33.358  33.465  10.642
 5944W        W70929  18.081  22.017   1.351
 5945W        W70930  15.394  11.933   4.207
 5946W        W70931   0.945  15.060  14.006
 5947W        W70932  18.131  25.501  12.467
 5948W        W70933  20.025  22.598   0.346
 5949W        W70934  22.597   0.595   1.220
 5950W        W70935  26.025  42.841  12.069
 5951W        W70936  13.406  26.116  10.596
 5952W        W70937  26.044   6.238   3.782
 5953W        W70938  17.627   5.695   0.826
 5954W        W70939  23.760  25.583   1.267
 5955W        W70940  33.323   5.166  14.467
 5956W        W70941  10.777  26.934  13.302
 5957W        W70942   7.994  10.874   3.177
 5958W        W70943   6.324  29.983  10.687
 5959W        W70944  15.024  21.481   1.713
 5960W        W70945   5.175  37.372  13.328
 5961W        W70946  36.463  29.483   2.580
 5962W        W70947  15.571  31.159  14.700
 5963W        W70948  12.301  43.787  10.908
 5964W        W70949   7.666  11.196  11.166
 5965W        W70950  29.703  39.465   0.256
 5966W        W70951  28.076  34.566   0.404
 5967W        W70952   3.797  33.624   3.620
 5968W        W70953  13.252  33.206   0.803
 5969W        W70954   9.791  19.443  14.066
 5970W        W70955  37.068  32.795   0.844
 5971W        W70956   2.355  41.486   2.767
 5972W        W70957  22.867  14.836  14.357
 5973W        W70958  17.070  37.790   1.812
 5974W        W70959  15.715   6.877  14.920
 5975W        W70960  12.578  17.982  13.906
 5976W        W70961   9.322  25.206   0.425
 5977W        W70962  17.856  34.022   4.531
 5978W        W70963  15.774  31.724   3.703
 5979W        W70964  24.190  22.212   2.682
 5980W        W70965  44.766   8.843   1.683
 5981W        W70966  38.892  37.283  14.399
 5982W        W70967  12.575  28.721  11.107
 5983W        W70968  37.857   0.020   1.498
 5984W        W70969  27.673  28.501   1.491
 5985W        W70970  34.483  26.387   4.540
 5986W        W70971  29.087  34.920   0.351
 5987W        W70972  19.719   0.983   0.475
 5988W        W70973   4.978  24.606   3.751
 5989W        W70974  22.389  41.019  13.825
 5990W        W70975  37.546  13.910   4.638
 5991W        W70976  29.450  17.619   3.712
 5992W        W70977  18.603  40.266   4.803
 5993W        W70978  17.076  32.305  14.216
 5994W        W70979  30.235   8.355   3.828
 5995W        W70980  13.878  38.421  11.180
 5996W        W70981  34.596  30.186   3.436
 5997W        W70982   5.746  31.729  11.986
 5998W        W70983   7.968  26.125  13.607
 5999W        W70984   0.691  29.505  12.457
 6000W        W70985  40.994   9.216  13.003
 6001W        W70986   1.031  28.413  10.739
 6002W        W70987  21.554  37.252   0.756
 6003W        W70988  22.566  41.760  11.141
 6004W        W70989  37.761  21.265   0.865
 6005W        W70990  23.950  38.016  14.286
 6006W        W70991  33.796  39.645   3.156
 6007W        W70992  30.819  25.172   0.827
 6008W        W70993  12.648  32.582  11.207
 6009W        W70994  23.127  41.097   0.103
 6010W        W70995  13.150  37.534   3.126
 6011W        W70996  35.252  42.583  12.502
 6012W        W70997   4.994   8.999  11.517
 6013W        W70998  30.682  26.561   0.264
 6014W        W70999  25.689   1.886   0.879
 6015W        W71000  32.976  26.394   1.372
 6016W        W71001  39.320  29.930  11.911
 6017W        W71002   3.552  14.575  12.403
 6018W        W71003  35.581   3.436   1.205
 6019W        W71004  32.023  42.818  14.023
 6020W        W71005  20.530  40.641  11.991
 6021W        W71006  18.420  24.281   3.988
 6022W        W71007  17.683  37.156   1.579
 6023W        W71008  20.512  15.090   0.260
 6024W        W71009  17.584   7.177   2.406
 6025W        W71010  42.740  21.083  14.710
 6026W        W71011  11.384  24.791  13.944
 6027W        W71012  39.018   9.139   2.032
 6028W        W71013  14.735  39.865  11.608
 6029W        W71014  43.362  27.402   3.825
 6030W        W71015  21.709  26.628   4.971
 6031W        W71016  11.728  40.935  11.512
 6032W        W71017  13.704  30.372   2.792
 6033W        W71018  20.203  40.143  11.299
 6034W        W71019   0.228  30.000   3.047
 6035W        W71020  43.134   7.911   1.921
 6036W        W71021   1.407   0.418   1.577
 6037W        W71022  22.674  23.414  14.296
 6038W        W71023   3.537  33.510  12.359
 6039W        W71024  27.043  16.230   2.467
 6040W        W71025  33.462  32.918   3.790
 6041W        W71026  17.703  20.145  14.528
 6042W        W71027  23.912  35.145   3.232
 6043W        W71028   5.696  28.745   1.478
 6044W        W71029  38.945   4.833  12.514
 6045W        W71030  33.519  39.336   0.310
 6046W        W71031  36.467  23.635   1.167
 6047W        W71032  18.674  33.986  12.436
 6048W        W71033  43.880  14.945  11.521
 6049W        W71034  15.634  43.210   4.979
 6050W        W71035  18.797  35.714  14.781
 6051W        W71036   0.872  33.677  13.379
 6052W        W71037  12.777  20.745   3.566
 6053W        W71038  21.135  25.587   0.386
 6054W        W71039  22.658  41.869   2.849
 6055W        W71040  40.568   7.596  13.541
 6056W        W71041  28.411  19.290   4.316
 6057W        W71042  28.110  44.398  10.930
 6058W        W71043  28.099  40.716   0.361
 6059W        W71044   8.782  26.875   4.919
 6060W        W71045  14.791  13.682  14.698
 6061W        W71046   6.273  43.923  11.128
 6062W        W71047   0.481  12.779   2.660
 6063W        W71048  10.232  33.997   0.967
 6064W        W71049  21.034   9.298   2.095
 6065W        W71050   7.778  24.405  11.173
 6066W        W71051  10.832  37.477   4.476
 6067W        W71052  29.098  12.570  11.382
 6068W        W71053  32.660  18.644  12.550
 6069W        W71054   9.421  40.971  12.400
 6070W        W71055  12.374  43.837   2.235
 6071W        W71056  32.495  15.579  13.687
 6072W        W71057  13.192  29.596  11.154
 6073W        W71058  37.540   8.150   4.606
 6074W        W71059  10.794  39.111   2.631
 6075W        W71060   3.685  33.575   2.704
 6076W        W71061  18.732  32.578   1.733
 6077W        W71062  26.248   8.156  12.024
 6078W        W71063   2.373   6.752  11.580
 6079W        W71064   7.300   8.867  10.711
 6080W        W71065  33.128  21.080   3.559
 6081W        W71066  24.570  25.479  12.192
 6082W        W71067  34.447  30.341  14.993
 6083W        W71068  14.656   4.717  10.767
 6084W        W71069  35.840   8.170  14.771
 6085W        W71070   6.957   3.855   4.442
 6086W        W71071  22.520  34.506  12.232
 6087W        W71072  28.582  42.540  10.560
 6088W        W71073  15.086   0.566  14.961
 6089W        W71074  37.516  35.023   5.069
 6090W        W71075  19.286  15.093  11.454
 6091W        W71076  38.663  32.648  14.960
 6092W        W71077  38.839  16.290  14.788
 6093W        W71078  16.743  32.515  10.731
 6094W        W71079   4.899  21.555  14.767
 6095W        W71080  39.920  32.405   1.911
 6096W        W71081  10.459  33.443  12.760
 6097W        W71082   9.513  10.592  13.511
 6098W        W71083  28.761  42.995  12.336
 6099W        W71084  10.663  42.177   4.511
 6100W        W71085  19.310   0.665  11.078
 6101W        W71086  10.793  21.606  11.627
 6102W        W71087  24.142  20.570  10.724
 6103W        W71088  31.188  17.753   3.906
 6104W        W71089  44.204  26.647   5.076
 6105W        W71090  16.052  44.674   3.385
 6106W        W71091  42.077   1.007  10.832
 6107W        W71092  40.671  17.538   9.412
 6108W        W71093  31.508  21.572  13.990
 6109W        W71094  16.239  41.477  12.526
 6110W        W71095  35.291   6.805  13.355
 6111W        W71096   9.894  35.960   2.573
 6112W        W71097  31.042  22.108   1.571
 6113W        W71098  25.933  16.701  14.798
 6114W        W71099  27.062  25.288  13.976
 6115W        W71100   8.581  31.930  10.723
 6116W        W71101  17.786  44.375  11.558
 6117W        W71102  14.223   4.264   3.898
 6118W        W71103  26.272  27.896   3.185
 6119W        W71104  13.628   8.096   2.735
 6120W        W71105  39.831  35.363   1.617
 6121W        W71106   5.207  33.156   0.264
 6122W        W71107  37.289   2.819   0.304
 6123W        W71108  24.115   3.301  13.959
 6124W        W71109   8.966  41.252  13.751
 6125W        W71110  23.072  17.355   2.161
 6126W        W71111   9.950  25.786  11.173
 6127W        W71112  31.351  42.788  10.780
 6128W        W71113  26.096  29.406  14.747
 6129W        W71114  32.842  37.252   2.758
 6130W        W71115   1.365  23.732  14.967
 6131W        W71116   1.029  32.641  13.473
 6132W        W71117  36.551  40.614   0.334
 6133W        W71118  44.945  15.543   3.698
 6134W        W71119  34.045  21.178   2.158
 6135W        W71120  20.534   9.617   3.583
 6136W        W71121  31.410  37.359   3.295
 6137W        W71122  36.910  27.480   1.905
 6138W        W71123  43.379  27.058   4.197
 6139W        W71124  44.066  31.726   1.700
 6140W        W71125  10.817   1.069  11.891
 6141W        W71126  15.321  36.450  11.144
 6142W        W71127  42.958  43.261   1.666
 6143W        W71128  44.328  39.386   0.273
 6144W        W71129  17.610  39.777   2.571
 6145W        W71130  11.305  44.833  10.766
 6146W        W71131  44.369  29.309  12.077
 6147W        W71132  32.117  42.876   4.260
 6148W        W71133   7.255  43.338   1.267
 6149W        W71134  31.667  27.490   3.870
 6150W        W71135   0.109   0.287   1.736
 6151W        W71136  42.617  27.974  14.630
 6152W        W71137  15.304   7.207  13.139
 6153W        W71138  12.784  21.106  12.251
 6154W        W71139  16.144  35.424   2.404
 6155W        W71140  24.527  19.018  12.080
 6156W        W71141   8.682  28.519  14.554
 6157W        W71142  16.636  22.732  12.608
 6158W        W71143  35.137  30.266  14.328
 6159W        W71144  24.271  22.952  14.315
 6160W        W71145   4.938   0.834  12.496
 6161W        W71146  34.184  17.646   1.655
 6162W        W71147  15.766  39.062  11.213
 6163W        W71148  33.091  29.198   3.340
 6164W        W71149   2.239  32.083   4.626
 6165W        W71150  29.711  12.818  14.049
 6166W        W71151  17.684   5.188  11.899
 6167W        W71152  23.743  41.712   0.744
 6168W        W71153  21.682  12.226  12.467
 6169W        W71154  23.669  24.286   2.840
 6170W        W71155  32.999  29.478   4.667
 6171W        W71156  36.721   0.739   1.750
 6172W        W71157  37.847  19.544   3.002
 6173W        W71158   1.987  12.259  13.813
 6174W        W71159  19.102  26.849  13.327
 6175W        W71160  34.396  27.909   3.752
 6176W        W71161  29.737  25.926  11.202
 6177W        W71162  15.315   8.151  14.891
 6178W        W71163  44.522   3.258  11.779
 6179W        W71164   0.458  19.152  10.190
 6180W        W71165  32.929   2.492   0.475
 6181W        W71166  30.124  27.427   3.351
 6182W        W71167  26.363  32.954   0.252
 6183W        W71168  29.177  20.650  13.018
 6184W        W71169  21.517  24.274  14.926
 6185W        W71170   0.841  33.865  14.019
 6186W        W71171  29.699   2.251   2.180
 6187W        W71172  40.493   9.267   2.142
 6188W        W71173  35.939  35.567   1.804
 6189W        W71174  40.611  38.738   3.672
 6190W        W71175  36.844  43.414   1.168
 6191W        W71176  32.390  19.954   3.200
 6192W        W71177  21.877  24.234  10.781
 6193W        W71178   3.192  12.147  12.983
 6194W        W71179  15.344  25.568   4.074
 6195W        W71180  28.981   1.317  13.369
 6196W        W71181  44.250  28.283  12.962
 6197W        W71182  12.283  13.817  12.130
 6198W        W71183  20.299  24.019   0.231
 6199W        W71184  14.939  11.625  11.650
 6200W        W71185  24.800  21.735   0.521
 6201W        W71186  26.792  19.620   0.785
 6202W        W71187  14.160   7.407  12.701
 6203W        W71188   1.270  24.493  12.492
 6204W        W71189  32.578   4.683   4.362
 6205W        W71190   2.466   1.710  11.200
 6206W        W71191   0.776   7.352  14.855
 6207W        W71192   2.377  28.136  12.910
 6208W        W71193  22.630  44.835   1.541
 6209W        W71194  11.658  16.358  14.348
 6210W        W71195  42.985  21.719   3.242
 6211W        W71196  43.195  26.948  11.530
 6212W        W71197  42.942  16.433  11.987
 6213W        W71198  44.284   4.862   0.078
 6214W        W71199   4.374   5.330   9.571
 6215W        W71200  18.996   8.668  13.381
 6216W        W71201   3.263  17.245  14.519
 6217W        W71202   4.428  44.951   3.977
 6218W        W71203  33.557  23.206  12.666
 6219W        W71204   9.213  19.144   2.598
 6220W        W71205  12.104  44.561  13.453
 6221W        W71206   3.917  28.185  14.874
 6222W        W71207   1.490  37.255  12.057
 6223W        W71208   3.324  36.168  14.037
 6224W        W71209  29.266   0.342  10.667
 6225W        W71210  26.430  37.958  14.519
 6226W        W71211  39.893  39.282  13.432
 6227W        W71212  22.031   1.995  12.269
 6228W        W71213  21.858  12.858  11.979
 6229W        W71214  11.307  37.580   4.650
 6230W        W71215   5.471  41.030   1.483
 6231W        W71216  15.285  39.952  13.051
 6232W        W71217   2.722  44.713   4.087
 6233W        W71218   5.601  43.139   1.808
 6234W        W71219  34.531  26.192   0.456
 6235W        W71220  35.011  11.314  11.109
 6236W        W71221  10.198  42.798  11.858
 6237W        W71222  28.120   1.787  13.810
 6238W        W71223  19.637   6.773  11.637
 6239W        W71224  19.175  11.639  14.417
 6240W        W71225  24.729  14.196  10.602
 6241W        W71226   0.738  38.129  12.086
 6242W        W71227   3.576  39.800  14.427
 6243W        W71228  42.057  22.146  12.700
 6244W        W71229   5.987   8.618  13.505
 6245W        W71230  11.608  11.524  14.872
 6246W        W71231  36.063  44.003   3.601
 6247W        W71232   7.911  25.917   0.625
 6248W        W71233  36.037  13.186  11.176
 6249W        W71234  25.182  12.937  11.664
 6250W        W71235  22.972  41.323   4.108
 6251W        W71236  38.604  39.629   0.366
 6252W        W71237  10.713  32.056  10.490
 6253W        W71238   4.927  12.725  10.729
 6254W        W71239  24.956  32.118  13.110
 6255W        W71240  39.483  18.391  10.739
 6256W        W71241  21.650  36.328   0.248
 6257W        W71242  17.508  33.186   2.490
 6258W        W71243  21.266  17.472  14.793
 6259W        W71244  15.903  14.592   2.551
 6260W        W71245  34.404  17.962  11.057
 6261W        W71246  29.482  22.990  10.367
 6262W        W71247  39.003  35.994  12.425
 6263W        W71248  37.237  25.584  11.222
 6264W        W71249   8.648  23.547  11.748
 6265W        W71250  41.549  15.051   2.397
 6266W        W71251   4.357  18.549   1.877
 6267W        W71252  23.195  32.353  13.345
 6268W        W71253   0.789   1.920   3.203
 6269W        W71254  25.520  35.919  14.312
 6270W        W71255  28.661   6.288  11.951
 6271W        W71256  42.802  37.906  11.172
 6272W        W71257  12.145  32.585  14.955
 6273W        W71258  33.678  33.634  11.025
 6274W        W71259  38.919  43.435  10.678
 6275W        W71260  30.858   7.391  14.012
 6276W        W71261   9.672   1.167  11.100
 6277W        W71262  27.435   1.827   2.336
 6278W        W71263  40.596  35.827   0.485
 6279W        W71264  29.112  14.634   1.207
 6280W        W71265  27.443  14.296   1.282
 6281W        W71266  19.103  22.651   2.742
 6282W        W71267  27.119  20.569   3.590
 6283W        W71268  34.849   6.163   3.939
 6284W        W71269  31.548  39.929   4.082
 6285W        W71270  20.267  32.591  14.767
 6286W        W71271  33.589  33.229  14.264
 6287W        W71272  11.634  16.302   2.750
 6288W        W71273  19.055  33.148   2.407
 6289W        W71274  41.393  11.727   4.261
 6290W        W71275  11.919  39.684   2.230
 6291W        W71276   9.179  39.624   3.645
 6292W        W71277  43.865  27.171   0.732
 6293W        W71278  24.077  23.209   4.206
 6294W        W71279  21.857  39.110   4.081
 6295W        W71280  35.534  12.425  11.387
 6296W        W71281  29.581  22.105   3.695
 6297W        W71282  42.322  31.318  10.738
 6298W        W71283  23.037   6.791   4.116
 6299W        W71284   6.986   8.701  11.545
 6300W        W71285  15.901  42.980   4.093
 6301W        W71286  13.028  42.446  12.122
 6302W        W71287  39.878  16.305   1.339
 6303W        W71288  31.946  40.470  12.042
 6304W        W71289  39.998  10.685   0.352
 6305W        W71290   8.323  25.789  11.353
 6306W        W71291  36.021   2.652  14.022
 6307W        W71292  14.374  32.283  12.101
 6308W        W71293  26.661   6.922  14.943
 6309W        W71294  28.010   6.850   3.701
 6310W        W71295  23.556   2.806   1.393
 6311W        W71296  18.567  17.640  10.601
 6312W        W71297  11.733  20.527  13.995
 6313W        W71298  20.838  30.981  11.078
 6314W        W71299  40.593  24.210   4.994
 6315W        W71300  18.685   8.805   3.184
 6316W        W71301  21.578  23.775  14.771
 6317W        W71302  25.422  33.525  12.627
 6318W        W71303  42.437  43.951   2.403
 6319W        W71304   0.852  32.956  11.911
 6320W        W71305   6.414  42.893   0.400
 6321W        W71306  11.200  19.072  13.065
 6322W        W71307  10.942  19.680  11.088
 6323W        W71308  39.772  44.369   2.806
 6324W        W71309  20.260  28.715  14.246
 6325W        W71310  15.176   3.813   4.128
 6326W        W71311  39.548  43.674   2.913
 6327W        W71312   8.902  11.695   4.151
 6328W        W71313  39.677   6.456  11.112
 6329W        W71314  44.998  44.481   4.901
 6330W        W71315  19.856  20.734  12.891
 6331W        W71316  27.290  10.728   3.718
 6332W        W71317  42.069  18.776   3.716
 6333W        W71318  22.113  13.613   1.839
 6334W        W71319   5.471  32.524  11.081
 6335W        W71320  38.138   4.533   0.889
 6336W        W71321  30.096  18.034   4.132
 6337W        W71322   7.992   6.390   2.638
 6338W        W71323  18.371   5.181   3.606
 6339W        W71324   3.343   2.121   4.569
 6340W        W71325  28.892  19.108   2.905
 6341W        W71326  12.757   0.082  11.994
 6342W        W71327  23.159  19.532   0.823
 6343W        W71328  25.625  11.039  10.659
 6344W        W71329   3.844   4.720   4.727
 6345W        W71330  12.315   8.980   4.397
 6346W        W71331  34.355  43.431  11.217
 6347W        W71332  20.840  12.546   0.722
 6348W        W71333  36.080  10.728   3.712
 6349W        W71334  16.806  38.394  10.741
 6350W        W71335  12.877   2.330   0.449
 6351W        W71336  28.207  42.741  11.530
 6352W        W71337  36.506  20.764   0.376
 6353W        W71338  34.389   8.808  10.436
 6354W        W71339  20.813   3.843  13.074
 6355W        W71340   1.745  29.975  10.766
 6356W        W71341   6.230  41.240  11.990
 6357W        W71342  14.652  43.486   0.246
 6358W        W71343  31.130  30.125   1.887
 6359W        W71344   8.842  15.067  12.145
 6360W        W71345  17.212  18.895  12.064
 6361W        W71346  38.501  20.763  11.996
 6362W        W71347  12.616   2.272   3.214
 6363W        W71348  32.444  34.905   1.388
 6364W        W71349   9.885  34.914  12.970
 6365W        W71350   1.531  38.479   1.131
 6366W        W71351  44.354  36.256   3.668
 6367W        W71352  21.958  29.452  11.384
 6368W        W71353   5.870  35.456   2.346
 6369W        W71354  34.156  10.738  14.282
 6370W        W71355  23.770  18.329   1.720
 6371W        W71356  18.311  22.574  11.165
 6372W        W71357  35.648   2.452   0.025
 6373W        W71358   0.679  27.059   2.587
 6374W        W71359  27.451  33.700  14.881
 6375W        W71360  21.545  18.791  11.307
 6376W        W71361  29.476   0.907   4.642
 6377W        W71362  35.181  15.846  14.351
 6378W        W71363  26.580  15.982   2.335
 6379W        W71364   5.878  43.354   4.583
 6380W        W71365  27.300   5.899   4.052
 6381W        W71366  18.105   1.759   3.658
 6382W        W71367  28.995  37.733  11.749
 6383W        W71368  44.610   0.415  10.316
 6384W        W71369  33.438  11.689  12.458
 6385W        W71370  24.548  28.415  11.315
 6386W        W71371   3.388  21.277  10.750
 6387W        W71372  23.935  18.024   1.334
 6388W        W71373  36.675   9.786   4.103
 6389W        W71374   4.449  13.614  10.738
 6390W        W71375  42.031  31.282   2.488
 6391W        W71376  25.278  43.337  11.126
 6392W        W71377  41.238   4.337  11.476
 6393W        W71378  41.333  27.129  13.007
 6394W        W71379  17.037  44.312  10.819
 6395W        W71380  22.596  24.783   2.301
 6396W        W71381  37.805   6.313   1.145
 6397W        W71382  24.694  14.589  14.868
 6398W        W71383  36.134  26.741   0.331
 6399W        W71384  20.644  32.337   0.697
 6400W        W71385  22.668  26.138   1.852
 6401W        W71386  27.535  21.762  11.598
 6402W        W71387  38.389   8.806  13.912
 6403W        W71388  10.828  27.198   4.464
 6404W        W71389   9.611  30.196  13.970
 6405W        W71390   4.882  44.923  14.079
 6406W        W71391   1.276  28.405  12.433
 6407W        W71392   8.140  11.225   3.663
 6408W        W71393   2.495   4.852   0.769
 6409W        W71394  42.908   7.796  13.357
 6410W        W71395   1.377  18.184  12.986
 6411W        W71396   1.712   0.464   3.681
 6412W        W71397   3.149  30.700   2.411
 6413W        W71398  24.935  38.857   3.127
 6414W        W71399   6.101  25.278   1.274
 6415W        W71400   4.188   5.350  14.732
 6416W        W71401  35.196  39.357  11.173
 6417W        W71402  42.922  16.949  12.116
 6418W        W71403   9.484  15.088   0.016
 6419W        W71404  35.235  26.674  14.208
 6420W        W71405  25.881  37.175   2.442
 6421W        W71406  29.398  24.996   5.139
 6422W        W71407  21.040  10.730  11.475
 6423W        W71408   4.257   8.930  14.455
 6424W        W71409  15.849  44.752   2.323
 6425W        W71410   0.816   3.706  10.559
 6426W        W71411  38.834  15.595  13.093
 6427W        W71412  31.945  32.327   2.042
 6428W        W71413   9.931  42.455   1.931
 6429W        W71414  22.111  40.493  12.890
 6430W        W71415  35.892   1.229  12.981
 6431W        W71416   6.635  24.393  12.153
 6432W        W71417   9.715  28.448  14.650
 6433W        W71418  26.898  35.084  10.259
 6434W        W71419   9.653  40.959  14.404
 6435W        W71420  20.620  36.832  14.982
 6436W        W71421  13.593  30.445  11.693
 6437W        W71422  22.479  27.574   4.326
 6438W        W71423   7.920  42.423   4.237
 6439W        W71424  38.307  34.968  13.564
 6440W        W71425  37.290  41.615  11.555
 6441W        W71426  19.724   9.157   5.006
 6442W        W71427   7.664  11.069  11.679
 6443W        W71428  14.052  23.010  11.410
 6444W        W71429  21.186   5.497   0.812
 6445W        W71430  30.380  28.021  12.836
 6446W        W71431  16.707  28.598  12.253
 6447W        W71432  42.989  26.926   3.193
 6448W        W71433  22.421  16.181  11.977
 6449W        W71434  24.927  23.793   0.753
 6450W        W71435   4.668  40.014   0.829
 6451W        W71436   0.235  14.482  11.998
 6452W        W71437  13.358  25.049   2.922
 6453W        W71438  44.423   9.377  14.750
 6454W        W71439  33.082  41.728   1.817
 6455W        W71440  36.414  37.035   4.344
 6456W        W71441  19.644  36.656  10.755
 6457W        W71442  23.475   0.720   1.831
 6458W        W71443  24.251  20.233  12.946
 6459W        W71444   2.112   3.369  13.463
 6460W        W71445  30.413  24.520   3.537
 6461W        W71446  39.346  33.574   0.006
 6462W        W71447  43.355  10.300  13.431
 6463W        W71448  37.003  42.107   0.770
 6464W        W71449  13.452  33.277  12.306
 6465W        W71450  17.639  15.564  11.160
 6466W        W71451  35.132  37.042   4.954
 6467W        W71452  25.115  40.746  12.456
 6468W        W71453  40.725   0.867  13.850
 6469W        W71454  20.264  13.615   3.873
 6470W        W71455  40.146   9.842   1.149
 6471W        W71456  24.138   3.942   3.163
 6472W        W71457   9.136  44.311   0.743
 6473W        W71458  20.598  30.966   4.699
 6474W        W71459  41.266  19.058   0.253
 6475W        W71460   2.808  42.230  14.363
 6476W        W71461  18.958  28.501   5.017
 6477W        W71462   5.473  22.711   1.228
 6478W        W71463   4.565   8.726  13.689
 6479W        W71464  35.869   5.219  11.047
 6480W        W71465  27.378  21.075   1.312
 6481W        W71466   7.644  11.025  12.483
 6482W        W71467  28.639  18.007  13.953
 6483W        W71468  38.554  41.187  12.085
 6484W        W71469  34.711  35.506  11.444
 6485W        W71470  24.161  40.502  12.723
 6486W        W71471  36.975  10.865   2.373
 6487W        W71472  15.845   0.805   5.091
 6488W        W71473  43.364  20.811   1.245
 6489W        W71474  44.510   1.747  12.556
 6490W        W71475  34.580  15.272   2.266
 6491W        W71476  26.958  25.462  11.953
 6492W        W71477   4.728  30.662  11.052
 6493W        W71478  44.558  26.981   0.264
 6494W        W71479  22.931  19.321   1.345
 6495W        W71480  18.062  41.403   1.902
 6496W        W71481   2.821  31.511  12.560
 6497W        W71482  17.746  20.854   0.816
 6498W        W71483  33.381  16.114  14.074
 6499W        W71484  25.139  40.839   1.748
 6500W        W71485  24.431  43.753  11.130
 6501W        W71486   4.193  23.736  13.913
 6502W        W71487  28.785  38.997  10.700
 6503W        W71488   1.708  32.010   1.335
 6504W        W71489  33.662  22.196  11.453
 6505W        W71490  33.020  43.290  13.670
 6506W        W71491  42.902  17.573  12.052
 6507W        W71492  39.033  35.446   2.775
 6508W        W71493  22.401  19.681  10.146
 6509W        W71494  42.084  39.509  13.200
 6510W        W71495  38.390   1.967   2.559
 6511W        W71496  33.465  40.576  12.566
 6512W        W71497  22.185  17.822   4.127
 6513W        W71498  12.313  26.256  11.999
 6514W        W71499  27.985  19.700   4.922
 6515W        W71500  38.974  43.393  12.347
 6516W        W71501  20.681  24.505  11.081
 6517W        W71502  19.865  20.687  11.114
 6518W        W71503  28.405  38.486   3.764
 6519W        W71504   6.639  28.759  14.432
 6520W        W71505  29.589  43.168   2.738
 6521W        W71506  40.746  37.376  12.784
 6522W        W71507  24.725  17.806  10.780
 6523W        W71508  28.113  37.247   2.659
 6524W        W71509  35.536  29.584   1.791
 6525W        W71510  11.883  16.152   2.319
 6526W        W71511  23.410  17.731   3.492
 6527W        W71512  31.466   6.616   0.680
 6528W        W71513   6.547  41.612  12.397
 6529W        W71514  28.107  26.950   2.634
 6530W        W71515  18.722  13.592  11.913
 6531W        W71516  37.728  17.563  13.632
 6532W        W71517  36.998  15.102   4.026
 6533W        W71518  20.927  36.410  14.860
 6534W        W71519  33.123  25.592  11.011
 6535W        W71520   9.302   2.137  14.325
 6536W        W71521  25.332   2.279   0.847
 6537W        W71522   7.302  32.685  10.964
 6538W        W71523  37.797  13.824   1.976
 6539W        W71524  20.141  24.510   2.842
 6540W        W71525  36.909  40.076   3.295
 6541W        W71526  44.810  22.020   0.788
 6542W        W71527  33.719   1.232  13.685
 6543W        W71528  24.276  41.806   0.740
 6544W        W71529   6.415  34.179   0.496
 6545W        W71530   6.921   6.892  13.422
 6546W        W71531  27.614  26.495   2.370
 6547W        W71532  36.863  41.395   3.398
 6548W        W71533  44.990  41.301   0.488
 6549W        W71534  18.310  30.548   3.697
 6550W        W71535  22.086  14.073  13.547
 6551W        W71536  20.571  16.222  13.078
 6552W        W71537  38.404   1.591  10.944
 6553W        W71538  33.658   7.146   3.106
 6554W        W71539  44.369   3.380  12.680
 6555W        W71540   0.501  19.361  12.563
 6556W        W71541  26.882  15.246  10.673
 6557W        W71542  10.820  30.602   3.178
 6558W        W71543  13.603  27.622  14.768
 6559W        W71544   9.241  34.408  11.753
 6560W        W71545   7.284   0.214   0.750
 6561W        W71546  21.965  32.711   5.187
 6562W        W71547  11.190  12.556  12.034
 6563W        W71548   4.788  12.876   5.110
 6564W        W71549  39.513  31.359  13.350
 6565W        W71550  10.208  27.472  10.497
 6566W        W71551  16.166  14.333   4.800
 6567W        W71552  13.288  27.295   4.985
 6568W        W71553   4.270  16.392   2.869
 6569W        W71554  25.104  28.248  13.979
 6570W        W71555  41.021  39.571   4.688
 6571W        W71556  25.860  32.197   3.552
 6572W        W71557  18.552   2.783   0.191
 6573W        W71558  34.438   9.330   4.043
 6574W        W71559  22.176  43.405   0.925
 6575W        W71560  18.325  43.418   1.034
 6576W        W71561  42.888  29.505   0.830
 6577W        W71562  16.942  21.166   1.315
 6578W        W71563   7.067   5.281   3.834
 6579W        W71564   0.383  40.324  13.917
 6580W        W71565   3.501  23.503  11.620
 6581W        W71566  28.192   5.755  10.259
 6582W        W71567  13.806   2.340   2.702
 6583W        W71568  10.139  44.489   3.785
 6584W        W71569  36.122   1.208  14.211
 6585W        W71570  10.223   0.792  13.864
 6586W        W71571  42.568   0.384  13.931
 6587W        W71572  40.507  36.872  14.438
 6588W        W71573  16.297  31.551   0.311
 6589W        W71574  41.396  44.772  14.770
 6590W        W71575  28.144  25.308  11.517
 6591W        W71576  23.794  28.737  13.442
 6592W        W71577  11.285  19.642  14.248
 6593W        W71578  39.045  22.247   1.252
 6594W        W71579  28.678   7.972  12.560
 6595W        W71580  28.079   0.391   2.354
 6596W        W71581  33.574   9.845  14.497
 6597W        W71582  30.501   9.426  11.021
 6598W        W71583  10.786  18.720  12.083
 6599W        W71584  43.907  43.912   3.534
 6600W        W71585   4.537   8.420  11.026
 6601W        W71586  20.205  21.198   2.281
 6602W        W71587  13.312  41.019   3.360
 6603W        W71588   6.378  21.563   1.405
 6604W        W71589  20.202  13.564   4.407
 6605W        W71590  10.084  38.949  11.939
 6606W        W71591   0.342   3.246  14.977
 6607W        W71592   0.952  20.857   4.796
 6608W        W71593  39.430   5.073   4.051
 6609W        W71594  19.739   4.935  11.515
 6610W        W71595  30.997  35.056   3.746
 6611W        W71596   0.481  30.953  14.410
 6612W        W71597   7.731   4.674   1.183
 6613W        W71598  38.296  43.996   2.612
 6614W        W71599   0.984  35.968  10.897
 6615W        W71600  38.630  19.024   2.919
 6616W        W71601   9.761  33.353  11.950
 6617W        W71602  12.851  43.312   4.659
 6618W        W71603  23.024  19.344   0.214
 6619W        W71604   7.222   3.953   2.670
 6620W        W71605  39.140  21.249   4.640
 6621W        W71606  18.000  37.982   3.456
 6622W        W71607  39.990  25.533  13.972
 6623W        W71608   9.017  30.874  12.914
 6624W        W71609   4.642  33.886  11.619
 6625W        W71610  40.252  44.847  13.237
 6626W        W71611  35.780  12.776  10.976
 6627W        W71612   4.426  19.026  14.945
 6628W        W71613  17.434  36.948   3.772
 6629W        W71614   0.985  20.239   0.713
 6630W        W71615  38.806  35.947   1.822
 6631W        W71616  13.219  36.858  10.540
 6632W        W71617   6.188  28.492  14.541
 6633W        W71618   7.303  15.375   0.486
 6634W        W71619   0.660  25.957  11.717
 6635W        W71620  28.955   2.889   3.627
 6636W        W71621  24.438  23.971   1.786
 6637W        W71622  41.451  22.713   2.618
 6638W        W71623  44.343  31.533   3.120
 6639W        W71624  31.690   8.454   2.782
 6640W        W71625   5.383  35.953   4.134
 6641W        W71626   9.580  20.591  13.544
 6642W        W71627  10.805   2.964   1.772
 6643W        W71628  35.823  39.780   2.197
 6644W        W71629  25.590  18.822  14.939
 6645W        W71630   2.278   1.175   5.097
 6646W        W71631  39.354  12.082  14.233
 6647W        W71632  33.076  21.860   3.010
 6648W        W71633  19.715  12.237  10.360
 6649W        W71634  15.243  18.585   2.378
 6650W        W71635   5.375  20.637  13.964
 6651W        W71636  36.619  44.686  14.012
 6652W        W71637   8.055  16.823   3.288
 6653W        W71638  18.986   3.865   0.477
 6654W        W71639  24.631  33.944   1.831
 6655W        W71640  35.954  27.851   2.966
 6656W        W71641   3.879  35.603  11.548
 6657W        W71642  34.291  25.269   3.515
 6658W        W71643  42.547   1.714   1.935
 6659W        W71644   9.241  44.394   4.558
 6660W        W71645  10.542  35.478   1.669
 6661W        W71646  40.779   0.930   3.343
 6662W        W71647   6.693  19.761  14.732
 6663W        W71648  31.936  38.980   1.091
 6664W        W71649  44.901  44.301  10.667
 6665W        W71650  34.464  30.594   2.656
 6666W        W71651  11.330   1.210  14.477
 6667W        W71652   4.293  43.734   2.654
 6668W        W71653  34.117  33.880   2.266
 6669W        W71654  42.837  18.945  13.585
 6670W        W71655   4.753   7.386  13.623
 6671W        W71656  13.520  24.704  10.539
 6672W        W71657  25.896  42.834  13.024
 6673W        W71658  10.219  27.070  11.617
 6674W        W71659  14.898  13.117  12.128
 6675W        W71660   3.178  24.479   1.332
 6676W        W71661  31.929  38.247   3.759
 6677W        W71662  30.062  39.058  14.359
 6678W        W71663  38.349  14.194  12.220
 6679W        W71664  30.623   8.679   3.727
 6680W        W71665  23.082  44.034   1.823
 6681W        W71666  23.729  34.476   4.582
 6682W        W71667  10.954   0.793  11.097
 6683W        W71668  13.080  31.219   1.791
 6684W        W71669   2.017  13.687  10.984
 6685W        W71670  40.997   0.541  11.282
 6686W        W71671  15.048  39.439  11.555
 6687W        W71672   8.221  33.884  11.221
 6688W        W71673  35.616  36.598  12.001
 6689W        W71674  16.341  15.280   3.068
 6690W        W71675   5.349   3.841   3.225
 6691W        W71676  26.565   2.813  13.155
 6692W        W71677  38.366   3.080   4.305
 6693W        W71678  16.584  37.589  13.929
 6694W        W71679  31.407  20.390   4.043
 6695W        W71680   4.318   8.440   0.279
 6696W        W71681  44.228  24.907   2.759
 6697W        W71682  18.743  10.922  12.902
 6698W        W71683  18.690  40.331   0.993
 6699W        W71684   6.908   3.950  10.338
 6700W        W71685  31.810   4.967  11.923
 6701W        W71686  22.393   9.628   3.551
 6702W        W71687  25.029  25.575  12.489
 6703W        W71688   9.351  32.949   0.773
 6704W        W71689  35.002  33.418  11.194
 6705W        W71690  28.393   0.257   4.211
 6706W        W71691  15.294  34.046  10.847
 6707W        W71692   4.632  36.603   2.248
 6708W        W71693   4.758  36.579  13.035
 6709W        W71694  32.067  18.542   4.975
 6710W        W71695  28.496  22.984  10.524
 6711W        W71696   8.664  19.655   2.680
 6712W        W71697  10.295  20.676  12.986
 6713W        W71698  15.254  21.660   3.058
 6714W        W71699  16.775  26.311   2.505
 6715W        W71700  29.482   1.627   0.940
 6716W        W71701  37.440  38.498  10.995
 6717W        W71702  23.667  26.522  13.904
 6718W        W71703  18.107   1.799   0.035
 6719W        W71704  41.540  36.163  14.866
 6720W        W71705  38.932  28.988  12.824
 6721W        W71706  38.950  15.722  13.604
 6722W        W71707   6.303  28.649   9.920
 6723W        W71708  32.843  29.917  13.812
 6724W        W71709   0.756  40.834  13.972
 6725W        W71710  14.856  33.374  11.109
 6726W        W71711  28.124  26.067  13.443
 6727W        W71712  11.146  20.249  10.831
 6728W        W71713  19.705  32.630  14.473
 6729W        W71714   6.114  39.918   4.629
 6730W        W71715  39.513  28.961  10.623
 6731W        W71716  21.165  37.618   4.609
 6732W        W71717  14.849   0.379   1.505
 6733W        W71718  34.521  21.800   1.902
 6734W        W71719  32.662  44.872   3.270
 6735W        W71720  43.377  20.929  12.607
 6736W        W71721  22.760  13.329   1.758
 6737W        W71722  36.813  31.474  12.895
 6738W        W71723  40.301  35.536  13.819
 6739W        W71724  33.880   2.236  13.463
 6740W        W71725  40.434  17.323   2.701
 6741W        W71726  30.555  12.742   0.522
 6742W        W71727  29.956  26.958  11.645
 6743W        W71728  31.871  24.084  10.679
 6744W        W71729  37.090  13.878  13.546
 6745W        W71730  20.031  15.072   1.217
 6746W        W71731  44.505  31.393   2.630
 6747W        W71732  12.744   8.734   1.265
 6748W        W71733   6.709   7.372  12.466
 6749W        W71734  23.191   5.906  14.353
 6750W        W71735  20.204  25.073   4.495
 6751W        W71736  23.758  34.891  13.927
 6752W        W71737   1.892  29.045   2.853
 6753W        W71738  37.051  41.624   2.276
 6754W        W71739   6.477  10.102  12.931
 6755W        W71740  13.126  31.410   2.565
 6756W        W71741  14.917  14.698   3.926
 6757W        W71742  15.893  20.640   5.686
 6758W        W71743  19.317   9.880   1.466
 6759W        W71744  34.179   6.653  12.362
 6760W        W71745  24.548  25.641  12.710
 6761W        W71746  34.459  42.408  12.064
 6762W        W71747  16.266  10.469   2.868
 6763W        W71748  33.922  11.334   0.308
 6764W        W71749  11.204  29.565  14.607
 6765W        W71750  20.992  25.711  11.094
 6766W        W71751  34.888   9.455   0.683
 6767W        W71752   0.183  37.391  14.619
 6768W        W71753  42.803   6.382   4.573
 6769W        W71754  30.613  20.073   4.663
 6770W        W71755  22.601  34.103   4.223
 6771W        W71756  25.998  35.993   3.393
 6772W        W71757  40.792  19.701   2.720
 6773W        W71758  22.995  19.004   1.758
 6774W        W71759  30.674  32.478  11.354
 6775W        W71760  14.326   2.355   1.241
 6776W        W71761   5.887  33.055   0.032
 6777W        W71762   7.008  18.134   2.701
 6778W        W71763   1.953  15.041  12.348
 6779W        W71764   8.324  20.888  11.985
 6780W        W71765  27.458  36.624   2.965
 6781W        W71766   0.279   8.170  11.960
 6782W        W71767  17.469  42.007   2.209
 6783W        W71768  31.597  35.987   1.706
 6784W        W71769  27.516   8.659   3.361
 6785W        W71770  12.126   3.233   0.124
 6786W        W71771  15.511   1.780   0.580
 6787W        W71772  33.064   4.843  14.815
 6788W        W71773  23.558   0.035  11.139
 6789W        W71774   6.852  38.157  13.927
 6790W        W71775  33.698  24.118  11.727
 6791W        W71776  21.346  32.121   3.677
 6792W        W71777   0.784  37.977   1.247
 6793W        W71778  20.997  11.173  12.951
 6794W        W71779  34.134   6.547   0.919
 6795W        W71780  30.353  42.892  14.478
 6796W        W71781  43.460  25.029   3.228
 6797W        W71782  41.923   4.916   3.657
 6798W        W71783  43.672   7.962  14.778
 6799W        W71784  19.062  27.579  13.773
 6800W        W71785  10.488  20.549   3.637
 6801W        W71786  12.334  24.267  13.989
 6802W        W71787  44.206  16.906  10.168
 6803W        W71788   1.025  27.098  11.707
 6804W        W71789  12.233  28.518   4.174
 6805W        W71790  13.760  28.623  13.920
 6806W        W71791  15.933  11.235  11.159
 6807W        W71792   4.803  23.245  13.828
 6808W        W71793  30.449  26.678  13.533
 6809W        W71794   6.253  38.762  12.523
 6810W        W71795  34.259  19.313   4.107
 6811W        W71796  36.918  30.577   0.881
 6812W        W71797  36.045  38.241  11.206
 6813W        W71798  40.804  21.404   1.800
 6814W        W71799  35.020  26.892  11.561
 6815W        W71800   2.152   1.989   4.126
 6816W        W71801   4.254  35.141  10.260
 6817W        W71802  34.202  35.185   3.288
 6818W        W71803   3.058  21.812  11.088
 6819W        W71804  15.620  35.887   3.748
 6820W        W71805  26.503  35.903  13.375
 6821W        W71806  27.281  28.497  11.199
 6822W        W71807   6.267  39.444   0.448
 6823W        W71808   7.416  18.547   3.089
 6824W        W71809  34.587  30.445  13.438
 6825W        W71810  34.067  25.436   4.731
 6826W        W71811  20.616  29.663  10.636
 6827W        W71812   7.530   2.658   4.158
 6828W        W71813   2.400  40.307   0.884
 6829W        W71814  23.822  17.682  10.459
 6830W        W71815  41.843  30.864   1.252
 6831W        W71816   1.578  28.816  12.482
 6832W        W71817  15.701  15.713  14.845
 6833W        W71818   5.820  38.520  13.108
 6834W        W71819   1.402  39.079  14.034
 6835W        W71820  30.681   0.283   4.612
 6836W        W71821  12.888   3.259  11.680
 6837W        W71822  22.430   6.287   2.429
 6838W        W71823  14.699   2.531  10.698
 6839W        W71824   9.367  19.247  12.430
 6840W        W71825  18.703  30.890  12.830
 6841W        W71826  14.774  33.389   0.442
 6842W        W71827  13.802  29.422   2.408
 6843W        W71828  31.541   4.039   4.145
 6844W        W71829  22.533  17.949  11.441
 6845W        W71830   9.507  14.325   4.945
 6846W        W71831   0.446   5.919  10.786
 6847W        W71832  19.243  26.226  12.850
 6848W        W71833  18.185  42.667   3.894
 6849W        W71834  31.605   9.321   2.712
 6850W        W71835  38.886   2.978   1.737
 6851W        W71836  20.355  16.843   4.378
 6852W        W71837  44.889   9.164  11.600
 6853W        W71838  26.250  28.395  11.099
 6854W        W71839   3.362   9.353   2.655
 6855W        W71840   4.854  23.124  13.309
 6856W        W71841  18.587   1.005   2.313
 6857W        W71842  21.284  10.362  13.996
 6858W        W71843  14.144  13.740  14.394
 6859W        W71844  41.412   3.571  14.948
 6860W        W71845  14.328  28.649  13.227
 6861W        W71846  33.193  25.883   1.969
 6862W        W71847  18.625   2.531   2.368
 6863W        W71848  26.811   7.089   4.156
 6864W        W71849   1.817   6.445  14.726
 6865W        W71850  27.566  11.136   0.940
 6866W        W71851  24.452   1.836  12.407
 6867W        W71852  29.039  27.055  11.652
 6868W        W71853  11.906   0.492  14.530
 6869W        W71854  33.695  30.587   2.717
 6870W        W71855  11.546  44.100   3.263
 6871W        W71856   5.887  13.819  10.500
 6872W        W71857  36.083  13.048  14.903
 6873W        W71858  38.323   2.281   0.181
 6874W        W71859  13.618  27.131  12.397
 6875W        W71860  40.241  16.205  13.469
 6876W        W71861  39.152   7.211   1.591
 6877W        W71862  15.305  38.473   4.960
 6878W        W71863  14.122  11.932   2.721
 6879W        W71864  17.623  15.383   2.564
 6880W        W71865  28.881  15.755   1.078
 6881W        W71866  27.722  44.101  11.087
 6882W        W71867  43.692  29.974   3.344
 6883W        W71868  39.086  14.288  14.447
 6884W        W71869  27.978  31.098  14.416
 6885W        W71870  31.046  12.390   4.566
 6886W        W71871   6.892  26.310  10.598
 6887W        W71872  24.132  12.728   3.867
 6888W        W71873  36.321  34.116  10.494
 6889W        W71874  36.846   8.786   4.611
 6890W        W71875  10.211  33.983   4.346
 6891W        W71876  15.573   6.273   2.166
 6892W        W71877  39.369   6.414  14.193
 6893W        W71878  11.660  18.681  14.504
 6894W        W71879  32.961   3.781   0.924
 6895W        W71880  23.900   3.632   0.462
 6896W        W71881  24.556   9.630  10.723
 6897W        W71882  39.235  30.408   1.898
 6898W        W71883  30.488  29.381  11.858
 6899W        W71884   7.191  42.495   4.646
 6900W        W71885   2.703  23.938  11.657
 6901W        W71886  39.859  13.834   3.675
 6902W        W71887  37.991  15.832   1.391
 6903W        W71888   8.355  17.641  14.057
 6904W        W71889  16.183  40.522  11.711
 6905W        W71890  11.264   7.808   1.778
 6906W        W71891  29.853  44.027   2.537
 6907W        W71892  41.476  36.119   2.152
 6908W        W71893  25.838  29.062   0.521
 6909W        W71894  34.536  34.862   4.232
 6910W        W71895  14.720   5.266   0.154
 6911W        W71896   4.276   0.890   4.314
 6912W        W71897   1.597  24.502   2.199
 6913W        W71898  35.976  15.373  10.873
 6914W        W71899  35.155  37.312   3.622
 6915W        W71900  19.015  35.646  13.519
 6916W        W71901  10.444  26.932   1.357
 6917W        W71902   6.374  31.984   4.071
 6918W        W71903  26.041   7.920  12.462
 6919W        W71904  36.148  32.588   3.754
 6920W        W71905  11.150   1.285   4.743
 6921W        W71906  29.979  24.308   3.754
 6922W        W71907  12.637  22.060  12.363
 6923W        W71908  17.537  21.252  13.608
 6924W        W71909  29.615  37.368   2.707
 6925W        W71910  36.006   2.017   4.020
 6926W        W71911   1.749  17.678   3.672
 6927W        W71912   2.896  24.147   1.001
 6928W        W71913  19.677  12.842   4.157
 6929W        W71914  34.790  31.096   0.422
 6930W        W71915  13.132  36.638   4.040
 6931W        W71916  36.358  24.664   3.724
 6932W        W71917  33.677  10.896  12.799
 6933W        W71918   9.914   9.326  13.248
 6934W        W71919  37.442  28.686  11.138
 6935W        W71920  15.143  13.371   3.145
 6936W        W71921  20.253  32.928   4.489
 6937W        W71922  43.546   5.720  13.387
 6938W        W71923  24.481  31.359  13.385
 6939W        W71924  24.021  42.931   1.212
 6940W        W71925  37.457  23.562  12.521
 6941W        W71926  34.477  37.566  10.387
 6942W        W71927   9.010  41.195   0.507
 6943W        W71928  15.508  38.899  13.570
 6944W        W71929  25.116   8.118   4.638
 6945W        W71930  35.911  14.388   3.251
 6946W        W71931  40.589  24.590   4.045
 6947W        W71932   4.386  41.019   2.115
 6948W        W71933  29.464  34.120   3.646
 6949W        W71934  39.982  30.663   4.578
 6950W        W71935  26.027  14.170  13.930
 6951W        W71936  18.257  10.347  14.836
 6952W        W71937  30.639  43.597  13.499
 6953W        W71938  19.891   3.350  14.741
 6954W        W71939  13.218  16.618  10.419
 6955W        W71940  12.147  20.091  10.761
 6956W        W71941  28.827  11.768   1.281
 6957W        W71942  27.664  15.160  11.041
 6958W        W71943  38.446  24.275   4.147
 6959W        W71944   8.874  11.755   3.630
 6960W        W71945  41.845  33.671  10.731
 6961W        W71946  24.973  12.236   0.640
 6962W        W71947  27.650  20.783   3.753
 6963W        W71948  28.424  16.982  11.128
 6964W        W71949  26.399  20.257  13.576
 6965W        W71950  17.068  24.559   2.914
 6966W        W71951  22.784  32.814   2.197
 6967W        W71952  19.035  31.084   2.310
 6968W        W71953  28.343  18.603   0.879
 6969W        W71954   4.851  16.814   3.885
 6970W        W71955  37.010  23.998   1.844
 6971W        W71956  27.094  23.971   4.750
 6972W        W71957  18.355  38.494   1.321
 6973W        W71958   2.734  13.638   4.500
 6974W        W71959   8.006  17.974   2.802
 6975W        W71960  20.143   6.904   1.723
 6976W        W71961  19.101  10.342   2.831
 6977W        W71962  35.033  11.809  10.936
 6978W        W71963  43.428   5.351   0.158
 6979W        W71964  19.698  34.145   3.128
 6980W        W71965  41.489  17.745   0.076
 6981W        W71966   8.492  37.049   0.822
 6982W        W71967  43.523  36.078   3.282
 6983W        W71968  28.019  12.185   1.659
 6984W        W71969  23.429  19.189   1.435
 6985W        W71970  31.234   8.122  11.465
 6986W        W71971  36.315  20.223  12.911
 6987W        W71972  15.083  11.394   1.897
 6988W        W71973  16.387  23.172  11.919
 6989W        W71974  41.320  35.205   2.454
 6990W        W71975  44.025   2.223   0.322
 6991W        W71976  44.764   4.381  12.092
 6992W        W71977   6.659   9.652   9.744
 6993W        W71978  37.320  39.473   1.327
 6994W        W71979  19.144  38.357  14.063
 6995W        W71980  22.731  11.758   2.801
 6996W        W71981  40.852   4.367   0.112
 6997W        W71982  18.143  44.321  11.179
 6998W        W71983  23.138  28.707  12.648
 6999W        W71984   1.891   9.952  11.097
 7000W        W71985   1.964  42.003   1.814
 7001W        W71986  44.421  43.740  13.488
 7002W        W71987  23.240   7.913   1.465
 7003W        W71988  37.834  36.897   5.048
 7004W        W71989  29.423  31.016   3.741
 7005W        W71990  39.444  36.843   1.430
 7006W        W71991  36.934  42.723   4.638
 7007W        W71992  42.069  22.479  11.098
 7008W        W71993   5.760  36.656   1.301
 7009W        W71994  22.141  29.393  13.930
 7010W        W71995  41.267  21.188   2.222
 7011W        W71996  14.724  30.632   1.354
 7012W        W71997  14.368  30.689   4.213
 7013W        W71998  16.160  35.960   4.250
 7014W        W71999   1.835  33.690  14.958
 7015W        W72000  37.787  32.363   4.800
 7016W        W72001  24.030   4.550   4.932
 7017W        W72002  22.582  34.370  10.948
 7018W        W72003  22.272   6.315  12.039
 7019W        W72004  38.307   2.324  13.742
 7020W        W72005  27.011   7.774   3.337
 7021W        W72006  10.320   4.430   0.266
 7022W        W72007   2.655  31.700  11.195
 7023W        W72008  34.635  35.966   1.422
 7024W        W72009   1.540  23.976   4.422
 7025W        W72010  21.316  31.335  11.143
 7026W        W72011   2.974  32.107  12.904
 7027W        W72012  21.705   4.441  13.116
 7028W        W72013   9.289  23.231  13.411
 7029W        W72014  32.088  39.547   4.630
 7030W        W72015  30.067  36.835  13.788
 7031W        W72016  27.608  31.109  12.026
 7032W        W72017  12.679  26.688   3.676
 7033W        W72018  26.694   4.374  12.035
 7034W        W72019  35.283  28.554   4.040
 7035W        W72020  35.491  11.544   0.863
 7036W        W72021   4.458  26.507   1.198
 7037W        W72022  16.262   9.471  10.896
 7038W        W72023  27.996  10.648  13.060
 7039W        W72024  29.644   3.023  10.136
 7040W        W72025   0.386  28.555  12.512
 7041W        W72026  12.770  11.681  13.803
 7042W        W72027  12.903  22.672   1.915
 7043W        W72028  12.864  35.149   2.235
 7044W        W72029  38.649  25.117   9.893
 7045W        W72030  21.123  27.155  11.200
 7046W        W72031  44.480  25.869  11.188
 7047W        W72032  28.726  28.421   4.590
 7048W        W72033  23.988  36.060   0.737
 7049W        W72034   0.939   4.785  10.661
 7050W        W72035  38.573  37.280  13.972
 7051W        W72036  34.464  29.704   4.628
 7052W        W72037  33.092  44.137  11.155
 7053W        W72038  19.530  12.255   4.900
 7054W        W72039  30.515  30.883  12.865
 7055W        W72040   6.730  28.866   3.557
 7056W        W72041  24.180  44.007  11.564
 7057W        W72042  23.630  41.559   1.267
 7058W        W72043  27.498   0.946  13.358
 7059W        W72044  16.450  30.423   2.339
 7060W        W72045  42.157  39.573   0.361
 7061W        W72046   2.817  19.754   0.920
 7062W        W72047  25.354   7.543   3.124
 7063W        W72048  24.075  19.481  10.633
 7064W        W72049  15.140  19.087   2.520
 7065W        W72050  30.684  20.112   3.625
 7066W        W72051  12.773  12.276  10.528
 7067W        W72052  13.716  37.357   0.951
 7068W        W72053   4.780  15.317   0.530
 7069W        W72054  44.194  12.785   1.019
 7070W        W72055  43.849   6.357  13.243
 7071W        W72056  27.110  24.040  13.447
 7072W        W72057  40.442  31.232  14.673
 7073W        W72058   1.891  20.726  11.906
 7074W        W72059  41.378  42.752   2.720
 7075W        W72060  27.104  18.825   3.511
 7076W        W72061  39.259  24.549  10.348
 7077W        W72062  20.776  23.550  11.276
 7078W        W72063   4.292  42.825   2.073
 7079W        W72064  22.713  23.658  13.420
 7080W        W72065  34.805  23.167   0.822
 7081W        W72066  35.913  19.581   0.708
 7082W        W72067  25.690  39.317  14.794
 7083W        W72068  22.036   1.436   1.614
 7084W        W72069   4.286  34.553  13.423
 7085W        W72070  32.997   5.421  13.533
 7086W        W72071  24.772  11.935   3.676
 7087W        W72072  38.981  22.682   3.141
 7088W        W72073   3.314  30.896   0.763
 7089W        W72074  40.379  12.779  12.553
 7090W        W72075  15.652   1.039  13.988
 7091W        W72076  10.908  24.759   2.815
 7092W        W72077   8.276  38.422   4.872
 7093W        W72078   8.070  41.830  11.917
 7094W        W72079  20.864  18.790   2.360
 7095W        W72080  21.438  19.092  14.000
 7096W        W72081  27.728   1.884   1.855
 7097W        W72082   5.455  14.317   4.136
 7098W        W72083  11.156  13.579   3.238
 7099W        W72084  29.998  11.763   2.754
 7100W        W72085   4.143  27.640   2.100
 7101W        W72086  29.323  42.354   0.487
 7102W        W72087   8.877  33.572   2.291
 7103W        W72088   9.571  21.742  12.166
 7104W        W72089  36.179   2.869  10.765
 7105W        W72090  10.008   5.880   4.544
 7106W        W72091   9.372  41.809  10.962
 7107W        W72092   2.299  33.006   2.436
 7108W        W72093   7.565   9.332  10.730
 7109W        W72094  22.118  36.345   4.807
 7110W        W72095  14.177  34.310  10.512
 7111W        W72096  20.247  11.184   4.284
 7112W        W72097  28.374  31.962  11.595
 7113W        W72098  11.684  33.951   0.352
 7114W        W72099  32.756  41.320   1.740
 7115W        W72100  24.767  32.916   2.801
 7116W        W72101   6.465   7.868  13.790
 7117W        W72102  22.867  28.405   1.193
 7118W        W72103  44.543  39.612  14.830
 7119W        W72104  37.560  40.574  13.512
 7120W        W72105  12.104  38.822  11.615
 7121W        W72106   0.296  38.488   1.873
 7122W        W72107  16.165  29.101   4.081
 7123W        W72108  28.153  10.692   3.469
 7124W        W72109  31.901   0.789  13.787
 7125W        W72110   5.409  33.034  14.805
 7126W        W72111   8.190  31.140  12.631
 7127W        W72112  25.161  32.534   1.327
 7128W        W72113  21.661  10.715   3.768
 7129W        W72114   4.880  44.748   3.806
 7130W        W72115  31.938   2.965  11.213
 7131W        W72116  43.184   5.292  14.250
 7132W        W72117  29.499   3.474  13.814
 7133W        W72118   4.428  37.471   2.464
 7134W        W72119  28.418  43.167   1.503
 7135W        W72120   1.914  10.943  11.347
 7136W        W72121   0.749  36.739  11.141
 7137W        W72122  34.017  10.860  13.414
 7138W        W72123  24.871  10.027  14.399
 7139W        W72124  13.559  24.326  11.591
 7140W        W72125   6.395  31.878  11.279
 7141W        W72126  32.977  11.437  12.893
 7142W        W72127  33.552   5.966   0.683
 7143W        W72128  33.356  33.424   3.678
 7144W        W72129  26.653  32.134   5.402
 7145W        W72130  44.336   6.224   1.594
 7146W        W72131  16.445  23.218  12.762
 7147W        W72132  15.884  12.606  14.889
 7148W        W72133  35.293  27.528  12.020
 7149W        W72134  12.170   6.061   2.788
 7150W        W72135  18.120  42.267  11.284
 7151W        W72136   9.823  25.183   4.174
 7152W        W72137  13.154   6.349   2.945
 7153W        W72138   7.354   3.879   3.152
 7154W        W72139   6.061  31.696  14.796
 7155W        W72140  24.669  18.706   4.246
 7156W        W72141  16.316   1.095  11.552
 7157W        W72142  40.897  38.989   1.333
 7158W        W72143  33.016  19.057  14.229
 7159W        W72144   9.395  35.003  11.001
 7160W        W72145  15.206  25.261  14.352
 7161W        W72146  39.259  39.465   1.475
 7162W        W72147  31.390   2.858   3.832
 7163W        W72148  37.763  28.496  13.456
 7164W        W72149  44.755  25.428   4.401
 7165W        W72150  21.691  24.638  10.517
 7166W        W72151  17.057   5.423  14.540
 7167W        W72152  44.257  25.136   0.889
 7168W        W72153  10.563   8.778  11.866
 7169W        W72154   3.868  40.805  12.601
 7170W        W72155  10.306  43.520   4.788
 7171W        W72156  24.421  24.062  12.968
 7172W        W72157   4.280  33.068  12.999
 7173W        W72158  23.724   8.355  13.539
 7174W        W72159  17.909  14.688  11.132
 7175W        W72160   0.761   5.230  12.006
 7176W        W72161  12.235   7.392   3.114
 7177W        W72162  23.584  34.153   0.805
 7178W        W72163   8.841   3.328   2.239
 7179W        W72164   2.968   3.001  12.518
 7180W        W72165  30.612   1.882   0.265
 7181W        W72166  17.158  43.355   0.200
 7182W        W72167  33.844   0.686   1.336
 7183W        W72168  39.869  34.860  13.931
 7184W        W72169   0.836  10.535   2.341
 7185W        W72170  24.444  37.800  11.172
 7186W        W72171  20.035  29.918  12.171
 7187W        W72172  39.371  25.938  14.449
 7188W        W72173  10.079   8.004  13.508
 7189W        W72174  25.742   1.722   1.376
 7190W        W72175  26.964  24.214   1.127
 7191W        W72176   5.382   6.899  14.108
 7192W        W72177  36.053  34.376  13.388
 7193W        W72178   3.395   4.747  10.706
 7194W        W72179  17.046   1.782   3.208
 7195W        W72180  22.712  19.240  12.405
 7196W        W72181  21.913   8.411  13.367
 7197W        W72182   5.246  41.340  13.292
 7198W        W72183  33.860  12.804  13.433
 7199W        W72184  28.007  43.405   0.783
 7200W        W72185  26.864   1.484   0.893
 7201W        W72186  44.790   4.616   0.261
 7202W        W72187   6.465  16.968  12.128
 7203W        W72188   5.500  39.544  14.860
 7204W        W72189   7.475   9.410   2.683
 7205W        W72190  21.159   3.702  13.913
 7206W        W72191  44.490  33.651   0.667
 7207W        W72192   7.876  22.232  12.126
 7208W        W72193  12.655  41.508  11.994
 7209W        W72194  25.066  14.977   0.817
 7210W        W72195   7.862  22.738   1.359
 7211W        W72196  20.640  26.087  12.902
 7212W        W72197  24.850  31.960  12.629
 7213W        W72198   0.211  28.886   0.867
 7214W        W72199  28.900  22.676   4.330
 7215W        W72200  38.903   1.468  10.554
 7216W        W72201   8.161  15.414   1.936
 7217W        W72202   1.302  16.233  12.045
 7218W        W72203  22.353   4.419   4.229
 7219W        W72204  33.707  29.715   1.306
 7220W        W72205  22.970   6.828   1.183
 7221W        W72206  21.986  20.100   3.575
 7222W        W72207  36.840   7.158   0.304
 7223W        W72208  44.298  27.916  11.261
 7224W        W72209  31.990  20.282   3.162
 7225W        W72210  26.682  16.617   0.246
 7226W        W72211  14.569  40.182  10.318
 7227W        W72212  13.926  42.862   1.099
 7228W        W72213  30.903  36.091  12.684
 7229W        W72214  11.851  41.459   2.924
 7230W        W72215  31.616  31.435   1.294
 7231W        W72216  38.298  27.134  12.934
 7232W        W72217  42.125  40.564   0.344
 7233W        W72218  40.284   9.784   2.119
 7234W        W72219   3.158  23.130   4.122
 7235W        W72220  42.021  19.845   3.717
 7236W        W72221  27.770  37.609   2.746
 7237W        W72222  34.337  18.857   2.120
 7238W        W72223  24.443  24.985   4.799
 7239W        W72224  27.997  23.992   2.220
 7240W        W72225  14.228  35.306   2.319
 7241W        W72226  13.233   5.106  14.195
 7242W        W72227  22.576  12.541   1.252
 7243W        W72228  30.968  14.341   0.859
 7244W        W72229  30.571  29.638  12.551
 7245W        W72230   7.739  14.747   1.785
 7246W        W72231  22.919  36.853  12.614
 7247W        W72232  32.080   8.268  13.078
 7248W        W72233   6.350  21.033   1.276
 7249W        W72234  14.926  27.474  13.489
 7250W        W72235  26.390   8.724  13.905
 7251W        W72236  42.379  21.551   3.662
 7252W        W72237  43.188   8.002  10.839
 7253W        W72238  29.920  27.545  13.324
 7254W        W72239  11.710   3.940   1.915
 7255W        W72240  17.031   0.515   1.036
 7256W        W72241   0.786  24.055   2.228
 7257W        W72242  28.670  19.555  11.586
 7258W        W72243  23.137   6.040   2.930
 7259W        W72244   9.861  24.262   2.801
 7260W        W72245  26.957  13.806   3.852
 7261W        W72246  33.978  30.001   3.096
 7262W        W72247  21.677  27.855   2.549
 7263W        W72248  41.326   8.684   1.333
 7264W        W72249  19.745  18.926   2.709
 7265W        W72250   9.098  18.111  12.131
 7266W        W72251  28.446  32.638   4.161
 7267W        W72252  17.069  23.542  12.527
 7268W        W72253   7.639  37.871  11.558
 7269W        W72254  16.068  25.414   4.608
 7270W        W72255  24.115   0.008  13.910
 7271W        W72256   7.266  34.863  12.523
 7272W        W72257  35.873  36.602  13.942
 7273W        W72258   1.672  18.059   4.458
 7274W        W72259  15.665  31.231  11.683
 7275W        W72260  42.007  23.840   3.976
 7276W        W72261   8.660  29.294   1.726
 7277W        W72262   5.924  28.426   0.554
 7278W        W72263  10.785  44.654  12.102
 7279W        W72264  33.413  30.413   4.745
 7280W        W72265  29.201  23.169  14.406
 7281W        W72266  16.625  11.712   3.496
 7282W        W72267  26.300   9.814   2.725
 7283W        W72268   1.889  26.604   4.664
 7284W        W72269   2.956   9.307  13.901
 7285W        W72270   9.938  23.904   0.443
 7286W        W72271   5.013  11.576  13.161
 7287W        W72272   2.868   7.207  13.492
 7288W        W72273  31.616  14.685  14.297
 7289W        W72274  32.388  40.559  13.860
 7290W        W72275  42.468  36.364   2.060
 7291W        W72276  23.583  13.154  12.588
 7292W        W72277  42.875  32.175   3.637
 7293W        W72278  11.469  10.471   2.305
 7294W        W72279  44.944  23.403  14.763
 7295W        W72280   9.409  35.914  11.103
 7296W        W72281  28.739  15.103   3.241
 7297W        W72282   9.864  36.297   2.197
 7298W        W72283  28.112  30.622   0.659
 7299W        W72284  27.075  37.695  11.790
 7300W        W72285  22.496  41.499  13.043
 7301W        W72286  11.061   3.856   0.444
 7302W        W72287  15.657  36.481  14.307
 7303W        W72288  26.159   9.180  12.846
 7304W        W72289   1.233  14.222  14.057
 7305W        W72290  41.125  23.771  10.822
 7306W        W72291   3.490  12.754   3.662
 7307W        W72292  41.221  37.595  13.615
 7308W        W72293  34.327  32.617  12.457
 7309W        W72294  40.885  12.424  10.357
 7310W        W72295  32.886   7.322  13.421
 7311W        W72296  42.831   4.988  13.499
 7312W        W72297  43.334   2.485   2.893
 7313W        W72298  17.033  40.301   3.234
 7314W        W72299  24.792  36.897   4.162
 7315W        W72300  25.635  18.301   1.096
 7316W        W72301   7.700  11.589  11.514
 7317W        W72302  42.492   3.382   4.923
 7318W        W72303  18.148  44.029   4.278
 7319W        W72304  41.642  36.634   4.495
 7320W        W72305   8.443  24.070  11.953
 7321W        W72306  38.578  18.705  13.802
 7322W        W72307   6.364   4.812   0.943
 7323W        W72308  13.812  26.458  14.714
 7324W        W72309  24.616  27.135   2.317
 7325W        W72310  44.984  22.770  11.090
 7326W        W72311   7.276  12.230  12.053
 7327W        W72312  31.661   8.580  13.024
 7328W        W72313  10.878  36.921   0.474
 7329W        W72314  14.495  41.625  14.104
 7330W        W72315  15.301  36.532  10.634
 7331W        W72316  27.300  41.937   2.816
 7332W        W72317  14.469   2.297  11.099
 7333W        W72318  44.035  15.578  14.412
 7334W        W72319   5.184  21.123  11.668
 7335W        W72320  41.540  14.500   5.176
 7336W        W72321  23.953  40.324   3.351
 7337W        W72322  41.456  20.957   2.665
 7338W        W72323   2.109  30.793  13.427
 7339W        W72324  11.622  26.195   1.251
 7340W        W72325  29.141  13.320   3.847
 7341W        W72326  38.642  20.686   1.746
 7342W        W72327  35.495  14.083  14.361
 7343W        W72328   7.753  24.260  13.454
 7344W        W72329  32.432  24.515  10.798
 7345W        W72330  33.915  38.093  12.442
 7346W        W72331  11.117  17.107   2.376
 7347W        W72332  13.047  21.524  10.747
 7348W        W72333  38.912   9.645   0.661
 7349W        W72334  31.627  43.050  11.168
 7350W        W72335  14.346   0.803   3.578
 7351W        W72336  26.428   0.515   2.433
 7352W        W72337  36.064   0.055  11.318
 7353W        W72338  43.535   9.807   4.624
 7354W        W72339  14.098  23.958  11.671
 7355W        W72340   9.271  14.169  13.031
 7356W        W72341   5.410  23.255  11.568
 7357W        W72342  21.637  13.749   0.125
 7358W        W72343  42.732  35.776  13.083
 7359W        W72344  16.687  10.343   4.626
 7360W        W72345  25.200  32.422  14.941
 7361W        W72346  17.936   5.018   9.886
 7362W        W72347  29.949  39.798  10.738
 7363W        W72348  24.557  40.616   1.276
 7364W        W72349  22.127  24.638   2.484
 7365W        W72350  35.453  43.333  13.147
 7366W        W72351  19.934  39.831  12.715
 7367W        W72352  14.378  29.393  13.469
 7368W        W72353  26.726  29.622  10.507
 7369W        W72354  38.489  20.750  14.323
 7370W        W72355  33.651  26.008  12.186
 7371W        W72356  29.065  12.282   4.161
 7372W        W72357  33.118  17.239  10.669
 7373W        W72358  38.873  34.060  14.797
 7374W        W72359  36.954  23.314  12.547
 7375W        W72360  26.455  29.372   3.749
 7376W        W72361  17.157  40.705   1.955
 7377W        W72362  31.620   0.868  14.806
 7378W        W72363   5.179  30.410  13.778
 7379W        W72364  24.083  33.141   2.355
 7380W        W72365   2.421  40.405   3.144
 7381W        W72366  12.789  10.719  14.956
 7382W        W72367  29.264   0.054   2.205
 7383W        W72368  20.865   0.230  11.478
 7384W        W72369  44.336   2.369  13.943
 7385W        W72370  25.827  34.474  10.975
 7386W        W72371  31.557  16.696  14.497
 7387W        W72372  20.159  44.051  11.305
 7388W        W72373  35.288   7.225   1.468
 7389W        W72374  18.141   3.504   2.752
 7390W        W72375   4.438  20.635   3.212
 7391W        W72376  17.221  11.547   4.080
 7392W        W72377  10.337  23.710   2.894
 7393W        W72378  29.312  36.327   4.978
 7394W        W72379  35.478  32.503   4.882
 7395W        W72380  34.845   5.962  10.575
 7396W        W72381   9.713  42.032  10.608
 7397W        W72382   9.839  10.119   0.913
 7398W        W72383   8.314  19.053  13.435
 7399W        W72384  10.805  11.700   2.385
 7400W        W72385   3.271  12.208   1.714
 7401W        W72386  43.178  21.215   5.155
 7402W        W72387  35.958  12.213   3.336
 7403W        W72388  22.666   0.211   4.559
 7404W        W72389  37.937   3.681   4.737
 7405W        W72390   0.497  36.586   1.933
 7406W        W72391  44.751  24.556   4.583
 7407W        W72392   8.294  11.403   3.199
 7408W        W72393  38.480  19.065   1.559
 7409W        W72394   8.085  25.917   3.248
 7410W        W72395  28.646  32.152   4.096
 7411W        W72396   1.713  22.873   4.234
 7412W        W72397   4.426   4.521   0.315
 7413W        W72398  41.020  28.652   0.320
 7414W        W72399  17.084   9.189   0.147
 7415W        W72400   7.870  22.005   1.528
 7416W        W72401  19.321   4.761  11.234
 7417W        W72402   7.171  34.417  12.077
 7418W        W72403  39.371  39.740  10.795
 7419W        W72404  38.963  28.615   3.585
 7420W        W72405  42.493  41.837   3.885
 7421W        W72406  28.952  23.440  13.394
 7422W        W72407  32.771  29.705  12.055
 7423W        W72408   0.138  19.142  14.490
 7424W        W72409   9.798  29.251  11.087
 7425W        W72410  43.358   0.740  12.092
 7426W        W72411  10.141  23.449  11.687
 7427W        W72412  20.790  28.809   0.222
 7428W        W72413   8.935  18.981   3.312
 7429W        W72414  33.120  34.195   3.050
 7430W        W72415  16.869  15.390   2.215
 7431W        W72416  41.740  22.507   0.832
 7432W        W72417  19.224  24.814  14.476
 7433W        W72418  33.877  43.919  14.637
 7434W        W72419  43.811  11.034  12.542
 7435W        W72420  35.792   4.409  11.483
 7436W        W72421  43.540  21.574  11.275
 7437W        W72422  25.411  13.199   0.794
 7438W        W72423  22.562   1.285   4.626
 7439W        W72424  37.802  37.085  13.912
 7440W        W72425   8.490   1.687  11.563
 7441W        W72426   8.467  30.400  14.294
 7442W        W72427   4.841   2.912  14.825
 7443W        W72428  21.886   4.052  10.551
 7444W        W72429  11.252  42.712  14.443
 7445W        W72430  26.024  19.957   1.016
 7446W        W72431   6.898  19.767  11.246
 7447W        W72432  31.618  27.897  14.785
 7448W        W72433  23.654  17.443  11.122
 7449W        W72434  41.557  36.423  11.219
 7450W        W72435  19.244  12.646  10.834
 7451W        W72436  44.361  44.823   1.300
 7452W        W72437  21.527  43.961   4.126
 7453W        W72438  26.727  24.777  13.482
 7454W        W72439  33.475  30.847   5.042
 7455W        W72440  38.068  38.528  10.484
 7456W        W72441  12.656   4.771   1.115
 7457W        W72442  41.088  44.721   1.387
 7458W        W72443  40.933  44.207   0.079
 7459W        W72444  33.513  15.269   1.215
 7460W        W72445  15.322  13.558  10.837
 7461W        W72446   8.391  41.459  10.626
 7462W        W72447  19.832   9.891   2.273
 7463W        W72448  25.607  36.524   0.721
 7464W        W72449  36.434  19.496   4.933
 7465W        W72450  25.830  11.587  14.892
 7466W        W72451  14.472   5.362   5.304
 7467W        W72452  27.169  11.640   0.192
 7468W        W72453   7.137   0.699   4.726
 7469W        W72454  13.954  20.946  13.316
 7470W        W72455  26.364   8.708  12.895
 7471W        W72456  29.477  27.001  10.424
 7472W        W72457   4.197  25.646  13.099
 7473W        W72458  21.529   5.377  11.861
 7474W        W72459  41.039   7.642   1.925
 7475W        W72460  14.396  41.837  11.657
 7476W        W72461  22.103  41.061   1.761
 7477W        W72462  25.701   8.269   3.194
 7478W        W72463   7.930  43.946  14.331
 7479W        W72464  23.506  17.381   4.765
 7480W        W72465  13.708   6.576   0.280
 7481W        W72466  37.757  35.809   1.832
 7482W        W72467  33.984  20.188  13.579
 7483W        W72468  14.608   6.868   0.304
 7484W        W72469  19.809   7.321   3.869
 7485W        W72470  12.351  17.119  11.967
 7486W        W72471  14.769  18.489   0.672
 7487W        W72472  28.586  14.309   3.557
 7488W        W72473  31.067   0.684   0.423
 7489W        W72474  22.628  38.328  13.117
 7490W        W72475  37.988  25.346  11.567
 7491W        W72476  13.408   9.448  14.407
 7492W        W72477  20.539  30.789   3.868
 7493W        W72478   3.896  42.893  10.547
 7494W        W72479  27.436   7.723  10.718
 7495W        W72480  26.382  41.130   2.216
 7496W        W72481  29.567   2.240  11.561
 7497W        W72482  26.081  10.406   3.333
 7498W        W72483  27.113   1.226   2.246
 7499W        W72484   0.349  31.191  14.862
 7500W        W72485  11.249  22.594   3.685
 7501W        W72486  13.860  34.138   1.957
 7502W        W72487  23.958  40.641  11.392
 7503W        W72488  24.575  15.535  14.564
 7504W        W72489  31.235  17.524  14.965
 7505W        W72490  26.105  35.015   2.221
 7506W        W72491  11.110  19.031   1.098
 7507W        W72492  25.174  44.869  11.803
 7508W        W72493  24.165  38.997   0.474
 7509W        W72494   5.408  12.714   1.059
 7510W        W72495  13.667  17.278  10.792
 7511W        W72496  17.666  23.042   2.356
 7512W        W72497  13.669   4.954   1.321
 7513W        W72498  26.902  27.599   4.076
 7514W        W72499  27.447  21.249   1.824
 7515W        W72500  24.312  25.242   0.829
 7516W        W72501  12.142   1.046  14.902
 7517W        W72502  28.420  30.038   2.174
 7518W        W72503  26.886  20.508  13.482
 7519W        W72504  40.519  36.544   2.702
 7520W        W72505  20.771  21.570  12.953
 7521W        W72506  26.729  33.646   1.317
 7522W        W72507  16.178  41.521  10.680
 7523W        W72508  30.364  23.574  11.608
 7524W        W72509   3.671  16.248  10.822
 7525W        W72510  32.966  24.998  13.830
 7526W        W72511  13.725   7.375  13.739
 7527W        W72512  34.301  15.152  13.491
 7528W        W72513  26.916  31.475  13.390
 7529W        W72514   5.175  19.749   2.684
 7530W        W72515  35.184  44.538   3.612
 7531W        W72516  16.066  28.221   3.029
 7532W        W72517   7.872   3.229   1.820
 7533W        W72518   1.078  32.437   2.730
 7534W        W72519   0.231  32.586   0.885
 7535W        W72520  24.489  32.349   1.887
 7536W        W72521  33.613  40.538   4.091
 7537W        W72522  21.397  24.435  14.440
 7538W        W72523  37.344  32.943  11.618
 7539W        W72524  11.858  27.044   1.815
 7540W        W72525  26.493   8.385   0.057
 7541W        W72526  41.681  39.699  14.006
 7542W        W72527  39.278  29.515   2.317
 7543W        W72528  15.677   3.003   1.309
 7544W        W72529   9.443  17.665   2.634
 7545W        W72530  12.256  28.898  12.675
 7546W        W72531  30.175  38.470  11.138
 7547W        W72532  15.181  14.241   3.789
 7548W        W72533  38.374   2.353  11.404
 7549W        W72534  36.899  20.557   2.178
 7550W        W72535  28.473   8.881  10.641
 7551W        W72536  21.800  31.961   1.186
 7552W        W72537   2.465  38.832   4.191
 7553W        W72538  27.591  42.852   0.841
 7554W        W72539  42.745  31.380   4.168
 7555W        W72540  44.523  17.066   4.116
 7556W        W72541   7.306   8.698   0.794
 7557W        W72542  43.945   1.437   1.109
 7558W        W72543  44.216  15.760   2.404
 7559W        W72544  20.513  41.444  11.640
 7560W        W72545  12.097   0.301   2.328
 7561W        W72546   9.752  38.124  12.944
 7562W        W72547   0.130  37.075   4.981
 7563W        W72548  18.470  10.150   0.276
 7564W        W72549  43.418  43.514   0.848
 7565W        W72550  33.520  39.296  13.950
 7566W        W72551  15.276  24.101   0.279
 7567W        W72552  29.473  14.785  14.895
 7568W        W72553  22.036  15.163   4.174
 7569W        W72554  35.108  20.144  10.682
 7570W        W72555  24.064  17.578   3.315
 7571W        W72556   3.871   5.069  11.968
 7572W        W72557  11.289   7.319   3.477
 7573W        W72558  39.075  41.265  12.764
 7574W        W72559  16.665  27.260   2.640
 7575W        W72560  42.540  19.996   3.721
 7576W        W72561  37.883  21.372  14.947
 7577W        W72562  30.565  17.501   2.152
 7578W        W72563   3.074  10.380  12.692
 7579W        W72564   2.365   4.823   3.239
 7580W        W72565   9.595  38.887   1.286
 7581W        W72566   7.604  20.231   3.284
 7582W        W72567  17.622  22.116   2.775
 7583W        W72568  29.487   3.457   4.145
 7584W        W72569   6.178  28.911  12.891
 7585W        W72570  39.241  27.558   1.756
 7586W        W72571  17.926  16.666   4.488
 7587W        W72572   0.983  28.854   2.421
 7588W        W72573  34.824  28.226  11.259
 7589W        W72574  19.528  35.524   1.305
 7590W        W72575  34.826  10.765  13.976
 7591W        W72576  43.193   4.646   1.937
 7592W        W72577  29.765  44.303   1.852
 7593W        W72578  10.125  39.014   1.040
 7594W        W72579   7.818  26.336  10.737
 7595W        W72580  25.026  35.927   2.820
 7596W        W72581  43.122  39.990   4.543
 7597W        W72582  13.708  30.639  13.069
 7598W        W72583   7.586  27.322   0.238
 7599W        W72584  33.431  31.690   0.395
 7600W        W72585   3.590   7.159  12.705
 7601W        W72586  44.050  28.513   4.302
 7602W        W72587   3.213  29.389   2.606
 7603W        W72588  13.809  15.363  12.070
 7604W        W72589   6.793  13.035   4.031
 7605W        W72590  16.287  10.942  12.590
 7606W        W72591  10.793  18.149   3.897
 7607W        W72592  12.015  10.165  13.074
 7608W        W72593  18.740  26.966  11.020
 7609W        W72594  16.033   4.215   3.270
 7610W        W72595  28.056  14.032  10.645
 7611W        W72596  23.591  36.968   0.656
 7612W        W72597  11.328  30.568   3.228
 7613W        W72598  22.172   2.527   3.357
 7614W        W72599  13.566  25.039  13.341
 7615W        W72600  28.902  32.085  12.864
 7616W        W72601  39.041  38.967  12.772
 7617W        W72602   8.293  44.841  14.309
 7618W        W72603  38.129   5.186   4.424
 7619W        W72604  25.059  34.146   4.498
 7620W        W72605   0.096  19.753   1.791
 7621W        W72606  19.371  10.643   1.348
 7622W        W72607  31.891  15.109  11.932
 7623W        W72608  24.449  13.622  14.251
 7624W        W72609  33.609  17.159  10.801
 7625W        W72610  42.666  30.023   0.872
 7626W        W72611  26.425  23.236   3.813
 7627W        W72612  27.196  12.890  13.563
 7628W        W72613  19.652  12.079   1.245
 7629W        W72614  39.872   8.963   0.961
 7630W        W72615  18.564  39.347   4.250
 7631W        W72616  25.650   6.956  13.929
 7632W        W72617  16.567   0.005  13.283
 7633W        W72618  11.228  18.055   0.806
 7634W        W72619  16.932   9.830  11.383
 7635W        W72620  25.982  29.917  10.326
 7636W        W72621  35.838   4.774  14.144
 7637W        W72622  40.427  33.038  13.573
 7638W        W72623  22.822  12.667   3.092
 7639W        W72624  38.782  23.124  12.113
 7640W        W72625  23.372  28.415  13.569
 7641W        W72626  19.926  35.049   1.750
 7642W        W72627  12.326  33.602   0.885
 7643W        W72628   0.076  24.220  13.839
 7644W        W72629   3.241  16.140   0.506
 7645W        W72630  30.925   7.515   1.916
 7646W        W72631  41.010   9.251   3.504
 7647W        W72632  21.154  36.505   2.880
 7648W        W72633  35.795  20.776   3.830
 7649W        W72634  30.017  18.818   0.858
 7650W        W72635   2.264  34.853  13.530
 7651W        W72636  43.356   2.964   1.440
 7652W        W72637  32.613  35.128   3.387
 7653W        W72638   5.103  13.315  13.936
 7654W        W72639  29.459  40.092  14.419
 7655W        W72640  16.786  21.733   2.411
 7656W        W72641  13.732  25.706  11.743
 7657W        W72642  40.234   3.610   1.878
 7658W        W72643  43.877   1.251  12.020
 7659W        W72644  29.435  34.492   2.478
 7660W        W72645  32.520  19.031  14.317
 7661W        W72646  21.666   2.756   2.338
 7662W        W72647  33.561  31.854   4.149
 7663W        W72648  27.660  17.144  13.047
 7664W        W72649  43.896   3.039  11.124
 7665W        W72650  14.480  38.030   4.495
 7666W        W72651  31.023  10.170   3.109
 7667W        W72652   1.868  20.765  12.890
 7668W        W72653  18.067  42.459  11.735
 7669W        W72654  38.063  40.539   4.067
 7670W        W72655  29.658  23.737   4.064
 7671W        W72656  35.340  27.809   0.873
 7672W        W72657  23.155  35.167   1.716
 7673W        W72658  24.130  29.077  11.168
 7674W        W72659  39.450  42.880   0.085
 7675W        W72660  43.270  18.461   2.832
 7676W        W72661  17.102  13.541  14.150
 7677W        W72662  16.298   3.754  13.800
 7678W        W72663  41.918  24.765   2.925
 7679W        W72664   6.677  34.905  12.836
 7680W        W72665  32.916  44.365  10.710
 7681W        W72666  36.500   2.634  11.592
 7682W        W72667  36.977   3.697  11.211
 7683W        W72668  35.864   1.911   3.228
 7684W        W72669  39.727   6.373   2.861
 7685W        W72670  18.192   0.423  13.773
 7686W        W72671  10.165  25.888  14.566
 7687W        W72672  28.699  17.572  11.453
 7688W        W72673  29.106   8.354   3.834
 7689W        W72674  27.624  32.654   3.638
 7690W        W72675  32.855  18.396  12.011
 7691W        W72676  43.793  34.566   2.852
 7692W        W72677  21.758  43.556   2.403
 7693W        W72678  18.884  23.678  10.437
 7694W        W72679  40.424  14.836  11.538
 7695W        W72680  18.591  44.578   2.099
 7696W        W72681  39.735   9.306   3.193
 7697W        W72682  33.890  21.640  14.994
 7698W        W72683  24.249   5.144   1.988
 7699W        W72684  44.394   1.389   3.022
 7700W        W72685  39.065   2.291  13.009
 7701W        W72686  13.244  44.441   0.860
 7702W        W72687  41.790  22.684  11.537
 7703W        W72688  39.959  16.324   0.246
 7704W        W72689  29.984  43.822  10.883
 7705W        W72690   3.690  21.716   0.459
 7706W        W72691  27.097   5.155   0.658
 7707W        W72692  22.694  29.688  13.546
 7708W        W72693  21.094  29.221   1.521
 7709W        W72694  37.344  40.106   1.202
 7710W        W72695  16.738  22.432  14.779
 7711W        W72696   9.474  28.633   0.652
 7712W        W72697  36.588  33.616   4.764
 7713W        W72698  11.647  12.141   1.891
 7714W        W72699  35.953   5.449   2.313
 7715W        W72700  39.889  25.675   2.791
 7716W        W72701  14.473  39.705  11.085
 7717W        W72702  11.428   1.927  13.165
 7718W        W72703  10.544  22.992  13.545
 7719W        W72704   4.063  44.023  12.986
 7720W        W72705   9.332  21.803   0.470
 7721W        W72706  19.361  33.360  14.010
 7722W        W72707  20.006  23.537   0.257
 7723W        W72708  16.543  42.480   3.836
 7724W        W72709   5.198  21.482   0.454
 7725W        W72710   3.189  33.560   2.810
 7726W        W72711  36.130  32.561  13.893
 7727W        W72712   0.691  13.192   0.544
 7728W        W72713  30.980  12.439   0.951
 7729W        W72714   0.315  18.594   2.803
 7730W        W72715   2.992  24.112  11.248
 7731W        W72716  44.308  34.197  14.314
 7732W        W72717  38.596  25.026  12.143
 7733W        W72718  44.305  31.809  14.783
 7734W        W72719   6.767  12.295  12.213
 7735W        W72720  42.464  25.865   0.833
 7736W        W72721  38.779  17.674   1.728
 7737W        W72722   5.541  17.124   1.540
 7738W        W72723  35.141  38.514  14.488
 7739W        W72724   9.196  14.226  14.903
 7740W        W72725  42.503  29.545   2.941
 7741W        W72726   4.789  39.683   4.990
 7742W        W72727  18.913  15.104  11.921
 7743W        W72728  26.427  35.126   3.023
 7744W        W72729  22.247  28.170  12.709
 7745W        W72730  43.957   9.412  14.981
 7746W        W72731  11.668  16.809  14.061
 7747W        W72732  34.861  27.844  13.999
 7748W        W72733  42.595  26.431  12.547
 7749W        W72734  31.440  23.079  12.545
 7750W        W72735  27.200  29.180  12.379
 7751W        W72736  20.972  35.997   2.732
 7752W        W72737  35.107  16.565  14.323
 7753W        W72738   2.314  41.784   3.907
 7754W        W72739  44.007  10.437   0.072
 7755W        W72740  32.355  16.139   2.819
 7756W        W72741  43.493  32.900   3.496
 7757W        W72742  26.897  25.739   3.248
 7758W        W72743  40.998  10.695   1.776
 7759W        W72744   4.682  12.678   0.303
 7760W        W72745  41.603  42.175   3.552
 7761W        W72746   8.738  12.296  11.895
 7762W        W72747  41.106  20.955   3.687
 7763W        W72748   9.784  20.452  12.682
 7764W        W72749  44.202   0.137   5.057
 7765W        W72750   3.317   1.885   2.327
 7766W        W72751   7.670  28.601  14.394
 7767W        W72752  26.113  11.622   1.240
 7768W        W72753  12.009   4.223   3.146
 7769W        W72754  41.992  22.099  13.860
 7770W        W72755  41.412  29.479  13.410
 7771W        W72756   5.757   3.827   2.690
 7772W        W72757  11.898  44.017  10.677
 7773W        W72758  19.654   6.708   1.324
 7774W        W72759  27.211  22.698   2.123
 7775W        W72760  39.993  17.915  11.997
 7776W        W72761   2.334  26.806   1.829
 7777W        W72762  28.119  22.622  11.119
 7778W        W72763  35.530  33.352  12.982
 7779W        W72764  25.933  44.461  14.512
 7780W        W72765  11.427  43.581   3.206
 7781W        W72766  14.787  29.147   1.204
 7782W        W72767  38.649  43.918  11.399
 7783W        W72768  22.011  28.872  10.721
 7784W        W72769   4.690  16.254  13.016
 7785W        W72770  12.369  25.922   4.575
 7786W        W72771  22.370  29.429   3.719
 7787W        W72772  37.793  21.956  14.308
 7788W        W72773  29.922   8.212   3.272
 7789W        W72774  18.616  25.101   3.121
 7790W        W72775  36.017  11.628   2.617
 7791W        W72776  42.349  24.201  12.151
 7792W        W72777  23.081  29.047  10.950
 7793W        W72778  10.690  33.644  11.741
 7794W        W72779  23.020  38.522   3.754
 7795W        W72780  12.197  42.145   4.015
 7796W        W72781  21.041   1.079  14.952
 7797W        W72782  14.666  36.833   0.077
 7798W        W72783  17.071  31.836   1.422
 7799W        W72784  19.929   5.288   2.534
 7800W        W72785  39.938  23.716  12.421
 7801W        W72786  29.065  42.300  10.774
 7802W        W72787  28.023  22.382  12.108
 7803W        W72788   3.496  35.039   3.162
 7804W        W72789  36.367  44.535   1.378
 7805W        W72790  13.797  36.579   2.002
 7806W        W72791   7.875   1.168   1.378
 7807W        W72792  22.122  38.130   4.108
 7808W        W72793  27.395  36.233   2.174
 7809W        W72794  32.159   8.839   3.643
 7810W        W72795  14.688  41.305  12.427
 7811W        W72796  15.794  26.623  13.006
 7812W        W72797  28.223  22.997  11.506
 7813W        W72798  24.938   1.777  12.562
 7814W        W72799  21.467  11.982   3.327
 7815W        W72800  22.854  27.081  13.142
 7816W        W72801   3.291  12.108  11.275
 7817W        W72802  34.844  25.731   2.737
 7818W        W72803  16.349  30.659  14.344
 7819W        W72804  27.219  32.581   2.218
 7820W        W72805  19.640  17.054  12.606
 7821W        W72806  38.831  16.100  13.252
 7822W        W72807  43.281  26.599   0.337
 7823W        W72808  32.317  20.298  12.121
 7824W        W72809  13.639  13.086   2.502
 7825W        W72810   7.733  34.923   2.783
 7826W        W72811   8.844  37.083  14.587
 7827W        W72812  37.398  24.590   3.625
 7828W        W72813  35.189  18.709   2.045
 7829W        W72814  37.628   2.528   2.641
 7830W        W72815   2.951  37.381   2.102
 7831W        W72816  17.987  38.695  11.692
 7832W        W72817  38.608  14.563  14.470
 7833W        W72818  29.858  22.146  11.558
 7834W        W72819  33.793   9.381  14.457
 7835W        W72820  23.574  25.026   3.277
 7836W        W72821  24.773  35.508   3.145
 7837W        W72822   4.785  24.911   1.993
 7838W        W72823  36.553  20.065  11.624
 7839W        W72824  40.987  17.834  12.896
 7840W        W72825  44.432   5.767  12.847
 7841W        W72826  42.990   6.385   0.079
 7842W        W72827  18.989   6.402   0.859
 7843W        W72828  23.229  10.467  12.970
 7844W        W72829  19.309  11.297   3.185
 7845W        W72830   6.127  12.679   1.776
 7846W        W72831  11.881  30.930   2.947
 7847W        W72832  17.693   0.879   4.330
 7848W        W72833   4.279  40.529  12.468
 7849W        W72834  28.504  34.545   3.691
 7850W        W72835  35.052  21.919   3.754
 7851W        W72836  20.045  12.028  11.637
 7852W        W72837  32.043   8.428  12.075
 7853W        W72838  17.268  40.387   0.273
 7854W        W72839  12.837  10.345   1.008
 7855W        W72840   7.006  41.860   2.688
 7856W        W72841   8.804  11.185   2.889
 7857W        W72842  32.421  24.095   3.841
 7858W        W72843  16.590  42.147  14.250
 7859W        W72844  36.313  36.582   4.114
 7860W        W72845  21.985   1.925   1.318
 7861W        W72846  36.511  33.585   4.239
 7862W        W72847  41.833  28.554   9.774
 7863W        W72848  17.589  39.467  12.942
 7864W        W72849  39.220   2.509  12.199
 7865W        W72850  37.771  31.641   0.506
 7866W        W72851   0.074  20.121   3.711
 7867W        W72852   8.311   9.745   5.099
 7868W        W72853  30.050  36.508   0.531
 7869W        W72854  30.887  35.470   2.880
 7870W        W72855  17.762  17.669   0.244
 7871W        W72856  33.990  41.265   4.390
 7872W        W72857  15.509  14.116   4.199
 7873W        W72858  42.535   2.312  12.436
 7874W        W72859   6.803  14.681   2.401
 7875W        W72860   4.143  18.788  12.181
 7876W        W72861  31.640  40.956   0.419
 7877W        W72862  37.146  25.279   2.928
 7878W        W72863   6.368  36.946  14.435
 7879W        W72864  32.652   6.895  12.493
 7880W        W72865  43.954  43.894   2.464
 7881W        W72866  38.637  24.771   2.617
 7882W        W72867   3.464  43.059   0.439
 7883W        W72868  24.019  28.265  12.082
 7884W        W72869  44.013  31.404  14.347
 7885W        W72870  24.514  44.420  12.899
 7886W        W72871   1.507  20.054   3.921
 7887W        W72872  16.096  31.279  12.049
 7888W        W72873  21.898  44.456  14.014
 7889W        W72874  31.875  21.154   0.724
 7890W        W72875  38.811  10.619   0.956
 7891W        W72876   1.469   1.495   2.303
 7892W        W72877   9.387  10.882  13.929
 7893W        W72878  15.678  13.584   0.749
 7894W        W72879  39.356  23.767  14.245
 7895W        W72880  10.249   3.070   0.374
 7896W        W72881  31.199  34.072   3.665
 7897W        W72882  33.035  37.504   2.203
 7898W        W72883  35.864  35.396  11.508
 7899W        W72884   4.420  17.920  14.306
 7900W        W72885  44.550  29.163   0.186
 7901W        W72886  38.933  32.000   1.015
 7902W        W72887  28.038  30.449   3.327
 7903W        W72888   7.734  37.989   0.864
 7904W        W72889  30.858  42.734   1.875
 7905W        W72890  26.750  25.146  11.486
 7906W        W72891   6.534   0.834   2.696
 7907W        W72892   0.754   6.988  13.110
 7908W        W72893  11.774  44.284   0.780
 7909W        W72894   2.252  44.186  11.191
 7910W        W72895  36.059  30.632  14.373
 7911W        W72896  24.145  37.318   4.596
 7912W        W72897  27.080  36.445   4.382
 7913W        W72898  42.488   9.592   4.859
 7914W        W72899  37.886  17.771  12.386
 7915W        W72900  15.144  38.072  11.506
 7916W        W72901  32.761  33.797   2.912
 7917W        W72902  33.862  31.918   2.385
 7918W        W72903  22.638  32.756   1.614
 7919W        W72904  16.677  24.136  12.387
 7920W        W72905  34.817   3.942   4.383
 7921W        W72906  41.047  30.107   0.870
 7922W        W72907   5.483   7.875  14.974
 7923W        W72908   2.386  16.516  14.142
 7924W        W72909   8.813   1.608  13.399
 7925W        W72910  26.368  17.922   0.625
 7926W        W72911  35.642  28.413  14.435
 7927W        W72912  24.931  15.380   3.101
 7928W        W72913  38.633  24.520  14.446
 7929W        W72914  25.014   5.845  11.374
 7930W        W72915  33.974  12.828  14.366
 7931W        W72916  19.985  25.526   4.351
 7932W        W72917  29.024  31.440   4.195
 7933W        W72918  35.034   6.388   1.269
 7934W        W72919  27.196  41.496  10.775
 7935W        W72920   3.367  44.885   4.626
 7936W        W72921  30.089   0.874  11.536
 7937W        W72922  13.834  22.002   0.539
 7938W        W72923  39.780   0.196   4.473
 7939W        W72924  22.091  28.517  11.605
 7940W        W72925  39.612  19.590   1.783
 7941W        W72926   8.409  30.448   4.720
 7942W        W72927  32.360  24.538   3.100
 7943W        W72928   0.636  18.674   3.253
 7944W        W72929  11.098  25.044   3.784
 7945W        W72930   9.271  18.738   0.477
 7946W        W72931  37.897  17.305   1.441
 7947W        W72932   8.809  14.024  12.829
 7948W        W72933   1.839  42.934   3.286
 7949W        W72934  38.407  41.997   2.780
 7950W        W72935  27.829   7.604   4.741
 7951W        W72936   1.817  42.302   0.516
 7952W        W72937  23.007  25.628   3.744
 7953W        W72938   8.317  22.205   4.375
 7954W        W72939  43.243   5.699  13.848
 7955W        W72940   8.930  20.512  10.630
 7956W        W72941  26.830  25.194  12.476
 7957W        W72942   5.127   6.412   5.007
 7958W        W72943  33.511   5.765   2.763
 7959W        W72944  21.876  18.165   1.857
 7960W        W72945  17.446  39.382   1.705
 7961W        W72946  35.203   8.951  10.836
 7962W        W72947   5.091   4.262   2.253
 7963W        W72948  24.659  34.016  13.585
 7964W        W72949   4.252  32.974  10.911
 7965W        W72950   1.864  21.656  14.228
 7966W        W72951   0.976   3.595   4.914
 7967W        W72952  18.348   4.690  11.586
 7968W        W72953  22.597  37.957   4.875
 7969W        W72954  13.778   9.880   0.842
 7970W        W72955  23.974   0.959  12.148
 7971W        W72956  16.553  38.459   1.337
 7972W        W72957  32.286  37.980  14.046
 7973W        W72958   3.348   0.754   5.201
 7974W        W72959  44.647  41.282  14.285
 7975W        W72960   3.538  44.637   4.106
 7976W        W72961   5.728  12.866   4.234
 7977W        W72962   2.683  37.526  14.036
 7978W        W72963  33.239  35.151  12.597
 7979W        W72964   3.393  35.694  11.608
 7980W        W72965  13.280   4.734   1.725
 7981W        W72966  21.796  16.672   3.098
 7982W        W72967  24.683  27.368   2.757
 7983W        W72968  23.156  41.746   1.381
 7984W        W72969   2.302  26.892   0.312
 7985W        W72970  36.786  12.895   2.460
 7986W        W72971  19.057  40.801  11.030
 7987W        W72972  11.842  42.482  14.301
 7988W        W72973  22.282  11.360  13.082
 7989W        W72974  28.666  33.112   1.675
 7990W        W72975   6.821  12.081  13.501
 7991W        W72976  21.251  19.791   3.095
 7992W        W72977  38.466  21.946   3.241
 7993W        W72978  29.073  37.924   2.172
 7994W        W72979  29.002  29.828  10.698
 7995W        W72980  22.992  41.491   0.917
 7996W        W72981  28.202  41.948   1.899
 7997W        W72982  18.306   0.025   0.894
 7998W        W72983  18.173  40.866  10.722
 7999W        W72984  42.060  38.380  13.861
 8000W        W72985  25.427  35.695  11.965
 8001W        W72986  33.885   2.254  14.317
 8002W        W72987   9.463   6.765  12.461
 8003W        W72988   1.828  35.590   4.134
 8004W        W72989  36.474  32.137   4.535
 8005W        W72990   6.926  14.101  12.626
 8006W        W72991  17.692  40.865  10.919
 8007W        W72992  30.001  24.612   3.169
 8008W        W72993   6.547   9.223  12.614
 8009W        W72994   0.892  12.471  11.577
 8010W        W72995  43.525  37.516  12.038
 8011W        W72996   4.658  25.414   3.419
 8012W        W72997  37.614  41.265  10.653
 8013W        W72998  26.151  17.152  14.052
 8014W        W72999   2.700  29.626   1.267
 8015W        W73000  21.141  21.644   3.146
 8016W        W73001  12.571   9.768  13.428
 8017W        W73002  18.274  15.666  13.002
 8018W        W73003  22.554   8.373   3.876
 8019W        W73004  25.549  17.354   2.772
 8020W        W73005   1.727   1.773  11.935
 8021W        W73006  36.557  15.204   1.180
 8022W        W73007  35.186   5.767  13.121
 8023W        W73008  11.105  10.564  10.903
 8024W        W73009  11.421   5.445   5.454
 8025W        W73010  14.051  22.479   2.158
 8026W        W73011  30.581  31.936   4.145
 8027W        W73012   7.425  25.577  10.512
 8028W        W73013  24.862  36.494  11.742
 8029W        W73014  25.698  43.891   3.441
 8030W        W73015  34.638  22.254  14.446
 8031W        W73016  35.295  17.113   4.592
 8032W        W73017  13.734  33.011   4.012
 8033W        W73018  18.062  33.622   3.854
 8034W        W73019   2.644  44.511  11.229
 8035W        W73020  27.892  38.408   0.689
 8036W        W73021  20.262  39.602  11.914
 8037W        W73022  23.632   5.780   2.142
 8038W        W73023  31.432  17.269   4.885
 8039W        W73024  40.622  40.854  12.113
 8040W        W73025  32.618  29.634  14.215
 8041W        W73026  26.045  10.328   3.829
 8042W        W73027  11.652  18.581  13.550
 8043W        W73028  42.871   9.355  13.498
 8044W        W73029  23.241  22.625  11.609
 8045W        W73030  44.870  33.490  11.504
 8046W        W73031  31.242  41.747   2.662
 8047W        W73032  37.211  18.255   1.181
 8048W        W73033  13.050  41.627   4.172
 8049W        W73034  24.218  44.459  12.422
 8050W        W73035  22.682  40.063   2.882
 8051W        W73036   0.373  20.927   0.849
 8052W        W73037  34.501  30.423  14.472
 8053W        W73038  17.622  13.946  10.520
 8054W        W73039   8.829   4.798  10.469
 8055W        W73040  14.723  38.079   1.343
 8056W        W73041  19.142   9.191   2.181
 8057W        W73042  44.867  35.394   0.589
 8058W        W73043  13.191   5.870  11.624
 8059W        W73044  12.251  44.537  14.836
 8060W        W73045   7.331   8.048  10.343
 8061W        W73046  38.866  19.664  10.702
 8062W        W73047  25.199   9.388  11.570
 8063W        W73048  32.102  21.973   1.618
 8064W        W73049  13.273  21.760   4.719
 8065W        W73050  28.038  20.142  13.291
 8066W        W73051  16.232  36.674   1.001
 8067W        W73052  32.150  34.369  13.541
 8068W        W73053  23.715   5.358  13.055
 8069W        W73054   0.550  32.143  14.354
 8070W        W73055  28.427  32.599   0.793
 8071W        W73056  42.677  40.234  11.107
 8072W        W73057  19.260   0.684  11.971
 8073W        W73058  34.832  20.273  13.479
 8074W        W73059  20.810  20.251   0.814
 8075W        W73060  35.228  23.600   3.606
 8076W        W73061  30.495  40.493  13.590
 8077W        W73062  41.551  28.401   4.692
 8078W        W73063  10.686   2.555  12.137
 8079W        W73064  37.690   4.813  12.522
 8080W        W73065  14.133  41.057  11.180
 8081W        W73066  12.669  14.944   4.227
 8082W        W73067  41.463  11.339  14.289
 8083W        W73068   5.262  31.999  14.337
 8084W        W73069  33.694  14.539   0.818
 8085W        W73070  15.470   7.944  14.067
 8086W        W73071  41.231   3.371   0.428
 8087W        W73072  25.119  41.326  10.883
 8088W        W73073  20.045  20.977  12.445
 8089W        W73074  22.677  28.904   4.069
 8090W        W73075  15.453  27.085   2.131
 8091W        W73076  27.670  37.961  13.871
 8092W        W73077  17.543  40.484   0.706
 8093W        W73078  36.425  21.738   3.169
 8094W        W73079   3.435  26.002   4.653
 8095W        W73080  20.034  13.205   4.082
 8096W        W73081  27.054  17.836   2.944
 8097W        W73082  40.273  19.322  14.047
 8098W        W73083  28.195  36.434   3.687
 8099W        W73084  13.638   2.273   3.191
 8100W        W73085  19.801  37.927  12.061
 8101W        W73086  26.173  31.890   3.282
 8102W        W73087  12.074  34.430   1.421
 8103W        W73088   3.942  33.062  14.015
 8104W        W73089  11.661  22.700  14.411
 8105W        W73090  27.078   9.114  11.605
 8106W        W73091  32.852  16.876  13.873
 8107W        W73092  29.223   3.219   4.827
 8108W        W73093   7.714  32.135  10.971
 8109W        W73094  15.401  42.317  13.510
 8110W        W73095  34.440   8.851   2.232
 8111W        W73096  10.345  32.878  11.557
 8112W        W73097  10.445  28.183  13.592
 8113W        W73098  35.975  17.655   1.654
 8114W        W73099  26.152  34.510   3.235
 8115W        W73100  32.617  21.161  11.886
 8116W        W73101  14.666  42.884  13.964
 8117W        W73102  12.584  11.191   0.774
 8118W        W73103  34.616  31.860   0.874
 8119W        W73104  30.197  23.503  14.065
 8120W        W73105  24.949  33.448   2.424
 8121W        W73106  37.071  44.522   2.964
 8122W        W73107  31.611  39.783   2.319
 8123W        W73108   8.203  25.161  14.848
 8124W        W73109  17.195  17.034  12.740
 8125W        W73110  15.056   9.231   4.636
 8126W        W73111  14.662  35.585   2.295
 8127W        W73112  13.236  17.709   4.657
 8128W        W73113  21.813  37.495  10.775
 8129W        W73114  12.222   8.067  12.876
 8130W        W73115  10.827   6.673   1.395
 8131W        W73116  15.575   5.683  13.971
 8132W        W73117   5.135  15.474   2.276
 8133W        W73118  13.176  15.361  13.546
 8134W        W73119  22.326  11.768  11.135
 8135W        W73120  19.251  21.031   3.149
 8136W        W73121  42.531  21.580  11.217
 8137W        W73122  14.182  36.502  13.365
 8138W        W73123  27.230  12.418   1.282
 8139W        W73124  22.932  10.085   4.209
 8140W        W73125   8.856  42.574   4.184
 8141W        W73126  18.697   4.941  12.920
 8142W        W73127   7.458   0.523  13.374
 8143W        W73128  14.289  20.239   4.044
 8144W        W73129   5.178  23.149   0.175
 8145W        W73130  23.715  39.801  13.258
 8146W        W73131  39.029  38.317   1.724
 8147W        W73132  29.438  23.904   1.279
 8148W        W73133  19.187  10.218  11.524
 8149W        W73134   3.404  15.484  12.185
 8150W        W73135   6.193  26.439   0.570
 8151W        W73136  27.021  12.639   1.794
 8152W        W73137  10.882  44.034   1.723
 8153W        W73138  20.541  36.801   2.989
 8154W        W73139  28.598  10.595  12.345
 8155W        W73140  13.358  14.863  13.531
 8156W        W73141   8.743  13.980  14.007
 8157W        W73142   9.915  17.807   0.713
 8158W        W73143   5.125   6.451   1.208
 8159W        W73144  19.637  23.690   1.440
 8160W        W73145  10.969  21.763  12.537
 8161W        W73146  42.185  13.744  13.913
 8162W        W73147  31.138  27.333   0.243
 8163W        W73148   6.823  12.915   3.148
 8164W        W73149  11.857  32.811  10.724
 8165W        W73150  37.946  10.141  14.851
 8166W        W73151   4.019  29.599   3.309
 8167W        W73152  22.179  13.328  10.760
 8168W        W73153  43.860  13.915   2.907
 8169W        W73154  35.426  26.646  12.951
 8170W        W73155  23.572  34.135  11.209
 8171W        W73156  16.986  11.477   1.888
 8172W        W73157  28.337  39.750   4.533
 8173W        W73158  43.905  33.427   1.973
 8174W        W73159  44.520   3.848  13.662
 8175W        W73160  14.339   3.259   0.758
 8176W        W73161   1.106  31.932  12.881
 8177W        W73162  44.016  38.014   4.069
 8178W        W73163   2.481  25.492  12.409
 8179W        W73164   1.491  36.409   0.990
 8180W        W73165  14.466  23.054  13.012
 8181W        W73166  24.020  40.792  11.901
 8182W        W73167  41.267  43.513   3.992
 8183W        W73168  11.951  34.112  14.296
 8184W        W73169  30.994  33.799  14.231
 8185W        W73170   1.965   9.787   0.219
 8186W        W73171   8.761  35.315  10.392
 8187W        W73172   4.726  14.234   2.559
 8188W        W73173  26.970  34.920   0.424
 8189W        W73174   5.858  39.766   4.177
 8190W        W73175   6.473  24.892   1.236
 8191W        W73176   2.424  35.005   4.545
 8192W        W73177   4.994  41.876  14.382
 8193W        W73178  31.102  34.998  10.622
 8194W        W73179  16.190  44.915   4.603
 8195W        W73180  32.369  13.250   1.844
 8196W        W73181  37.940  33.194   4.889
 8197W        W73182  37.619  27.851  11.265
 8198W        W73183  24.888  29.261   0.475
 8199W        W73184   4.226  28.596  13.938
 8200W        W73185  15.642  30.479   3.323
 8201W        W73186  41.742  19.731   2.317
 8202W        W73187   4.346  16.344  11.016
 8203W        W73188  28.571   0.348  13.865
 8204W        W73189   6.003  15.076  14.920
 8205W        W73190  41.938  24.951   1.582
 8206W        W73191  27.153  21.311   2.842
 8207W        W73192  20.620  41.836  14.944
 8208W        W73193  32.572   9.597   1.674
 8209W        W73194  38.536   9.687   4.629
 8210W        W73195   4.135  39.405   0.556
 8211W        W73196  16.749  24.589   4.858
 8212W        W73197  28.651   5.356  14.332
 8213W        W73198  23.765  42.802   1.703
 8214W        W73199  32.373  30.116  13.792
 8215W        W73200  14.083  18.629   0.047
 8216W        W73201  26.103  12.668   4.074
 8217W        W73202  34.807  21.122  12.428
 8218W        W73203  17.692  36.239   1.956
 8219W        W73204   5.539  25.017   1.940
 8220W        W73205  21.611   7.585   3.099
 8221W        W73206  12.580   1.231  13.506
 8222W        W73207  40.835  13.232  10.897
 8223W        W73208  17.222  19.637   1.412
 8224W        W73209  14.826   9.223   3.234
 8225W        W73210   3.721  12.561   4.091
 8226W        W73211   3.807  31.569  10.627
 8227W        W73212  19.310  25.279  13.472
 8228W        W73213  27.089  38.352   4.789
 8229W        W73214   8.329   7.301  12.913
 8230W        W73215  25.223   6.229  14.332
 8231W        W73216  19.851  28.406  13.079
 8232W        W73217  40.091  39.373  12.950
 8233W        W73218   9.194  38.006   0.339
 8234W        W73219  35.406  17.029  11.154
 8235W        W73220  15.571   9.276   9.968
 8236W        W73221   5.463  27.899   1.626
 8237W        W73222  40.778  34.349  14.112
 8238W        W73223  37.417  26.703  12.057
 8239W        W73224  17.176  16.642   2.614
 8240W        W73225  37.378   5.723   3.651
 8241W        W73226  10.775  34.537   2.701
 8242W        W73227  29.111  18.348  12.021
 8243W        W73228  30.620  22.523   3.683
 8244W        W73229  27.654  25.264   1.696
 8245W        W73230  20.718  41.377   3.273
 8246W        W73231  16.487  14.312  12.141
 8247W        W73232  39.879  24.117   0.740
 8248W        W73233  15.932  23.404   1.965
 8249W        W73234  38.258   2.443  10.913
 8250W        W73235  15.350  11.266   1.389
 8251W        W73236  21.696   7.327   0.238
 8252W        W73237  24.134   9.001  11.192
 8253W        W73238  26.456  33.640  14.482
 8254W        W73239  34.117  28.044   2.311
 8255W        W73240  40.840   2.943   1.382
 8256W        W73241  44.252  44.381   2.196
 8257W        W73242   7.675  33.048  14.256
 8258W        W73243  34.282  38.979  10.959
 8259W        W73244  12.830  24.574  12.664
 8260W        W73245  38.743  28.640  12.483
 8261W        W73246  32.665  22.112  11.687
 8262W        W73247  10.114   6.307  12.858
 8263W        W73248  26.757  25.169  12.988
 8264W        W73249  23.499  30.040  12.811
 8265W        W73250  19.637  16.017  11.593
 8266W        W73251  16.280   7.961  14.256
 8267W        W73252  35.937  23.178   3.172
 8268W        W73253  10.779   1.541   2.139
 8269W        W73254  41.877   1.205  12.656
 8270W        W73255  18.458   3.685   3.158
 8271W        W73256  38.577  21.484   1.267
 8272W        W73257   2.311   1.469   3.358
 8273W        W73258   9.434  21.319   4.070
 8274W        W73259  27.029  20.518   1.384
 8275W        W73260  11.915  44.042   3.687
 8276W        W73261  29.345  16.631   4.441
 8277W        W73262  13.071   4.377  11.146
 8278W        W73263   8.453  19.059  11.089
 8279W        W73264   4.948  31.574  13.031
 8280W        W73265  21.974  41.269   3.289
 8281W        W73266  40.948  43.783   4.989
 8282W        W73267  33.954  38.399   2.253
 8283W        W73268  35.453  29.366  11.875
 8284W        W73269  25.140  16.518  11.052
 8285W        W73270  38.824  37.657  10.799
 8286W        W73271  39.775  18.335   2.393
 8287W        W73272  40.583  22.158  13.919
 8288W        W73273   2.931   3.046  11.598
 8289W        W73274  38.325  11.207  14.906
 8290W        W73275  22.722  36.492   1.902
 8291W        W73276  11.165  44.745  12.452
 8292W        W73277  44.340  33.629   2.184
 8293W        W73278  37.165  11.408  10.271
 8294W        W73279   6.553  44.714   2.196
 8295W        W73280  16.694   9.704   2.823
 8296W        W73281  38.125  16.840   1.389
 8297W        W73282  36.914   9.706  11.941
 8298W        W73283  37.046  17.024   4.228
 8299W        W73284  32.061  32.389   1.361
 8300W        W73285  11.224  21.243   3.134
 8301W        W73286   9.245  26.177  11.624
 8302W        W73287   8.717   8.970  11.462
 8303W        W73288   3.323  19.693   0.832
 8304W        W73289  29.932  33.127   2.199
 8305W        W73290  13.167  22.345  14.778
 8306W        W73291  39.841  10.234  11.138
 8307W        W73292  26.594  10.691   0.797
 8308W        W73293   2.507   3.868  13.495
 8309W        W73294  32.177   3.844  11.830
 8310W        W73295  19.638  26.541  14.480
 8311W        W73296  19.022  16.609  13.308
 8312W        W73297   6.856  29.644   1.399
 8313W        W73298   0.424  21.448   4.261
 8314W        W73299  22.085   7.503  10.721
 8315W        W73300   7.779  39.648  13.984
 8316W        W73301   1.209  17.368   0.857
 8317W        W73302  26.322  17.240   3.414
 8318W        W73303   6.223   5.803  12.979
 8319W        W73304   6.452   3.933   3.233
 8320W        W73305  39.366  13.016  13.952
 8321W        W73306  39.596   3.460  11.132
 8322W        W73307  28.071  30.316   1.594
 8323W        W73308  12.128  35.564  10.997
 8324W        W73309   5.261  13.784   3.148
 8325W        W73310  41.091  28.493  12.937
 8326W        W73311  17.798  26.450   1.191
 8327W        W73312  15.096  19.735  14.265
 8328W        W73313   6.925  18.124   4.557
 8329W        W73314  37.073  42.496   3.705
 8330W        W73315   9.506  16.575   0.235
 8331W        W73316  27.041  30.138  12.598
 8332W        W73317  10.926  37.099  13.419
 8333W        W73318  13.175  32.970   4.216
 8334W        W73319  10.190  20.137  14.274
 8335W        W73320  13.237   9.069   1.182
 8336W        W73321  32.373   1.329   3.119
 8337W        W73322  44.046  35.069   4.151
 8338W        W73323  21.532   4.175  13.571
 8339W        W73324  29.673  41.698   4.205
 8340W        W73325  39.341  34.985   5.370
 8341W        W73326  29.413  39.486  12.912
 8342W        W73327   6.478  38.876  13.529
 8343W        W73328  24.589  24.186   1.344
 8344W        W73329  12.317  44.105   4.046
 8345W        W73330  39.937  21.753   3.657
 8346W        W73331  41.958  38.888   4.011
 8347W        W73332  39.330  35.149   3.094
 8348W        W73333  41.265  12.051  13.569
 8349W        W73334  39.807  41.971   3.289
 8350W        W73335  22.061  33.927   2.231
 8351W        W73336  20.484   3.455   2.908
 8352W        W73337  42.231  32.420   1.765
 8353W        W73338  39.355  14.893  12.662
 8354W        W73339  37.497  34.646   2.403
 8355W        W73340  38.501  23.811   2.470
 8356W        W73341   1.240  34.845  10.407
 8357W        W73342   2.882  20.630  11.515
 8358W        W73343   1.512   1.892   2.656
 8359W        W73344  19.362  27.233   4.497
 8360W        W73345  21.396   4.411   0.847
 8361W        W73346  17.521  44.232  10.588
 8362W        W73347  10.362  44.517   4.613
 8363W        W73348  13.513   8.176   1.804
 8364W        W73349   1.620   6.229   1.849
 8365W        W73350  43.965  27.215  13.272
 8366W        W73351  19.205  23.727  14.446
 8367W        W73352  26.501   9.529  13.421
 8368W        W73353  43.835  10.473   2.057
 8369W        W73354  11.201  12.494  11.144
 8370W        W73355  43.287  44.466   3.642
 8371W        W73356  42.143  18.603   3.232
 8372W        W73357  35.283   9.809  13.707
 8373W        W73358  42.526   2.758  12.125
 8374W        W73359  33.089  42.751   3.281
 8375W        W73360  31.657  25.701  11.295
 8376W        W73361  15.820   4.399   2.789
 8377W        W73362  31.916  44.759  12.629
 8378W        W73363   4.321  21.055  13.370
 8379W        W73364  31.913  25.670  12.610
 8380W        W73365  21.766  16.347  14.369
 8381W        W73366  10.357   2.180   1.723
 8382W        W73367  12.732  44.383  12.897
 8383W        W73368  13.265   8.455  11.517
 8384W        W73369  12.823  33.875  12.617
 8385W        W73370   4.838  42.067  13.122
 8386W        W73371  29.494  11.175   0.334
 8387W        W73372   3.960  40.441   4.110
 8388W        W73373  36.061   2.426   2.501
 8389W        W73374  23.686   7.436  14.319
 8390W        W73375  42.858  14.634  13.412
 8391W        W73376   9.337  16.418  14.764
 8392W        W73377   6.398  29.399   1.379
 8393W        W73378  32.488  35.823  10.891
 8394W        W73379  35.824   7.094  12.956
 8395W        W73380  28.693   5.207   4.678
 8396W        W73381  33.573  43.172  12.940
 8397W        W73382   3.710   4.264   4.945
 8398W        W73383  13.575  27.731   1.682
 8399W        W73384  37.767  19.199   3.381
 8400W        W73385  38.808  37.842   1.690
 8401W        W73386  14.182  41.865   4.189
 8402W        W73387  39.951  41.735   0.478
 8403W        W73388  44.895  12.407  10.544
 8404W        W73389  26.752  44.852  13.836
 8405W        W73390   4.762  40.924   0.824
 8406W        W73391   2.127  32.896  11.508
 8407W        W73392   2.781  31.116   3.803
 8408W        W73393  19.280  40.392   3.574
 8409W        W73394  21.130   9.514   1.633
 8410W        W73395   6.812  12.819  10.915
 8411W        W73396  31.185   3.240  13.942
 8412W        W73397  44.248   9.309   4.554
 8413W        W73398  19.835  36.232  13.474
 8414W        W73399  19.937   1.649   0.027
 8415W        W73400  21.008   3.540  11.423
 8416W        W73401   7.188  20.478   1.271
 8417W        W73402  14.556  38.587  13.486
 8418W        W73403  19.795   9.178   0.304
 8419W        W73404  12.649  20.063   3.318
 8420W        W73405  36.831   0.552  13.892
 8421W        W73406  36.631  36.437  11.659
 8422W        W73407  28.088  40.625  12.413
 8423W        W73408  36.085   9.959  10.746
 8424W        W73409   4.390  31.630   0.907
 8425W        W73410  21.006  33.952  11.941
 8426W        W73411  23.134  22.170  10.571
 8427W        W73412  25.015  41.623  13.650
 8428W        W73413  24.062  22.545  11.113
 8429W        W73414  13.712  26.350   4.542
 8430W        W73415   0.013  21.571   4.548
 8431W        W73416  30.375  18.867  11.623
 8432W        W73417   7.442  29.096  12.621
 8433W        W73418  42.481   8.406   2.864
 8434W        W73419   6.681  17.802  14.105
 8435W        W73420   7.341  33.756   3.553
 8436W        W73421   3.109   1.414   0.826
 8437W        W73422  27.514  38.978  10.785
 8438W        W73423   3.115  30.162   0.315
 8439W        W73424  39.694  33.448   2.804
 8440W        W73425  21.484  44.247  10.875
 8441W        W73426  16.218  33.463  11.397
 8442W        W73427  41.984  10.632   3.547
 8443W        W73428  20.718  26.252  11.466
 8444W        W73429  35.048  41.944   4.649
 8445W        W73430  26.095  18.059  12.374
 8446W        W73431  16.276   9.416   2.889
 8447W        W73432  35.115  33.496   0.353
 8448W        W73433  41.973  21.090  11.680
 8449W        W73434  43.933  31.371   4.487
 8450W        W73435  33.931   4.324  14.362
 8451W        W73436  11.603  16.814   4.590
 8452W        W73437  17.119  38.081   3.012
 8453W        W73438  23.500   4.764  11.555
 8454W        W73439   8.001  26.131   2.358
 8455W        W73440  35.718  40.815  14.831
 8456W        W73441  21.700   2.472  12.579
 8457W        W73442  19.259  33.961   3.608
 8458W        W73443  11.907  44.528   2.095
 8459W        W73444  30.159  26.589   1.835
 8460W        W73445  29.437  36.527   4.510
 8461W        W73446  30.136   9.423   4.106
 8462W        W73447  25.092  10.027   1.951
 8463W        W73448   4.613  37.377  10.806
 8464W        W73449  21.833  11.265  13.318
 8465W        W73450  11.197  29.427   2.726
 8466W        W73451  11.558  26.463   3.528
 8467W        W73452  37.834  16.153  12.475
 8468W        W73453  12.199   1.978   3.289
 8469W        W73454  13.566  32.605   1.793
 8470W        W73455  23.986  22.043   4.663
 8471W        W73456   6.227   6.951   2.174
 8472W        W73457  14.702  23.781  12.782
 8473W        W73458   5.702  23.477  13.030
 8474W        W73459  25.058  17.214   0.826
 8475W        W73460  16.334  28.967   0.786
 8476W        W73461  26.642  17.881  13.416
 8477W        W73462  40.981  12.398  14.823
 8478W        W73463   8.419  39.467  12.126
 8479W        W73464  43.847  33.709   3.435
 8480W        W73465  43.854  32.047  14.947
 8481W        W73466  20.580  25.940   0.425
 8482W        W73467  18.266  18.853   1.873
 8483W        W73468  19.155  33.920  14.409
 8484W        W73469   0.548  12.224  14.878
 8485W        W73470  29.610  28.465   0.520
 8486W        W73471  22.212  25.141   2.280
 8487W        W73472  28.106   9.903  13.468
 8488W        W73473  28.008  14.018  12.422
 8489W        W73474   3.244  35.022   2.706
 8490W        W73475  36.986  24.790  12.799
 8491W        W73476   4.030  30.591   2.191
 8492W        W73477  12.807  26.445  12.011
 8493W        W73478  24.743  37.829   4.261
 8494W        W73479  18.701  22.265  12.559
 8495W        W73480  38.841  17.814  10.891
 8496W        W73481   2.050  43.399  13.935
 8497W        W73482   8.930   6.819   3.872
 8498W        W73483  18.537  29.094   2.663
 8499W        W73484  30.433   0.828  13.966
 8500W        W73485   3.028  29.531  14.940
 8501W        W73486  18.354  32.524   4.123
 8502W        W73487  25.267  34.634  14.794
 8503W        W73488  18.275  42.495   0.778
 8504W        W73489  11.152   3.765   4.210
 8505W        W73490  40.364  40.752   3.639
 8506W        W73491  15.666  10.389  12.937
 8507W        W73492  33.871  26.389  12.462
 8508W        W73493  27.589  18.112   3.697
 8509W        W73494   7.797  33.016  14.744
 8510W        W73495  27.498  18.591  14.926
 8511W        W73496   2.985   7.414   1.688
 8512W        W73497  25.042  41.834   2.133
 8513W        W73498  38.476  22.653   4.545
 8514W        W73499  33.606  41.781   2.782
 8515W        W73500  27.744  27.698  13.361
 8516W        W73501  29.806  35.358   4.049
 8517W        W73502   7.448   6.275  11.634
 8518W        W73503  17.750   0.390  12.494
 8519W        W73504  19.254  22.728  12.043
 8520W        W73505  20.826  23.573  14.492
 8521W        W73506  20.267  18.095   1.163
 8522W        W73507  35.892  23.388  11.593
 8523W        W73508  38.027   9.660  11.590
 8524W        W73509  35.005  14.244   1.673
 8525W        W73510   0.191  39.994   2.283
 8526W        W73511  30.040  30.714   2.380
 8527W        W73512  13.626  25.546  13.203
 8528W        W73513  21.011  28.024   3.198
 8529W        W73514  38.413  35.712   3.080
 8530W        W73515  28.398  42.376  11.826
 8531W        W73516  44.346  26.287   2.132
 8532W        W73517  10.664  41.729  10.459
 8533W        W73518  19.151  11.243   2.114
 8534W        W73519  31.058  42.279  13.539
 8535W        W73520  23.076  22.378   2.389
 8536W        W73521  19.482   5.743   4.425
 8537W        W73522  19.354   5.253  11.106
 8538W        W73523  34.624  43.626  13.900
 8539W        W73524  19.102   2.723   4.035
 8540W        W73525   8.892  26.168  11.978
 8541W        W73526   0.510  30.855   3.293
 8542W        W73527   2.845  20.217   3.275
 8543W        W73528  32.937  39.390   3.162
 8544W        W73529  23.342  33.949   2.785
 8545W        W73530  18.280  35.802  10.688
 8546W        W73531  25.579   5.671  11.609
 8547W        W73532  11.775   0.671  14.056
 8548W        W73533  21.152  33.650   2.880
 8549W        W73534  13.280  29.934   2.906
 8550W        W73535  31.724  43.196   1.262
 8551W        W73536  26.825  11.224  11.973
 8552W        W73537  10.852  37.329  11.136
 8553W        W73538  32.947  12.408   2.638
 8554W        W73539  31.794  26.565   4.209
 8555W        W73540  23.801  41.472  10.881
 8556W        W73541  21.051  42.820  14.952
 8557W        W73542  27.999   0.764   3.123
 8558W        W73543   4.930  17.271  11.549
 8559W        W73544  10.271  26.648  14.951
 8560W        W73545   6.807  34.046   0.840
 8561W        W73546  37.838   4.958   0.942
 8562W        W73547  40.551  33.762   9.896
 8563W        W73548   6.315  42.111  14.235
 8564W        W73549  33.368   0.985   1.503
 8565W        W73550   3.267  12.658  14.705
 8566W        W73551  32.017  34.601   3.606
 8567W        W73552  16.332  43.747   3.131
 8568W        W73553  44.850  15.054  12.256
 8569W        W73554  44.072  20.552   2.229
 8570W        W73555  37.600  13.802  11.905
 8571W        W73556  29.005  19.856  10.786
 8572W        W73557  29.893  41.135  13.443
 8573W        W73558  36.382  20.709   2.193
 8574W        W73559  28.445  44.676  13.377
 8575W        W73560  36.405   9.748   2.738
 8576W        W73561  25.618   4.008  14.759
 8577W        W73562  39.206  15.892   4.843
 8578W        W73563   3.467   1.683  12.392
 8579W        W73564  31.623  33.905  13.544
 8580W        W73565  40.286  16.359  14.849
 8581W        W73566  33.327  20.638   3.224
 8582W        W73567  18.866  23.037  12.821
 8583W        W73568  13.618   6.862   4.605
 8584W        W73569  23.071  36.899   4.094
 8585W        W73570  36.032  30.993  13.065
 8586W        W73571  10.802   8.323   2.856
 8587W        W73572  15.145   7.458  11.200
 8588W        W73573  24.189  16.073  11.129
 8589W        W73574  38.344   2.831  14.418
 8590W        W73575  32.004  31.620   3.301
 8591W        W73576  26.164   2.869   0.956
 8592W        W73577  10.915  40.753  12.408
 8593W        W73578  16.789  10.088   9.966
 8594W        W73579  37.646  31.550  14.990
 8595W        W73580  21.518  24.734   1.279
 8596W        W73581   8.173  13.073   2.519
 8597W        W73582  15.430  44.234   1.756
 8598W        W73583  30.183  43.173   1.272
 8599W        W73584  44.861  22.001  14.385
 8600W        W73585  35.983  24.476  13.846
 8601W        W73586  20.605  26.529  13.772
 8602W        W73587  15.029  11.107  11.386
 8603W        W73588  37.593  29.425  13.042
 8604W        W73589  16.302  39.559   3.567
 8605W        W73590  24.459  13.417   1.789
 8606W        W73591  36.512  22.777  12.130
 8607W        W73592   0.563   4.564  10.987
 8608W        W73593  42.951  43.354  11.508
 8609W        W73594   9.618   1.549  14.824
 8610W        W73595  29.154  24.078  10.788
 8611W        W73596  13.599   5.309  14.993
 8612W        W73597  18.571  31.792   2.317
 8613W        W73598   2.253  33.610  12.655
 8614W        W73599  17.258   4.958   2.879
 8615W        W73600  11.084  20.104   4.110
 8616W        W73601  37.257  43.697   2.717
 8617W        W73602  13.994  25.049   2.292
 8618W        W73603  34.714  35.189   3.406
 8619W        W73604  22.518  29.688   2.291
 8620W        W73605  13.569  40.054  14.977
 8621W        W73606  30.600  21.164  10.407
 8622W        W73607   3.383  30.768  10.539
 8623W        W73608  25.749  24.928  11.596
 8624W        W73609  43.529  34.427  10.701
 8625W        W73610  11.000   3.068   0.715
 8626W        W73611  14.634  38.585   1.240
 8627W        W73612   1.268  36.758   4.127
 8628W        W73613  37.570  10.690   4.656
 8629W        W73614  20.982   4.230   1.277
 8630W        W73615  24.500   7.128  14.531
 8631W        W73616  41.009  40.800   2.205
 8632W        W73617  20.290   5.671   4.197
 8633W        W73618  15.760  21.357  14.900
 8634W        W73619   0.368  31.592   2.253
 8635W        W73620  32.343   9.840  11.525
 8636W        W73621  16.665   6.309   4.792
 8637W        W73622  34.875  19.452  14.511
 8638W        W73623  38.652  29.593   4.591
 8639W        W73624   1.456  44.251  14.047
 8640W        W73625  44.889  21.858   3.357
 8641W        W73626   5.140  42.777   0.724
 8642W        W73627  29.453  16.858  13.961
 8643W        W73628  42.067  10.175   2.673
 8644W        W73629  22.302  40.104   1.150
 8645W        W73630  26.073  22.242   2.886
 8646W        W73631  23.148  38.539  14.325
 8647W        W73632  39.021  41.451   0.683
 8648W        W73633   9.801  27.120  14.045
 8649W        W73634  30.695  42.306  11.962
 8650W        W73635  40.567  30.427   2.901
 8651W        W73636  14.260   4.530   4.686
 8652W        W73637  36.511   3.456   4.037
 8653W        W73638   9.304  23.925  11.606
 8654W        W73639  15.554  35.877  12.404
 8655W        W73640  24.921  13.831  12.219
 8656W        W73641  41.335   1.967   2.921
 8657W        W73642  44.281  20.047   2.443
 8658W        W73643  44.307  14.260   4.488
 8659W        W73644  19.122   5.224  14.919
 8660W        W73645  22.953  40.292  10.502
 8661W        W73646  40.078  16.803   0.057
 8662W        W73647  39.508  38.251  11.869
 8663W        W73648  40.068  15.600  13.620
 8664W        W73649  27.138  39.289   1.470
 8665W        W73650   5.370   9.140   1.391
 8666W        W73651  26.235  11.894   2.228
 8667W        W73652   8.067   6.727  12.119
 8668W        W73653  36.320  16.096  12.575
 8669W        W73654  27.438  19.139   3.279
 8670W        W73655  31.893  33.635   2.707
 8671W        W73656  15.803  35.495   4.192
 8672W        W73657  28.487  12.287   1.923
 8673W        W73658  17.200   4.176   3.164
 8674W        W73659  43.332  19.801   1.233
 8675W        W73660  16.058  43.368  13.772
 8676W        W73661   3.156  10.327   3.247
 8677W        W73662  21.629  27.085  13.364
 8678W        W73663  39.021  38.435  11.381
 8679W        W73664   4.276   3.466   4.875
 8680W        W73665  44.342  33.689  14.452
 8681W        W73666   9.901   2.540  10.709
 8682W        W73667  43.783   5.153  13.122
 8683W        W73668  19.752  40.468   1.271
 8684W        W73669  17.697  43.594   4.794
 8685W        W73670   0.277  43.436   2.879
 8686W        W73671   3.009  25.327  11.545
 8687W        W73672  34.534  19.806  14.227
 8688W        W73673   9.637  10.666   4.134
 8689W        W73674  23.151  32.685   3.483
 8690W        W73675  40.928  39.284   2.275
 8691W        W73676  32.374  29.891   3.142
 8692W        W73677  40.948  28.227  10.690
 8693W        W73678  20.279  22.634   3.719
 8694W        W73679  28.751  24.720  13.792
 8695W        W73680  37.009  24.320  10.589
 8696W        W73681  43.994  36.187   4.075
 8697W        W73682  11.663  18.820   4.169
 8698W        W73683  42.347  24.474   1.322
 8699W        W73684  43.098  36.670   2.593
 8700W        W73685  20.210  40.019   3.756
 8701W        W73686   8.994  13.104  10.703
 8702W        W73687   5.676  10.887  12.092
 8703W        W73688  28.579  29.560  14.458
 8704W        W73689  33.614   4.856   5.074
 8705W        W73690  11.638  17.819  14.108
 8706W        W73691   7.418  15.285  11.444
 8707W        W73692  16.895  30.416  11.618
 8708W        W73693   8.269  22.349   0.926
 8709W        W73694  18.486   8.205   0.921
 8710W        W73695  42.477   3.947   3.101
 8711W        W73696  26.200  35.467  14.500
 8712W        W73697   2.324  40.963  10.416
 8713W        W73698  35.044  41.966  14.512
 8714W        W73699  39.625   2.718  13.967
 8715W        W73700  30.317  11.295   2.345
 8716W        W73701   4.423   7.451  12.470
 8717W        W73702  14.585   9.043   2.827
 8718W        W73703  32.557   9.516  13.955
 8719W        W73704  20.294  33.059   0.980
 8720W        W73705  37.070  39.007  12.896
 8721W        W73706  43.061  39.426  13.559
 8722W        W73707   4.405   7.505   1.747
 8723W        W73708  22.749  18.650  10.032
 8724W        W73709   0.883   2.209   1.438
 8725W        W73710  22.112  20.347   1.753
 8726W        W73711  16.757   8.671   2.600
 8727W        W73712  32.105   0.374   1.509
 8728W        W73713  18.347  40.598   3.324
 8729W        W73714   6.368  12.323  13.361
 8730W        W73715  14.841  17.112  11.520
 8731W        W73716  34.823  36.559  12.370
 8732W        W73717  18.950  10.920  11.535
 8733W        W73718  33.524  16.358   1.449
 8734W        W73719   5.205  27.084  11.570
 8735W        W73720   1.373  14.154  11.374
 8736W        W73721  44.112  16.716  11.008
 8737W        W73722  20.783  39.085   0.452
 8738W        W73723  25.753  38.961  12.537
 8739W        W73724  29.476  20.481   2.979
 8740W        W73725  25.148  37.507   2.408
 8741W        W73726  40.218  19.778  12.771
 8742W        W73727  27.022  35.108  13.476
 8743W        W73728   5.308  40.767  11.023
 8744W        W73729   8.042  11.567  11.139
 8745W        W73730  27.525  32.642   3.128
 8746W        W73731   4.929  18.596  12.393
 8747W        W73732   0.797   7.320  11.237
 8748W        W73733  26.621  20.975  12.554
 8749W        W73734  32.565  39.547  13.960
 8750W        W73735   9.822  27.904  12.986
 8751W        W73736   8.325  26.778   3.187
 8752W        W73737  16.204  14.653  11.400
 8753W        W73738  29.118  39.335   4.223
 8754W        W73739  11.663   9.615   2.155
 8755W        W73740  29.889  37.368  11.192
 8756W        W73741  39.408   5.772   4.672
 8757W        W73742   0.437  15.251  13.010
 8758W        W73743  32.423  26.126  14.727
 8759W        W73744  21.491  17.239   2.316
 8760W        W73745  24.588  20.119  11.027
 8761W        W73746  11.228  38.971   2.831
 8762W        W73747   4.734  14.313   0.773
 8763W        W73748  30.291  13.093  11.112
 8764W        W73749  31.071   8.187   2.320
 8765W        W73750   0.048  15.868   2.870
 8766W        W73751   2.517  35.167   3.030
 8767W        W73752   6.224   2.158  12.097
 8768W        W73753  22.715  24.147  12.480
 8769W        W73754  25.924  20.179   3.341
 8770W        W73755  39.409   4.423  10.655
 8771W        W73756   8.338  30.516   3.797
 8772W        W73757  35.558  41.386  10.391
 8773W        W73758  26.003  15.659   4.978
 8774W        W73759   7.122  37.460   1.174
 8775W        W73760  29.897  40.295   3.113
 8776W        W73761  37.384  11.004  10.536
 8777W        W73762  21.995  32.347   0.791
 8778W        W73763  37.982  14.773   3.206
 8779W        W73764  13.741  36.972   4.679
 8780W        W73765  22.443  32.863   4.524
 8781W        W73766  15.122  42.823  14.233
 8782W        W73767  35.494  25.035  13.436
 8783W        W73768   2.339  37.338  11.016
 8784W        W73769  20.510  12.125   1.454
 8785W        W73770  37.329  16.019   0.344
 8786W        W73771  18.346  30.032  13.552
 8787W        W73772   9.922  11.941   1.174
 8788W        W73773  37.373   1.894  12.085
 8789W        W73774  18.588  20.706   0.340
 8790W        W73775  22.775   6.490   0.222
 8791W        W73776  27.028  41.421  12.500
 8792W        W73777   0.540  28.083  14.321
 8793W        W73778   3.716  42.269   0.843
 8794W        W73779  42.796   4.925   2.216
 8795W        W73780  24.601  36.127   3.677
 8796W        W73781  26.982  32.487  12.126
 8797W        W73782   7.884  21.947   2.034
 8798W        W73783  17.961  26.881  11.626
 8799W        W73784  14.833  44.083   3.719
 8800W        W73785   5.252  15.863  10.998
 8801W        W73786   2.356   7.836  14.389
 8802W        W73787  30.045  18.738  14.495
 8803W        W73788  32.246  22.311   0.887
 8804W        W73789  27.938  23.395  13.896
 8805W        W73790  22.792  41.218  14.718
 8806W        W73791  41.471  12.787   2.937
 8807W        W73792  30.952   6.001   3.152
 8808W        W73793  38.023  17.549  13.176
 8809W        W73794   4.375   5.565   0.517
 8810W        W73795  34.463  39.821  12.055
 8811W        W73796  37.155  20.106   2.232
 8812W        W73797  36.611  40.930   3.385
 8813W        W73798  23.196   7.930   3.548
 8814W        W73799  18.571   3.225   2.925
 8815W        W73800  43.396  26.773   2.102
 8816W        W73801  18.095   9.065   1.473
 8817W        W73802  18.538  13.882  13.766
 8818W        W73803  26.279  20.048   2.385
 8819W        W73804  34.147  37.385  11.319
 8820W        W73805  15.103  26.152  14.282
 8821W        W73806  14.172  12.914   4.087
 8822W        W73807  17.866  36.900  12.266
 8823W        W73808  41.494  40.287   3.654
 8824W        W73809   4.902   8.762  13.292
 8825W        W73810  37.274  23.833  12.966
 8826W        W73811  11.147  33.604  11.482
 8827W        W73812  13.399   4.879  11.212
 8828W        W73813   5.517  38.070  11.939
 8829W        W73814  20.348  32.056   1.722
 8830W        W73815  21.156  10.952   4.284
 8831W        W73816  39.263  39.484  13.995
 8832W        W73817  34.361  34.061  13.475
 8833W        W73818  44.071  35.008   2.703
 8834W        W73819   0.241  37.804  10.688
 8835W        W73820  17.161  21.279   2.365
 8836W        W73821   3.067   1.411  12.982
 8837W        W73822  32.853  33.831  11.056
 8838W        W73823   9.472  22.247  10.923
 8839W        W73824  31.751  16.805   2.027
 8840W        W73825  14.361   5.077  11.634
 8841W        W73826   1.805  28.725   0.363
 8842W        W73827   4.571  44.003  13.092
 8843W        W73828  28.160  36.186  12.923
 8844W        W73829  40.754  14.067   2.274
 8845W        W73830  32.495  28.258  14.579
 8846W        W73831  12.323  32.027  10.923
 8847W        W73832  41.549  33.337   0.795
 8848W        W73833  24.769  26.162  11.604
 8849W        W73834   5.224  26.356  14.892
 8850W        W73835  43.988  20.244  13.062
 8851W        W73836  23.053  29.433  10.581
 8852W        W73837  21.657  30.167   2.119
 8853W        W73838  19.093   0.721   3.549
 8854W        W73839   9.346  15.339   0.451
 8855W        W73840  29.502   2.323   4.627
 8856W        W73841  37.463  35.463   2.574
 8857W        W73842   9.670   1.540   1.951
 8858W        W73843  17.707  44.347   0.459
 8859W        W73844  40.545  40.918   4.069
 8860W        W73845  29.464  38.342  12.915
 8861W        W73846  42.722  15.099   0.890
 8862W        W73847   7.771  29.542  13.599
 8863W        W73848   8.473  38.804   0.214
 8864W        W73849   2.833  38.600   3.390
 8865W        W73850  10.060  20.585   1.879
 8866W        W73851  30.034  13.141   1.113
 8867W        W73852  44.748  11.501   3.476
 8868W        W73853  21.435  42.482   0.802
 8869W        W73854  44.649  15.616  11.599
 8870W        W73855  16.187  34.858  12.978
 8871W        W73856  28.941  31.358   3.661
 8872W        W73857  12.376  32.466  13.488
 8873W        W73858   0.196  38.031   3.200
 8874W        W73859  35.512  39.294  14.636
 8875W        W73860  37.788  13.723   0.533
 8876W        W73861   9.375  11.801   3.637
 8877W        W73862   0.877  15.896   2.121
 8878W        W73863  38.614   7.758  10.648
 8879W        W73864  10.555  36.530  12.443
 8880W        W73865  26.686  12.679   2.673
 8881W        W73866  27.710   5.463   1.911
 8882W        W73867  18.331  20.263  11.986
 8883W        W73868  25.502   2.262  13.880
 8884W        W73869  22.280  44.072   3.760
 8885W        W73870  42.839  12.288   1.203
 8886W        W73871  27.065   6.229  13.205
 8887W        W73872  37.185  24.604   4.686
 8888W        W73873  36.309  32.923   0.993
 8889W        W73874  17.860   1.448  11.606
 8890W        W73875   6.795  18.168  13.048
 8891W        W73876   3.583  19.077  11.973
 8892W        W73877  18.894   6.980   3.564
 8893W        W73878  30.409   6.752  10.610
 8894W        W73879   1.499  35.589   2.395
 8895W        W73880   1.398  37.308  14.333
 8896W        W73881  26.640   8.289  13.005
 8897W        W73882  35.943  15.283   4.156
 8898W        W73883   8.062  25.476  11.643
 8899W        W73884  13.664   3.188  10.736
 8900W        W73885  19.775  21.492  15.000
 8901W        W73886  34.175  22.084  12.384
 8902W        W73887   0.034   0.973   3.577
 8903W        W73888  44.737  25.892  14.822
 8904W        W73889  36.547  31.027  13.163
 8905W        W73890  43.060  30.537   3.986
 8906W        W73891   7.763  16.555   3.901
 8907W        W73892  22.543   9.934  14.762
 8908W        W73893  41.472   9.384   0.318
 8909W        W73894  18.104   4.912  14.328
 8910W        W73895  41.814  17.967   2.627
 8911W        W73896  12.093   7.375   1.249
 8912W        W73897   2.363  35.826   2.230
 8913W        W73898  15.237  30.134  13.006
 8914W        W73899  14.636  38.297   3.143
 8915W        W73900  23.128  41.843   4.133
 8916W        W73901  36.366  12.328  14.488
 8917W        W73902  44.299  13.044   0.590
 8918W        W73903  17.615  15.268   4.326
 8919W        W73904  11.436   7.436  10.081
 8920W        W73905   8.510   4.491  11.218
 8921W        W73906  20.786  34.110   0.542
 8922W        W73907  26.766  36.469   3.642
 8923W        W73908  16.804  32.665  14.454
 8924W        W73909  36.489   4.297   4.410
 8925W        W73910   8.393  21.704   3.703
 8926W        W73911  35.805   7.692  10.750
 8927W        W73912  15.685  37.322  14.074
 8928W        W73913  31.271  33.890   0.423
 8929W        W73914  23.181  19.266  12.121
 8930W        W73915   1.885   6.838   1.011
 8931W        W73916  38.022  41.265   2.104
 8932W        W73917   1.717  10.759   2.322
 8933W        W73918   5.064  35.586  11.997
 8934W        W73919  31.620  30.352   3.120
 8935W        W73920  44.621  42.496  14.775
 8936W        W73921  36.196  27.410   4.892
 8937W        W73922  30.456  15.325  13.970
 8938W        W73923   0.960  37.649  11.959
 8939W        W73924  15.266  11.498  10.682
 8940W        W73925   3.133  30.407  14.857
 8941W        W73926  43.837  42.480  12.827
 8942W        W73927  35.657  18.779  14.820
 8943W        W73928  33.135  40.357   4.165
 8944W        W73929  14.803  42.167  12.344
 8945W        W73930  16.211  31.297   0.770
 8946W        W73931  22.998  43.399  12.919
 8947W        W73932  25.049  13.538   2.718
 8948W        W73933   5.624  31.441   3.777
 8949W        W73934  31.339  13.834  12.235
 8950W        W73935   3.832  16.036  12.020
 8951W        W73936  14.116   8.596   1.260
 8952W        W73937  32.412  42.032  13.921
 8953W        W73938  40.680  22.411  13.091
 8954W        W73939  39.374  32.183  11.141
 8955W        W73940   6.280  11.884   3.660
 8956W        W73941  42.746  40.598   2.707
 8957W        W73942  31.502  27.732   1.453
 8958W        W73943  11.560   1.401   1.901
 8959W        W73944  16.779  40.405   0.467
 8960W        W73945  44.916  20.547   1.970
 8961W        W73946  30.505  44.456   0.080
 8962W        W73947  23.987  42.417   1.358
 8963W        W73948  35.911   4.896   4.806
 8964W        W73949  19.178  35.434   0.896
 8965W        W73950   3.545   0.822  14.850
 8966W        W73951  23.283  36.030   3.896
 8967W        W73952   1.495   7.794   1.727
 8968W        W73953  44.389  17.826   4.936
 8969W        W73954   2.615  37.398   3.967
 8970W        W73955  16.611  26.978   0.720
 8971W        W73956  30.565  12.132   4.616
 8972W        W73957   8.207   7.453   2.303
 8973W        W73958   2.339  33.792   2.342
 8974W        W73959  34.037  20.951  11.145
 8975W        W73960  25.260  32.433   3.936
 8976W        W73961   6.127  27.491  10.601
 8977W        W73962  23.296  14.706  12.451
 8978W        W73963  30.361  31.771   5.023
 8979W        W73964  10.764  15.838  10.698
 8980W        W73965  23.381  26.349  14.305
 8981W        W73966  10.107   0.945  12.321
 8982W        W73967  26.174  15.640  11.541
 8983W        W73968   4.841  19.201  13.562
 8984W        W73969   6.563  33.514   5.275
 8985W        W73970  14.792   7.335   4.184
 8986W        W73971  36.934   1.207  11.500
 8987W        W73972  30.110  16.557   2.191
 8988W        W73973  29.693  27.879   1.948
 8989W        W73974   2.326  14.037  11.180
 8990W        W73975  14.196  10.884  11.062
 8991W        W73976   7.855  25.087   0.244
 8992W        W73977  38.280   0.479  12.617
 8993W        W73978  34.977  29.478   1.902
 8994W        W73979  23.766  36.973   4.303
 8995W        W73980  39.110  43.430   0.864
 8996W        W73981  39.932  38.593  14.866
 8997W        W73982  16.443  11.113  10.977
 8998W        W73983  36.513  19.294   3.115
 8999W        W73984  21.766  29.117  11.756
 9000W        W73985  14.354  15.200   4.530
 9001W        W73986   8.313  18.138  14.290
 9002W        W73987  13.276  30.427  14.484
 9003W        W73988  31.460  15.114   2.786
 9004W        W73989  16.994  41.578   3.058
 9005W        W73990  28.527  16.286  13.529
 9006W        W73991  14.031  29.845   2.223
 9007W        W73992  41.002  20.902   1.877
 9008W        W73993  43.107  24.212   2.115
 9009W        W73994  44.843  23.251   0.444
 9010W        W73995  44.132   4.762  13.091
 9011W        W73996  43.366   4.696  12.430
 9012W        W73997   8.713  18.640   2.830
 9013W        W73998  13.602   7.767   4.152
 9014W        W73999  16.291  39.043   1.033
 9015W        W74000  32.481  31.663  13.931
 9016W        W74001  10.436  17.720   3.933
 9017W        W74002  24.457  11.370  14.807
 9018W        W74003   2.000  37.971   4.951
 9019W        W74004  20.924  19.122   0.803
 9020W        W74005  27.981  10.669  11.656
 9021W        W74006  12.580  35.921   3.883
 9022W        W74007   3.908   5.897  11.601
 9023W        W74008   8.394  43.988   4.937
 9024W        W74009  15.640  30.851  12.000
 9025W        W74010  16.196   8.892   3.142
 9026W        W74011  40.334  38.057   1.516
 9027W        W74012  41.032   5.990   0.842
 9028W        W74013  24.224  44.749  13.472
 9029W        W74014  19.138  42.476   4.740
 9030W        W74015  20.707  35.849  13.497
 9031W        W74016  42.912  43.329   4.470
 9032W        W74017  35.411  10.810  14.605
 9033W        W74018  19.212  44.259  11.500
 9034W        W74019  20.988  43.846  12.222
 9035W        W74020  30.664  42.969  12.474
 9036W        W74021  44.669  20.973  14.377
 9037W        W74022  20.323  14.218   0.757
 9038W        W74023  25.146  12.772   1.390
 9039W        W74024  32.107  31.015   1.884
 9040W        W74025  17.152  43.468  10.800
 9041W        W74026  41.976   9.292   3.713
 9042W        W74027  14.391  23.339  11.065
 9043W        W74028  28.633  21.377  14.382
 9044W        W74029  28.447   5.448  12.818
 9045W        W74030   3.750  15.138  14.566
 9046W        W74031  16.910   1.978   4.520
 9047W        W74032  13.851  10.340  11.602
 9048W        W74033   1.292   5.013   4.065
 9049W        W74034   6.427  34.008   2.350
 9050W        W74035   1.515   9.470   3.227
 9051W        W74036   7.977  42.782  14.962
 9052W        W74037   8.282  16.181  13.279
 9053W        W74038  15.537  34.634  14.918
 9054W        W74039   4.845  21.227  12.196
 9055W        W74040  12.012  31.133  13.095
 9056W        W74041  17.545  40.258   3.175
 9057W        W74042  25.589  14.595  12.042
 9058W        W74043  28.496  14.734  14.353
 9059W        W74044  34.948  44.596  11.075
 9060W        W74045  39.063  28.043   1.604
 9061W        W74046  19.563   3.412   2.631
 9062W        W74047   3.309   8.955  14.470
 9063W        W74048  14.177   6.985   1.854
 9064W        W74049  43.065  22.338   5.014
 9065W        W74050  26.459   5.939  10.650
 9066W        W74051  25.245   6.202   3.327
 9067W        W74052  22.003  26.543   2.308
 9068W        W74053   3.639  27.607  14.811
 9069W        W74054  18.266  27.392  11.598
 9070W        W74055  25.126  18.461  11.099
 9071W        W74056  19.739  10.733  10.781
 9072W        W74057   9.613  16.093   4.147
 9073W        W74058  23.567   0.281  12.570
 9074W        W74059  43.373  37.249   2.012
 9075W        W74060  25.263  22.212   1.300
 9076W        W74061  17.507  17.230   0.884
 9077W        W74062  39.281  39.734  13.005
 9078W        W74063  12.883  31.560  12.667
 9079W        W74064   3.452  42.772   2.492
 9080W        W74065   1.835  14.139   0.232
 9081W        W74066  24.514  25.914  11.226
 9082W        W74067  34.029   3.291  10.772
 9083W        W74068  41.504   8.990   1.709
 9084W        W74069  37.694   9.232  11.000
 9085W        W74070  24.497   1.871  14.721
 9086W        W74071  44.428  25.906   5.053
 9087W        W74072  40.534   3.853   1.538
 9088W        W74073  17.760  16.748   3.114
 9089W        W74074  22.512  13.428  12.905
 9090W        W74075  32.231  37.922  11.122
 9091W        W74076  22.072  36.428   3.733
 9092W        W74077  11.251  39.549   3.726
 9093W        W74078  10.924  32.631   3.214
 9094W        W74079  11.781   5.943  12.465
 9095W        W74080  33.011  44.276  11.691
 9096W        W74081  26.756   9.839   3.551
 9097W        W74082  41.467  10.870  14.490
 9098W        W74083   0.209   4.239  11.166
 9099W        W74084  21.694  28.206   2.177
 9100W        W74085  27.124  20.770  11.138
 9101W        W74086  21.756  35.907   0.969
 9102W        W74087  13.472  32.264   4.690
 9103W        W74088  39.910  40.954   2.653
 9104W        W74089  34.003  11.717   3.292
 9105W        W74090  36.654  19.251  13.029
 9106W        W74091  24.225  23.144   0.229
 9107W        W74092  12.227  35.306  13.790
 9108W        W74093  27.573  26.092  13.524
 9109W        W74094  35.670   7.178   4.046
 9110W        W74095  40.942  16.579   3.441
 9111W        W74096  10.428  43.917   3.902
 9112W        W74097  13.326  39.892   2.659
 9113W        W74098   2.866  27.566  14.302
 9114W        W74099  11.184   0.243  11.549
 9115W        W74100  32.459  37.109   3.954
 9116W        W74101  28.677  33.907  13.434
 9117W        W74102  42.559  32.716   3.197
 9118W        W74103  16.598  13.366   3.362
 9119W        W74104  13.763  23.901  11.035
 9120W        W74105  40.718  15.120   0.877
 9121W        W74106  44.389  11.311   3.862
 9122W        W74107  39.040  28.380   3.081
 9123W        W74108   7.253  38.848  12.299
 9124W        W74109   3.468  21.193  12.575
 9125W        W74110  35.917   3.467  13.342
 9126W        W74111  43.248   8.179  13.428
 9127W        W74112  19.811   7.909  12.541
 9128W        W74113  20.559  27.187  12.016
 9129W        W74114  38.791  25.189  11.680
 9130W        W74115  16.886  42.379   2.267
 9131W        W74116  27.728  26.115   1.414
 9132W        W74117  40.538   3.366  12.952
 9133W        W74118   5.396  20.822   1.229
 9134W        W74119  15.177   6.108   1.882
 9135W        W74120   4.468  41.343  10.616
 9136W        W74121  26.841   3.843   4.999
 9137W        W74122  42.150  36.710   4.583
 9138W        W74123   8.751   9.302  12.858
 9139W        W74124  39.971  42.493   3.339
 9140W        W74125   6.817  43.911  10.608
 9141W        W74126   2.666  37.829   0.938
 9142W        W74127  16.717  11.305  13.873
 9143W        W74128  19.891  20.782   0.137
 9144W        W74129  41.464  11.641  10.683
 9145W        W74130  24.456  33.986   3.610
 9146W        W74131   1.818  40.909   0.361
 9147W        W74132   2.885   4.255   0.236
 9148W        W74133  37.122   3.922   1.914
 9149W        W74134  42.346  36.931   2.820
 9150W        W74135  17.604   8.794   2.312
 9151W        W74136   2.557  25.712  14.600
 9152W        W74137   6.754  23.986  12.538
 9153W        W74138   8.967  10.880   4.833
 9154W        W74139   2.621  14.933   0.671
 9155W        W74140  36.055  28.171   3.783
 9156W        W74141  42.730  23.429   1.638
 9157W        W74142  23.508  33.718  12.135
 9158W        W74143  41.583  38.492   1.450
 9159W        W74144  35.222  26.987  12.092
 9160W        W74145  32.983  18.403   2.472
 9161W        W74146   1.800  44.280   4.345
 9162W        W74147  12.877  15.984   1.279
 9163W        W74148  26.495  23.497  13.866
 9164W        W74149  24.541   8.388  11.333
 9165W        W74150  14.827  12.528   0.738
 9166W        W74151   3.776  21.920  11.743
 9167W        W74152   7.680  33.392   4.096
 9168W        W74153  12.138  19.391  13.054
 9169W        W74154  24.741  22.047   3.588
 9170W        W74155  21.598  11.492   3.259
 9171W        W74156  10.857   9.808   4.881
 9172W        W74157  36.801  23.579   2.141
 9173W        W74158  12.104   4.726  10.407
 9174W        W74159  19.686  42.224   0.890
 9175W        W74160  17.761  10.263   2.484
 9176W        W74161  22.214  33.964   1.229
 9177W        W74162  40.894   0.437  13.555
 9178W        W74163  28.899  10.770  13.140
 9179W        W74164  17.737   0.610   1.416
 9180W        W74165   0.770  15.252   2.752
 9181W        W74166  38.270  14.239   0.778
 9182W        W74167   6.328  37.113  14.929
 9183W        W74168  12.845  22.328  14.320
 9184W        W74169  21.920   9.170  13.371
 9185W        W74170   1.161  18.712   3.119
 9186W        W74171   6.753  14.895  12.984
 9187W        W74172   4.430  13.112  12.329
 9188W        W74173   6.085  33.630  12.959
 9189W        W74174   1.706  38.774   2.136
 9190W        W74175  10.458  29.641   0.726
 9191W        W74176  16.309  17.618   0.992
 9192W        W74177  25.226   7.286   1.371
 9193W        W74178  41.546  17.613   2.294
 9194W        W74179  24.541   0.455  11.605
 9195W        W74180   5.169  40.829   1.850
 9196W        W74181  27.207  11.570  12.824
 9197W        W74182  22.496  34.546  13.220
 9198W        W74183  34.735  29.632   1.096
 9199W        W74184  21.880   3.276  10.655
 9200W        W74185  13.026  19.573   4.217
 9201W        W74186   0.665  20.166   0.309
 9202W        W74187  42.423  34.191   4.429
 9203W        W74188  32.157  12.095  11.148
 9204W        W74189  37.805  44.803  11.850
 9205W        W74190   1.802  38.755  13.961
 9206W        W74191  30.605  29.008   2.738
 9207W        W74192  10.021  38.613   1.331
 9208W        W74193   0.828  33.451   4.695
 9209W        W74194   8.129   5.109  13.413
 9210W        W74195  10.098  27.079   1.868
 9211W        W74196  20.213  36.580  12.384
 9212W        W74197  21.146  25.892   2.838
 9213W        W74198  21.752  22.976   3.320
 9214W        W74199  23.770  24.764   3.710
 9215W        W74200   3.765   7.272   5.037
 9216W        W74201  40.067  21.266  14.869
 9217W        W74202   5.941   3.521   0.926
 9218W        W74203  36.987  17.231   3.228
 9219W        W74204  39.813  24.659   1.528
 9220W        W74205  40.435   2.783   1.675
 9221W        W74206   4.023   3.795   3.228
 9222W        W74207   1.397  32.324   3.716
 9223W        W74208  27.612  32.649   4.589
 9224W        W74209  23.716  24.093   0.074
 9225W        W74210  35.484  18.214  10.717
 9226W        W74211  14.037  24.258  11.254
 9227W        W74212  35.898   4.388   2.235
 9228W        W74213  30.730   8.307   4.587
 9229W        W74214  10.929  22.532  14.937
 9230W        W74215  32.084  13.341   4.766
 9231W        W74216  20.247  31.380   3.361
 9232W        W74217  17.337   0.712   4.639
 9233W        W74218  11.244  43.362   3.673
 9234W        W74219  37.349  36.824   0.395
 9235W        W74220  12.347  39.585  12.096
 9236W        W74221   7.836  17.234   1.269
 9237W        W74222  12.306   9.344   1.677
 9238W        W74223  10.748   2.213   4.699
 9239W        W74224   4.026  16.552   4.203
 9240W        W74225   1.437  14.925   4.009
 9241W        W74226  23.727  23.035   0.220
 9242W        W74227  43.566  33.035  11.750
 9243W        W74228  16.973  17.579  12.075
 9244W        W74229  29.385   7.949   3.695
 9245W        W74230   2.904  31.011   0.268
 9246W        W74231  41.019  27.144  12.077
 9247W        W74232   4.171  13.087  14.967
 9248W        W74233   0.832   7.387   4.106
 9249W        W74234  31.451  11.716  11.172
 9250W        W74235   3.599  30.868   2.190
 9251W        W74236  44.308  24.028  13.337
 9252W        W74237  26.972  12.129   3.916
 9253W        W74238  23.167  28.125   0.412
 9254W        W74239  21.122  28.881  10.520
 9255W        W74240  31.437   3.708   1.888
 9256W        W74241  38.641  41.730   1.741
 9257W        W74242  36.105   1.539   2.278
 9258W        W74243  11.494  41.468  12.831
 9259W        W74244   9.942   3.333  10.251
 9260W        W74245  32.957  15.816  13.925
 9261W        W74246   2.907   0.655  13.503
 9262W        W74247  37.541  17.288  11.276
 9263W        W74248  42.728  40.604  10.743
 9264W        W74249  26.759   5.511   3.283
 9265W        W74250   6.369  42.907   2.210
 9266W        W74251  35.019   6.438  14.499
 9267W        W74252  22.699  15.645   1.929
 9268W        W74253   7.478  34.486   0.604
 9269W        W74254  30.018  25.153   3.208
 9270W        W74255   4.175  25.516   2.145
 9271W        W74256   1.196  35.520  11.475
 9272W        W74257  42.691  23.047  11.615
 9273W        W74258  12.221  16.293   3.993
 9274W        W74259  41.471  21.676  10.173
 9275W        W74260   2.899  11.326   3.381
 9276W        W74261   3.192  13.905   2.511
 9277W        W74262   1.867  36.354  11.161
 9278W        W74263   0.043   9.782   4.843
 9279W        W74264  38.536  44.445  10.420
 9280W        W74265  20.734  11.138  14.289
 9281W        W74266  37.371  27.457  14.791
 9282W        W74267  40.383   8.753   9.881
 9283W        W74268   4.828  23.436  10.320
 9284W        W74269  13.976  21.617   2.499
 9285W        W74270   2.836  10.215   4.649
 9286W        W74271   9.620  18.718  14.562
 9287W        W74272  40.498  21.676  13.758
 9288W        W74273   7.949  15.831  12.998
 9289W        W74274  13.574  42.891  10.477
 9290W        W74275  26.062  35.619  13.566
 9291W        W74276  11.866  43.805   4.122
 9292W        W74277  21.590  42.357   4.991
 9293W        W74278  10.848  16.295   0.260
 9294W        W74279   1.202  44.592   3.557
 9295W        W74280   1.826  15.288   1.439
 9296W        W74281  22.439  28.202  10.912
 9297W        W74282  22.918  15.794   4.873
 9298W        W74283  34.138  22.049   3.685
 9299W        W74284  43.515   5.723   1.350
 9300W        W74285  33.156  20.224  13.928
 9301W        W74286  42.907   5.214  13.032
 9302W        W74287  18.857   1.446   3.658
 9303W        W74288  41.268  15.112   0.793
 9304W        W74289  41.594  30.155   1.760
 9305W        W74290  22.290  20.577  12.407
 9306W        W74291  27.615  19.822  14.538
 9307W        W74292   9.680  16.092  13.346
 9308W        W74293  43.864  29.137  11.539
 9309W        W74294  39.827   4.683  10.724
 9310W        W74295  41.436  11.622   4.771
 9311W        W74296  33.631  40.027  14.782
 9312W        W74297  10.108   4.394   2.656
 9313W        W74298  37.409  27.392   1.660
 9314W        W74299  15.656  28.638  14.439
 9315W        W74300  29.120  44.546  11.237
 9316W        W74301  19.721  37.966   3.742
 9317W        W74302   6.765  28.426   4.334
 9318W        W74303  25.560   8.545  11.101
 9319W        W74304  11.145   3.878  14.534
 9320W        W74305  11.541  41.063   3.703
 9321W        W74306  11.278  12.516  13.039
 9322W        W74307  19.776  25.570   1.476
 9323W        W74308  14.169  25.583  12.064
 9324W        W74309  27.116  27.415   4.952
 9325W        W74310  20.022  32.746  11.243
 9326W        W74311  21.236  42.404  11.137
 9327W        W74312   5.418  19.454   3.281
 9328W        W74313   1.751  14.786   1.726
 9329W        W74314   6.747  31.981  12.520
 9330W        W74315  43.438  23.315  14.345
 9331W        W74316   1.934  23.900  10.713
 9332W        W74317   3.236  41.408  11.472
 9333W        W74318  25.728  21.230  11.563
 9334W        W74319  41.423   3.633  12.149
 9335W        W74320  31.542  31.836  12.203
 9336W        W74321  15.962  28.664   2.720
 9337W        W74322  34.291  39.629  13.461
 9338W        W74323  16.275   3.297   2.918
 9339W        W74324  42.326  17.769   9.846
 9340W        W74325  16.867   2.776  11.748
 9341W        W74326  37.804  37.502  10.454
 9342W        W74327  26.137  34.507  11.878
 9343W        W74328  33.329  13.347  13.022
 9344W        W74329  18.862  12.284  14.957
 9345W        W74330  14.597  43.421  11.030
 9346W        W74331   9.355  16.824  14.018
 9347W        W74332   6.040  11.248   0.255
 9348W        W74333   4.968  38.152  13.837
 9349W        W74334  44.288  22.506   4.169
 9350W        W74335   8.099  42.338  13.862
 9351W        W74336  42.151  18.470  11.448
 9352W        W74337  23.501  42.859  12.428
 9353W        W74338  23.934  33.996   1.889
 9354W        W74339  41.715  10.200   0.744
 9355W        W74340  18.535  19.750  12.124
 9356W        W74341  13.698  15.919  12.865
 9357W        W74342  34.498  44.934  12.619
 9358W        W74343  30.559  38.977  14.139
 9359W        W74344   8.622  33.578  14.831
 9360W        W74345  23.364  10.576   1.360
 9361W        W74346   8.252  11.565  14.781
 9362W        W74347  28.569  11.029   0.790
 9363W        W74348   6.001  33.493  14.340
 9364W        W74349  41.852  15.539  13.072
 9365W        W74350  33.023  27.596   0.549
 9366W        W74351  28.040   8.693   0.411
 9367W        W74352  38.640  35.606  12.076
 9368W        W74353  14.043  24.485   4.280
 9369W        W74354  28.511  20.232  12.058
 9370W        W74355  36.995   8.109   4.082
 9371W        W74356  33.088  43.036  10.383
 9372W        W74357  11.748  17.840   4.549
 9373W        W74358  33.567   8.954  14.304
 9374W        W74359   7.929  34.068   2.152
 9375W        W74360   2.913  44.865   0.869
 9376W        W74361  41.445  27.359   3.142
 9377W        W74362  38.901  21.703  13.549
 9378W        W74363  38.208   8.676   2.560
 9379W        W74364  32.903  20.745  11.092
 9380W        W74365  43.376   0.883   1.329
 9381W        W74366  38.765   6.335  11.107
 9382W        W74367  34.984  44.674  13.129
 9383W        W74368  34.415  30.933  14.402
 9384W        W74369   4.536  31.956   5.006
 9385W        W74370  18.983  42.352  11.974
 9386W        W74371  19.075  34.969   0.112
 9387W        W74372  15.521  14.686   4.478
 9388W        W74373   4.911   3.675  13.903
 9389W        W74374  24.395  11.063  11.093
 9390W        W74375  12.778   0.543  14.258
 9391W        W74376  12.351  23.093  10.588
 9392W        W74377  13.812  20.477  14.636
 9393W        W74378  38.493  37.458   2.724
 9394W        W74379  32.044  19.634  12.903
 9395W        W74380  36.003  38.756  14.929
 9396W        W74381  15.421  42.980   3.917
 9397W        W74382  35.670  24.515  13.403
 9398W        W74383  26.209  20.238  12.628
 9399W        W74384  37.604  34.959  10.314
 9400W        W74385  14.340  37.458  10.300
 9401W        W74386   1.513  13.733  11.094
 9402W        W74387  19.088   1.272   1.408
 9403W        W74388  44.315  11.732  12.085
 9404W        W74389  11.547  34.580  13.933
 9405W        W74390  30.107  17.190   4.086
 9406W        W74391  11.129   2.289   0.303
 9407W        W74392  17.577  44.353  11.078
 9408W        W74393   4.479   3.497   0.530
 9409W        W74394  32.483  44.585  12.451
 9410W        W74395   7.378  30.127   0.732
 9411W        W74396  22.314  13.182   0.607
 9412W        W74397  17.883  35.854   3.243
 9413W        W74398  13.111  42.548  11.623
 9414W        W74399   7.284  25.532   3.781
 9415W        W74400  37.416  19.713   4.604
 9416W        W74401  21.147  18.569  12.229
 9417W        W74402  22.530  23.215   3.514
 9418W        W74403  17.317   6.885  12.024
 9419W        W74404  10.952  23.309   4.075
 9420W        W74405   8.199  28.545   2.812
 9421W        W74406  23.672   6.861   2.757
 9422W        W74407  13.716  38.462   1.736
 9423W        W74408  20.019  31.386   2.874
 9424W        W74409  14.802  24.769  12.099
 9425W        W74410  25.127  23.638   3.760
 9426W        W74411  41.797   8.421  11.169
 9427W        W74412  24.319  10.150   0.378
 9428W        W74413   6.145  37.819   0.393
 9429W        W74414  15.630   0.778   1.522
 9430W        W74415  10.819  35.329  13.052
 9431W        W74416  40.357  29.226  14.956
 9432W        W74417  17.179   3.846  12.884
 9433W        W74418   4.190  17.844   0.522
 9434W        W74419  25.516  24.036   3.663
 9435W        W74420   9.591  14.308   1.238
 9436W        W74421   9.291  12.137  11.960
 9437W        W74422  21.834  32.337  11.658
 9438W        W74423  22.994  29.199  12.400
 9439W        W74424  18.024  28.595  10.349
 9440W        W74425  21.518  42.731   2.204
 9441W        W74426   4.170  42.849   4.156
 9442W        W74427  13.608  41.833  13.155
 9443W        W74428  44.506  38.671   3.565
 9444W        W74429  18.245   3.959  11.985
 9445W        W74430   4.747  12.786  12.038
 9446W        W74431  36.380  39.361   3.453
 9447W        W74432   4.365  14.798  13.908
 9448W        W74433  27.035   9.252   0.861
 9449W        W74434   0.839  29.154  11.547
 9450W        W74435  15.788  38.860   2.345
 9451W        W74436  38.907  20.281   2.680
 9452W        W74437  20.522  20.242  13.457
 9453W        W74438  24.288   3.615   2.803
 9454W        W74439  39.881  29.923  10.606
 9455W        W74440   6.230  39.727  12.838
 9456W        W74441  18.555  13.953   2.703
 9457W        W74442  36.187  11.762  12.787
 9458W        W74443  19.738  16.907   3.187
 9459W        W74444  39.690  36.382  10.816
 9460W        W74445  15.222  14.650   1.414
 9461W        W74446  27.860  20.657  13.197
 9462W        W74447   9.506  43.086  12.417
 9463W        W74448   2.831  21.836  11.987
 9464W        W74449  33.175   6.824   5.133
 9465W        W74450   6.312   5.006   1.854
 9466W        W74451  38.411   5.047  14.968
 9467W        W74452  37.911  43.603  12.426
 9468W        W74453  14.269  14.361   4.293
 9469W        W74454   7.264  34.170   0.245
 9470W        W74455  39.310  27.010   3.751
 9471W        W74456   9.202   1.918  13.423
 9472W        W74457  12.208  43.862   4.498
 9473W        W74458  41.621  29.349  12.016
 9474W        W74459  34.281  10.430  12.474
 9475W        W74460   1.569  38.479   2.550
 9476W        W74461  10.341  35.123  12.104
 9477W        W74462  35.434  13.265   4.447
 9478W        W74463  13.787  24.167   2.294
 9479W        W74464   2.306  11.467  14.293
 9480W        W74465  16.302  34.537  14.375
 9481W        W74466  33.867   6.363  10.134
 9482W        W74467  23.265  33.104  12.909
 9483W        W74468   2.738  12.563  12.047
 9484W        W74469  22.250  18.556  14.873
 9485W        W74470   0.337  41.338   3.719
 9486W        W74471   5.237  42.475   3.878
 9487W        W74472  20.006  34.871  14.788
 9488W        W74473  40.076  20.190  10.471
 9489W        W74474  16.762  14.603  14.292
 9490W        W74475  14.211  13.037  12.497
 9491W        W74476   7.696   1.662  14.136
 9492W        W74477   4.709  28.677  14.821
 9493W        W74478  35.503  29.008   4.101
 9494W        W74479  17.189  24.478   3.741
 9495W        W74480  41.736   3.523   3.345
 9496W        W74481  11.098   6.229  11.254
 9497W        W74482  28.067  35.469   2.354
 9498W        W74483   2.011  32.436   4.879
 9499W        W74484   9.778  29.484  10.630
 9500W        W74485   7.208  14.764  13.180
 9501W        W74486  33.160  43.220   1.017
 9502W        W74487  27.754  13.893  11.088
 9503W        W74488  18.049  20.837   0.237
 9504W        W74489  35.908  27.997  10.760
 9505W        W74490  14.014   0.883  10.690
 9506W        W74491  38.197  43.233   0.967
 9507W        W74492  44.718   4.092   0.238
 9508W        W74493  17.652  43.132  11.440
 9509W        W74494   0.474  12.780  12.448
 9510W        W74495  26.948  35.491  13.814
 9511W        W74496  38.414  34.690   3.299
 9512W        W74497  28.578  25.293  14.820
 9513W        W74498  20.499  14.931  10.612
 9514W        W74499   5.280  23.478   4.249
 9515W        W74500  38.093   5.455   0.011
 9516W        W74501  24.935  20.647  14.419
 9517W        W74502  11.244  26.536  10.361
 9518W        W74503   6.840  38.227  11.120
 9519W        W74504  24.167  23.504   2.094
 9520W        W74505  14.624  10.726   1.759
 9521W        W74506  26.528  26.376  10.145
 9522W        W74507  44.244  21.736  11.949
 9523W        W74508  25.460  24.678   0.181
 9524W        W74509   7.344  23.548   4.704
 9525W        W74510  33.403  34.543   2.415
 9526W        W74511  23.568   4.119  13.567
 9527W        W74512  12.301  39.062   0.835
 9528W        W74513  10.849  15.982  13.919
 9529W        W74514  31.490  32.326  14.984
 9530W        W74515   3.885  30.435  13.916
 9531W        W74516  17.351   0.870   5.104
 9532W        W74517  10.397  43.343   4.247
 9533W        W74518  31.133   1.841   4.042
 9534W        W74519  34.432   3.105  10.485
 9535W        W74520  31.538  41.945   0.825
 9536W        W74521  16.348  37.993  14.881
 9537W        W74522   1.295  10.905   2.597
 9538W        W74523  40.034   0.764  14.197
 9539W        W74524  35.576  13.334  12.548
 9540W        W74525  10.183  19.782  13.395
 9541W        W74526  39.717  20.255  14.952
 9542W        W74527  39.062  28.865   2.889
 9543W        W74528  28.207  38.178  11.592
 9544W        W74529  20.288  11.702   4.326
 9545W        W74530  32.016  17.307   3.598
 9546W        W74531  21.143  37.103   4.629
 9547W        W74532  42.464  22.379  14.968
 9548W        W74533  41.310  21.182   5.012
 9549W        W74534  42.795  15.297  14.716
 9550W        W74535  38.093   3.349   1.512
 9551W        W74536  40.064  30.122  11.440
 9552W        W74537  36.415  21.492  10.929
 9553W        W74538   4.148  41.498   2.170
 9554W        W74539   2.852   5.659   2.249
 9555W        W74540  35.255  34.506   2.878
 9556W        W74541   6.303   0.333  11.960
 9557W        W74542   7.198  42.991  10.678
 9558W        W74543  44.016  24.900  11.933
 9559W        W74544  19.709   4.895  13.823
 9560W        W74545  25.715  31.395   1.826
 9561W        W74546  25.964  10.202  12.144
 9562W        W74547   0.938  41.627  14.556
 9563W        W74548  42.950  30.673   2.720
 9564W        W74549   4.896   6.415  14.896
 9565W        W74550  18.114  26.492   2.048
 9566W        W74551   6.084  42.714  13.107
 9567W        W74552  31.328  29.638   1.631
 9568W        W74553  41.458  16.132  14.363
 9569W        W74554  38.703   1.443   3.793
 9570W        W74555  41.454  28.027   0.224
 9571W        W74556  15.193  33.354  12.590
 9572W        W74557  22.642  34.915  14.592
 9573W        W74558  18.121  25.690  13.884
 9574W        W74559  14.163  43.395   1.753
 9575W        W74560  35.828  42.936  12.124
 9576W        W74561  31.167  35.027  13.786
 9577W        W74562  43.874  18.317   3.670
 9578W        W74563  24.041  38.319  13.345
 9579W        W74564   9.726   5.477  11.242
 9580W        W74565   2.839  28.602  13.421
 9581W        W74566   2.334  17.149  12.942
 9582W        W74567  39.839  30.243  11.021
 9583W        W74568  15.962  13.739   4.140
 9584W        W74569  41.837  21.714  10.542
 9585W        W74570  15.410  15.250  11.531
 9586W        W74571  42.529  20.325   0.921
 9587W        W74572  23.937   5.190  12.621
 9588W        W74573  11.743   8.050  13.622
 9589W        W74574  17.550  13.756  14.000
 9590W        W74575  35.392  22.794  12.951
 9591W        W74576  33.560  44.310   2.013
 9592W        W74577  25.856  32.961   0.382
 9593W        W74578  18.756  16.136   1.410
 9594W        W74579  38.108  35.480  13.460
 9595W        W74580  15.817  41.432  11.629
 9596W        W74581  18.543  23.331  11.845
 9597W        W74582  28.086   9.361  10.776
 9598W        W74583  31.942   8.901   0.836
 9599W        W74584  37.883  23.599  10.311
 9600W        W74585  30.937  13.841   2.824
 9601W        W74586  19.120  41.747   1.580
 9602W        W74587  42.419  41.509  13.602
 9603W        W74588  25.933   9.904   3.289
 9604W        W74589  29.120  27.804  11.006
 9605W        W74590  35.560  12.304  10.907
 9606W        W74591  25.040   4.060   3.617
 9607W        W74592  25.685   4.446  12.821
 9608W        W74593  42.290   0.021  14.181
 9609W        W74594  38.129  31.693   1.856
 9610W        W74595  21.914  11.700  14.582
 9611W        W74596  19.315  14.721   2.187
 9612W        W74597  31.481  36.681   5.103
 9613W        W74598   5.929  22.116   2.686
 9614W        W74599  38.602  42.390   2.463
 9615W        W74600  39.482  18.294   0.519
 9616W        W74601   3.425  12.348  13.429
 9617W        W74602  41.307  15.296  11.668
 9618W        W74603  42.661  37.542   3.372
 9619W        W74604  35.381  26.108   1.397
 9620W        W74605  14.809   3.949  13.933
 9621W        W74606  42.381  18.708   4.124
 9622W        W74607  34.111  40.548   2.353
 9623W        W74608  43.313  13.233   1.820
 9624W        W74609  12.514  20.098  12.554
 9625W        W74610   7.638  14.862  12.918
 9626W        W74611  19.176  29.996   2.283
 9627W        W74612  15.725   6.362   0.687
 9628W        W74613  16.532  23.463   0.375
 9629W        W74614  36.457  24.502  14.042
 9630W        W74615  31.123   1.446  10.594
 9631W        W74616  29.549  38.451  14.812
 9632W        W74617   0.876  10.187   0.098
 9633W        W74618  32.329   3.633   4.918
 9634W        W74619  24.240  33.601   1.800
 9635W        W74620  17.573  38.306   4.172
 9636W        W74621  20.693   1.606   3.618
 9637W        W74622  28.482  14.200   1.575
 9638W        W74623  11.394  27.633  11.836
 9639W        W74624  26.226  35.390   2.626
 9640W        W74625   5.199  16.155  11.915
 9641W        W74626  26.624  36.067   9.653
 9642W        W74627  42.817  29.185   4.616
 9643W        W74628  37.042  12.319  14.833
 9644W        W74629  18.715  14.111  11.951
 9645W        W74630  40.712  33.360   3.693
 9646W        W74631   4.952  42.411   1.086
 9647W        W74632   3.309   5.353  14.383
 9648W        W74633  33.849  31.861  12.631
 9649W        W74634  11.050  29.911  14.964
 9650W        W74635   5.514  26.752   2.191
 9651W        W74636  16.239  26.178  10.253
 9652W        W74637  16.109  13.115  13.487
 9653W        W74638  27.438  37.090   4.769
 9654W        W74639   8.651  27.467   3.699
 9655W        W74640  32.035  43.511  11.988
 9656W        W74641  18.047  42.526   3.194
 9657W        W74642  14.130  25.960  11.234
 9658W        W74643  42.576  23.548  11.708
 9659W        W74644  13.213  26.426  12.338
 9660W        W74645  15.814  41.989   1.402
 9661W        W74646   9.163   8.245  13.519
 9662W        W74647  26.255  35.596   4.769
 9663W        W74648  16.143  41.301   4.135
 9664W        W74649   4.920   5.892  14.841
 9665W        W74650  15.219  38.548  14.510
 9666W        W74651   7.089   9.261   4.638
 9667W        W74652  40.226   0.220   4.225
 9668W        W74653   0.062   3.930  12.227
 9669W        W74654  17.520  41.233  12.830
 9670W        W74655  35.219  41.579  12.861
 9671W        W74656  19.743  37.958   4.683
 9672W        W74657  42.438  28.475   1.762
 9673W        W74658  21.140  11.735  13.905
 9674W        W74659  25.744  26.654  11.463
 9675W        W74660  32.527  10.195   4.026
 9676W        W74661   3.383  41.339  14.813
 9677W        W74662  16.108   4.207   4.348
 9678W        W74663  30.868  13.360   2.656
 9679W        W74664  33.334   0.326  10.610
 9680W        W74665  24.591  35.793  10.997
 9681W        W74666   8.465  44.694  11.992
 9682W        W74667  35.446   9.147   0.996
 9683W        W74668  30.597  41.972  14.255
 9684W        W74669   6.856  34.050  12.383
 9685W        W74670  43.108  24.951   4.864
 9686W        W74671  37.584  40.244  10.688
 9687W        W74672   1.214  23.169   2.305
 9688W        W74673  21.077  35.385   4.393
 9689W        W74674  18.167   4.552   0.317
 9690W        W74675  33.929  23.558   4.044
 9691W        W74676  44.679  41.405   1.831
 9692W        W74677  10.635  24.818   4.552
 9693W        W74678  12.984  32.413  11.595
 9694W        W74679  18.344  38.905  13.213
 9695W        W74680  19.373  11.851  13.132
 9696W        W74681  36.529  33.170   2.422
 9697W        W74682  38.348  14.237  14.802
 9698W        W74683  26.195  27.018   2.174
 9699W        W74684   7.751  40.910   0.953
 9700W        W74685  23.215   5.469   2.100
 9701W        W74686  26.442  10.471   1.252
 9702W        W74687   7.230  19.746   1.668
 9703W        W74688  43.054   2.503   1.580
 9704W        W74689   3.754  11.822  11.724
 9705W        W74690  16.373  30.136   1.822
 9706W        W74691  31.193  16.465  12.556
 9707W        W74692   5.904  20.547  12.900
 9708W        W74693  33.198  21.644   2.207
 9709W        W74694  22.116  35.425   4.441
 9710W        W74695   2.772  31.877   1.806
 9711W        W74696  13.254  30.997   2.244
 9712W        W74697   5.796  33.938   3.276
 9713W        W74698  42.094  29.538  11.926
 9714W        W74699  38.158   1.196  13.030
 9715W        W74700  26.184  16.774   0.328
 9716W        W74701  16.895  36.217   4.761
 9717W        W74702  11.696  16.965   0.946
 9718W        W74703  41.913  10.480  13.984
 9719W        W74704  27.085   0.667  12.376
 9720W        W74705   7.493  11.216   4.200
 9721W        W74706  40.767  39.590   2.652
 9722W        W74707   7.704  34.943  14.300
 9723W        W74708  36.828  10.191  12.129
 9724W        W74709   3.438   7.640  14.842
 9725W        W74710  42.768  18.267   0.330
 9726W        W74711   6.442  42.447   1.778
 9727W        W74712  19.104  19.020  13.608
 9728W        W74713  42.190  10.291  12.022
 9729W        W74714  13.200   9.934  11.968
 9730W        W74715  38.209  35.415  14.331
 9731W        W74716  31.420   9.422  14.176
 9732W        W74717  37.569   3.665   1.862
 9733W        W74718  37.636  36.001   2.483
 9734W        W74719   4.843  41.282   0.021
 9735W        W74720   4.620  20.982  11.254
 9736W        W74721  11.372  31.558  14.266
 9737W        W74722  41.950  44.314  14.275
 9738W        W74723   5.829  44.890  14.428
 9739W        W74724   0.996  22.260  14.950
 9740W        W74725  35.562   9.586  14.789
 9741W        W74726  18.153   8.764   3.186
 9742W        W74727  27.416  10.318  14.911
 9743W        W74728  18.521  15.650   3.298
 9744W        W74729  34.512   5.917   2.141
 9745W        W74730   2.744  29.702   0.348
 9746W        W74731  22.642  37.999   0.758
 9747W        W74732   3.782  30.381   4.516
 9748W        W74733   5.888   2.335  14.529
 9749W        W74734  22.171  28.146   2.390
 9750W        W74735  12.574   1.192   1.303
 9751W        W74736   8.377  29.607  10.669
 9752W        W74737  44.908  17.786  14.732
 9753W        W74738  33.936  44.537  13.317
 9754W        W74739  31.843  23.693  11.642
 9755W        W74740  13.782   5.888   1.228
 9756W        W74741   3.363  31.562  13.444
 9757W        W74742  15.792  43.094   3.586
 9758W        W74743   8.211  28.121   3.681
 9759W        W74744   9.193  20.145   3.791
 9760W        W74745  39.809   0.835   0.029
 9761W        W74746  26.673  16.604   3.634
 9762W        W74747  36.094  22.025  12.007
 9763W        W74748   2.206  35.119   2.632
 9764W        W74749  44.418  43.332  10.130
 9765W        W74750  14.424  21.088  13.041
 9766W        W74751   0.551   4.470   1.343
 9767W        W74752  22.749  18.053   2.770
 9768W        W74753   9.703   9.685   3.322
 9769W        W74754  27.664   6.070  11.986
 9770W        W74755   5.768  19.162  12.468
 9771W        W74756   2.619  23.731  12.933
 9772W        W74757  22.165  35.554   3.412
 9773W        W74758  42.571   3.229   1.861
 9774W        W74759  32.962  29.479   3.756
 9775W        W74760  19.459  31.628  13.704
 9776W        W74761   3.922  14.795   5.007
 9777W        W74762  12.868  36.810  14.452
 9778W        W74763  43.482  25.952  14.819
 9779W        W74764  12.422  10.137   1.930
 9780W        W74765  19.104  21.817   4.514
 9781W        W74766  28.001  18.322   2.225
 9782W        W74767  25.706  36.412  14.279
 9783W        W74768  37.553  36.080   3.349
 9784W        W74769  25.930   2.988   3.324
 9785W        W74770   5.562  17.631  14.306
 9786W        W74771  33.952   6.415  13.642
 9787W        W74772  40.788   6.856  14.453
 9788W        W74773   3.908  15.591  14.323
 9789W        W74774  24.374   6.473   1.856
 9790W        W74775  18.711  12.047   1.288
 9791W        W74776  17.313  41.777  13.931
 9792W        W74777  33.515  34.800   1.375
 9793W        W74778  26.278  20.912  11.160
 9794W        W74779  13.336  12.499  11.632
 9795W        W74780   9.574  32.051   3.006
 9796W        W74781   2.350  23.973  12.522
 9797W        W74782  12.273   0.005   4.025
 9798W        W74783   3.829  35.663  10.699
 9799W        W74784   0.632  21.991  11.872
 9800W        W74785  36.049  33.430  12.991
 9801W        W74786  31.091  42.324   3.221
 9802W        W74787  26.303  27.636   4.687
 9803W        W74788   2.014  11.379  13.650
 9804W        W74789  40.460  27.893   2.654
 9805W        W74790   6.727  22.914   3.414
 9806W        W74791  28.725  43.463   2.170
 9807W        W74792  42.803  31.579   1.326
 9808W        W74793  39.873  29.884   2.878
 9809W        W74794  28.507   0.170   0.787
 9810W        W74795  26.211  39.489  14.826
 9811W        W74796   4.426   7.373  11.466
 9812W        W74797  33.667   6.842   2.618
 9813W        W74798  38.527  22.502   0.257
 9814W        W74799  38.783   5.232   2.331
 9815W        W74800  36.545  38.453   4.435
 9816W        W74801  27.506   7.187  11.996
 9817W        W74802  18.259   6.187   1.731
 9818W        W74803  15.091   7.730   4.024
 9819W        W74804  21.684   1.785   4.715
 9820W        W74805  10.424  20.250   3.211
 9821W        W74806   5.956  41.977   0.884
 9822W        W74807  42.514   5.448  11.048
 9823W        W74808  17.700   2.086   3.720
 9824W        W74809   4.288  19.795   1.270
 9825W        W74810  40.279  40.032  11.176
 9826W        W74811  30.664  33.619  14.649
 9827W        W74812  10.686  33.430  14.419
 9828W        W74813  37.201  40.294  12.879
 9829W        W74814   1.775  33.624  12.850
 9830W        W74815   7.101  21.194   0.770
 9831W        W74816  16.728   0.822  11.134
 9832W        W74817  19.546   9.614  12.511
 9833W        W74818  11.145  39.833   4.587
 9834W        W74819  15.165   8.103   2.229
 9835W        W74820   3.227  24.198  14.654
 9836W        W74821  33.634   0.218   1.859
 9837W        W74822  27.985  33.495  13.062
 9838W        W74823   1.028  14.782  12.407
 9839W        W74824  37.016  13.586   0.475
 9840W        W74825  17.698  39.089   0.832
 9841W        W74826  16.236  44.323   4.301
 9842W        W74827  24.714  38.875  13.538
 9843W        W74828   3.928  28.118   2.239
 9844W        W74829   7.188  16.819  12.427
 9845W        W74830  16.004  27.711   2.281
 9846W        W74831   3.577  11.836   1.927
 9847W        W74832  39.462  12.809  13.453
 9848W        W74833  31.764  30.558   0.463
 9849W        W74834   3.988  43.791   2.233
 9850W        W74835  39.042  19.006   3.253
 9851W        W74836  27.578  44.307   2.450
 9852W        W74837  43.392   4.813   1.464
 9853W        W74838  12.676  14.926   5.113
 9854W        W74839   6.951  15.136   2.274
 9855W        W74840  39.533  43.282   1.877
 9856W        W74841   8.292  13.975   4.691
 9857W        W74842  27.602  30.639  14.964
 9858W        W74843  42.823  12.868  12.010
 9859W        W74844  17.152   9.100  11.823
 9860W        W74845  35.630   4.731   0.351
 9861W        W74846  15.510  36.814   3.843
 9862W        W74847  22.128  31.914   2.009
 9863W        W74848  28.210  35.353   4.192
 9864W        W74849  28.864  28.146  12.011
 9865W        W74850   7.949  41.256  10.804
 9866W        W74851  22.568  10.007   2.275
 9867W        W74852  27.613   9.689  11.511
 9868W        W74853   1.984  12.438  14.428
 9869W        W74854  19.364  37.828  13.452
 9870W        W74855  11.736   0.292   0.840
 9871W        W74856   7.322  41.064   1.362
 9872W        W74857  17.789  42.418   0.950
 9873W        W74858   2.182  15.163  14.279
 9874W        W74859  22.127   3.433  14.139
 9875W        W74860  33.885  18.089   0.839
 9876W        W74861  12.409  12.919   3.041
 9877W        W74862  10.984  34.504   4.249
 9878W        W74863  16.672   9.391   3.244
 9879W        W74864   8.213  37.095  10.511
 9880W        W74865  24.928  21.711   3.105
 9881W        W74866  30.690  17.597  13.731
 9882W        W74867   1.397  21.628  10.382
 9883W        W74868   8.858  26.373   1.193
 9884W        W74869  19.065  26.676  10.438
 9885W        W74870   2.091  33.996  10.704
 9886W        W74871  36.585   7.724   4.142
 9887W        W74872  36.097  14.593   0.373
 9888W        W74873  43.272   0.190   4.083
 9889W        W74874  20.228   8.154   0.359
 9890W        W74875  25.327   0.971   3.899
 9891W        W74876   9.634  32.958   4.001
 9892W        W74877   8.645  25.127  10.269
 9893W        W74878  15.323   8.188   4.041
 9894W        W74879  17.469  44.301  12.619
 9895W        W74880  38.321  29.941  13.232
 9896W        W74881  23.660  37.095  13.346
 9897W        W74882  26.568  32.711   3.165
 9898W        W74883  44.274   2.910  12.887
 9899W        W74884  13.150  22.174  11.550
 9900W        W74885  10.851  37.814  11.940
 9901W        W74886  39.047  18.483   3.226
 9902W        W74887  37.022  16.322   1.071
 9903W        W74888   7.835   4.825  12.674
 9904W        W74889  21.505  10.254   4.232
 9905W        W74890  41.736  39.963   1.869
 9906W        W74891   4.623   0.910  12.891
 9907W        W74892  25.744   5.848  12.602
 9908W        W74893  21.998  37.861   2.692
 9909W        W74894  29.940  41.230  12.050
 9910W        W74895   5.424  10.645  12.497
 9911W        W74896  37.014   9.420   5.235
 9912W        W74897  26.209  26.756   4.954
 9913W        W74898  10.158  35.658   3.700
 9914W        W74899  16.701  19.351   9.945
 9915W        W74900  24.811  33.957   0.231
 9916W        W74901   3.877   4.650  13.219
 9917W        W74902  26.204  39.955   0.578
 9918W        W74903  16.087  35.475   1.892
 9919W        W74904  44.919  33.987   4.871
 9920W        W74905  10.075  19.724  10.752
 9921W        W74906  11.759   1.999  14.403
 9922W        W74907  37.326   1.884  14.484
 9923W        W74908  29.103  42.388   2.715
 9924W        W74909  35.377   8.617   0.950
 9925W        W74910   1.338  11.417   2.675
 9926W        W74911  32.428   5.001  10.484
 9927W        W74912  10.167   2.523  11.930
 9928W        W74913  41.513  24.465   0.906
 9929W        W74914   9.981  25.962   2.281
 9930W        W74915  20.339  28.589  12.070
 9931W        W74916  14.771  40.501  10.694
 9932W        W74917   6.288  11.063  10.824
 9933W        W74918  26.959  32.602   2.708
 9934W        W74919  30.357  12.698   2.334
 9935W        W74920  38.435  31.155   2.439
 9936W        W74921  26.271  19.537   0.743
 9937W        W74922   3.462  13.375   4.970
 9938W        W74923  43.458   8.868  10.517
 9939W        W74924   3.863  29.860   2.701
 9940W        W74925   2.832   8.203  13.109
 9941W        W74926   4.363  29.282  13.363
 9942W        W74927  15.150  28.586   1.732
 9943W        W74928  40.372  41.695   2.454
 9944W        W74929  29.009  24.569  10.643
 9945W        W74930  21.564  20.238   4.715
 9946W        W74931   4.294  14.912   1.342
 9947W        W74932  38.217  18.541   3.649
 9948W        W74933  42.134  23.163   3.776
 9949W        W74934  19.449  21.541   9.974
 9950W        W74935  40.281  44.479   0.682
 9951W        W74936  28.109  20.969   0.952
 9952W        W74937  17.738  42.463   1.453
 9953W        W74938  37.414  29.565   0.279
 9954W        W74939  38.939  11.664   2.883
 9955W        W74940   0.807  36.749   2.336
 9956W        W74941  43.944   6.598  14.971
 9957W        W74942  36.154  20.163   1.972
 9958W        W74943   1.031  17.625   3.866
 9959W        W74944  12.090  29.506   2.754
 9960W        W74945  30.850  36.339   4.279
 9961W        W74946  24.549  15.031  14.578
 9962W        W74947   8.806  41.389  10.914
 9963W        W74948  37.567   9.921   4.135
 9964W        W74949  18.906   4.970   1.869
 9965W        W74950   1.255  27.784   3.125
 9966W        W74951  28.072  25.666   1.360
 9967W        W74952  16.102   0.455   2.793
 9968W        W74953   8.700  10.384  12.396
 9969W        W74954  24.925  31.930   0.871
 9970W        W74955  42.813  37.762  14.695
 9971W        W74956   3.278   7.849   0.366
 9972W        W74957  24.641  37.353  14.377
 9973W        W74958  41.866  24.933  12.036
 9974W        W74959  16.775  36.922   4.115
 9975W        W74960  21.764  35.432   0.164
 9976W        W74961  15.164   8.104  12.363
 9977W        W74962  32.842  23.617  11.572
 9978W        W74963  24.085   5.402   2.382
 9979W        W74964  42.786  42.426   4.579
 9980W        W74965   2.764  39.727   2.271
 9981W        W74966  12.995  19.932   3.836
 9982W        W74967   4.239  43.929   0.652
 9983W        W74968  15.140  25.528  14.799
 9984W        W74969  34.633  18.144  12.553
 9985W        W74970  35.219   1.344   0.471
 9986W        W74971   2.689  25.088  11.884
 9987W        W74972  21.719   9.836   0.420
 9988W        W74973  26.464  42.339   1.382
 9989W        W74974   1.159  40.428  14.979
 9990W        W74975  33.172  18.239   3.294
 9991W        W74976  29.893  27.156   0.420
 9992W        W74977  41.112  34.211  12.527
 9993W        W74978   1.087  17.578  13.270
 9994W        W74979  29.170  21.550   1.420
 9995W        W74980  43.220  21.217  10.980
 9996W        W74981  43.503  19.083  12.593
 9997W        W74982  32.008  21.983  12.616
 9998W        W74983  22.763  27.390   2.729
 9999W        W74984  33.677  30.118  11.009
10000W        W74985  23.244  27.149  13.445
10001W        W74986  28.460  24.914   0.224
10002W        W74987  43.773  24.264   3.322
10003W        W74988  26.647   7.146   1.407
10004W        W74989  29.000   3.109  14.954
10005W        W74990  11.827  25.980  12.943
10006W        W74991   2.865  16.159   1.296
10007W        W74992  37.943   4.940  13.004
10008W        W74993  26.802  10.328  11.849
10009W        W74994  10.811  34.126   0.751
10010W        W74995  43.400  44.521  14.968
10011W        W74996  39.916  41.927   1.461
10012W        W74997  22.555  17.264  11.608
10013W        W74998  11.385  39.795  13.384
10014W        W74999  41.885  17.818  14.768
10015W        W75000  27.691  28.501   0.481
10016W        W75001   2.456   4.359   2.722
10017W        W75002  22.895   7.799  11.270
10018W        W75003   7.395  21.079  11.846
10019W        W75004   8.637  23.768  13.081
10020W        W75005  23.263   7.288   4.195
10021W        W75006   6.356   1.739   4.609
10022W        W75007  36.041  43.719   1.007
10023W        W75008  31.041  34.986   4.627
10024W        W75009  21.722  39.380   3.636
10025W        W75010  29.574  13.884   0.832
10026W        W75011  13.587  11.343  14.245
10027W        W75012  13.538  36.947   3.777
10028W        W75013  24.028  23.735   4.191
10029W        W75014  11.977  12.542   0.854
10030W        W75015   1.306  12.050   2.354
10031W        W75016  16.323   8.119   4.131
10032W        W75017  27.428  10.679  13.595
10033W        W75018  22.274  25.690   3.287
10034W        W75019  41.225  29.756  12.967
10035W        W75020  26.756   7.592   4.194
10036W        W75021   3.906  20.447  14.813
10037W        W75022   3.208  13.267  11.621
10038W        W75023   3.296   7.848   3.438
10039W        W75024  26.336  18.043   3.554
10040W        W75025  15.291   7.865   3.547
10041W        W75026  20.288  12.707   4.933
10042W        W75027  21.949  16.142  12.928
10043W        W75028   0.284   4.504   0.370
10044W        W75029   0.549  24.127   4.600
10045W        W75030  40.123  19.086   4.577
10046W        W75031  20.648  36.922   0.885
10047W        W75032  41.375  28.051  11.959
10048W        W75033  11.340  19.656   4.611
10049W        W75034  40.246  44.253  13.435
10050W        W75035  39.558   1.246   3.574
10051W        W75036  34.547   8.727   0.797
10052W        W75037  19.944  21.564   4.575
10053W        W75038  39.790  33.941   4.608
10054W        W75039  44.266  32.370  14.903
10055W        W75040  24.546   3.747  11.120
10056W        W75041  25.493   0.932  11.712
10057W        W75042  42.881  34.589  14.437
10058W        W75043   6.948  44.817  12.087
10059W        W75044  40.463   3.983   1.029
10060W        W75045  27.965  20.807  12.445
10061W        W75046   8.394  33.193   1.774
10062W        W75047   8.342  14.138  14.548
10063W        W75048  16.306   4.698   2.720
10064W        W75049  33.613  12.346  11.053
10065W        W75050   5.284  44.000  11.421
10066W        W75051   2.310  27.531  14.026
10067W        W75052  30.105  39.061   1.260
10068W        W75053  38.415  40.110   0.481
10069W        W75054  12.064  40.986   0.404
10070W        W75055   7.773  23.136  10.672
10071W        W75056  44.201  12.749   4.062
10072W        W75057  13.817  44.423  13.798
10073W        W75058   1.403  37.919   4.745
10074W        W75059  14.843  16.613  13.479
10075W        W75060  40.048  43.987   2.567
10076W        W75061  25.430  21.079  11.949
10077W        W75062  44.799  21.989  10.776
10078W        W75063  35.001  20.172  12.464
10079W        W75064  16.057  28.556   0.965
10080W        W75065  22.045  14.667   4.674
10081W        W75066  33.640  21.516  14.522
10082W        W75067  38.105   6.204   3.972
10083W        W75068  28.009  12.161  12.930
10084W        W75069  34.477   9.390  11.447
10085W        W75070  14.609  27.959   1.357
10086W        W75071   2.511  40.595   2.319
10087W        W75072  18.572  43.856  12.879
10088W        W75073   9.859  29.070   4.755
10089W        W75074  21.244  16.713   2.861
10090W        W75075  24.121   2.275  11.624
10091W        W75076  35.418  32.040   4.605
10092W        W75077  36.271  41.331   4.613
10093W        W75078  17.279  36.046   0.263
10094W        W75079  19.575  25.785  11.496
10095W        W75080  12.641  30.174   4.621
10096W        W75081  24.651   7.204  12.173
10097W        W75082   6.653   3.420  14.568
10098W        W75083  20.036  24.195  14.301
10099W        W75084  44.942  19.519  10.662
10100W        W75085  17.753  32.668  14.448
10101W        W75086  39.514  34.065   2.288
10102W        W75087   6.175  12.926   2.781
10103W        W75088   7.248   5.943   0.488
10104W        W75089  21.087  25.576   0.954
10105W        W75090  20.546  40.206   2.828
10106W        W75091  20.515  25.574  12.882
10107W        W75092  14.584   1.581  12.965
10108W        W75093  10.708  10.609   4.214
10109W        W75094   1.561  34.881   2.981
10110W        W75095  26.016  16.318  12.920
10111W        W75096  39.000  27.243   0.347
10112W        W75097  30.587  38.296  13.589
10113W        W75098  29.933  19.553   1.381
10114W        W75099  44.611  12.178   3.765
10115W        W75100  18.580  16.409   1.859
10116W        W75101  10.818  34.025  11.440
10117W        W75102  44.600  21.321  12.880
10118W        W75103   6.059   2.731   4.148
10119W        W75104  40.311   4.681   3.817
10120W        W75105  34.099   7.867  11.177
10121W        W75106   4.967  40.627   4.070
10122W        W75107  43.466  22.872  11.134
10123W        W75108  33.241  29.939   4.584
10124W        W75109   3.190   7.830  12.335
10125W        W75110  12.091  18.716  14.212
10126W        W75111   3.796  33.288   0.625
10127W        W75112   2.248  43.600  13.378
10128W        W75113  24.975   2.248  13.876
10129W        W75114  29.997  43.687   3.458
10130W        W75115  44.269  40.417   1.375
10131W        W75116  31.390  40.601  13.461
10132W        W75117  36.052  43.991  14.552
10133W        W75118  20.498   6.904   3.658
10134W        W75119  25.457  15.047  13.882
10135W        W75120  29.835  33.032  11.608
10136W        W75121  43.368  29.102  10.634
10137W        W75122  23.145  33.840  11.088
10138W        W75123   5.394  33.977  11.177
10139W        W75124  38.285  13.822   0.489
10140W        W75125  42.698  32.009   1.850
10141W        W75126  26.345  22.633   5.069
10142W        W75127  23.977   9.132  14.928
10143W        W75128  41.318  18.558   4.179
10144W        W75129  29.968  15.865   1.883
10145W        W75130  19.553  42.795  13.007
10146W        W75131   6.684  19.160  12.449
10147W        W75132  18.994   1.311   3.173
10148W        W75133  13.898  42.928  12.877
10149W        W75134  44.230  32.900  14.901
10150W        W75135  15.076   6.324  12.610
10151W        W75136  21.057   6.659  10.661
10152W        W75137  30.731  13.752  14.565
10153W        W75138  15.485  12.186  14.787
10154W        W75139  28.015   7.868   3.918
10155W        W75140   3.385   9.701  11.720
10156W        W75141  43.447   6.538   1.830
10157W        W75142  11.728  21.584   4.029
10158W        W75143  43.036  38.459  11.988
10159W        W75144  38.343  23.657  14.035
10160W        W75145  17.320  30.104  13.456
10161W        W75146  37.471  14.989   2.319
10162W        W75147  19.297  32.584  14.801
10163W        W75148   1.039  29.568   1.792
10164W        W75149  40.308   1.274   0.426
10165W        W75150  13.194  34.455  12.905
10166W        W75151  20.159   1.704  12.999
10167W        W75152  20.810  40.405   1.217
10168W        W75153   6.023   5.949   0.886
10169W        W75154  20.980  40.901   2.331
10170W        W75155  13.403   2.276   4.620
10171W        W75156  16.280  39.973  12.869
10172W        W75157  24.120  15.079   3.640
10173W        W75158   7.833  30.451  14.964
10174W        W75159   7.017  17.689  14.512
10175W        W75160  22.265  42.739  11.928
10176W        W75161  42.011  43.796  14.416
10177W        W75162  34.155  16.275  14.941
10178W        W75163  42.455  43.045  12.559
10179W        W75164  36.496  27.628   3.195
10180W        W75165  27.666  14.335  10.802
10181W        W75166  28.475  14.884   4.584
10182W        W75167  22.494  35.084   3.942
10183W        W75168   5.572   0.491   2.249
10184W        W75169  13.850   2.000  12.181
10185W        W75170   6.393  37.835  12.855
10186W        W75171  20.524  11.345  12.906
10187W        W75172  19.716   2.386  10.879
10188W        W75173  30.638  18.204  12.015
10189W        W75174  29.090  13.556  10.773
10190W        W75175  34.325   9.242   0.037
10191W        W75176   1.933   4.310  14.267
10192W        W75177  18.428   0.949  11.172
10193W        W75178  16.460   8.967  10.952
10194W        W75179  22.951  22.614  13.517
10195W        W75180  10.486   1.326   3.682
10196W        W75181   0.327  35.373   3.027
10197W        W75182  13.162  22.479  12.994
10198W        W75183  40.027  21.226   2.824
10199W        W75184   5.216  33.395   4.988
10200W        W75185  26.986  43.526   1.766
10201W        W75186  43.780  39.269   2.388
10202W        W75187  21.560  15.355   4.120
10203W        W75188  23.525   5.497   3.714
10204W        W75189  43.440  33.586  11.977
10205W        W75190  24.643  33.002  12.142
10206W        W75191  18.267  39.374  10.954
10207W        W75192  10.846   4.737   9.589
10208W        W75193   6.917   2.065  10.397
10209W        W75194  35.095   3.207  14.926
10210W        W75195  22.685  23.113   2.541
10211W        W75196  43.555  13.879   3.588
10212W        W75197  16.703  16.617   4.707
10213W        W75198  23.257  26.722   3.189
10214W        W75199  43.472  25.074  14.944
10215W        W75200   2.008  40.037  10.842
10216W        W75201  20.078  29.345   1.248
10217W        W75202  36.450  36.049   3.272
10218W        W75203   3.619   8.719   5.070
10219W        W75204  30.510  32.931   4.265
10220W        W75205  23.509   8.813   0.335
10221W        W75206  30.888  30.213   2.355
10222W        W75207  40.462  35.387  12.538
10223W        W75208   4.103   6.695   1.160
10224W        W75209  20.134  41.641   4.093
10225W        W75210   7.290   8.752   3.238
10226W        W75211   9.310  35.321  14.747
10227W        W75212  32.926  27.297  12.106
10228W        W75213  25.654  44.387  13.962
10229W        W75214  14.603  44.220  13.564
10230W        W75215  21.125  39.928  13.360
10231W        W75216  10.240   8.203  10.761
10232W        W75217  14.541  15.800   2.347
10233W        W75218  25.548  20.407  11.211
10234W        W75219   6.470  39.247   2.331
10235W        W75220  35.401  41.437  12.370
10236W        W75221  38.860   3.459  12.348
10237W        W75222  29.595   1.744   4.185
10238W        W75223  31.119   1.487   1.389
10239W        W75224  18.850  15.908   0.709
10240W        W75225   6.636   7.901   3.696
10241W        W75226  34.442   6.778  13.211
10242W        W75227   2.997  31.108  14.326
10243W        W75228   3.769  35.046   2.706
10244W        W75229  24.005   6.353   0.014
10245W        W75230   9.643  16.129  12.066
10246W        W75231  32.489  19.718   4.750
10247W        W75232   2.467  24.004   3.615
10248W        W75233  23.780  14.334  12.061
10249W        W75234  27.148  18.106  13.457
10250W        W75235  27.257  14.087  11.078
10251W        W75236  21.156  31.417   4.108
10252W        W75237  27.204   1.868   0.760
10253W        W75238  39.388  24.944   2.789
10254W        W75239  33.928  23.337   2.683
10255W        W75240   6.102  35.582   0.233
10256W        W75241  31.166  28.635   2.371
10257W        W75242  37.856   3.848   1.406
10258W        W75243  10.250   3.296   2.213
10259W        W75244   9.874  20.929   4.100
10260W        W75245  28.586  24.384   0.306
10261W        W75246  31.972  26.296  13.967
10262W        W75247  37.449   8.391   4.167
10263W        W75248   0.003   0.751   2.844
10264W        W75249  10.670  39.810  13.889
10265W        W75250  31.735  30.852  14.776
10266W        W75251  36.524  33.826   3.767
10267W        W75252  19.080  34.413   2.671
10268W        W75253  30.616  16.092   2.650
10269W        W75254  30.670  13.789  14.010
10270W        W75255  27.891  19.445  14.835
10271W        W75256  22.810  37.662   3.169
10272W        W75257  17.190   0.274  14.488
10273W        W75258   3.103  21.988   3.524
10274W        W75259  42.625  36.805  13.786
10275W        W75260  38.581  21.770   3.961
10276W        W75261  29.936   7.615   1.759
10277W        W75262  22.293  25.059   3.811
10278W        W75263   8.853  27.678  12.335
10279W        W75264   9.371  24.548   0.635
10280W        W75265  29.340  24.425  12.050
10281W        W75266   8.226  12.663  10.564
10282W        W75267   5.628  17.347   0.369
10283W        W75268  39.604  29.132  14.132
10284W        W75269   0.285   0.300   1.116
10285W        W75270  16.532  14.146   4.451
10286W        W75271  23.804  13.905   0.880
10287W        W75272  21.346   2.167  11.504
10288W        W75273  42.518   0.964  12.585
10289W        W75274  39.817  32.862  11.918
10290W        W75275   3.338  35.579  12.525
10291W        W75276   6.359  30.848  12.086
10292W        W75277  36.966  19.996  13.562
10293W        W75278  12.778  15.911   2.740
10294W        W75279  28.433  32.919   1.238
10295W        W75280  27.512   7.173   3.839
10296W        W75281  24.590  41.574  13.949
10297W        W75282   7.993  32.606  12.206
10298W        W75283  39.896  27.606   0.881
10299W        W75284  15.160  11.800   0.802
10300W        W75285  30.712  12.244   1.410
10301W        W75286  34.431  21.727   0.946
10302W        W75287  28.947   2.222   1.525
10303W        W75288  39.246  20.597   2.408
10304W        W75289  22.756  22.073  12.613
10305W        W75290  32.566  12.394  12.875
10306W        W75291  25.662  41.795   0.343
10307W        W75292  28.232   5.385   4.528
10308W        W75293   3.950  32.039   1.511
10309W        W75294  36.387  40.604  12.784
10310W        W75295  29.638  28.588  14.440
10311W        W75296  15.656  35.939  14.117
10312W        W75297  40.797  39.892  13.923
10313W        W75298  10.867  40.528  13.307
10314W        W75299  22.920  23.667   0.250
10315W        W75300  22.155  40.583   1.008
10316W        W75301   5.297   0.456  13.369
10317W        W75302  28.498   7.796  12.125
10318W        W75303  44.804  32.039   3.120
10319W        W75304  12.110  17.423  14.783
10320W        W75305  21.667  11.988  12.945
10321W        W75306  41.374   4.363   0.183
10322W        W75307  24.154  42.464   2.968
10323W        W75308  21.481  10.769   0.043
10324W        W75309  40.440  34.862   1.301
10325W        W75310  22.534   5.416  12.104
10326W        W75311  14.204  34.903   1.965
10327W        W75312  43.822  37.065  12.045
10328W        W75313   5.427  19.975   4.022
10329W        W75314  10.345  22.982  11.673
10330W        W75315  36.011  25.599  14.834
10331W        W75316  16.102  43.056   0.769
10332W        W75317  36.948  18.050   2.853
10333W        W75318  10.868  38.840  11.120
10334W        W75319  38.608  37.665   0.281
10335W        W75320   8.579  17.565  10.663
10336W        W75321  39.286  41.361  14.254
10337W        W75322  22.219  18.187  11.094
10338W        W75323  35.015  39.310   3.809
10339W        W75324  43.129  27.449   4.409
10340W        W75325  28.648  24.819   4.205
10341W        W75326  33.615  22.689   4.092
10342W        W75327  29.756  14.865   1.739
10343W        W75328  36.000  10.771   0.426
10344W        W75329  41.401  44.464   1.890
10345W        W75330  25.638  23.045  10.815
10346W        W75331   9.812   7.864  10.812
10347W        W75332   7.375  10.786  11.341
10348W        W75333  27.533  24.033  10.923
10349W        W75334  11.428  33.845  13.423
10350W        W75335  35.136  17.668   3.730
10351W        W75336  34.574  26.103  12.946
10352W        W75337  30.780  33.335  14.187
10353W        W75338  39.027   7.633   2.438
10354W        W75339  15.578  16.584   1.772
10355W        W75340  27.733  39.969  14.210
10356W        W75341  36.279  33.868  13.953
10357W        W75342  39.358   8.599  14.309
10358W        W75343  32.875  36.729   2.845
10359W        W75344   4.773  42.840   3.241
10360W        W75345  20.756  21.034   3.698
10361W        W75346   7.400  23.019   0.263
10362W        W75347  43.868   2.008  14.282
10363W        W75348  44.285  13.585  12.819
10364W        W75349  13.145   7.839   1.979
10365W        W75350  36.143   5.742   4.138
10366W        W75351  44.323  15.037   4.095
10367W        W75352  10.961  43.271  11.392
10368W        W75353  28.206  21.545  12.993
10369W        W75354  20.199  21.590  14.702
10370W        W75355  34.535  30.168   0.468
10371W        W75356  17.188  16.297  13.551
10372W        W75357  27.707  34.626  13.116
10373W        W75358  24.046  26.740  14.789
10374W        W75359  12.214   0.277  10.916
10375W        W75360  15.313  26.478  12.020
10376W        W75361  13.499  18.337   1.224
10377W        W75362  10.636  43.331  13.904
10378W        W75363   6.893  14.125   0.294
10379W        W75364  10.393  25.750  12.880
10380W        W75365  28.046  11.638  11.632
10381W        W75366  11.226  14.075  14.306
10382W        W75367  12.326  20.044  14.335
10383W        W75368   1.739   4.131  10.887
10384W        W75369  37.208  17.605   1.919
10385W        W75370  15.115  19.822   3.586
10386W        W75371   1.513   0.018   1.238
10387W        W75372   3.800   7.780  13.507
10388W        W75373  19.850   8.276   1.970
10389W        W75374  27.918   9.152   2.676
10390W        W75375   8.346  21.742   4.618
10391W        W75376   4.919   0.596  14.877
10392W        W75377   9.566  38.289   2.145
10393W        W75378  34.027  40.088  11.747
10394W        W75379  39.992   2.708  13.082
10395W        W75380  10.492  13.645   3.664
10396W        W75381  23.556  27.944   3.609
10397W        W75382  26.172   7.656   1.913
10398W        W75383  38.361  26.704  12.095
10399W        W75384  23.175  11.122   1.329
10400W        W75385  19.505  21.606  11.271
10401W        W75386  21.879   4.423   2.870
10402W        W75387  32.057   7.410  10.395
10403W        W75388  25.334  43.344  14.131
10404W        W75389  21.712  16.734   4.449
10405W        W75390  42.227  23.277  14.928
10406W        W75391  36.979  36.174  14.606
10407W        W75392  31.651  33.217  14.047
10408W        W75393   8.365  27.186   4.726
10409W        W75394  28.493  23.482  10.653
10410W        W75395   7.584  18.758  10.868
10411W        W75396  17.350  18.614   1.834
10412W        W75397  36.984   1.732   3.693
10413W        W75398  16.433   7.175   1.667
10414W        W75399   7.646  19.589   1.933
10415W        W75400  10.884   6.857   5.074
10416W        W75401  42.331  44.537  12.645
10417W        W75402  12.710   1.651  12.313
10418W        W75403  33.106   7.870  14.973
10419W        W75404  19.747  24.942  11.101
10420W        W75405  36.138  20.425   5.061
10421W        W75406  37.404  44.060  13.835
10422W        W75407  12.318   5.257   4.735
10423W        W75408  14.120  38.784  11.470
10424W        W75409  27.144  16.262  13.999
10425W        W75410  22.725   5.137  12.986
10426W        W75411   2.624  41.378   1.940
10427W        W75412  28.913   8.097   2.314
10428W        W75413  42.298  43.769   4.765
10429W        W75414  30.238  24.414  13.790
10430W        W75415  19.674  33.998  14.339
10431W        W75416   7.485  42.909  14.975
10432W        W75417   3.953  30.009  14.898
10433W        W75418   3.086  17.802  10.691
10434W        W75419  42.758  23.967  14.875
10435W        W75420   9.521  35.126   0.184
10436W        W75421  24.522  23.012  14.786
10437W        W75422  39.898  37.335  12.281
10438W        W75423  31.398   1.461   2.746
10439W        W75424   5.650  17.237   2.066
10440W        W75425  41.399  24.831  11.444
10441W        W75426   8.619  13.663   0.760
10442W        W75427  31.564  21.659   4.274
10443W        W75428   4.976   4.769   5.533
10444W        W75429  34.859  12.194   0.076
10445W        W75430  44.534  17.854  14.306
10446W        W75431  27.523   8.657  11.517
10447W        W75432  14.996  12.305  14.850
10448W        W75433  34.866  29.791  12.933
10449W        W75434  35.672  21.728  11.901
10450W        W75435  23.553   5.824  14.959
10451W        W75436  39.011  30.114  10.982
10452W        W75437  14.782  28.377   5.094
10453W        W75438  34.927  18.849  10.837
10454W        W75439  36.585   4.509  14.915
10455W        W75440  32.223   1.698  12.527
10456W        W75441   2.402  26.950  13.462
10457W        W75442  22.582  33.567  13.778
10458W        W75443  42.856  14.046  14.366
10459W        W75444  15.027  17.240   1.882
10460W        W75445  42.260  27.162   4.809
10461W        W75446  12.575  39.374  14.090
10462W        W75447   5.313  30.529   1.919
10463W        W75448   2.294  16.177   2.133
10464W        W75449  43.837  22.721   1.194
10465W        W75450   9.448  17.696  13.794
10466W        W75451  25.272  28.186   2.273
10467W        W75452  43.048  24.119  13.896
10468W        W75453   5.709  26.076  14.805
10469W        W75454  25.672  39.873   0.472
10470W        W75455  25.698  32.447  13.703
10471W        W75456  12.177  40.415  10.466
10472W        W75457  19.713  32.510   0.673
10473W        W75458  30.555  40.001   3.715
10474W        W75459  35.387  12.165   2.358
10475W        W75460  35.009   0.343   0.643
10476W        W75461   1.781   1.365  10.701
10477W        W75462   8.246  43.811   2.756
10478W        W75463  24.446  20.850  14.326
10479W        W75464  10.411  23.070   2.833
10480W        W75465  39.523   2.031  14.891
10481W        W75466  38.740   8.127   0.606
10482W        W75467  30.603   7.081  12.413
10483W        W75468  14.090   2.918  10.542
10484W        W75469  39.354  14.378   0.713
10485W        W75470  33.027  19.669   2.298
10486W        W75471  18.687  43.038   1.874
10487W        W75472   7.410   5.450  10.595
10488W        W75473   0.905  38.877  11.226
10489W        W75474   9.715  42.768   0.536
10490W        W75475  18.950  35.445   4.805
10491W        W75476  19.923   8.503   2.438
10492W        W75477  16.028  27.547  12.575
10493W        W75478  27.991   2.893   1.018
10494W        W75479  33.884  31.478  14.024
10495W        W75480  15.075  15.116  12.429
10496W        W75481  11.718  13.911  11.892
10497W        W75482  25.163  24.207   4.430
10498W        W75483  43.128  13.096  11.627
10499W        W75484  19.613  20.227  12.476
10500W        W75485   6.899  44.108  11.084
10501W        W75486  25.265   6.803   1.748
10502W        W75487  44.439  27.230  13.046
10503W        W75488  22.162  24.702   0.481
10504W        W75489   8.158   3.161   2.853
10505W        W75490  24.730  44.098   3.232
10506W        W75491  44.307  22.510   2.367
10507W        W75492   3.173   5.312  12.949
10508W        W75493  36.157   3.921  11.572
10509W        W75494   8.134   7.922   4.744
10510W        W75495  17.299  33.009   3.748
10511W        W75496  12.444  22.149   2.817
10512W        W75497   3.246  22.306   1.529
10513W        W75498  33.099  10.863  11.966
10514W        W75499  24.164  37.311   3.237
10515W        W75500  18.739   9.951  11.459
10516W        W75501  36.944  37.062  11.585
10517W        W75502  34.402   4.191  13.364
10518W        W75503   6.748  10.838  12.556
10519W        W75504  23.019  42.995  13.783
10520W        W75505  22.745  30.499   3.355
10521W        W75506  14.368   4.501   1.016
10522W        W75507  16.683  34.677  12.863
10523W        W75508  40.683  12.775   0.840
10524W        W75509   3.755   2.395   3.848
10525W        W75510  26.460  37.046  11.945
10526W        W75511  29.760  29.319   1.448
10527W        W75512  28.560  16.637  10.728
10528W        W75513   0.132  31.506   0.428
10529W        W75514   1.691   5.513   1.350
10530W        W75515  20.912  14.165  10.865
10531W        W75516  29.697   7.303   0.750
10532W        W75517   4.744  12.306   4.818
10533W        W75518  16.837  11.956   2.755
10534W        W75519  10.113  10.124   1.342
10535W        W75520  17.709  34.156  10.788
10536W        W75521  22.086  43.066  11.174
10537W        W75522  23.604  19.625  13.429
10538W        W75523  27.896  11.692   4.068
10539W        W75524  40.084  10.213   1.776
10540W        W75525  17.092  13.207  12.444
10541W        W75526  24.750  23.119  13.406
10542W        W75527  23.118  17.317  12.426
10543W        W75528  30.166  20.740   0.259
10544W        W75529  43.003  29.402   0.314
10545W        W75530  21.072  17.029  12.447
10546W        W75531  17.812  26.494   3.125
10547W        W75532  41.505  38.311   1.966
10548W        W75533  41.450  40.473  12.946
10549W        W75534  22.311  28.962  10.310
10550W        W75535  34.494   7.223  10.597
10551W        W75536  32.651  10.446  11.211
10552W        W75537  14.181  36.030   1.240
10553W        W75538  19.748   2.287   4.977
10554W        W75539  24.481  29.515   0.717
10555W        W75540   1.282   1.699   3.113
10556W        W75541   8.468  25.793  11.985
10557W        W75542   8.198  19.026  12.584
10558W        W75543  18.243  32.843  13.821
10559W        W75544   5.928   2.255  12.651
10560W        W75545  42.246  10.124  13.830
10561W        W75546   4.919   5.330  11.118
10562W        W75547  38.969  42.225  10.767
10563W        W75548  16.918  19.893   5.004
10564W        W75549  18.576  23.616  13.445
10565W        W75550  31.083  28.015   3.627
10566W        W75551  35.080   7.315  13.545
10567W        W75552  20.759  43.474  12.520
10568W        W75553  25.014   7.499   1.803
10569W        W75554  26.671  31.522   1.305
10570W        W75555  12.312  12.785   1.192
10571W        W75556  27.909  16.304  13.586
10572W        W75557  26.465  12.059   3.317
10573W        W75558  33.600  19.564  12.369
10574W        W75559  43.036  37.004  11.085
10575W        W75560  28.299  32.081   3.680
10576W        W75561  29.733   9.217  13.389
10577W        W75562   5.255  17.862  14.799
10578W        W75563  19.254  26.862  14.361
10579W        W75564  37.205  11.755   5.004
10580W        W75565  39.844  11.499  13.208
10581W        W75566   4.917  42.833   0.266
10582W        W75567   5.516  15.266   1.929
10583W        W75568  31.774  40.057   0.790
10584W        W75569  26.125   8.801  14.450
10585W        W75570  39.452  35.384   1.261
10586W        W75571  17.746   0.502  14.596
10587W        W75572  11.234  14.250  11.120
10588W        W75573  32.376  25.667   3.256
10589W        W75574  26.041  17.621  14.879
10590W        W75575  35.302  15.733   1.429
10591W        W75576  13.785  41.398  11.875
10592W        W75577   6.989  33.574   0.764
10593W        W75578  19.093   0.714  14.206
10594W        W75579   5.926  16.449   4.571
10595W        W75580  40.524  12.650  14.966
10596W        W75581   7.396   6.747  10.433
10597W        W75582  11.080  10.182  11.964
10598W        W75583  23.185  17.831  12.471
10599W        W75584   2.510  41.416   3.285
10600W        W75585  33.603  18.240  11.526
10601W        W75586  30.502  44.561  14.161
10602W        W75587  37.576  21.718   2.263
10603W        W75588  40.351   2.071   2.197
10604W        W75589  24.282  20.335   1.627
10605W        W75590  12.341  37.828  10.740
10606W        W75591  26.680  36.080   2.588
10607W        W75592  29.954   2.972  14.919
10608W        W75593  26.939  25.981   1.940
10609W        W75594  29.999  42.876   2.906
10610W        W75595   4.427   8.369  12.363
10611W        W75596  37.389  18.024  12.431
10612W        W75597  11.859  39.809   0.453
10613W        W75598  21.050  41.913  13.408
10614W        W75599  16.483  32.818  14.872
10615W        W75600  37.049  11.228   3.198
10616W        W75601  35.647  23.057  11.889
10617W        W75602   6.563   2.689   4.906
10618W        W75603  31.416  22.223   4.915
10619W        W75604  10.880  24.214  12.018
10620W        W75605  20.769  12.248   3.826
10621W        W75606  31.772  28.524   0.876
10622W        W75607  14.409   1.222  13.737
10623W        W75608   1.343  15.685   4.571
10624W        W75609   5.948  11.588   3.390
10625W        W75610  30.974  25.780   2.275
10626W        W75611  19.716  20.974  12.014
10627W        W75612  38.867   8.542  11.062
10628W        W75613  32.368  18.103   4.730
10629W        W75614   9.004  37.529  10.107
10630W        W75615  13.556  29.726   2.051
10631W        W75616   1.357  21.163  12.644
10632W        W75617   9.348   9.559  12.756
10633W        W75618  28.551  14.278   2.069
10634W        W75619  25.203  20.502   1.940
10635W        W75620  39.384  21.814  11.940
10636W        W75621  41.309  36.614   2.191
10637W        W75622  13.625  21.746   1.574
10638W        W75623  30.397  38.390   0.840
10639W        W75624  41.012  44.949  12.099
10640W        W75625  18.760  21.915  11.584
10641W        W75626  35.807   1.638  14.181
10642W        W75627  29.268  32.950   4.208
10643W        W75628  41.857  24.189   0.627
10644W        W75629  24.320  39.616  11.224
10645W        W75630  19.256  40.286  13.288
10646W        W75631  21.439   1.910  14.064
10647W        W75632  19.002   6.901  10.802
10648W        W75633  23.963   2.257   4.114
10649W        W75634   0.165  27.201   4.182
10650W        W75635   6.295  35.167  11.176
10651W        W75636   8.275  10.182   3.725
10652W        W75637   9.198   3.271   2.593
10653W        W75638  19.391  34.817  13.751
10654W        W75639   5.310  29.817   3.693
10655W        W75640  34.312  38.958   1.165
10656W        W75641  14.350  26.068   1.397
10657W        W75642   0.902  20.957   2.655
10658W        W75643  22.573   4.858   0.580
10659W        W75644  13.193   1.678  14.790
10660W        W75645  16.872   3.669   4.524
10661W        W75646  42.215   3.724  13.545
10662W        W75647  41.913  35.208   2.581
10663W        W75648  10.631  11.404  12.547
10664W        W75649  31.441  16.229  13.686
10665W        W75650  17.306  17.318  10.757
10666W        W75651  16.177  13.048   0.071
10667W        W75652  40.367   2.860   1.159
10668W        W75653  21.309   6.463  11.081
10669W        W75654   4.260  10.399  14.246
10670W        W75655   7.842  34.198  11.869
10671W        W75656  18.002   5.450   3.303
10672W        W75657  19.603  32.650  12.031
10673W        W75658  11.091  20.741   1.921
10674W        W75659   8.070   3.917  14.893
10675W        W75660  19.773  33.194  10.743
10676W        W75661   5.803   4.821   1.442
10677W        W75662   9.766  30.137  14.451
10678W        W75663  17.925   7.903  11.933
10679W        W75664  11.647  33.387  13.551
10680W        W75665  37.858  43.868   4.315
10681W        W75666  20.598   2.821   1.897
10682W        W75667   0.553   8.711   2.814
10683W        W75668  38.330  33.519   4.089
10684W        W75669  41.023   9.074   0.437
10685W        W75670  15.242   8.836   1.718
10686W        W75671  35.895  15.780   3.662
10687W        W75672   0.951  16.362   4.492
10688W        W75673   5.093  36.166   1.852
10689W        W75674  25.578   9.828   1.881
10690W        W75675  42.710   5.810   2.263
10691W        W75676  15.481  30.263  11.696
10692W        W75677  35.320  33.247   0.775
10693W        W75678  37.893  28.629  12.142
10694W        W75679  32.650  35.400   1.377
10695W        W75680  39.194  31.955   4.623
10696W        W75681  24.783  36.753   2.855
10697W        W75682  25.108  10.606  13.716
10698W        W75683  11.819  10.107   2.158
10699W        W75684  40.483  13.085   1.350
10700W        W75685   2.325  25.869   0.449
10701W        W75686   8.503   8.420  10.612
10702W        W75687  31.712  13.949  12.558
10703W        W75688   1.887   9.335  14.770
10704W        W75689  39.294  30.119   1.037
10705W        W75690  37.903  19.333  12.614
10706W        W75691   8.754  33.613  13.003
10707W        W75692  25.097  21.226   3.240
10708W        W75693  32.037  32.855  10.727
10709W        W75694  37.584  18.697  11.690
10710W        W75695  43.512   7.196  13.649
10711W        W75696   1.269  16.793   3.745
10712W        W75697  21.321  11.191  13.380
10713W        W75698  17.003   1.316   0.558
10714W        W75699  40.063  40.999  14.832
10715W        W75700  33.435  42.645  12.540
10716W        W75701  26.945   4.177  12.433
10717W        W75702  15.394   2.314   0.498
10718W        W75703   2.260   4.733   1.873
10719W        W75704  41.962   2.270   0.863
10720W        W75705   5.329  21.967   3.314
10721W        W75706  20.611  41.409   1.192
10722W        W75707  44.547   1.770   0.396
10723W        W75708  10.941  31.430   3.997
10724W        W75709  37.240  37.436   2.750
10725W        W75710   9.982  25.160  14.054
10726W        W75711  43.241  13.650   3.943
10727W        W75712  18.058  17.010  12.832
10728W        W75713   3.237  22.854  14.600
10729W        W75714  37.513  31.457   2.411
10730W        W75715  35.695  24.586  12.059
10731W        W75716   4.739  44.497  10.055
10732W        W75717  12.813  21.334   2.675
10733W        W75718  21.683  21.440  13.918
10734W        W75719   3.837  22.501  13.360
10735W        W75720   0.789  23.194   2.801
10736W        W75721  33.608  21.829   0.756
10737W        W75722  36.032   5.042   3.635
10738W        W75723  10.866  27.267   3.201
10739W        W75724  36.934   6.865  11.883
10740W        W75725  28.749  15.681  10.588
10741W        W75726  43.081  20.539   0.911
10742W        W75727   3.673  18.536   4.155
10743W        W75728  43.471  30.679  11.643
10744W        W75729  33.410  24.144   4.895
10745W        W75730   5.440   9.840   2.617
10746W        W75731   3.067  17.263   1.960
10747W        W75732   4.346  32.910   0.258
10748W        W75733  30.592  42.368   2.848
10749W        W75734  30.013  11.121  14.791
10750W        W75735   0.054  28.183   1.307
10751W        W75736  24.256  35.163  11.887
10752W        W75737  41.622  12.221   4.230
10753W        W75738  30.045   8.405  11.190
10754W        W75739  42.067   0.912   2.852
10755W        W75740  18.137  17.085   2.357
10756W        W75741  16.028  29.502  11.540
10757W        W75742  13.102  36.057  12.870
10758W        W75743  30.117  36.882  12.919
10759W        W75744  19.764   7.276  11.515
10760W        W75745  20.254  33.306   3.659
10761W        W75746  11.377  37.931   2.721
10762W        W75747   3.885   4.453   0.406
10763W        W75748   1.412   7.245   1.799
10764W        W75749  32.116  39.146   3.260
10765W        W75750  15.229  43.066  10.811
10766W        W75751  42.425  38.833   2.803
10767W        W75752  27.921   9.865  11.058
10768W        W75753   2.724  22.042  10.727
10769W        W75754  28.999  43.601  14.018
10770W        W75755  35.574  34.173  13.520
10771W        W75756   5.965  14.283   3.278
10772W        W75757  27.954  40.973  13.835
10773W        W75758  23.274  16.033  12.026
10774W        W75759  43.938  31.535  12.977
10775W        W75760  12.086  25.450   2.678
10776W        W75761  22.044  25.943   4.146
10777W        W75762   1.026   9.080   1.063
10778W        W75763  12.100   0.253  14.077
10779W        W75764  32.770   9.298  12.484
10780W        W75765  11.618  41.381  11.245
10781W        W75766  31.898  20.734   1.403
10782W        W75767  27.172  31.609   9.774
10783W        W75768  23.856  44.466   2.301
10784W        W75769  23.737  27.533  13.929
10785W        W75770   4.712  12.304  12.796
10786W        W75771  43.526   3.683  14.274
10787W        W75772  17.448  13.249   3.179
10788W        W75773  12.336  44.953  11.674
10789W        W75774   5.068  16.000   2.271
10790W        W75775   0.482  34.875  13.154
10791W        W75776  13.162   0.285   3.076
10792W        W75777  15.063  15.699  13.939
10793W        W75778  24.190  33.136   4.527
10794W        W75779  16.188  43.814   3.684
10795W        W75780  18.947  13.882  11.099
10796W        W75781  42.063   3.834  11.546
10797W        W75782  27.497  37.919  11.942
10798W        W75783   8.018  24.621   4.357
10799W        W75784  11.834  43.201  11.732
10800W        W75785  23.137  30.822   3.354
10801W        W75786  40.258  11.745  14.037
10802W        W75787  17.020  14.572  12.388
10803W        W75788  34.209  12.354   3.775
10804W        W75789  16.330  44.956   3.739
10805W        W75790  24.303  31.041   0.851
10806W        W75791  12.709  31.434  10.866
10807W        W75792  37.008   3.436  11.648
10808W        W75793  31.078  35.047   0.364
10809W        W75794  21.111  38.896   4.915
10810W        W75795  41.526  14.278   2.794
10811W        W75796  10.370   3.234  11.159
10812W        W75797  10.419   7.568   4.056
10813W        W75798  29.921   2.774   0.423
10814W        W75799  28.342  36.662  14.042
10815W        W75800   3.250   5.388  13.492
10816W        W75801  38.261  32.878  10.977
10817W        W75802  28.858  24.415   1.256
10818W        W75803  35.557  35.263  11.900
10819W        W75804  10.050  25.292  11.166
10820W        W75805   7.694   2.495  12.200
10821W        W75806  29.115   7.311   2.078
10822W        W75807  18.284  40.333  12.032
10823W        W75808  22.514  30.963   1.719
10824W        W75809   4.126  18.583   4.605
10825W        W75810   4.761  13.221  10.640
10826W        W75811  43.968   5.166   4.136
10827W        W75812  28.078  28.022  10.721
10828W        W75813  28.894  42.468  13.453
10829W        W75814  14.034  29.143  12.607
10830W        W75815  12.809   4.311  10.683
10831W        W75816  14.722  12.676   3.395
10832W        W75817  32.210  21.573   1.933
10833W        W75818  25.493  19.244   4.642
10834W        W75819  10.147  30.406   3.576
10835W        W75820  30.543  31.185   3.227
10836W        W75821   2.216   0.499  10.999
10837W        W75822  21.843   6.045   3.664
10838W        W75823  41.838  22.816   5.091
10839W        W75824  44.312  38.069   0.984
10840W        W75825  36.295  15.485   3.818
10841W        W75826  23.665   0.401   4.279
10842W        W75827  35.177  17.959  14.592
10843W        W75828  30.669  36.924   3.348
10844W        W75829  10.374  27.610  12.407
10845W        W75830   7.353  17.153   1.089
10846W        W75831  44.425  13.319  14.637
10847W        W75832  29.336  21.505  12.661
10848W        W75833  10.622  15.109   0.034
10849W        W75834  35.583  26.624   4.584
10850W        W75835  21.830   3.372   3.720
10851W        W75836  32.916  16.233  13.067
10852W        W75837  25.603   8.635   1.207
10853W        W75838  31.560   4.956   1.436
10854W        W75839  19.675  10.397  12.963
10855W        W75840  37.847   8.134  11.645
10856W        W75841  21.636   5.988   0.394
10857W        W75842  28.658  24.616   3.729
10858W        W75843   7.463  26.981  13.852
10859W        W75844  11.202   4.304  14.197
10860W        W75845  25.607   2.912  13.422
10861W        W75846  32.415   7.841   9.767
10862W        W75847   1.473  22.156  12.590
10863W        W75848  31.430  41.844  11.500
10864W        W75849  15.486  20.728   2.381
10865W        W75850  36.423  35.344   1.824
10866W        W75851  17.224  33.122   1.470
10867W        W75852  28.647  30.932   2.285
10868W        W75853   8.669   9.466  11.487
10869W        W75854  20.459  25.760   2.838
10870W        W75855  27.660  11.782   2.840
10871W        W75856   6.099  10.260   1.959
10872W        W75857   0.308   2.861   3.576
10873W        W75858   1.912  33.185  14.872
10874W        W75859  17.140  19.550   4.631
10875W        W75860  43.346  22.653  12.326
10876W        W75861  23.185   3.201  10.236
10877W        W75862  20.024  12.288   4.673
10878W        W75863  30.988   9.233  12.911
10879W        W75864   0.534  11.872  10.814
10880W        W75865   7.840  32.440   0.444
10881W        W75866  39.313  29.852  10.477
10882W        W75867  14.825  16.540   0.282
10883W        W75868  40.367  21.988  11.954
10884W        W75869  15.857  44.153   0.395
10885W        W75870   5.803  29.676  12.349
10886W        W75871  27.915  23.062   2.457
10887W        W75872  34.405  26.967  14.006
10888W        W75873  25.016  38.012   1.321
10889W        W75874  29.043   2.281   4.862
10890W        W75875   7.967  27.519  11.162
10891W        W75876  27.218  20.062   2.760
10892W        W75877  27.232   2.757   0.142
10893W        W75878   2.494  16.573   3.097
10894W        W75879  22.452  22.653   4.569
10895W        W75880  25.522   3.496   0.689
10896W        W75881  13.830   6.908  11.875
10897W        W75882  36.816  37.313   4.172
10898W        W75883  41.398   9.587  12.432
10899W        W75884  32.092  12.805   1.729
10900W        W75885  44.985  25.252  12.047
10901W        W75886   4.555  16.036   2.218
10902W        W75887  14.638  38.161   2.236
10903W        W75888  26.495  36.799  14.399
10904W        W75889  18.295  35.981  11.171
10905W        W75890  24.199   6.342  10.135
10906W        W75891  13.294  24.072  11.159
10907W        W75892  11.178  18.637   4.171
10908W        W75893  37.165  42.606  14.240
10909W        W75894  11.098  26.295   0.773
10910W        W75895  44.902   9.336   2.836
10911W        W75896  44.224   9.158  12.344
10912W        W75897  16.168   0.946  12.021
10913W        W75898   1.993  13.200   0.034
10914W        W75899   2.206  39.314  14.334
10915W        W75900  32.618  24.139   1.910
10916W        W75901  27.397  44.802  11.622
10917W        W75902  23.515  44.767   1.614
10918W        W75903  32.482  23.709   3.455
10919W        W75904  32.931  42.995  11.850
10920W        W75905   5.892   4.474   2.358
10921W        W75906  37.906  44.248   3.965
10922W        W75907  10.876  13.726   2.262
10923W        W75908  15.814   7.692  12.031
10924W        W75909  31.036  27.494  14.194
10925W        W75910  32.706  17.743   1.782
10926W        W75911  23.209  16.994   1.832
10927W        W75912  22.057  11.285   3.215
10928W        W75913   5.730  17.944  11.521
10929W        W75914  33.821  14.326   0.017
10930W        W75915  15.544  19.734  10.594
10931W        W75916   0.041  11.677  11.520
10932W        W75917  18.821  14.051   4.097
10933W        W75918  33.550   3.498  12.993
10934W        W75919  39.758  28.903  11.066
10935W        W75920  34.909  11.222   0.307
10936W        W75921  40.456  17.560   2.257
10937W        W75922  33.903  42.023   0.246
10938W        W75923   4.107   9.833   2.453
10939W        W75924  27.542  30.395   2.462
10940W        W75925  41.753  35.607   0.601
10941W        W75926  15.859  19.917  14.031
10942W        W75927  40.874  38.858  11.956
10943W        W75928  11.636   2.681   3.089
10944W        W75929  16.884   1.891  11.848
10945W        W75930  13.575  27.509   5.383
10946W        W75931  14.822  13.897   0.708
10947W        W75932   6.402  39.330  14.514
10948W        W75933  28.934   0.780  10.743
10949W        W75934  28.657  34.433  10.572
10950W        W75935  44.299  16.524  12.768
10951W        W75936  36.133   4.226  14.811
10952W        W75937  33.151  37.518  12.577
10953W        W75938  35.986  14.901   1.814
10954W        W75939  30.206  37.908   3.118
10955W        W75940  28.574  22.099  13.876
10956W        W75941  13.225  24.326   2.268
10957W        W75942   3.319  14.341  14.555
10958W        W75943   0.302  35.174   2.160
10959W        W75944  25.827  39.868  14.106
10960W        W75945  11.648  44.583   4.099
10961W        W75946   3.166  30.390   1.674
10962W        W75947   8.097  20.273   3.129
10963W        W75948  12.143  40.726  11.734
10964W        W75949  10.126   8.677  10.988
10965W        W75950  35.915  30.643  14.893
10966W        W75951  44.402  34.476  14.752
10967W        W75952  18.199   2.332  13.240
10968W        W75953  31.018  42.555  13.975
10969W        W75954   5.624  25.695  13.028
10970W        W75955  35.449  26.191   0.809
10971W        W75956  16.159   2.202   4.253
10972W        W75957   1.952  15.612  11.677
10973W        W75958  39.478  29.017   3.637
10974W        W75959  22.774  29.795  11.625
10975W        W75960   8.150  35.522  10.995
10976W        W75961  22.028  25.549   0.804
10977W        W75962  33.619  40.397  11.660
10978W        W75963  40.422   9.621  10.731
10979W        W75964  16.182  14.285   0.455
10980W        W75965  18.558   6.026   2.278
10981W        W75966   3.447  10.855   2.253
10982W        W75967   7.833  33.515  11.537
10983W        W75968  29.963  12.116   0.086
10984W        W75969  36.317   3.559  12.505
10985W        W75970  40.985  24.682   2.873
10986W        W75971   1.250  32.126  13.750
10987W        W75972  39.803  11.136   3.754
10988W        W75973  33.324  14.797  11.924
10989W        W75974  20.082   1.831   1.236
10990W        W75975   0.980  44.472   4.029
10991W        W75976  19.700  30.648   2.875
10992W        W75977   8.193  41.126   3.669
10993W        W75978  30.631  43.386   1.424
10994W        W75979   7.115  27.646   2.341
10995W        W75980  19.715   6.161   1.358
10996W        W75981  41.367  36.980  11.699
10997W        W75982  28.978  27.136   2.659
10998W        W75983  17.199   0.849   0.678
10999W        W75984  19.192  22.633  14.534
11000W        W75985  21.694  18.676   4.913
11001W        W75986  19.812  18.443  14.891
11002W        W75987  25.897   5.193   2.204
11003W        W75988   7.369  11.004  14.662
11004W        W75989   2.391  44.869  13.769
11005W        W75990  20.140  38.010   0.449
11006W        W75991  43.942   3.515  14.010
11007W        W75992   3.745  44.085   1.845
11008W        W75993  11.938  33.519  13.119
11009W        W75994   8.876  16.572   4.583
11010W        W75995   0.037  28.463  13.421
11011W        W75996  43.182  33.866  14.979
11012W        W75997   4.815  39.512   1.669
11013W        W75998  31.551   7.762   1.133
11014W        W75999  37.124  37.617  14.779
11015W        W76000  10.535  17.551  13.946
11016W        W76001  30.207   2.977  10.663
11017W        W76002   3.332  33.592   3.300
11018W        W76003  27.138  41.470  13.866
11019W        W76004  38.846  27.557  14.904
11020W        W76005  23.574  39.323   0.519
11021W        W76006  26.691  44.209   0.947
11022W        W76007  28.501   3.941  14.425
11023W        W76008  10.975  29.907   0.470
11024W        W76009  29.298  36.652  14.536
11025W        W76010  31.432  44.697   1.773
11026W        W76011  29.388  31.249  11.930
11027W        W76012   0.047  14.928  12.766
11028W        W76013   9.737  19.318  10.793
11029W        W76014  14.232   8.725   2.149
11030W        W76015  28.310   1.779   3.078
11031W        W76016  20.737   1.286   4.019
11032W        W76017   1.773  11.580  14.307
11033W        W76018  15.036  40.817  13.315
11034W        W76019  43.491   7.821  11.983
11035W        W76020   5.178   5.439   9.787
11036W        W76021  30.373  39.508   1.282
11037W        W76022   1.487  15.241   3.621
11038W        W76023  39.582  23.617  11.808
11039W        W76024  19.277  17.480   3.605
11040W        W76025  38.871  23.144   1.299
11041W        W76026  33.101  10.242  11.098
11042W        W76027  41.098  21.765  11.580
11043W        W76028   6.992  40.957  13.295
11044W        W76029  23.708  36.345  10.883
11045W        W76030  36.407  41.461  12.431
11046W        W76031  29.476  36.997  10.593
11047W        W76032  23.998  27.626   3.105
11048W        W76033  26.644  19.460   5.287
11049W        W76034  10.436   5.731   1.419
11050W        W76035  10.077  26.207   0.846
11051W        W76036   4.358  15.612   3.951
11052W        W76037   3.986  22.022  12.665
11053W        W76038  30.190  23.783  12.128
11054W        W76039   4.765  33.572  12.513
11055W        W76040  40.455  22.272  10.987
11056W        W76041  11.688  44.376   5.064
11057W        W76042  32.331  29.522  11.848
11058W        W76043  41.145  35.384  14.776
11059W        W76044  38.908  23.621  12.473
11060W        W76045   4.401  17.210  13.845
11061W        W76046  37.857  24.246   2.037
11062W        W76047  33.912  16.700   4.197
11063W        W76048  27.249  34.622  14.395
11064W        W76049   0.460   2.343   3.357
11065W        W76050  10.683  22.070   0.013
11066W        W76051  17.130  40.023   4.569
11067W        W76052  21.220  39.020  14.428
11068W        W76053  36.945   5.309   2.463
11069W        W76054  31.091  32.060   4.298
11070W        W76055  34.078  15.074  12.985
11071W        W76056  30.932   7.402  14.960
11072W        W76057   3.789  41.182  11.675
11073W        W76058  39.044  15.986   4.037
11074W        W76059  18.682   5.932   1.170
11075W        W76060  14.494  34.056   1.373
11076W        W76061  21.908  35.358   1.198
11077W        W76062   7.322  38.811  11.421
11078W        W76063  38.733  39.461   1.255
11079W        W76064  36.478  13.737  12.133
11080W        W76065  17.345  30.672   4.073
11081W        W76066  13.808  29.892   0.163
11082W        W76067   1.253   3.702   1.312
11083W        W76068  31.681  27.928  11.044
11084W        W76069  32.999  33.041  10.698
11085W        W76070  26.546  17.737   2.080
11086W        W76071  41.691  31.021  12.107
11087W        W76072  36.884  35.167  13.145
11088W        W76073  17.601   6.040   0.439
11089W        W76074   6.425  21.953  11.906
11090W        W76075  11.689  43.423  13.880
11091W        W76076  29.875   2.006   0.908
11092W        W76077  22.217  22.304   2.377
11093W        W76078  14.458   3.239   3.286
11094W        W76079   8.273  15.328   0.838
11095W        W76080  44.531  32.669  11.729
11096W        W76081  30.873  13.037   3.573
11097W        W76082  15.217  19.918   1.740
11098W        W76083  23.173  19.778  14.332
11099W        W76084  38.104   1.969  14.085
11100W        W76085  21.218  25.624   3.284
11101W        W76086  34.057   7.166  12.092
11102W        W76087  38.016  14.759   1.340
11103W        W76088   9.737  37.638   0.759
11104W        W76089  26.077  31.559   0.583
11105W        W76090  33.088  15.556   3.206
11106W        W76091  15.359  19.100  14.998
11107W        W76092  12.339  38.629  11.193
11108W        W76093  44.246  41.213  12.997
11109W        W76094  35.453   0.196   0.369
11110W        W76095  35.093  30.386   3.283
11111W        W76096   8.519  16.537   1.340
11112W        W76097   1.502  41.014  11.693
11113W        W76098  26.746  15.936   0.977
11114W        W76099  15.753   1.436   4.122
11115W        W76100   4.006  25.359  11.930
11116W        W76101  36.312  14.331   1.199
11117W        W76102  34.930  32.541   4.105
11118W        W76103  28.530  17.632   4.123
11119W        W76104  26.023  21.603  13.851
11120W        W76105  13.103  30.491  13.518
11121W        W76106  13.105  29.115  11.540
11122W        W76107  26.991  17.531  10.602
11123W        W76108   2.203   2.375  13.854
11124W        W76109  14.272  19.498   1.301
11125W        W76110   1.008  30.843  14.319
11126W        W76111  18.896  30.389   0.489
11127W        W76112   7.303  30.895  13.845
11128W        W76113   5.076  10.290   9.954
11129W        W76114   1.460   8.225   0.948
11130W        W76115  22.859  40.497  12.193
11131W        W76116  41.408   2.908   4.375
11132W        W76117  25.023  35.710  11.250
11133W        W76118  13.611   6.938  13.500
11134W        W76119  32.121  28.546  13.625
11135W        W76120  18.689  36.156   1.258
11136W        W76121   8.440  39.610   2.283
11137W        W76122  10.787   4.546  10.105
11138W        W76123  43.393  28.187   2.318
11139W        W76124   6.853  40.359  10.727
11140W        W76125  18.437   1.592  13.269
11141W        W76126   7.077  30.204   3.643
11142W        W76127  12.925  24.581  14.860
11143W        W76128  34.605  11.545  12.508
11144W        W76129  25.101  17.331   3.523
11145W        W76130   5.906  23.088  13.375
11146W        W76131  17.055  31.925  10.604
11147W        W76132  35.635  18.264   3.269
11148W        W76133  43.755  11.855  13.917
11149W        W76134  19.647  31.919  14.122
11150W        W76135  19.240   4.677   3.388
11151W        W76136  10.324  37.771  12.488
11152W        W76137  16.934  33.927   0.476
11153W        W76138  40.244  38.614  13.940
11154W        W76139  29.555  18.583  12.202
11155W        W76140  20.526  44.226   3.275
11156W        W76141  15.843  32.545  11.191
11157W        W76142  10.427  43.294   1.038
11158W        W76143  34.925   6.206   2.724
11159W        W76144  44.575  34.916   0.013
11160W        W76145  29.538  43.999   4.585
11161W        W76146  31.928   3.395  11.996
11162W        W76147  12.421  19.515   2.814
11163W        W76148  16.344  24.481   3.541
11164W        W76149  38.127  24.133  14.069
11165W        W76150  43.302  14.804   2.918
11166W        W76151  44.742  23.032  13.341
11167W        W76152  39.326  29.981  13.562
11168W        W76153   2.186  23.149   3.312
11169W        W76154  23.130  32.611  14.257
11170W        W76155  30.910  15.906  10.804
11171W        W76156  18.225  39.522  13.665
11172W        W76157   5.218  36.716   4.169
11173W        W76158  44.847  14.590  10.436
11174W        W76159  24.439  15.155   1.435
11175W        W76160  19.563   5.787   0.313
11176W        W76161  22.657  37.536   1.709
11177W        W76162  40.333  29.532  10.709
11178W        W76163  28.629   2.884  10.774
11179W        W76164   9.583  31.656   4.649
11180W        W76165  26.265  43.947   1.197
11181W        W76166  27.148  18.178  14.892
11182W        W76167  35.244  32.503   3.685
11183W        W76168  17.521  10.743   2.490
11184W        W76169  35.347  10.801  14.101
11185W        W76170  24.020  14.752  10.802
11186W        W76171  22.689   0.406  14.259
11187W        W76172  42.533   6.208  14.388
11188W        W76173  13.623  34.925  14.804
11189W        W76174  26.500  35.430   0.777
11190W        W76175   7.870  25.160   2.754
11191W        W76176   2.841   0.480  12.579
11192W        W76177  30.108  44.560  12.570
11193W        W76178  23.494  23.464  10.701
11194W        W76179  29.946  37.320   3.748
11195W        W76180  19.656  35.380  11.103
11196W        W76181  21.740  14.651   0.182
11197W        W76182  27.976  11.192  13.429
11198W        W76183  40.496   6.789  10.885
11199W        W76184   4.530   4.053  13.990
11200W        W76185   8.352  17.365  12.063
11201W        W76186  34.450  19.370   1.409
11202W        W76187   0.519   1.773   2.639
11203W        W76188  20.302  18.016  12.918
11204W        W76189  28.841  28.540   3.717
11205W        W76190   6.835  17.155   0.899
11206W        W76191  10.170  21.016   2.797
11207W        W76192   0.272  14.145  12.388
11208W        W76193   1.177  39.362  12.460
11209W        W76194  43.280  26.703  14.261
11210W        W76195  30.279  34.910   5.316
11211W        W76196  23.760  11.761   4.694
11212W        W76197  20.992  10.743   0.205
11213W        W76198  10.083  39.328  10.741
11214W        W76199  37.495  15.025  11.584
11215W        W76200   7.875  16.183   0.057
11216W        W76201   6.005  39.391  11.975
11217W        W76202  41.383   8.943  14.070
11218W        W76203  37.021  12.682  11.538
11219W        W76204   3.219  37.784   3.225
11220W        W76205  13.368   4.515   3.138
11221W        W76206  22.011  18.611  13.492
11222W        W76207   3.264  30.370   4.613
11223W        W76208  37.379   3.465   2.319
11224W        W76209   1.232  30.502   3.624
11225W        W76210   2.886  38.578   4.298
11226W        W76211  23.447  10.859  11.168
11227W        W76212  12.859  23.006  10.475
11228W        W76213  17.184  30.001   1.501
11229W        W76214  33.488  19.047   0.506
11230W        W76215  44.892   0.888   4.576
11231W        W76216  39.713  24.615  14.996
11232W        W76217   5.349  31.487   3.137
11233W        W76218   7.254  19.820  11.628
11234W        W76219  32.903  35.262   4.496
11235W        W76220  24.485  37.485   1.787
11236W        W76221  17.433   5.950  12.417
11237W        W76222  38.920  19.299   1.476
11238W        W76223   0.430  11.731  12.919
11239W        W76224  33.903  25.914  12.684
11240W        W76225  44.853  43.606  11.450
11241W        W76226  37.838   1.578   1.817
11242W        W76227  18.598  40.818   1.205
11243W        W76228   5.762  22.335  12.301
11244W        W76229  26.255  40.663   2.402
11245W        W76230  20.208  17.434   9.901
11246W        W76231  33.103  25.582  14.510
11247W        W76232  36.141  41.913   1.191
11248W        W76233  26.349   3.194  10.328
11249W        W76234  22.626  19.431   1.857
11250W        W76235  23.205   7.067   2.814
11251W        W76236  31.005   0.350  12.511
11252W        W76237  35.738  39.137   4.233
11253W        W76238  24.716   4.804  13.407
11254W        W76239  43.718  21.988   3.635
11255W        W76240  13.599  18.660  14.748
11256W        W76241  34.857  17.722  12.332
11257W        W76242   6.177  10.181  12.506
11258W        W76243   4.286  11.122  13.371
11259W        W76244  43.881  12.315   2.060
11260W        W76245  43.955   5.084   4.667
11261W        W76246  14.206  22.589  11.652
11262W        W76247  44.867  12.271   0.816
11263W        W76248  32.830  35.985  12.477
11264W        W76249  20.087   9.901  11.811
11265W        W76250  32.404   4.365  13.169
11266W        W76251  28.208   8.519   3.319
11267W        W76252  36.450  13.120   3.288
11268W        W76253  43.910   8.343   1.370
11269W        W76254  31.500  13.603   3.732
11270W        W76255  41.937  44.350   4.760
11271W        W76256  16.248   0.473  13.438
11272W        W76257  43.983  30.977   4.938
11273W        W76258  26.085  11.282  10.697
11274W        W76259  21.671  30.935  12.207
11275W        W76260  21.287  37.981  11.873
11276W        W76261   4.355   1.794  14.373
11277W        W76262  15.229  29.675  11.974
11278W        W76263  10.972  12.232  11.627
11279W        W76264   0.039  32.608   1.770
11280W        W76265  11.427  11.668   3.641
11281W        W76266  39.080  24.279  11.219
11282W        W76267  14.316  14.172   3.728
11283W        W76268  36.788  36.096   2.880
11284W        W76269  38.606  43.475  11.097
11285W        W76270   4.793  13.706   3.386
11286W        W76271  21.059  43.469   0.275
11287W        W76272   0.169   4.847   1.627
11288W        W76273  44.796  43.298   0.077
11289W        W76274  13.236  40.111   4.513
11290W        W76275  27.047   7.047   1.098
11291W        W76276  41.013   3.121   4.652
11292W        W76277  22.264   1.339  14.843
11293W        W76278  35.028  38.923   1.808
11294W        W76279   0.964  11.784   0.002
11295W        W76280  32.439   6.228   1.289
11296W        W76281  21.712  32.857  13.572
11297W        W76282  21.453  37.358   4.274
11298W        W76283  38.860   9.868  11.927
11299W        W76284  41.388  43.325  10.692
11300W        W76285  33.927   2.795  12.583
11301W        W76286  19.691   8.343  12.294
11302W        W76287  26.821   1.347  12.820
11303W        W76288  38.256  14.032   3.041
11304W        W76289  32.672  36.750   2.052
11305W        W76290  37.236  44.503  14.895
11306W        W76291   0.908  38.876  14.034
11307W        W76292  27.654  26.600  14.974
11308W        W76293  39.587   7.056  10.948
11309W        W76294  11.364  40.308  13.352
11310W        W76295  43.856  10.289  11.457
11311W        W76296  24.184  25.460  13.609
11312W        W76297  35.345  17.503  14.435
11313W        W76298  17.419   9.857   5.314
11314W        W76299  18.289  28.092  13.792
11315W        W76300  29.119   9.179   4.798
11316W        W76301  18.819  26.993  12.839
11317W        W76302  34.041  23.055  10.437
11318W        W76303  31.450  43.598  14.281
11319W        W76304  27.216  29.523  11.149
11320W        W76305  17.595  27.087  10.618
11321W        W76306  44.293  35.590   2.864
11322W        W76307   9.788  21.479  11.255
11323W        W76308  24.504  39.768  14.811
11324W        W76309  33.855  37.124   2.815
11325W        W76310   6.294   2.335   2.819
11326W        W76311  40.656  19.804  12.378
11327W        W76312  23.744  42.398  11.253
11328W        W76313   5.836  41.597   3.775
11329W        W76314  23.037   6.573   2.919
11330W        W76315   0.093  41.424  12.448
11331W        W76316  28.804  18.017  13.455
11332W        W76317   2.996  15.800  11.459
11333W        W76318  40.605  14.190   4.900
11334W        W76319   8.565  10.179   0.214
11335W        W76320  29.689  27.877   1.421
11336W        W76321  25.172  38.842  12.811
11337W        W76322  24.664   8.405  11.827
11338W        W76323  26.012  25.051   4.554
11339W        W76324   5.837  37.446  10.135
11340W        W76325  27.987   9.398  13.438
11341W        W76326   8.682  29.982  12.920
11342W        W76327  10.851  25.317   3.381
11343W        W76328  34.428  24.587   2.052
11344W        W76329  26.609  18.960  13.770
11345W        W76330  42.237  16.623  11.389
11346W        W76331  34.297   3.041  11.612
11347W        W76332  12.167  20.118   5.003
11348W        W76333  34.381  30.373  12.136
11349W        W76334  22.657  26.871   0.032
11350W        W76335  16.046  43.379  13.263
11351W        W76336  30.811   2.961  14.287
11352W        W76337  38.325  16.604   5.023
11353W        W76338   7.770   8.768   1.027
11354W        W76339   0.320  15.319   0.473
11355W        W76340  21.213  15.007   3.140
11356W        W76341   1.897   9.005   2.364
11357W        W76342  28.412  43.312  13.140
11358W        W76343  17.415  33.984   0.637
11359W        W76344  31.170  39.193  14.453
11360W        W76345   9.975  12.771   0.681
11361W        W76346  35.547   3.578   4.532
11362W        W76347  35.447  40.730  14.370
11363W        W76348   8.970  12.037   0.329
11364W        W76349  13.775   8.252   3.912
11365W        W76350  42.968  14.287   4.986
11366W        W76351  16.621  27.627  14.384
11367W        W76352   7.414   2.346   4.726
11368W        W76353  25.300  10.079   2.776
11369W        W76354  20.697  17.845  12.117
11370W        W76355  41.551  40.481   3.190
11371W        W76356  23.469  44.650   3.560
11372W        W76357  14.714  37.102  14.637
11373W        W76358  41.864  14.593   3.128
11374W        W76359  13.192  14.849  12.593
11375W        W76360  26.980   4.285  10.731
11376W        W76361  43.580  22.204   1.856
11377W        W76362  33.603  35.910  13.992
11378W        W76363   4.410  24.668  11.570
11379W        W76364   0.853  44.768   1.819
11380W        W76365  34.348  24.046   2.273
11381W        W76366  16.287  22.761  14.865
11382W        W76367  20.792   6.350   0.373
11383W        W76368  11.933  44.958   0.365
11384W        W76369  30.424   5.757  10.766
11385W        W76370   2.595   4.858   2.780
11386W        W76371   1.923  15.159  12.844
11387W        W76372  44.735   3.307   2.228
11388W        W76373  40.997  42.301  12.946
11389W        W76374  10.816  35.337  11.224
11390W        W76375  12.223  29.838   4.716
11391W        W76376  30.284  21.140   0.553
11392W        W76377  16.113  19.060  12.370
11393W        W76378   0.422  40.994   1.226
11394W        W76379  26.022  10.440  13.615
11395W        W76380  30.902  31.536  10.923
11396W        W76381  29.167  43.421  13.402
11397W        W76382  27.183  18.745  11.153
11398W        W76383  39.122   5.827  10.124
11399W        W76384  33.510  30.065  12.469
11400W        W76385   0.354   1.005  10.602
11401W        W76386  23.560   0.667  13.815
11402W        W76387  24.483   2.876   4.987
11403W        W76388  20.260  12.369  12.589
11404W        W76389  40.311  29.101   0.858
11405W        W76390  35.305  43.646   2.310
11406W        W76391   1.247  25.553   3.725
11407W        W76392   6.261  41.052   0.790
11408W        W76393   3.861   0.089   2.011
11409W        W76394   2.323  11.280   0.285
11410W        W76395   9.819  11.892  12.831
11411W        W76396  34.494  34.609   2.252
11412W        W76397  37.317   1.400   0.344
11413W        W76398  37.288  30.093  12.127
11414W        W76399  32.441  32.026   3.886
11415W        W76400  30.048  29.556   3.797
11416W        W76401  37.542  14.574   5.138
11417W        W76402  39.320  16.204  13.422
11418W        W76403  37.972  27.199  13.809
11419W        W76404  11.471  36.340   3.208
11420W        W76405   5.432  31.441  11.075
11421W        W76406  14.799   6.817   3.156
11422W        W76407  13.879  44.295   4.476
11423W        W76408   9.072  43.701   1.327
11424W        W76409  26.919   4.790   4.750
11425W        W76410  37.807   2.912   0.216
11426W        W76411  28.673  33.462  12.607
11427W        W76412  34.832  18.084  13.510
11428W        W76413  42.043  36.507  13.140
11429W        W76414   7.235  40.333   2.146
11430W        W76415  26.943  42.570   2.532
11431W        W76416  36.046  12.252  13.125
11432W        W76417  32.682  37.968   3.164
11433W        W76418  17.073  13.157   0.114
11434W        W76419   2.252  25.013  12.480
11435W        W76420  17.367  43.751  14.450
11436W        W76421  28.789  28.643  12.845
11437W        W76422  43.731   0.012   4.268
11438W        W76423   4.302  38.912  11.907
11439W        W76424   8.239  31.539  10.640
11440W        W76425   4.853  38.584   1.665
11441W        W76426  34.139   1.821   0.469
11442W        W76427  43.185   3.250  11.147
11443W        W76428  30.893  32.026  10.746
11444W        W76429  21.040  28.970   3.637
11445W        W76430   5.778   7.372  12.178
11446W        W76431  35.808  42.185  11.722
11447W        W76432  32.359  43.889  13.981
11448W        W76433  14.129   0.263  13.934
11449W        W76434   0.449  31.077   2.431
11450W        W76435  30.538  43.007   0.388
11451W        W76436  10.142  17.327  14.847
11452W        W76437  31.244   7.427   4.624
11453W        W76438  20.841  15.806  13.939
11454W        W76439  41.373  11.148   2.163
11455W        W76440  40.860   7.398   3.719
11456W        W76441  33.435  38.052  13.366
11457W        W76442  30.450  32.638   1.433
11458W        W76443  41.322  24.199   4.408
11459W        W76444  41.440  42.688   3.595
11460W        W76445  34.825  43.511   2.249
11461W        W76446  35.811   0.018  12.957
11462W        W76447  13.222  14.920   0.325
11463W        W76448  33.922  31.093  14.373
11464W        W76449  21.246  11.265  14.313
11465W        W76450   7.757  41.306   1.809
11466W        W76451   9.229  42.297   1.703
11467W        W76452  20.762  39.979  12.999
11468W        W76453  16.067  25.204  12.168
11469W        W76454  28.276  16.733  14.386
11470W        W76455  14.339  31.736  12.838
11471W        W76456  10.951  37.987   4.525
11472W        W76457  39.706  38.366   3.201
11473W        W76458  27.258  28.904   1.669
11474W        W76459  27.140   7.164   0.597
11475W        W76460   6.097  42.150  10.392
11476W        W76461  27.181   2.295   1.338
11477W        W76462  27.694  30.974  13.453
11478W        W76463   5.978  44.941   1.344
11479W        W76464  25.653  10.369   0.373
11480W        W76465  29.125  14.285   2.723
11481W        W76466  37.848  27.906   3.737
11482W        W76467   6.144  43.495  14.196
11483W        W76468  37.963  39.301  11.503
11484W        W76469  27.609   4.081   4.590
11485W        W76470  20.568  19.170   2.559
11486W        W76471  36.170  11.431   2.119
11487W        W76472  31.029  19.646   4.692
11488W        W76473  22.042   7.357   3.250
11489W        W76474   9.954   0.471   4.574
11490W        W76475  41.981  22.253  14.870
11491W        W76476  15.289  26.455   4.249
11492W        W76477  24.977  30.476  13.909
11493W        W76478   9.299  37.350   3.199
11494W        W76479  43.425  16.310   2.282
11495W        W76480  28.594  40.328  11.034
11496W        W76481   4.224  29.114  11.076
11497W        W76482  27.082  20.224  13.890
11498W        W76483   1.157   7.095  12.365
11499W        W76484  40.535   8.189   4.632
11500W        W76485  34.487  13.364   0.775
11501W        W76486   2.199   8.823  13.783
11502W        W76487  42.073  22.360   5.106
11503W        W76488  26.729  32.227  12.667
11504W        W76489   8.883  39.412   0.363
11505W        W76490  26.392  29.906  13.050
11506W        W76491  12.722  35.843   0.535
11507W        W76492  44.034  40.197   0.986
11508W        W76493  18.018  13.664  13.032
11509W        W76494  44.457  20.185  10.550
11510W        W76495  20.563  43.159   2.340
11511W        W76496   9.332  22.099  14.273
11512W        W76497  14.871  42.114   1.862
11513W        W76498   6.342  37.642  14.917
11514W        W76499   0.837  37.116   4.931
11515W        W76500   8.144  22.613  14.264
11516W        W76501  17.597  29.109  14.286
11517W        W76502  31.907  10.753  12.690
11518W        W76503  12.315  15.603  13.439
11519W        W76504  43.513  33.339   3.161
11520W        W76505  44.958  11.651   0.250
11521W        W76506  41.932  28.142   0.422
11522W        W76507  41.350  29.902  11.527
11523W        W76508  35.314  26.003  12.511
11524W        W76509  21.626  15.686   2.926
11525W        W76510  25.058  27.543   3.422
11526W        W76511  20.746  31.510   1.054
11527W        W76512   2.328  35.426   4.265
11528W        W76513   2.445  21.939   1.796
11529W        W76514  11.612  23.723  10.539
11530W        W76515   4.995  28.043   0.824
11531W        W76516  44.203  21.192   0.337
11532W        W76517  35.617  43.834  14.256
11533W        W76518  36.956   5.662   0.355
11534W        W76519  13.149  36.043   9.807
11535W        W76520  44.395  23.005   3.254
11536W        W76521  37.003  26.694  14.477
11537W        W76522  37.495  21.249  13.239
11538W        W76523  29.516  14.432   3.057
11539W        W76524   2.941  25.075   3.105
11540W        W76525  12.817  27.479   0.684
11541W        W76526  44.763  21.212   1.290
11542W        W76527  40.588   8.473  12.544
11543W        W76528  34.134  20.998   1.170
11544W        W76529  33.346   1.740  11.961
11545W        W76530   6.151   2.287  13.923
11546W        W76531  33.547  17.754  11.685
11547W        W76532   4.406  41.019  12.550
11548W        W76533  31.161  38.436   1.266
11549W        W76534  13.967  24.161  14.783
11550W        W76535  24.298  24.680   3.264
11551W        W76536  15.324  17.316  14.388
11552W        W76537   5.804  18.884   3.980
11553W        W76538   4.723  33.333  12.992
11554W        W76539  35.613   7.295   2.335
11555W        W76540  44.267  11.838  12.611
11556W        W76541  16.485  40.463  12.819
11557W        W76542   9.748  41.950  12.155
11558W        W76543  14.256  31.788  11.041
11559W        W76544  27.656  29.402   4.551
11560W        W76545  21.978  42.734   4.946
11561W        W76546  19.545  37.562  10.835
11562W        W76547  38.442  31.109   4.347
11563W        W76548  19.788  29.433   1.794
11564W        W76549  31.213   3.802   1.118
11565W        W76550   1.778  24.693  11.623
11566W        W76551   2.604  19.009  13.654
11567W        W76552  16.033   9.303  10.473
11568W        W76553   2.723  36.949   2.876
11569W        W76554  39.968  24.707   2.876
11570W        W76555  35.182  41.049   5.137
11571W        W76556  29.333  28.282  11.117
11572W        W76557  41.487  24.067   1.234
11573W        W76558  44.866   6.648   9.656
11574W        W76559   8.382   1.950  11.990
11575W        W76560  25.614  23.701   0.095
11576W        W76561   8.189  24.053   4.372
11577W        W76562   8.853   2.952  14.442
11578W        W76563  35.478  14.283   1.471
11579W        W76564   0.514  32.570   0.422
11580W        W76565  34.090  16.094  11.772
11581W        W76566  39.917  23.668  12.967
11582W        W76567   7.937  22.711   4.140
11583W        W76568  23.329  26.475   1.284
11584W        W76569  10.448   8.248   3.665
11585W        W76570  36.493   6.932   2.764
11586W        W76571  34.873  12.310  14.562
11587W        W76572  10.852  44.031   1.208
11588W        W76573  40.800  16.350   1.859
11589W        W76574  10.575   8.449  13.485
11590W        W76575   9.939   5.678  11.667
11591W        W76576   8.759   8.593  13.537
11592W        W76577  35.143  18.769   2.558
11593W        W76578   7.392   1.318   1.363
11594W        W76579  24.512  39.102  12.503
11595W        W76580  34.665  17.594  10.673
11596W        W76581   7.099  21.050  11.065
11597W        W76582   6.259  43.926   1.943
11598W        W76583  11.210  13.850  12.068
11599W        W76584  10.701  40.534   1.231
11600W        W76585  41.431  14.547   2.360
11601W        W76586  33.309  30.502  12.675
11602W        W76587  23.049  20.019   2.736
11603W        W76588  12.339  25.446  11.624
11604W        W76589   7.044   3.198  14.326
11605W        W76590  39.831   7.859   3.118
11606W        W76591  29.241  44.414  13.120
11607W        W76592  41.585  35.390   3.607
11608W        W76593  15.052  27.995  13.415
11609W        W76594   6.772  30.162  13.036
11610W        W76595  10.108  42.810   0.867
11611W        W76596  44.298  39.023  11.424
11612W        W76597  40.520  37.818  13.493
11613W        W76598  22.956  30.617   5.434
11614W        W76599  26.928  21.731   3.028
11615W        W76600  17.269  29.366   3.481
11616W        W76601  13.528  16.530  14.214
11617W        W76602  29.212  23.201   0.501
11618W        W76603   6.933  14.320  11.600
11619W        W76604  38.817   0.746  11.876
11620W        W76605  44.778  37.885  13.897
11621W        W76606  38.404  34.920  14.105
11622W        W76607  41.188  15.378   2.596
11623W        W76608   4.884   9.164  12.838
11624W        W76609  41.788  41.403   2.427
11625W        W76610  22.556  27.921  14.952
11626W        W76611  15.152  22.248   3.852
11627W        W76612  22.313  39.498   2.297
11628W        W76613  12.279  30.766   3.236
11629W        W76614   4.429   0.413  14.559
11630W        W76615  22.792  36.131   3.460
11631W        W76616  16.672  43.577   1.781
11632W        W76617  25.671  29.405  11.055
11633W        W76618  44.938  36.165  12.069
11634W        W76619  24.121  23.007   2.561
11635W        W76620   1.305  13.609   3.640
11636W        W76621  17.602  35.048  13.302
11637W        W76622  21.656  13.616   2.323
11638W        W76623  19.103  38.136  13.090
11639W        W76624  28.454  32.421  13.497
11640W        W76625   5.803  26.070   1.421
11641W        W76626  23.263  14.114  12.789
11642W        W76627  12.733   3.814  10.543
11643W        W76628  34.416  43.498   3.513
11644W        W76629  13.186  29.975   2.297
11645W        W76630  37.732  31.613  13.883
11646W        W76631  32.570  41.787   0.826
11647W        W76632  32.123  18.125  11.879
11648W        W76633  21.570   0.945  13.728
11649W        W76634  16.651  13.533   2.645
11650W        W76635   9.955  21.293  13.001
11651W        W76636   3.375   9.448  14.323
11652W        W76637   0.100   7.204  14.373
11653W        W76638  29.016  21.092   4.203
11654W        W76639  20.532  42.626   2.224
11655W        W76640  37.851  15.176   0.799
11656W        W76641  19.526   6.463   2.292
11657W        W76642  22.104  10.915   4.042
11658W        W76643   9.678  11.492  12.478
11659W        W76644  13.078  30.582  11.057
11660W        W76645  31.675   5.351  12.690
11661W        W76646  21.693  30.038  12.591
11662W        W76647  29.368  38.019  11.518
11663W        W76648  33.904  19.525   4.523
11664W        W76649  38.229  35.892  13.740
11665W        W76650  39.325  43.666  13.903
11666W        W76651  12.142   4.752  10.949
11667W        W76652  35.576   1.752   2.822
11668W        W76653  22.148  19.451   2.164
11669W        W76654  37.013  12.068  12.135
11670W        W76655   5.165  28.524   2.687
11671W        W76656  27.508   5.217   4.146
11672W        W76657  35.027  43.986   1.939
11673W        W76658  24.538  26.121  13.018
11674W        W76659  23.538   9.784   1.803
11675W        W76660  43.189  28.058  13.749
11676W        W76661  23.028  10.577   4.120
11677W        W76662   9.027  26.344  12.421
11678W        W76663   2.731  26.349  10.945
11679W        W76664  32.776  11.901  12.876
11680W        W76665  29.635   2.825   5.316
11681W        W76666  10.111  26.991   0.442
11682W        W76667  28.130  32.583   3.742
11683W        W76668  27.865  13.246  11.113
11684W        W76669  28.412  11.852   1.638
11685W        W76670  43.428  10.343   3.548
11686W        W76671  14.279  34.414   2.150
11687W        W76672   5.274  38.073   0.035
11688W        W76673  32.903   3.450  13.348
11689W        W76674  19.368  39.216   0.336
11690W        W76675  32.792  14.641  11.914
11691W        W76676  33.150  30.625   1.417
11692W        W76677  17.180  21.078   1.850
11693W        W76678  16.668   7.474   0.364
11694W        W76679   0.292  18.249   4.662
11695W        W76680  35.503  40.601   1.314
11696W        W76681   3.720  12.192   0.630
11697W        W76682  23.928  37.863   0.301
11698W        W76683  36.820   3.851  14.327
11699W        W76684  15.791  27.476   1.858
11700W        W76685  31.922  21.342  10.630
11701W        W76686  43.907  26.007  10.669
11702W        W76687  44.988  18.162  10.498
11703W        W76688  41.943  15.347   1.503
11704W        W76689   5.807  31.132  12.874
11705W        W76690  11.750  38.277   2.756
11706W        W76691  11.219  21.323  11.629
11707W        W76692  18.280  44.501  14.527
11708W        W76693  26.908  44.402  10.988
11709W        W76694  32.399  43.555  12.364
11710W        W76695  32.325  28.262   1.888
11711W        W76696  33.208   9.739  12.963
11712W        W76697  37.076  15.987   1.888
11713W        W76698  19.666  37.844   2.734
11714W        W76699  26.267  29.059  10.326
11715W        W76700  10.515   4.701  11.443
11716W        W76701  32.418  26.181  11.475
11717W        W76702   8.820  36.493  12.307
11718W        W76703  19.681  24.509  11.847
11719W        W76704   0.365  16.316  11.552
11720W        W76705  24.209  27.077   4.665
11721W        W76706  40.638  35.509  14.657
11722W        W76707   5.590  41.828   4.188
11723W        W76708   0.166   1.847  12.962
11724W        W76709  14.324  33.103   2.888
11725W        W76710   3.227   4.538  14.928
11726W        W76711  37.604  37.148  11.039
11727W        W76712  12.132  44.113   1.312
11728W        W76713  35.085   6.296  12.996
11729W        W76714  40.608  43.014   3.606
11730W        W76715  39.030  33.822  12.477
11731W        W76716  27.066  37.415   1.689
11732W        W76717  20.154  17.266  12.477
11733W        W76718  40.784  41.329   4.287
11734W        W76719  28.067  39.896   2.356
11735W        W76720  29.829  18.196   4.528
11736W        W76721  16.333   8.091  10.340
11737W        W76722  23.033  34.817   2.124
11738W        W76723  18.247  42.101   2.658
11739W        W76724   1.793  28.430  11.131
11740W        W76725  10.712  38.770   4.110
11741W        W76726  26.614  12.808  14.382
11742W        W76727  23.780   4.215  14.656
11743W        W76728  11.363  20.013  12.055
11744W        W76729   7.870  39.555   2.836
11745W        W76730  10.643  26.512   2.176
11746W        W76731  32.810  15.800  11.044
11747W        W76732  26.059  15.171   3.757
11748W        W76733  22.569   1.659  12.071
11749W        W76734  14.239  31.860  12.359
11750W        W76735  21.189   6.004  11.990
11751W        W76736  35.551  43.812   1.906
11752W        W76737  39.498  27.605  13.558
11753W        W76738  43.978  41.513   3.112
11754W        W76739  19.987   9.892  13.477
11755W        W76740   4.714  25.588  11.248
11756W        W76741  29.042  31.217   0.372
11757W        W76742   1.764   0.887   0.791
11758W        W76743  16.165  29.264  11.951
11759W        W76744   1.610   5.807  12.960
11760W        W76745  11.680   4.273   3.562
11761W        W76746  23.705  13.804  13.554
11762W        W76747  30.947   5.158  12.782
11763W        W76748  40.209  19.658  11.045
11764W        W76749  21.269   5.388   4.987
11765W        W76750  32.357  42.396  12.965
11766W        W76751  25.784  14.623  13.823
11767W        W76752  33.082  19.583   1.773
11768W        W76753  14.823  13.525   1.118
11769W        W76754  41.920  31.702  11.527
11770W        W76755   1.297  13.568   4.601
11771W        W76756  13.647  26.992   2.179
11772W        W76757  24.092  18.158  14.543
11773W        W76758  32.463   5.650   1.271
11774W        W76759  18.519  16.911   2.681
11775W        W76760  18.054   2.775  13.530
11776W        W76761  16.033   4.768  13.860
11777W        W76762  20.427   9.082  11.442
11778W        W76763  44.224  23.137  10.696
11779W        W76764  32.585   0.490   4.566
11780W        W76765  42.985  25.966   2.081
11781W        W76766   4.699   0.484   3.780
11782W        W76767  27.700  31.904   0.506
11783W        W76768  42.008  30.456   2.315
11784W        W76769  13.653  40.540  10.514
11785W        W76770  13.613  11.404   0.885
11786W        W76771  15.138  39.087   1.248
11787W        W76772  17.857  35.138  11.031
11788W        W76773   2.405  12.414  14.754
11789W        W76774  28.268   2.768  13.907
11790W        W76775  43.470  26.017  13.495
11791W        W76776  34.181  18.717  13.262
11792W        W76777   1.793  21.211  11.968
11793W        W76778  37.973  35.514   2.801
11794W        W76779  17.903  25.766  12.991
11795W        W76780  21.980  41.983   4.559
11796W        W76781  30.073  10.698   4.838
11797W        W76782  29.190   4.858   4.704
11798W        W76783   6.914  36.881  13.222
11799W        W76784  24.013  32.374  12.706
11800W        W76785  22.565  13.610   0.445
11801W        W76786  43.529  36.190  13.059
11802W        W76787  14.365  34.328  13.410
11803W        W76788  17.474  16.830  11.948
11804W        W76789  24.921   9.824  11.598
11805W        W76790  12.733   2.200  12.500
11806W        W76791  24.273  14.200   4.583
11807W        W76792  35.869   6.480   3.212
11808W        W76793   5.301  31.125  11.470
11809W        W76794  13.775   1.721  13.157
11810W        W76795  10.704  19.005   2.296
11811W        W76796  14.923  25.506  12.569
11812W        W76797  24.054  26.202  13.740
11813W        W76798  27.710  19.171   2.830
11814W        W76799  21.830  42.122   1.647
11815W        W76800  32.655  14.806   0.520
11816W        W76801  22.222  14.612  11.096
11817W        W76802  13.483  31.457  13.873
11818W        W76803  14.721  37.429   0.958
11819W        W76804  38.980  32.710  10.757
11820W        W76805  17.826  44.161   3.401
11821W        W76806  39.329  24.151   0.709
11822W        W76807  15.837  17.611  12.008
11823W        W76808  11.753  10.303  14.414
11824W        W76809  19.644  33.629   0.958
11825W        W76810  19.166  33.373   3.288
11826W        W76811  44.772   7.705   2.921
11827W        W76812  20.805  19.746  14.975
11828W        W76813  38.979  36.554  12.955
11829W        W76814  19.396  28.557   1.166
11830W        W76815   4.951  23.622  13.503
11831W        W76816  27.545  25.036  10.688
11832W        W76817   3.612  33.458  13.697
11833W        W76818  43.343  31.510  12.467
11834W        W76819  42.722  40.069  10.606
11835W        W76820  38.646  20.347   3.593
11836W        W76821  35.820  21.228   3.582
11837W        W76822   8.512  36.417   2.378
11838W        W76823  25.369  35.734   0.436
11839W        W76824   9.396  22.518  14.851
11840W        W76825   5.951  36.633  13.416
11841W        W76826  14.526  24.327  14.096
11842W        W76827  15.581   5.130   0.407
11843W        W76828   2.271   0.380  14.712
11844W        W76829  11.675  23.057   0.960
11845W        W76830  36.943  10.198   4.470
11846W        W76831  27.499  21.659  14.522
11847W        W76832  34.659  40.965  10.589
11848W        W76833  24.345  30.830   3.606
11849W        W76834  17.070   3.055  12.119
11850W        W76835   4.066   9.200  10.592
11851W        W76836  42.343  27.138  14.027
11852W        W76837   0.476  33.733  11.899
11853W        W76838  37.283  13.219   3.049
11854W        W76839  12.422   1.912   2.812
11855W        W76840   3.030  22.441   2.811
11856W        W76841  19.152   3.551  11.906
11857W        W76842   1.862  21.624   4.322
11858W        W76843   4.821  18.281   1.946
11859W        W76844   5.941   5.948  12.573
11860W        W76845  29.647   3.834   3.838
11861W        W76846   2.777  33.652   0.213
11862W        W76847  13.210  44.867   4.529
11863W        W76848   0.303   7.668   2.089
11864W        W76849  37.441  30.926  12.709
11865W        W76850   0.622   2.286   2.873
11866W        W76851  34.422  25.971   4.210
11867W        W76852  10.674  13.864  12.960
11868W        W76853   5.382  35.787   2.322
11869W        W76854  29.509  27.219   0.815
11870W        W76855  39.019  17.470   1.292
11871W        W76856  11.137   9.694  11.039
11872W        W76857  40.355   6.379   3.061
11873W        W76858   4.908  37.299   0.697
11874W        W76859  44.716  11.713  12.419
11875W        W76860  24.965  41.800  12.296
11876W        W76861  16.792  29.441  14.058
11877W        W76862  13.966  26.375  12.484
11878W        W76863   9.913  14.107   4.168
11879W        W76864  36.583  36.612  13.443
11880W        W76865  44.339  20.129  14.893
11881W        W76866  28.703  39.385   4.559
11882W        W76867  11.732   6.350  11.248
11883W        W76868  42.313  10.657  10.692
11884W        W76869  32.860  17.300   3.924
11885W        W76870  38.884  27.243   3.962
11886W        W76871  36.878  13.276   4.871
11887W        W76872  40.305  40.046   5.037
11888W        W76873  33.887  32.837  11.719
11889W        W76874   9.274  33.374   4.691
11890W        W76875   6.393  17.986   1.007
11891W        W76876  32.561   8.441  12.944
11892W        W76877  25.174  23.444   1.901
11893W        W76878  28.387  11.484   1.274
11894W        W76879  15.178  41.945  11.489
11895W        W76880   0.500  19.068   4.121
11896W        W76881  40.952   3.953   1.252
11897W        W76882   7.722  26.748   2.891
11898W        W76883   3.489  11.124  13.946
11899W        W76884  40.634  22.236   2.808
11900W        W76885  37.927  38.854  14.489
11901W        W76886  31.418  23.515   4.007
11902W        W76887  43.553  38.792   2.550
11903W        W76888   9.692   6.737   0.873
11904W        W76889  39.318  16.356   2.678
11905W        W76890  14.055  42.768   2.426
11906W        W76891  21.047  37.467  14.922
11907W        W76892  35.976   7.326  13.401
11908W        W76893  26.778   2.897   3.680
11909W        W76894  28.930  40.030   4.068
11910W        W76895  18.162  26.457  13.549
11911W        W76896   0.970  14.690  14.409
11912W        W76897  34.886  37.589   4.536
11913W        W76898  41.479  40.544   2.368
11914W        W76899  43.879   7.165  11.507
11915W        W76900  37.437  40.317   3.280
11916W        W76901  14.181  39.284  10.694
11917W        W76902   1.507  32.089   3.265
11918W        W76903  38.045   7.401   9.777
11919W        W76904  43.465  33.373  10.976
11920W        W76905  30.175  42.284  12.999
11921W        W76906   4.342  25.692   3.095
11922W        W76907   6.301   8.257  11.515
11923W        W76908   9.120  31.187   1.356
11924W        W76909  16.314  31.595   3.189
11925W        W76910  22.771  16.633   5.124
11926W        W76911  28.525  28.034  11.597
11927W        W76912   5.222  21.806   2.479
11928W        W76913  44.789  30.460   4.096
11929W        W76914  38.443  28.979  13.087
11930W        W76915  26.357  33.117   5.421
11931W        W76916  15.327  38.532   3.445
11932W        W76917   6.370   1.712  13.040
11933W        W76918  29.650  35.579   4.860
11934W        W76919  42.202  17.511   4.038
11935W        W76920  25.550  42.603  10.705
11936W        W76921  33.856  20.747  11.614
11937W        W76922  30.442  30.573   0.502
11938W        W76923  39.012  42.277  11.265
11939W        W76924   6.284  30.118   1.187
11940W        W76925  12.447  38.821  12.432
11941W        W76926  28.300  44.042   1.463
11942W        W76927  30.206  32.612  12.964
11943W        W76928  29.024  28.372   4.177
11944W        W76929   5.498  11.825  11.860
11945W        W76930  20.068  39.070   2.228
11946W        W76931  34.041  40.218   3.347
11947W        W76932   1.725   3.182   0.359
11948W        W76933   3.959  36.536   1.376
11949W        W76934  15.794  33.953   4.356
11950W        W76935  40.597  27.454  10.142
11951W        W76936  36.626  27.051   1.905
11952W        W76937  39.179   5.366   1.206
11953W        W76938  32.627   6.671   1.076
11954W        W76939  41.894   7.695   2.151
11955W        W76940  36.329  39.021  14.190
11956W        W76941  19.685  25.142  10.642
11957W        W76942  40.027  41.924   4.684
11958W        W76943   3.872   7.641   1.708
11959W        W76944  32.627  39.990  12.448
11960W        W76945   6.386  21.200   2.652
11961W        W76946  35.635  28.190   4.139
11962W        W76947  16.762  36.112   3.406
11963W        W76948  22.231  32.049   1.449
11964W        W76949  19.968  26.431   3.339
11965W        W76950   9.699  30.837   3.662
11966W        W76951   0.940  29.900  12.655
11967W        W76952  44.766   8.632   3.325
11968W        W76953  21.075  35.594  13.258
11969W        W76954  21.935  42.442  10.612
11970W        W76955  13.397   1.726  12.209
11971W        W76956   1.919  33.722  14.036
11972W        W76957  25.559  16.841   0.802
11973W        W76958  30.124  25.949  14.461
11974W        W76959  19.821  11.178   3.260
11975W        W76960  11.808   8.762   4.508
11976W        W76961   2.675   4.020   0.690
11977W        W76962   0.764  31.968   0.557
11978W        W76963  43.898  11.131   1.239
11979W        W76964  31.153  38.120  11.154
11980W        W76965  19.136  35.657  12.184
11981W        W76966  38.853  31.506   1.193
11982W        W76967  24.666  13.897  11.030
11983W        W76968  33.574   3.469   4.197
11984W        W76969  13.551  36.112   1.289
11985W        W76970  14.219  36.317   2.127
11986W        W76971  13.088   9.136  14.880
11987W        W76972  42.452  42.824   3.366
11988W        W76973   8.334   8.434  12.148
11989W        W76974  29.668  13.061   4.498
11990W        W76975  26.757   0.866   2.728
11991W        W76976  19.328  14.645   0.722
11992W        W76977   5.045  10.637   4.260
11993W        W76978  27.497   7.578  13.075
11994W        W76979  30.369  28.715   1.794
11995W        W76980  34.839  28.848   4.568
11996W        W76981  10.178  44.167   0.698
11997W        W76982   2.165  22.498  11.702
11998W        W76983  31.436   5.735   1.906
11999W        W76984   9.710  21.118   2.600
12000W        W76985   5.119  18.479   2.350
12001W        W76986  24.307  22.332   5.080
12002W        W76987  11.011  38.590   1.088
12003W        W76988  43.039   1.353   1.167
12004W        W76989  34.374   6.187  11.846
12005W        W76990   8.918  24.587   0.910
12006W        W76991  25.448  28.861   3.632
12007W        W76992  22.681  32.084   4.812
12008W        W76993  44.696   3.928  11.854
12009W        W76994  40.013  13.872  14.308
12010W        W76995  30.650  43.205   3.982
12011W        W76996  30.134  34.162   1.009
12012W        W76997  40.603  19.675   1.387
12013W        W76998  11.025  11.279  14.270
12014W        W76999  31.689  15.745  13.512
12015W        W77000   2.319   8.341   0.364
12016W        W77001  29.101  43.423   2.669
12017W        W77002  13.161  18.758  12.489
12018W        W77003  33.894  33.123   0.448
12019W        W77004  28.182  18.850   1.286
12020W        W77005   8.615  40.812  12.003
12021W        W77006  32.733   5.309   2.157
12022W        W77007  20.264  27.650   0.206
12023W        W77008   5.571  40.382   3.334
12024W        W77009  15.478   4.250   1.914
12025W        W77010  27.166  11.810   0.691
12026W        W77011  30.106  31.140  11.034
12027W        W77012  27.590   6.434  11.522
12028W        W77013  30.901  40.014   4.678
12029W        W77014  37.824  35.355   4.249
12030W        W77015  42.816  31.440  10.752
12031W        W77016   1.374  36.301   3.889
12032W        W77017  22.998  37.378   1.314
12033W        W77018   1.434   6.394   0.969
12034W        W77019  31.538  42.993  12.474
12035W        W77020  32.923  28.647   1.680
12036W        W77021  19.676  41.833   1.253
12037W        W77022  42.311   2.488   4.055
12038W        W77023  32.669  39.043   4.366
12039W        W77024   8.429   2.354  13.785
12040W        W77025  13.739  18.541  11.435
12041W        W77026  27.178  19.514  13.402
12042W        W77027  42.031   2.233  14.313
12043W        W77028  30.594  16.749  14.742
12044W        W77029  44.300  30.576   4.822
12045W        W77030  27.286  16.260   0.394
12046W        W77031  44.019  29.065   4.957
12047W        W77032   2.208  40.852   4.110
12048W        W77033  14.830   6.993  13.285
12049W        W77034  14.739  32.641   2.151
12050W        W77035  37.496  12.996   0.147
12051W        W77036   5.798   5.383   2.694
12052W        W77037  10.648  36.058  10.576
12053W        W77038   1.529  26.937  11.741
12054W        W77039  28.301  20.671  12.806
12055W        W77040   1.515  34.229   4.116
12056W        W77041  23.170  12.825   0.516
12057W        W77042  32.770  38.971  14.435
12058W        W77043  16.028   0.894  14.869
12059W        W77044  16.465  22.409  11.165
12060W        W77045  19.344  43.214  11.054
12061W        W77046  42.273  28.084   2.969
12062W        W77047  29.215  25.105  10.699
12063W        W77048  16.028  27.074  12.918
12064W        W77049   5.975  38.319  12.033
12065W        W77050  26.201   5.372   3.142
12066W        W77051   3.430  13.623  11.282
12067W        W77052   9.543   1.039  13.235
12068W        W77053  25.669  16.798   0.262
12069W        W77054  23.049  16.380   0.476
12070W        W77055  29.785   2.708   4.301
12071W        W77056   1.937  43.107  14.361
12072W        W77057  27.105  22.434   4.859
12073W        W77058   1.982  31.594   1.151
12074W        W77059  41.505  41.217   0.942
12075W        W77060   0.518   8.623   2.311
12076W        W77061   0.436  19.027  14.890
12077W        W77062  39.264  38.479   3.685
12078W        W77063   8.785  15.120   3.161
12079W        W77064  20.644  27.271   0.431
12080W        W77065  20.590  29.054   4.964
12081W        W77066  18.649  24.019  12.388
12082W        W77067   3.298  25.734  11.582
12083W        W77068  17.530   6.896   3.042
12084W        W77069   3.016   4.805   1.867
12085W        W77070  40.046  10.718  12.569
12086W        W77071  29.185   5.270   1.756
12087W        W77072  28.308  14.561   0.389
12088W        W77073  29.479  24.960  10.248
12089W        W77074  35.412  37.438   1.950
12090W        W77075  30.006  37.505   2.193
12091W        W77076   7.226  26.131   1.679
12092W        W77077  42.202  12.386  11.034
12093W        W77078  36.971  17.841  11.548
12094W        W77079   3.768   5.456   2.372
12095W        W77080  35.352  31.661   4.186
12096W        W77081  29.441  41.312   1.191
12097W        W77082  40.770  37.984  14.386
12098W        W77083  30.435  16.508   1.411
12099W        W77084  39.102  36.544   3.866
12100W        W77085  38.730   8.814   4.881
12101W        W77086  17.073   1.411  11.176
12102W        W77087  36.841  10.652  11.772
12103W        W77088  42.918   4.119   4.866
12104W        W77089  38.074  35.969   3.426
12105W        W77090  43.626   6.977  11.084
12106W        W77091  22.293  37.323   2.663
12107W        W77092  34.969  33.566  10.721
12108W        W77093  38.092   3.843   2.763
12109W        W77094  25.508  36.873   1.086
12110W        W77095  16.791   0.759   3.999
12111W        W77096  13.647  14.906   1.158
12112W        W77097  37.989  24.462   2.900
12113W        W77098  37.175  30.042   2.987
12114W        W77099  29.598  37.083   0.304
12115W        W77100  25.209  26.661   3.185
12116W        W77101  14.194   2.224   2.359
12117W        W77102  44.035  28.034  12.138
12118W        W77103  24.146  41.731  14.291
12119W        W77104  38.335  15.156   1.896
12120W        W77105  17.081  25.924  12.070
12121W        W77106  39.163  18.564  11.962
12122W        W77107  24.258   4.715  14.545
12123W        W77108   3.289  29.691   0.387
12124W        W77109   1.023   5.448  13.840
12125W        W77110  25.932  44.415   1.390
12126W        W77111  30.797  38.606  11.962
12127W        W77112  19.754  38.394   3.241
12128W        W77113  31.888  31.399  12.255
12129W        W77114  39.317  34.894  14.759
12130W        W77115   2.704  20.811   4.908
12131W        W77116  36.060  35.537  13.071
12132W        W77117  28.767   5.783  12.147
12133W        W77118  29.624  31.799  14.954
12134W        W77119  10.654   5.184  11.590
12135W        W77120  38.193   1.506  14.333
12136W        W77121  15.567   2.392   1.853
12137W        W77122   0.339   5.507  14.412
12138W        W77123   8.685  33.478  12.505
12139W        W77124  39.072  30.007   3.808
12140W        W77125   9.576  27.558   3.561
12141W        W77126  11.947  27.500   4.109
12142W        W77127  27.105   1.498   3.158
12143W        W77128  35.044  20.758   1.263
12144W        W77129  19.052  27.668  13.199
12145W        W77130  28.013  26.916   0.869
12146W        W77131  14.829  42.013   0.324
12147W        W77132  13.570  12.320   0.744
12148W        W77133  38.843  19.789  12.067
12149W        W77134   2.624   5.815  12.154
12150W        W77135  26.214  41.941   1.656
12151W        W77136  29.867  41.642  13.374
12152W        W77137   5.539  10.395   0.865
12153W        W77138  35.555   5.414  11.509
12154W        W77139  37.509  26.005   0.053
12155W        W77140  20.833  12.622   2.174
12156W        W77141   2.716  10.867   1.456
12157W        W77142   8.076  10.202  14.981
12158W        W77143  10.753  34.899  11.524
12159W        W77144  33.932   6.221  12.151
12160W        W77145  15.328  11.674  13.939
12161W        W77146  44.403  31.877   1.314
12162W        W77147  39.932   2.867  13.570
12163W        W77148  37.630  24.193  12.848
12164W        W77149  27.188  33.843   2.694
12165W        W77150   2.460  22.472  10.899
12166W        W77151  11.722  36.779   1.819
12167W        W77152  12.790   6.857   4.947
12168W        W77153  36.902  34.042  12.296
12169W        W77154  43.854   2.846   1.231
12170W        W77155  32.875  34.380  13.044
12171W        W77156  28.931  31.339   0.914
12172W        W77157  17.286  42.492   2.613
12173W        W77158  14.695   7.745   3.217
12174W        W77159   9.817  23.217   1.650
12175W        W77160  40.746   2.349   2.967
12176W        W77161  40.041  25.590   2.164
12177W        W77162  39.965  23.134   0.749
12178W        W77163  42.940  10.097   2.874
12179W        W77164   1.823  26.721   1.743
12180W        W77165  34.720  11.244  14.225
12181W        W77166  29.950   9.396  11.215
12182W        W77167  17.314  35.547   0.008
12183W        W77168  25.896  26.073   1.811
12184W        W77169  37.402  34.704  14.240
12185W        W77170  37.825  24.866  11.697
12186W        W77171  14.191   1.832  10.959
12187W        W77172  18.152  20.419  13.938
12188W        W77173   2.863   1.828   2.044
12189W        W77174   7.205  15.551   4.621
12190W        W77175   7.375  42.423   1.004
12191W        W77176  40.935  43.838   3.304
12192W        W77177  28.867   6.684   2.376
12193W        W77178  37.481   5.452   4.085
12194W        W77179   8.582  42.057   0.943
12195W        W77180   2.402  30.930   4.081
12196W        W77181  31.065  32.016  14.934
12197W        W77182  39.726  21.422  11.951
12198W        W77183   4.254   8.655  11.966
12199W        W77184   0.226   3.936  13.052
12200W        W77185  15.768  16.114  13.530
12201W        W77186   0.739  44.046   1.345
12202W        W77187  32.469  32.496   4.064
12203W        W77188  35.564  12.240  13.332
12204W        W77189   9.155  25.489  14.998
12205W        W77190  19.800  43.455  11.075
12206W        W77191   3.355   4.979   4.995
12207W        W77192  22.305   0.132   0.300
12208W        W77193  37.901  21.708   2.671
12209W        W77194  43.270  33.626  13.843
12210W        W77195   7.665  36.087   2.766
12211W        W77196  18.165   9.312  11.015
12212W        W77197   2.099  25.682   3.452
12213W        W77198   8.895  22.090   2.959
12214W        W77199  27.527  35.464  11.563
12215W        W77200  38.761  32.912   4.681
12216W        W77201  24.779  38.812  14.863
12217W        W77202  29.790  19.176  14.633
12218W        W77203  14.066   9.924   3.762
12219W        W77204  26.090  35.798  13.082
12220W        W77205  14.390  26.950   2.697
12221W        W77206   8.255  41.345   1.571
12222W        W77207  22.438   8.703  11.256
12223W        W77208  36.084  12.694   3.520
12224W        W77209   8.341   5.336   0.311
12225W        W77210   2.791  37.416   1.619
12226W        W77211  23.032  41.048  12.061
12227W        W77212  44.466  37.991   0.488
12228W        W77213  22.067   8.689  12.548
12229W        W77214  17.563  24.497   0.360
12230W        W77215   8.766  22.756   1.217
12231W        W77216  14.955  14.240   0.249
12232W        W77217  28.411  38.395  13.057
12233W        W77218  21.588  31.831  13.413
12234W        W77219  14.080  43.805   4.582
12235W        W77220  16.550  17.301  13.879
12236W        W77221  34.929  30.958   4.414
12237W        W77222  38.559  34.491  14.863
12238W        W77223  11.880  15.807   2.725
12239W        W77224  33.689   6.145   3.157
12240W        W77225   5.606   6.305  10.603
12241W        W77226  20.340  12.231   0.901
12242W        W77227  10.828  41.432   2.639
12243W        W77228  24.997  39.722  11.156
12244W        W77229  22.531  23.283  13.814
12245W        W77230  21.531  38.146  14.108
12246W        W77231  32.138  32.127  11.210
12247W        W77232  26.499  32.232   4.524
12248W        W77233  13.638  30.852   3.275
12249W        W77234   4.386  12.098  12.413
12250W        W77235  17.397  36.491   2.324
12251W        W77236  26.186  34.478  13.533
12252W        W77237  18.182  43.070  11.533
12253W        W77238  33.554  28.423  13.520
12254W        W77239  32.795  18.708   4.005
12255W        W77240  35.719  24.564   2.777
12256W        W77241  12.648  21.947  11.061
12257W        W77242   6.628  21.996   4.151
12258W        W77243  41.856  32.999  10.260
12259W        W77244  35.401   3.206  12.455
12260W        W77245  11.561  41.193  10.265
12261W        W77246  18.769  33.514   0.727
12262W        W77247   2.738  19.097  10.848
12263W        W77248   7.619   8.482  10.247
12264W        W77249   5.824  41.802   4.646
12265W        W77250  39.911  42.085  12.394
12266W        W77251  25.762   0.556  13.288
12267W        W77252  17.337  33.551  12.821
12268W        W77253  14.082  41.348  13.941
12269W        W77254  21.512  29.273   2.324
12270W        W77255  21.073  43.985   1.692
12271W        W77256  22.687  28.406   0.712
12272W        W77257   2.715  26.540  13.303
12273W        W77258  29.079  38.964   0.622
12274W        W77259   1.661  14.137   2.340
12275W        W77260  12.239   9.348   4.042
12276W        W77261  36.174  22.752  13.530
12277W        W77262   1.272  23.983  13.338
12278W        W77263  38.808  30.946   3.573
12279W        W77264   2.233  22.311  12.906
12280W        W77265  35.952  12.757   4.022
12281W        W77266  10.179  26.493   3.278
12282W        W77267  43.468  18.124  12.453
12283W        W77268  36.332  41.431  11.922
12284W        W77269  16.071  18.572  13.879
12285W        W77270   7.394   8.881   1.970
12286W        W77271  25.463   6.446   0.899
12287W        W77272  14.316   2.483   3.637
12288W        W77273  14.794  19.481   4.991
12289W        W77274  24.512   8.796  14.350
12290W        W77275  20.682  44.940   0.221
12291W        W77276   1.312  40.489  10.644
12292W        W77277  31.681  12.109  13.602
12293W        W77278  42.078   7.268  10.366
12294W        W77279  17.733   2.360  12.037
12295W        W77280  22.615   0.712   2.604
12296W        W77281  28.299  21.100  10.216
12297W        W77282  31.996  12.711  12.482
12298W        W77283  30.234  28.083  10.693
12299W        W77284  35.012  42.504  14.496
12300W        W77285  15.078   7.082   1.752
12301W        W77286  15.134  42.572   2.095
12302W        W77287  37.955  35.059  12.427
12303W        W77288  35.935  21.562  11.120
12304W        W77289  38.581   4.941   4.164
12305W        W77290  28.415   2.918   3.680
12306W        W77291  15.135  12.143  10.693
12307W        W77292  10.814  21.568   2.260
12308W        W77293   8.858  35.020  11.692
12309W        W77294  42.215   4.429   0.742
12310W        W77295   6.510  43.227   3.751
12311W        W77296   0.471  41.325   2.774
12312W        W77297   8.856  35.871  11.123
12313W        W77298  10.788  24.271  10.729
12314W        W77299   4.909   5.703  14.354
12315W        W77300   6.388   3.708  13.854
12316W        W77301  21.260   3.311  12.044
12317W        W77302   9.748  36.174   0.282
12318W        W77303   9.062  11.542   0.132
12319W        W77304  42.039  24.493  12.992
12320W        W77305  31.341   2.821   0.449
12321W        W77306   8.318  40.378   2.920
12322W        W77307  19.399  28.621  12.940
12323W        W77308   4.135  33.572   4.167
12324W        W77309  40.629  32.889   9.776
12325W        W77310   0.196  15.573   9.991
12326W        W77311   0.779   7.789  10.740
12327W        W77312  31.805   2.181  14.039
12328W        W77313  42.381  19.296  10.642
12329W        W77314  25.693  11.939   1.277
12330W        W77315  29.156  29.974  10.237
12331W        W77316  32.176   9.227  14.497
12332W        W77317  20.616   7.156  13.120
12333W        W77318  44.277  16.086   1.049
12334W        W77319  40.995   7.258   0.358
12335W        W77320   3.068  26.941   4.776
12336W        W77321  39.881   1.848   2.329
12337W        W77322  34.910  18.568  12.696
12338W        W77323  25.934  23.845   0.473
12339W        W77324  38.538  40.919  10.569
12340W        W77325  23.158  42.848  11.521
12341W        W77326   9.739   7.189  12.516
12342W        W77327  18.650   8.338  14.557
12343W        W77328  34.772  32.131  12.957
12344W        W77329  14.127  18.292   1.943
12345W        W77330  10.863  35.762  12.025
12346W        W77331  28.956  16.389   3.121
12347W        W77332  22.701   7.410   0.408
12348W        W77333  36.862  12.228   3.228
12349W        W77334  40.531  32.359   1.408
12350W        W77335  27.445  27.092  14.864
12351W        W77336  25.753  27.392   4.531
12352W        W77337   1.749  16.051   3.200
12353W        W77338  35.138  32.191  13.912
12354W        W77339  40.970  43.380   4.633
12355W        W77340  40.260  20.553   2.821
12356W        W77341  42.680  24.526  10.341
12357W        W77342   0.788   5.186  14.305
12358W        W77343  35.512  20.778  12.023
12359W        W77344  18.412  29.653   2.729
12360W        W77345  44.454  22.114  12.558
12361W        W77346  16.183  20.737   4.024
12362W        W77347  14.838  27.731   3.592
12363W        W77348   3.575  29.577   4.936
12364W        W77349   3.859  20.456  10.611
12365W        W77350   1.928  13.216   0.780
12366W        W77351   0.376  19.503  14.209
12367W        W77352   3.679  11.776   0.287
12368W        W77353  11.192  34.437   1.430
12369W        W77354  13.174  31.991  13.042
12370W        W77355  34.329  33.956   1.393
12371W        W77356  43.588  15.593  14.183
12372W        W77357  23.554  19.262   3.972
12373W        W77358  18.752   1.330   0.476
12374W        W77359   9.379  44.000   3.809
12375W        W77360  20.611  13.612   4.718
12376W        W77361  25.930   9.516   0.346
12377W        W77362  31.018   8.914   3.984
12378W        W77363  30.611  41.604  11.622
12379W        W77364   2.988  25.990   2.767
12380W        W77365  25.534  34.962  13.030
12381W        W77366   1.181  27.977  13.779
12382W        W77367   6.700  23.490  11.215
12383W        W77368  24.144  13.228  11.904
12384W        W77369  16.217  15.267  13.254
12385W        W77370  19.301   2.350  11.201
12386W        W77371  40.568  10.744   4.798
12387W        W77372  31.812  13.987   1.307
12388W        W77373   2.336   5.913  10.741
12389W        W77374  35.158   2.339   0.796
12390W        W77375  40.758  23.470   4.563
12391W        W77376  40.454  28.366  13.438
12392W        W77377  36.626   6.738  13.890
12393W        W77378  20.793  38.112  12.973
12394W        W77379   7.485  23.352  12.036
12395W        W77380  39.812  16.120  12.492
12396W        W77381  26.113   2.297  14.412
12397W        W77382  18.206  41.501  13.323
12398W        W77383   2.569  37.459  12.007
12399W        W77384   0.585  19.895   0.793
12400W        W77385  11.304  26.539   4.148
12401W        W77386   3.975  44.984  13.854
12402W        W77387  15.273  39.291  12.003
12403W        W77388  20.131  43.019  12.745
12404W        W77389   7.863  38.771  11.707
12405W        W77390  19.317  15.805   4.320
12406W        W77391  23.622  43.726  10.809
12407W        W77392   0.012  38.402  13.998
12408W        W77393  24.925  26.601  11.132
12409W        W77394  10.163  42.343   2.442
12410W        W77395   8.783  35.464  11.419
12411W        W77396  24.913   0.120  14.894
12412W        W77397  38.089   6.321   4.475
12413W        W77398  29.223  11.553   1.531
12414W        W77399   5.873  30.113   4.339
12415W        W77400   4.910  11.828   1.355
12416W        W77401  22.148   1.016  14.460
12417W        W77402  41.766  10.264  12.391
12418W        W77403  20.030   7.217  11.087
12419W        W77404  34.459  41.476  10.513
12420W        W77405  27.522  31.141  11.201
12421W        W77406  42.726   4.168  13.973
12422W        W77407  11.944   7.025   2.832
12423W        W77408  30.515  15.773   4.106
12424W        W77409  14.187  21.676  14.790
12425W        W77410  24.501  40.475  11.963
12426W        W77411  43.866  32.024  11.490
12427W        W77412  31.388  41.262   2.725
12428W        W77413   5.900   2.419   4.526
12429W        W77414  21.814   4.925  12.711
12430W        W77415   4.492   8.986   4.170
12431W        W77416  24.054   6.713   3.548
12432W        W77417  29.838  12.719   1.377
12433W        W77418   1.492  10.152   3.329
12434W        W77419  43.390  35.067   4.278
12435W        W77420  14.064  41.700   4.677
12436W        W77421  27.397   7.323  12.618
12437W        W77422  12.212  15.958  11.230
12438W        W77423  22.952   0.908   4.538
12439W        W77424  35.968  39.517  13.549
12440W        W77425  38.471  34.449  13.497
12441W        W77426  44.043   3.519  11.234
12442W        W77427   2.952  29.973   0.776
12443W        W77428  25.692  41.072   4.895
12444W        W77429  35.507  20.323  12.251
12445W        W77430  32.011  23.281   1.638
12446W        W77431  25.043  27.730  14.953
12447W        W77432  20.912  32.639   2.146
12448W        W77433  31.259  27.257   1.377
12449W        W77434  27.158   7.621  13.502
12450W        W77435  28.469  19.004   1.681
12451W        W77436   0.391  15.195  10.713
12452W        W77437  10.924   1.724   1.125
12453W        W77438  18.865  28.458   1.298
12454W        W77439  43.979  15.265  11.975
12455W        W77440  21.793  12.542   2.509
12456W        W77441  33.103  32.980   1.901
12457W        W77442  21.766  18.433   1.197
12458W        W77443  31.383  24.011   2.744
12459W        W77444  33.044  39.414  14.401
12460W        W77445  24.672  10.535  12.490
12461W        W77446   6.756  18.230  11.701
12462W        W77447  39.290   3.204   4.485
12463W        W77448   0.181   4.228   3.341
12464W        W77449  30.232  36.496   0.047
12465W        W77450  15.211  29.932   1.400
12466W        W77451  26.729  28.176  11.110
12467W        W77452   9.801   5.671   3.160
12468W        W77453  44.277  19.851   4.317
12469W        W77454   4.914  22.564  13.419
12470W        W77455   0.892  34.619  10.704
12471W        W77456  16.784  20.131   4.216
12472W        W77457  40.395  28.056   4.158
12473W        W77458   7.357  20.680   0.761
12474W        W77459  31.897   5.507   1.850
12475W        W77460  17.093  39.353   4.617
12476W        W77461  35.532  24.669   1.443
12477W        W77462  41.237  16.064   3.203
12478W        W77463  30.487   9.851  12.581
12479W        W77464  40.532  26.989   3.079
12480W        W77465  14.946   4.729  11.209
12481W        W77466  37.454   0.386   4.638
12482W        W77467  25.962  22.914   1.878
12483W        W77468  43.575  20.648   0.788
12484W        W77469  24.089  43.838  12.538
12485W        W77470  14.882  25.051  12.967
12486W        W77471  21.726   8.884   3.211
12487W        W77472  26.240   9.978  12.583
12488W        W77473  44.692  41.380   4.423
12489W        W77474  15.777  32.446   1.741
12490W        W77475  42.313  17.329  10.651
12491W        W77476  29.587  39.934   4.668
12492W        W77477   5.790  41.301   1.818
12493W        W77478  42.643  26.006  12.908
12494W        W77479  12.329  32.657  11.673
12495W        W77480   4.471  38.088   3.673
12496W        W77481  12.193  34.991   2.676
12497W        W77482   9.544  33.421   4.229
12498W        W77483  27.609  44.102   1.701
12499W        W77484  31.532  23.936   1.258
12500W        W77485  44.421  35.590   1.891
12501W        W77486  24.077  33.395  11.062
12502W        W77487  19.206  15.266  10.589
12503W        W77488  40.461  27.189   4.477
12504W        W77489  32.495  39.973   1.510
12505W        W77490  21.750  31.307   3.391
12506W        W77491  36.304  29.015  12.646
12507W        W77492  28.630  41.014  14.665
12508W        W77493  10.084   2.331   0.113
12509W        W77494   5.769  26.718   4.818
12510W        W77495   9.330   6.174  12.925
12511W        W77496  29.831   9.402  13.861
12512W        W77497  21.417  35.864   3.464
12513W        W77498   3.961  25.419   4.344
12514W        W77499  35.074  13.668  13.340
12515W        W77500  40.503  42.549  12.950
12516W        W77501  42.788  18.123   1.241
12517W        W77502  28.002  23.983   2.749
12518W        W77503  39.312   7.310   3.802
12519W        W77504   4.377  27.715   4.540
12520W        W77505   4.348  31.182  13.322
12521W        W77506  22.951  26.560  11.849
12522W        W77507  13.609  22.100   0.981
12523W        W77508   0.258  34.099  12.216
12524W        W77509  29.108  23.519   1.473
12525W        W77510  35.501  42.780   1.817
12526W        W77511  41.389  43.771   0.276
12527W        W77512  41.629  23.169   9.768
12528W        W77513  34.750  42.250   2.794
12529W        W77514  26.934  13.214   3.224
12530W        W77515  34.167  36.332  11.585
12531W        W77516   9.427   7.324  11.054
12532W        W77517  19.104  15.783  13.788
12533W        W77518   3.881   7.239  12.175
12534W        W77519  37.512  11.002  11.058
12535W        W77520  40.209  39.844   1.836
12536W        W77521  21.993  21.846   2.344
12537W        W77522   7.625  32.596  14.992
12538W        W77523  42.829  36.365   0.777
12539W        W77524  30.153  17.102   3.578
12540W        W77525  34.469  41.467  13.806
12541W        W77526  31.035  33.157  14.813
12542W        W77527   8.176  31.844  13.806
12543W        W77528  19.156  23.687  11.644
12544W        W77529  25.401  31.032  12.546
12545W        W77530  20.100  12.757   1.655
12546W        W77531  22.579   9.350  11.510
12547W        W77532  26.095  19.050   1.521
12548W        W77533  14.135  11.381   0.846
12549W        W77534  28.390  13.320   3.343
12550W        W77535  14.729   4.850   4.562
12551W        W77536   0.854   5.732  12.509
12552W        W77537  18.263  16.474  11.558
12553W        W77538  21.020  15.568   1.687
12554W        W77539  39.878  28.816   3.898
12555W        W77540  22.471  20.378  14.250
12556W        W77541  10.116  18.076   2.431
12557W        W77542   6.388   3.886  10.808
12558W        W77543  13.785  40.378  11.462
12559W        W77544   7.963  36.505  11.605
12560W        W77545  30.918  37.096  11.687
12561W        W77546  23.205   2.483   1.582
12562W        W77547   8.606  43.409  13.734
12563W        W77548   4.745   4.330   3.373
12564W        W77549  16.278  32.311  14.886
12565W        W77550  42.462  23.157  12.088
12566W        W77551  37.534   4.870   1.852
12567W        W77552   4.008  12.594  12.995
12568W        W77553  31.302  19.222  11.445
12569W        W77554  13.729  15.724  13.370
12570W        W77555  11.601  43.494  12.098
12571W        W77556  41.572   3.278   1.997
12572W        W77557  33.866  11.641   1.941
12573W        W77558   5.692  25.428  14.013
12574W        W77559  28.181  32.472  14.844
12575W        W77560  33.907  28.012   3.359
12576W        W77561  43.536  37.806  12.501
12577W        W77562   2.718  12.449   4.932
12578W        W77563   7.294   4.846  13.826
12579W        W77564  26.152  25.624  11.491
12580W        W77565   9.137  35.442   3.546
12581W        W77566  21.995   6.192  14.988
12582W        W77567   3.435  18.174   3.879
12583W        W77568  13.908  43.729   3.237
12584W        W77569  33.051   6.990   3.771
12585W        W77570   4.828  30.935  11.485
12586W        W77571  21.213  17.090   3.783
12587W        W77572  22.813  20.568  13.106
12588W        W77573  21.229  17.684  14.259
12589W        W77574   1.763  29.205   4.846
12590W        W77575  36.083  41.196  13.917
12591W        W77576  23.651  20.844  13.734
12592W        W77577  43.475   8.832   3.710
12593W        W77578  25.320   5.011  11.208
12594W        W77579   1.226  11.379   3.969
12595W        W77580  32.563  27.215   4.264
12596W        W77581  41.943  32.469   5.588
12597W        W77582  30.200  37.594   2.677
12598W        W77583  27.874  15.675  12.527
12599W        W77584  17.397  38.854  10.736
12600W        W77585  36.882  29.770  11.584
12601W        W77586  44.543   2.293   0.386
12602W        W77587   6.123  21.970  11.495
12603W        W77588   8.331  37.871   1.984
12604W        W77589  10.361  35.744  13.884
12605W        W77590   9.483  32.949   4.513
12606W        W77591  38.814  24.981  12.623
12607W        W77592  14.124  11.380  11.189
12608W        W77593  41.482  32.696   4.713
12609W        W77594  19.125  39.815   4.786
12610W        W77595  25.490  14.357   2.849
12611W        W77596  38.500  21.825  12.844
12612W        W77597  19.010  22.913  13.389
12613W        W77598  39.651   4.874  13.453
12614W        W77599  37.168  17.596  13.338
12615W        W77600  41.783  28.237  10.183
12616W        W77601  11.414   8.583   3.797
12617W        W77602   1.994  25.610  11.692
12618W        W77603  13.229  19.509  12.958
12619W        W77604  29.366   5.865   0.436
12620W        W77605  25.995   0.595  10.648
12621W        W77606  41.752   4.450  10.756
12622W        W77607   5.384  10.251  11.148
12623W        W77608  23.632   9.105   0.776
12624W        W77609  14.221  15.144   1.442
12625W        W77610  42.241  31.405   4.690
12626W        W77611  24.961   0.534  14.377
12627W        W77612  23.816  40.935  14.723
12628W        W77613  28.196  21.444   4.211
12629W        W77614  35.079  38.588   0.913
12630W        W77615  22.280  17.094  10.473
12631W        W77616  25.681  42.789  13.506
12632W        W77617   3.348  25.652  13.887
12633W        W77618   4.285  13.543   0.860
12634W        W77619  26.684   4.255  12.858
12635W        W77620  34.239   0.436   1.110
12636W        W77621  39.409  34.079   4.256
12637W        W77622  28.913  28.178  14.809
12638W        W77623  12.732   8.230  12.197
12639W        W77624   3.426   8.997  11.757
12640W        W77625   2.579   0.253   0.728
12641W        W77626  23.573  29.723   3.297
12642W        W77627  26.032  24.208   0.078
12643W        W77628  27.700  12.761  10.936
12644W        W77629  11.106  35.354  14.429
12645W        W77630  12.680  20.261  13.005
12646W        W77631   0.997   1.923   2.727
12647W        W77632  11.448  44.003  11.700
12648W        W77633  33.280   5.459   4.299
12649W        W77634   4.622   9.605  14.017
12650W        W77635  15.674  25.671  14.798
12651W        W77636   9.848  44.263  11.096
12652W        W77637  17.743  41.523   0.904
12653W        W77638   0.976  39.841  12.471
12654W        W77639   7.362  39.951   1.822
12655W        W77640  24.640   5.484  11.606
12656W        W77641  20.281   5.255   3.307
12657W        W77642  12.210  40.080   0.759
12658W        W77643  25.878  38.451   4.227
12659W        W77644   9.155  31.636   2.276
12660W        W77645  15.734  11.616  14.776
12661W        W77646  32.747  38.142  13.805
12662W        W77647  34.049  23.647  13.410
12663W        W77648   8.633  36.108  13.102
12664W        W77649  39.763  17.266   9.894
12665W        W77650  22.792  26.662   1.866
12666W        W77651  21.974  29.305   4.687
12667W        W77652  22.021  16.697   0.330
12668W        W77653   2.412  40.540  12.651
12669W        W77654  26.581  10.856   4.513
12670W        W77655  24.994  31.944   3.320
12671W        W77656   4.553  29.189  11.932
12672W        W77657  33.892   4.271  10.630
12673W        W77658  18.239  41.648  12.458
12674W        W77659  44.558  37.889  13.425
12675W        W77660  44.490  29.182   1.377
12676W        W77661  42.773  44.995   4.057
12677W        W77662  12.373  28.714   0.239
12678W        W77663  18.255  42.268   1.710
12679W        W77664   6.352  37.096   0.881
12680W        W77665   4.173  23.688  12.077
12681W        W77666   7.667  25.052   1.876
12682W        W77667  31.607  37.549   0.739
12683W        W77668  23.044  38.112  11.979
12684W        W77669  43.945  35.236  12.081
12685W        W77670  38.574  24.228   3.657
12686W        W77671  22.121  30.060   0.639
12687W        W77672   1.275  31.930   2.816
12688W        W77673   9.165   9.274  11.513
12689W        W77674  19.028  23.194   0.344
12690W        W77675  23.515  24.492  13.708
12691W        W77676  14.176   8.279   2.430
12692W        W77677  37.315   3.341   0.333
12693W        W77678  38.946   7.238   0.150
12694W        W77679   2.460  44.079  10.223
12695W        W77680  39.984  36.650   1.426
12696W        W77681   9.899   3.445  11.231
12697W        W77682  37.289  20.313  13.309
12698W        W77683  22.549  23.003   0.828
12699W        W77684  13.356  42.832   4.117
12700W        W77685  13.646  11.896  14.878
12701W        W77686  18.303  39.363   1.322
12702W        W77687  31.522  10.858  13.822
12703W        W77688  39.678  22.766   3.677
12704W        W77689  16.046   7.266   2.076
12705W        W77690  30.539   5.570   1.751
12706W        W77691  10.674  16.279   2.660
12707W        W77692  27.312  27.124  12.470
12708W        W77693  24.588  44.797  13.878
12709W        W77694  32.307   2.252  13.965
12710W        W77695  35.429  10.613  11.686
12711W        W77696  24.591  35.603  12.918
12712W        W77697  23.681   3.397  10.205
12713W        W77698  42.002  15.483   1.011
12714W        W77699  21.655   4.644  14.993
12715W        W77700  44.552   7.845  14.821
12716W        W77701   8.140  24.680   4.880
12717W        W77702  42.009  22.636  13.843
12718W        W77703  44.009  39.371   0.738
12719W        W77704  41.913  10.390  14.944
12720W        W77705  16.355  16.497  12.458
12721W        W77706   1.603  20.773   2.555
12722W        W77707  30.735  40.887   3.284
12723W        W77708   4.703  26.955   5.038
12724W        W77709   2.566  40.646   0.492
12725W        W77710  16.540  44.843   3.260
12726W        W77711  32.360  34.591  14.901
12727W        W77712  10.328  29.677  14.047
12728W        W77713   3.716   8.366   1.094
12729W        W77714  33.399   9.266   1.624
12730W        W77715   3.222   1.464   3.274
12731W        W77716  22.045  16.598  10.407
12732W        W77717   6.779   1.687   3.809
12733W        W77718  14.373   2.787  14.447
12734W        W77719  26.095  19.073  11.668
12735W        W77720   0.795  26.504  11.011
12736W        W77721   7.704   9.439  11.551
12737W        W77722   8.821  32.659  11.877
12738W        W77723   2.406   6.263  12.003
12739W        W77724  35.210   0.392  12.067
12740W        W77725   1.472  44.362   1.919
12741W        W77726  10.401   2.479  13.441
12742W        W77727   3.405  20.245  10.751
12743W        W77728  17.553  42.137  10.504
12744W        W77729  26.682  17.608   3.520
12745W        W77730  21.162  29.367   3.320
12746W        W77731  12.212  21.230   1.389
12747W        W77732  42.417  34.331  14.414
12748W        W77733   3.355   3.785   1.001
12749W        W77734   8.994  34.093  13.493
12750W        W77735  23.569  18.652   9.641
12751W        W77736  26.765  21.609  13.205
12752W        W77737  21.749  21.056   3.431
12753W        W77738  41.043  29.340  13.788
12754W        W77739   4.664  13.730   9.787
12755W        W77740  13.877  19.542  11.058
12756W        W77741  14.592  37.119   2.319
12757W        W77742  14.659  42.960   1.554
12758W        W77743  24.669  18.266  10.990
12759W        W77744  20.063  33.655  12.505
12760W        W77745  11.209  40.857   2.380
12761W        W77746  16.222  15.158  11.512
12762W        W77747   3.212   7.047   0.710
12763W        W77748   0.804  17.765   3.187
12764W        W77749  42.711   2.435  13.280
12765W        W77750   4.962   1.909  11.983
12766W        W77751  15.195  12.853   3.208
12767W        W77752  17.702  28.089  11.548
12768W        W77753  43.418  25.186  12.070
12769W        W77754  42.412  38.604  11.622
12770W        W77755  38.528  26.036  14.019
12771W        W77756  37.859  24.862   3.327
12772W        W77757   0.062  17.817  13.380
12773W        W77758  12.343  12.310   0.479
12774W        W77759  13.036  16.563   0.476
12775W        W77760  20.389   9.608  14.871
12776W        W77761   4.223  10.702   1.916
12777W        W77762  21.341  15.515  13.068
12778W        W77763  42.400   0.095   4.467
12779W        W77764  14.632  27.553   2.736
12780W        W77765  37.878  32.101   0.968
12781W        W77766  24.678  38.475   2.115
12782W        W77767  20.644  25.632   4.935
12783W        W77768   7.820  16.074   0.648
12784W        W77769  28.737   1.799   2.800
12785W        W77770  41.298   5.433  14.399
12786W        W77771   0.599  34.926   0.073
12787W        W77772  44.216  24.146   1.153
12788W        W77773  15.247  19.853  11.062
12789W        W77774   1.945   0.021   3.520
12790W        W77775  24.445   2.504  12.907
12791W        W77776   9.339  36.534  14.566
12792W        W77777  43.786  24.497   1.127
12793W        W77778  15.285  18.513   1.387
12794W        W77779  27.428  13.342   0.245
12795W        W77780  25.101  10.245  13.343
12796W        W77781   6.935  17.964  11.183
12797W        W77782  43.038  25.022  11.089
12798W        W77783  32.584  34.859   0.373
12799W        W77784  17.814  10.033   5.029
12800W        W77785  17.651  31.132  13.496
12801W        W77786  33.515  43.052  14.747
12802W        W77787   8.630  27.843  10.201
12803W        W77788  13.573  20.015  14.746
12804W        W77789  17.245  39.080  14.457
12805W        W77790  13.241  16.980  10.812
12806W        W77791  39.325  16.146  14.595
12807W        W77792   2.388  29.596   3.682
12808W        W77793  21.537  27.930   0.792
12809W        W77794  32.390  43.789  14.909
12810W        W77795  12.492  32.541  14.327
12811W        W77796   0.521  28.747  13.963
12812W        W77797  15.743  22.720  14.017
12813W        W77798  37.371  42.957  10.723
12814W        W77799  39.540  24.496  14.525
12815W        W77800   3.655  33.571  14.754
12816W        W77801   8.924   6.412  10.648
12817W        W77802  30.455  16.811  12.036
12818W        W77803  31.768  26.692   1.430
12819W        W77804   9.572  21.624   2.684
12820W        W77805  11.892  15.573   1.350
12821W        W77806  31.872  39.311   0.660
12822W        W77807  34.251  21.884   4.615
12823W        W77808  27.497  13.416   1.617
12824W        W77809  42.911   6.461   1.397
12825W        W77810  42.355  41.928   2.877
12826W        W77811  38.522   3.144  13.010
12827W        W77812  11.900  30.110   1.676
12828W        W77813  32.000  10.716  13.616
12829W        W77814  41.723  11.130  13.344
12830W        W77815  10.846  18.489   1.256
12831W        W77816   7.078  41.475  10.989
12832W        W77817  32.487  22.036  13.901
12833W        W77818  27.219  25.560   1.749
12834W        W77819  17.253  29.447  14.771
12835W        W77820  24.927  33.762   3.607
12836W        W77821   0.786  42.555   1.468
12837W        W77822  21.795  29.641   0.880
12838W        W77823  25.681  42.814  12.485
12839W        W77824  16.600  13.765   1.124
12840W        W77825  40.898  29.468   4.626
12841W        W77826  17.656  34.680   2.761
12842W        W77827  29.391  22.559   4.626
12843W        W77828  24.078   7.441   2.346
12844W        W77829  21.211  14.971   4.118
12845W        W77830  36.811  12.936  12.398
12846W        W77831  15.748  40.106   4.430
12847W        W77832  31.873  29.634   1.722
12848W        W77833  43.408   4.246   4.269
12849W        W77834   7.623  15.341  14.088
12850W        W77835  25.641   4.016   0.804
12851W        W77836  44.246   4.276  10.822
12852W        W77837  35.968  17.296  12.880
12853W        W77838   0.042  26.516   1.534
12854W        W77839  30.429  34.976   0.795
12855W        W77840  29.993   3.769  14.520
12856W        W77841  43.195  24.430  10.279
12857W        W77842  31.039  24.020  10.061
12858W        W77843  36.251  18.775   9.957
12859W        W77844   4.663   8.342  10.368
12860W        W77845  36.668  37.884  14.864
12861W        W77846  17.564  27.363   2.757
12862W        W77847  36.862   2.458   0.808
12863W        W77848  12.051  17.308  11.584
12864W        W77849   1.499   3.013  10.718
12865W        W77850  35.601  17.572   1.278
12866W        W77851   6.169  26.526  13.907
12867W        W77852  21.992   3.484  13.133
12868W        W77853  34.123   9.780  12.077
12869W        W77854  37.406  20.753   4.690
12870W        W77855  12.195  24.985   1.289
12871W        W77856  29.109  33.332   4.520
12872W        W77857   8.104  28.784   4.499
12873W        W77858  40.888  44.517   1.837
12874W        W77859  26.820  41.923  13.898
12875W        W77860  35.434   5.134   1.674
12876W        W77861  24.056  30.344  11.460
12877W        W77862  35.692   3.007  13.332
12878W        W77863   1.248  13.566   1.329
12879W        W77864  24.382  15.051  13.173
12880W        W77865   5.091  11.435   2.721
12881W        W77866  30.567  32.185   1.659
12882W        W77867  19.746  13.607   1.270
12883W        W77868  14.476  10.306   2.013
12884W        W77869  22.469   8.828  14.455
12885W        W77870   7.641  22.688  12.047
12886W        W77871  41.271  40.186  12.072
12887W        W77872  18.868  24.892   5.000
12888W        W77873   9.261  19.142   0.803
12889W        W77874  28.936  33.639   3.118
12890W        W77875  19.055  13.265  11.463
12891W        W77876   5.912  30.657  12.499
12892W        W77877  36.558   4.008  12.431
12893W        W77878   5.710  22.213   4.188
12894W        W77879  29.121  34.396   0.333
12895W        W77880  27.678  31.142  12.957
12896W        W77881   2.205  27.964  12.427
12897W        W77882  37.836   1.446  13.968
12898W        W77883  37.637   9.646  14.863
12899W        W77884  19.559  22.645  13.967
12900W        W77885   0.702  40.042  12.087
12901W        W77886  32.540  25.505   2.313
12902W        W77887  20.660  40.328  12.398
12903W        W77888  37.609  16.249  12.951
12904W        W77889   8.761  42.246   4.606
12905W        W77890  42.958  33.337  12.955
12906W        W77891  37.367   9.298  13.972
12907W        W77892  41.487   5.161  14.003
12908W        W77893  33.751  38.108   4.111
12909W        W77894  13.741  34.738   1.186
12910W        W77895  33.974  43.837  11.605
12911W        W77896   9.866  19.022   2.305
12912W        W77897  27.151  35.063  12.590
12913W        W77898  27.118  20.663  13.033
12914W        W77899  19.888  10.756  11.712
12915W        W77900  38.380  10.229   3.725
12916W        W77901  19.074  16.000  11.240
12917W        W77902   1.984  42.735   1.221
12918W        W77903   0.308  33.747  11.401
12919W        W77904  43.254  40.262  13.223
12920W        W77905  23.699  38.469  12.573
12921W        W77906  12.593  15.150   1.007
12922W        W77907  18.123   8.783   2.276
12923W        W77908  16.677  40.338  11.555
12924W        W77909   0.905  27.329  10.078
12925W        W77910   1.781  12.097   0.416
12926W        W77911  37.862  41.464   2.552
12927W        W77912  14.659  31.343  12.724
12928W        W77913  36.369   1.181  14.981
12929W        W77914  13.157  12.814   2.249
12930W        W77915   0.889  19.011   2.799
12931W        W77916  16.844  20.389  14.782
12932W        W77917  19.810  12.041  14.759
12933W        W77918  42.014  11.857  10.171
12934W        W77919   9.861  25.700   0.899
12935W        W77920  32.933  20.488  13.525
12936W        W77921  20.668  35.527  13.919
12937W        W77922  16.102  38.427  14.760
12938W        W77923  13.780  31.388  11.628
12939W        W77924  18.338  30.825  12.259
12940W        W77925  11.410  29.944  11.680
12941W        W77926   4.322  34.992   0.741
12942W        W77927  27.809   7.848  10.257
12943W        W77928  33.343  36.402   1.384
12944W        W77929  18.227  17.273   0.878
12945W        W77930  21.691  25.889   2.821
12946W        W77931  33.576  11.443   4.030
12947W        W77932  29.036  14.549   3.379
12948W        W77933   7.431   4.031  14.451
12949W        W77934  11.743  21.567  10.956
12950W        W77935  34.537  31.502   3.195
12951W        W77936  16.376  42.810   4.229
12952W        W77937  24.936  28.571   3.041
12953W        W77938   0.281  29.045  13.554
12954W        W77939   9.940  10.620   3.210
12955W        W77940   3.721  35.573  12.895
12956W        W77941   7.146   7.624   9.686
12957W        W77942  20.462  37.085   4.233
12958W        W77943  28.000  11.369  12.517
12959W        W77944  35.218  29.564   2.887
12960W        W77945   1.651  16.191  10.381
12961W        W77946   5.536  26.915  11.170
12962W        W77947  41.040   6.286   0.412
12963W        W77948   1.828  41.307  10.457
12964W        W77949  11.823  14.255   4.858
12965W        W77950   0.530  21.949   4.222
12966W        W77951  32.714  12.375   1.243
12967W        W77952  20.999  22.294   1.234
12968W        W77953  28.510  35.155   0.172
12969W        W77954  41.638  20.004   2.755
12970W        W77955  24.597  20.934   1.865
12971W        W77956  25.088  36.496  14.827
12972W        W77957  34.716  32.532   1.322
12973W        W77958  25.636  13.678   0.809
12974W        W77959   7.658  43.177   1.948
12975W        W77960  36.649  29.977  11.169
12976W        W77961   4.764  18.069   3.277
12977W        W77962  31.808  25.549   0.803
12978W        W77963  26.273  11.031  14.340
12979W        W77964  41.808  14.536  12.020
12980W        W77965  25.002   3.313  10.736
12981W        W77966   7.395   4.673   0.767
12982W        W77967  29.918  36.920  11.495
12983W        W77968   2.679  12.642   3.159
12984W        W77969   7.861  10.827  10.147
12985W        W77970   8.800  41.416  12.489
12986W        W77971   1.863  39.983  14.516
12987W        W77972  40.787  23.566   9.827
12988W        W77973  41.001   6.377  14.403
12989W        W77974  40.981  38.098   1.927
12990W        W77975  20.369   9.882   2.396
12991W        W77976   7.773  24.021   1.882
12992W        W77977  24.528  10.153  10.740
12993W        W77978   6.465  22.990  13.335
12994W        W77979   0.407  39.806   1.825
12995W        W77980   4.436   3.961   2.328
12996W        W77981  24.281   0.388  10.845
12997W        W77982  20.063  11.155  12.960
12998W        W77983  32.720   4.788  11.710
12999W        W77984  17.790   9.882  13.901
13000W        W77985   0.840  42.818   1.936
13001W        W77986  10.675  18.317  12.805
13002W        W77987  16.249  22.813   3.360
13003W        W77988   0.889  30.572  13.091
13004W        W77989  28.088  27.356  13.563
13005W        W77990  31.456  37.402   3.838
13006W        W77991  11.673   9.764  11.204
13007W        W77992  19.808  10.809  14.281
13008W        W77993   1.900   4.300   4.497
13009W        W77994  20.835  25.260   4.162
13010W        W77995  12.318  36.883  10.758
13011W        W77996  32.638  38.819   0.370
13012W        W77997  25.977   3.892  13.926
13013W        W77998  19.649  34.428  14.058
13014W        W77999  42.897  31.962  14.031
13015W        W78000  27.315   5.842  10.299
13016W        W78001   8.171   6.981  13.945
13017W        W78002  30.612  14.160   2.471
13018W        W78003  24.878  40.832  11.149
13019W        W78004   1.081  24.645  14.866
13020W        W78005  21.596  37.212  14.189
13021W        W78006   4.965  37.468  11.179
13022W        W78007   4.415   1.285  13.434
13023W        W78008  40.040  26.781  12.457
13024W        W78009   0.555  12.093   3.906
13025W        W78010  20.278  19.505   2.253
13026W        W78011  33.993  18.028   1.358
13027W        W78012  30.383  32.003  11.594
13028W        W78013  30.953   2.106  13.103
13029W        W78014  25.929  35.405   3.725
13030W        W78015  14.865  28.620   1.207
13031W        W78016   9.197  27.538  11.976
13032W        W78017  15.055  15.217   1.750
13033W        W78018  27.979  28.479  13.037
13034W        W78019  39.101  42.023  13.456
13035W        W78020  31.819  31.452   1.766
13036W        W78021  42.933  34.401  11.238
13037W        W78022  29.881  44.971   2.933
13038W        W78023   2.871  10.826  10.759
13039W        W78024  39.987  33.782   3.652
13040W        W78025   8.177  29.578  13.279
13041W        W78026  38.571  12.357  11.614
13042W        W78027  16.839  23.535  11.084
13043W        W78028  42.525  44.286  13.045
13044W        W78029  25.123  14.779  13.088
13045W        W78030  42.807  11.802   2.265
13046W        W78031   6.829  42.847  11.632
13047W        W78032   6.386  35.861  13.462
13048W        W78033   4.257  43.546   3.636
13049W        W78034  43.996  44.824   2.407
13050W        W78035  21.039  42.333   1.114
13051W        W78036  25.768  25.109  14.972
13052W        W78037  20.640  42.888  12.593
13053W        W78038   7.187  39.944  10.704
13054W        W78039  32.699   9.194  13.591
13055W        W78040  24.246  17.347   3.745
13056W        W78041  12.772  31.655   4.819
13057W        W78042  28.618  14.042  13.154
13058W        W78043  39.809  15.551  12.418
13059W        W78044  26.556  24.667  13.004
13060W        W78045   6.026  30.976   3.369
13061W        W78046   8.916  12.139   2.919
13062W        W78047  16.054  32.127  10.858
13063W        W78048  23.507  31.382  14.161
13064W        W78049  35.830  20.432  11.864
13065W        W78050  14.624  19.990  12.239
13066W        W78051  12.064   7.247  13.822
13067W        W78052  42.879  40.967  13.777
13068W        W78053   1.093   8.660   4.891
13069W        W78054  30.005  13.257   2.111
13070W        W78055  18.937  23.832   9.905
13071W        W78056   6.457  40.084  11.596
13072W        W78057  17.687  35.818   4.147
13073W        W78058  43.336  20.936   3.033
13074W        W78059  29.975  40.387  13.013
13075W        W78060  41.442  26.681   4.796
13076W        W78061  43.053  39.206  11.601
13077W        W78062  36.820  25.737   1.742
13078W        W78063   1.277  22.257  10.784
13079W        W78064  26.508  27.654   3.732
13080W        W78065  36.010  41.472   0.290
13081W        W78066  38.120  42.132  14.473
13082W        W78067  24.374  16.715  12.095
13083W        W78068   7.979  41.863   3.127
13084W        W78069  17.446  21.665  12.450
13085W        W78070  41.927  12.688   0.315
13086W        W78071   5.898  15.121   4.138
13087W        W78072  32.365  25.316  14.036
13088W        W78073  16.626  22.551  13.497
13089W        W78074  36.917  24.527  11.833
13090W        W78075  38.333  40.976   0.152
13091W        W78076   7.397   9.870   2.922
13092W        W78077  32.972  22.603   4.781
13093W        W78078  14.833  12.585  10.863
13094W        W78079  24.983  19.690  14.108
13095W        W78080  25.524   9.320   0.584
13096W        W78081  16.218  38.023  11.470
13097W        W78082  25.330  44.390  12.400
13098W        W78083  27.828  11.306  12.029
13099W        W78084  12.595  32.048   4.491
13100W        W78085  25.672   9.103   0.131
13101W        W78086   3.414   4.468   4.104
13102W        W78087  25.747   0.802   1.122
13103W        W78088  37.312  21.749  10.304
13104W        W78089  30.456  26.610   3.678
13105W        W78090   2.991  21.582  10.639
13106W        W78091  19.094  19.094  13.073
13107W        W78092  12.357  16.427   3.246
13108W        W78093  29.935   4.196   2.683
13109W        W78094   9.096  21.403  13.090
13110W        W78095   6.281  23.009   3.143
13111W        W78096  39.829  36.508  12.647
13112W        W78097  39.261  38.478  14.006
13113W        W78098  35.505  24.133   3.576
13114W        W78099  27.630  27.251   0.727
13115W        W78100  34.265  38.967  12.058
13116W        W78101  38.448  30.455  10.460
13117W        W78102  35.327   0.418   2.693
13118W        W78103  29.581  39.053   0.562
13119W        W78104  34.087  13.406   1.883
13120W        W78105   8.306  28.669  13.623
13121W        W78106  13.351  38.046  10.732
13122W        W78107  44.316  34.421  12.080
13123W        W78108   1.745  26.384   0.783
13124W        W78109  37.026  25.875   4.738
13125W        W78110  27.535  17.503   2.383
13126W        W78111  25.320  16.172   3.774
13127W        W78112  32.120   0.427  13.005
13128W        W78113  42.825  29.716   3.735
13129W        W78114  23.136   6.013   1.248
13130W        W78115  21.477  23.628   2.471
13131W        W78116  30.506   7.304   1.608
13132W        W78117   5.426  35.839   0.028
13133W        W78118  44.079  37.815  12.490
13134W        W78119  28.282  17.135   4.096
13135W        W78120   6.716  15.534  13.997
13136W        W78121  38.788   7.750   4.169
13137W        W78122   9.147  37.735  10.679
13138W        W78123   5.859  41.121   2.341
13139W        W78124  36.937  32.637  14.994
13140W        W78125  22.250  24.889  12.838
13141W        W78126  29.038  10.298  14.534
13142W        W78127  18.687   6.877  10.397
13143W        W78128  32.334  24.119   2.375
13144W        W78129  29.843  19.155   2.614
13145W        W78130   7.947  31.608  12.545
13146W        W78131  21.345  37.132  13.222
13147W        W78132  15.224  36.277   0.499
13148W        W78133  32.474  12.775  10.688
13149W        W78134  12.242  35.266  14.968
13150W        W78135   0.344  25.352  13.032
13151W        W78136  13.045  34.926   5.170
13152W        W78137  14.157  18.276   3.277
13153W        W78138   2.842   6.635  14.309
13154W        W78139  40.274  11.184   4.691
13155W        W78140  36.983  19.978   1.301
13156W        W78141  18.920  33.638  13.938
13157W        W78142   0.685  23.935  14.426
13158W        W78143   3.218  41.097  10.473
13159W        W78144  12.706  44.444   0.863
13160W        W78145  13.257   3.563   3.176
13161W        W78146  32.393  10.787  13.962
13162W        W78147  31.914   6.279  12.662
13163W        W78148  29.439  23.557  12.454
13164W        W78149  35.029  28.863   3.221
13165W        W78150  10.421  28.597  11.155
13166W        W78151  20.072   1.850  12.070
13167W        W78152  18.759  33.637  11.134
13168W        W78153  24.420  23.872   0.780
13169W        W78154  19.664  36.361   0.345
13170W        W78155   1.743  17.896   1.282
13171W        W78156   4.134  25.125  11.496
13172W        W78157  40.897  23.209  10.160
13173W        W78158  39.537  31.794   2.343
13174W        W78159  38.865   1.530  11.561
13175W        W78160  27.105  27.683   1.232
13176W        W78161   9.962   9.870  14.960
13177W        W78162  42.271  38.121   1.447
13178W        W78163  13.785  41.286   4.866
13179W        W78164  12.233  24.493   1.071
13180W        W78165  17.186  26.726   4.369
13181W        W78166  19.041   6.624  12.660
13182W        W78167  19.200  44.284  12.906
13183W        W78168  29.448   4.299   3.958
13184W        W78169  44.669  30.716   1.878
13185W        W78170  13.589   2.470  13.352
13186W        W78171   6.461  14.668   2.827
13187W        W78172   4.434   9.789   2.069
13188W        W78173  25.750  36.304   4.727
13189W        W78174  16.112  31.729   4.089
13190W        W78175  18.728  22.549  12.129
13191W        W78176   3.217  21.807   0.712
13192W        W78177  30.390  18.114   3.725
13193W        W78178  44.796  44.548   1.242
13194W        W78179  18.345  17.853   1.839
13195W        W78180  43.520   7.923   1.498
13196W        W78181  13.054  31.842  14.050
13197W        W78182   0.990  14.205  11.735
13198W        W78183  19.996   4.730   0.845
13199W        W78184   6.360  29.582  13.445
13200W        W78185  25.878  42.060   4.026
13201W        W78186  18.128  31.160  10.807
13202W        W78187  26.029  16.939   4.366
13203W        W78188   6.928   1.099   1.290
13204W        W78189  34.999  16.870  11.508
13205W        W78190  44.640   5.835  11.195
13206W        W78191  14.782   5.809  13.455
13207W        W78192   5.985  18.936  11.761
13208W        W78193   5.317  39.162  12.741
13209W        W78194   9.548   3.023   2.852
13210W        W78195  30.425  23.072  11.608
13211W        W78196   9.752  25.210   1.788
13212W        W78197  23.599  35.576   4.053
13213W        W78198  15.878   9.156   0.741
13214W        W78199  35.140  40.401  12.981
13215W        W78200   0.539  29.596  14.605
13216W        W78201  22.612   0.668  12.042
13217W        W78202  33.687   6.018   5.167
13218W        W78203  19.224  32.035  13.509
13219W        W78204  34.068  41.831  13.730
13220W        W78205  28.018   0.275  10.623
13221W        W78206  11.885   5.690  10.223
13222W        W78207  32.393   4.704  11.313
13223W        W78208  33.911  27.691  12.509
13224W        W78209  38.239  21.985  12.369
13225W        W78210  22.242  13.065  12.597
13226W        W78211  21.935  12.824   4.156
13227W        W78212   5.395  44.317  11.032
13228W        W78213  12.546  24.043   2.840
13229W        W78214  30.196   1.550   5.519
13230W        W78215  40.194   9.664  13.025
13231W        W78216  25.756   7.343   2.848
13232W        W78217  28.108  41.055   0.770
13233W        W78218  32.005  33.592  11.218
13234W        W78219   7.414  11.761  12.998
13235W        W78220  40.211  23.681  11.081
13236W        W78221  33.476  17.221  11.630
13237W        W78222   5.358  33.855   1.885
13238W        W78223  11.101  25.588   4.457
13239W        W78224  26.646  13.389  10.613
13240W        W78225  14.299  30.442  14.319
13241W        W78226  39.919   0.329   1.749
13242W        W78227  40.441  27.118  10.579
13243W        W78228  12.147  21.257   3.854
13244W        W78229  16.837  20.912  13.982
13245W        W78230  35.414   4.247  13.359
13246W        W78231   7.117  25.988   3.619
13247W        W78232   3.134  41.430   2.067
13248W        W78233  11.690  41.052   2.324
13249W        W78234  15.706  19.344   0.320
13250W        W78235  40.338  12.932   0.480
13251W        W78236  36.920  23.245  14.721
13252W        W78237  15.638  25.622   1.218
13253W        W78238  25.613  38.745  13.043
13254W        W78239  37.597   9.628   4.566
13255W        W78240  22.370  31.113   2.743
13256W        W78241  42.410  20.271   4.139
13257W        W78242   4.626  15.802  13.462
13258W        W78243   1.862   8.402  12.588
13259W        W78244  28.615   5.311   4.177
13260W        W78245  16.030  26.475   0.365
13261W        W78246  24.824  31.549   3.029
13262W        W78247   2.056  42.657   4.106
13263W        W78248   3.639  28.604  14.847
13264W        W78249  24.546  40.025  14.393
13265W        W78250  23.488  43.224  13.844
13266W        W78251   0.336  17.355  10.673
13267W        W78252  44.904   4.337   2.103
13268W        W78253  23.180   0.684   3.605
13269W        W78254  13.758  44.978   2.391
13270W        W78255  28.661  38.414  13.527
13271W        W78256  38.530   7.300   4.237
13272W        W78257  30.465  24.238   2.601
13273W        W78258  23.672  23.745   3.576
13274W        W78259  26.473  29.890   3.777
13275W        W78260  35.406  17.692   0.390
13276W        W78261  24.481  42.891   0.842
13277W        W78262  28.172  19.595  11.187
13278W        W78263  36.392  18.905   1.704
13279W        W78264  17.731  32.363   1.468
13280W        W78265   6.840  17.656  12.598
13281W        W78266  38.984   3.918   4.939
13282W        W78267  22.296  11.285   2.721
13283W        W78268  10.915  24.651   1.849
13284W        W78269  10.138  38.572  12.255
13285W        W78270  26.508  29.163  10.754
13286W        W78271  42.533  31.530  13.578
13287W        W78272  35.882  29.291  12.508
13288W        W78273  44.886   0.339  10.955
13289W        W78274  23.184   5.391  13.773
13290W        W78275  15.653   3.342   4.609
13291W        W78276  21.736   8.871   4.506
13292W        W78277  22.562  43.921   2.448
13293W        W78278   3.214   5.265   4.543
13294W        W78279  14.372   4.032   1.268
13295W        W78280  23.239   8.792   3.574
13296W        W78281  28.948  13.767  14.844
13297W        W78282  31.619  42.336   2.294
13298W        W78283  33.659  13.380  10.202
13299W        W78284   3.643  33.483   4.113
13300W        W78285  39.089  18.118  10.550
13301W        W78286  11.176  37.291  14.289
13302W        W78287  25.912  28.484   4.336
13303W        W78288  23.082  15.264   4.053
13304W        W78289  40.057  32.513  10.710
13305W        W78290  12.300  38.116  14.544
13306W        W78291  13.403  28.058   3.726
13307W        W78292  33.189  28.620   0.365
13308W        W78293   9.129  44.319  13.822
13309W        W78294  42.445  44.856   1.021
13310W        W78295  12.257  13.204  14.820
13311W        W78296  27.212   2.753   1.619
13312W        W78297  21.588  15.542   0.887
13313W        W78298  31.164  29.030   2.741
13314W        W78299   6.373  33.590  11.347
13315W        W78300   2.308  21.280  11.156
13316W        W78301  37.107   1.947  13.350
13317W        W78302  14.988  32.480   0.667
13318W        W78303  18.217  41.266   3.891
13319W        W78304   8.664  31.516   2.064
13320W        W78305  29.320  42.996  14.472
13321W        W78306  14.765  17.314   1.417
13322W        W78307  23.028  42.739  14.271
13323W        W78308  28.174  26.006   0.621
13324W        W78309  17.600  14.117  11.999
13325W        W78310  17.995  41.283  11.093
13326W        W78311  32.978  23.521  14.415
13327W        W78312  27.992   4.237   5.058
13328W        W78313  30.451  40.215   4.525
13329W        W78314  37.952  17.258  12.481
13330W        W78315  21.537  44.442   1.178
13331W        W78316   3.676   6.795  12.343
13332W        W78317  34.526  12.143  11.104
13333W        W78318  17.366  20.823   4.591
13334W        W78319  11.290   1.863   4.173
13335W        W78320  44.453  39.944   1.545
13336W        W78321  43.375  28.458   2.759
13337W        W78322  21.130  16.983  11.436
13338W        W78323  32.895  19.709  10.750
13339W        W78324  18.152  20.462  12.422
13340W        W78325  14.020   4.443  14.526
13341W        W78326  41.234  38.802   2.662
13342W        W78327   2.955  42.337   4.281
13343W        W78328   0.431  25.732   3.354
13344W        W78329  13.431  39.856  13.148
13345W        W78330  36.818   6.550   2.940
13346W        W78331   2.976  30.707   4.064
13347W        W78332  39.880  35.405   0.190
13348W        W78333  18.448  33.962  12.906
13349W        W78334   2.547  42.402  13.667
13350W        W78335   2.243  32.582   0.794
13351W        W78336  40.900   0.901  14.895
13352W        W78337  23.960  10.953  13.697
13353W        W78338   3.520  31.504  11.985
13354W        W78339  43.747  31.813   3.696
13355W        W78340  26.192  19.046   2.847
13356W        W78341  40.970  15.326  12.782
13357W        W78342  42.910  43.790  13.867
13358W        W78343  10.276  15.818   2.282
13359W        W78344  32.451  42.212   3.666
13360W        W78345   3.023  14.678  14.264
13361W        W78346  16.768  37.101  12.374
13362W        W78347  27.444  26.634   3.260
13363W        W78348  41.132  37.559  14.280
13364W        W78349  37.469   2.060  11.552
13365W        W78350   5.979   8.912  14.502
13366W        W78351  40.456   9.797   4.607
13367W        W78352  33.130  14.585   0.557
13368W        W78353  14.681   0.932   0.715
13369W        W78354  21.235   0.913  14.496
13370W        W78355   4.460  38.205   0.969
13371W        W78356  35.364  27.255   0.895
13372W        W78357  35.174   6.798  12.842
13373W        W78358  44.252  13.428   0.926
13374W        W78359  19.003  38.377  13.555
13375W        W78360  29.214  44.987   1.214
13376W        W78361  18.981  33.068   0.989
13377W        W78362   5.231  28.707   1.261
13378W        W78363  29.899  43.006   1.862
13379W        W78364  30.894  32.162  11.704
13380W        W78365  25.464  41.522  14.377
13381W        W78366  23.644   9.358   0.317
13382W        W78367  13.288  42.051   0.721
13383W        W78368  42.384  29.928  12.409
13384W        W78369  36.549  39.056   1.633
13385W        W78370  16.035  10.817  14.823
13386W        W78371   7.827  33.906  14.372
13387W        W78372   7.732  15.728  11.462
13388W        W78373  16.338  29.143   4.929
13389W        W78374  31.370  35.894   2.164
13390W        W78375  30.417  27.413  14.082
13391W        W78376  26.227  44.586  12.147
13392W        W78377  39.057  16.458  12.922
13393W        W78378  13.617   6.426  11.933
13394W        W78379  20.547  25.576   1.019
13395W        W78380   0.035  13.644  12.114
13396W        W78381  24.460  18.770   2.568
13397W        W78382   3.327  24.428  11.536
13398W        W78383   1.818  20.230  11.950
13399W        W78384  26.012  14.530   4.396
13400W        W78385  31.924  17.609  11.243
13401W        W78386   3.744   1.304  12.098
13402W        W78387  33.715   5.827   1.818
13403W        W78388  27.623  13.229  13.510
13404W        W78389  24.236  22.143  14.882
13405W        W78390   9.714  41.353   2.212
13406W        W78391  16.695  16.143  11.235
13407W        W78392  13.217  36.074   0.409
13408W        W78393  36.952   2.318  10.745
13409W        W78394  32.136   7.283   3.539
13410W        W78395   2.184  27.612  11.992
13411W        W78396  19.862  18.189  10.948
13412W        W78397  24.521  29.941  10.717
13413W        W78398   6.289  38.860  11.056
13414W        W78399  35.467   4.980  14.912
13415W        W78400  16.321  37.775   2.674
13416W        W78401  19.314   5.275   4.242
13417W        W78402  10.205   2.207  11.478
13418W        W78403  43.218   5.161   3.197
13419W        W78404  40.028  41.477  13.670
13420W        W78405   6.116  25.427  10.148
13421W        W78406  16.196  10.464   4.522
13422W        W78407  13.137  39.065   4.602
13423W        W78408  40.341  38.040   0.448
13424W        W78409  38.919   1.233  13.281
13425W        W78410  11.984   3.772  12.018
13426W        W78411   0.821  28.639   0.080
13427W        W78412  10.794   8.014   1.608
13428W        W78413   3.290  34.938   3.809
13429W        W78414  43.367  35.032  13.927
13430W        W78415   4.938   6.731  11.477
13431W        W78416  15.525   3.476  13.052
13432W        W78417  40.092   2.242  11.072
13433W        W78418  29.959   9.270  14.365
13434W        W78419  30.697  26.557   2.668
13435W        W78420  44.389  29.461   2.845
13436W        W78421   8.703  11.839  10.996
13437W        W78422  34.579  13.325   4.669
13438W        W78423  11.575  38.611  14.783
13439W        W78424  18.593  41.770  14.284
13440W        W78425  41.056  14.326   5.111
13441W        W78426  29.104  28.962   0.919
13442W        W78427  27.586  24.914   0.121
13443W        W78428  37.433   4.046  12.949
13444W        W78429   2.875  34.492  10.717
13445W        W78430  11.355  35.725  12.193
13446W        W78431  37.688  35.809  10.041
13447W        W78432  22.481  14.618  14.619
13448W        W78433  22.433  12.891  13.063
13449W        W78434  11.148  10.767   2.664
13450W        W78435  25.908   8.689  13.807
13451W        W78436  21.619  25.950  12.476
13452W        W78437  24.919  23.159   3.642
13453W        W78438  27.216  26.016   1.428
13454W        W78439  25.547  22.544   3.652
13455W        W78440  38.533  16.732   5.479
13456W        W78441  41.154   4.774   2.296
13457W        W78442  40.990  26.602  14.714
13458W        W78443  40.341   3.771  14.605
13459W        W78444  22.122  24.930   4.887
13460W        W78445  40.261   2.773  11.285
13461W        W78446  36.870  44.229  13.947
13462W        W78447  36.287  18.229   4.093
13463W        W78448  16.336  18.022  11.178
13464W        W78449  27.108   3.639  10.806
13465W        W78450  25.489  36.963   0.497
13466W        W78451   1.252  44.923   4.230
13467W        W78452  28.985  34.897   4.306
13468W        W78453  16.207  26.950   3.620
13469W        W78454  38.044  41.968   2.400
13470W        W78455   5.863   0.440  12.892
13471W        W78456  25.850  16.708  11.548
13472W        W78457  23.238  34.711  10.649
13473W        W78458  21.262  14.613   0.345
13474W        W78459  24.907   3.688   4.605
13475W        W78460   7.748  16.281  14.551
13476W        W78461  10.350  40.436   4.652
13477W        W78462   4.139  10.289  14.748
13478W        W78463  33.048   3.760   2.855
13479W        W78464  38.594   8.325   2.833
13480W        W78465  19.621   2.183   2.805
13481W        W78466  31.948   5.322  14.480
13482W        W78467  21.401  29.489   0.148
13483W        W78468  36.122   1.033  13.448
13484W        W78469  44.176  42.958  11.080
13485W        W78470  32.660  16.767   0.790
13486W        W78471  37.432  33.391   0.345
13487W        W78472  15.284  29.812   3.651
13488W        W78473  32.687  32.412  13.368
13489W        W78474   7.872  13.349   4.834
13490W        W78475  19.111   3.766   2.398
13491W        W78476  29.664  31.501   3.726
13492W        W78477   3.165  36.615  14.562
13493W        W78478   4.345  26.250  12.543
13494W        W78479  33.971   2.422  12.165
13495W        W78480  42.739  43.876   1.968
13496W        W78481   0.227  22.960  14.652
13497W        W78482  37.561  17.458  11.799
13498W        W78483  25.559   3.049   2.385
13499W        W78484  39.443  31.691  11.063
13500W        W78485  27.449  19.604   2.716
13501W        W78486  15.188  10.827   1.155
13502W        W78487   4.741   8.311  14.034
13503W        W78488  13.228  28.152  10.596
13504W        W78489  22.412  27.559   3.759
13505W        W78490   6.842  35.041  13.673
13506W        W78491  20.028  34.580   1.906
13507W        W78492  40.476  10.239  11.978
13508W        W78493   2.445  42.735   1.487
13509W        W78494  34.322  32.679   3.430
13510W        W78495   3.654   4.527  11.127
13511W        W78496  35.511  31.495  12.546
13512W        W78497  41.568  16.854   0.024
13513W        W78498  42.753  35.845  13.585
13514W        W78499  22.148  37.098  11.067
13515W        W78500  32.881  18.247   0.844
13516W        W78501  34.380  37.367   2.710
13517W        W78502  20.276  38.148  12.093
13518W        W78503  20.206  19.642   4.120
13519W        W78504   7.919  37.105  10.078
13520W        W78505  13.713   4.330  13.955
13521W        W78506   4.254  27.027  13.623
13522W        W78507  30.229  31.572   3.044
13523W        W78508  24.991  12.066   2.631
13524W        W78509  38.280  25.461  13.392
13525W        W78510  13.838  36.431   0.987
13526W        W78511  40.394  26.834   4.105
13527W        W78512   0.876   1.410   4.767
13528W        W78513  30.342  40.883   1.020
13529W        W78514  39.262   6.738  12.002
13530W        W78515  41.067  17.751  14.023
13531W        W78516  22.731  41.736  14.359
13532W        W78517   7.635  43.309  14.577
13533W        W78518  35.318  38.381   1.331
13534W        W78519  38.009  21.335  12.563
13535W        W78520  31.172  36.202  13.150
13536W        W78521  40.580   6.448   1.754
13537W        W78522   7.030  43.217   3.877
13538W        W78523   8.053   3.329  10.667
13539W        W78524   8.478  22.969   2.905
13540W        W78525  21.540  40.054   4.036
13541W        W78526  36.019  22.780  14.767
13542W        W78527   7.890   2.219   1.529
13543W        W78528  12.768  29.136   4.738
13544W        W78529  29.017  29.864   4.195
13545W        W78530  26.089  13.718  12.898
13546W        W78531  40.876  29.562  14.248
13547W        W78532  37.683  33.876   0.376
13548W        W78533  37.796  11.154  13.378
13549W        W78534  35.127  27.686  14.434
13550W        W78535   6.780  27.607  12.147
13551W        W78536  10.950   5.745   0.118
13552W        W78537  22.721  11.679   4.786
13553W        W78538  28.207  42.191  10.688
13554W        W78539   6.648  33.543  10.088
13555W        W78540  30.863  31.367   1.736
13556W        W78541  12.581   9.863   2.341
13557W        W78542   0.893  43.761   2.275
13558W        W78543  27.682  24.145  10.447
13559W        W78544  26.605  13.636   1.858
13560W        W78545  12.998  11.654  10.433
13561W        W78546  27.734   0.623   2.665
13562W        W78547  22.465  44.034   1.413
13563W        W78548  14.589  44.362  10.168
13564W        W78549  43.719  17.537   3.460
13565W        W78550  17.840  13.755  14.444
13566W        W78551  43.461   7.501   4.244
13567W        W78552  32.636  43.924  10.673
13568W        W78553  34.327  25.195  10.647
13569W        W78554  33.589  15.166  13.210
13570W        W78555  13.776  22.549  11.370
13571W        W78556  33.327  24.284   1.232
13572W        W78557  13.419  35.061  10.646
13573W        W78558  30.046  10.402   3.077
13574W        W78559  10.536   8.234   4.675
13575W        W78560   5.446  36.575   1.856
13576W        W78561   7.990  34.424   2.933
13577W        W78562  40.553  28.482   9.954
13578W        W78563  28.599  33.885   1.875
13579W        W78564   6.795  35.324  11.899
13580W        W78565  35.943  23.755  14.740
13581W        W78566  13.522  29.124  12.612
13582W        W78567  44.971  40.900  11.538
13583W        W78568  38.822  37.298   3.619
13584W        W78569  35.092  12.300  13.091
13585W        W78570  25.597  32.233   4.273
13586W        W78571  35.722  22.282   1.042
13587W        W78572  42.618  32.762   4.089
13588W        W78573  24.707  17.824  14.981
13589W        W78574  33.615  17.526   3.712
13590W        W78575  42.511  20.739  10.673
13591W        W78576   2.781  10.444  10.309
13592W        W78577  10.748  37.005  11.530
13593W        W78578  19.842  21.080   1.320
13594W        W78579  15.739  41.670  12.078
13595W        W78580  26.093  36.677   4.661
13596W        W78581  30.973  15.584  14.888
13597W        W78582  20.041  10.377  12.562
13598W        W78583  28.727  24.556   2.179
13599W        W78584  27.124  16.837   1.791
13600W        W78585  26.100  20.478  11.891
13601W        W78586  36.848   2.719   2.162
13602W        W78587  21.331  29.159  12.468
13603W        W78588   2.134  17.310  14.823
13604W        W78589   8.748  34.448   1.218
13605W        W78590  27.112  23.659   2.334
13606W        W78591   8.972   7.176  14.942
13607W        W78592  38.045  26.723  11.589
13608W        W78593  16.361  42.498   2.406
13609W        W78594  14.209  28.660  11.458
13610W        W78595  19.030  22.668  12.516
13611W        W78596   1.330  25.468  10.618
13612W        W78597  31.643  15.560   0.388
13613W        W78598  18.421  15.263  13.879
13614W        W78599  16.753  25.279  12.388
13615W        W78600  17.703  35.017   0.890
13616W        W78601  11.521  26.929  12.636
13617W        W78602  13.830  13.839  14.901
13618W        W78603  26.350  16.028   0.221
13619W        W78604   3.708  23.740  13.802
13620W        W78605   4.182  24.053  14.805
13621W        W78606  10.962  19.515   1.263
13622W        W78607  43.832  33.418  12.649
13623W        W78608  27.004  17.702  12.074
13624W        W78609  16.352  36.483   1.506
13625W        W78610   6.205  21.943   3.341
13626W        W78611   1.786  14.541  10.757
13627W        W78612  44.979  43.714   2.132
13628W        W78613  12.763  15.659   0.364
13629W        W78614   3.402  33.157  12.713
13630W        W78615  29.222  28.415  13.015
13631W        W78616   0.050   8.637   2.566
13632W        W78617  14.010  11.272  11.668
13633W        W78618  16.123   2.710   2.253
13634W        W78619  20.254  42.747  11.883
13635W        W78620  33.983   7.371   1.310
13636W        W78621  43.452  33.339   2.229
13637W        W78622  25.440   2.946   5.074
13638W        W78623  24.117  34.767   4.464
13639W        W78624   4.083  44.443  10.798
13640W        W78625  19.011  10.064  11.037
13641W        W78626  12.216  37.788  11.762
13642W        W78627   6.648  15.419   3.742
13643W        W78628  24.538  10.177   2.396
13644W        W78629  41.911  17.797  13.376
13645W        W78630  27.181  22.948   4.787
13646W        W78631  32.968  27.774   1.274
13647W        W78632  11.748  24.400  11.568
13648W        W78633  10.691  40.530  11.960
13649W        W78634   7.478  25.038  13.018
13650W        W78635  38.267  25.222  14.049
13651W        W78636  23.496  43.873  14.979
13652W        W78637  35.624  32.900   2.046
13653W        W78638  11.692  23.893  11.658
13654W        W78639  10.127  41.787  10.355
13655W        W78640  29.947  17.961  13.145
13656W        W78641  15.032  24.015   1.692
13657W        W78642  13.304  12.044  13.005
13658W        W78643  20.577  37.056  11.452
13659W        W78644  15.084  39.947   3.332
13660W        W78645  43.782  22.703  14.458
13661W        W78646  15.547  20.823   0.376
13662W        W78647  44.294  34.906   5.683
13663W        W78648  19.654  19.734  12.511
13664W        W78649  38.977  41.821   3.678
13665W        W78650   4.903  35.997  12.282
13666W        W78651  24.825  21.733   2.598
13667W        W78652   7.236  40.513  11.591
13668W        W78653  10.781  14.095   0.930
13669W        W78654   2.850   3.952   4.488
13670W        W78655  17.331   1.456  11.640
13671W        W78656   6.728   1.009   0.404
13672W        W78657  12.772  44.000  13.293
13673W        W78658  43.766  32.297  11.945
13674W        W78659  37.596  33.575  13.885
13675W        W78660  11.842  37.640  14.098
13676W        W78661  19.352  16.684  10.693
13677W        W78662  29.610  43.486  14.801
13678W        W78663  39.823   0.505  13.812
13679W        W78664  28.822  31.980   3.653
13680W        W78665   8.570  40.985  10.689
13681W        W78666  31.841   7.608   3.256
13682W        W78667   4.851  37.591  14.799
13683W        W78668  20.961   9.385  10.817
13684W        W78669  28.186  30.597  11.346
13685W        W78670  41.559  10.326  14.321
13686W        W78671  31.636  34.399   4.886
13687W        W78672  19.062  17.938   2.293
13688W        W78673   0.947  12.862   3.724
13689W        W78674   4.278  21.739   1.767
13690W        W78675  11.360  23.124   3.816
13691W        W78676  21.453  31.056   2.607
13692W        W78677   6.338   5.348  13.884
13693W        W78678   3.358  38.919   0.436
13694W        W78679   3.026  13.235  10.653
13695W        W78680  41.911   7.426  11.260
13696W        W78681  39.392  30.023   3.060
13697W        W78682  31.298  19.531  10.632
13698W        W78683  28.005  15.116   4.747
13699W        W78684  30.330  39.330  14.777
13700W        W78685   7.636   0.844   4.608
13701W        W78686  22.205   2.390  13.990
13702W        W78687  32.099  41.249  12.518
13703W        W78688  11.340  13.371   3.716
13704W        W78689  37.958  31.121  10.931
13705W        W78690   8.428  13.794   3.205
13706W        W78691  39.841  33.046   3.301
13707W        W78692  11.701  40.399  14.211
13708W        W78693  26.468   7.637   0.401
13709W        W78694   8.271  32.003   0.715
13710W        W78695  33.086  41.241   3.192
13711W        W78696   8.214  25.128   0.930
13712W        W78697  43.341   0.359  12.431
13713W        W78698  30.963  18.130  10.577
13714W        W78699  11.802  40.792  10.494
13715W        W78700   8.192   7.803  14.962
13716W        W78701  20.806   6.163   4.196
13717W        W78702  34.452   4.377  11.442
13718W        W78703  37.508  26.483  11.012
13719W        W78704  17.614  38.252   3.254
13720W        W78705  42.356  15.614  12.900
13721W        W78706  11.978  20.571  11.614
13722W        W78707  42.948  38.566   1.790
13723W        W78708   5.558  30.492  10.716
13724W        W78709  36.103  19.101  10.345
13725W        W78710  38.592  43.554   4.015
13726W        W78711  14.853   8.204  11.912
13727W        W78712  42.603   8.851   2.610
13728W        W78713  44.912   6.213   2.289
13729W        W78714   9.324  29.446   4.254
13730W        W78715  32.932  33.165   0.017
13731W        W78716   2.503  38.585  14.770
13732W        W78717  31.506   2.535  14.210
13733W        W78718  14.579  43.946  11.199
13734W        W78719  15.536  33.557   0.031
13735W        W78720  35.065   5.905  12.645
13736W        W78721  18.317  39.434   3.515
13737W        W78722  36.456  30.736  14.039
13738W        W78723  36.723  32.457   3.602
13739W        W78724  25.253  18.609   0.315
13740W        W78725  13.462  22.671   4.857
13741W        W78726   4.333  28.619  11.121
13742W        W78727  19.707   3.952  11.263
13743W        W78728  41.106  39.357   1.794
13744W        W78729  25.226  27.507   4.449
13745W        W78730   5.796   8.724   3.217
13746W        W78731   6.202  14.388   9.809
13747W        W78732  30.467   9.919  10.782
13748W        W78733  28.282  24.682  13.589
13749W        W78734   1.593   1.716  14.777
13750W        W78735  28.761  38.000   2.683
13751W        W78736  13.190  18.258  13.511
13752W        W78737  40.440  27.014   1.842
13753W        W78738  25.672   4.369  11.944
13754W        W78739   2.527   2.697  12.531
13755W        W78740   0.301  22.166   3.292
13756W        W78741  15.089  34.442  11.575
13757W        W78742  43.030  19.738  11.568
13758W        W78743   2.303  41.111   2.312
13759W        W78744  30.585   7.302  10.609
13760W        W78745  39.994  35.115   1.185
13761W        W78746  35.312  32.393  12.602
13762W        W78747  33.013   9.807   4.512
13763W        W78748  26.631  35.975   0.666
13764W        W78749  13.667  12.718   0.334
13765W        W78750  25.121  20.453   2.458
13766W        W78751  27.575  44.733   4.285
13767W        W78752  31.692  35.506  12.969
13768W        W78753   2.505  20.561   0.363
13769W        W78754  18.581  17.617   4.107
13770W        W78755  19.252  19.477  13.406
13771W        W78756   7.031  10.820   2.837
13772W        W78757  39.429   4.858   3.590
13773W        W78758  34.062   7.500  14.881
13774W        W78759  12.806  24.142  10.975
13775W        W78760  18.847  13.378  10.985
13776W        W78761  25.153  10.444  14.236
13777W        W78762  35.526  28.721   0.396
13778W        W78763  39.797  36.030   0.850
13779W        W78764  21.530  44.284  13.666
13780W        W78765  11.301  40.060  10.732
13781W        W78766   2.957  25.959   3.580
13782W        W78767  14.614  41.192  11.924
13783W        W78768  10.716  27.234  10.505
13784W        W78769  33.841  12.815   2.541
13785W        W78770  44.035  23.053  12.789
13786W        W78771  16.325  35.400   0.940
13787W        W78772  14.532   7.766  12.809
13788W        W78773   2.490  44.926  12.935
13789W        W78774  18.129  42.412   4.352
13790W        W78775  25.700  40.324   3.827
13791W        W78776  12.143  14.771  13.982
13792W        W78777  39.282   5.884  11.658
13793W        W78778  34.749   1.647   4.149
13794W        W78779  14.606  36.891   0.979
13795W        W78780   2.486   1.677   2.884
13796W        W78781  13.281  27.755   0.557
13797W        W78782   7.477   8.025   4.003
13798W        W78783  13.568  18.104   2.790
13799W        W78784  14.503   4.937   4.090
13800W        W78785  17.723   0.432  11.580
13801W        W78786   8.224  37.457   3.722
13802W        W78787   1.501   3.777   3.110
13803W        W78788  41.632  24.965   0.810
13804W        W78789   4.817  41.072  10.888
13805W        W78790   6.083  29.646  11.872
13806W        W78791  44.439  24.058  11.962
13807W        W78792  29.061  11.167   0.040
13808W        W78793  44.822  31.307   4.706
13809W        W78794   6.409  20.308  13.463
13810W        W78795  35.442  39.032   0.288
13811W        W78796  42.316  29.325   9.846
13812W        W78797  14.890  43.031   2.003
13813W        W78798  21.727   8.695  14.954
13814W        W78799  39.765   8.326  14.451
13815W        W78800  11.308  37.813  13.481
13816W        W78801  25.747  28.572   0.855
13817W        W78802  27.133  38.955  11.689
13818W        W78803   4.855  19.640  14.247
13819W        W78804  20.673   6.455  14.059
13820W        W78805   6.992  19.042   4.592
13821W        W78806   6.137  18.540   4.232
13822W        W78807   1.497  27.031   2.367
13823W        W78808  13.177  37.266  14.752
13824W        W78809   5.923  33.657   3.747
13825W        W78810  30.179  24.136   1.903
13826W        W78811   1.216  10.617   1.376
13827W        W78812  32.008  11.152  13.948
13828W        W78813  42.701  28.915  13.803
13829W        W78814  23.018  27.046  11.665
13830W        W78815  29.059  37.702  11.241
13831W        W78816   8.447  20.287   0.342
13832W        W78817   2.370  15.096   1.964
13833W        W78818  12.395  36.615  14.323
13834W        W78819  21.728  23.225  10.537
13835W        W78820   9.617  31.927  10.571
13836W        W78821   5.436   3.778  11.168
13837W        W78822  10.888  15.608   1.470
13838W        W78823  22.646  30.091  10.868
13839W        W78824   3.906  20.914   4.299
13840W        W78825  12.634  24.188  11.447
13841W        W78826  36.971  30.636  13.610
13842W        W78827   6.742  28.374  11.655
13843W        W78828  13.094   5.842   2.850
13844W        W78829   3.347  27.248   0.054
13845W        W78830  37.094  36.980  11.107
13846W        W78831  29.686  37.184   5.109
13847W        W78832   6.911  27.446   1.534
13848W        W78833  12.123  30.700   0.872
13849W        W78834  44.403   7.118   1.167
13850W        W78835  31.509   2.639  10.582
13851W        W78836  21.751  11.319   1.350
13852W        W78837   1.142  15.211   0.866
13853W        W78838  38.415  43.386  13.661
13854W        W78839   4.211  26.625   2.635
13855W        W78840  15.973   0.991  12.503
13856W        W78841   1.425   2.673   3.881
13857W        W78842  30.634  17.697   0.631
13858W        W78843   6.141   7.377   0.883
13859W        W78844   1.470  19.300   1.644
13860W        W78845   0.110  25.085   0.548
13861W        W78846  18.572  27.847   3.414
13862W        W78847  10.283  39.530   0.285
13863W        W78848  36.535   7.291   3.156
13864W        W78849  35.749  22.897   1.119
13865W        W78850  18.680  16.918   0.953
13866W        W78851  40.050  42.861  10.907
13867W        W78852  11.950  25.087   5.040
13868W        W78853  43.410   6.784   3.588
13869W        W78854  20.030  43.880   4.325
13870W        W78855  37.730  24.461   0.417
13871W        W78856  23.261   6.688   2.468
13872W        W78857  25.808  21.604   2.344
13873W        W78858   7.750  38.802   1.421
13874W        W78859   2.416  35.895   0.375
13875W        W78860  38.910  36.770  14.384
13876W        W78861  25.724  32.590  12.550
13877W        W78862  25.797   7.910   0.973
13878W        W78863  32.370   4.872  14.126
13879W        W78864  22.788  30.487   1.663
13880W        W78865  40.742  41.665  10.751
13881W        W78866  18.727  42.882   1.331
13882W        W78867   9.155   7.718  12.867
13883W        W78868  29.991  13.917   3.662
13884W        W78869   8.273   1.915  14.500
13885W        W78870  14.635   5.811   2.317
13886W        W78871  27.088   5.333  11.180
13887W        W78872  33.225  33.062   3.320
13888W        W78873  40.574  24.897  13.886
13889W        W78874  10.207  10.383   1.781
13890W        W78875  16.220  29.494   1.396
13891W        W78876  15.025  31.650  12.073
13892W        W78877  36.531  43.691   1.939
13893W        W78878  18.697  22.663   3.098
13894W        W78879   7.934   2.376  10.415
13895W        W78880  21.444  18.853   5.700
13896W        W78881   9.705  39.758  13.985
13897W        W78882   0.492  41.744   4.441
13898W        W78883  39.368  19.401   0.140
13899W        W78884  16.212  33.603   3.861
13900W        W78885   5.373   8.414   9.783
13901W        W78886   6.816   1.691  10.799
13902W        W78887   1.296  16.061  12.570
13903W        W78888   5.667  21.937  12.906
13904W        W78889  43.885  42.276   0.327
13905W        W78890   2.101  31.918  12.994
13906W        W78891  44.326  24.928  13.566
13907W        W78892  25.115  38.940   0.463
13908W        W78893   4.218  12.821  14.420
13909W        W78894  13.843   0.576   0.224
13910W        W78895  22.444   0.782  10.806
13911W        W78896  43.863  36.459  13.360
13912W        W78897  17.569  31.987  10.489
13913W        W78898   0.974  36.262   1.825
13914W        W78899  38.094  21.904  13.451
13915W        W78900  21.736  20.160   4.212
13916W        W78901  25.911  38.704   1.209
13917W        W78902  39.598   2.280  14.358
13918W        W78903  38.315  27.134  14.352
13919W        W78904  23.315  40.718  12.345
13920W        W78905  21.430  36.829   4.229
13921W        W78906  11.718  36.383   4.523
13922W        W78907  28.217  16.712  13.432
13923W        W78908   1.676  21.140   0.450
13924W        W78909  19.137  18.828   0.571
13925W        W78910  35.502  44.013  12.573
13926W        W78911  36.966  12.267  10.676
13927W        W78912  44.225  42.635   4.367
13928W        W78913  10.645  21.199  10.410
13929W        W78914   2.394  28.251   1.798
13930W        W78915   3.759  20.135   0.178
13931W        W78916  41.849  19.978  11.646
13932W        W78917  36.748  31.986  10.520
13933W        W78918  33.376  25.010  14.122
13934W        W78919  38.745  15.412   0.844
13935W        W78920  21.202  30.188   2.408
13936W        W78921   0.517  25.005   0.240
13937W        W78922  33.162  40.975  14.878
13938W        W78923  32.388  40.617  11.207
13939W        W78924  28.184  20.337  12.423
13940W        W78925  18.817  37.927  14.784
13941W        W78926  13.640   1.818   4.353
13942W        W78927  10.497   3.412   3.082
13943W        W78928   4.214  44.304   1.824
13944W        W78929  15.678  28.926   1.715
13945W        W78930   9.233  32.609   4.243
13946W        W78931  33.038   4.507  11.103
13947W        W78932  33.373  31.351  10.741
13948W        W78933  15.434  36.916  11.405
13949W        W78934  44.031  14.674   0.075
13950W        W78935  10.332  10.299   0.888
13951W        W78936  11.283   5.792   1.910
13952W        W78937   1.018  37.272  10.331
13953W        W78938  42.589  19.273  11.668
13954W        W78939  31.521  29.560   2.097
13955W        W78940  22.790   6.678   0.725
13956W        W78941  17.103  39.893   0.312
13957W        W78942  11.220  14.343   4.441
13958W        W78943  16.415  19.518  14.796
13959W        W78944  18.738   2.991   3.817
13960W        W78945  29.538  38.498  11.566
13961W        W78946  21.391  12.497   3.315
13962W        W78947  41.537  29.528   3.932
13963W        W78948   8.755  35.871  14.066
13964W        W78949  34.414  12.312  14.798
13965W        W78950  18.078   0.074   4.156
13966W        W78951  23.560  42.324   3.609
13967W        W78952   9.391   9.917   1.033
13968W        W78953  35.392  32.884   1.572
13969W        W78954  21.847  43.218   4.799
13970W        W78955  35.412  43.922   2.765
13971W        W78956   4.716   5.252  12.834
13972W        W78957  19.143  44.963  12.515
13973W        W78958  12.772  27.517  12.078
13974W        W78959  33.274  10.275   4.530
13975W        W78960  12.757  23.518   4.809
13976W        W78961  38.499  34.307  12.974
13977W        W78962   7.053  32.185   2.237
13978W        W78963   5.368  36.390   3.806
13979W        W78964  42.248  44.455  11.178
13980W        W78965  28.548  25.538   1.595
13981W        W78966  30.845  24.605  14.923
13982W        W78967  40.001  14.567  13.531
13983W        W78968  44.418  24.784   5.151
13984W        W78969  32.051  21.679   4.422
13985W        W78970  40.567  15.175  11.912
13986W        W78971  22.064  14.256   1.314
13987W        W78972  21.937   7.871  11.929
13988W        W78973   4.373  11.384  14.281
13989W        W78974  34.327  35.017   4.684
13990W        W78975   4.273  39.513   3.293
13991W        W78976  24.070  42.378   3.509
13992W        W78977  37.713   4.172   1.835
13993W        W78978  23.131  40.988   0.604
13994W        W78979  35.063   6.713   2.812
13995W        W78980  44.894   7.584  10.863
13996W        W78981  40.595  24.047  12.081
13997W        W78982  24.168  27.739  14.897
13998W        W78983  30.085  34.294   3.092
13999W        W78984  41.200  38.074   0.912
14000W        W78985   9.215  28.761  11.627
14001W        W78986  23.239  13.739   3.466
14002W        W78987  42.570  12.452   3.611
14003W        W78988  38.858  35.437   1.913
14004W        W78989   9.399   5.666  12.980
14005W        W78990  10.542  30.379   1.894
14006W        W78991  35.685  10.276   1.582
14007W        W78992  40.793  18.443  13.593
14008W        W78993  10.228  38.434   1.767
14009W        W78994  38.844  18.355  10.953
14010W        W78995  16.818  13.871  14.437
14011W        W78996  35.070  25.578  10.942
14012W        W78997  19.994  21.172   4.910
14013W        W78998  35.895  44.858   1.270
14014W        W78999  42.565  26.586   3.182
14015W        W79000   9.896  31.136  13.465
14016W        W79001  14.194  11.862  14.362
14017W        W79002  40.988  12.557   0.458
14018W        W79003  27.605  15.125  11.942
14019W        W79004  37.461  30.137  13.870
14020W        W79005  16.806   1.463  11.610
14021W        W79006  43.412  23.642  12.529
14022W        W79007  34.060  27.203  12.640
14023W        W79008  23.809  19.561   0.520
14024W        W79009  11.136  21.599   4.742
14025W        W79010  31.142   0.392  13.017
14026W        W79011  35.643  19.637   3.892
14027W        W79012  26.444  24.748   2.348
14028W        W79013   9.343   2.520  13.467
14029W        W79014  12.963  34.011   4.609
14030W        W79015  23.296  20.179   1.874
14031W        W79016  14.135  42.466   4.224
14032W        W79017  39.636  31.578  11.523
14033W        W79018  30.472  43.889   3.319
14034W        W79019  18.862  44.735  13.823
14035W        W79020  37.020   2.819  13.952
14036W        W79021  36.758  43.395  10.536
14037W        W79022  35.687  39.943  13.424
14038W        W79023   8.920   3.983  14.358
14039W        W79024   6.893   0.457  12.699
14040W        W79025  20.877  13.093  14.530
14041W        W79026  13.765  31.040  10.259
14042W        W79027  35.892  34.818   4.502
14043W        W79028  36.882  31.144  11.548
14044W        W79029  33.732  24.591  13.427
14045W        W79030  21.471  14.541  11.591
14046W        W79031  25.716  25.773   2.218
14047W        W79032  11.123  14.264  12.415
14048W        W79033  14.597  29.571   3.604
14049W        W79034  14.748  16.841  11.950
14050W        W79035  32.208  23.633  12.589
14051W        W79036  33.281  30.453   3.594
14052W        W79037   6.489  34.792  11.519
14053W        W79038   4.953  41.291  12.576
14054W        W79039  32.080  10.153   1.410
14055W        W79040   4.784  22.021  14.546
14056W        W79041  28.109   5.021   1.304
14057W        W79042   6.824  35.625   2.420
14058W        W79043  11.747  44.304  10.263
14059W        W79044   7.469  26.982  12.991
14060W        W79045   4.463   1.234   0.537
14061W        W79046  20.608  15.466   2.539
14062W        W79047  28.429  13.913   2.746
14063W        W79048  14.278   8.380  12.526
14064W        W79049   4.358   5.769   4.107
14065W        W79050  40.013  31.139   4.277
14066W        W79051  13.509  37.991  14.529
14067W        W79052  11.712  14.919   1.933
14068W        W79053  25.551  44.297   1.805
14069W        W79054  39.791  16.532   4.928
14070W        W79055  10.753  41.475   4.011
14071W        W79056  39.517   0.899  13.997
14072W        W79057   1.907  30.117  14.809
14073W        W79058  43.906  22.489  10.481
14074W        W79059   1.251  25.291  11.158
14075W        W79060  19.567   9.909   4.508
14076W        W79061  33.590  11.185  14.245
14077W        W79062  43.266  33.104   2.782
14078W        W79063  15.717   3.319  11.427
14079W        W79064  22.290   9.757  10.539
14080W        W79065  38.269  24.194  12.279
14081W        W79066  24.656  26.160   2.262
14082W        W79067  36.393  11.739  14.043
14083W        W79068  17.541  24.247   1.309
14084W        W79069  21.452  15.452  14.467
14085W        W79070  15.540   7.979   0.362
14086W        W79071  26.645  42.426   1.859
14087W        W79072  42.529   8.388  12.964
14088W        W79073  13.238  10.601  13.125
14089W        W79074  36.810  25.313  13.566
14090W        W79075  43.010  31.710  11.164
14091W        W79076  19.149  28.053   3.301
14092W        W79077  14.751  38.565  14.301
14093W        W79078   7.217  20.130   4.513
14094W        W79079  17.624  39.671  11.537
14095W        W79080   1.985  17.789  12.278
14096W        W79081  42.367  34.044  12.930
14097W        W79082  29.703  25.078  13.412
14098W        W79083  42.026   6.923  13.951
14099W        W79084   1.201  32.115  10.319
14100W        W79085   8.340  21.003   0.043
14101W        W79086  20.678  37.124  13.978
14102W        W79087   3.381   4.423  11.832
14103W        W79088  24.367  15.569  13.029
14104W        W79089  34.606   2.943  12.013
14105W        W79090   9.187   7.680   0.025
14106W        W79091  15.090  31.184  10.851
14107W        W79092   6.808   4.547   5.244
14108W        W79093  10.883  15.267   1.909
14109W        W79094  20.910   7.697   0.459
14110W        W79095   0.119  40.486  13.468
14111W        W79096  41.350  20.171  10.990
14112W        W79097  23.021  25.530  12.431
14113W        W79098  29.981   2.291   1.752
14114W        W79099   5.346   0.496  14.487
14115W        W79100   0.187  36.231   3.361
14116W        W79101  33.293   6.594  14.494
14117W        W79102  27.769  44.495   1.985
14118W        W79103  17.675  31.037   2.138
14119W        W79104  41.359  15.456   2.123
14120W        W79105  35.297  38.938   4.047
14121W        W79106  16.617  16.156   2.845
14122W        W79107  37.521  18.335   0.726
14123W        W79108  24.774   6.749  13.566
14124W        W79109  42.302   1.883   1.007
14125W        W79110  15.088  25.713  13.916
14126W        W79111   1.024  30.007   4.586
14127W        W79112  34.669   8.787   3.546
14128W        W79113  37.792  13.267  13.102
14129W        W79114   3.499  32.100   4.127
14130W        W79115  24.253  25.597   0.397
14131W        W79116   3.493  21.707  14.702
14132W        W79117  15.598  20.810   3.236
14133W        W79118   6.872  38.361   1.577
14134W        W79119  26.922  11.754  11.991
14135W        W79120  37.906  39.420  12.644
14136W        W79121  38.997  17.171   1.743
14137W        W79122   5.263  39.020  12.246
14138W        W79123  33.365  13.402  11.928
14139W        W79124   4.394  29.037   2.268
14140W        W79125  40.905  14.953  13.737
14141W        W79126   9.268  43.658   4.674
14142W        W79127  20.042   0.680   2.662
14143W        W79128   2.319  15.821  12.617
14144W        W79129  24.763  32.585   2.268
14145W        W79130  34.574  25.468  10.252
14146W        W79131   5.569   6.212   2.136
14147W        W79132  23.580  12.179   4.355
14148W        W79133   5.340  28.187   1.203
14149W        W79134  18.161  34.156  12.501
14150W        W79135  12.299  27.148  11.974
14151W        W79136  26.915  22.233  11.101
14152W        W79137  43.374   5.739   0.485
14153W        W79138  16.808  16.334   1.305
14154W        W79139  18.143   0.426  10.456
14155W        W79140   5.596  24.211  11.918
14156W        W79141  29.970  37.765  10.425
14157W        W79142  16.860  35.095   4.508
14158W        W79143  34.689  29.495   2.865
14159W        W79144  35.037  26.638  11.094
14160W        W79145  21.185   3.921   2.721
14161W        W79146  44.758  22.518   0.900
14162W        W79147   9.934   5.950   2.283
14163W        W79148  36.774   2.991   1.716
14164W        W79149  19.367   8.413   1.860
14165W        W79150  19.696   3.275  10.643
14166W        W79151  17.297  34.305  13.413
14167W        W79152   0.667   8.990   0.676
14168W        W79153  39.243  34.452  12.566
14169W        W79154  40.095  10.666  13.084
14170W        W79155  13.699  16.101   0.661
14171W        W79156  26.084  19.714   3.191
14172W        W79157  12.769  11.888   2.161
14173W        W79158   2.788  42.805  12.519
14174W        W79159  44.950  22.650  13.032
14175W        W79160   1.986  39.218  13.034
14176W        W79161   7.473   8.591  11.661
14177W        W79162  10.611   0.472  14.635
14178W        W79163  11.004  36.870   0.987
14179W        W79164  19.815   0.419   2.235
14180W        W79165  22.471  22.623  10.430
14181W        W79166  11.676  27.232  13.464
14182W        W79167  33.917   5.716   0.408
14183W        W79168  40.995   1.179  12.500
14184W        W79169   4.310   3.448  13.154
14185W        W79170  10.653  37.380   4.942
14186W        W79171  24.820  26.293   0.270
14187W        W79172  22.251  35.321  13.108
14188W        W79173   6.736  20.421   0.985
14189W        W79174  40.153  21.905   0.508
14190W        W79175  11.950   2.801  12.172
14191W        W79176  24.694   8.366   3.240
14192W        W79177  11.174  24.459   3.166
14193W        W79178  34.631   9.846   4.542
14194W        W79179   6.211   0.406  12.457
14195W        W79180   9.639   7.518  12.915
14196W        W79181  32.147   9.326  12.231
14197W        W79182  32.357  33.082  12.072
14198W        W79183   5.842  12.470   0.077
14199W        W79184  40.400   3.270   2.697
14200W        W79185  37.331  15.342  14.062
14201W        W79186  14.846  29.520  12.836
14202W        W79187  13.306  15.732   2.857
14203W        W79188  15.838  12.812   1.224
14204W        W79189   0.469  31.369  12.440
14205W        W79190  34.863  18.859   1.677
14206W        W79191  38.574  42.573  12.580
14207W        W79192  31.719  33.622   0.354
14208W        W79193  13.088  42.556   0.583
14209W        W79194  36.898  25.417   0.909
14210W        W79195  24.317   4.842   3.575
14211W        W79196  40.538   0.777  11.183
14212W        W79197  23.794  22.984  10.598
14213W        W79198   8.617  27.470  10.756
14214W        W79199  15.538  23.591  10.662
14215W        W79200  20.291   3.776  13.297
14216W        W79201  19.616  36.202   4.575
14217W        W79202  38.282  20.520  13.447
14218W        W79203  30.476  33.902  10.728
14219W        W79204  44.655  34.898   2.686
14220W        W79205  36.867  10.684  14.218
14221W        W79206   8.398  23.391  13.674
14222W        W79207  30.947  38.804   4.197
14223W        W79208  22.156  44.922  10.848
14224W        W79209  42.873  16.819  12.614
14225W        W79210  18.202  13.163  11.447
14226W        W79211  13.660  16.154  12.394
14227W        W79212  17.694  12.663  12.012
14228W        W79213  27.013  28.261  11.595
14229W        W79214  14.216   1.715  11.915
14230W        W79215  20.314  42.440   2.688
14231W        W79216  10.887  10.460   3.745
14232W        W79217  18.810   5.003  12.047
14233W        W79218  44.103  42.407  11.128
14234W        W79219   3.559  26.471   3.375
14235W        W79220  36.427  15.594   2.439
14236W        W79221   0.980  19.748   2.212
14237W        W79222  43.599  11.199  12.990
14238W        W79223  12.699  17.553   0.338
14239W        W79224   2.745  13.741  13.562
14240W        W79225  18.646  40.150  10.370
14241W        W79226  21.244  38.947  10.581
14242W        W79227  19.142  10.579   0.889
14243W        W79228  16.531  23.285   4.062
14244W        W79229   8.353  36.529  12.533
14245W        W79230  12.008  18.185   0.445
14246W        W79231   5.094   1.555   2.668
14247W        W79232  38.222  20.329   0.838
14248W        W79233  22.634  39.567   3.114
14249W        W79234  38.353  39.821   4.034
14250W        W79235  42.871  44.460   1.802
14251W        W79236   8.453  42.808   3.913
14252W        W79237  24.258  18.164  12.081
14253W        W79238  41.943  40.062   1.391
14254W        W79239  25.299  39.076  11.841
14255W        W79240   3.391   3.291   0.895
14256W        W79241  18.905  42.263  13.436
14257W        W79242  31.843  12.833  11.638
14258W        W79243  16.620  16.329  11.706
14259W        W79244  41.439  24.535  13.489
14260W        W79245   9.219  37.192  10.651
14261W        W79246  20.455   9.338  10.867
14262W        W79247  20.095  29.697  11.386
14263W        W79248  23.616  27.438  12.529
14264W        W79249  32.283  37.440  13.534
14265W        W79250   8.075  35.466   1.441
14266W        W79251  44.253   2.238  14.515
14267W        W79252   2.990  36.938   4.661
14268W        W79253  28.192  22.703   0.726
14269W        W79254  25.502  37.129   3.555
14270W        W79255  36.156  16.332  10.853
14271W        W79256  42.558  38.109   3.338
14272W        W79257  27.284   0.406  11.970
14273W        W79258   5.040  32.452   3.406
14274W        W79259  13.036  11.636  11.652
14275W        W79260  29.389   4.404   1.332
14276W        W79261  15.288  17.498  12.552
14277W        W79262   8.357  23.879  13.933
14278W        W79263   8.623  22.155   4.801
14279W        W79264   8.431  40.323  13.813
14280W        W79265  30.665  35.658  12.881
14281W        W79266  25.464  32.927  14.410
14282W        W79267  29.925  18.280  14.295
14283W        W79268   5.014  18.804   0.753
14284W        W79269   0.765  37.389   4.118
14285W        W79270  32.607  19.750   4.167
14286W        W79271   7.786  38.088   4.268
14287W        W79272  43.097  23.475   0.889
14288W        W79273  41.581  30.576  13.298
14289W        W79274  25.903  24.958   0.861
14290W        W79275  22.491   7.142   3.351
14291W        W79276  40.082  37.241   4.024
14292W        W79277  10.228  24.167  13.280
14293W        W79278  44.604  35.465  13.180
14294W        W79279   8.879  24.288  10.702
14295W        W79280  14.539  29.961  14.389
14296W        W79281  26.579  31.571   3.934
14297W        W79282  27.025  26.663   3.720
14298W        W79283  41.483  18.853   2.060
14299W        W79284  26.656  41.456  14.034
14300W        W79285   3.320   2.474   1.253
14301W        W79286  19.295  26.246   0.141
14302W        W79287  11.890  21.674  12.702
14303W        W79288  13.308   6.635  14.510
14304W        W79289  31.199   5.806   2.343
14305W        W79290  28.669   8.803   4.872
14306W        W79291   8.454  43.784  11.779
14307W        W79292  27.700  31.627  13.803
14308W        W79293  20.256  28.604  14.749
14309W        W79294   0.045  19.468   3.090
14310W        W79295  44.974  18.807  14.841
14311W        W79296  39.305  15.123  11.305
14312W        W79297  23.178  13.677  14.930
14313W        W79298  19.298  26.223  11.274
14314W        W79299  38.359  38.936   3.619
14315W        W79300  40.537   2.257  13.252
14316W        W79301  36.456  35.435  11.503
14317W        W79302  24.819  28.028  12.487
14318W        W79303  26.007   3.476  14.716
14319W        W79304  42.943  20.098   0.648
14320W        W79305  12.486  39.074   0.331
14321W        W79306  19.226   4.259  13.908
14322W        W79307  37.128  10.418   2.659
14323W        W79308  32.023  21.505  14.300
14324W        W79309  31.540  43.057  13.397
14325W        W79310  26.164  15.316  10.678
14326W        W79311  12.659  20.481   1.494
14327W        W79312  26.475  35.385  13.301
14328W        W79313  36.547   8.601   5.002
14329W        W79314  40.074   4.650  13.296
14330W        W79315  40.538   3.696   4.140
14331W        W79316  12.035  10.327  13.954
14332W        W79317  10.836  17.317  12.900
14333W        W79318   8.863  17.658  13.568
14334W        W79319   8.225   7.916   5.249
14335W        W79320   8.010  23.014   2.723
14336W        W79321  24.618  37.314  11.207
14337W        W79322  12.687  36.297  11.641
14338W        W79323  43.468  22.510   3.189
14339W        W79324  29.621  35.440   1.441
14340W        W79325  22.516  19.447  13.950
14341W        W79326  23.302   6.155  13.532
14342W        W79327  17.140  13.351  13.326
14343W        W79328  29.570  38.983   3.528
14344W        W79329  12.266  21.048  14.321
14345W        W79330  23.314  40.909  12.830
14346W        W79331   3.251   2.214  11.207
14347W        W79332  28.933  11.263  11.058
14348W        W79333   1.073  29.717   5.042
14349W        W79334  16.340  27.922   0.221
14350W        W79335   4.433  35.858   0.484
14351W        W79336  24.650  25.392   4.510
14352W        W79337  12.070  10.885  11.606
14353W        W79338  41.814  35.843  13.702
14354W        W79339  40.854  23.198   0.217
14355W        W79340  40.838  20.496  12.996
14356W        W79341   8.758  27.338  13.162
14357W        W79342   0.638  40.210  14.842
14358W        W79343  24.928  12.153  13.407
14359W        W79344  19.231  42.258  14.721
14360W        W79345  26.762  10.772   2.706
14361W        W79346  38.335   2.888   1.395
14362W        W79347  16.673  32.671   1.225
14363W        W79348  20.715  13.516   4.159
14364W        W79349  12.096  10.227   4.106
14365W        W79350  33.905  34.661  13.004
14366W        W79351  29.469   8.444   4.616
14367W        W79352  25.630   9.107  13.717
14368W        W79353  36.630  44.012  13.230
14369W        W79354  13.547  11.530  13.450
14370W        W79355  30.453  42.049   0.264
14371W        W79356  11.949  31.955   3.703
14372W        W79357   5.746  39.912  12.028
14373W        W79358  31.933  10.636   2.318
14374W        W79359  39.600   8.959   4.141
14375W        W79360   0.635  26.464  11.903
14376W        W79361  33.628  18.740  12.006
14377W        W79362   9.367  40.256   4.533
14378W        W79363   4.272   6.823  10.175
14379W        W79364  44.781  12.398  14.433
14380W        W79365  20.196   1.183  10.771
14381W        W79366  23.683  13.594  14.940
14382W        W79367  39.883  25.108   2.422
14383W        W79368  30.441  44.171   2.842
14384W        W79369  34.499  40.984   2.316
14385W        W79370  13.520  10.797  10.749
14386W        W79371  42.109   7.742  11.586
14387W        W79372  36.403  12.765   1.159
14388W        W79373  43.247  10.287   4.629
14389W        W79374  10.826  44.311  13.134
14390W        W79375  23.448  33.591   3.493
14391W        W79376  26.010  41.221  11.120
14392W        W79377  32.844  12.394  10.571
14393W        W79378  12.153   6.995  14.598
14394W        W79379  38.496  18.136   1.748
14395W        W79380  10.802  35.404  14.878
14396W        W79381  27.130  41.584   1.030
14397W        W79382   8.249  12.434   3.143
14398W        W79383  39.327  25.986   2.359
14399W        W79384  24.009  22.937  11.424
14400W        W79385  39.419  40.019   3.237
14401W        W79386  33.798  28.088  12.938
14402W        W79387  31.592   8.071  13.126
14403W        W79388  35.817   9.429   0.305
14404W        W79389  31.695  11.254  11.181
14405W        W79390  20.949  38.939  12.049
14406W        W79391  44.661  40.958   0.717
14407W        W79392   0.984  36.783   1.855
14408W        W79393  19.497   4.951   5.071
14409W        W79394  12.292  16.352  14.992
14410W        W79395  32.840  28.369  11.991
14411W        W79396  18.151  31.918   0.014
14412W        W79397  15.690  42.703   4.904
14413W        W79398  18.158  44.473   0.797
14414W        W79399   0.477  31.781   4.173
14415W        W79400  29.977   5.729   3.346
14416W        W79401  25.127  31.932  14.615
14417W        W79402  11.757  23.060  12.364
14418W        W79403   5.212  30.060   2.858
14419W        W79404  15.651  18.542   3.194
14420W        W79405  35.012  24.952   3.805
14421W        W79406   4.401   2.592  13.545
14422W        W79407  26.055  16.823  12.024
14423W        W79408  37.948  12.319  10.804
14424W        W79409  43.125  27.398   0.350
14425W        W79410  34.890   3.226   1.673
14426W        W79411  30.434  41.783   2.305
14427W        W79412  39.028   0.782  11.091
14428W        W79413  16.793  24.167   3.576
14429W        W79414   6.861   3.148   4.858
14430W        W79415  34.310  22.148  13.434
14431W        W79416  14.326   5.005   2.259
14432W        W79417  11.971  38.910  12.857
14433W        W79418   1.114  42.151   1.391
14434W        W79419  28.981  27.055  12.584
14435W        W79420  23.302  36.543  13.871
14436W        W79421  21.726  34.358   3.793
14437W        W79422  41.257  31.397   2.782
14438W        W79423  13.665  17.119   0.864
14439W        W79424  29.835  26.232   2.395
14440W        W79425  38.409  13.133   2.113
14441W        W79426  29.398  23.118  14.953
14442W        W79427  31.057   8.535  11.215
14443W        W79428   2.194  41.871   3.414
14444W        W79429   9.638  27.615  14.303
14445W        W79430   8.949  32.993   4.584
14446W        W79431  12.995  30.392  14.946
14447W        W79432   7.865  13.645  12.498
14448W        W79433  36.054   9.289  12.395
14449W        W79434  37.366  21.817   0.198
14450W        W79435  33.256  44.997  11.206
14451W        W79436  18.753   6.702  14.277
14452W        W79437  31.396  24.101   3.735
14453W        W79438  26.640  44.282   5.056
14454W        W79439   4.427   8.766  14.903
14455W        W79440  17.864  35.919  14.380
14456W        W79441   3.430  42.153   4.474
14457W        W79442   1.255  11.826   1.805
14458W        W79443  16.258  41.509   4.753
14459W        W79444  15.222  28.721   2.259
14460W        W79445   1.362  37.416   1.323
14461W        W79446   0.338  31.876   0.152
14462W        W79447  22.130  23.358   3.236
14463W        W79448   5.292  10.102   0.528
14464W        W79449  37.529   9.865  13.199
14465W        W79450  28.438  44.351  13.817
14466W        W79451  42.835  19.357  14.508
14467W        W79452  24.440   4.254   4.170
14468W        W79453  24.161  20.795   0.495
14469W        W79454  33.252  32.868  10.044
14470W        W79455  21.206  13.858   2.187
14471W        W79456  19.031  42.723  13.033
14472W        W79457  26.940  26.647  10.297
14473W        W79458  18.481  21.169   1.549
14474W        W79459  21.585  30.497  11.972
14475W        W79460  26.616  30.958  14.179
14476W        W79461  39.932  33.909  14.920
14477W        W79462   9.953  17.624   2.618
14478W        W79463  40.210  43.975  14.967
14479W        W79464  21.037  40.419  12.919
14480W        W79465  12.956  41.743   3.663
14481W        W79466  16.825  23.302   1.033
14482W        W79467  33.975  22.595  10.696
14483W        W79468  35.994  15.174  14.560
14484W        W79469  35.843   0.327   4.695
14485W        W79470  38.316  21.295   4.264
14486W        W79471  33.921   7.273   5.725
14487W        W79472  10.025  35.557   1.698
14488W        W79473  33.198  13.629  13.423
14489W        W79474  37.867  17.356   2.282
14490W        W79475  40.019  44.115   5.017
14491W        W79476  38.520   4.422   4.120
14492W        W79477  12.850  26.618  14.379
14493W        W79478  19.215  37.969   2.476
14494W        W79479  34.608  12.197   4.560
14495W        W79480  37.190   8.981  10.914
14496W        W79481  37.665  43.835   1.735
14497W        W79482  21.800  11.847   1.312
14498W        W79483  11.582  15.343  13.988
14499W        W79484   2.782  36.937   1.864
14500W        W79485  35.129  16.748   1.865
14501W        W79486   6.239  25.132   5.097
14502W        W79487  42.917  36.007  14.422
14503W        W79488  28.468  23.255  13.550
14504W        W79489   4.018  22.245   3.506
14505W        W79490  38.836  14.157  12.507
14506W        W79491  23.657   9.124  12.844
14507W        W79492   5.520  31.760   4.201
14508W        W79493  19.295  25.863   3.446
14509W        W79494  33.889   1.886  13.050
14510W        W79495   1.794  38.983   0.425
14511W        W79496  15.818  13.898   0.366
14512W        W79497   7.252  40.928   0.863
14513W        W79498  31.710  30.404   2.306
14514W        W79499  44.063  43.021   0.755
14515W        W79500  12.769  28.163  13.378
14516W        W79501  11.698   1.059   1.192
14517W        W79502   2.026   8.136  12.127
14518W        W79503  44.578  25.668  10.725
14519W        W79504  33.691  31.400  12.186
14520W        W79505  41.056  16.798   1.913
14521W        W79506  25.643   5.903  14.950
14522W        W79507  35.060  24.031   3.838
14523W        W79508  35.134  35.523   1.395
14524W        W79509  35.442  39.930   4.008
14525W        W79510  41.041   4.860  11.604
14526W        W79511  14.165  27.331  14.516
14527W        W79512  36.693  11.879  14.979
14528W        W79513  25.007  34.884  11.028
14529W        W79514  29.005  25.683  13.943
14530W        W79515  36.613  12.636  10.596
14531W        W79516  13.889  25.123  12.934
14532W        W79517  42.349   6.103   4.650
14533W        W79518  14.748  25.920  14.843
14534W        W79519  43.355   7.726   3.793
14535W        W79520  16.087  12.058  11.009
14536W        W79521   1.954  43.784  14.950
14537W        W79522   3.429  43.846   4.439
14538W        W79523  31.551  17.345  10.613
14539W        W79524  36.122  30.735  12.278
14540W        W79525  24.043  37.766   1.727
14541W        W79526   9.103  29.095  10.428
14542W        W79527  29.944  37.146   0.694
14543W        W79528  42.498  10.190   1.726
14544W        W79529  25.192  43.273  12.483
14545W        W79530  22.546  39.990   4.411
14546W        W79531   4.749   6.518  10.483
14547W        W79532  17.074  33.699  11.888
14548W        W79533  31.615  42.484   3.248
14549W        W79534   9.409  10.777   4.589
14550W        W79535   9.095  14.750  14.933
14551W        W79536  17.559  33.481   3.747
14552W        W79537  22.716   6.743  14.794
14553W        W79538  19.727  27.036  14.601
14554W        W79539  35.810  31.866  14.396
14555W        W79540   9.997  19.659  10.243
14556W        W79541  18.765  23.983   4.205
14557W        W79542   5.224  22.004   4.169
14558W        W79543  30.705   4.039  12.248
14559W        W79544  43.583   4.862   2.781
14560W        W79545  39.765  33.578  12.468
14561W        W79546  23.164  17.213  14.314
14562W        W79547  29.856   8.750   2.570
14563W        W79548   2.727  17.864  11.083
14564W        W79549  32.110  19.329   1.381
14565W        W79550  19.247  38.862  11.957
14566W        W79551  17.469  18.220  10.298
14567W        W79552  26.487   6.384  14.962
14568W        W79553   5.047  27.599   1.877
14569W        W79554  20.051  21.706   2.288
14570W        W79555   5.160  10.918  10.542
14571W        W79556  14.231  32.897   3.779
14572W        W79557  37.392  23.621  14.453
14573W        W79558   4.839  39.547   2.717
14574W        W79559  23.793  10.776   4.813
14575W        W79560  23.230  17.500   3.940
14576W        W79561   8.512  20.291  11.423
14577W        W79562  42.423  43.565  11.619
14578W        W79563  20.346   1.763  11.607
14579W        W79564   1.691   3.519   3.938
14580W        W79565  33.093  36.203   4.355
14581W        W79566  42.877  29.716  12.428
14582W        W79567  28.782  26.565  12.522
14583W        W79568  22.111  18.829   0.309
14584W        W79569   6.897  36.278  14.059
14585W        W79570  42.403  18.823   2.836
14586W        W79571  41.952  20.139  10.782
14587W        W79572  34.479  32.589   4.426
14588W        W79573  35.512   6.323   1.493
14589W        W79574  18.242  23.824   4.129
14590W        W79575  12.756  44.384  14.931
14591W        W79576  33.688  37.260  11.509
14592W        W79577  42.948  36.499  14.101
14593W        W79578  44.200  29.202   0.964
14594W        W79579  11.550  40.039  14.564
14595W        W79580   0.454  21.030  13.304
14596W        W79581  35.540  33.810   1.948
14597W        W79582  37.611  44.328  11.772
14598W        W79583  23.030  26.844   2.295
14599W        W79584  32.947  22.991  14.377
14600W        W79585  37.554  31.147  14.023
14601W        W79586   6.208  42.019  10.951
14602W        W79587   4.317  44.561  13.871
14603W        W79588   5.689  29.465   2.225
14604W        W79589  38.564   4.160  11.135
14605W        W79590  43.041  30.084  13.428
14606W        W79591  22.478  29.151  13.039
14607W        W79592  30.115  13.661  13.824
14608W        W79593  36.313  23.482   0.668
14609W        W79594   1.350  38.256  12.370
14610W        W79595   7.407   4.945   3.619
14611W        W79596  43.085  20.802   4.630
14612W        W79597  42.729   1.547  12.590
14613W        W79598  11.528   0.021   1.242
14614W        W79599  29.947   0.393   1.801
14615W        W79600  26.946  31.572  10.709
14616W        W79601  36.285  33.054  13.946
14617W        W79602  22.254  42.405   1.683
14618W        W79603  11.182   6.283  12.264
14619W        W79604   7.139  28.546   4.696
14620W        W79605  23.662  26.612  11.645
14621W        W79606  33.826  15.255   0.810
14622W        W79607  32.736   6.151  12.907
14623W        W79608  24.060  27.161  13.780
14624W        W79609  14.870   0.488  12.404
14625W        W79610   6.377   1.835  10.570
14626W        W79611  23.040  20.555   2.866
14627W        W79612  25.500  31.541   0.426
14628W        W79613  28.506  33.435   2.789
14629W        W79614   7.907  44.535   2.314
14630W        W79615  11.656  28.228   3.351
14631W        W79616  16.999  43.588   0.780
14632W        W79617  11.665   4.212   0.987
14633W        W79618   3.239  26.421   2.942
14634W        W79619  36.025   1.481  14.650
14635W        W79620  39.602  24.338   4.573
14636W        W79621  30.121  40.956   2.404
14637W        W79622  26.268  31.984   2.795
14638W        W79623  36.475  38.391  13.080
14639W        W79624  15.680  30.668   2.834
14640W        W79625  23.559  22.659  11.171
14641W        W79626  13.134  38.762   3.754
14642W        W79627  18.616  40.894  12.052
14643W        W79628  10.424  21.676   1.922
14644W        W79629   5.355  33.895   2.391
14645W        W79630  23.735  36.865  10.774
14646W        W79631  31.247  44.282  11.642
14647W        W79632  14.816   0.773   4.678
14648W        W79633   5.656   4.734   2.829
14649W        W79634  31.503  17.414  11.481
14650W        W79635   7.730  26.558  14.414
14651W        W79636  17.817  42.790   4.689
14652W        W79637  17.591  16.454   1.737
14653W        W79638  23.151  17.284   3.471
14654W        W79639  21.096   5.935   0.499
14655W        W79640  16.883  32.452   0.789
14656W        W79641  38.880   7.694   1.488
14657W        W79642  24.253  16.201  11.961
14658W        W79643  29.640  34.560   1.009
14659W        W79644   6.191  38.794   4.078
14660W        W79645  38.325  33.983  13.746
14661W        W79646  29.212  41.873  12.092
14662W        W79647  42.938  26.889   2.273
14663W        W79648  14.226  37.110  11.221
14664W        W79649   1.500  17.078  13.983
14665W        W79650  32.114  26.581  11.624
14666W        W79651  21.214  24.920   4.708
14667W        W79652  42.488  39.392  11.873
14668W        W79653  39.013  33.644   3.350
14669W        W79654  29.481  14.686  14.383
14670W        W79655   2.188  27.673   0.879
14671W        W79656  37.880   0.293  14.111
14672W        W79657  31.149  40.903   1.386
14673W        W79658  20.240  18.932   0.678
14674W        W79659  35.580  43.291   1.796
14675W        W79660  26.963  26.752   1.243
14676W        W79661  39.440  18.768   0.346
14677W        W79662  26.717   2.255  12.441
14678W        W79663  22.132   6.783  10.676
14679W        W79664  30.326  35.065   1.297
14680W        W79665   1.842  33.167  14.121
14681W        W79666  17.036   9.024   4.476
14682W        W79667  32.039  33.381  12.509
14683W        W79668  28.639  29.664   3.760
14684W        W79669   6.382  30.944   4.694
14685W        W79670   1.884  34.706  14.947
14686W        W79671   0.250   4.789  14.891
14687W        W79672  19.058  35.424  14.386
14688W        W79673  11.776   5.406  10.819
14689W        W79674  26.568  24.848   4.249
14690W        W79675  15.054  21.355   4.919
14691W        W79676   0.371  17.461  11.653
14692W        W79677  41.458  20.247   4.114
14693W        W79678   4.398  19.032  11.493
14694W        W79679  18.006  25.967  13.465
14695W        W79680   5.158   0.756  12.949
14696W        W79681  10.703  22.561   3.787
14697W        W79682  19.201  30.909  12.522
14698W        W79683  28.099  33.424  13.964
14699W        W79684  27.915  36.172   2.910
14700W        W79685  26.644  16.491   2.244
14701W        W79686   3.748  21.541  12.871
14702W        W79687   4.047   5.887  13.096
14703W        W79688   0.244   3.484   2.340
14704W        W79689  28.394  14.904   0.851
14705W        W79690  17.871  33.909  13.881
14706W        W79691  25.952   0.855  14.035
14707W        W79692  36.320  44.706   0.095
14708W        W79693  18.983  13.900  12.748
14709W        W79694  36.082   3.299   2.298
14710W        W79695   1.193  38.840  14.975
14711W        W79696  26.849   1.554  14.370
14712W        W79697  19.650  29.105   3.580
14713W        W79698  31.745  13.915   3.119
14714W        W79699  13.294  39.595   2.233
14715W        W79700  38.752   6.960   4.581
14716W        W79701  14.949  16.283   1.256
14717W        W79702  41.576  23.518   0.310
14718W        W79703  38.584  15.822  14.890
14719W        W79704  28.299  42.810  10.152
14720W        W79705  22.418  36.476   0.966
14721W        W79706  21.762  11.290  14.272
14722W        W79707  21.466  23.002  13.409
14723W        W79708  27.478  35.561   0.733
14724W        W79709  29.596  10.254   0.259
14725W        W79710  21.666  20.527  10.750
14726W        W79711  31.823  34.969   1.166
14727W        W79712  22.133  38.405  12.420
14728W        W79713  42.310   4.449   3.099
14729W        W79714  39.443  35.649  11.721
14730W        W79715  37.647   7.300  11.577
14731W        W79716  29.344  12.452  10.398
14732W        W79717  22.199  39.582   4.451
14733W        W79718  35.216  33.262  12.151
14734W        W79719  35.122  29.704   1.450
14735W        W79720   3.281  42.336   2.121
14736W        W79721  40.447  14.374  12.564
14737W        W79722  22.754   3.806  13.408
14738W        W79723   5.946  34.432   4.159
14739W        W79724  41.357   3.147   3.266
14740W        W79725  13.433  25.072   2.423
14741W        W79726  23.233  36.019  13.079
14742W        W79727  31.920  11.529   2.729
14743W        W79728   1.148  18.261  11.194
14744W        W79729  10.687  41.406  14.867
14745W        W79730  14.607  24.860   2.380
14746W        W79731  10.373  25.531   2.215
14747W        W79732  37.434  25.189   4.309
14748W        W79733  17.835  26.088   1.728
14749W        W79734  27.246  25.363   3.897
14750W        W79735  15.489  23.638   1.873
14751W        W79736  43.623  14.841   1.005
14752W        W79737  39.489  25.049   1.441
14753W        W79738  34.188  36.237  14.368
14754W        W79739  38.841  26.236  11.984
14755W        W79740  36.419  20.700   3.213
14756W        W79741  42.790  39.095   3.588
14757W        W79742  16.288  22.999   0.391
14758W        W79743  36.365  13.722   2.407
14759W        W79744  17.062  17.039  10.347
14760W        W79745  40.336  10.105  10.986
14761W        W79746  28.267  43.021   2.760
14762W        W79747  14.379  37.825   0.102
14763W        W79748  11.420  43.007  11.438
14764W        W79749  18.595  43.489   4.626
14765W        W79750  25.144  13.086   4.588
14766W        W79751  41.741   8.636  14.329
14767W        W79752  24.622   4.741  11.952
14768W        W79753  10.413  11.848  13.853
14769W        W79754  12.604  34.458  14.926
14770W        W79755  14.199  14.040   2.747
14771W        W79756   7.077  19.297  13.843
14772W        W79757  42.033  22.540   0.305
14773W        W79758  14.130  36.836  11.656
14774W        W79759  28.650  23.756   3.210
14775W        W79760  12.391  20.554  10.695
14776W        W79761  35.153  35.139  14.713
14777W        W79762   2.653  36.506   4.007
14778W        W79763  27.902   0.861  13.650
14779W        W79764   6.926   0.506   2.749
14780W        W79765   7.901  35.315  14.912
14781W        W79766  33.489   1.106   4.524
14782W        W79767  29.416  19.065   2.885
14783W        W79768  40.333   4.497   0.911
14784W        W79769  33.421  31.868  12.270
14785W        W79770  24.840  28.653  10.923
14786W        W79771  15.097  21.936   4.829
14787W        W79772  25.174  21.573   0.174
14788W        W79773  25.152  21.161   3.784
14789W        W79774  33.890   6.017  14.990
14790W        W79775   7.451   7.342  11.912
14791W        W79776   0.077  14.777   2.150
14792W        W79777  39.034  39.591   0.684
14793W        W79778  40.903  36.117  13.674
14794W        W79779  23.769   6.217  13.782
14795W        W79780  33.189  14.827   1.928
14796W        W79781  41.112  23.721  12.028
14797W        W79782  41.479  38.950   4.182
14798W        W79783  19.056  10.348   1.660
14799W        W79784  33.983  29.081  10.704
14800W        W79785  15.358   9.149   3.971
14801W        W79786  34.479  26.222   0.978
14802W        W79787  43.234  12.873   5.049
14803W        W79788  40.690   5.068  11.227
14804W        W79789  36.591  31.057   2.181
14805W        W79790  31.084  14.849  10.925
14806W        W79791  35.612  12.652   4.524
14807W        W79792  34.791  38.860   4.158
14808W        W79793  14.711   2.649  11.618
14809W        W79794  11.257  25.003   1.659
14810W        W79795  13.609  11.077   3.661
14811W        W79796  31.598   4.822  10.067
14812W        W79797  15.788   1.072  11.624
14813W        W79798  34.671  29.519  12.492
14814W        W79799  26.025  33.105   9.929
14815W        W79800  44.963  14.184  14.948
14816W        W79801  18.803  40.427  12.048
14817W        W79802   1.466  23.544  10.690
14818W        W79803  12.180  32.883  14.041
14819W        W79804   7.845  34.573   0.965
14820W        W79805  31.029  28.938  11.171
14821W        W79806  30.542  29.444   3.608
14822W        W79807  10.355  18.400  13.528
14823W        W79808  29.544  12.763   2.807
14824W        W79809  20.065  14.388  11.183
14825W        W79810   7.823   3.351  11.417
14826W        W79811  17.079  30.090  12.152
14827W        W79812  27.191  29.800  14.005
14828W        W79813   6.317  13.611  10.735
14829W        W79814   9.160  12.669   3.824
14830W        W79815  33.512  24.650   1.612
14831W        W79816  15.761  44.678  10.807
14832W        W79817  28.564  43.458   2.675
14833W        W79818   5.186  24.712  11.147
14834W        W79819  36.055  22.274  13.372
14835W        W79820   6.935  29.087   1.504
14836W        W79821  16.558  33.552  12.142
14837W        W79822  41.220  11.509   3.788
14838W        W79823  15.701  40.811  10.740
14839W        W79824  20.638  31.439  14.492
14840W        W79825  16.814  30.389   1.957
14841W        W79826  19.779  30.414  11.466
14842W        W79827  10.419  16.347  14.831
14843W        W79828   0.287   7.791   1.576
14844W        W79829  15.638  28.422   1.679
14845W        W79830  20.605   5.243   3.848
14846W        W79831  15.080  15.868   0.820
14847W        W79832  22.101  40.497  14.557
14848W        W79833  36.088  25.567   1.248
14849W        W79834  33.301  37.547  13.397
14850W        W79835  15.706  16.114  11.228
14851W        W79836  27.476  32.183   4.832
14852W        W79837  16.636   0.932   0.538
14853W        W79838  35.669  31.039  11.084
14854W        W79839   7.599  13.737   3.616
14855W        W79840  44.360   8.451   4.437
14856W        W79841   0.082   2.407   4.256
14857W        W79842  42.007  25.117   2.546
14858W        W79843   5.324   4.296  12.019
14859W        W79844  25.305   7.708   4.006
14860W        W79845  15.169  30.477   3.610
14861W        W79846  44.179   6.757  11.577
14862W        W79847  36.439  23.075  11.679
14863W        W79848   5.964  21.517  12.779
14864W        W79849  11.165  20.576  12.697
14865W        W79850  25.719  26.724   3.279
14866W        W79851  36.489  36.691   2.105
14867W        W79852  25.947  15.079  14.001
14868W        W79853   7.390  15.084   3.260
14869W        W79854   0.420  12.258  12.550
14870W        W79855  41.365  11.274  11.581
14871W        W79856  14.417   2.716   4.075
14872W        W79857  27.210  25.107  11.693
14873W        W79858  26.491  42.832  14.742
14874W        W79859   6.690  25.488  12.844
14875W        W79860  14.381   1.665  14.699
14876W        W79861  14.754   3.668   3.231
14877W        W79862  22.028  31.483  13.422
14878W        W79863  31.875  25.263   2.286
14879W        W79864  33.013  23.714   2.777
14880W        W79865  18.307  20.263  10.627
14881W        W79866  21.261  16.214  12.519
14882W        W79867  22.551  17.017   2.733
14883W        W79868   2.008  14.573  12.525
14884W        W79869  31.121   4.154   0.468
14885W        W79870  15.120  15.489  11.906
14886W        W79871  36.410  10.174  12.447
14887W        W79872  22.500  12.260  11.152
14888W        W79873  21.049  34.061   3.159
14889W        W79874  24.516   6.970  11.403
14890W        W79875  37.470  26.999  12.479
14891W        W79876   1.563  24.416  11.224
14892W        W79877  12.295   9.457   4.599
14893W        W79878   1.424   3.559   0.840
14894W        W79879  36.624  29.988   1.875
14895W        W79880  30.996  20.550  13.150
14896W        W79881  29.564  24.141  14.515
14897W        W79882  31.917   9.378   4.258
14898W        W79883  21.763  39.678   4.753
14899W        W79884  40.894  29.379  10.941
14900W        W79885  19.493  17.578   0.004
14901W        W79886   4.881   9.293   1.271
14902W        W79887  14.077  21.217   3.728
14903W        W79888  22.899  26.236  14.468
14904W        W79889   5.129  34.927   4.891
14905W        W79890  16.619  31.419  11.964
14906W        W79891  33.879  29.616  10.797
14907W        W79892   2.929   4.689  10.915
14908W        W79893  27.734  22.452  12.815
14909W        W79894  15.757  11.846   2.621
14910W        W79895  14.818  31.887   2.656
14911W        W79896  35.573  14.861   2.360
14912W        W79897  21.221  40.460  14.046
14913W        W79898  21.129  30.909   0.850
14914W        W79899   4.819  13.896   4.389
14915W        W79900  24.161  11.602   0.947
14916W        W79901   1.936   7.887  13.460
14917W        W79902  11.189  23.782  14.772
14918W        W79903  15.698  41.612   4.038
14919W        W79904  15.080  18.760  14.535
14920W        W79905  29.555  38.511   4.576
14921W        W79906  17.221  14.059   0.965
14922W        W79907   6.732  38.386   0.674
14923W        W79908  35.117  17.787  11.570
14924W        W79909  18.274  20.881  14.099
14925W        W79910   0.294  20.695  12.938
14926W        W79911  23.740  39.395  12.939
14927W        W79912  11.890  30.993  11.185
14928W        W79913  43.650  24.576  12.331
14929W        W79914  36.072  25.975   3.779
14930W        W79915  34.000  36.832  14.960
14931W        W79916  11.221  16.486  11.185
14932W        W79917  16.846  26.688   2.882
14933W        W79918  44.082  24.955   0.426
14934W        W79919  11.025  22.214  11.472
14935W        W79920  17.253  14.256  11.629
14936W        W79921  40.559   1.719  13.882
14937W        W79922  41.088  11.646   1.310
14938W        W79923  14.798  16.112   4.272
14939W        W79924   0.298   6.477   1.313
14940W        W79925  43.751  38.059   1.151
14941W        W79926  31.818  11.686  10.446
14942W        W79927  16.322  19.254   3.388
14943W        W79928   8.843  17.065  14.810
14944W        W79929   7.833  25.809  10.748
14945W        W79930   5.690  17.880   3.729
14946W        W79931  38.892  27.086  14.020
14947W        W79932  33.947  15.272   1.839
14948W        W79933  12.518   0.752  12.482
14949W        W79934  10.924  37.914   3.697
14950W        W79935  36.381  21.975   3.636
14951W        W79936   9.371  13.372   1.247
14952W        W79937  36.660  34.991  10.515
14953W        W79938  20.535  34.850  12.166
14954W        W79939  39.914  43.332  14.459
14955W        W79940  38.288  10.122   2.391
14956W        W79941  40.479   6.917   0.888
14957W        W79942  44.776  26.616  10.189
14958W        W79943   5.376  37.172  11.070
14959W        W79944  39.634  26.744   1.490
14960W        W79945  39.428  40.891   3.449
14961W        W79946  10.299   6.011   4.968
14962W        W79947  30.556  17.154  13.475
14963W        W79948  31.160  44.245  10.048
14964W        W79949  42.146  35.987   3.227
14965W        W79950  22.009  14.791   1.382
14966W        W79951  42.069  25.048  12.937
14967W        W79952  15.297  44.243   4.471
14968W        W79953   3.894  27.660   3.109
14969W        W79954  25.539   9.839   0.358
14970W        W79955  33.653  19.849   4.962
14971W        W79956   9.181  26.647  10.736
14972W        W79957   9.881  34.437   4.131
14973W        W79958  31.280   0.958   4.210
14974W        W79959  25.602  40.592   1.763
14975W        W79960   0.486  38.952   0.659
14976W        W79961   2.938  29.465   0.776
14977W        W79962  29.527  21.328  13.932
14978W        W79963  36.538  11.635  11.007
14979W        W79964  20.896   0.054  14.340
14980W        W79965  41.503  12.141   4.752
14981W        W79966  40.518  44.919  12.247
14982W        W79967  41.976  34.172   0.576
14983W        W79968  10.334  13.343   4.852
14984W        W79969   6.339  18.260   5.147
14985W        W79970  28.720  43.576   1.253
14986W        W79971  11.784  37.880  10.724
14987W        W79972  32.484  22.636  14.966
14988W        W79973  38.028  21.629  12.993
14989W        W79974  10.206  42.276   2.946
14990W        W79975   1.660   0.345  11.723
14991W        W79976  12.793  12.277  14.476
14992W        W79977  29.653   5.896  11.164
14993W        W79978  14.288  10.214   2.481
14994W        W79979  43.509  16.623   3.176
14995W        W79980  34.014  30.576  14.335
14996W        W79981  11.680   2.858  12.587
14997W        W79982  31.931  37.517  11.221
14998W        W79983  13.209  11.430  12.085
14999W        W79984  40.607  24.650  13.428
15000W        W79985  23.261  25.575   1.216
15001W        W79986  40.081   0.346   5.008
15002W        W79987   1.287  41.520  13.866
15003W        W79988  37.417   9.624   2.403
15004W        W79989  12.389   6.696   0.046
15005W        W79990  11.198  18.839  13.526
15006W        W79991  43.278  19.673  11.110
15007W        W79992   4.411  12.060   1.331
15008W        W79993  12.856  21.788  14.353
15009W        W79994   1.068   1.702  14.786
15010W        W79995   5.345  37.789  13.587
15011W        W79996   3.856  29.332   4.583
15012W        W79997  12.837   0.869  13.843
15013W        W79998  41.286  42.093  14.653
15014W        W79999  23.114   3.349   4.263
15015W        W80000  41.955  41.586   1.677
15016W        W80001  35.111  32.769   1.042
15017W        W80002   5.146   4.266  14.812
15018W        W80003  13.787  12.605  13.368
15019W        W80004  22.048   7.409   4.637
15020W        W80005  37.067  36.859  12.440
15021W        W80006  16.817  41.348  11.696
15022W        W80007  20.067  21.484  12.417
15023W        W80008  29.546  30.627  10.580
15024W        W80009  35.950  37.235  10.766
15025W        W80010  21.022  19.296   2.261
15026W        W80011  22.678  23.564   2.283
15027W        W80012  40.546  20.185   1.221
15028W        W80013  37.096  23.108   2.185
15029W        W80014  25.553   6.050   3.717
15030W        W80015   5.597  42.584  11.162
15031W        W80016  26.079  36.220  12.074
15032W        W80017  36.040  31.413   1.907
15033W        W80018  39.743  21.937   4.507
15034W        W80019  36.442   4.332  11.484
15035W        W80020  10.264   2.479   2.730
15036W        W80021  39.832  14.458  10.854
15037W        W80022  35.334   1.790  11.886
15038W        W80023   0.184   7.983  14.231
15039W        W80024  35.714   9.806  10.415
15040W        W80025   2.137  37.830   3.343
15041W        W80026  42.356  31.535  12.095
15042W        W80027  23.123  22.410  11.021
15043W        W80028  42.116  43.315   4.538
15044W        W80029   1.979  35.576   0.979
15045W        W80030  27.943  11.142   3.269
15046W        W80031   7.746  35.570  13.457
15047W        W80032  42.622  13.322  13.236
15048W        W80033   0.638  35.120   0.882
15049W        W80034  17.595  43.553  14.042
15050W        W80035   5.761  30.886  11.531
15051W        W80036  33.115  15.581  14.435
15052W        W80037   5.332  42.843  12.549
15053W        W80038  26.470  37.836  11.382
15054W        W80039  33.008  44.890  13.098
15055W        W80040  43.726  12.301  12.974
15056W        W80041  42.232  34.450   1.911
15057W        W80042  24.311  21.048   2.795
15058W        W80043  37.300  26.502   3.723
15059W        W80044  20.542   9.986   1.105
15060W        W80045  26.881  37.505  14.789
15061W        W80046  33.166  28.840  12.898
15062W        W80047  22.751   8.730  13.547
15063W        W80048  25.644  36.372   1.228
15064W        W80049   0.274  44.559   2.267
15065W        W80050  38.876   8.223  13.393
15066W        W80051  27.646  28.877  11.495
15067W        W80052  31.056  33.848  13.244
15068W        W80053  24.248  26.136  11.608
15069W        W80054  17.719  12.890  11.536
15070W        W80055   0.477   9.637  11.152
15071W        W80056  44.484  20.623  12.622
15072W        W80057  40.898  29.395  13.279
15073W        W80058  25.475  23.731  12.374
15074W        W80059  16.114   2.869   1.024
15075W        W80060  27.896  14.731  12.088
15076W        W80061  39.883  31.665  10.022
15077W        W80062  21.076  32.340  11.162
15078W        W80063   7.977   2.942   4.164
15079W        W80064  40.091  18.799  14.058
15080W        W80065  22.573  40.516   3.083
15081W        W80066  37.547  37.467  13.024
15082W        W80067  30.985  30.942  13.090
15083W        W80068  17.279  43.058   4.269
15084W        W80069   4.976  25.146   4.288
15085W        W80070   2.975  24.026  12.086
15086W        W80071   3.072  14.534   1.156
15087W        W80072  29.023  13.889  13.467
15088W        W80073  38.746   4.162  12.878
15089W        W80074  25.238   0.792   1.040
15090W        W80075  37.761  37.914  12.793
15091W        W80076  42.550   4.859  11.648
15092W        W80077   3.945  37.832   3.719
15093W        W80078  38.704  38.896  11.114
15094W        W80079  34.918  32.904  11.447
15095W        W80080   6.303   7.893  11.134
15096W        W80081   7.393  28.062   3.103
15097W        W80082  15.050  10.104   3.129
15098W        W80083  37.360   9.812   5.359
15099W        W80084  41.236  39.943  14.194
15100W        W80085  34.201  17.879   4.919
15101W        W80086   1.845   9.335  13.843
15102W        W80087  17.543  34.141  10.298
15103W        W80088   3.475  19.424   4.603
15104W        W80089  25.450  10.091  12.992
15105W        W80090  26.740  38.371   2.334
15106W        W80091  42.464   8.688  13.832
15107W        W80092   0.696  32.756   0.885
15108W        W80093  22.702  10.394  11.438
15109W        W80094   4.819  21.940   2.168
15110W        W80095  39.706   4.313  12.545
15111W        W80096  23.023  27.485  11.949
15112W        W80097  42.902  31.911  11.641
15113W        W80098   8.739  22.156   0.929
15114W        W80099   5.702  33.559   2.139
15115W        W80100   7.247  24.763   1.714
15116W        W80101  11.379  31.057   3.391
15117W        W80102  34.562  27.459   1.423
15118W        W80103  27.206  34.596  10.932
15119W        W80104  17.185  30.928   1.994
15120W        W80105  36.580   5.497  12.144
15121W        W80106   4.785   1.670  13.349
15122W        W80107  35.668  13.212   1.473
15123W        W80108  14.808  30.475  14.303
15124W        W80109  27.415   8.284  12.571
15125W        W80110  41.079  36.682   4.461
15126W        W80111  28.688  31.961  13.334
15127W        W80112  15.729  30.368  12.153
15128W        W80113  11.259   4.952   1.017
15129W        W80114  17.542  31.180  11.968
15130W        W80115  42.369   6.732  12.326
15131W        W80116   5.062  33.551  14.197
15132W        W80117  29.983  35.241  14.460
15133W        W80118  25.694  34.073   3.831
15134W        W80119  23.055  12.016  10.629
15135W        W80120  43.446  19.022   0.730
15136W        W80121  24.710  42.415   0.879
15137W        W80122  29.150   3.940  11.127
15138W        W80123  41.039   3.422   4.232
15139W        W80124   7.985  41.823   0.041
15140W        W80125  40.430   6.400   4.505
15141W        W80126  33.997  29.433   2.298
15142W        W80127   8.747  39.278  12.473
15143W        W80128  36.260  13.894   0.921
15144W        W80129   6.976  35.169  13.179
15145W        W80130  21.254  29.365  11.965
15146W        W80131  24.183  16.090   0.896
15147W        W80132  28.462  32.402   1.259
15148W        W80133  40.118  20.238  11.755
15149W        W80134  31.813  39.199  13.480
15150W        W80135  25.219  40.514   2.738
15151W        W80136  34.612  38.521   1.874
15152W        W80137  14.330  42.216  12.619
15153W        W80138  18.646   6.833   1.598
15154W        W80139  34.409  18.593  12.797
15155W        W80140  37.016  32.927   3.648
15156W        W80141  31.420  19.602  13.781
15157W        W80142   2.844  33.413   0.720
15158W        W80143  20.175  27.401  12.857
15159W        W80144  38.146  25.211  14.861
15160W        W80145  43.431  33.920   3.622
15161W        W80146  34.577  32.135   5.069
15162W        W80147  13.554  14.091   4.153
15163W        W80148   3.183  32.351  12.479
15164W        W80149   3.903   5.448  10.651
15165W        W80150  13.969  39.667  10.987
15166W        W80151   8.230   0.260   2.755
15167W        W80152  26.918  27.976  14.403
15168W        W80153  39.027   0.310   2.424
15169W        W80154   4.199  15.159  14.283
15170W        W80155  34.609   3.881   3.897
15171W        W80156  18.908  16.036  12.650
15172W        W80157  34.050  41.945  11.034
15173W        W80158  36.932   9.161   3.241
15174W        W80159  44.498   1.326  13.778
15175W        W80160   5.707  31.985   2.914
15176W        W80161   5.501  42.851   2.695
15177W        W80162   0.452  15.216  14.001
15178W        W80163  32.377  19.199   2.778
15179W        W80164  34.265  23.486  11.605
15180W        W80165  12.481   7.672  14.781
15181W        W80166  29.932  33.056   3.574
15182W        W80167   9.364  13.251   3.084
15183W        W80168  26.223  19.243  12.496
15184W        W80169  31.059  21.220   1.764
15185W        W80170   6.137  32.933   0.496
15186W        W80171  42.534  27.617   0.833
15187W        W80172  39.712  29.065   0.061
15188W        W80173  23.248  19.187  13.530
15189W        W80174  13.334  26.220  11.877
15190W        W80175  20.666  34.378  13.295
15191W        W80176  41.519  43.275  11.181
15192W        W80177  12.637  30.841   0.889
15193W        W80178  42.887   5.281  10.735
15194W        W80179  29.172  22.671  10.641
15195W        W80180  43.608  33.926  11.591
15196W        W80181  38.947   8.387   3.237
15197W        W80182  44.715  24.343   4.117
15198W        W80183   8.387  28.529   3.288
15199W        W80184  41.812  32.732  12.091
15200W        W80185  43.993  41.831  14.283
15201W        W80186  28.556  29.850  13.936
15202W        W80187  39.446  41.930   1.936
15203W        W80188  12.145  37.348  10.950
15204W        W80189   7.406   6.372   0.228
15205W        W80190   1.241   0.940  14.337
15206W        W80191  40.456  27.094  12.494
15207W        W80192   9.329  42.191  14.801
15208W        W80193  32.960  13.564   1.670
15209W        W80194   5.525   2.696   3.310
15210W        W80195  19.065  32.842  11.163
15211W        W80196   6.400  35.006   4.605
15212W        W80197   2.896  34.301   3.594
15213W        W80198  27.488  40.596   2.685
15214W        W80199   4.428  39.840   0.354
15215W        W80200  34.769  27.848  14.984
15216W        W80201  38.419  20.272  11.128
15217W        W80202  13.256  22.334   2.221
15218W        W80203  34.472  12.213   1.308
15219W        W80204  28.508  36.163   0.101
15220W        W80205  20.310  25.870  14.315
15221W        W80206  33.414  39.862  11.867
15222W        W80207  22.889  27.152   3.206
15223W        W80208  28.549  37.384   3.675
15224W        W80209  24.437  27.271   1.402
15225W        W80210  26.536  14.126  13.954
15226W        W80211  31.989  35.365  13.405
15227W        W80212   8.933  36.483   0.330
15228W        W80213   5.402   6.904   1.312
15229W        W80214   3.485  29.727  10.754
15230W        W80215  43.770  15.331   3.049
15231W        W80216  20.591  38.038   2.675
15232W        W80217   1.996  29.423  10.775
15233W        W80218   9.285  30.730   4.712
15234W        W80219  41.885  18.579   1.469
15235W        W80220   9.250  38.118  12.627
15236W        W80221   0.219  25.731  14.804
15237W        W80222   8.390  39.970  12.379
15238W        W80223  38.870  20.301   1.486
15239W        W80224   8.485  29.389  14.045
15240W        W80225   3.215  19.072   3.605
15241W        W80226  26.808  34.308  10.757
15242W        W80227  16.816  23.017   1.938
15243W        W80228  12.376   4.412   2.235
15244W        W80229  38.033  28.558   3.249
15245W        W80230  20.568   2.092   3.711
15246W        W80231  28.402   8.220   2.327
15247W        W80232  16.398   6.313   3.907
15248W        W80233  44.338  21.008  11.362
15249W        W80234  39.885  29.936   3.822
15250W        W80235   4.791  22.680   1.773
15251W        W80236  35.134   4.258   0.792
15252W        W80237   1.792  20.194  11.052
15253W        W80238  17.878  25.782  11.025
15254W        W80239  37.566  30.918   4.132
15255W        W80240  26.269  13.739   2.234
15256W        W80241   0.457  39.301  13.842
15257W        W80242   6.063  36.872   3.595
15258W        W80243  23.682  44.724  13.957
15259W        W80244  13.172  23.283   1.314
15260W        W80245   7.842  37.203   4.482
15261W        W80246   1.972   9.860   1.421
15262W        W80247  29.807  37.152  13.276
15263W        W80248  11.670   3.289  14.069
15264W        W80249  43.518  20.878  10.716
15265W        W80250  12.818   1.355   3.564
15266W        W80251  30.861  43.536  12.998
15267W        W80252  35.366  11.247  13.421
15268W        W80253  29.427   2.194   0.825
15269W        W80254  40.877  17.179   1.624
15270W        W80255  44.792  27.518  13.764
15271W        W80256  25.830  43.492  14.955
15272W        W80257  10.615  18.744   2.729
15273W        W80258  43.193   8.974   4.149
15274W        W80259  22.049  30.473  12.743
15275W        W80260  28.365   7.347  13.311
15276W        W80261  23.615  37.609  13.370
15277W        W80262  19.108  13.149   0.929
15278W        W80263   1.512  36.516  13.794
15279W        W80264  17.830  11.198  12.907
15280W        W80265  43.328   2.724   3.381
15281W        W80266   8.853   7.251  13.541
15282W        W80267  21.420   8.325   0.869
15283W        W80268  44.851   0.509   3.772
15284W        W80269  33.903  35.037  11.284
15285W        W80270   4.413  18.160   2.901
15286W        W80271  42.216  12.183  13.381
15287W        W80272  41.474  37.073   4.283
15288W        W80273   2.825  33.678  11.992
15289W        W80274  43.168  29.719   1.571
15290W        W80275   8.795  22.220  13.054
15291W        W80276  44.732  40.583  14.832
15292W        W80277   4.813  12.190   1.719
15293W        W80278  11.825  36.532   2.304
15294W        W80279  18.007   2.269  11.599
15295W        W80280  13.868  38.028  10.714
15296W        W80281  40.264   6.427   0.944
15297W        W80282  19.652   8.561  11.823
15298W        W80283  22.188  32.485   1.705
15299W        W80284  27.672  29.500   2.752
15300W        W80285  39.608   8.501  11.626
15301W        W80286  15.310  37.617   2.817
15302W        W80287  13.644  33.693  12.968
15303W        W80288  11.155  31.659   2.495
15304W        W80289  37.779   1.901   4.613
15305W        W80290  28.854  27.609  10.574
15306W        W80291  13.923  42.202  14.084
15307W        W80292  14.248   2.202  13.819
15308W        W80293  23.675  40.339  12.539
15309W        W80294   0.281  11.956   0.848
15310W        W80295  37.955   8.662   0.967
15311W        W80296  18.453  44.129   2.399
15312W        W80297  20.127  12.837  13.350
15313W        W80298   6.466  25.541   4.881
15314W        W80299  32.349  43.876   4.038
15315W        W80300  33.407  13.658  10.581
15316W        W80301  26.448  33.259  13.549
15317W        W80302   1.388  34.049  14.077
15318W        W80303  12.443  15.382   1.933
15319W        W80304  25.162  16.594  13.365
15320W        W80305   5.811  11.148  11.171
15321W        W80306  37.601  39.384  11.872
15322W        W80307  37.549   5.205  13.800
15323W        W80308   7.414  15.338   0.990
15324W        W80309  21.503  26.210  10.982
15325W        W80310  22.833  24.982   5.034
15326W        W80311  15.764  40.319   3.584
15327W        W80312  11.730  31.126   0.010
15328W        W80313  20.399  40.061   3.293
15329W        W80314  26.394  29.997  10.710
15330W        W80315  15.757   8.393   0.604
15331W        W80316  25.935  28.079   0.879
15332W        W80317  40.910  32.685  10.158
15333W        W80318  35.516  44.954   3.568
15334W        W80319  11.687  37.475   4.025
15335W        W80320   9.901   0.312   0.653
15336W        W80321  19.578  20.126   3.162
15337W        W80322   2.005  31.417   2.841
15338W        W80323  10.928  44.232   2.284
15339W        W80324  30.034  11.683  12.050
15340W        W80325   4.371  29.885   1.942
15341W        W80326  32.890   0.267  14.666
15342W        W80327  41.806   6.759  13.521
15343W        W80328  34.643  28.038  12.083
15344W        W80329   2.851   3.358  14.561
15345W        W80330  18.037  40.960  13.512
15346W        W80331  24.937   9.141  11.937
15347W        W80332  40.972  28.260  10.167
15348W        W80333  40.019  31.426  13.442
15349W        W80334  43.273  10.347  12.549
15350W        W80335  43.086  31.069   2.388
15351W        W80336  39.564   2.911  12.179
15352W        W80337  26.679   5.256  10.427
15353W        W80338   5.800   0.769   3.851
15354W        W80339  33.024  27.768  10.804
15355W        W80340  26.459  32.591   1.732
15356W        W80341  27.001  33.389   4.101
15357W        W80342  18.444  44.086  12.423
15358W        W80343  34.348  22.102   4.156
15359W        W80344  27.214   2.276  12.501
15360W        W80345  13.325  34.683  14.426
15361W        W80346  22.132  18.288  13.008
15362W        W80347   1.059  30.580  14.773
15363W        W80348  35.308  20.584   0.844
15364W        W80349  17.113  23.738  10.688
15365W        W80350  11.652  11.295   1.940
15366W        W80351  38.047  18.557  13.967
15367W        W80352  10.812  37.154  13.946
15368W        W80353  26.969  20.320   1.878
15369W        W80354  35.729  36.285   4.844
15370W        W80355  29.027  36.390  13.984
15371W        W80356  30.161  20.587  11.517
15372W        W80357   1.764   0.350  13.625
15373W        W80358   4.361   4.431  14.344
15374W        W80359  10.709   4.248  13.026
15375W        W80360  31.393  28.728   1.855
15376W        W80361  15.507   2.848  13.658
15377W        W80362  37.139   1.967  11.109
15378W        W80363  17.006  11.773   2.303
15379W        W80364  17.793   5.730  13.525
15380W        W80365  42.755  11.658  13.007
15381W        W80366  18.081  36.850  11.420
15382W        W80367   2.706  35.035   4.981
15383W        W80368  17.591  17.517   1.853
15384W        W80369  36.550  42.343   0.341
15385W        W80370  12.382  43.295   2.320
15386W        W80371  11.714   3.068  13.508
15387W        W80372  11.160  22.460   1.388
15388W        W80373  21.243  30.902   4.156
15389W        W80374  19.504  35.321  13.506
15390W        W80375  35.140  13.760   4.199
15391W        W80376  20.201   4.392  11.610
15392W        W80377  17.841  12.629   1.366
15393W        W80378  42.875  28.615  11.607
15394W        W80379  43.003  27.084  13.462
15395W        W80380  26.215  25.205   2.221
15396W        W80381   7.732  24.360   4.781
15397W        W80382  18.540   0.531   4.716
15398W        W80383  36.353  33.477  14.772
15399W        W80384  33.886  22.293   0.698
15400W        W80385  39.260  39.512  11.730
15401W        W80386  31.512  33.084   2.414
15402W        W80387  17.110  38.579  11.126
15403W        W80388  10.180  18.237   1.505
15404W        W80389  43.930  30.355   3.028
15405W        W80390  10.772  21.083  12.012
15406W        W80391   6.032  23.109   4.695
15407W        W80392  19.931  15.553   1.418
15408W        W80393  35.075  10.375  14.218
15409W        W80394  14.847  23.598   3.786
15410W        W80395  30.048  22.594  13.883
15411W        W80396  40.010  23.085   3.339
15412W        W80397  34.178  34.899  14.737
15413W        W80398   3.195  28.052   1.273
15414W        W80399  14.315  13.287   0.348
15415W        W80400  38.182  33.951  11.946
15416W        W80401   1.798   4.752  14.489
15417W        W80402  13.670   2.675   0.489
15418W        W80403   1.311  20.241  11.776
15419W        W80404  40.013   5.020   4.600
15420W        W80405   0.577  34.039  14.446
15421W        W80406  24.965  18.070   1.289
15422W        W80407   5.913  15.518  14.665
15423W        W80408   7.285  28.930   4.365
15424W        W80409  43.000  32.428   3.197
15425W        W80410   7.495  41.104  13.258
15426W        W80411  16.523  42.913  11.239
15427W        W80412  12.682  15.790  11.117
15428W        W80413  31.864   0.018   3.913
15429W        W80414  29.471  20.921   2.631
15430W        W80415  28.079  16.948  11.936
15431W        W80416  30.460  35.313   2.088
15432W        W80417  43.453  43.308   1.350
15433W        W80418  44.265  25.112  14.499
15434W        W80419  23.282  12.317  12.303
15435W        W80420   4.394   0.776   0.775
15436W        W80421  19.444  32.102   0.809
15437W        W80422  34.616   0.829  14.437
15438W        W80423  27.895  43.835  14.923
15439W        W80424   5.269  15.741   1.827
15440W        W80425  10.363  23.192   3.698
15441W        W80426  16.104  10.789   4.149
15442W        W80427  37.008  14.198  11.560
15443W        W80428  39.060  43.335   4.543
15444W        W80429  22.143  16.723  14.511
15445W        W80430  42.726   1.320  14.768
15446W        W80431  18.774  20.268   1.818
15447W        W80432  38.570  29.667   1.890
15448W        W80433  13.859  39.097  13.572
15449W        W80434  31.153  10.332  13.343
15450W        W80435  12.620  35.326   0.431
15451W        W80436  10.714  33.576  10.697
15452W        W80437  17.003  40.102  10.283
15453W        W80438  21.182  35.913  14.674
15454W        W80439   9.841  21.751   0.279
15455W        W80440  31.026  14.252  12.871
15456W        W80441   6.301  30.303   1.775
15457W        W80442   2.101  19.046  11.319
15458W        W80443   0.906  36.638   4.552
15459W        W80444  18.482  41.522  13.811
15460W        W80445  18.182   3.669  12.871
15461W        W80446   8.654   2.186  14.731
15462W        W80447  27.057  13.637   4.343
15463W        W80448  41.795  16.274   1.134
15464W        W80449  10.999  39.650   1.770
15465W        W80450  16.716   8.914   3.059
15466W        W80451  44.977  40.128  12.521
15467W        W80452  24.143   8.081   2.513
15468W        W80453  30.081  16.828   1.665
15469W        W80454  39.406   4.913  10.505
15470W        W80455  28.419   7.153   3.833
15471W        W80456  32.702   7.626   4.537
15472W        W80457  23.725   8.327   0.270
15473W        W80458   9.332  43.663  12.026
15474W        W80459  15.764   3.735  11.713
15475W        W80460   6.894  39.084  10.722
15476W        W80461  27.468  21.988  12.912
15477W        W80462  42.498  12.955  14.518
15478W        W80463  19.083  14.895   4.180
15479W        W80464  16.587  43.405  14.462
15480W        W80465  11.414  23.756  13.906
15481W        W80466  21.773  20.313  11.753
15482W        W80467  22.292  25.628   2.434
15483W        W80468  34.630  27.465   2.920
15484W        W80469  26.592  24.672  11.631
15485W        W80470  26.232   7.110  10.801
15486W        W80471  26.610  24.499  12.122
15487W        W80472  31.321  17.604   1.995
15488W        W80473  15.240  31.831   1.323
15489W        W80474  30.718  28.244  10.487
15490W        W80475  23.524   6.782  10.718
15491W        W80476  44.359   4.277   0.825
15492W        W80477  39.426   1.893   2.824
15493W        W80478  10.142  40.207   4.242
15494W        W80479  21.600  22.559  11.654
15495W        W80480  10.178  31.941  10.577
15496W        W80481  38.988  23.766   2.689
15497W        W80482   1.533  27.076  14.986
15498W        W80483   6.050  29.172   4.236
15499W        W80484  37.016  16.779   0.265
15500W        W80485   9.780   0.816   0.749
15501W        W80486   5.605  42.905   0.906
15502W        W80487  21.784   2.903   0.308
15503W        W80488   3.915  13.601   3.115
15504W        W80489  33.982  16.216   0.441
15505W        W80490  33.917   9.354   2.803
15506W        W80491  33.592  35.026  10.871
15507W        W80492  23.252  32.451   5.381
15508W        W80493  16.121  36.457  13.565
15509W        W80494  38.976  44.964   3.815
15510W        W80495   3.577  39.100   1.277
15511W        W80496  42.424  40.588   1.947
15512W        W80497  27.964  28.491   3.254
15513W        W80498  38.351  13.920   4.291
15514W        W80499  38.344   2.504   4.224
15515W        W80500   5.584  23.026  14.833
15516W        W80501  38.667  21.116  14.966
15517W        W80502  34.979  18.153  13.004
15518W        W80503   7.143  16.730   1.663
15519W        W80504  38.294  21.663  11.944
15520W        W80505   7.963  43.938   3.184
15521W        W80506  42.803  12.793   0.730
15522W        W80507  32.048  44.544   0.772
15523W        W80508  24.159  40.535  10.936
15524W        W80509  14.752  39.779   0.732
15525W        W80510  29.101  29.172  12.426
15526W        W80511  32.488  11.721  12.048
15527W        W80512  41.892  14.741   3.606
15528W        W80513  25.149  13.810   1.653
15529W        W80514  20.239  44.376   1.791
15530W        W80515  12.668  35.191  12.908
15531W        W80516  36.639  39.996   0.336
15532W        W80517   8.230  17.666  14.562
15533W        W80518  42.410   3.789   3.662
15534W        W80519  25.018   6.711   0.764
15535W        W80520  40.083  19.594   1.589
15536W        W80521   2.920  30.591  12.222
15537W        W80522  27.197  44.387  12.349
15538W        W80523  12.255  11.234  11.264
15539W        W80524  12.109  25.773  14.132
15540W        W80525  40.772  29.961   2.610
15541W        W80526   0.524  17.152   1.783
15542W        W80527  41.730  22.029   1.924
15543W        W80528  36.350  36.925   3.429
15544W        W80529  34.624  36.129   2.291
15545W        W80530   0.189  32.187  11.940
15546W        W80531  42.480  10.848  12.025
15547W        W80532  18.042  20.482   3.410
15548W        W80533  12.488  15.568  12.448
15549W        W80534  15.194  43.647  12.934
15550W        W80535  11.901  19.625   2.929
15551W        W80536   4.423  13.614   4.093
15552W        W80537  43.347  34.632  11.978
15553W        W80538  10.900  38.954  12.367
15554W        W80539  20.087   8.675   3.754
15555W        W80540  10.172   2.903  13.233
15556W        W80541   4.563  10.669   0.972
15557W        W80542   9.387  43.893  13.954
15558W        W80543  25.534   4.816  14.071
15559W        W80544   6.344  30.544   2.733
15560W        W80545   8.839  27.951  11.615
15561W        W80546  10.084   1.053  13.213
15562W        W80547  17.665   9.454  12.620
15563W        W80548   1.751  42.757   0.748
15564W        W80549  23.441  22.656  13.370
15565W        W80550  13.292  34.588  10.507
15566W        W80551  24.556  13.112  12.358
15567W        W80552  18.013  20.435  10.241
15568W        W80553  28.367  19.712  11.971
15569W        W80554  33.369  25.281   3.216
15570W        W80555  13.146  13.584  10.548
15571W        W80556  19.785  28.534  14.335
15572W        W80557  43.918  20.177   3.621
15573W        W80558  27.787  13.261   3.701
15574W        W80559  42.266   5.619   1.577
15575W        W80560  30.062  20.176  13.568
15576W        W80561  31.596  10.287  13.106
15577W        W80562  28.161  30.484  14.219
15578W        W80563   1.006  17.075  13.151
15579W        W80564  17.557  32.455  12.208
15580W        W80565  22.756  22.834  13.938
15581W        W80566  26.147  22.198  12.682
15582W        W80567  44.014   7.699  10.413
15583W        W80568  29.049  15.176  11.944
15584W        W80569  10.417  41.752   4.296
15585W        W80570  21.815  18.151   4.257
15586W        W80571  31.546  16.725   2.506
15587W        W80572  16.454  40.580  14.297
15588W        W80573  32.221   7.916  13.441
15589W        W80574  44.003  43.904   3.007
15590W        W80575  11.048  26.108  11.972
15591W        W80576  31.459  29.565   3.504
15592W        W80577   2.548  34.377  12.273
15593W        W80578  39.658   5.999  14.267
15594W        W80579  28.477  42.700   5.081
15595W        W80580  22.630  39.566   4.168
15596W        W80581  16.063  37.025  14.683
15597W        W80582  25.311  32.555   0.832
15598W        W80583  36.195  40.157  11.419
15599W        W80584  18.465  33.994  11.961
15600W        W80585  39.784  19.226  13.902
15601W        W80586  30.472  27.111  10.622
15602W        W80587   1.889  29.172   0.150
15603W        W80588   4.737  43.272   3.712
15604W        W80589  25.175  16.796  12.026
15605W        W80590   4.679  27.627  14.124
15606W        W80591  26.287  39.025   1.379
15607W        W80592  42.298  25.605   2.767
15608W        W80593  32.018  18.922  14.305
15609W        W80594  11.215  16.737   2.024
15610W        W80595  20.013  42.956   4.427
15611W        W80596  29.328  39.811  10.408
15612W        W80597  27.747  26.442   2.891
15613W        W80598  32.052  21.175  13.250
15614W        W80599  31.537  27.928  12.585
15615W        W80600  39.285  29.901  13.049
15616W        W80601  18.224  27.587  12.078
15617W        W80602   9.265  36.561  12.605
15618W        W80603  40.004  32.669  14.607
15619W        W80604  23.183   2.386   0.245
15620W        W80605  26.941   5.709  10.636
15621W        W80606  40.842  14.143   3.851
15622W        W80607  10.618  21.712   4.879
15623W        W80608  42.341  18.722  14.685
15624W        W80609  40.534  42.576  10.240
15625W        W80610  43.050  35.011   1.898
15626W        W80611   7.824  35.866  14.883
15627W        W80612  12.411  37.828   2.893
15628W        W80613  25.087   1.240  11.697
15629W        W80614  31.016  23.776   3.759
15630W        W80615   1.374  23.396   2.980
15631W        W80616   7.836  29.898   0.187
15632W        W80617  16.516   1.047  14.046
15633W        W80618   6.464  24.119  13.815
15634W        W80619   6.606   5.471  13.030
15635W        W80620  40.276  38.051  12.857
15636W        W80621  10.561  26.469  13.968
15637W        W80622  33.644  27.572   2.758
15638W        W80623  35.921  42.032   4.108
15639W        W80624  10.648  31.035  14.198
15640W        W80625  28.451  43.208   0.996
15641W        W80626  16.599  24.531   2.219
15642W        W80627  30.779  43.241   2.622
15643W        W80628  26.770  25.569   3.711
15644W        W80629   6.027   9.071   0.682
15645W        W80630  30.331  40.581   3.234
15646W        W80631  42.297   5.913  14.056
15647W        W80632  29.978  28.565   0.885
15648W        W80633  34.966  30.557  11.498
15649W        W80634  14.083  36.278   4.303
15650W        W80635  14.804  36.156  11.779
15651W        W80636  12.639  39.434  13.046
15652W        W80637  16.649  36.141   2.894
15653W        W80638   3.327  33.084   3.183
15654W        W80639  29.465  11.584   0.655
15655W        W80640  10.912  15.317   4.154
15656W        W80641  11.949  17.613   2.160
15657W        W80642   5.155  38.086   3.363
15658W        W80643  38.441  15.041  14.553
15659W        W80644  42.398   9.781   2.730
15660W        W80645   8.092  30.270  13.906
15661W        W80646   8.866  28.277   0.568
15662W        W80647   9.191  30.375   0.453
15663W        W80648   8.903   7.254  11.892
15664W        W80649  37.856  22.623   4.308
15665W        W80650  41.200   3.816   3.637
15666W        W80651  32.950   7.369  12.461
15667W        W80652  29.064  38.899   2.356
15668W        W80653  12.384  14.273   2.716
15669W        W80654  40.311  16.203  11.671
15670W        W80655  28.979  41.908   0.504
15671W        W80656  35.632   0.287  11.163
15672W        W80657   8.738  24.431   0.443
15673W        W80658  25.531   8.326   1.841
15674W        W80659  20.143   7.073   0.707
15675W        W80660  11.795  37.857   1.835
15676W        W80661  20.232  12.318  14.692
15677W        W80662  10.236  13.214   2.823
15678W        W80663   7.184  28.195   0.250
15679W        W80664  37.803  21.726   3.178
15680W        W80665  19.222  11.195  11.181
15681W        W80666  38.015  29.563  13.415
15682W        W80667  35.528  26.005   1.889
15683W        W80668  29.322  10.372  11.078
15684W        W80669  36.589  33.786  12.613
15685W        W80670  12.943  22.263   3.059
15686W        W80671  23.579  33.331  11.817
15687W        W80672  12.281  14.227   1.741
15688W        W80673  13.720   8.218   1.322
15689W        W80674   2.298  39.294  13.420
15690W        W80675  39.357   3.479   0.932
15691W        W80676   4.297  26.835  13.161
15692W        W80677  39.784  13.341  10.743
15693W        W80678   0.422   7.648  11.088
15694W        W80679  38.537  44.553  13.386
15695W        W80680  36.431  12.738  12.690
15696W        W80681  30.852  15.365   1.929
15697W        W80682   3.876  28.683  13.411
15698W        W80683  27.513   0.418  14.199
15699W        W80684   1.277  30.497   4.504
15700W        W80685   8.311  22.363   2.317
15701W        W80686  18.007  44.381  14.956
15702W        W80687  17.086  27.153   2.943
15703W        W80688   1.291  12.605  13.321
15704W        W80689   8.453  43.587   3.629
15705W        W80690  43.457  13.077  14.990
15706W        W80691   6.888  41.300   1.068
15707W        W80692   9.798  39.949   4.520
15708W        W80693  29.456  13.726  13.107
15709W        W80694  14.865   9.212   4.146
15710W        W80695  18.399  18.988  14.755
15711W        W80696   8.961  21.102   4.141
15712W        W80697   7.622  19.795   0.160
15713W        W80698  28.629   1.416   3.221
15714W        W80699  37.057   3.143   4.795
15715W        W80700   5.248  30.241   2.359
15716W        W80701   9.263  15.353  12.380
15717W        W80702   5.159  34.052  13.458
15718W        W80703  17.428  17.895  11.927
15719W        W80704  18.083   7.204  13.829
15720W        W80705   5.066  24.247   5.095
15721W        W80706  43.006  29.966   1.985
15722W        W80707  36.608  38.592   1.837
15723W        W80708  34.196   9.496  14.110
15724W        W80709  40.086   5.483   1.862
15725W        W80710  19.358   7.920  14.316
15726W        W80711   0.763   5.977   1.927
15727W        W80712  20.954  39.496  14.787
15728W        W80713  34.900  39.519  13.998
15729W        W80714   5.819  19.971  10.738
15730W        W80715   0.538  32.061  10.629
15731W        W80716  42.029  37.660   1.327
15732W        W80717  33.433  17.660  13.109
15733W        W80718  42.944  34.356   1.449
15734W        W80719  23.478  11.752  14.360
15735W        W80720  25.075  31.735  10.339
15736W        W80721   3.489  27.171  12.974
15737W        W80722  41.494  34.061   3.659
15738W        W80723   5.414   4.613  12.514
15739W        W80724  29.625  33.077  14.760
15740W        W80725  39.112  11.799   3.714
15741W        W80726  34.988  15.390  13.017
15742W        W80727  34.033  18.546   1.420
15743W        W80728  37.081   2.229   3.389
15744W        W80729  24.560   3.068  10.840
15745W        W80730   9.238  36.168  13.435
15746W        W80731   3.635  39.762  11.139
15747W        W80732   5.289  34.398   1.214
15748W        W80733  34.964   1.371  12.905
15749W        W80734  42.806   6.909   2.320
15750W        W80735   6.426  30.587  12.543
15751W        W80736  41.745   6.605  11.715
15752W        W80737  11.767  15.812   0.405
15753W        W80738  37.815   9.766   1.598
15754W        W80739   9.382  25.061  12.960
15755W        W80740   6.245  19.576  12.546
15756W        W80741   5.891  25.084  14.980
15757W        W80742   9.970   0.500  12.076
15758W        W80743  10.099  16.322  13.567
15759W        W80744   7.818  27.726   3.142
15760W        W80745  16.085  33.496  11.892
15761W        W80746   0.406   7.103   4.194
15762W        W80747  35.449  42.499  14.781
15763W        W80748  36.499  15.228   4.243
15764W        W80749  42.593  42.420  13.954
15765W        W80750  43.397  34.264   0.211
15766W        W80751  21.956  11.843   3.103
15767W        W80752  27.809  41.051  11.059
15768W        W80753   1.311  12.839  12.081
15769W        W80754   8.225   3.451   3.284
15770W        W80755  16.154  11.132   0.943
15771W        W80756  25.984   0.962   1.950
15772W        W80757  40.363  40.956   1.401
15773W        W80758   6.168   5.214  12.922
15774W        W80759  14.988   1.066  14.902
15775W        W80760  42.770  36.815   2.181
15776W        W80761  38.561  43.144  11.940
15777W        W80762  33.903  31.909   3.619
15778W        W80763  30.092  29.628  13.488
15779W        W80764  24.875  41.803  12.804
15780W        W80765   3.897   7.926  14.853
15781W        W80766   8.638  18.050  13.891
15782W        W80767  36.047  37.562   1.244
15783W        W80768  35.141   8.066   2.151
15784W        W80769  27.404  16.609  12.445
15785W        W80770  38.320  25.703  14.808
15786W        W80771  30.412  43.005   1.725
15787W        W80772  17.261  15.585   2.871
15788W        W80773  25.737  31.623   3.384
15789W        W80774  11.237  12.094   4.541
15790W        W80775  39.912  31.111  11.538
15791W        W80776  38.523  24.972   1.381
15792W        W80777  18.108  35.794   0.696
15793W        W80778  28.344  36.007   0.569
15794W        W80779  30.468   7.050  11.038
15795W        W80780  17.630  24.477  14.788
15796W        W80781   3.797  21.348   3.676
15797W        W80782  41.469  36.991  10.535
15798W        W80783   3.039  38.333   2.210
15799W        W80784  24.675   2.517  13.550
15800W        W80785  27.438  16.203  11.502
15801W        W80786  11.160  23.479   3.045
15802W        W80787   7.616  31.952   3.168
15803W        W80788  37.511  22.219  13.874
15804W        W80789  34.534  12.395   0.825
15805W        W80790   6.231  14.673  12.519
15806W        W80791   2.993  20.027  10.514
15807W        W80792  28.350  23.066  11.011
15808W        W80793   8.286  11.098   2.785
15809W        W80794  34.990   5.118   0.903
15810W        W80795   1.846   7.018   3.504
15811W        W80796  25.129   2.950   2.636
15812W        W80797  19.804  12.953  10.155
15813W        W80798   9.928  27.618  14.768
15814W        W80799  42.187  12.390  12.566
15815W        W80800  11.258  27.750  10.991
15816W        W80801  13.743  19.001  14.369
15817W        W80802  14.752  21.357  11.176
15818W        W80803  35.282   3.398  14.044
15819W        W80804   9.623   2.512   1.342
15820W        W80805  24.344   1.289   3.677
15821W        W80806   2.288  39.554  13.857
15822W        W80807  29.019  11.700   2.900
15823W        W80808  34.632  28.676   0.449
15824W        W80809  32.495  39.034  13.993
15825W        W80810  10.691  20.798   4.466
15826W        W80811   8.605  27.558   3.152
15827W        W80812  17.612   6.837   5.344
15828W        W80813  44.812   6.816  14.196
15829W        W80814  34.745   0.720   4.123
15830W        W80815   2.697  33.878   0.913
15831W        W80816  31.528  13.701  11.769
15832W        W80817  14.505  35.950   5.010
15833W        W80818  35.057   1.432   1.002
15834W        W80819  37.608  17.353   4.876
15835W        W80820   2.775   0.691   1.193
15836W        W80821   6.197   0.066  10.138
15837W        W80822  43.737  19.025   1.342
15838W        W80823  18.668  31.580   2.763
15839W        W80824  13.856  41.535  13.491
15840W        W80825  25.960  38.468  11.832
15841W        W80826   7.128  13.907   3.915
15842W        W80827  25.979   6.417   4.859
15843W        W80828  24.195   6.677   0.867
15844W        W80829  11.307   7.716  13.573
15845W        W80830   6.176  14.637  10.696
15846W        W80831   6.896  22.953   0.350
15847W        W80832  37.706  12.442   1.773
15848W        W80833  10.678  26.695  10.418
15849W        W80834  19.725  43.172   4.847
15850W        W80835   3.856  25.460   4.846
15851W        W80836  34.991  11.741   0.274
15852W        W80837   1.053  26.983   1.640
15853W        W80838   3.873  30.348   0.748
15854W        W80839  36.934  18.953   3.253
15855W        W80840  14.888  20.794   4.149
15856W        W80841  29.537  36.163  14.405
15857W        W80842  41.844  28.282   3.202
15858W        W80843  17.021   3.570  12.081
15859W        W80844  26.099   0.285  11.626
15860W        W80845  19.283   0.717  12.875
15861W        W80846  16.832  11.401   1.385
15862W        W80847   6.005  13.463   3.547
15863W        W80848  31.584   9.433   3.235
15864W        W80849   7.288  39.525  13.441
15865W        W80850   7.427  29.031  10.909
15866W        W80851  10.689  39.020   3.125
15867W        W80852  13.509  34.648  11.527
15868W        W80853   8.236   3.260  13.269
15869W        W80854   9.798  21.541  10.751
15870W        W80855  36.463  19.469   4.429
15871W        W80856   9.592  26.761   2.892
15872W        W80857  17.632  29.330   3.087
15873W        W80858  28.163  18.481  12.051
15874W        W80859   9.766  18.516   2.315
15875W        W80860   4.365  17.613   0.084
15876W        W80861  11.210  35.581  10.466
15877W        W80862  26.063   4.723   2.274
15878W        W80863  26.654  11.890   0.914
15879W        W80864  12.884   4.264   1.306
15880W        W80865  10.610  39.020   1.288
15881W        W80866  36.346  40.494  11.005
15882W        W80867  28.436  35.937   1.400
15883W        W80868  30.706  12.811  10.942
15884W        W80869  40.085   7.422   4.229
15885W        W80870  25.874   2.980  10.488
15886W        W80871  21.365  29.749   3.590
15887W        W80872  29.714   1.289   2.452
15888W        W80873   4.943  26.697  14.296
15889W        W80874  23.683   7.596   4.496
15890W        W80875  23.994  25.434  14.495
15891W        W80876  17.383  38.833  14.902
15892W        W80877  20.022  12.684   2.859
15893W        W80878  16.703   2.892  14.345
15894W        W80879  13.524  19.676   3.875
15895W        W80880  37.412   4.866  12.957
15896W        W80881  26.668   6.836  12.126
15897W        W80882  34.048   8.075   3.981
15898W        W80883  14.338  22.142   0.465
15899W        W80884  42.903  38.268   1.373
15900W        W80885   1.302  28.228  11.164
15901W        W80886   2.833  28.630  12.355
15902W        W80887   0.456  27.007  13.064
15903W        W80888  35.012  19.668   5.094
15904W        W80889  36.478  22.507   1.857
15905W        W80890   6.666  12.905  10.438
15906W        W80891  38.575  17.110  13.595
15907W        W80892  17.042  12.244  13.732
15908W        W80893   2.948  27.492  12.385
15909W        W80894  26.779  23.220   1.391
15910W        W80895  30.998  32.574   4.487
15911W        W80896  26.023  28.940   9.888
15912W        W80897  14.589   8.268   0.548
15913W        W80898  28.582  35.922   3.129
15914W        W80899  20.287  27.143  14.879
15915W        W80900  34.662  44.728   1.044
15916W        W80901   4.952  43.868  12.202
15917W        W80902   7.403  29.158   1.175
15918W        W80903  10.875  43.357  14.347
15919W        W80904  11.270  33.225   3.185
15920W        W80905  32.772  42.861  12.801
15921W        W80906  42.920   0.197   1.197
15922W        W80907  29.388  34.610  13.774
15923W        W80908  33.425  44.951  11.696
15924W        W80909   3.258  28.163   0.249
15925W        W80910  38.058  13.055  12.414
15926W        W80911  35.772   1.233   0.414
15927W        W80912  41.497  15.110  14.356
15928W        W80913   1.662   6.856   2.589
15929W        W80914  11.018  18.809   1.905
15930W        W80915  29.114  20.241  14.380
15931W        W80916  37.293  43.755   4.126
15932W        W80917  33.664  36.907   4.356
15933W        W80918  15.567  42.415   0.488
15934W        W80919   0.407  24.659  12.671
15935W        W80920   1.993  20.706   0.282
15936W        W80921  39.814  22.695   2.782
15937W        W80922  33.068  41.386  10.929
15938W        W80923   4.165  28.636  14.783
15939W        W80924  34.629  38.911  13.017
15940W        W80925  22.244   5.923  10.963
15941W        W80926  38.671   7.320   1.803
15942W        W80927  22.604   7.388   3.779
15943W        W80928  22.949  27.002  13.825
15944W        W80929  22.096   0.062   1.709
15945W        W80930  44.325   2.773  11.036
15946W        W80931  28.968  23.042   2.375
15947W        W80932  29.051  11.885   0.798
15948W        W80933  22.911  30.787   4.941
15949W        W80934   5.383  15.948  12.333
15950W        W80935  18.306  29.387  13.124
15951W        W80936  10.744   7.738  13.841
15952W        W80937  11.154   3.397  10.655
15953W        W80938  10.736  21.532   3.842
15954W        W80939   1.073  18.636   2.311
15955W        W80940  16.998  43.443  11.764
15956W        W80941   9.828  19.265   1.856
15957W        W80942   8.377  21.659  12.598
15958W        W80943   0.935   0.443  13.452
15959W        W80944   1.239  36.412   1.424
15960W        W80945   3.527  34.651   2.452
15961W        W80946  32.897   9.632  13.361
15962W        W80947   2.834  23.441   2.725
15963W        W80948   9.636  12.732   4.029
15964W        W80949  35.626   6.014   3.317
15965W        W80950   4.462  17.176  11.691
15966W        W80951  43.298  11.557  14.872
15967W        W80952  30.495  10.118   0.883
15968W        W80953   1.775   5.367   2.356
15969W        W80954  24.165  24.498  14.821
15970W        W80955  41.189  23.448  11.222
15971W        W80956  32.591   6.137  14.815
15972W        W80957  12.178   7.118  11.581
15973W        W80958  26.510   0.994  13.031
15974W        W80959  38.535  12.860  12.530
15975W        W80960   1.916  36.077   1.346
15976W        W80961  38.338  15.125  14.016
15977W        W80962  22.271  22.212   3.639
15978W        W80963  14.067  21.037   1.358
15979W        W80964   8.854  33.640  14.376
15980W        W80965   0.102  16.700   2.835
15981W        W80966  20.657  34.340  14.934
15982W        W80967  22.516   8.178  11.249
15983W        W80968  34.940  42.309  10.802
15984W        W80969  33.989  17.209  14.647
15985W        W80970   1.479  15.468  11.554
15986W        W80971  30.703   3.897   1.198
15987W        W80972  13.187   1.112  10.758
15988W        W80973  21.765  12.085   3.752
15989W        W80974  22.640   1.704  12.957
15990W        W80975  42.113   6.705  10.886
15991W        W80976   9.725  23.259  10.633
15992W        W80977  39.067  17.861   2.147
15993W        W80978   4.357  44.499  11.600
15994W        W80979  10.324   9.100   0.218
15995W        W80980  24.553   5.683   3.433
15996W        W80981  38.056  22.317   3.953
15997W        W80982  38.468  41.803  12.883
15998W        W80983  12.640  23.205   1.093
15999W        W80984  26.312  29.928  11.251
16000W        W80985  21.842  44.997  13.900
16001W        W80986   4.659   2.120   3.087
16002W        W80987   8.806  25.006  13.567
16003W        W80988  11.315   8.186  11.606
16004W        W80989  18.061  13.597  12.513
16005W        W80990  34.506  32.914  14.286
16006W        W80991   7.693  29.039   4.653
16007W        W80992  18.062  33.417  14.033
16008W        W80993   9.858  13.078  14.919
16009W        W80994   9.425  39.649   2.422
16010W        W80995  11.778  29.950   0.759
16011W        W80996  34.267  10.370  10.637
16012W        W80997  15.139  25.475   2.785
16013W        W80998  11.858   9.088   1.178
16014W        W80999  34.817  39.146   1.237
16015W        W81000   7.695   2.468   3.392
16016W        W81001   8.577  18.572   0.655
16017W        W81002   3.960  28.026   0.757
16018W        W81003  10.956  35.168   3.543
16019W        W81004  20.516   0.879   2.602
16020W        W81005   8.597  21.507   2.665
16021W        W81006  12.768  30.351   0.915
16022W        W81007  10.238  19.507  12.506
16023W        W81008   5.313  42.824  13.489
16024W        W81009   1.330   7.028  10.585
16025W        W81010  29.863  18.854  14.021
16026W        W81011  37.791  41.558  13.380
16027W        W81012   0.522  27.449  10.896
16028W        W81013  32.380   5.886   3.583
16029W        W81014   6.474  17.041  14.003
16030W        W81015   5.888  39.628   2.237
16031W        W81016  36.899  26.436   0.856
16032W        W81017  39.128  10.772  10.905
16033W        W81018  27.551  24.013   3.658
16034W        W81019   3.793   6.165   3.378
16035W        W81020  35.106  35.961  13.911
16036W        W81021  32.115   6.910  13.471
16037W        W81022   9.968  41.230   3.192
16038W        W81023  25.431  13.754  12.113
16039W        W81024  11.865  23.000   1.888
16040W        W81025  43.050  32.086  10.818
16041W        W81026   1.305  32.254  11.580
16042W        W81027  17.192  17.077   1.318
16043W        W81028  12.956  20.658   1.885
16044W        W81029   4.712  23.133  12.820
16045W        W81030  32.881  38.238   2.766
16046W        W81031  10.588   6.526  14.986
16047W        W81032  26.043  42.614  13.877
16048W        W81033  22.469  19.183   3.134
16049W        W81034  44.015   3.791  10.669
16050W        W81035  13.595  42.895   1.492
16051W        W81036  41.364  37.313   3.091
16052W        W81037  40.514  32.307   0.341
16053W        W81038   3.818  16.273   1.680
16054W        W81039   9.814   2.003  14.409
16055W        W81040  36.069   1.456   4.051
16056W        W81041   2.484  21.454   1.924
16057W        W81042  18.809  14.022  13.329
16058W        W81043  24.114  40.920  13.770
16059W        W81044   4.499  23.754  11.688
16060W        W81045  31.943   9.884  12.486
16061W        W81046  40.857  33.213  10.228
16062W        W81047  33.544  43.050  10.640
16063W        W81048  16.245  13.589   3.717
16064W        W81049  31.833  41.573  10.304
16065W        W81050  38.400   9.147  10.783
16066W        W81051  39.146  36.062  12.927
16067W        W81052  26.413  16.740  13.853
16068W        W81053  29.746  12.023   2.337
16069W        W81054  11.850  14.727   3.954
16070W        W81055  31.215  40.686  12.522
16071W        W81056  29.899   0.891   2.127
16072W        W81057  39.718   9.926   4.212
16073W        W81058   8.278  38.097  12.925
16074W        W81059  10.725  44.212  10.034
16075W        W81060  26.469   1.000   0.310
16076W        W81061   2.975  30.117   1.274
16077W        W81062  19.131  30.032  13.065
16078W        W81063  28.565   0.174  13.339
16079W        W81064  18.159   2.136  12.258
16080W        W81065  16.271  34.936   3.685
16081W        W81066  35.586  12.130   4.550
16082W        W81067  38.098  29.117  12.262
16083W        W81068   0.498  34.682   0.615
16084W        W81069   5.039  32.666  12.489
16085W        W81070  26.260   9.083   3.377
16086W        W81071  38.769  29.656   2.375
16087W        W81072  28.043  38.651  11.397
16088W        W81073  20.167  30.883  12.060
16089W        W81074  36.013  23.143   2.635
16090W        W81075  32.519  35.974  13.781
16091W        W81076   7.178   2.689   2.288
16092W        W81077   1.307   1.815  11.195
16093W        W81078  44.492  27.932  13.586
16094W        W81079  32.090  14.317   0.470
16095W        W81080  13.409   1.992  14.393
16096W        W81081  44.265  19.030   4.568
16097W        W81082  42.357  17.566  12.674
16098W        W81083  13.433  22.563   3.637
16099W        W81084  28.653  39.519  10.605
16100W        W81085  37.323   7.887   0.353
16101W        W81086  33.637  21.455  11.908
16102W        W81087  15.211  21.329   0.811
16103W        W81088   2.066  28.868  12.320
16104W        W81089   4.497  31.393  11.011
16105W        W81090  15.148  19.717  13.744
16106W        W81091  30.225   2.754   1.774
16107W        W81092   4.824  21.090  13.555
16108W        W81093  18.189  36.856  14.887
16109W        W81094  22.454  34.599   3.234
16110W        W81095  41.871  25.254  12.455
16111W        W81096  34.388  31.606  11.190
16112W        W81097  27.540  35.930   2.660
16113W        W81098   7.130  23.199   3.232
16114W        W81099  24.664   0.866   2.832
16115W        W81100  35.382  44.001  13.707
16116W        W81101  34.996  34.322   2.186
16117W        W81102  39.659  42.831   3.099
16118W        W81103  22.434   2.171   1.289
16119W        W81104  13.684  25.771   4.018
16120W        W81105  43.992  40.471  12.019
16121W        W81106  37.061  30.609   3.164
16122W        W81107   6.397  21.204  12.948
16123W        W81108  36.481  20.212   1.303
16124W        W81109   7.082   6.327  14.285
16125W        W81110  43.359  16.100   3.277
16126W        W81111  29.081  40.381   4.435
16127W        W81112  35.206  24.038   1.890
16128W        W81113   7.656   0.600   5.061
16129W        W81114  44.953  24.067   2.425
16130W        W81115  26.021  40.346  11.963
16131W        W81116   6.008  19.709  12.984
16132W        W81117  17.221  44.347   1.719
16133W        W81118   5.768  19.288  11.475
16134W        W81119  39.148  21.349  11.955
16135W        W81120  14.356  16.753  14.419
16136W        W81121   8.773   6.145  14.561
16137W        W81122  27.538  25.745   4.078
16138W        W81123  23.261  26.344  13.104
16139W        W81124  22.643  37.752   1.228
16140W        W81125  19.164  21.909  13.781
16141W        W81126  29.520  31.889  10.147
16142W        W81127  38.549  16.485  12.877
16143W        W81128  26.212  10.837  11.136
16144W        W81129   0.246  34.364   4.037
16145W        W81130  16.634  39.090   4.619
16146W        W81131  10.771  20.556  10.977
16147W        W81132   4.298  44.814  10.527
16148W        W81133  40.037   4.234  13.003
16149W        W81134  43.001   5.388   2.294
16150W        W81135  25.794  37.496  11.877
16151W        W81136  36.298  37.022  11.944
16152W        W81137   2.789  30.005   4.605
16153W        W81138   3.010  17.618  11.450
16154W        W81139   8.307  20.607  12.422
16155W        W81140  39.177  43.962  14.371
16156W        W81141   4.746  19.758   3.882
16157W        W81142  27.074  12.053  12.924
16158W        W81143  23.471  24.358  12.879
16159W        W81144  35.352  23.737  13.858
16160W        W81145  29.536   8.468  11.315
16161W        W81146  30.474   8.818   1.724
16162W        W81147  28.873   1.217  10.151
16163W        W81148  24.174  39.975  13.480
16164W        W81149  17.366  22.662   2.177
16165W        W81150  26.084   8.851  11.573
16166W        W81151  34.038  37.787   3.756
16167W        W81152   7.631  36.868  12.134
16168W        W81153   1.643  35.835   3.679
16169W        W81154   4.119  12.689   0.316
16170W        W81155   4.950   4.368   1.765
16171W        W81156  30.115   7.756   4.131
16172W        W81157   3.887  39.421   1.550
16173W        W81158   3.861  13.718  10.532
16174W        W81159  43.045   7.370   2.394
16175W        W81160  29.230  25.638  14.386
16176W        W81161  42.749   9.670   3.106
16177W        W81162  28.280  40.978  14.256
16178W        W81163  26.531  20.564   2.711
16179W        W81164  14.393  38.969  12.037
16180W        W81165  36.078  39.142   1.407
16181W        W81166  12.857  39.003  11.992
16182W        W81167  23.405  12.697  11.902
16183W        W81168  23.640  24.996   4.150
16184W        W81169  19.603  18.068  11.831
16185W        W81170   4.307  35.601  13.461
16186W        W81171   4.938  19.575   3.130
16187W        W81172  41.807  16.608  11.649
16188W        W81173  10.644   9.713  13.130
16189W        W81174  34.955  11.896   3.763
16190W        W81175  19.706   8.296  11.376
16191W        W81176  43.369  34.224  12.968
16192W        W81177   7.656  30.021   1.551
16193W        W81178   9.121  38.348   1.116
16194W        W81179  31.853  34.599  11.999
16195W        W81180  35.952   0.372  14.076
16196W        W81181   3.758  10.174   4.831
16197W        W81182  27.735  14.424  12.974
16198W        W81183  15.514  31.925   3.302
16199W        W81184  31.085   1.329   3.924
16200W        W81185  32.091  17.778   1.346
16201W        W81186  33.692  31.552   1.524
16202W        W81187  30.139   0.916   1.674
16203W        W81188   5.183  17.463  11.980
16204W        W81189  25.823   7.131  13.472
16205W        W81190  22.585  10.431   9.871
16206W        W81191  43.012  23.068   1.874
16207W        W81192  16.784  36.820   0.264
16208W        W81193  37.816   4.228   4.571
16209W        W81194  43.212  22.929  11.576
16210W        W81195  29.009   6.971   3.788
16211W        W81196   1.162  21.665   1.630
16212W        W81197  20.244  30.460   1.179
16213W        W81198  22.323   1.850   1.709
16214W        W81199  26.640  12.892   3.849
16215W        W81200  11.398  28.465   2.873
16216W        W81201  22.091   3.969  11.345
16217W        W81202  15.278  10.682  11.621
16218W        W81203  13.175  15.945   2.413
16219W        W81204  39.624  19.728  13.949
16220W        W81205  34.358   0.728  14.950
16221W        W81206  11.774  29.568   4.600
16222W        W81207  42.937  18.199  13.086
16223W        W81208   4.197   8.392  12.830
16224W        W81209  16.609  15.357   3.512
16225W        W81210  41.696  22.631  12.895
16226W        W81211  40.096  34.922   0.311
16227W        W81212  41.087   2.376  12.596
16228W        W81213  20.051  32.815   1.383
16229W        W81214   0.428  11.260  11.730
16230W        W81215   6.883   3.168   2.814
16231W        W81216  18.738  17.720  11.591
16232W        W81217  12.919  17.277   1.324
16233W        W81218  35.064  43.788   4.691
16234W        W81219  34.607  12.940   3.353
16235W        W81220  34.375  18.195  11.945
16236W        W81221  25.920  14.804   4.860
16237W        W81222  26.379  38.847   1.841
16238W        W81223   1.423  35.505  14.907
16239W        W81224   4.777  37.869  14.344
16240W        W81225  35.100  11.197  13.862
16241W        W81226  20.482  13.136   3.843
16242W        W81227  21.953   1.046   0.170
16243W        W81228  40.317  21.712   0.059
16244W        W81229   0.720  40.548   1.795
16245W        W81230   0.048  29.643   2.054
16246W        W81231  16.740  26.118  13.744
16247W        W81232  39.578  17.939  13.725
16248W        W81233  29.418  14.357  13.765
16249W        W81234  15.692   4.718   1.775
16250W        W81235  13.322  14.273  10.197
16251W        W81236   1.264   6.678   2.846
16252W        W81237  38.629  23.602  12.028
16253W        W81238  28.526  19.371   2.625
16254W        W81239  35.368   9.329  11.173
16255W        W81240  17.199   3.961  13.810
16256W        W81241  10.701  19.664  11.554
16257W        W81242  28.471  14.652   3.209
16258W        W81243  21.600  26.697   4.030
16259W        W81244  38.467  22.000  11.594
16260W        W81245   2.804  37.995  13.247
16261W        W81246   6.021  21.834  10.987
16262W        W81247  18.458  17.993  12.639
16263W        W81248  25.993  39.374  14.342
16264W        W81249  30.057  36.028  14.411
16265W        W81250  38.965  15.687   2.701
16266W        W81251   6.843  33.402   0.291
16267W        W81252  17.832  22.585   2.566
16268W        W81253   4.007   9.250   1.433
16269W        W81254  19.097  31.414  14.597
16270W        W81255  31.028  27.094  13.847
16271W        W81256  26.635   3.266  11.628
16272W        W81257   6.967  33.127  12.876
16273W        W81258   9.715  14.681   4.048
16274W        W81259  23.775  37.491   2.444
16275W        W81260   0.013  42.420   3.247
16276W        W81261   8.809  35.423  14.848
16277W        W81262  13.070  35.045   3.544
16278W        W81263  13.178  18.726   1.824
16279W        W81264  22.737  15.713   9.626
16280W        W81265   0.303   0.530   0.645
16281W        W81266   2.825  39.024   1.011
16282W        W81267  18.548  11.142   4.555
16283W        W81268   6.213  18.026  13.830
16284W        W81269  38.395  32.142   0.032
16285W        W81270  13.611   0.921  11.017
16286W        W81271   9.746  10.131   1.717
16287W        W81272  25.939   0.436  12.452
16288W        W81273  40.546  40.787  10.541
16289W        W81274  25.060  18.157  13.791
16290W        W81275  37.562  23.789   4.608
16291W        W81276   2.051  26.734  13.849
16292W        W81277  40.013  20.983  12.019
16293W        W81278  31.625  41.370  11.635
16294W        W81279  27.471  22.109   2.335
16295W        W81280  36.321   3.185   3.138
16296W        W81281   4.727  26.072   3.038
16297W        W81282  26.504   4.435   0.972
16298W        W81283  21.047  40.066   2.747
16299W        W81284  39.188   1.272  11.244
16300W        W81285  36.922  11.421  10.722
16301W        W81286   3.022  35.306   2.299
16302W        W81287   5.907  40.918   4.347
16303W        W81288  36.981  38.855   2.444
16304W        W81289  24.387   3.811   0.400
16305W        W81290  26.174  32.054  12.015
16306W        W81291  25.269   5.168  12.892
16307W        W81292   0.837  25.737   1.432
16308W        W81293  33.578  34.272   1.497
16309W        W81294  44.212  13.764  14.773
16310W        W81295  25.710  26.127  14.436
16311W        W81296  18.055  31.177   1.812
16312W        W81297   2.161  17.791   0.946
16313W        W81298  42.562   0.103   3.601
16314W        W81299   5.702  43.239  12.543
16315W        W81300  29.082  15.657   1.958
16316W        W81301  11.399  26.063  12.326
16317W        W81302   3.990  33.772  12.409
16318W        W81303  12.112  16.766  13.750
16319W        W81304  21.822  18.091   0.795
16320W        W81305  18.672  28.304  13.455
16321W        W81306   5.224  37.081   1.847
16322W        W81307   3.845  19.713  13.555
16323W        W81308  20.787   7.345   3.453
16324W        W81309  14.967  16.821  14.800
16325W        W81310  12.394  28.401  12.586
16326W        W81311  24.898  27.136  11.116
16327W        W81312  13.672  31.769   2.425
16328W        W81313  40.608  17.547  13.127
16329W        W81314  29.627   7.745   2.694
16330W        W81315  13.765  21.359   2.901
16331W        W81316  33.891  14.843   3.074
16332W        W81317  26.058   3.342   0.696
16333W        W81318   3.513  12.786   1.195
16334W        W81319  24.175  43.854   2.785
16335W        W81320  23.966  17.736  11.406
16336W        W81321   1.326  12.491   4.848
16337W        W81322  24.499  26.308  12.024
16338W        W81323  39.543   3.954   0.880
16339W        W81324   3.529  17.903  13.859
16340W        W81325  12.903  10.870  13.431
16341W        W81326   7.693   1.570  12.356
16342W        W81327   1.016  30.078   0.005
16343W        W81328   7.423   6.470   2.663
16344W        W81329  33.100   2.779   0.033
16345W        W81330  28.625  14.732  10.551
16346W        W81331   3.724  28.186  13.464
16347W        W81332  31.558   2.690  11.464
16348W        W81333  35.108  24.678  10.872
16349W        W81334  36.871  35.688  14.821
16350W        W81335  31.500  27.167  12.989
16351W        W81336  16.143  37.287  10.468
16352W        W81337   1.396  35.385  13.380
16353W        W81338  35.871  26.145  14.895
16354W        W81339  35.462  20.794   3.143
16355W        W81340  26.698   9.837   2.373
16356W        W81341   0.830  38.529   0.446
16357W        W81342  25.654  10.772  12.438
16358W        W81343  35.888   8.524   1.996
16359W        W81344  21.292   1.423  14.481
16360W        W81345  43.202  41.349  13.571
16361W        W81346  24.194  15.573   0.788
16362W        W81347  44.305   5.217   2.391
16363W        W81348  27.355  17.833   1.437
16364W        W81349  43.803  29.819  13.890
16365W        W81350  18.420  36.418  12.469
16366W        W81351  15.840  43.745   3.314
16367W        W81352   0.512  42.517   3.230
16368W        W81353  39.814  31.515   1.577
16369W        W81354  20.542  43.106  12.128
16370W        W81355  41.047  18.353   0.976
16371W        W81356  30.806  38.325  12.392
16372W        W81357   6.006   7.850  11.579
16373W        W81358   8.192   3.166   3.740
16374W        W81359  17.027   8.557  13.037
16375W        W81360  44.351  40.070   0.545
16376W        W81361  44.780  30.373  13.650
16377W        W81362  34.372  36.622   1.315
16378W        W81363  10.503  27.656  13.935
16379W        W81364  37.963  29.617   4.106
16380W        W81365  15.056  19.220  14.306
16381W        W81366  25.503  40.180  12.971
16382W        W81367  32.378  17.186   4.891
16383W        W81368  15.332  10.861   3.150
16384W        W81369  21.664  16.711  13.753
16385W        W81370  34.292  27.999  13.062
16386W        W81371   9.215  39.543   2.880
16387W        W81372  20.674  35.891   3.940
16388W        W81373  20.768  10.922   2.921
16389W        W81374   8.288  23.778   2.269
16390W        W81375   2.275  26.073  14.394
16391W        W81376  42.206  44.288  12.214
16392W        W81377  33.968  43.773  11.087
16393W        W81378  20.559   5.012  14.982
16394W        W81379  12.774  28.004  10.844
16395W        W81380   8.832   1.668   4.244
16396W        W81381  19.308   7.957   1.554
16397W        W81382  12.326   1.827   4.127
16398W        W81383  10.398  31.928  12.848
16399W        W81384  11.772  43.552   3.616
16400W        W81385  44.151  41.363  14.430
16401W        W81386  26.426  21.037   3.540
16402W        W81387  10.386   8.688  10.538
16403W        W81388   2.982  36.951   3.862
16404W        W81389   7.267   9.006  13.017
16405W        W81390  19.111  33.246  12.444
16406W        W81391  39.041  25.101   3.200
16407W        W81392   1.745   2.130  13.987
16408W        W81393  10.621   7.297   9.749
16409W        W81394  44.147  11.984   2.324
16410W        W81395   2.585  21.972   3.657
16411W        W81396  12.384  18.057  12.503
16412W        W81397   4.122  25.071   0.260
16413W        W81398  41.089  44.320   4.185
16414W        W81399  14.336  29.488  14.320
16415W        W81400   1.997  19.537  14.378
16416W        W81401  17.580  17.176  13.164
16417W        W81402  31.527  31.280  10.656
16418W        W81403  11.092  23.061   4.762
16419W        W81404   8.279   7.863   0.481
16420W        W81405  32.014  20.009   1.904
16421W        W81406  25.257  17.475  13.211
16422W        W81407  25.756  43.015   3.228
16423W        W81408  11.385  13.758   1.446
16424W        W81409  24.098  37.948   2.650
16425W        W81410  29.038  28.575   3.251
16426W        W81411   5.898  16.683  14.386
16427W        W81412  21.341  26.511  14.307
16428W        W81413   6.866  11.860  11.468
16429W        W81414  43.148  23.906  10.257
16430W        W81415  42.335  31.708   4.238
16431W        W81416  21.613  40.093   0.335
16432W        W81417  41.888  12.400   1.138
16433W        W81418  36.825  39.575   3.187
16434W        W81419  32.527  24.085   2.888
16435W        W81420  38.034  28.384   3.731
16436W        W81421  42.918  40.551   3.637
16437W        W81422   8.577  20.695  13.022
16438W        W81423  39.440   7.346  14.197
16439W        W81424  32.170  39.113   4.285
16440W        W81425  10.237  16.791   4.960
16441W        W81426  28.221  36.859   3.304
16442W        W81427  41.746  34.213   0.122
16443W        W81428   0.787  19.310   1.484
16444W        W81429  40.942  25.273  13.536
16445W        W81430  25.270  11.816  14.076
16446W        W81431  19.758  13.222  12.558
16447W        W81432   5.697  22.038   1.202
16448W        W81433  31.400  31.357   0.846
16449W        W81434   8.316  30.961   2.617
16450W        W81435   4.469  34.218   2.809
16451W        W81436   2.790  10.317  10.803
16452W        W81437  30.717   4.218   0.774
16453W        W81438  17.196  11.683  14.536
16454W        W81439  39.142  35.583  12.138
16455W        W81440  37.752  24.292   4.722
16456W        W81441  38.420  22.771  12.057
16457W        W81442  44.008   8.914  11.214
16458W        W81443  16.897   4.207  14.987
16459W        W81444   9.694  32.434   2.693
16460W        W81445  13.947  21.918  12.609
16461W        W81446   4.298  36.887   4.207
16462W        W81447   5.476  10.746   4.505
16463W        W81448  15.157  35.684  13.454
16464W        W81449  41.285   3.574   1.129
16465W        W81450  30.099  27.688  11.938
16466W        W81451   8.340  26.965  14.511
16467W        W81452   7.141   4.950  12.950
16468W        W81453  18.481  40.226   2.968
16469W        W81454  15.822  16.154   3.304
16470W        W81455  32.326  33.029   0.800
16471W        W81456   8.175  31.902  11.031
16472W        W81457   8.289  31.933  13.313
16473W        W81458  16.695  38.177  11.199
16474W        W81459   6.405  27.218  10.222
16475W        W81460  28.098  33.415   0.351
16476W        W81461   9.168  26.621   0.088
16477W        W81462  37.131  29.073  11.028
16478W        W81463   8.553  15.232   1.263
16479W        W81464   9.604  13.281  13.469
16480W        W81465  31.671  38.905  11.090
16481W        W81466  41.599  26.084  12.187
16482W        W81467  15.284  14.396  13.802
16483W        W81468   0.686  12.736  10.785
16484W        W81469   5.203  13.596   4.614
16485W        W81470  36.069   0.721  13.046
16486W        W81471  38.764  11.675   1.415
16487W        W81472  23.058   0.282   0.826
16488W        W81473   2.737  28.033   1.004
16489W        W81474   5.681  19.457   0.539
16490W        W81475  23.016  43.302   1.271
16491W        W81476   3.291  28.442   4.589
16492W        W81477  12.028  36.253  13.950
16493W        W81478  12.431  19.058  14.402
16494W        W81479  35.882   0.423   0.536
16495W        W81480  17.295  29.891   2.774
16496W        W81481  25.127   1.483   2.213
16497W        W81482  42.198  29.833  10.698
16498W        W81483  17.454  24.909   2.510
16499W        W81484  35.348  19.004  11.099
16500W        W81485  10.112  12.792   3.551
16501W        W81486  14.859  13.841  11.549
16502W        W81487  33.221  37.262  11.707
16503W        W81488   1.350   4.940   3.190
16504W        W81489  26.911  33.782   4.996
16505W        W81490  42.494  33.117   2.289
16506W        W81491  37.589  14.846  12.590
16507W        W81492  42.015   2.189   3.729
16508W        W81493  11.822  33.744   0.890
16509W        W81494   2.299  14.694  13.919
16510W        W81495  43.824   9.433   2.894
16511W        W81496  18.600  39.996  12.678
16512W        W81497   5.431  40.983  11.499
16513W        W81498  44.233  43.193  11.619
16514W        W81499  14.875  19.169  14.816
16515W        W81500  20.657   6.688   1.900
16516W        W81501  32.742  13.203  10.026
16517W        W81502   9.739   1.425  12.910
16518W        W81503   9.945  15.884   0.017
16519W        W81504  20.981  35.048   5.126
16520W        W81505  25.578  34.391   0.465
16521W        W81506  38.519   4.667   4.589
16522W        W81507  27.941  29.437   3.198
16523W        W81508  41.832  40.892  12.536
16524W        W81509  10.156  43.069   4.609
16525W        W81510  17.155  40.823   0.540
16526W        W81511  35.984  31.068  11.934
16527W        W81512   7.131  13.701   3.436
16528W        W81513   8.222  24.258  11.508
16529W        W81514  12.829  28.028   4.865
16530W        W81515  35.325  21.819   3.285
16531W        W81516   0.765  13.350   1.481
16532W        W81517  32.194   6.692   1.372
16533W        W81518   4.613  21.331   0.892
16534W        W81519  29.154  11.645   4.752
16535W        W81520   0.330   7.168  12.022
16536W        W81521   6.502  14.167   4.050
16537W        W81522   7.967  39.389   4.143
16538W        W81523  13.157   3.088  10.661
16539W        W81524  25.553  25.875   3.594
16540W        W81525  22.979   9.617  14.768
16541W        W81526  10.816  24.426  11.564
16542W        W81527  31.148  25.115   5.155
16543W        W81528   1.375  28.761  11.180
16544W        W81529  10.882  27.996  11.878
16545W        W81530  20.304   6.430   3.706
16546W        W81531  24.020  38.649  12.944
16547W        W81532   2.379  22.431  14.838
16548W        W81533  21.537  44.480   0.334
16549W        W81534  12.126  19.578   3.916
16550W        W81535  21.177   1.959  10.239
16551W        W81536  30.942  38.746  14.430
16552W        W81537  18.756  34.814   2.482
16553W        W81538   5.709  17.588   2.441
16554W        W81539   4.903   3.064  10.759
16555W        W81540  42.853  42.740   2.663
16556W        W81541  17.030  38.764  13.081
16557W        W81542  14.228  26.646   3.448
16558W        W81543   9.694   3.564   3.661
16559W        W81544  41.884   0.861  11.826
16560W        W81545   5.802  34.079   2.210
16561W        W81546   1.429   3.260   3.104
16562W        W81547  19.601   1.990  14.831
16563W        W81548  39.433   8.448   0.243
16564W        W81549  24.940  39.579   3.752
16565W        W81550  30.556  19.707  11.100
16566W        W81551  40.343  34.962   0.785
16567W        W81552   4.450  24.154  13.842
16568W        W81553  18.532  16.593  13.558
16569W        W81554  42.211  36.898   1.335
16570W        W81555  32.848  39.929   4.180
16571W        W81556   2.436   5.744   4.167
16572W        W81557  36.336  18.002   1.546
16573W        W81558  25.567  29.653   4.108
16574W        W81559  14.154  12.189  13.445
16575W        W81560  26.580  17.642   4.576
16576W        W81561   2.480  43.212  12.573
16577W        W81562   4.726  41.403   2.562
16578W        W81563  38.389  40.671  12.559
16579W        W81564  41.630  34.878   3.353
16580W        W81565  12.756  43.769  11.641
16581W        W81566  41.310   2.448   4.162
16582W        W81567  22.562  43.428  13.826
16583W        W81568  14.666  36.573  13.532
16584W        W81569  39.646   0.711   2.795
16585W        W81570  16.095  10.149  12.638
16586W        W81571   1.284  43.446  12.803
16587W        W81572  21.204  22.359  12.970
16588W        W81573  33.113  21.771   0.868
16589W        W81574  11.851  20.230   1.392
16590W        W81575  42.790  11.612   3.620
16591W        W81576  11.207   0.233  13.423
16592W        W81577  31.148  31.463  14.022
16593W        W81578   3.919  38.752   0.301
16594W        W81579  24.586  24.011  12.037
16595W        W81580  21.934  29.806   5.431
16596W        W81581  40.012  20.855  14.115
16597W        W81582  26.257  12.683   3.588
16598W        W81583   3.336  25.690   5.055
16599W        W81584  17.500  31.439  13.089
16600W        W81585  17.076  18.019   2.270
16601W        W81586  15.695  22.738   5.064
16602W        W81587  40.474   6.947  11.943
16603W        W81588  27.509  43.787   3.319
16604W        W81589  44.558  17.503   3.763
16605W        W81590   2.314  33.922  14.968
16606W        W81591  39.464  11.269   0.810
16607W        W81592  25.690  22.201  10.439
16608W        W81593  22.214  33.492   1.949
16609W        W81594   8.836  25.577   0.886
16610W        W81595  31.496  35.875   1.206
16611W        W81596  31.082  29.731  13.317
16612W        W81597   8.712  19.049  13.123
16613W        W81598  13.690  26.136   3.624
16614W        W81599  31.607  35.419   1.423
16615W        W81600  36.575   0.515   2.239
16616W        W81601  38.816  34.006  11.029
16617W        W81602   7.203  37.211   0.706
16618W        W81603  14.324  37.905   3.295
16619W        W81604  26.843  35.288  12.945
16620W        W81605  22.540  35.258  11.921
16621W        W81606  41.517   0.833  12.191
16622W        W81607  40.802  38.592  12.376
16623W        W81608   5.297  18.219  11.640
16624W        W81609  23.662  14.421   1.743
16625W        W81610  37.616  25.563   0.398
16626W        W81611  41.165  26.019   2.597
16627W        W81612  13.858   3.664  11.537
16628W        W81613  34.745   6.611  11.154
16629W        W81614  12.189  35.347  12.901
16630W        W81615  26.043   9.492  12.444
16631W        W81616   8.552   7.320   2.725
16632W        W81617  27.269   6.332   4.345
16633W        W81618  26.510  10.369  12.882
16634W        W81619  11.280   9.619   3.656
16635W        W81620   0.357  44.796   0.209
16636W        W81621  30.610   9.322  11.508
16637W        W81622  30.094  40.851  14.480
16638W        W81623  22.908   6.350   3.363
16639W        W81624  31.825  15.663   4.164
16640W        W81625   1.763   1.812  10.430
16641W        W81626  27.058  19.820  11.262
16642W        W81627  21.001  31.058  14.342
16643W        W81628  30.405  17.618   4.074
16644W        W81629   5.346  37.936   0.532
16645W        W81630  34.396  38.286  12.455
16646W        W81631  35.106  19.995   4.266
16647W        W81632  38.261  21.109  14.665
16648W        W81633  41.471  15.497   4.560
16649W        W81634  37.070  29.596   1.731
16650W        W81635  25.492  27.844   3.622
16651W        W81636  42.250  38.380  12.522
16652W        W81637  28.895   8.937  11.818
16653W        W81638  24.954  33.424  14.329
16654W        W81639  14.538  11.074  12.569
16655W        W81640  28.966  14.374   1.686
16656W        W81641  22.691  21.917  14.758
16657W        W81642   8.474   5.566  12.945
16658W        W81643   8.730  37.354  10.606
16659W        W81644  20.544  12.237  11.500
16660W        W81645  37.849  41.393   3.060
16661W        W81646  20.209  34.044   3.132
16662W        W81647  23.497   1.429   1.210
16663W        W81648  13.612  38.945  13.117
16664W        W81649  12.505  24.508   4.544
16665W        W81650  26.275  41.877  12.997
16666W        W81651  16.277  23.675   3.091
16667W        W81652  39.512  23.693   2.678
16668W        W81653  10.236  44.563  12.920
16669W        W81654  12.517  27.549   5.306
16670W        W81655   9.775  19.909  13.814
16671W        W81656  38.129  35.018   2.821
16672W        W81657  39.018  10.212  13.844
16673W        W81658  20.633  14.986  12.549
16674W        W81659   9.066  43.412  12.411
16675W        W81660  12.137  32.448   3.154
16676W        W81661   4.389  35.133  13.929
16677W        W81662  28.042   7.366   3.129
16678W        W81663  40.003   9.713   3.371
16679W        W81664  21.376  42.968   3.150
16680W        W81665   1.232  16.554  13.372
16681W        W81666   0.048  44.033  14.041
16682W        W81667  19.852  44.859   1.392
16683W        W81668  37.061   1.464  13.571
16684W        W81669   7.398   2.276  10.275
16685W        W81670  44.039   0.944  11.615
16686W        W81671  40.259  18.285  12.936
16687W        W81672   3.562  40.349   3.137
16688W        W81673  36.112   3.483  14.792
16689W        W81674  32.118  36.474   4.025
16690W        W81675  21.730  38.151  13.600
16691W        W81676  42.018  22.186  11.520
16692W        W81677  10.177  31.896  14.407
16693W        W81678  42.930  19.860  14.574
16694W        W81679  28.213   4.414  14.500
16695W        W81680  31.539  33.104   1.894
16696W        W81681  24.053  34.888  12.979
16697W        W81682  37.366  31.528   4.253
16698W        W81683   7.309  32.473   3.877
16699W        W81684  12.794  27.002  10.697
16700W        W81685  37.922  34.956   0.385
16701W        W81686  34.007  22.649   1.912
16702W        W81687  38.029   3.385   3.029
16703W        W81688  29.918  39.368  13.860
16704W        W81689  35.282  16.251   4.342
16705W        W81690  35.451  36.939  11.624
16706W        W81691  20.361  39.522   1.561
16707W        W81692   7.590  12.245  13.960
16708W        W81693  12.035  39.956  14.771
16709W        W81694  24.101   1.200  10.237
16710W        W81695  29.252  34.913  14.827
16711W        W81696  39.244   9.386   3.018
16712W        W81697  23.760  36.840  12.919
16713W        W81698  26.743  35.356  11.075
16714W        W81699  31.848  34.858  13.519
16715W        W81700  44.409   5.326   3.877
16716W        W81701  20.143  31.603   1.893
16717W        W81702  17.359   0.257   1.372
16718W        W81703  33.811  30.866  13.928
16719W        W81704   1.001  33.799   2.134
16720W        W81705   2.174  19.048   1.488
16721W        W81706  39.418   0.485  13.404
16722W        W81707  41.375  42.124   4.489
16723W        W81708  19.591  18.402   3.666
16724W        W81709  37.434  34.982   4.541
16725W        W81710  29.707  24.082   4.470
16726W        W81711  39.858  12.588  12.488
16727W        W81712  19.716  16.167   1.326
16728W        W81713  41.496   3.401   4.528
16729W        W81714   5.126  24.391   3.303
16730W        W81715   9.972  35.335   0.317
16731W        W81716  19.187  42.015   1.121
16732W        W81717  36.926   2.956  13.425
16733W        W81718  39.385  29.947   2.566
16734W        W81719  24.000  17.242  12.905
16735W        W81720  44.279   1.610  13.414
16736W        W81721  21.065  36.507  13.830
16737W        W81722  10.965  37.443   0.474
16738W        W81723  44.611  34.136   2.892
16739W        W81724  43.224  14.175   0.387
16740W        W81725  10.052  14.279   1.490
16741W        W81726  23.909  20.006  13.234
16742W        W81727  39.924   6.877  11.298
16743W        W81728  21.646   5.799  12.107
16744W        W81729  41.577  10.706   2.315
16745W        W81730  29.990   7.703   3.341
16746W        W81731  38.359  19.685   0.340
16747W        W81732  44.849  34.147  13.841
16748W        W81733  42.722   1.637   1.445
16749W        W81734  23.239  34.013   0.408
16750W        W81735  29.524   9.923   4.826
16751W        W81736  34.535  33.529   1.167
16752W        W81737  20.084  34.164  12.633
16753W        W81738  12.681  28.038  12.371
16754W        W81739  31.235  29.486   4.528
16755W        W81740  39.469  32.874   3.622
16756W        W81741  44.575  19.214   2.887
16757W        W81742   5.404  33.171  13.603
16758W        W81743  34.788  29.025  11.626
16759W        W81744  35.090   8.969  13.358
16760W        W81745   8.977   7.151   1.908
16761W        W81746  21.303   9.671   0.753
16762W        W81747  40.811   2.316   4.175
16763W        W81748  31.245  33.921  12.236
16764W        W81749  35.170  27.165   1.821
16765W        W81750  18.087  43.287  11.990
16766W        W81751  21.552  32.493  12.628
16767W        W81752  21.737  29.094  14.981
16768W        W81753  39.506   0.949  12.039
16769W        W81754  18.710   4.286   4.469
16770W        W81755  25.691  44.118  10.916
16771W        W81756  36.143  42.272   0.758
16772W        W81757  24.957  38.022   0.484
16773W        W81758   5.366   4.306  11.139
16774W        W81759   3.477  36.261  14.822
16775W        W81760  32.836  18.654   2.049
16776W        W81761   3.352  24.247   2.198
16777W        W81762  33.065  34.670   0.269
16778W        W81763  34.959   7.491   0.464
16779W        W81764  25.017  25.088   4.722
16780W        W81765   1.997   4.780   0.939
16781W        W81766   5.879  34.038   2.710
16782W        W81767   1.182   0.005  10.732
16783W        W81768  42.372  12.108  14.884
16784W        W81769  22.078   6.060   1.730
16785W        W81770  21.837  10.792   0.429
16786W        W81771  20.265  13.707   0.790
16787W        W81772   8.736  40.760   3.073
16788W        W81773  19.268   4.979   3.781
16789W        W81774  20.060   2.216  12.999
16790W        W81775  34.346   0.396  12.890
16791W        W81776  28.086  10.304   3.802
16792W        W81777  37.482  35.262   0.332
16793W        W81778   1.494  35.535  11.873
16794W        W81779  34.478  11.879   0.905
16795W        W81780  21.061  14.587  13.460
16796W        W81781  35.924  37.100  12.940
16797W        W81782   0.361  24.827  13.159
16798W        W81783  25.728  24.754  12.079
16799W        W81784  16.032  11.433   2.816
16800W        W81785  40.116  10.682  14.371
16801W        W81786  42.586   2.421  14.947
16802W        W81787  11.405  23.569   4.099
16803W        W81788  10.515   7.394   0.795
16804W        W81789  25.624  18.904  11.522
16805W        W81790   7.892  17.580  13.783
16806W        W81791  11.786  39.859   0.958
16807W        W81792   7.578  28.693   0.975
16808W        W81793  30.043   2.344  11.724
16809W        W81794  31.187  26.839   9.946
16810W        W81795  19.184  36.584  13.059
16811W        W81796  29.822   4.733  14.978
16812W        W81797  17.353  14.772   1.406
16813W        W81798  37.962  22.397  13.343
16814W        W81799   8.865  27.921   0.185
16815W        W81800  22.244  25.427   1.254
16816W        W81801  34.605  27.189  11.515
16817W        W81802  24.523  32.875   0.968
16818W        W81803  20.699  17.309  12.211
16819W        W81804  13.851  37.498  13.904
16820W        W81805  11.687  14.303  11.385
16821W        W81806  25.607  33.394  14.892
16822W        W81807  19.488  27.510   3.752
16823W        W81808  20.484  38.113   4.108
16824W        W81809   2.749   0.501   1.677
16825W        W81810  27.259  25.912  11.128
16826W        W81811   5.758  41.426  13.309
16827W        W81812   0.671  24.675  13.549
16828W        W81813  18.336  27.368  10.235
16829W        W81814  17.800  14.712  14.932
16830W        W81815   3.900  38.742  12.156
16831W        W81816  16.141  33.021  11.149
16832W        W81817  29.332   9.201  13.691
16833W        W81818   5.812  31.191  13.847
16834W        W81819  32.854  18.093   3.703
16835W        W81820  18.208   4.878  12.526
16836W        W81821  15.904  15.239  12.826
16837W        W81822  44.489  29.540  13.423
16838W        W81823   2.778  44.346   4.897
16839W        W81824   9.840  27.187   4.674
16840W        W81825  37.047  41.027   3.012
16841W        W81826  43.979  30.080  12.161
16842W        W81827  27.363  28.986   4.514
16843W        W81828  28.102  35.122   3.733
16844W        W81829  28.011  12.632   2.604
16845W        W81830  20.539  20.983   0.501
16846W        W81831   2.579  17.012   1.843
16847W        W81832  31.141  19.718   0.700
16848W        W81833  31.275  23.257   0.303
16849W        W81834  41.790  32.012  14.444
16850W        W81835   5.834   9.711  11.411
16851W        W81836  13.951  36.362  14.867
16852W        W81837   5.888   3.209   2.687
16853W        W81838   6.594   7.331  14.345
16854W        W81839  43.952  23.574   2.206
16855W        W81840  24.932   2.260   2.938
16856W        W81841  37.528   6.198  12.951
16857W        W81842   4.891  10.519   3.282
16858W        W81843  12.948  32.139   4.980
16859W        W81844  12.095   2.538   3.360
16860W        W81845  40.976   5.227  13.940
16861W        W81846  43.638  17.159  12.915
16862W        W81847  21.585   2.460   0.471
16863W        W81848  19.505  37.552  12.249
16864W        W81849  40.399  20.660   4.499
16865W        W81850  13.406  10.951   1.171
16866W        W81851  30.266  25.101  11.501
16867W        W81852   6.293  40.064   4.195
16868W        W81853  44.290  36.250   4.519
16869W        W81854  43.978  19.730   3.901
16870W        W81855   7.435  39.823   0.395
16871W        W81856  10.584  35.377  11.671
16872W        W81857  27.852   0.792  14.153
16873W        W81858   0.916  39.818   0.872
16874W        W81859  34.360  19.701  10.531
16875W        W81860  41.895  42.725   2.618
16876W        W81861  35.380  34.690  14.578
16877W        W81862  34.071  42.371  13.138
16878W        W81863  11.787  29.208  10.326
16879W        W81864   2.597  30.186   0.462
16880W        W81865   3.362  37.476   5.177
16881W        W81866  37.489  38.471  13.226
16882W        W81867  33.710  22.185   3.949
16883W        W81868  24.641  10.390  13.577
16884W        W81869  15.090   8.212  14.382
16885W        W81870  33.587  19.963  13.792
16886W        W81871  27.645  44.310  13.181
16887W        W81872  22.004  21.039  13.769
16888W        W81873   4.516   3.464   2.242
16889W        W81874  14.287  42.004   0.866
16890W        W81875  41.862  17.187  13.935
16891W        W81876  35.882   2.276  12.864
16892W        W81877  44.255  35.983   0.879
16893W        W81878  28.187  11.802   3.619
16894W        W81879  40.449  10.952  11.237
16895W        W81880  11.581  13.948  10.415
16896W        W81881   6.304  43.129  12.885
16897W        W81882  39.397   2.962  13.573
16898W        W81883  38.032  33.127   1.040
16899W        W81884  36.067  15.384   3.362
16900W        W81885  36.643   5.246  11.644
16901W        W81886  32.917  42.832  13.464
16902W        W81887  25.897  26.518   2.784
16903W        W81888  17.112   1.049   4.323
16904W        W81889  17.822  35.839  10.393
16905W        W81890  28.864  31.623   3.027
16906W        W81891   0.121   1.972   1.039
16907W        W81892  16.681  35.039  14.735
16908W        W81893  30.003  40.633  12.127
16909W        W81894  14.612  10.252   4.580
16910W        W81895  28.900  27.581   2.910
16911W        W81896  40.820  32.860   2.821
16912W        W81897  22.144  37.324   4.574
16913W        W81898  21.184  13.585  13.248
16914W        W81899  33.633  17.515   4.628
16915W        W81900  25.924  30.859  12.532
16916W        W81901   4.207  44.905  13.332
16917W        W81902   8.354  30.984  11.723
16918W        W81903   9.243  21.023   1.683
16919W        W81904   3.952  34.857   2.252
16920W        W81905  28.172  34.291   0.868
16921W        W81906  22.073  28.253  14.878
16922W        W81907  44.846  26.600   0.439
16923W        W81908  20.602   9.170   3.343
16924W        W81909  16.378   2.286   2.824
16925W        W81910  39.587  37.172  14.744
16926W        W81911  20.821   7.495   5.105
16927W        W81912   4.058   9.905   4.104
16928W        W81913  23.421  24.578   1.750
16929W        W81914  32.384  21.520  13.909
16930W        W81915  32.649  31.896  13.452
16931W        W81916  25.653  34.854   0.786
16932W        W81917  34.073  20.793   2.509
16933W        W81918  18.205  22.973  14.444
16934W        W81919  18.733  18.225  13.020
16935W        W81920  37.298  13.402  11.966
16936W        W81921  40.508  34.434   0.458
16937W        W81922  20.072  16.810   0.769
16938W        W81923  40.266  26.403  13.837
16939W        W81924  33.618   6.426   0.903
16940W        W81925  39.042  32.439  11.616
16941W        W81926  35.730  35.117  13.758
16942W        W81927  36.455  18.257  11.868
16943W        W81928  22.853  13.260  14.792
16944W        W81929  18.784  24.206   1.666
16945W        W81930  28.896  31.533  13.087
16946W        W81931  11.125  33.567   1.436
16947W        W81932  42.737   6.119   5.014
16948W        W81933   9.542  28.688   4.530
16949W        W81934  30.464  35.591  11.003
16950W        W81935  21.128  24.575  14.036
16951W        W81936  43.281  30.506  10.652
16952W        W81937  33.498   1.431   0.020
16953W        W81938  40.717  32.836   4.400
16954W        W81939   0.288   0.188  12.231
16955W        W81940  31.474  31.614  13.581
16956W        W81941  13.700  14.681  11.689
16957W        W81942   7.642  20.764   3.238
16958W        W81943  15.305  41.553   4.395
16959W        W81944  12.186   6.908   3.289
16960W        W81945  23.982  31.556  12.391
16961W        W81946  40.334  44.444  12.350
16962W        W81947  22.676   4.657  12.084
16963W        W81948  28.649  28.911  10.648
16964W        W81949  36.341  37.849  11.459
16965W        W81950  25.090  19.562  12.579
16966W        W81951   6.368   0.422  10.977
16967W        W81952  44.062  37.775  13.367
16968W        W81953  17.054  35.097   3.233
16969W        W81954  36.542  38.995   2.153
16970W        W81955  34.657   2.345   0.716
16971W        W81956  39.635   2.181   3.747
16972W        W81957   3.429  40.797  14.377
16973W        W81958  27.192   7.949  13.896
16974W        W81959  35.714  42.779   0.620
16975W        W81960  33.408  40.285  12.133
16976W        W81961   8.865  41.049   0.981
16977W        W81962  19.292  29.869  10.968
16978W        W81963  39.443  44.490  10.982
16979W        W81964  43.545  41.759  14.538
16980W        W81965  11.202  27.185   0.470
16981W        W81966  27.479   5.869  13.911
16982W        W81967  30.003  40.770   2.878
16983W        W81968  17.541  28.045   3.241
16984W        W81969   4.225  23.205   0.542
16985W        W81970  29.598  42.100  13.394
16986W        W81971   1.876  22.390   3.354
16987W        W81972   9.995  18.781   1.823
16988W        W81973  36.125  39.759   4.550
16989W        W81974  32.875  35.818   4.071
16990W        W81975  33.856   2.257  11.687
16991W        W81976   0.730  35.594  11.697
16992W        W81977  12.600  31.363   1.808
16993W        W81978  26.223  20.006  14.938
16994W        W81979  19.817  30.433  12.031
16995W        W81980  31.934  14.401   2.284
16996W        W81981  44.862   3.638   2.717
16997W        W81982  20.240  27.516   3.237
16998W        W81983  36.636  41.317   1.092
16999W        W81984   3.960   9.705   4.571
17000W        W81985  25.233  42.340  14.334
17001W        W81986  27.905  37.087   0.762
17002W        W81987   5.430  41.986   2.845
17003W        W81988  31.103  18.516   1.431
17004W        W81989  17.345  38.624  13.463
17005W        W81990   8.685  36.156   3.759
17006W        W81991  19.628  18.043   1.778
17007W        W81992  32.012  23.742   1.330
17008W        W81993  34.070  17.214   2.907
17009W        W81994  12.560  26.520   2.420
17010W        W81995   1.417   0.489  13.278
17011W        W81996  40.847  13.770   9.808
17012W        W81997  10.830  23.065   0.813
17013W        W81998  19.356   5.485   3.763
17014W        W81999  44.767  29.609   3.758
17015W        W82000  23.771   7.505  11.159
17016W        W82001  43.171  32.195  14.398
17017W        W82002   2.351  33.462  12.190
17018W        W82003   2.501  38.375  12.955
17019W        W82004  30.036  34.655  13.388
17020W        W82005   2.065  43.866   4.630
17021W        W82006  25.900  20.814  14.315
17022W        W82007  21.599  28.865  14.522
17023W        W82008   9.332  24.225  12.083
17024W        W82009  25.589  28.653  14.839
17025W        W82010   6.012  23.584   3.769
17026W        W82011  23.558  39.326   1.926
17027W        W82012   2.323  25.948  12.564
17028W        W82013  30.293  33.661   3.835
17029W        W82014  25.173  15.057  10.970
17030W        W82015  14.446  31.896   3.560
17031W        W82016  29.118  41.450  13.805
17032W        W82017  14.672  33.435   1.786
17033W        W82018   9.279  24.124   4.885
17034W        W82019  31.184  26.380   2.612
17035W        W82020  38.604   5.254   4.613
17036W        W82021  20.101   0.011   1.818
17037W        W82022  30.605  22.983   4.342
17038W        W82023  32.971  23.194   0.758
17039W        W82024  10.088  11.366   3.584
17040W        W82025  31.943  41.841   3.082
17041W        W82026  15.086   9.332   1.757
17042W        W82027  17.505  15.055  11.116
17043W        W82028   0.351  27.483   1.445
17044W        W82029  19.223   8.395  14.559
17045W        W82030  18.096  15.107   4.220
17046W        W82031   4.687  29.445   2.357
17047W        W82032  21.774  18.628   4.063
17048W        W82033  21.701  25.581   4.235
17049W        W82034  42.583   9.490  11.894
17050W        W82035  33.108  12.418  11.011
17051W        W82036  25.048  14.051   2.663
17052W        W82037  39.462  41.583   0.450
17053W        W82038  25.588  40.094   2.768
17054W        W82039   3.537  34.958  10.787
17055W        W82040  32.017   8.247  10.988
17056W        W82041  42.373   5.594  13.662
17057W        W82042  22.906  35.981  12.598
17058W        W82043  18.548   2.205   2.787
17059W        W82044  31.973  40.494   3.605
17060W        W82045  34.618  30.273  12.955
17061W        W82046  11.621   6.485   2.246
17062W        W82047  42.877  13.566   1.919
17063W        W82048  20.330  25.112   1.108
17064W        W82049   2.781   9.749   2.766
17065W        W82050  32.937  35.318   2.646
17066W        W82051   0.309  42.264   4.529
17067W        W82052  35.932   3.957   0.631
17068W        W82053  32.907  20.669   5.022
17069W        W82054  24.143  25.407   2.868
17070W        W82055  23.189  35.176  11.102
17071W        W82056   8.173  26.630  14.041
17072W        W82057   0.511   4.248  11.612
17073W        W82058  41.453  43.683  14.398
17074W        W82059  27.022  10.951  12.405
17075W        W82060  33.714  36.376  12.840
17076W        W82061  34.732  14.106  10.071
17077W        W82062  10.422  27.051   3.535
17078W        W82063  44.282  38.916  14.572
17079W        W82064  28.399  16.077  12.669
17080W        W82065  34.024  13.795  14.233
17081W        W82066  30.786  34.907   3.264
17082W        W82067   5.364  30.860   3.934
17083W        W82068  21.867  12.184  14.372
17084W        W82069   0.750   5.002  11.140
17085W        W82070  35.495  43.644  11.666
17086W        W82071  39.955   3.856   0.262
17087W        W82072   2.277  26.460  11.224
17088W        W82073  44.047  30.286   2.487
17089W        W82074  30.429   9.835   0.463
17090W        W82075  34.046  26.159   2.672
17091W        W82076   0.272  32.145   0.619
17092W        W82077  40.005   1.751  10.360
17093W        W82078  14.249  10.583   4.193
17094W        W82079  28.266  15.855  13.456
17095W        W82080  43.927  26.121  14.506
17096W        W82081  20.301  33.414  12.095
17097W        W82082   3.474  33.697  10.968
17098W        W82083  40.855  35.377   3.182
17099W        W82084  13.912  43.248  14.836
17100W        W82085   3.795   3.819   2.742
17101W        W82086  42.738  44.824  13.993
17102W        W82087  10.215  13.613  12.904
17103W        W82088   1.060  38.523  12.000
17104W        W82089  37.266  18.289   4.345
17105W        W82090  43.468  12.123   3.223
17106W        W82091   2.858  21.294  11.971
17107W        W82092  33.382  23.608  12.983
17108W        W82093  38.016  30.256   0.443
17109W        W82094   8.692  15.717   1.396
17110W        W82095   9.402  27.573  13.842
17111W        W82096   8.438  36.598  14.002
17112W        W82097  41.074  33.612   0.279
17113W        W82098  18.175  30.364   0.892
17114W        W82099  17.541   9.138  12.228
17115W        W82100  17.668   0.578  10.647
17116W        W82101   5.438  38.539   1.373
17117W        W82102  17.418  25.366  14.336
17118W        W82103  19.540  15.189  12.891
17119W        W82104  37.790   6.265  13.380
17120W        W82105  32.224  19.809   2.357
17121W        W82106   4.392  30.770   1.436
17122W        W82107   3.846   6.119   4.547
17123W        W82108  19.973  34.496   3.989
17124W        W82109   9.782  42.857  12.923
17125W        W82110  32.571  13.734  13.932
17126W        W82111  37.032   0.770   4.170
17127W        W82112  31.509  33.984  11.014
17128W        W82113  25.437   1.805  12.638
17129W        W82114   8.016  34.892  11.107
17130W        W82115  41.447  40.729   1.866
17131W        W82116  22.672   4.955  12.496
17132W        W82117  21.283  27.360   2.176
17133W        W82118   1.826  10.713   0.786
17134W        W82119  17.268  37.086  11.619
17135W        W82120  19.047  39.771  13.416
17136W        W82121  22.971   4.569   2.480
17137W        W82122  39.357  26.747  10.130
17138W        W82123  29.333  15.779  12.546
17139W        W82124  20.391  22.169   5.027
17140W        W82125  15.654  28.439  13.165
17141W        W82126   3.204   2.444  12.117
17142W        W82127  43.416  30.587   2.252
17143W        W82128  27.951  11.169  14.787
17144W        W82129  27.681  26.738  10.727
17145W        W82130  44.195  44.341  14.038
17146W        W82131  35.486   8.702  14.262
17147W        W82132   7.903   8.048  10.277
17148W        W82133   1.916  36.897   4.717
17149W        W82134   3.376  26.870  13.892
17150W        W82135  23.071   3.034   3.387
17151W        W82136  21.882  40.996  13.827
17152W        W82137  26.986  24.558   0.312
17153W        W82138  43.179  39.932  13.691
17154W        W82139  43.381  31.428   2.761
17155W        W82140  35.866   8.354  14.293
17156W        W82141  33.094  13.346   4.711
17157W        W82142  28.771  28.572   0.139
17158W        W82143  34.852  12.349  14.053
17159W        W82144  39.526  14.856  13.556
17160W        W82145   7.143  38.672  14.789
17161W        W82146  21.614  40.151   4.553
17162W        W82147   4.474  28.355   1.630
17163W        W82148   8.110  44.133  10.890
17164W        W82149  19.290   1.486  14.954
17165W        W82150  42.890  12.027   2.725
17166W        W82151  22.877  24.640  14.768
17167W        W82152  39.493  33.580  12.914
17168W        W82153  31.168  37.567  11.685
17169W        W82154   0.390  24.477   0.169
17170W        W82155  36.154   6.494  13.992
17171W        W82156  13.376  28.629   0.270
17172W        W82157  36.924  25.999  14.188
17173W        W82158  44.390   4.779  13.574
17174W        W82159  18.230  26.087   2.338
17175W        W82160  22.887  22.372  13.038
17176W        W82161  26.804  18.094   3.315
17177W        W82162  20.322  19.535   1.389
17178W        W82163  32.088  20.532  10.965
17179W        W82164  40.650  21.131   4.481
17180W        W82165  27.215  26.638   5.089
17181W        W82166  30.822  23.207  10.651
17182W        W82167  14.940  18.414  13.539
17183W        W82168  20.873  22.023  12.735
17184W        W82169  32.032  42.996  12.002
17185W        W82170   2.714  15.543   4.536
17186W        W82171  36.626   8.721   1.283
17187W        W82172  12.448  37.493   0.268
17188W        W82173  12.245  13.177  11.406
17189W        W82174  39.501  28.606   1.351
17190W        W82175  31.549   7.105   0.787
17191W        W82176  37.057  32.601   1.846
17192W        W82177  17.224  32.042  11.840
17193W        W82178  44.273  30.924  13.778
17194W        W82179  43.326  36.552   3.164
17195W        W82180  38.133   8.762   0.069
17196W        W82181   5.741  10.108   2.302
17197W        W82182   7.188  24.299  14.832
17198W        W82183  16.740  26.340   5.153
17199W        W82184  22.517   7.901   4.109
17200W        W82185   3.660   4.358   9.904
17201W        W82186  27.342  21.481   3.300
17202W        W82187  10.743  24.270  14.337
17203W        W82188  34.945  20.099   2.419
17204W        W82189   1.433  30.456  10.644
17205W        W82190  12.013  39.171   4.228
17206W        W82191  34.112  12.921   1.701
17207W        W82192  33.109   4.370  13.920
17208W        W82193  17.147   7.224   0.457
17209W        W82194  22.918  34.702  13.545
17210W        W82195  38.946  10.089   0.940
17211W        W82196  19.285  29.363  10.860
17212W        W82197  38.136  18.511  14.970
17213W        W82198  34.561   9.074   1.268
17214W        W82199  30.215  10.372   1.310
17215W        W82200  36.774  37.547   2.621
17216W        W82201   3.351   6.564   0.592
17217W        W82202  32.678  24.621  14.385
17218W        W82203  38.987  27.559  11.396
17219W        W82204   4.714   9.224  13.322
17220W        W82205  15.962   7.362  14.834
17221W        W82206   8.321  32.424  13.168
17222W        W82207  22.491  20.108  12.249
17223W        W82208  17.358  27.441  12.087
17224W        W82209  40.641  35.282  13.506
17225W        W82210  37.304  43.046  14.941
17226W        W82211  11.076  10.439  14.188
17227W        W82212  35.183  20.656  12.529
17228W        W82213  18.864   7.805   1.816
17229W        W82214  22.107  33.157   0.430
17230W        W82215  10.405  21.244   4.127
17231W        W82216  31.068  38.184   0.817
17232W        W82217  25.476   5.870  11.133
17233W        W82218   4.933   8.751  14.633
17234W        W82219  27.738  37.454  11.923
17235W        W82220   4.208  14.315   5.117
17236W        W82221  34.635  12.419  11.515
17237W        W82222  21.657  17.334  12.075
17238W        W82223  22.582   2.824  12.464
17239W        W82224  36.869  24.113   0.021
17240W        W82225  24.728  29.876   3.515
17241W        W82226  12.239  15.909  14.718
17242W        W82227  24.487   8.500  12.351
17243W        W82228  44.970   0.716   1.011
17244W        W82229  11.291   8.132   4.025
17245W        W82230  14.769  20.285   4.229
17246W        W82231   1.178  44.174   2.286
17247W        W82232  10.343  33.371  14.024
17248W        W82233  24.669  41.507   0.937
17249W        W82234   0.053  34.874  10.685
17250W        W82235  28.304  41.299   1.206
17251W        W82236   0.797  34.324  11.124
17252W        W82237  10.557  26.535   0.433
17253W        W82238  33.613  20.102   2.103
17254W        W82239  24.674  16.189   2.357
17255W        W82240  36.997  20.632  11.125
17256W        W82241  14.285  15.676   1.840
17257W        W82242  34.646  21.531  12.100
17258W        W82243  35.612  40.806   3.327
17259W        W82244  42.803  17.074   2.618
17260W        W82245   4.737   3.428   4.551
17261W        W82246  37.591  29.891  14.509
17262W        W82247  21.867   7.902   4.707
17263W        W82248   5.873  24.741  14.565
17264W        W82249   1.779  19.262  10.948
17265W        W82250  26.150   5.874   1.665
17266W        W82251  21.813  18.237  14.796
17267W        W82252  35.283  14.604   4.297
17268W        W82253  30.038   5.909  14.852
17269W        W82254   8.977  25.271  14.136
17270W        W82255  23.654  32.546   1.385
17271W        W82256  32.311  24.553   1.230
17272W        W82257  21.657  15.293   3.270
17273W        W82258  17.181  37.927  12.040
17274W        W82259   2.018  43.380   0.300
17275W        W82260  11.193  38.683  11.975
17276W        W82261  10.365  41.444  12.639
17277W        W82262  22.914  22.631   2.814
17278W        W82263  10.753  13.084   0.892
17279W        W82264  39.570  24.959  11.970
17280W        W82265  25.746  31.253  12.847
17281W        W82266  32.310  31.170  12.002
17282W        W82267  13.604  12.294   3.830
17283W        W82268  42.417  24.091   4.857
17284W        W82269  23.736  29.179   4.126
17285W        W82270  17.818   9.056  13.502
17286W        W82271  14.226   6.451  14.277
17287W        W82272  27.485  20.107   0.319
17288W        W82273  13.507   5.677   3.811
17289W        W82274   4.422  31.885  14.424
17290W        W82275  44.964  25.311  10.674
17291W        W82276  36.067  29.406  12.991
17292W        W82277  37.704  11.101  14.667
17293W        W82278  18.199   9.785  10.806
17294W        W82279  14.888  27.107   0.769
17295W        W82280  21.519  23.465  11.649
17296W        W82281  40.821  26.774  10.630
17297W        W82282   1.870  43.521  12.625
17298W        W82283  32.686  19.638  13.678
17299W        W82284  28.446  13.855  14.887
17300W        W82285   7.717  10.570  13.406
17301W        W82286  33.140  33.981   2.596
17302W        W82287  10.142  43.132   3.281
17303W        W82288   6.196   0.857  10.737
17304W        W82289  21.559   1.654  12.886
17305W        W82290   2.939  33.967   4.016
17306W        W82291  34.999   5.472  12.351
17307W        W82292  20.816   7.615  14.310
17308W        W82293  41.612  30.564  11.913
17309W        W82294   2.937  35.311   3.688
17310W        W82295  40.029   0.184  11.579
17311W        W82296  17.333  22.187   1.840
17312W        W82297  31.602  39.858   2.837
17313W        W82298  24.946   7.405  13.132
17314W        W82299  41.482  42.989   3.166
17315W        W82300  35.565  38.613  13.447
17316W        W82301  16.335   4.831  13.424
17317W        W82302  35.560  19.880   0.932
17318W        W82303  10.604  34.810   3.521
17319W        W82304   9.707  44.436   2.683
17320W        W82305  18.821  29.940  11.151
17321W        W82306  39.756  37.077   4.429
17322W        W82307  26.688  31.382  11.131
17323W        W82308  15.053   1.432  11.131
17324W        W82309  40.106  31.427  12.453
17325W        W82310  43.003  26.945  10.825
17326W        W82311   8.307  26.399  12.922
17327W        W82312  34.373  19.350  14.459
17328W        W82313   6.201  38.920  12.004
17329W        W82314   8.493  35.509  13.810
17330W        W82315  29.144  31.596  11.665
17331W        W82316  16.573  38.424  11.631
17332W        W82317  29.551  25.756   2.374
17333W        W82318  17.149  17.537   2.121
17334W        W82319  30.290  28.138  11.200
17335W        W82320  33.598  37.441   3.165
17336W        W82321  30.582   3.186   4.657
17337W        W82322  40.578  36.533  14.837
17338W        W82323  32.709  10.365  14.703
17339W        W82324   1.371  18.082   4.889
17340W        W82325  44.043   0.425  11.648
17341W        W82326  18.608  11.060   1.407
17342W        W82327   5.939  44.080   3.855
17343W        W82328  27.898  44.855  11.617
17344W        W82329  33.184  37.490   0.547
17345W        W82330   4.397  10.260   0.723
17346W        W82331  43.642  17.820   5.433
17347W        W82332   6.568  27.639  10.816
17348W        W82333  40.099  24.599   3.870
17349W        W82334   7.810  27.700  13.233
17350W        W82335  43.449  18.128   1.887
17351W        W82336  43.749  28.214   3.297
17352W        W82337  20.603  26.066   4.595
17353W        W82338  11.174   8.150  10.783
17354W        W82339  28.459   9.201   2.609
17355W        W82340  33.361  37.280  13.837
17356W        W82341   9.861  44.896   2.900
17357W        W82342  42.931  33.084   1.044
17358W        W82343   3.306  44.492  10.498
17359W        W82344  36.960  42.153  12.789
17360W        W82345  33.774  15.631   4.824
17361W        W82346   1.458  15.123  11.138
17362W        W82347  13.772   2.676  10.892
17363W        W82348  14.537  37.622  14.629
17364W        W82349   9.700  32.566   4.771
17365W        W82350  38.524   2.019  13.366
17366W        W82351  15.833  24.687  11.159
17367W        W82352  32.209   2.940  14.866
17368W        W82353  40.975  42.819  12.285
17369W        W82354  32.530  42.816   2.442
17370W        W82355  39.328   1.389  14.217
17371W        W82356  31.849  28.263  12.852
17372W        W82357  17.224  18.538  12.478
17373W        W82358  27.568  19.447   1.851
17374W        W82359  13.760   5.782   5.203
17375W        W82360  12.035  26.942  12.486
17376W        W82361  20.187  43.547   3.186
17377W        W82362  11.833  43.271   3.114
17378W        W82363   1.149   8.164   1.845
17379W        W82364  34.838  38.088  11.632
17380W        W82365  16.595  28.596  11.712
17381W        W82366  27.661  23.156   4.813
17382W        W82367  20.320  44.529  12.107
17383W        W82368  43.963  13.250   3.202
17384W        W82369  16.310  21.310   4.123
17385W        W82370  12.046  38.524   3.251
17386W        W82371   7.819   1.460   3.674
17387W        W82372   1.487  41.502   3.187
17388W        W82373  37.905   8.950  13.025
17389W        W82374  34.443  29.400   3.693
17390W        W82375  42.861  40.280   3.131
17391W        W82376  23.697  15.374   3.698
17392W        W82377  12.066  36.000  10.714
17393W        W82378  25.117   9.815  14.892
17394W        W82379  29.597  23.925   3.589
17395W        W82380   3.266   0.724   0.275
17396W        W82381  26.197  44.448   4.324
17397W        W82382   5.653   1.480   4.232
17398W        W82383   8.230  43.439   1.309
17399W        W82384  26.155  42.086   3.592
17400W        W82385  33.439   6.777   4.692
17401W        W82386  30.492  13.422   4.263
17402W        W82387  35.199  24.028  12.569
17403W        W82388  10.612  13.319  13.800
17404W        W82389  33.461  30.306   4.227
17405W        W82390   7.284  39.510   0.828
17406W        W82391  16.303   4.744   0.860
17407W        W82392  15.327   0.987  11.857
17408W        W82393   9.793  16.664  12.388
17409W        W82394  38.833  26.718   3.661
17410W        W82395  10.740  38.823   3.602
17411W        W82396  10.703  22.962   4.426
17412W        W82397  14.530  27.173  12.510
17413W        W82398  29.447   1.307  10.990
17414W        W82399  30.692   9.632   1.130
17415W        W82400  20.696  34.822  13.554
17416W        W82401  25.975  12.855  13.832
17417W        W82402  17.658   6.814  10.363
17418W        W82403  17.235  41.078  12.440
17419W        W82404  34.856   9.193   2.716
17420W        W82405   2.338   0.544   4.356
17421W        W82406  30.685  37.562  10.788
17422W        W82407  19.825  28.950  14.894
17423W        W82408  25.442  33.353  13.554
17424W        W82409  13.327  10.468   0.796
17425W        W82410  24.012  31.134  12.075
17426W        W82411   9.859   2.673   3.089
17427W        W82412  36.149  23.612  14.279
17428W        W82413   7.640  35.683   4.529
17429W        W82414  24.327  29.222  12.230
17430W        W82415   1.669  43.063   2.661
17431W        W82416  12.192  37.815  14.958
17432W        W82417  31.610   4.768   4.583
17433W        W82418  22.189   3.999   2.701
17434W        W82419  18.257   2.583  14.810
17435W        W82420   2.824  13.236  14.289
17436W        W82421  28.299   4.277   1.612
17437W        W82422  26.636  36.290   1.540
17438W        W82423  30.083  31.882   1.794
17439W        W82424   5.841  42.977   2.245
17440W        W82425   7.802  19.783  10.764
17441W        W82426   3.173  28.962   1.625
17442W        W82427  16.905  31.140  13.813
17443W        W82428  18.574  29.015  12.840
17444W        W82429   9.231  41.405  12.211
17445W        W82430  22.945  12.671  12.147
17446W        W82431  20.453  11.194  11.275
17447W        W82432  17.113  31.375  11.521
17448W        W82433  25.271  25.219  14.985
17449W        W82434   6.173  25.541  14.803
17450W        W82435  27.993  35.620   0.496
17451W        W82436  19.214  34.948   4.048
17452W        W82437  35.633   6.646  14.841
17453W        W82438  12.883  14.287   4.630
17454W        W82439  26.563  11.831   3.816
17455W        W82440  13.707   3.945  11.927
17456W        W82441  16.576  12.708   1.858
17457W        W82442  27.441  18.731   2.894
17458W        W82443  22.396  20.448   2.167
17459W        W82444  21.911  40.833   2.625
17460W        W82445  32.132  21.667  13.465
17461W        W82446   0.895   5.207  13.386
17462W        W82447  42.355  12.359   0.365
17463W        W82448   6.468  32.980   2.757
17464W        W82449  22.492  27.068  14.051
17465W        W82450  19.435   5.176   1.753
17466W        W82451   5.281  42.315  14.470
17467W        W82452  34.820  15.736  11.597
17468W        W82453  11.509  11.336  10.518
17469W        W82454  39.820  17.632   1.741
17470W        W82455   2.183  20.349  14.409
17471W        W82456  44.446   4.340  13.030
17472W        W82457   1.472  12.224  13.658
17473W        W82458  34.660  44.579  13.868
17474W        W82459  17.024  38.861  14.011
17475W        W82460  26.677  27.575   0.726
17476W        W82461   8.892  16.776   2.701
17477W        W82462  38.372   9.914   4.164
17478W        W82463   4.463   1.951  12.092
17479W        W82464   4.890  30.608   2.203
17480W        W82465  33.624  11.704   0.553
17481W        W82466   9.449   4.672  13.206
17482W        W82467  24.703   1.308  12.443
17483W        W82468  18.366  30.516   1.363
17484W        W82469  16.846  42.497   0.046
17485W        W82470  18.765   9.192   3.603
17486W        W82471  41.328  38.440   4.069
17487W        W82472  35.996  35.379   3.699
17488W        W82473  20.767  14.673   0.474
17489W        W82474  24.988  22.806  14.954
17490W        W82475  25.833  32.117  12.416
17491W        W82476  28.767  23.991  14.892
17492W        W82477  13.315  39.071  14.316
17493W        W82478  19.623   9.111  11.735
17494W        W82479  20.099  26.801   4.189
17495W        W82480  27.793   1.247  14.857
17496W        W82481  14.581   9.139  11.514
17497W        W82482  29.670  14.856  10.692
17498W        W82483  30.949  10.184   4.195
17499W        W82484  11.374   2.260  13.561
17500W        W82485  33.568  12.842   1.350
17501W        W82486  14.862  25.406   4.103
17502W        W82487  27.105  13.008   2.786
17503W        W82488  15.975  33.962   2.209
17504W        W82489   8.837  30.534   1.508
17505W        W82490  39.463  15.393   0.455
17506W        W82491  29.177  36.917   0.047
17507W        W82492  20.183  29.906   0.498
17508W        W82493  37.908  34.762   4.631
17509W        W82494  42.005  15.717  10.680
17510W        W82495  14.756  17.521  12.455
17511W        W82496   1.571  39.885   1.411
17512W        W82497  20.362   4.434   3.732
17513W        W82498   0.779  15.138   3.270
17514W        W82499  27.566  34.203  12.122
17515W        W82500  14.841  40.682  13.799
17516W        W82501  14.405  38.766  12.547
17517W        W82502  15.897   1.871   3.909
17518W        W82503  27.578  23.621   0.679
17519W        W82504  38.468  42.189   4.548
17520W        W82505  14.755  12.670  11.619
17521W        W82506   1.819  15.257   0.499
17522W        W82507  30.167   2.886   4.581
17523W        W82508  18.106  13.204  10.556
17524W        W82509  26.630   7.837   3.680
17525W        W82510  13.258   3.039   3.152
17526W        W82511   1.251  26.417   0.935
17527W        W82512  12.814  34.314  11.695
17528W        W82513  41.314  40.443  11.545
17529W        W82514  37.267  11.888   3.221
17530W        W82515   5.852   5.433  12.545
17531W        W82516  22.764   0.006  13.909
17532W        W82517  34.263  15.941  13.138
17533W        W82518  14.354   4.718  14.889
17534W        W82519  43.021  16.516   3.322
17535W        W82520  23.347   2.202   2.618
17536W        W82521  34.571  11.361   0.946
17537W        W82522  33.474  40.050  12.595
17538W        W82523  39.276  14.121  12.180
17539W        W82524   7.143  13.690   4.401
17540W        W82525   8.782  16.523   4.046
17541W        W82526   0.331  10.665   4.571
17542W        W82527   9.142  35.651  14.313
17543W        W82528  35.124  13.703  11.825
17544W        W82529  29.183  25.721   3.518
17545W        W82530  33.451  38.823   0.284
17546W        W82531   5.479  13.360   4.196
17547W        W82532  31.015   5.224  14.784
17548W        W82533  31.194   5.749  10.641
17549W        W82534   6.309  29.478  10.548
17550W        W82535  19.384  34.105  12.940
17551W        W82536  10.347  41.972  12.902
17552W        W82537  38.434   7.271  14.263
17553W        W82538  40.055   5.983  11.076
17554W        W82539  40.978  10.893  10.856
17555W        W82540   7.681  33.755   3.143
17556W        W82541  33.154   3.950   0.257
17557W        W82542  24.029   2.780  11.566
17558W        W82543  44.439  36.299  11.581
17559W        W82544  22.270  11.240  14.106
17560W        W82545   8.394  30.073   4.166
17561W        W82546  28.054  41.583   0.801
17562W        W82547  37.636   3.869  13.388
17563W        W82548  10.924  14.330   1.820
17564W        W82549  42.785  38.837   0.464
17565W        W82550  30.756  33.884   3.819
17566W        W82551  25.717   6.558   4.016
17567W        W82552  16.827  32.687  12.918
17568W        W82553  18.550  38.516  14.917
17569W        W82554  30.417  44.745   2.923
17570W        W82555   1.651  10.701  13.976
17571W        W82556  17.528  13.084   0.420
17572W        W82557  27.475  38.401   1.042
17573W        W82558  14.362  24.617  10.732
17574W        W82559  28.562  42.900   1.938
17575W        W82560  22.550  12.317   0.754
17576W        W82561  13.906  20.081  11.763
17577W        W82562  11.958  10.645   0.127
17578W        W82563  42.280  44.892   2.818
17579W        W82564  33.348  42.135  12.461
17580W        W82565   8.449  23.117  11.941
17581W        W82566  44.337  10.688  10.727
17582W        W82567  39.922  29.420   0.943
17583W        W82568  17.641   3.096   4.538
17584W        W82569   3.462  23.669   0.219
17585W        W82570   4.161  21.260   2.010
17586W        W82571  16.781  34.735   0.360
17587W        W82572  21.941  16.198   1.368
17588W        W82573  28.932  11.636  14.020
17589W        W82574   4.434  11.276  12.912
17590W        W82575  43.086  16.683   2.427
17591W        W82576  18.046  39.598  14.963
17592W        W82577  22.902  31.080   2.101
17593W        W82578  18.293  36.452   2.459
17594W        W82579   7.136   4.435   3.428
17595W        W82580  44.301  20.372   4.490
17596W        W82581  14.362  19.875   0.322
17597W        W82582   1.318  28.497   4.182
17598W        W82583  13.377   2.231  12.920
17599W        W82584  42.867  38.506   0.059
17600W        W82585  24.502  14.100  13.464
17601W        W82586  30.528  31.972  11.094
17602W        W82587  16.125  31.795  14.888
17603W        W82588  41.876  18.262  12.031
17604W        W82589  24.211  38.678  10.308
17605W        W82590  22.076  26.181  12.607
17606W        W82591  10.368  13.772   1.325
17607W        W82592  35.533  23.186   4.168
17608W        W82593  12.393  17.810   3.176
17609W        W82594  13.850  12.643  12.509
17610W        W82595  10.400  29.076   2.106
17611W        W82596  42.453  37.348   0.462
17612W        W82597  36.951  23.670   4.321
17613W        W82598   8.292  35.644  14.803
17614W        W82599  21.314  41.218  12.055
17615W        W82600  27.753  26.058   3.241
17616W        W82601  12.817  24.482   1.898
17617W        W82602  26.703   2.768  14.994
17618W        W82603  33.493  13.948  14.938
17619W        W82604   2.601  29.045   0.927
17620W        W82605  25.591  19.018   1.704
17621W        W82606  15.582   3.708   0.283
17622W        W82607  29.697  11.593  10.232
17623W        W82608  29.958  42.039  12.575
17624W        W82609  15.742   1.249   4.615
17625W        W82610   0.413  37.662   1.007
17626W        W82611  18.991  35.026  10.622
17627W        W82612   8.644  33.677  13.513
17628W        W82613   3.466   5.210  12.498
17629W        W82614  16.215  22.957  12.365
17630W        W82615  16.569  27.326   1.236
17631W        W82616  40.601   0.955   4.634
17632W        W82617  22.911  36.404  12.925
17633W        W82618   7.136  26.478   3.776
17634W        W82619  30.676  39.733  14.014
17635W        W82620  14.600  13.557  11.191
17636W        W82621  35.549  28.301  13.412
17637W        W82622  26.649  41.049   4.665
17638W        W82623   8.659  26.627   3.570
17639W        W82624   6.086  43.223  13.341
17640W        W82625  14.055   5.781  10.124
17641W        W82626  44.871  39.308   2.423
17642W        W82627   6.953  35.041   3.657
17643W        W82628  43.548  36.434   1.249
17644W        W82629   4.438  16.272   3.336
17645W        W82630  23.727  29.098   1.894
17646W        W82631  43.767  24.165  11.085
17647W        W82632  37.192  39.060  10.136
17648W        W82633  37.268  29.527   2.230
17649W        W82634   8.018  35.334   4.675
17650W        W82635  13.156   5.622  12.098
17651W        W82636  14.080  18.244   2.781
17652W        W82637   0.074  20.571   2.483
17653W        W82638  32.071  17.878  13.355
17654W        W82639  12.646  25.598  10.554
17655W        W82640  44.825  30.708   3.069
17656W        W82641  20.203   1.276  14.787
17657W        W82642  39.251   0.791  11.608
17658W        W82643  31.892  36.842   1.403
17659W        W82644  42.561  17.770   1.662
17660W        W82645  14.792  30.065  14.831
17661W        W82646  27.543   7.164   2.363
17662W        W82647  15.742  18.577  13.092
17663W        W82648   4.168   8.824  12.525
17664W        W82649  19.478  27.982  13.043
17665W        W82650  19.113  14.427   0.302
17666W        W82651  20.791   7.620   5.613
17667W        W82652  18.697  40.625   0.045
17668W        W82653  22.832  29.184  13.588
17669W        W82654  39.586  29.126   4.681
17670W        W82655  41.375  27.915  11.462
17671W        W82656   0.274   5.102   4.622
17672W        W82657  23.464  28.988  12.369
17673W        W82658  16.275  26.193   4.932
17674W        W82659   8.744   0.347   0.860
17675W        W82660   2.911  33.530  10.661
17676W        W82661  12.893  18.498   2.212
17677W        W82662  21.119  26.548   1.977
17678W        W82663  17.363  29.081  13.390
17679W        W82664   6.977  15.983  13.986
17680W        W82665   4.371  39.548  13.595
17681W        W82666  31.111  31.367   1.289
17682W        W82667  31.405   2.717  12.386
17683W        W82668  35.193  29.102  13.485
17684W        W82669  11.147  15.960  11.051
17685W        W82670  35.560  32.354  12.129
17686W        W82671  22.175   5.328  12.959
17687W        W82672  21.562  22.532  14.312
17688W        W82673  16.180   1.481   4.729
17689W        W82674   1.252  39.694  12.882
17690W        W82675  33.936  44.417  14.436
17691W        W82676  32.160  38.754  12.571
17692W        W82677  21.217  18.202   9.972
17693W        W82678  42.039  15.138   2.281
17694W        W82679   5.593  20.806   4.327
17695W        W82680  26.222  26.522  11.519
17696W        W82681  23.618   4.707  13.902
17697W        W82682  36.062  20.663   1.739
17698W        W82683  20.784   1.437  14.626
17699W        W82684  12.205  28.547  11.452
17700W        W82685  32.018  22.327  10.626
17701W        W82686  24.280  36.951   4.234
17702W        W82687   3.409  38.732   0.940
17703W        W82688   5.274  36.802  12.887
17704W        W82689  15.918  21.544   3.798
17705W        W82690   3.580   6.782   1.908
17706W        W82691   5.815  22.727  11.145
17707W        W82692   3.197  11.237  14.862
17708W        W82693   3.419  42.006  11.733
17709W        W82694   1.614  31.458  11.071
17710W        W82695  42.525  17.727   2.192
17711W        W82696  39.844  21.637  12.583
17712W        W82697   0.465  20.678   4.935
17713W        W82698   8.636   2.666  14.896
17714W        W82699  12.145  13.118  14.325
17715W        W82700   9.871  43.744   0.866
17716W        W82701  18.718  10.623  10.578
17717W        W82702   4.759  11.471   1.008
17718W        W82703  42.543   0.748   3.674
17719W        W82704  35.458  22.685   0.146
17720W        W82705  19.399   9.809  14.369
17721W        W82706  42.802  39.948  13.344
17722W        W82707  24.049  44.354   2.759
17723W        W82708   1.089   5.982   4.961
17724W        W82709  31.061   2.425  10.425
17725W        W82710  39.372  27.309   0.891
17726W        W82711  24.769  27.000  13.306
17727W        W82712  34.146  11.392  10.764
17728W        W82713  40.571  40.476   1.352
17729W        W82714  42.798   7.266  11.073
17730W        W82715  28.067  18.018  12.878
17731W        W82716  17.387  14.594  12.004
17732W        W82717  44.807  19.220   3.897
17733W        W82718  17.851  31.038  14.900
17734W        W82719  33.468  14.140   2.650
17735W        W82720   1.748  27.373  11.159
17736W        W82721  15.113   1.879  11.835
17737W        W82722   1.204  17.990  10.731
17738W        W82723  28.781  44.508  11.625
17739W        W82724  39.233  30.667  11.611
17740W        W82725  40.770   0.043   2.603
17741W        W82726   7.860  26.894   3.402
17742W        W82727  36.859  15.838  11.529
17743W        W82728  31.637  19.110   2.274
17744W        W82729   6.993   4.179  12.639
17745W        W82730  13.705   0.460  10.820
17746W        W82731  14.334   1.403  14.218
17747W        W82732   1.001  13.600   2.347
17748W        W82733   2.734  18.893   3.735
17749W        W82734  28.464  40.373  14.198
17750W        W82735  36.544  33.899   1.234
17751W        W82736  26.777  37.290   0.799
17752W        W82737  13.990  20.580  12.497
17753W        W82738  36.045  28.489  13.801
17754W        W82739  44.033  17.163  14.417
17755W        W82740   7.285  15.862   4.211
17756W        W82741   0.491  15.423   1.336
17757W        W82742  41.901  43.005   0.541
17758W        W82743   3.770   7.366  10.692
17759W        W82744  15.780   3.498  12.592
17760W        W82745   8.824  23.507   3.411
17761W        W82746  22.630  26.357  14.941
17762W        W82747  30.489  36.354   1.402
17763W        W82748  21.127  17.555  12.321
17764W        W82749  24.128  42.817  11.467
17765W        W82750  11.365  18.368  14.849
17766W        W82751  25.687  30.007  11.669
17767W        W82752  14.049  24.285   2.759
17768W        W82753  28.486  20.202   0.017
17769W        W82754  28.950  34.655  11.366
17770W        W82755  31.712  31.524  14.588
17771W        W82756  30.420   5.653   3.602
17772W        W82757  38.795  30.876   2.719
17773W        W82758  37.434  10.091  14.960
17774W        W82759  35.864  28.961  13.944
17775W        W82760  11.398  27.463  13.818
17776W        W82761   8.922   9.230   2.862
17777W        W82762   1.009  40.810   2.762
17778W        W82763  28.392  38.834  13.350
17779W        W82764  19.008  36.525  10.915
17780W        W82765  25.507  22.452   0.748
17781W        W82766   4.215   4.331   4.746
17782W        W82767  27.905  36.362  13.999
17783W        W82768  41.852  17.820   3.831
17784W        W82769  42.990  44.019   3.283
17785W        W82770   4.176   4.882  14.529
17786W        W82771   3.624  12.570  13.844
17787W        W82772  24.502  10.392  12.008
17788W        W82773  39.332   3.461   4.038
17789W        W82774  22.209  41.396   1.363
17790W        W82775   5.388  12.664  12.963
17791W        W82776  11.819   0.282  12.124
17792W        W82777  31.409  14.209   1.647
17793W        W82778  44.411  16.530   3.155
17794W        W82779  16.181  22.211   2.143
17795W        W82780  44.319  30.533   4.326
17796W        W82781  38.456  40.496  11.183
17797W        W82782  17.585  18.844   1.342
17798W        W82783  27.673  27.703   4.334
17799W        W82784   7.387  16.210  14.910
17800W        W82785  26.014  37.848   0.424
17801W        W82786  29.640  34.224  14.259
17802W        W82787   4.623  16.684  14.811
17803W        W82788  25.522  37.214  11.025
17804W        W82789  42.782  44.585  13.395
17805W        W82790  27.195  30.526   0.268
17806W        W82791  22.108  13.712  14.873
17807W        W82792  25.015  14.555   2.753
17808W        W82793  32.985  38.104   2.064
17809W        W82794  38.615  32.610   1.859
17810W        W82795   6.189   5.199   0.496
17811W        W82796  40.378  14.206   4.068
17812W        W82797  36.401   7.429  14.517
17813W        W82798  42.485  43.520  14.876
17814W        W82799   6.769   1.771  14.297
17815W        W82800   6.344  22.521  14.458
17816W        W82801  10.282  19.290   2.171
17817W        W82802  39.566  21.344   3.681
17818W        W82803  20.333  41.762  10.793
17819W        W82804  41.340   4.181  13.783
17820W        W82805   9.115  36.983  12.869
17821W        W82806  20.740  44.278   4.601
17822W        W82807   3.133  40.895  14.894
17823W        W82808   9.705  13.687  12.888
17824W        W82809  34.751  42.552  12.537
17825W        W82810   9.382  35.334   2.685
17826W        W82811   5.804  44.387  13.996
17827W        W82812  44.998  16.325   1.210
17828W        W82813  24.788   1.449  14.890
17829W        W82814  16.267  26.922   2.779
17830W        W82815  22.488   3.347  12.428
17831W        W82816  29.130  11.212   2.775
17832W        W82817   6.487  40.945  13.327
17833W        W82818  23.221  43.806   4.185
17834W        W82819  38.518   6.819  12.538
17835W        W82820  24.842  31.031  13.994
17836W        W82821  22.716   9.864   1.062
17837W        W82822  36.881   8.360  13.414
17838W        W82823  41.190  39.460  14.032
17839W        W82824  39.947  28.332  13.578
17840W        W82825   2.192  15.333  10.829
17841W        W82826  12.792   4.247  13.813
17842W        W82827  24.125  34.776  11.587
17843W        W82828  43.179   3.999  12.212
17844W        W82829  19.286  18.243  12.930
17845W        W82830  10.335  26.673   9.852
17846W        W82831  44.464  27.210   3.127
17847W        W82832  33.029  35.403   1.005
17848W        W82833  36.513  24.446  14.579
17849W        W82834  39.768  19.608  12.561
17850W        W82835  16.610   7.436  11.955
17851W        W82836  41.441  21.168   4.097
17852W        W82837  42.956  16.044   1.281
17853W        W82838  17.809  38.866   2.137
17854W        W82839  43.915  41.203  11.471
17855W        W82840  16.228  17.704   2.380
17856W        W82841   8.788  41.127  14.652
17857W        W82842  16.726  41.284   0.749
17858W        W82843  14.188  21.305  14.416
17859W        W82844  27.097   0.395   3.143
17860W        W82845  23.190   5.709  11.160
17861W        W82846  38.835  18.994  14.243
17862W        W82847  15.904  21.646   0.287
17863W        W82848   0.038  36.567  14.050
17864W        W82849  43.128  39.625   1.846
17865W        W82850  12.316  31.578  11.195
17866W        W82851   6.893  38.528  11.576
17867W        W82852   2.466  29.122  12.525
17868W        W82853  11.532  13.056   4.069
17869W        W82854  19.224  23.816   3.570
17870W        W82855   6.371  11.858  11.250
17871W        W82856  17.163  22.178  14.577
17872W        W82857  22.498  10.509  10.927
17873W        W82858   3.888  26.249   2.453
17874W        W82859  32.461  16.483  12.487
17875W        W82860  20.618   1.352   4.511
17876W        W82861   8.312  18.405   3.130
17877W        W82862  35.362  39.534  13.583
17878W        W82863  19.809  36.774  14.469
17879W        W82864  32.916  35.196   0.145
17880W        W82865  13.498  35.110  13.116
17881W        W82866  27.958  14.013  14.815
17882W        W82867  28.973  32.529  14.446
17883W        W82868   7.458  34.885  10.854
17884W        W82869  11.245  20.018   3.591
17885W        W82870  13.683  18.644  10.402
17886W        W82871   0.429  29.140   4.597
17887W        W82872  36.022   4.450  10.704
17888W        W82873   3.322  36.006  13.488
17889W        W82874   8.608  38.507   3.637
17890W        W82875  30.412  15.249  14.858
17891W        W82876   4.364  29.639   0.943
17892W        W82877   3.913  38.050  10.524
17893W        W82878  32.530  36.994  13.367
17894W        W82879  22.690  17.733   4.084
17895W        W82880  23.994   2.782   4.103
17896W        W82881  41.443  34.759  10.987
17897W        W82882  35.819  39.653  14.423
17898W        W82883   7.596  19.180  13.847
17899W        W82884   2.319  40.593   4.923
17900W        W82885  27.910  34.467   1.279
17901W        W82886  44.755   4.866  11.224
17902W        W82887   1.908  35.334   4.588
17903W        W82888  36.880  42.403  13.247
17904W        W82889  22.992  11.732  13.500
17905W        W82890  28.515  20.141   2.234
17906W        W82891  17.299  41.591   2.601
17907W        W82892  40.239  27.041  11.521
17908W        W82893  37.535  15.036  14.448
17909W        W82894  26.080  32.906   3.153
17910W        W82895  22.974  14.030   3.803
17911W        W82896   6.417   3.803  14.779
17912W        W82897  11.595  37.444  11.619
17913W        W82898  36.094  13.220   1.875
17914W        W82899  20.583  44.280  14.441
17915W        W82900  13.634   6.889  13.002
17916W        W82901  43.459   4.226   4.830
17917W        W82902  22.730  17.155   5.259
17918W        W82903  18.681  39.933   1.776
17919W        W82904  36.514  10.258  14.819
17920W        W82905  27.047   3.417   4.761
17921W        W82906  20.655  13.989  14.930
17922W        W82907  25.259  22.683   2.023
17923W        W82908  22.120  32.473  14.865
17924W        W82909  27.671  34.168  10.859
17925W        W82910   7.411  41.437   0.962
17926W        W82911   4.311  29.183  13.930
17927W        W82912   8.355  39.735   3.726
17928W        W82913  35.984   7.774   5.338
17929W        W82914  29.729  38.791  13.127
17930W        W82915  34.210  23.791  12.470
17931W        W82916  12.646  44.576   4.075
17932W        W82917  31.997  23.550  13.601
17933W        W82918  32.905   1.522   1.339
17934W        W82919   1.335  32.574   3.202
17935W        W82920  21.479  36.290   1.194
17936W        W82921  36.108  19.626   3.125
17937W        W82922  13.671  22.171  12.223
17938W        W82923  31.503   1.706   3.204
17939W        W82924  33.117  27.655  13.373
17940W        W82925  36.381  13.598  11.137
17941W        W82926   7.165  17.249   0.516
17942W        W82927  19.816  22.054  13.298
17943W        W82928  26.271   9.892   3.696
17944W        W82929  35.780  24.425  11.488
17945W        W82930  15.826  20.845  14.930
17946W        W82931   3.123  12.599  11.215
17947W        W82932  18.480   5.700   3.584
17948W        W82933   7.759  31.109   3.362
17949W        W82934  35.119  17.552   1.459
17950W        W82935  35.955  44.851   2.222
17951W        W82936  31.685  25.845  14.024
17952W        W82937  21.338  39.789   3.055
17953W        W82938  25.519  41.489  12.932
17954W        W82939  34.176  37.605  14.520
17955W        W82940  20.094  18.959  11.427
17956W        W82941   7.328  36.403   3.607
17957W        W82942  19.219   6.681  14.043
17958W        W82943   4.572  18.565  12.029
17959W        W82944   9.687  15.465  14.740
17960W        W82945  29.876  14.380   3.476
17961W        W82946  31.083  11.332  12.881
17962W        W82947  11.195  23.253  14.775
17963W        W82948  29.164  15.693   2.488
17964W        W82949   9.771   2.134   4.859
17965W        W82950   8.482   1.776   0.411
17966W        W82951  22.475  14.388  11.510
17967W        W82952   5.411   1.915  10.726
17968W        W82953  23.261  22.171  13.388
17969W        W82954  20.972  21.073  12.540
17970W        W82955  13.884  39.824  12.319
17971W        W82956  38.222  11.048  14.431
17972W        W82957  16.776  44.191  14.047
17973W        W82958  35.555  15.244  14.240
17974W        W82959  13.181  27.635  14.041
17975W        W82960  26.002  37.644  13.318
17976W        W82961  26.033  23.399   0.740
17977W        W82962  38.607  23.547   4.575
17978W        W82963  41.132  42.948  14.890
17979W        W82964   4.360  22.268  14.042
17980W        W82965   2.274  44.664  12.505
17981W        W82966  17.813  19.246  12.615
17982W        W82967  18.528   1.876   0.979
17983W        W82968  28.692  14.831   3.672
17984W        W82969  34.321  42.887   2.482
17985W        W82970  39.373  15.766   1.410
17986W        W82971  30.087  20.185  13.068
17987W        W82972  33.569  15.828   0.381
17988W        W82973  25.903  41.565  11.478
17989W        W82974  38.809  31.714   3.180
17990W        W82975  10.904  39.710   0.834
17991W        W82976  31.381  42.428   0.667
17992W        W82977  28.732  20.720   3.994
17993W        W82978   4.065  28.126   4.639
17994W        W82979  10.713  13.662  10.571
17995W        W82980  28.566  42.246  13.798
17996W        W82981   8.905  20.566  12.612
17997W        W82982  22.678   5.965   0.152
17998W        W82983   9.441  44.791   4.304
17999W        W82984  17.342  34.245  11.140
18000W        W82985  11.575   5.393   4.139
18001W        W82986  18.995  26.682   0.687
18002W        W82987  32.799  15.649   4.809
18003W        W82988   9.382   4.767  13.727
18004W        W82989  34.342  10.721  13.793
18005W        W82990  11.710  26.569   4.503
18006W        W82991  21.125   8.282   1.278
18007W        W82992  22.848  41.071  12.995
18008W        W82993  18.596  26.135   4.190
18009W        W82994  32.281   8.279  14.530
18010W        W82995   8.857  30.592  14.574
18011W        W82996   3.643  20.000  14.690
18012W        W82997  42.796   5.435   1.495
18013W        W82998  34.392   4.398  11.946
18014W        W82999  26.520   2.498   0.840
18015W        W83000  24.060  25.702   3.806
18016W        W83001   6.407   2.614   1.214
18017W        W83002  11.794   3.063   2.206
18018W        W83003   4.178  36.384   3.084
18019W        W83004  40.078  22.233  13.860
18020W        W83005  32.245  40.123   0.643
18021W        W83006  13.104  22.739   1.395
18022W        W83007  37.626  44.310  10.606
18023W        W83008  36.155   3.218  12.132
18024W        W83009  30.186   4.218   1.776
18025W        W83010  23.238  24.421  10.653
18026W        W83011  28.695  10.983  11.412
18027W        W83012  14.146   4.768   1.394
18028W        W83013  24.877   5.171   0.271
18029W        W83014  41.703  29.364   5.348
18030W        W83015  22.588  16.301   4.258
18031W        W83016   6.414  37.024   1.863
18032W        W83017  22.377   7.747  11.493
18033W        W83018  21.778  27.325  11.475
18034W        W83019  40.900  11.053  11.500
18035W        W83020  19.228   6.283  12.310
18036W        W83021  26.939  16.277  14.461
18037W        W83022  38.052  44.862  14.955
18038W        W83023  31.315   0.815   5.065
18039W        W83024   5.768  36.618  11.524
18040W        W83025  38.061  17.574   3.599
18041W        W83026  31.528   3.195  11.510
18042W        W83027   3.224  38.271   3.382
18043W        W83028   3.917   6.859  14.784
18044W        W83029  28.096  18.743  12.495
18045W        W83030  29.837   1.854   4.895
18046W        W83031  11.939  36.405  14.478
18047W        W83032  15.085  15.180   2.668
18048W        W83033  44.217   8.430  14.259
18049W        W83034  26.541  15.641   4.669
18050W        W83035  41.490   1.092  14.438
18051W        W83036  21.870  25.161  11.077
18052W        W83037   5.616   1.446  12.047
18053W        W83038  30.205  14.294   0.391
18054W        W83039  13.722  25.273   0.458
18055W        W83040  20.487   8.675  14.452
18056W        W83041   5.321  13.320   1.879
18057W        W83042  35.602   0.495  12.886
18058W        W83043   3.609  15.529   2.728
18059W        W83044  11.368  20.755   0.273
18060W        W83045  30.511   4.370   1.367
18061W        W83046  36.077   4.172  11.126
18062W        W83047  16.627  26.792   2.429
18063W        W83048   6.762  34.962   1.209
18064W        W83049  14.054  35.982  13.087
18065W        W83050  20.164  36.855  10.717
18066W        W83051  44.035  37.994   0.174
18067W        W83052   5.181   4.511   4.560
18068W        W83053  11.895  22.061   4.613
18069W        W83054   5.722  12.528   1.434
18070W        W83055  10.418  38.365   4.012
18071W        W83056   0.310  32.823   3.356
18072W        W83057  35.363   0.979  13.772
18073W        W83058  30.444   3.370   4.204
18074W        W83059  23.708  22.189  14.969
18075W        W83060  34.045  15.598   0.413
18076W        W83061   2.121  13.703  10.477
18077W        W83062  21.653   2.924  13.786
18078W        W83063  39.285  18.820  14.446
18079W        W83064   0.252   4.821  13.927
18080W        W83065  19.781  14.242  12.570
18081W        W83066  33.641   5.508   2.256
18082W        W83067  32.935   5.458   0.377
18083W        W83068  38.965  14.300   3.581
18084W        W83069  23.017  37.985   1.527
18085W        W83070  40.737   7.230  12.577
18086W        W83071  42.467  41.276   4.730
18087W        W83072  29.384   5.697  13.639
18088W        W83073  27.200  43.378   0.276
18089W        W83074   6.630  24.901  14.271
18090W        W83075   0.476   4.992   1.252
18091W        W83076  14.462   5.728  13.030
18092W        W83077  34.793  39.526  11.417
18093W        W83078   6.656  11.088   1.888
18094W        W83079  12.876  35.442  14.978
18095W        W83080   9.736  42.996  11.897
18096W        W83081   4.892  28.665   1.672
18097W        W83082   7.848  19.584  12.949
18098W        W83083  40.752  30.609   1.910
18099W        W83084  21.593   2.284   4.564
18100W        W83085  36.316   2.922   1.920
18101W        W83086   9.231  14.773   4.286
18102W        W83087   8.743  18.603  11.624
18103W        W83088   6.390  30.966  10.905
18104W        W83089   0.144  14.850   4.252
18105W        W83090  27.100   9.636  11.654
18106W        W83091  10.689  16.724  12.901
18107W        W83092  33.698   9.118  13.467
18108W        W83093   1.259  38.958   3.683
18109W        W83094  14.182   4.168  11.960
18110W        W83095  28.054  20.580  11.022
18111W        W83096  23.379  15.914   2.924
18112W        W83097  39.321  37.821   2.357
18113W        W83098  29.681  25.590  13.539
18114W        W83099  27.667   7.774  12.627
18115W        W83100   8.690  12.792   0.721
18116W        W83101   9.384  44.532   2.285
18117W        W83102  44.592  10.607   2.309
18118W        W83103  36.489  34.796  12.689
18119W        W83104  41.764  25.266  14.771
18120W        W83105   2.437   8.232   2.753
18121W        W83106  32.034  31.119   3.245
18122W        W83107   5.210  42.849   1.226
18123W        W83108  15.415  37.523  12.134
18124W        W83109   4.135   4.514  14.894
18125W        W83110  10.251  39.015  13.806
18126W        W83111  43.392  14.763   1.448
18127W        W83112  37.987  31.370   2.219
18128W        W83113  43.456   2.098   0.898
18129W        W83114  14.578  16.643  13.945
18130W        W83115   2.864   6.488   4.604
18131W        W83116  22.241  25.975   2.811
18132W        W83117  43.900   9.363  11.434
18133W        W83118  39.431  27.166  11.504
18134W        W83119  18.766  14.153  14.439
18135W        W83120  42.029   4.176   0.315
18136W        W83121  21.938  27.905   1.815
18137W        W83122  24.999  31.265   2.640
18138W        W83123  12.668  26.945   0.319
18139W        W83124   4.350  32.807  10.441
18140W        W83125  26.701  11.576   3.160
18141W        W83126  32.007  30.350  14.076
18142W        W83127  20.308  37.534   0.360
18143W        W83128  42.272  40.570  11.281
18144W        W83129  35.389  30.194   2.461
18145W        W83130   3.180  23.892   2.806
18146W        W83131  16.864  17.725  10.718
18147W        W83132   9.842   4.909  12.865
18148W        W83133  15.803  15.500   4.536
18149W        W83134   2.178  30.354   0.779
18150W        W83135   9.766   3.494  11.737
18151W        W83136   5.790  40.017  12.928
18152W        W83137  41.843  22.775  13.363
18153W        W83138  40.443  13.856  12.512
18154W        W83139  38.374  30.742  12.072
18155W        W83140  39.881  42.847   1.867
18156W        W83141  21.693  43.518   0.783
18157W        W83142  35.051   6.144   0.818
18158W        W83143  36.463  34.217  11.971
18159W        W83144   5.916  23.328  12.537
18160W        W83145  43.433  16.325   1.316
18161W        W83146  36.296  27.543   0.793
18162W        W83147  42.334   5.385   0.480
18163W        W83148  41.564  14.677   4.290
18164W        W83149  16.217   2.651   0.528
18165W        W83150  22.427   1.615   1.247
18166W        W83151  44.340  11.412   4.398
18167W        W83152  18.884  38.369   2.604
18168W        W83153  30.996  15.275   4.548
18169W        W83154  14.233  39.524  12.099
18170W        W83155  43.150  23.064   4.441
18171W        W83156  13.780  27.423   3.250
18172W        W83157  40.205  10.654   1.530
18173W        W83158  10.342  36.674  14.355
18174W        W83159  29.140  11.424   1.028
18175W        W83160  33.587  43.464   4.648
18176W        W83161  23.728  12.200   3.292
18177W        W83162  24.796  44.944   3.237
18178W        W83163  38.712  23.195  14.105
18179W        W83164  14.111   6.769  11.111
18180W        W83165  14.771   2.873   0.443
18181W        W83166  31.799  23.105   4.572
18182W        W83167  29.185   2.088   0.306
18183W        W83168   5.947  40.819   4.902
18184W        W83169  14.062  42.230  11.700
18185W        W83170  21.577  31.526   2.411
18186W        W83171  16.433  29.391   4.441
18187W        W83172  27.611  22.596   2.411
18188W        W83173  34.959  25.009   1.544
18189W        W83174  39.909  32.360   2.788
18190W        W83175  26.769  14.713  13.299
18191W        W83176  14.434   6.955   4.190
18192W        W83177  28.366   6.005   0.364
18193W        W83178  41.010  25.586  12.561
18194W        W83179   5.778  30.158  10.367
18195W        W83180  16.495  19.259  14.308
18196W        W83181   4.857  17.362   4.179
18197W        W83182  17.183   4.069   4.610
18198W        W83183   3.912  42.665   4.576
18199W        W83184  26.136   6.359  14.530
18200W        W83185  38.144  32.545  14.828
18201W        W83186  10.906  27.939  14.968
18202W        W83187   9.197  13.253  12.539
18203W        W83188  40.500  33.958  10.787
18204W        W83189  16.556  14.194   1.404
18205W        W83190  12.700  39.797  13.609
18206W        W83191  19.986  40.419  12.901
18207W        W83192  14.080  37.438  13.071
18208W        W83193   6.477   9.706   3.168
18209W        W83194  10.866  32.305  11.990
18210W        W83195  18.240  24.131  11.981
18211W        W83196   7.107   8.768   4.883
18212W        W83197   6.324   3.687   2.287
18213W        W83198  42.308  14.250   2.283
18214W        W83199  15.097  28.929  13.604
18215W        W83200  23.113  18.752   2.211
18216W        W83201   4.754   7.355   2.670
18217W        W83202   8.507   5.138   1.788
18218W        W83203  38.024   5.204  11.544
18219W        W83204  17.828  37.208   2.089
18220W        W83205   6.121   4.486  12.459
18221W        W83206  16.553  22.271   3.763
18222W        W83207  33.767  44.181  12.302
18223W        W83208   8.109   9.280  13.908
18224W        W83209  32.472  16.645   4.084
18225W        W83210  43.489  40.504   0.264
18226W        W83211  39.535  39.528   0.456
18227W        W83212  15.024   5.842  14.369
18228W        W83213   1.202  41.001  12.116
18229W        W83214  22.285  16.303   5.126
18230W        W83215  37.815  19.644   0.387
18231W        W83216   5.163  17.617   0.269
18232W        W83217  32.376  26.032  11.961
18233W        W83218   0.974  21.654  13.247
18234W        W83219   6.637  44.664  11.595
18235W        W83220  11.787   1.167   3.232
18236W        W83221  37.138  22.589  13.874
18237W        W83222  20.122  25.234  11.247
18238W        W83223   9.471  12.234  13.001
18239W        W83224   0.984   8.879  12.619
18240W        W83225  12.852  28.261  12.843
18241W        W83226  21.481  39.843   0.805
18242W        W83227  32.879  34.035  12.536
18243W        W83228  29.121  22.283  14.023
18244W        W83229  19.130  23.836   1.756
18245W        W83230  40.451  33.903  14.596
18246W        W83231   3.700   7.675   1.192
18247W        W83232  21.607  28.123  11.484
18248W        W83233  14.101   9.633   4.167
18249W        W83234   5.170  22.956   4.335
18250W        W83235  35.619  21.599   2.890
18251W        W83236  17.864   4.740   1.770
18252W        W83237  35.005  15.744  10.826
18253W        W83238  44.374  31.502  11.254
18254W        W83239  37.669  23.464   1.610
18255W        W83240  22.491  22.415   1.476
18256W        W83241  33.875  19.873   0.444
18257W        W83242   1.723  37.514  13.973
18258W        W83243  43.338  19.589   2.644
18259W        W83244  30.620  11.178   1.493
18260W        W83245  26.159  29.049  12.306
18261W        W83246  43.563  26.593  10.680
18262W        W83247  38.299  42.395   4.115
18263W        W83248  34.907  11.761  14.250
18264W        W83249  40.960  16.076   3.639
18265W        W83250  35.978  18.704   4.711
18266W        W83251   0.756  14.046   2.216
18267W        W83252  41.498   9.281  12.838
18268W        W83253  21.578   9.749  11.658
18269W        W83254  41.544  36.523  13.498
18270W        W83255  44.770  29.165   3.188
18271W        W83256  17.289  20.690   5.579
18272W        W83257  25.983  39.308   3.693
18273W        W83258  34.940  40.563  12.518
18274W        W83259   7.130  31.382  13.902
18275W        W83260  26.102  18.563   1.343
18276W        W83261  11.618  12.787   4.484
18277W        W83262   2.233  39.809   0.663
18278W        W83263  34.329  36.775  14.449
18279W        W83264  27.215  20.484  11.980
18280W        W83265  29.640  13.081   3.658
18281W        W83266  33.256  41.126   0.853
18282W        W83267  34.310  41.827   3.575
18283W        W83268  37.758  17.057  12.075
18284W        W83269  30.655  42.280   1.390
18285W        W83270   2.327  37.526  14.759
18286W        W83271  15.594   2.519  12.795
18287W        W83272  12.737  18.242  14.896
18288W        W83273   5.318  31.563   2.175
18289W        W83274   1.868  32.386  14.545
18290W        W83275   9.732  32.477   4.244
18291W        W83276   1.561  32.283   2.577
18292W        W83277  40.266  24.739  12.640
18293W        W83278  20.009  43.909  12.798
18294W        W83279  30.821  18.097   4.669
18295W        W83280  35.421  16.435   2.208
18296W        W83281  23.611  23.667  12.116
18297W        W83282   3.231  29.143   4.114
18298W        W83283   2.406  36.912   3.276
18299W        W83284  15.291  32.173   0.261
18300W        W83285  11.497   1.070  12.597
18301W        W83286  23.234   6.518   0.451
18302W        W83287   1.801   8.168  14.501
18303W        W83288  28.386  43.450   4.275
18304W        W83289  18.088  34.043  11.614
18305W        W83290  21.215  33.144  12.165
18306W        W83291  44.740  44.396  11.142
18307W        W83292   7.417  20.257   0.426
18308W        W83293  23.998  28.079  14.061
18309W        W83294  25.557   0.342   3.034
18310W        W83295  42.056  27.921   1.310
18311W        W83296  15.232  44.427  13.381
18312W        W83297  39.548   9.547  12.618
18313W        W83298  22.605   6.796  10.452
18314W        W83299  41.212  28.996   2.631
18315W        W83300  43.451   3.428  13.826
18316W        W83301  32.474   1.427   1.848
18317W        W83302  13.087   0.934   0.560
18318W        W83303   6.356  16.055   0.295
18319W        W83304  27.078  40.864   4.405
18320W        W83305   5.456  25.584  10.711
18321W        W83306  10.748  16.289  11.213
18322W        W83307  36.982  10.921   1.253
18323W        W83308  11.318   6.769   4.197
18324W        W83309  25.968   9.190   4.449
18325W        W83310  27.160   1.617  13.108
18326W        W83311  13.694   0.510   2.239
18327W        W83312   1.321  42.560  14.846
18328W        W83313  29.815  22.946  12.030
18329W        W83314  15.172  11.577  12.103
18330W        W83315  20.227  32.177  12.469
18331W        W83316  40.250  26.576   3.271
18332W        W83317  10.835  21.984  11.039
18333W        W83318  12.389  42.113   2.630
18334W        W83319   3.483  12.057  13.872
18335W        W83320   6.342  29.401   3.438
18336W        W83321  10.662  25.720   4.231
18337W        W83322  21.494  44.438  13.184
18338W        W83323   6.496  19.488  13.008
18339W        W83324  40.329  23.493   3.726
18340W        W83325  22.516  11.693   1.858
18341W        W83326  42.011   1.516  13.544
18342W        W83327  11.487   0.574  12.484
18343W        W83328   2.329   0.481   1.382
18344W        W83329  14.504   6.765   2.262
18345W        W83330  39.360  18.100   0.060
18346W        W83331   8.292   9.354  13.419
18347W        W83332   8.486  37.342   0.378
18348W        W83333   3.529  26.362  13.940
18349W        W83334  26.509   6.163   1.298
18350W        W83335   2.311  28.003   2.790
18351W        W83336  25.029   5.000  14.197
18352W        W83337   1.459  39.491   4.327
18353W        W83338  16.137  22.536  10.442
18354W        W83339  22.096  32.278  12.962
18355W        W83340  23.886  40.295  10.552
18356W        W83341  21.454  35.809   1.383
18357W        W83342  13.248  35.960  14.734
18358W        W83343   5.476  29.529  13.825
18359W        W83344  20.148   5.040   5.373
18360W        W83345   8.434  37.644   4.149
18361W        W83346   0.407  24.618   1.194
18362W        W83347   8.743  27.447   0.364
18363W        W83348  42.482   1.231   2.987
18364W        W83349  31.276  11.192  13.498
18365W        W83350  29.355   7.306   1.185
18366W        W83351  44.442  32.370   1.202
18367W        W83352  33.377  13.121  10.565
18368W        W83353  30.117  34.517   4.802
18369W        W83354  42.924  20.091   1.148
18370W        W83355   8.785  25.228   2.749
18371W        W83356  28.430  17.206  13.470
18372W        W83357  11.462  38.104  11.137
18373W        W83358  31.122  34.688   1.622
18374W        W83359  39.284  21.232   4.123
18375W        W83360  44.872  21.757  12.996
18376W        W83361   7.289  33.902  12.142
18377W        W83362  25.521  35.448   4.345
18378W        W83363  38.947  30.506   4.627
18379W        W83364  25.513  42.881  12.010
18380W        W83365  40.975  19.124  14.848
18381W        W83366  10.221  20.843  11.980
18382W        W83367  26.845  42.424   4.093
18383W        W83368   1.224  23.609   4.232
18384W        W83369  29.494   9.476   4.563
18385W        W83370  44.433  22.223   2.757
18386W        W83371  12.896   6.095   4.591
18387W        W83372   4.724  22.116   1.342
18388W        W83373  19.547  30.448  13.173
18389W        W83374  40.778  12.120  11.448
18390W        W83375   2.674  23.988  13.371
18391W        W83376  31.171  37.829   4.049
18392W        W83377  35.533  33.649  14.352
18393W        W83378  38.826  11.382  14.441
18394W        W83379  27.026  10.299   3.703
18395W        W83380   4.904   9.737  12.564
18396W        W83381  30.784  19.870   5.098
18397W        W83382  40.992   6.476  13.415
18398W        W83383  35.497   3.746  13.190
18399W        W83384  11.629   9.370  14.132
18400W        W83385  19.089   3.949   4.644
18401W        W83386  18.788   7.168   3.059
18402W        W83387  19.383  35.061   1.882
18403W        W83388  32.050   6.304   2.580
18404W        W83389  42.629  33.971  12.473
18405W        W83390   5.767  11.607  12.643
18406W        W83391  40.069   7.539  13.388
18407W        W83392  32.167  38.476  12.128
18408W        W83393  16.333  37.075   0.132
18409W        W83394  30.285  23.622  11.099
18410W        W83395  24.113   5.887  12.430
18411W        W83396   5.942  32.731  11.173
18412W        W83397  15.621   4.294   4.569
18413W        W83398  15.034   8.802  13.863
18414W        W83399  24.683  29.415  13.437
18415W        W83400   8.268   3.425  14.930
18416W        W83401  41.823   3.456  12.439
18417W        W83402  19.432  15.564  11.586
18418W        W83403  16.182  22.477   1.269
18419W        W83404  16.068  12.599   3.578
18420W        W83405  44.163  32.442  11.425
18421W        W83406  19.171   4.735   0.020
18422W        W83407  14.807  37.983  14.865
18423W        W83408  39.925  29.110   0.514
18424W        W83409   2.432   0.532  13.338
18425W        W83410  36.360  26.190   3.379
18426W        W83411  25.954  40.803   3.157
18427W        W83412   4.181  16.148   0.396
18428W        W83413  21.039  40.870   3.231
18429W        W83414  44.364  25.177   3.676
18430W        W83415  32.555  38.303  10.936
18431W        W83416  40.689  10.746   1.362
18432W        W83417   5.935  41.463   0.784
18433W        W83418   5.425  22.112   2.824
18434W        W83419  42.834  38.277   9.841
18435W        W83420   3.947  33.191   3.849
18436W        W83421   6.374  32.434   2.791
18437W        W83422  30.667  14.634  11.140
18438W        W83423  19.526  20.299  11.079
18439W        W83424  26.444   2.924   2.405
18440W        W83425  15.858  42.805   3.135
18441W        W83426  15.608  30.574  14.750
18442W        W83427   2.271  25.987   2.222
18443W        W83428   2.369  25.166   1.070
18444W        W83429  39.605  30.758   4.954
18445W        W83430   5.957   7.354   4.511
18446W        W83431  10.310   5.742   3.160
18447W        W83432   3.935  29.347   1.006
18448W        W83433  30.626  22.039   4.193
18449W        W83434  28.581   4.160   2.388
18450W        W83435  35.214  34.444   3.830
18451W        W83436  30.705  28.159  11.507
18452W        W83437  33.098  25.488   4.637
18453W        W83438  15.193  33.228   0.209
18454W        W83439  44.751  12.272   1.361
18455W        W83440  29.240  42.665  14.916
18456W        W83441  22.149  32.861  14.371
18457W        W83442  38.509  27.142  14.833
18458W        W83443  30.034  26.368   4.470
18459W        W83444  15.898  36.415   4.057
18460W        W83445  32.573   5.220   4.140
18461W        W83446  11.771  24.606  11.066
18462W        W83447  18.186   7.846   4.253
18463W        W83448  26.666  30.745   1.350
18464W        W83449  23.131  14.575  14.774
18465W        W83450  35.419  10.170   4.574
18466W        W83451  31.348  15.870   2.239
18467W        W83452  28.246   4.855  11.088
18468W        W83453  24.604  22.178  14.070
18469W        W83454  31.007  25.697   3.306
18470W        W83455  16.051  25.987  14.534
18471W        W83456  15.209  33.205  10.724
18472W        W83457   7.103  12.316   1.383
18473W        W83458  41.253   2.475  13.949
18474W        W83459   4.288  16.761   1.116
18475W        W83460  37.448  17.277   2.844
18476W        W83461  33.156   1.270   2.925
18477W        W83462  12.738  15.353  12.887
18478W        W83463  21.096   9.332  13.889
18479W        W83464  30.981  28.061   1.786
18480W        W83465   9.071  39.561  10.754
18481W        W83466  12.570   8.421  12.644
18482W        W83467  21.578  43.428   3.351
18483W        W83468  10.695  32.042  14.049
18484W        W83469  11.401  34.843   4.225
18485W        W83470   5.259  17.905  11.065
18486W        W83471  35.192  12.186  10.587
18487W        W83472   2.171   1.420  10.369
18488W        W83473  19.719  26.165   0.435
18489W        W83474  25.522  32.439   1.713
18490W        W83475  39.974  32.559  10.208
18491W        W83476   2.748  41.868   3.556
18492W        W83477  35.532   4.973   4.471
18493W        W83478  26.685   3.787   3.670
18494W        W83479   4.574  21.799  13.869
18495W        W83480  32.523  38.572  11.359
18496W        W83481  21.642  35.607   2.655
18497W        W83482  33.819  16.325  14.537
18498W        W83483  26.078  32.960   1.260
18499W        W83484  35.243   7.317  11.678
18500W        W83485   4.409  25.998   1.231
18501W        W83486   2.651   9.755   0.727
18502W        W83487  25.141  15.528   4.083
18503W        W83488  12.682  24.630  11.710
18504W        W83489  13.333  10.322  10.856
18505W        W83490  35.404  18.685   3.891
18506W        W83491  29.118  40.370  11.065
18507W        W83492  42.286  13.866   2.838
18508W        W83493   5.791  20.001   4.666
18509W        W83494  34.009   4.500   1.229
18510W        W83495  20.539  12.653   4.054
18511W        W83496  39.450  29.953   2.042
18512W        W83497  28.500  39.079   1.768
18513W        W83498  10.290  26.186  13.662
18514W        W83499  37.928  38.674   2.302
18515W        W83500  24.518  29.575  14.716
18516W        W83501  25.724  11.855   2.186
18517W        W83502  37.487  18.062   1.592
18518W        W83503   3.200  30.580  13.141
18519W        W83504   3.726  36.081  12.926
18520W        W83505  35.490  18.791   3.377
18521W        W83506  16.848  19.644   2.839
18522W        W83507  22.908  34.912   4.200
18523W        W83508  42.019  38.489  12.037
18524W        W83509  15.381  26.018  11.250
18525W        W83510  38.106   8.678  13.474
18526W        W83511  24.307  22.916  10.463
18527W        W83512   5.147  30.700   3.494
18528W        W83513  15.279  33.107  11.220
18529W        W83514  27.033  43.430  13.370
18530W        W83515  34.780   4.713   3.799
18531W        W83516  18.195  20.177  12.850
18532W        W83517  10.314  31.080   4.801
18533W        W83518   0.081  34.838   3.954
18534W        W83519  39.068   6.889   3.592
18535W        W83520  26.900  34.873  12.168
18536W        W83521  32.643  19.266   0.634
18537W        W83522  14.358  25.537  14.401
18538W        W83523  13.461  43.755  13.448
18539W        W83524   5.501   0.698  13.829
18540W        W83525  34.878  13.746   2.435
18541W        W83526  10.506   8.435   1.452
18542W        W83527  36.055  34.664  12.404
18543W        W83528  30.433  10.780  12.363
18544W        W83529  32.100  41.472   4.099
18545W        W83530   0.352  43.824  13.486
18546W        W83531   8.688  20.390   0.785
18547W        W83532   4.831  32.129  10.293
18548W        W83533  43.916  18.665  13.061
18549W        W83534  42.037  25.078  13.826
18550W        W83535  37.336   9.571  12.246
18551W        W83536  38.407  13.866  12.628
18552W        W83537  36.877   8.279  11.579
18553W        W83538  11.754  19.272  11.521
18554W        W83539  26.668   0.060   1.634
18555W        W83540   0.048  13.729   4.387
18556W        W83541  14.507   8.226   3.269
18557W        W83542  44.711   2.221  14.302
18558W        W83543  16.542   4.393   3.171
18559W        W83544  27.755  33.636   3.690
18560W        W83545  22.780  15.454  10.370
18561W        W83546  10.298  21.971  14.360
18562W        W83547  31.538  43.285  10.724
18563W        W83548   3.986   8.377  11.039
18564W        W83549   9.370  39.917  10.496
18565W        W83550   0.303   1.995  13.861
18566W        W83551  43.877   1.337   4.300
18567W        W83552  42.415  12.392  14.454
18568W        W83553  11.489  32.421  14.499
18569W        W83554  16.385  31.400  10.707
18570W        W83555   6.973  39.966   3.599
18571W        W83556   9.284  39.982  10.992
18572W        W83557  28.697  38.074  11.464
18573W        W83558  40.005  40.339   0.526
18574W        W83559   6.924   1.219   3.580
18575W        W83560   8.500  33.271  14.459
18576W        W83561  32.152  24.631  14.398
18577W        W83562  34.359  43.308   2.190
18578W        W83563   1.904  11.584   0.489
18579W        W83564  32.507  18.165   2.704
18580W        W83565  44.396  27.370   1.381
18581W        W83566  16.545  10.363   0.534
18582W        W83567  15.847  41.088   1.302
18583W        W83568  24.189  29.131  13.448
18584W        W83569  26.142   9.925  13.518
18585W        W83570  25.527  19.692  12.798
18586W        W83571  27.574  39.917   0.108
18587W        W83572  38.591  28.829  11.565
18588W        W83573  12.748  34.815   0.333
18589W        W83574  22.062   8.274   1.996
18590W        W83575  23.944  44.000  14.151
18591W        W83576  29.633  32.489   2.741
18592W        W83577  26.076  28.998   0.975
18593W        W83578  15.118  17.792  14.595
18594W        W83579  10.811  16.457   1.254
18595W        W83580  43.819  36.377   3.022
18596W        W83581  43.522  16.250  13.260
18597W        W83582   3.889  28.529   0.892
18598W        W83583  28.441  18.015  11.543
18599W        W83584  31.204  31.104  11.049
18600W        W83585  44.423  11.682   1.625
18601W        W83586  36.044  21.212   1.741
18602W        W83587  44.449  30.476  14.044
18603W        W83588  29.105   5.167   4.299
18604W        W83589  30.194  37.412  10.756
18605W        W83590  19.092  21.483  12.456
18606W        W83591  19.795  27.406  10.242
18607W        W83592  28.987  25.845   2.274
18608W        W83593  22.155  37.879  12.431
18609W        W83594  44.254  19.176   2.461
18610W        W83595  35.578  15.871  11.461
18611W        W83596   2.926  19.577  10.775
18612W        W83597  17.643  25.644   1.982
18613W        W83598  19.286   0.935  12.398
18614W        W83599   2.907  33.044  12.829
18615W        W83600  38.722  35.403  11.183
18616W        W83601  32.553   3.421   3.532
18617W        W83602   7.743   6.447   1.180
18618W        W83603  19.777  13.164  11.904
18619W        W83604  20.566  30.514   2.003
18620W        W83605  34.891   6.356  12.482
18621W        W83606  16.220  40.349   4.508
18622W        W83607  15.002  22.844   2.406
18623W        W83608  21.268  17.651  11.847
18624W        W83609   2.587  38.469   3.816
18625W        W83610  13.277   8.422   3.687
18626W        W83611  42.475  30.104  10.331
18627W        W83612  37.420  33.380  13.409
18628W        W83613  38.102  20.009  10.276
18629W        W83614  27.635  28.097  12.620
18630W        W83615  42.488  23.006   4.156
18631W        W83616   0.275  36.129  13.935
18632W        W83617  35.899  40.690   2.494
18633W        W83618  32.107  19.171   3.932
18634W        W83619  27.880  38.802  13.373
18635W        W83620  42.788  13.373   3.195
18636W        W83621   8.338  38.588  13.093
18637W        W83622  38.293  28.063   3.215
18638W        W83623  13.807   8.899   3.170
18639W        W83624  30.728   9.359   2.746
18640W        W83625  13.233  11.007  12.800
18641W        W83626  39.019  18.812  10.014
18642W        W83627   3.720   8.196  14.421
18643W        W83628  25.968   9.920   2.274
18644W        W83629  29.045  24.067   3.907
18645W        W83630  42.942  15.044  14.299
18646W        W83631   7.953  17.061  14.908
18647W        W83632  36.288  14.355  12.871
18648W        W83633  27.395  15.167   1.820
18649W        W83634  36.889  14.270  14.767
18650W        W83635  37.723  18.264   1.193
18651W        W83636   4.108  22.508   1.004
18652W        W83637  32.807  13.005  12.543
18653W        W83638  19.177  22.324   3.766
18654W        W83639   7.859   8.925   4.301
18655W        W83640  10.431  37.100   2.677
18656W        W83641  40.079  10.440  11.583
18657W        W83642  43.517  34.529   2.419
18658W        W83643   4.974  20.238  12.406
18659W        W83644  37.141   0.250  13.570
18660W        W83645  26.283  13.731  14.810
18661W        W83646  18.127   7.828  14.972
18662W        W83647  42.838  12.393  14.762
18663W        W83648   9.823  33.049   1.009
18664W        W83649  35.062  10.857   5.225
18665W        W83650  36.537   0.602   5.000
18666W        W83651  36.007  32.129  11.617
18667W        W83652  30.921   3.255   1.606
18668W        W83653  22.721   0.752   3.198
18669W        W83654  44.731  29.955   4.124
18670W        W83655  19.709  17.554  12.538
18671W        W83656   2.911  10.841  12.348
18672W        W83657  14.766   8.914   1.886
18673W        W83658  29.569  35.635  14.337
18674W        W83659  35.446  13.696   2.863
18675W        W83660  37.989  26.419  11.164
18676W        W83661   3.601  39.076   3.348
18677W        W83662  19.848  13.200  13.944
18678W        W83663   5.947  25.458   4.137
18679W        W83664  42.554   9.689  13.758
18680W        W83665  10.796  36.289  11.965
18681W        W83666  11.601  28.889   3.799
18682W        W83667  18.299   5.914  12.113
18683W        W83668  23.600  14.321  13.618
18684W        W83669  44.479  44.358   4.478
18685W        W83670  33.508  43.537   3.294
18686W        W83671  37.915  35.413  11.585
18687W        W83672   7.746  17.423  10.514
18688W        W83673  10.346   0.407  10.933
18689W        W83674   2.362  38.332   4.240
18690W        W83675  44.338  26.457  12.529
18691W        W83676  10.776  39.186  11.519
18692W        W83677  15.557  20.129   0.997
18693W        W83678  29.019  40.368   3.165
18694W        W83679  18.288  30.940   5.020
18695W        W83680   3.033  27.750   3.271
18696W        W83681  22.393   2.196  11.255
18697W        W83682  16.748  36.564   0.713
18698W        W83683  42.228  22.072   0.386
18699W        W83684  37.961  41.883  13.019
18700W        W83685  13.595   0.980   0.421
18701W        W83686   8.656  41.476  13.388
18702W        W83687  37.047  16.551  13.175
18703W        W83688   1.858   7.444   2.618
18704W        W83689   4.647  24.566   3.341
18705W        W83690  28.864  32.071  14.232
18706W        W83691  23.155  19.521   1.782
18707W        W83692  29.934  14.407  10.699
18708W        W83693  15.913  16.223  12.567
18709W        W83694   6.763  19.737   4.233
18710W        W83695  24.256   3.786  14.118
18711W        W83696  20.202   7.586   4.116
18712W        W83697   7.801  12.694  11.577
18713W        W83698  11.640  12.791  12.800
18714W        W83699  40.382   2.014   0.850
18715W        W83700  11.170  42.804   0.881
18716W        W83701   7.893  15.175   1.133
18717W        W83702  33.155  27.455   5.068
18718W        W83703  29.476  23.731   1.797
18719W        W83704  42.052  37.414   2.226
18720W        W83705  40.514  28.147  10.416
18721W        W83706  38.757   4.233   0.126
18722W        W83707  39.301  31.127  12.630
18723W        W83708   1.367  24.439  14.415
18724W        W83709  26.648  24.557   1.701
18725W        W83710  19.711  29.663  10.722
18726W        W83711  31.928  18.642   3.269
18727W        W83712   1.721  21.171   4.572
18728W        W83713  30.565  24.674   0.370
18729W        W83714   0.923  20.560  10.493
18730W        W83715  35.922  34.019   0.659
18731W        W83716  14.266   2.782  11.025
18732W        W83717  13.499  30.242   1.094
18733W        W83718  11.292  19.616   4.095
18734W        W83719  10.879  31.847  13.079
18735W        W83720   7.323  20.081  12.655
18736W        W83721  42.837  18.790  12.503
18737W        W83722  23.945  15.274   1.371
18738W        W83723  37.315  34.181   3.287
18739W        W83724   4.584  28.175  11.158
18740W        W83725  15.596   0.176  10.747
18741W        W83726   3.955  34.085   2.675
18742W        W83727  29.458   7.307   0.214
18743W        W83728  32.466  28.697  11.932
18744W        W83729  12.610  36.660  13.003
18745W        W83730  42.793  20.601   0.499
18746W        W83731  15.611  31.499   1.953
18747W        W83732  13.822  37.115  14.226
18748W        W83733  43.000  15.103  10.920
18749W        W83734   9.910  33.143  10.670
18750W        W83735  12.965   7.795   3.724
18751W        W83736  19.664   8.305  12.872
18752W        W83737  11.265  24.079  10.678
18753W        W83738   9.459  31.421  14.348
18754W        W83739   2.595  25.020   1.534
18755W        W83740  21.723  39.948   1.269
18756W        W83741  33.582  10.253   0.335
18757W        W83742   4.836  32.657  10.385
18758W        W83743  33.629  20.983   1.260
18759W        W83744   1.425  28.886   4.531
18760W        W83745  32.438  39.687  12.067
18761W        W83746  35.531   1.290   1.743
18762W        W83747  26.955  34.429   3.703
18763W        W83748  24.290  17.283  13.404
18764W        W83749   5.812  21.577  14.859
18765W        W83750  13.822  21.312   1.827
18766W        W83751  43.925  24.493   0.617
18767W        W83752   5.739  28.526   4.092
18768W        W83753  30.022  37.528   4.250
18769W        W83754   2.209   7.096   1.839
18770W        W83755  25.621  24.230  12.326
18771W        W83756   5.040  41.562   4.105
18772W        W83757   2.059  34.957   3.147
18773W        W83758   4.795  15.869   4.125
18774W        W83759  21.205  42.949  10.312
18775W        W83760  39.848   7.878  13.023
18776W        W83761  40.320  22.115   3.795
18777W        W83762  44.730  35.728   9.809
18778W        W83763  22.252   8.213  12.129
18779W        W83764  21.226  37.644   1.131
18780W        W83765  17.787  33.868   1.205
18781W        W83766   9.472   9.729   2.848
18782W        W83767  19.148  12.845   1.353
18783W        W83768   2.293  25.789  13.087
18784W        W83769  29.052   1.855   0.742
18785W        W83770  23.693  10.977   1.293
18786W        W83771  35.354  35.033  12.498
18787W        W83772  13.654  12.045  13.431
18788W        W83773  24.115  11.625  10.441
18789W        W83774  11.489  29.307   4.984
18790W        W83775  28.009  34.455  12.031
18791W        W83776  42.467  15.807   2.795
18792W        W83777  20.321  33.001  14.449
18793W        W83778  16.296  44.853  10.656
18794W        W83779   4.378  14.136   4.654
18795W        W83780  14.612  31.907   2.172
18796W        W83781  11.453  38.044   0.561
18797W        W83782  10.352  43.692   0.606
18798W        W83783  18.636   5.506  12.068
18799W        W83784   3.548  43.515   3.536
18800W        W83785   0.350  27.195   0.405
18801W        W83786  15.895  21.186   0.500
18802W        W83787  14.903  37.474   1.826
18803W        W83788  19.559  34.190  10.752
18804W        W83789  44.354  35.380  11.792
18805W        W83790   6.030   6.552   4.571
18806W        W83791  28.742   4.360   0.201
18807W        W83792   2.166   4.855  10.356
18808W        W83793   9.205  34.627  14.388
18809W        W83794  23.643  18.737   4.013
18810W        W83795  28.040  10.755  14.487
18811W        W83796  24.462  17.778  14.500
18812W        W83797   1.850   3.793   1.698
18813W        W83798   0.921  15.571  14.814
18814W        W83799  20.550  30.979   2.241
18815W        W83800  13.697   3.874  10.202
18816W        W83801  38.178  39.928   2.220
18817W        W83802  31.836   3.867   2.174
18818W        W83803  41.823  39.845   4.169
18819W        W83804   0.937  27.018   4.647
18820W        W83805  43.298  25.354   3.636
18821W        W83806  13.119  22.282  12.486
18822W        W83807  42.658   5.589   4.088
18823W        W83808  30.149  38.100  13.390
18824W        W83809  40.516  36.573   4.526
18825W        W83810  16.086   9.686   3.781
18826W        W83811  18.294  27.540   0.521
18827W        W83812  29.626  44.429  14.000
18828W        W83813  12.869  35.491   0.889
18829W        W83814  38.934  20.286  11.130
18830W        W83815  34.575   1.944  12.470
18831W        W83816  21.794  39.601   3.158
18832W        W83817  43.474  38.825   3.985
18833W        W83818   7.909  27.223   4.417
18834W        W83819  25.487   4.789   3.108
18835W        W83820  26.718   8.096   4.124
18836W        W83821  11.656  22.118  12.575
18837W        W83822  39.536   6.208  13.375
18838W        W83823  14.685  33.581  12.065
18839W        W83824  28.691  15.243  14.349
18840W        W83825  12.321  23.203  13.960
18841W        W83826   1.410   0.877   3.771
18842W        W83827  34.288  25.509  12.867
18843W        W83828  24.471  13.581  12.088
18844W        W83829  34.155  38.272   3.592
18845W        W83830  42.942  33.681   2.854
18846W        W83831   4.064   6.524   3.148
18847W        W83832   5.708  24.601   0.055
18848W        W83833  23.067  10.846   2.204
18849W        W83834  17.311  39.551  13.512
18850W        W83835  38.569   8.177   1.650
18851W        W83836  18.586   7.413  11.521
18852W        W83837  44.549  11.048  12.955
18853W        W83838  10.276  32.380  12.634
18854W        W83839  19.032  39.837   2.731
18855W        W83840   5.691  10.718   1.217
18856W        W83841  40.869   9.633   3.827
18857W        W83842   6.659  12.771   4.451
18858W        W83843  42.362  27.568  14.905
18859W        W83844  34.428  43.924  10.859
18860W        W83845  17.559  19.358   9.795
18861W        W83846  35.518   7.694   3.235
18862W        W83847   3.308  38.815   4.122
18863W        W83848  19.823  37.427   1.245
18864W        W83849   7.353   0.714  11.597
18865W        W83850  21.515  26.947   4.489
18866W        W83851   4.336   4.701   0.813
18867W        W83852  25.083  25.643   2.801
18868W        W83853  39.875   9.729  14.012
18869W        W83854   8.344   9.589   2.905
18870W        W83855  41.346  26.952  14.979
18871W        W83856  33.665   6.387  13.024
18872W        W83857  42.847  39.024  10.488
18873W        W83858  12.406  22.802   1.853
18874W        W83859  16.277  33.182  13.387
18875W        W83860  26.022  35.840   2.831
18876W        W83861  11.838   9.267   4.398
18877W        W83862  27.937  37.178   3.655
18878W        W83863  36.502  19.596   2.148
18879W        W83864  12.256  29.057   2.562
18880W        W83865  17.624  10.007  10.475
18881W        W83866  42.310  10.358  13.379
18882W        W83867  16.781   0.457  13.473
18883W        W83868   6.322  39.811  14.725
18884W        W83869  39.909   5.753   0.034
18885W        W83870  21.192  24.551  10.762
18886W        W83871   5.990  24.676   1.111
18887W        W83872  20.684  14.001   4.396
18888W        W83873  25.517  36.054  12.391
18889W        W83874  29.062   0.287  13.427
18890W        W83875  11.273  25.554  14.569
18891W        W83876  13.104  29.048  12.323
18892W        W83877   2.184  13.567   4.520
18893W        W83878  27.346   8.864  10.369
18894W        W83879  43.217  43.016   2.393
18895W        W83880  10.464   7.624  11.596
18896W        W83881  23.054  42.014   4.609
18897W        W83882  22.654  18.972   1.104
18898W        W83883  15.835   1.392   3.095
18899W        W83884  37.623  10.739  11.512
18900W        W83885  31.140  29.852  12.494
18901W        W83886  27.256  31.653  10.288
18902W        W83887  27.203  25.444  13.105
18903W        W83888  11.682  34.072  14.823
18904W        W83889  12.155   5.248  11.147
18905W        W83890  26.227  31.133  13.869
18906W        W83891  27.557  28.600  12.773
18907W        W83892  44.912  23.764   0.684
18908W        W83893  26.923   0.873   9.820
18909W        W83894   8.265  39.752  13.783
18910W        W83895  10.862  11.605  12.128
18911W        W83896  33.091  21.253  13.726
18912W        W83897   6.518   0.333  10.487
18913W        W83898  26.675   0.206   0.812
18914W        W83899   2.760  12.895   0.919
18915W        W83900   2.469  10.466   2.413
18916W        W83901  33.219  28.639  14.837
18917W        W83902  37.956  43.193   3.822
18918W        W83903  11.164   8.654  12.498
18919W        W83904  10.639   6.240  11.593
18920W        W83905   9.283  36.014   2.315
18921W        W83906  13.296   5.120   4.819
18922W        W83907  37.365  10.802   0.450
18923W        W83908   7.412  33.765  12.627
18924W        W83909  13.258   5.586  14.477
18925W        W83910  16.312  14.834  13.537
18926W        W83911  31.697  15.467   2.244
18927W        W83912  43.268  41.683  11.585
18928W        W83913  23.058  23.704  10.789
18929W        W83914   5.701  10.280  14.243
18930W        W83915  16.969  28.999   3.669
18931W        W83916  15.580  14.352  14.617
18932W        W83917  23.630   4.735  12.049
18933W        W83918   5.830   4.805   3.343
18934W        W83919  34.152  31.176  14.819
18935W        W83920  37.368  23.051   1.747
18936W        W83921  37.823  42.313  11.459
18937W        W83922  28.671   4.026   1.313
18938W        W83923  18.672  10.712  12.382
18939W        W83924   4.647   6.284  11.381
18940W        W83925  29.913  36.572   3.127
18941W        W83926   8.364  11.405   1.950
18942W        W83927  42.498  29.326   3.739
18943W        W83928  38.780  17.742   4.329
18944W        W83929   6.652  29.899   4.851
18945W        W83930  23.498   2.848  10.918
18946W        W83931  32.958  28.205   1.964
18947W        W83932  17.828  30.860  13.890
18948W        W83933  11.774  17.595   3.599
18949W        W83934  14.171   9.863   2.833
18950W        W83935  20.473  10.260  10.591
18951W        W83936  18.752  10.216  14.820
18952W        W83937  40.268  26.624  11.923
18953W        W83938  43.936  12.103   1.060
18954W        W83939   0.474  18.940   9.720
18955W        W83940  14.523  20.241  13.955
18956W        W83941  24.429  29.857  13.508
18957W        W83942  27.808  42.807  13.298
18958W        W83943  33.889   7.574  10.757
18959W        W83944  39.896  18.816  13.072
18960W        W83945  37.539  33.911   4.661
18961W        W83946  15.113  10.875   1.700
18962W        W83947  11.178  33.526  10.968
18963W        W83948  40.484   3.897  12.961
18964W        W83949   0.733  26.079   4.342
18965W        W83950  13.111  32.901  14.011
18966W        W83951  41.890  22.540  12.434
18967W        W83952   0.673  43.479  14.484
18968W        W83953  38.702  44.659  12.892
18969W        W83954  18.488  32.626  12.576
18970W        W83955  16.328  29.616  12.643
18971W        W83956  18.599  25.043   0.331
18972W        W83957   6.455  29.769  14.372
18973W        W83958   2.341   9.719  11.546
18974W        W83959   4.607  29.691  11.953
18975W        W83960  33.530   6.868  13.654
18976W        W83961  39.346  16.463  10.827
18977W        W83962  37.607  42.601  11.068
18978W        W83963  11.616  25.613   4.479
18979W        W83964  25.052  15.070  11.470
18980W        W83965  10.605  41.465  11.698
18981W        W83966  42.319   9.227   2.408
18982W        W83967  29.940  21.804   4.626
18983W        W83968  15.604  33.435  11.677
18984W        W83969   3.235  41.363  13.452
18985W        W83970   7.971  38.297   2.642
18986W        W83971  24.866   7.259  13.637
18987W        W83972  32.777  27.840  12.094
18988W        W83973  15.311  12.307   0.707
18989W        W83974  39.602  40.334   0.123
18990W        W83975  29.459  34.072  13.786
18991W        W83976  44.943  26.815  14.472
18992W        W83977  29.538  30.908  10.131
18993W        W83978  11.081  21.158   0.517
18994W        W83979  23.997  37.797   1.214
18995W        W83980  22.494  42.526  13.065
18996W        W83981  18.640  20.072  13.119
18997W        W83982  26.151  16.173   4.152
18998W        W83983  27.417  40.035   4.933
18999W        W83984  27.678   7.121   4.348
19000W        W83985  22.151   4.831  14.270
19001W        W83986  36.998  23.643   1.428
19002W        W83987   0.752   9.729  14.373
19003W        W83988   9.016  31.864  10.130
19004W        W83989  28.207  43.630   0.348
19005W        W83990  44.998  36.733  12.224
19006W        W83991  20.328   7.756  14.376
19007W        W83992  26.447   3.191  14.793
19008W        W83993   1.967  14.821   1.253
19009W        W83994  24.431  14.820   2.782
19010W        W83995  35.597   8.285   2.362
19011W        W83996  41.897   7.619   2.861
19012W        W83997  39.772   5.208  12.565
19013W        W83998  30.182  22.149  14.108
19014W        W83999  30.370  43.896  13.839
19015W        W84000   4.385  31.762   1.418
19016W        W84001   6.248  10.710   2.777
19017W        W84002  20.766  36.242  12.086
19018W        W84003  24.472  37.747  14.893
19019W        W84004  16.059  39.836   4.764
19020W        W84005   2.887  36.296   0.648
19021W        W84006  37.139  34.643   3.103
19022W        W84007  26.000  44.281   2.380
19023W        W84008  35.957  35.582  13.968
19024W        W84009  38.095  41.706   0.302
19025W        W84010  38.585  41.411  13.973
19026W        W84011  15.387  26.496   0.960
19027W        W84012  10.113  12.295   0.836
19028W        W84013   2.286  24.987   3.855
19029W        W84014   8.086  29.557   2.402
19030W        W84015  42.178  12.520   2.439
19031W        W84016  21.753  31.137  14.786
19032W        W84017  26.556  34.223   3.336
19033W        W84018  20.055  28.783  11.092
19034W        W84019  16.555  33.147   0.324
19035W        W84020  44.705  10.662   1.779
19036W        W84021  35.854  37.360  13.422
19037W        W84022  39.562  40.111  13.362
19038W        W84023  39.507   7.665  12.084
19039W        W84024  44.139  42.010   1.262
19040W        W84025   5.352  23.572   0.398
19041W        W84026  13.328  41.481  14.370
19042W        W84027  44.870  29.897  13.444
19043W        W84028  40.184  42.462  10.624
19044W        W84029  16.739  26.140   3.086
19045W        W84030  22.488   3.645   2.984
19046W        W84031  29.320  18.115  14.345
19047W        W84032   0.481   6.880   1.605
19048W        W84033  10.529  18.277  12.102
19049W        W84034  36.005  13.113   0.421
19050W        W84035  44.546  43.384   2.285
19051W        W84036  32.871  34.610  10.730
19052W        W84037  33.418   9.207  14.789
19053W        W84038  41.283   2.753   1.145
19054W        W84039   6.434  30.252   0.312
19055W        W84040   2.195  12.154  12.026
19056W        W84041  38.952  32.907  13.389
19057W        W84042  22.786  29.512  11.027
19058W        W84043  16.216  25.030   4.307
19059W        W84044  13.823  40.111  10.784
19060W        W84045  39.286  36.668   3.376
19061W        W84046  41.996  21.571  10.073
19062W        W84047  34.998  35.116   4.208
19063W        W84048  20.710  32.218   4.307
19064W        W84049  23.043   9.662   2.901
19065W        W84050   0.857  43.684  13.619
19066W        W84051   5.439   9.845  10.561
19067W        W84052   4.948  23.433   2.373
19068W        W84053  15.632  37.759   3.822
19069W        W84054  19.164  19.444  13.946
19070W        W84055  36.972  33.458   4.456
19071W        W84056   4.383  16.499   4.593
19072W        W84057  31.361  29.770  12.045
19073W        W84058   4.706  38.332   3.289
19074W        W84059  26.261  44.870   5.097
19075W        W84060   6.586   1.304   4.796
19076W        W84061  40.691  41.843   0.313
19077W        W84062  33.396  21.792   4.018
19078W        W84063  40.550   7.637  10.418
19079W        W84064  30.848   4.811  10.608
19080W        W84065  13.413  22.315  10.826
19081W        W84066  37.312  15.579  13.014
19082W        W84067  33.462   4.862  12.833
19083W        W84068  21.794  18.796  14.870
19084W        W84069  25.030   8.509   1.684
19085W        W84070  37.103   0.242   4.251
19086W        W84071  19.728  39.961   1.991
19087W        W84072  23.423  32.324   1.790
19088W        W84073  16.098  32.066  14.447
19089W        W84074  42.896  39.322   1.291
19090W        W84075  27.992  37.099  10.753
19091W        W84076  16.774   2.308  13.529
19092W        W84077   1.993   7.685  11.625
19093W        W84078   4.234  32.814   3.672
19094W        W84079  17.986  23.436   3.617
19095W        W84080  36.172  37.437  12.221
19096W        W84081   0.208  43.934   1.725
19097W        W84082  15.657  23.908  12.225
19098W        W84083   2.798   4.634  14.292
19099W        W84084  43.455  39.831   1.418
19100W        W84085  38.345  16.573   2.363
19101W        W84086  41.519  27.546   3.624
19102W        W84087  14.829  43.970  11.718
19103W        W84088  38.967  26.645  11.581
19104W        W84089  32.876  33.848   4.511
19105W        W84090  39.349  19.891   0.389
19106W        W84091  23.662  20.116   3.487
19107W        W84092   4.807  42.875  12.561
19108W        W84093  14.712   6.308   2.022
19109W        W84094  21.166   1.727  10.711
19110W        W84095  41.719   3.198   4.098
19111W        W84096  38.877  14.678  12.604
19112W        W84097  29.431  30.155   2.280
19113W        W84098  38.004  31.591  11.645
19114W        W84099  29.685  31.925  13.310
19115W        W84100   4.166   5.107   2.335
19116W        W84101   4.302  10.604   1.416
19117W        W84102  32.415  31.151  13.951
19118W        W84103  19.578  37.921  11.480
19119W        W84104   3.530  42.283  12.534
19120W        W84105  19.229   5.954   2.822
19121W        W84106  20.838   9.630   2.656
19122W        W84107  26.059   4.381   0.224
19123W        W84108  14.833   2.362   1.328
19124W        W84109  28.396  12.299  10.844
19125W        W84110  28.052   2.155  13.389
19126W        W84111  26.681  42.278  12.182
19127W        W84112  15.007   9.407   2.750
19128W        W84113  43.880  43.794  10.641
19129W        W84114  25.616  11.628  11.525
19130W        W84115  16.856  41.798  13.009
19131W        W84116  35.531   5.484  14.835
19132W        W84117   5.214   7.232   2.388
19133W        W84118  36.221  36.434  11.372
19134W        W84119   6.817  27.008   4.837
19135W        W84120  10.943  31.116   2.592
19136W        W84121  42.012  37.916  12.523
19137W        W84122   6.262  43.685   1.451
19138W        W84123  30.962  32.607  12.006
19139W        W84124  12.342  26.455   1.096
19140W        W84125   9.308  42.262   1.164
19141W        W84126  42.618  29.260  13.322
19142W        W84127  12.780   2.866  11.286
19143W        W84128  33.204   1.683   1.730
19144W        W84129   2.187   1.212   0.893
19145W        W84130  22.557  10.788   3.382
19146W        W84131  40.077  21.237   3.693
19147W        W84132  14.348   8.231  13.018
19148W        W84133   2.920  15.783   0.308
19149W        W84134   3.946  11.150   0.414
19150W        W84135  23.069  11.688   3.682
19151W        W84136  42.925   2.926   2.465
19152W        W84137  31.186   2.329  11.425
19153W        W84138  44.059  33.918   1.844
19154W        W84139  32.003  17.144  12.149
19155W        W84140   4.220  33.884   3.750
19156W        W84141  17.050  43.378  14.165
19157W        W84142  36.843  13.707   2.203
19158W        W84143   3.943   0.459  11.108
19159W        W84144   2.873  33.210  11.075
19160W        W84145  28.073   7.468  11.212
19161W        W84146  31.390   8.920  11.085
19162W        W84147  22.230   5.753   3.489
19163W        W84148  18.805   2.328   3.229
19164W        W84149   9.225  12.623  10.806
19165W        W84150  32.059   7.106   4.366
19166W        W84151  42.225  16.131   4.463
19167W        W84152  40.256  12.640  11.933
19168W        W84153  14.130   6.986   4.630
19169W        W84154  11.690   5.003  12.587
19170W        W84155  20.091   0.208   0.258
19171W        W84156  10.187  27.586   4.690
19172W        W84157  25.063  16.358   3.335
19173W        W84158  24.325  17.145   0.278
19174W        W84159  13.248  20.968  12.073
19175W        W84160  38.560  36.419   1.793
19176W        W84161  24.864  41.865  14.994
19177W        W84162   5.080  41.078   4.383
19178W        W84163  26.990  37.911   1.418
19179W        W84164   3.865   1.946  12.607
19180W        W84165  43.568  12.313   3.689
19181W        W84166  44.020  15.358  13.921
19182W        W84167  42.712  36.066  12.658
19183W        W84168   4.899   1.241  11.656
19184W        W84169  22.601  44.081   2.964
19185W        W84170  22.714   9.276   4.285
19186W        W84171  38.996  24.168  14.305
19187W        W84172  14.981  16.023   0.296
19188W        W84173  29.986  14.633   2.168
19189W        W84174  22.612  19.039  14.309
19190W        W84175  15.190   1.818  13.294
19191W        W84176  35.854  11.663  14.200
19192W        W84177  13.650  38.815  12.509
19193W        W84178  14.541   3.886   0.237
19194W        W84179   2.910  40.846  14.397
19195W        W84180  37.750  29.248  11.827
19196W        W84181  13.651  36.554   4.129
19197W        W84182  37.029   4.190   3.600
19198W        W84183   7.728  43.401   1.466
19199W        W84184  36.832   9.827  14.460
19200W        W84185  31.225  12.458   2.307
19201W        W84186  11.317  19.824  12.918
19202W        W84187  15.751  25.990   2.329
19203W        W84188  16.260  37.665  11.880
19204W        W84189  40.495  37.985   4.254
19205W        W84190  25.676   5.403  11.151
19206W        W84191  24.734  20.177  13.096
19207W        W84192  29.176  21.817   1.924
19208W        W84193  42.735  40.549  11.502
19209W        W84194   2.461  43.500  14.251
19210W        W84195  39.254  34.580   2.265
19211W        W84196  38.115  44.278  13.407
19212W        W84197  31.524   6.996   2.686
19213W        W84198  34.555  24.546   0.032
19214W        W84199  14.372  12.983  14.752
19215W        W84200  17.664  24.529  11.030
19216W        W84201   9.929  27.540  11.232
19217W        W84202  27.258   1.287  14.632
19218W        W84203   4.298  34.328  14.412
19219W        W84204  15.911  32.155   0.845
19220W        W84205  12.322  17.548   0.707
19221W        W84206  34.910  17.997   9.853
19222W        W84207  24.622  43.351   1.763
19223W        W84208  19.818  20.273   0.250
19224W        W84209  25.822  38.470  11.341
19225W        W84210  19.015  29.458   4.091
19226W        W84211   3.196  37.103  12.859
19227W        W84212  30.595  13.285  13.846
19228W        W84213   6.966   6.675   2.869
19229W        W84214   2.174   5.239   0.741
19230W        W84215  10.468  25.550  10.393
19231W        W84216   3.487  38.033   2.374
19232W        W84217  29.762  17.057  13.086
19233W        W84218  23.828  39.919   0.796
19234W        W84219  16.437  20.115  14.521
19235W        W84220  18.051  15.379  11.932
19236W        W84221  28.677  41.207  13.987
19237W        W84222   0.676  29.632  11.370
19238W        W84223  44.812  30.339   2.251
19239W        W84224   3.733  42.211  14.389
19240W        W84225  11.401   1.266   0.345
19241W        W84226  35.417  35.400   2.758
19242W        W84227  20.545  23.115   3.587
19243W        W84228  14.156  17.772   1.687
19244W        W84229  19.732  21.986   3.124
19245W        W84230  27.168  34.707   0.863
19246W        W84231  20.287  27.549   0.708
19247W        W84232  41.885  41.390  12.874
19248W        W84233  26.997  38.026   2.871
19249W        W84234  44.354  31.895   0.282
19250W        W84235  27.509  14.365  13.923
19251W        W84236   1.759   2.249   0.048
19252W        W84237  18.182  10.225   4.741
19253W        W84238  23.437  39.982   4.365
19254W        W84239  10.837  27.892  13.374
19255W        W84240  40.448  31.692  13.356
19256W        W84241  25.506  10.824  14.406
19257W        W84242  15.104  40.455   4.278
19258W        W84243   2.458  16.371   1.036
19259W        W84244   7.146  12.748   0.411
19260W        W84245  33.349   9.764   1.929
19261W        W84246  18.377  26.184  12.364
19262W        W84247  16.720  39.741  12.544
19263W        W84248  11.358  34.684   0.238
19264W        W84249  40.785  35.011  14.779
19265W        W84250   4.688  27.232  11.489
19266W        W84251   4.945  41.890   2.663
19267W        W84252  16.176  38.395  11.130
19268W        W84253  12.328  18.715   3.258
19269W        W84254   3.707  37.094  13.038
19270W        W84255   5.758  37.888  14.220
19271W        W84256  23.191  28.512   0.771
19272W        W84257  13.298  33.353  13.832
19273W        W84258  19.740   9.690   1.257
19274W        W84259  41.546  22.114  10.656
19275W        W84260  26.469  15.408  14.158
19276W        W84261  21.153  37.847  14.388
19277W        W84262  24.736  34.605  14.865
19278W        W84263  19.154   3.475  13.736
19279W        W84264  40.459  17.036   1.339
19280W        W84265  29.575  29.556  13.437
19281W        W84266  39.555   1.490  12.025
19282W        W84267  10.544  42.283   0.335
19283W        W84268  13.356  37.440   4.058
19284W        W84269  34.293   4.375  12.469
19285W        W84270   4.972   1.788   2.218
19286W        W84271   0.626  14.749   2.772
19287W        W84272  14.439  37.505  11.947
19288W        W84273  39.544  37.959   2.932
19289W        W84274  10.255  29.137  12.064
19290W        W84275  31.144  28.634   3.271
19291W        W84276   8.562  37.835  12.578
19292W        W84277   2.927  21.203   1.951
19293W        W84278  29.571  33.659   4.646
19294W        W84279  33.570  21.096   3.286
19295W        W84280  24.592  42.314   1.672
19296W        W84281   6.914  28.867   2.642
19297W        W84282  10.862  10.312   1.032
19298W        W84283  26.729  19.530  10.363
19299W        W84284  25.547  28.492   4.681
19300W        W84285  10.574   0.117  12.259
19301W        W84286  34.174   1.334  14.425
19302W        W84287  36.922   1.324  12.890
19303W        W84288   0.414  33.604  12.790
19304W        W84289   6.080   0.464   2.157
19305W        W84290  12.590  35.432  14.561
19306W        W84291  30.645  36.139  13.113
19307W        W84292  12.668   6.358  11.119
19308W        W84293   0.008  18.677  13.626
19309W        W84294   7.594  25.128   3.655
19310W        W84295  39.006   7.424  12.090
19311W        W84296  35.500  37.885   0.004
19312W        W84297  33.360  39.050   0.777
19313W        W84298  24.004  39.937   2.692
19314W        W84299   3.651  40.471   4.546
19315W        W84300  29.589   2.354   2.694
19316W        W84301  20.356  36.086   2.402
19317W        W84302  25.969  40.794  14.865
19318W        W84303  29.426   5.406  12.656
19319W        W84304  36.055   4.307   3.176
19320W        W84305   5.144  21.635  12.399
19321W        W84306  42.299  13.170   3.173
19322W        W84307  25.875  26.507   4.581
19323W        W84308  38.073   3.753   1.866
19324W        W84309  13.722  32.082  13.225
19325W        W84310   5.218  30.727  11.796
19326W        W84311   3.060  26.004  11.187
19327W        W84312  36.528  13.857   0.461
19328W        W84313  10.250   0.048   2.554
19329W        W84314  18.372  32.160  12.407
19330W        W84315  38.191  26.301   2.773
19331W        W84316  13.664  10.839  12.572
19332W        W84317   1.488  12.395  14.587
19333W        W84318  32.921  30.842   3.746
19334W        W84319  25.839  40.093   0.912
19335W        W84320  39.957  33.853  13.944
19336W        W84321   6.758  32.481  11.616
19337W        W84322   3.166   6.466   4.142
19338W        W84323  28.370  20.242  14.006
19339W        W84324  43.111  19.748   9.974
19340W        W84325  31.409   8.250   1.259
19341W        W84326  36.354  43.471   1.423
19342W        W84327   9.639  11.300   2.350
19343W        W84328  41.023  25.212  13.001
19344W        W84329   0.309   5.866  12.542
19345W        W84330  25.217  17.281   4.949
19346W        W84331  25.485  14.196  13.859
19347W        W84332  18.357  13.633   1.243
19348W        W84333  34.908  19.966   0.438
19349W        W84334  25.490  26.401   3.649
19350W        W84335  31.559  14.689  13.310
19351W        W84336   7.101  17.976   3.777
19352W        W84337  18.327  41.532   4.651
19353W        W84338  26.628  27.640  10.309
19354W        W84339  12.260  37.329   0.717
19355W        W84340  29.115  42.319  12.922
19356W        W84341   9.759  26.677  14.861
19357W        W84342  22.878   0.320  10.863
19358W        W84343  29.528  37.178   1.863
19359W        W84344  17.805  17.133  12.204
19360W        W84345  13.827   9.171  11.905
19361W        W84346  21.959  21.046  12.431
19362W        W84347  29.480   9.205   1.290
19363W        W84348  18.090  23.796   2.188
19364W        W84349  30.939   0.566   4.267
19365W        W84350  22.270  44.522   4.696
19366W        W84351  21.639  26.604   3.159
19367W        W84352   5.451   0.057   4.142
19368W        W84353  42.462   6.988   4.098
19369W        W84354   5.837   0.238   1.759
19370W        W84355  10.190  24.730  13.751
19371W        W84356  22.537  30.019  13.906
19372W        W84357  38.261   9.391  12.941
19373W        W84358  14.810  20.021  10.815
19374W        W84359  41.823   4.348  13.935
19375W        W84360  26.872   5.431  12.143
19376W        W84361  40.290  21.533  12.829
19377W        W84362  28.625  38.464   4.778
19378W        W84363   7.268  28.449   1.692
19379W        W84364  16.274  41.023   0.503
19380W        W84365  38.709  35.324  14.269
19381W        W84366   4.921  26.939   4.585
19382W        W84367  31.681  16.070   0.264
19383W        W84368   4.842  28.324   1.264
19384W        W84369  36.882  21.786   0.045
19385W        W84370  14.827  43.116   9.887
19386W        W84371  32.513  26.640  11.276
19387W        W84372   6.372  29.573  14.863
19388W        W84373  28.105  40.438   1.492
19389W        W84374   0.957  39.895  11.665
19390W        W84375  18.692  37.053   1.774
19391W        W84376  24.274  11.221   3.384
19392W        W84377  32.964  28.960   2.362
19393W        W84378   6.744  18.982   1.422
19394W        W84379  26.873   3.563   1.848
19395W        W84380   6.762   4.163   4.866
19396W        W84381   8.586  11.987   4.436
19397W        W84382  24.015   1.831  13.995
19398W        W84383  35.830  15.835  11.895
19399W        W84384  22.292  37.329  11.584
19400W        W84385  12.642  43.958   1.119
19401W        W84386  20.830   6.748  11.111
19402W        W84387  33.029   0.822   4.587
19403W        W84388  44.916  39.307   1.452
19404W        W84389  26.198  43.942   5.006
19405W        W84390  18.980  26.921  11.573
19406W        W84391  39.901  31.830   2.734
19407W        W84392  17.694   8.776  14.766
19408W        W84393  40.564  36.541  10.457
19409W        W84394  16.501   8.674  13.761
19410W        W84395  20.815  17.640   0.556
19411W        W84396  38.954  23.011   2.226
19412W        W84397  29.271  37.335  12.001
19413W        W84398   6.877   9.527   2.820
19414W        W84399  25.958  18.579   0.832
19415W        W84400   6.176   0.993   4.694
19416W        W84401  17.442  24.133  12.866
19417W        W84402   6.507  33.427  14.299
19418W        W84403  35.932  33.025  11.747
19419W        W84404   4.641  27.231   0.311
19420W        W84405   8.595  30.301  13.798
19421W        W84406  11.716   6.695   3.163
19422W        W84407  15.949   7.727  13.943
19423W        W84408  18.663  42.918  12.493
19424W        W84409  36.497  14.822  11.510
19425W        W84410  29.268   8.751   0.295
19426W        W84411  29.489   3.865  14.469
19427W        W84412  15.735  16.688   0.198
19428W        W84413  41.550  19.744   4.902
19429W        W84414  26.917  25.120   4.625
19430W        W84415  24.583  44.334   3.782
19431W        W84416  18.791  24.473   4.312
19432W        W84417  22.286  22.077   1.867
19433W        W84418  25.569   8.245  14.888
19434W        W84419  35.351  41.547   1.439
19435W        W84420   0.805  24.351   4.130
19436W        W84421  17.694   3.298  14.930
19437W        W84422  20.700  33.454   2.708
19438W        W84423  38.507  13.567   3.026
19439W        W84424  17.973  42.881  10.702
19440W        W84425  21.488  20.690  14.451
19441W        W84426  37.839   5.979  11.961
19442W        W84427  36.208  12.077  14.971
19443W        W84428  12.658  13.871   4.157
19444W        W84429  39.016   2.523   0.882
19445W        W84430  16.189  34.823  14.801
19446W        W84431  25.284  41.802   1.212
19447W        W84432   9.841  17.441   4.636
19448W        W84433  20.179  31.613   4.859
19449W        W84434   1.790   2.167  14.525
19450W        W84435  18.501  14.678  12.602
19451W        W84436  40.059  12.618   1.409
19452W        W84437  14.753  43.044  14.494
19453W        W84438   5.229  30.814  12.933
19454W        W84439  11.692   5.881   2.831
19455W        W84440  44.002   3.615  14.536
19456W        W84441  26.510   4.679  13.771
19457W        W84442  35.656  34.909  11.521
19458W        W84443  38.796   7.336  10.387
19459W        W84444  40.907  38.961  14.374
19460W        W84445  16.529  32.841   0.749
19461W        W84446  17.304  28.497   2.216
19462W        W84447   5.925  17.270   0.772
19463W        W84448  16.862  28.748   0.426
19464W        W84449  39.834   4.241   3.147
19465W        W84450  15.905  33.023   9.976
19466W        W84451   2.834  37.037  13.372
19467W        W84452  42.394  30.800  10.619
19468W        W84453  11.667  12.135   3.918
19469W        W84454  24.601  18.527   2.133
19470W        W84455   0.817  41.825  10.652
19471W        W84456  37.502  17.278   4.371
19472W        W84457  31.547   9.134  11.918
19473W        W84458   4.225  17.720   2.728
19474W        W84459  11.284  35.570  14.906
19475W        W84460  19.248   9.187   2.689
19476W        W84461  10.196  33.707   1.846
19477W        W84462  42.705  19.682  12.455
19478W        W84463  32.686   5.244  12.831
19479W        W84464  26.571  37.110  14.926
19480W        W84465  43.241  15.365  12.602
19481W        W84466   7.933   2.490  12.663
19482W        W84467  24.423   6.190   1.422
19483W        W84468  43.350   0.668  11.141
19484W        W84469  41.538  41.784  11.055
19485W        W84470  35.485  13.339   0.737
19486W        W84471   9.962  11.334   0.392
19487W        W84472   0.928  18.344   1.863
19488W        W84473  20.791  42.796  14.491
19489W        W84474  29.352  44.509  10.757
19490W        W84475   9.235   9.202  13.557
19491W        W84476  12.047  14.708   4.770
19492W        W84477  32.690  21.249   1.378
19493W        W84478  33.645  18.754   1.167
19494W        W84479  34.288  36.922   1.757
19495W        W84480  16.671  23.110  10.888
19496W        W84481  14.252  34.804  14.470
19497W        W84482  20.891   8.776   4.136
19498W        W84483   7.528  40.105   4.574
19499W        W84484  33.544  19.319  13.111
19500W        W84485  41.694  34.078   2.324
19501W        W84486  34.579  34.914  12.070
19502W        W84487  10.962  18.655  10.620
19503W        W84488  44.271  25.738  12.017
19504W        W84489  44.799  16.178   3.246
19505W        W84490  36.736  29.639  13.307
19506W        W84491  39.462  28.123  13.573
19507W        W84492  36.980  32.389  10.722
19508W        W84493  19.303  25.987  12.393
19509W        W84494  32.032  21.122   2.720
19510W        W84495  10.165   1.675   1.740
19511W        W84496  17.545  24.597  10.533
19512W        W84497  20.372  39.811   1.999
19513W        W84498  13.293  25.936  14.972
19514W        W84499  39.280  42.992   2.247
19515W        W84500  35.614  22.240   3.253
19516W        W84501   7.339  15.818   0.744
19517W        W84502  10.150  27.574   0.724
19518W        W84503  42.086   4.342   4.322
19519W        W84504  17.258  21.665   0.260
19520W        W84505  36.650  36.843   3.832
19521W        W84506  12.941  43.878  12.799
19522W        W84507   7.480  11.827  14.277
19523W        W84508  44.240  36.476  10.074
19524W        W84509   1.885  22.361  13.799
19525W        W84510  40.296  16.004   1.192
19526W        W84511   6.691  10.841   4.067
19527W        W84512  23.195  25.924   2.103
19528W        W84513   2.029  37.919  13.878
19529W        W84514  22.673  11.197  14.425
19530W        W84515  31.937  30.737  11.258
19531W        W84516   9.422  11.768   1.225
19532W        W84517   4.596   4.414   2.138
19533W        W84518  27.600  43.777   0.818
19534W        W84519   1.068  36.921   2.778
19535W        W84520  13.021   6.149   1.439
19536W        W84521  31.143   6.269   3.553
19537W        W84522   3.400   3.252  12.388
19538W        W84523  13.653  43.718   4.110
19539W        W84524  29.149  25.032   0.676
19540W        W84525  20.123  16.185  11.557
19541W        W84526  31.928   7.303  12.502
19542W        W84527  22.174  27.726  12.421
19543W        W84528  29.604   4.200  11.811
19544W        W84529  42.919  16.873  14.986
19545W        W84530  43.378  41.204  11.689
19546W        W84531   9.277  18.729  11.581
19547W        W84532   7.126  24.193   3.656
19548W        W84533  34.472  13.035   4.244
19549W        W84534  17.392  17.595   4.539
19550W        W84535  20.451   5.064   1.769
19551W        W84536  28.527  33.831  14.655
19552W        W84537  11.240   9.116  13.548
19553W        W84538  30.130  43.301  10.909
19554W        W84539  20.097  36.441  14.197
19555W        W84540   5.645  12.628   4.713
19556W        W84541  12.973  42.532   3.165
19557W        W84542   8.740  25.524  12.772
19558W        W84543  29.922   1.479  13.565
19559W        W84544  33.192   6.764   2.813
19560W        W84545  23.137  15.216   3.551
19561W        W84546  10.340  20.033   2.737
19562W        W84547  24.237  32.025   2.762
19563W        W84548  10.150  19.185   4.918
19564W        W84549   6.086  42.036   3.023
19565W        W84550  20.083  25.743   0.459
19566W        W84551  19.849  31.380   1.358
19567W        W84552  37.935  38.990  10.700
19568W        W84553   1.018   9.784  12.496
19569W        W84554  18.071  28.595  12.462
19570W        W84555  31.093  14.748   4.542
19571W        W84556  35.312   5.851   2.645
19572W        W84557   7.084   7.714  11.622
19573W        W84558  38.576  44.445  12.440
19574W        W84559  44.754  35.668  11.983
19575W        W84560  40.833  24.685  14.323
19576W        W84561  44.872   1.633   2.997
19577W        W84562  18.100   4.449  11.999
19578W        W84563   7.398  33.865  10.743
19579W        W84564  22.031  38.591   1.230
19580W        W84565  14.983  11.354   2.784
19581W        W84566  38.847  34.031  13.767
19582W        W84567  12.447   1.266  12.578
19583W        W84568  30.273  33.086   9.436
19584W        W84569  23.698  35.470   1.740
19585W        W84570  18.615  13.108  11.758
19586W        W84571  15.988  25.147   1.149
19587W        W84572  16.213   9.798  14.552
19588W        W84573  30.163   4.947   2.211
19589W        W84574  26.920   2.306   2.549
19590W        W84575  15.162  34.821  11.923
19591W        W84576  15.399   3.986  11.432
19592W        W84577  40.248  10.277  12.429
19593W        W84578  25.232   8.842  14.947
19594W        W84579   5.034  22.499   4.090
19595W        W84580  22.139  21.793   3.275
19596W        W84581  13.850   0.630   0.741
19597W        W84582  32.457  33.879   3.346
19598W        W84583  18.533  22.985   0.264
19599W        W84584  30.597   4.040  11.235
19600W        W84585  25.406  43.844  13.957
19601W        W84586  22.802   4.315  14.386
19602W        W84587  36.578   6.301  11.370
19603W        W84588  44.422   0.802  13.848
19604W        W84589  20.254  40.469  13.347
19605W        W84590  15.315  14.285  13.318
19606W        W84591   6.674   3.504   5.340
19607W        W84592  27.705  36.914   3.293
19608W        W84593   4.632  27.696   0.011
19609W        W84594  37.424  23.026  12.527
19610W        W84595  11.218  11.573   4.607
19611W        W84596  43.250   3.776   4.684
19612W        W84597  18.003  37.493  13.824
19613W        W84598  43.574  43.365   2.239
19614W        W84599  26.946  31.571  12.122
19615W        W84600  21.502  32.681  11.190
19616W        W84601  44.501   0.692  11.581
19617W        W84602  32.602  43.341   2.588
19618W        W84603  20.033   8.606  13.092
19619W        W84604   6.992  29.109  11.879
19620W        W84605  31.926  39.026   1.808
19621W        W84606  15.897  24.469   1.857
19622W        W84607  44.755  37.177  12.360
19623W        W84608  14.755  30.896  11.708
19624W        W84609  41.377  10.089  10.756
19625W        W84610  17.170  34.912  14.489
19626W        W84611  37.878  25.948  14.469
19627W        W84612  26.113  24.454   0.919
19628W        W84613  44.041  38.059  11.193
19629W        W84614  38.855  25.699   1.784
19630W        W84615  44.502   8.404  13.806
19631W        W84616  30.072   1.933   1.369
19632W        W84617  44.726  21.664  12.503
19633W        W84618  16.964   3.384  13.025
19634W        W84619   6.681  12.343   2.271
19635W        W84620  16.146  29.264  11.102
19636W        W84621  11.864  11.688  13.039
19637W        W84622  18.574  39.061   3.814
19638W        W84623  31.162  27.638   0.666
19639W        W84624  41.816  18.566  12.534
19640W        W84625  24.718  36.439  12.309
19641W        W84626  11.398  11.705   1.781
19642W        W84627  31.033  28.570  13.061
19643W        W84628  22.661   9.700   0.191
19644W        W84629  21.659  38.545  12.584
19645W        W84630   0.753  27.342   5.014
19646W        W84631  31.412  28.959  12.509
19647W        W84632  21.374  25.263  11.149
19648W        W84633   9.923  26.216  14.035
19649W        W84634   3.549  13.304  10.623
19650W        W84635  18.928  41.713   4.461
19651W        W84636  12.821  29.035  14.930
19652W        W84637  20.524  11.765  13.233
19653W        W84638  22.575  42.911  14.939
19654W        W84639  15.191  34.324  14.497
19655W        W84640  21.300   8.221   4.920
19656W        W84641  43.449   0.174  11.250
19657W        W84642  43.998  28.179   5.464
19658W        W84643  14.966  40.312   1.628
19659W        W84644  35.445  38.407   4.681
19660W        W84645  29.299  32.508  13.520
19661W        W84646  28.981  34.671   3.385
19662W        W84647  29.578  40.849  12.947
19663W        W84648  32.172  10.239   0.410
19664W        W84649  37.953  33.003   0.031
19665W        W84650   7.228  19.430   3.976
19666W        W84651   4.448  37.862   0.024
19667W        W84652  36.686  40.222  14.562
19668W        W84653  23.158  39.350  14.682
19669W        W84654  15.104   8.906   2.686
19670W        W84655  15.143  35.862   4.207
19671W        W84656   7.078  30.710   4.093
19672W        W84657  21.063  23.994  13.894
19673W        W84658  23.290  43.872   3.684
19674W        W84659  25.333  21.332   4.263
19675W        W84660  19.796  16.432  10.727
19676W        W84661  20.238  26.047  12.552
19677W        W84662  42.149   8.207  10.832
19678W        W84663  41.448   5.934   2.638
19679W        W84664  41.519  44.893   2.184
19680W        W84665  37.910   9.894  13.922
19681W        W84666  38.992  28.531   0.696
19682W        W84667  11.789   6.210  10.269
19683W        W84668   3.324  17.283  13.055
19684W        W84669   2.209  29.938  12.923
19685W        W84670   0.963  31.093  11.680
19686W        W84671  18.734  36.482  13.309
19687W        W84672  18.808   1.240  10.973
19688W        W84673  28.107  20.242   4.979
19689W        W84674  41.198  43.747  13.898
19690W        W84675  28.172  38.434  12.078
19691W        W84676  19.927   9.912  12.288
19692W        W84677  39.412  39.001   3.282
19693W        W84678  24.144  15.850  12.593
19694W        W84679  32.561   1.494  11.554
19695W        W84680  22.078  23.771   1.918
19696W        W84681   7.280  41.398   3.747
19697W        W84682   1.310  24.975  10.751
19698W        W84683   5.059  20.709  14.394
19699W        W84684  25.445  19.560  13.827
19700W        W84685   9.004  17.948   3.391
19701W        W84686  23.217  21.235   3.838
19702W        W84687  28.527   6.971  10.804
19703W        W84688   3.013  32.910   3.538
19704W        W84689  40.290   1.815  13.440
19705W        W84690   0.371  35.844  12.061
19706W        W84691  28.535  10.182  12.671
19707W        W84692  25.578  10.095  14.896
19708W        W84693  27.328  28.915   3.626
19709W        W84694  31.391  25.254   4.698
19710W        W84695  16.373   8.233   0.010
19711W        W84696  29.223  42.004   4.233
19712W        W84697  11.935  18.348  11.560
19713W        W84698  13.769   7.099   0.501
19714W        W84699  41.785  22.574  10.673
19715W        W84700  38.945  41.487  10.264
19716W        W84701   2.306   7.319  14.540
19717W        W84702  18.706  24.379  11.118
19718W        W84703  20.698  34.816  14.698
19719W        W84704  37.419  43.979  14.877
19720W        W84705  43.747  22.906  10.702
19721W        W84706  39.749  35.894   5.645
19722W        W84707   1.843  12.170   3.631
19723W        W84708  20.515   4.784   4.115
19724W        W84709   6.821  16.727  12.817
19725W        W84710  39.392   6.233  12.055
19726W        W84711   5.838   8.998   2.324
19727W        W84712   8.817  43.884   1.754
19728W        W84713   8.482  36.702  11.940
19729W        W84714  35.572   1.239   4.055
19730W        W84715  29.194  20.763   0.421
19731W        W84716  20.033  32.303   1.397
19732W        W84717  19.952  32.108   0.925
19733W        W84718   3.100  43.657   2.179
19734W        W84719  44.281   3.912   3.838
19735W        W84720  30.937  11.589   3.583
19736W        W84721  21.608   7.726  14.886
19737W        W84722  36.042  36.395  14.440
19738W        W84723  21.523  15.527  11.655
19739W        W84724  30.009  33.874  11.058
19740W        W84725  22.636   9.600   2.596
19741W        W84726   5.727  42.454   4.806
19742W        W84727  35.259  38.139   2.205
19743W        W84728  29.478  21.799  11.002
19744W        W84729   4.985  26.863   0.220
19745W        W84730   3.498  29.343   1.756
19746W        W84731   6.748  15.643  11.745
19747W        W84732  36.107   6.949   3.147
19748W        W84733  32.346  28.217   9.842
19749W        W84734   6.665  36.794  11.817
19750W        W84735   3.521  38.153   3.830
19751W        W84736   7.727  33.862   1.293
19752W        W84737  26.531  11.223   0.908
19753W        W84738   5.130   3.776   0.327
19754W        W84739  34.954  39.882  11.741
19755W        W84740  22.037  26.436  12.168
19756W        W84741  39.299  41.950  12.567
19757W        W84742  38.418   2.645   2.624
19758W        W84743  40.308  32.459  12.044
19759W        W84744  12.724   9.251   1.297
19760W        W84745  29.163  23.618   4.101
19761W        W84746  26.339  23.036   0.971
19762W        W84747  36.362  25.860  11.213
19763W        W84748  42.469  16.692  12.308
19764W        W84749  42.119  16.294  13.660
19765W        W84750  15.501  10.076   4.951
19766W        W84751  24.663  24.758   3.783
19767W        W84752  21.246  34.974   2.043
19768W        W84753   7.617  43.547  13.457
19769W        W84754  32.357   4.355  10.565
19770W        W84755   9.697  24.949  14.495
19771W        W84756  22.863  43.667   2.783
19772W        W84757   0.319  31.933  11.066
19773W        W84758  29.877  31.388   1.764
19774W        W84759   6.261  27.393  12.946
19775W        W84760  31.139  16.767  14.208
19776W        W84761  36.069  38.286   4.275
19777W        W84762  38.065   4.143  14.653
19778W        W84763  31.853  18.473  11.569
19779W        W84764  14.316  16.666   0.377
19780W        W84765   0.247  33.481  10.964
19781W        W84766  43.858  31.171  11.180
19782W        W84767  14.688  25.027  10.784
19783W        W84768  41.023  43.412   0.193
19784W        W84769   1.155  37.524   4.963
19785W        W84770  41.037  17.583   2.362
19786W        W84771  42.921  43.739   1.486
19787W        W84772  27.153   1.331   0.494
19788W        W84773  30.091  40.359   1.731
19789W        W84774  20.780  43.361  10.719
19790W        W84775   7.415  23.500  10.758
19791W        W84776  21.286  28.491  14.338
19792W        W84777  18.073   2.927   0.339
19793W        W84778   4.565  12.965  14.060
19794W        W84779  18.640  38.461  13.952
19795W        W84780  36.111  16.821   0.888
19796W        W84781   5.222  18.639   1.871
19797W        W84782  19.312  16.843  11.478
19798W        W84783  18.383  18.092   4.027
19799W        W84784  37.824   2.250  10.767
19800W        W84785  33.499  15.262  12.209
19801W        W84786  38.947  13.269   2.715
19802W        W84787  17.583   5.362   2.946
19803W        W84788   1.257   7.575  10.851
19804W        W84789   9.835  28.644   4.108
19805W        W84790  39.527   8.629   1.688
19806W        W84791  29.438   1.755  11.739
19807W        W84792  33.399  44.504  10.940
19808W        W84793  43.472   5.029   3.664
19809W        W84794  28.504  20.539   3.561
19810W        W84795  30.175  41.569  12.422
19811W        W84796  39.789  27.075   4.003
19812W        W84797   1.379  11.100   1.198
19813W        W84798  10.672   6.347   0.823
19814W        W84799  41.963   2.878   1.466
19815W        W84800  36.337  34.370  13.856
19816W        W84801   7.055  31.940  14.597
19817W        W84802  32.891  23.009   0.284
19818W        W84803  25.201   3.836   1.022
19819W        W84804   7.045  10.328   4.970
19820W        W84805  21.784   8.649   2.239
19821W        W84806   8.294   6.998   3.106
19822W        W84807  16.287  32.865  13.963
19823W        W84808  12.931  20.890  11.427
19824W        W84809  20.896  13.178   4.659
19825W        W84810  41.425  33.038   1.782
19826W        W84811  11.738  35.335   3.343
19827W        W84812  30.925  40.515   4.524
19828W        W84813   4.770  30.221   1.854
19829W        W84814   5.633  27.559   0.221
19830W        W84815  32.317  32.893   3.162
19831W        W84816   5.956  28.769  11.907
19832W        W84817  41.521  14.322  14.082
19833W        W84818  35.935  27.089   0.008
19834W        W84819  19.634  34.943  12.710
19835W        W84820  23.621  24.939   0.486
19836W        W84821  42.329  15.239   2.715
19837W        W84822  16.449  19.664   1.891
19838W        W84823  18.261  18.697   0.776
19839W        W84824   6.082  15.621   2.699
19840W        W84825  42.747  12.566   1.634
19841W        W84826   6.222  16.117  10.682
19842W        W84827  25.973   4.485  11.544
19843W        W84828  23.491  40.757   2.610
19844W        W84829  22.070  24.189  13.845
19845W        W84830  18.652  40.625  13.875
19846W        W84831  11.121  19.793   1.702
19847W        W84832  16.617  38.420  14.751
19848W        W84833  23.621  43.578  13.448
19849W        W84834  36.421  24.447  11.363
19850W        W84835  18.983  44.246  13.818
19851W        W84836  37.983  20.304  14.875
19852W        W84837   2.299  39.458   3.123
19853W        W84838  25.451  34.544  12.748
19854W        W84839  21.616  25.720  10.722
19855W        W84840  44.717  39.484   4.073
19856W        W84841  18.823   0.812   3.118
19857W        W84842  38.906  10.343   3.215
19858W        W84843  10.335  38.959  10.471
19859W        W84844  25.312  11.675  14.986
19860W        W84845  43.805   2.706   0.307
19861W        W84846  31.088  12.049   2.636
19862W        W84847  20.259  41.885  11.711
19863W        W84848  32.005   1.555   1.232
19864W        W84849   1.599   7.714   2.241
19865W        W84850   7.364  35.683  11.170
19866W        W84851  13.688  40.965  13.787
19867W        W84852   1.321  19.631   2.965
19868W        W84853  28.464   3.879   4.269
19869W        W84854  34.406  44.474   1.432
19870W        W84855  28.715  18.966  13.867
19871W        W84856  34.444  30.202  10.685
19872W        W84857  44.081  10.728   3.734
19873W        W84858  29.699  15.735   3.218
19874W        W84859  11.223   2.856  12.374
19875W        W84860  43.672   4.010  14.682
19876W        W84861  41.790  14.554  11.118
19877W        W84862   8.244   1.400   0.128
19878W        W84863   2.505  37.297  10.201
19879W        W84864   9.448  11.926  12.419
19880W        W84865   6.685   2.789  14.052
19881W        W84866  23.734  38.470   2.203
19882W        W84867  30.411  10.320   2.647
19883W        W84868   1.969  43.024  12.584
19884W        W84869   8.117  11.305  11.599
19885W        W84870  23.359   0.712   0.929
19886W        W84871  30.006  29.955   2.994
19887W        W84872  22.150  26.403   5.104
19888W        W84873  43.599  25.037   5.648
19889W        W84874  35.965   7.742   1.755
19890W        W84875  35.303  12.024   5.156
19891W        W84876   2.233   9.786   4.285
19892W        W84877  38.440  39.795  10.346
19893W        W84878  15.360  44.286   0.417
19894W        W84879  30.725   0.165   1.266
19895W        W84880  24.254  13.130   4.713
19896W        W84881  39.618  20.002   3.354
19897W        W84882   5.758  41.278   4.704
19898W        W84883  44.451  23.841   2.895
19899W        W84884  14.568   5.350   4.786
19900W        W84885  37.995  36.350  14.512
19901W        W84886  41.978  20.594   0.954
19902W        W84887  19.444  10.264  10.849
19903W        W84888  36.548   2.775  14.903
19904W        W84889  14.531  26.995   1.795
19905W        W84890   2.095  11.722   5.008
19906W        W84891   8.407  13.186   1.461
19907W        W84892   0.806   7.589  14.348
19908W        W84893  39.898  10.295   1.286
19909W        W84894  15.790  25.515   3.129
19910W        W84895   6.815  13.307   4.493
19911W        W84896  36.676  36.601  11.157
19912W        W84897  12.331   7.932   4.501
19913W        W84898  39.440  44.536  13.379
19914W        W84899  26.554  37.886   2.250
19915W        W84900   9.370  43.197   1.611
19916W        W84901  31.145   1.093  12.036
19917W        W84902   1.045  13.306   2.796
19918W        W84903  33.418  44.422  14.419
19919W        W84904   9.202  43.635  12.915
19920W        W84905   4.353  33.484  11.616
19921W        W84906   7.271  35.395  11.639
19922W        W84907  21.410  23.883   4.305
19923W        W84908  28.678  31.629  10.281
19924W        W84909  41.868   7.924  11.169
19925W        W84910  38.072  41.387  14.882
19926W        W84911  27.568  43.526   5.338
19927W        W84912  42.435   0.745  13.553
19928W        W84913  16.505  23.137   2.404
19929W        W84914  31.380  21.242   2.344
19930W        W84915  35.893  32.854  14.289
19931W        W84916   4.312  32.003  12.694
19932W        W84917   0.557  26.997  14.982
19933W        W84918  35.553  36.461   1.731
19934W        W84919  23.142  17.754   4.652
19935W        W84920   3.805  13.590   1.796
19936W        W84921  38.249  22.138   0.997
19937W        W84922  11.700  12.470  12.053
19938W        W84923  39.103  18.059   4.033
19939W        W84924  15.251   5.234   2.349
19940W        W84925  15.107  10.355   1.340
19941W        W84926  16.255  38.860  14.019
19942W        W84927  42.938  26.544  13.532
19943W        W84928  13.896  39.870   3.684
19944W        W84929  15.937  29.304   0.755
19945W        W84930  33.480  31.814  10.539
19946W        W84931  30.688   8.037   1.123
19947W        W84932  42.546  35.372  13.442
19948W        W84933   1.996  34.278   4.450
19949W        W84934  13.181  36.628   0.399
19950W        W84935   7.868  39.664  11.615
19951W        W84936  36.378  31.750   3.289
19952W        W84937   6.765  41.247   3.860
19953W        W84938  16.806  38.783  12.519
19954W        W84939  12.432  31.954   3.992
19955W        W84940   2.466  43.044  13.435
19956W        W84941  11.812  33.578  11.632
19957W        W84942  13.239  30.432  13.016
19958W        W84943  19.644   3.161  11.571
19959W        W84944  39.110  38.289  12.202
19960W        W84945   2.828  40.368  10.597
19961W        W84946  39.347  14.685  11.592
19962W        W84947  12.928  10.228   0.004
19963W        W84948   6.118  21.972  14.989
19964W        W84949  10.178   5.411   3.622
19965W        W84950  11.610  28.873  12.970
19966W        W84951  24.963   6.189   2.882
19967W        W84952  13.520  11.834   2.675
19968W        W84953  36.864  40.183  11.564
19969W        W84954   9.215  19.783  12.441
19970W        W84955   2.797   3.531   2.725
19971W        W84956  15.654   0.049   1.005
19972W        W84957   0.395  30.079   2.135
19973W        W84958   4.000  18.813   3.636
19974W        W84959  22.501  27.731  12.018
19975W        W84960  30.847  14.560  12.493
19976W        W84961  18.180  41.715   3.588
19977W        W84962   4.154  23.534   1.265
19978W        W84963  25.114  44.086   2.846
19979W        W84964   7.810   5.153  13.961
19980W        W84965   1.432  17.284  12.934
19981W        W84966   4.856   6.337   2.852
19982W        W84967  32.693  26.345  12.209
19983W        W84968  17.555  30.420  13.854
19984W        W84969  36.623   3.383  12.891
19985W        W84970  25.905  41.518   1.826
19986W        W84971  12.058   3.553  11.546
19987W        W84972   0.406  13.366  14.505
19988W        W84973   4.556  14.693  14.458
19989W        W84974  22.138  18.581   1.654
19990W        W84975  12.304  43.021   4.171
19991W        W84976  14.039  18.713  12.662
19992W        W84977  36.828  10.739   3.222
19993W        W84978  38.642  10.695  10.977
19994W        W84979  24.362   3.096   2.855
19995W        W84980  36.049  28.988   2.457
19996W        W84981  31.608  20.223   1.270
19997W        W84982  44.710  27.599   9.687
19998W        W84983  14.434  34.836  13.406
19999W        W84984   2.476  41.922   1.994
20000W        W84985  18.036  23.537  12.587
20001W        W84986  40.002   9.332  12.436
20002W        W84987   3.204  33.542  14.014
20003W        W84988  31.611  11.566  11.633
20004W        W84989  35.785  41.844  13.935
20005W        W84990  11.476  17.129   1.425
20006W        W84991  28.429   2.199   0.001
20007W        W84992   7.077  44.694   3.800
20008W        W84993  13.859   3.647   0.742
20009W        W84994  19.030  28.707  12.589
20010W        W84995  28.204  43.968  11.206
20011W        W84996  32.636   3.185   3.094
20012W        W84997  35.024  31.906  13.398
20013W        W84998  36.756  31.884   1.667
20014W        W84999  20.422  39.888  12.568
20015W        W85000   8.430   1.925   2.271
20016W        W85001  23.616  16.563  10.694
20017W        W85002  25.129   1.818   2.644
20018W        W85003  36.210  14.296   4.691
20019W        W85004  13.642  37.984   5.079
20020W        W85005   6.701  17.109   4.427
20021W        W85006  26.476  41.847  14.316
20022W        W85007  17.571   0.490  12.955
20023W        W85008  16.864  21.952   1.937
20024W        W85009  41.475  42.341   4.019
20025W        W85010  40.273   8.498  10.811
20026W        W85011   1.757   7.233   0.687
20027W        W85012  17.724  41.355  13.284
20028W        W85013   4.230   5.386   1.876
20029W        W85014  17.996  22.741   0.219
20030W        W85015  37.544  13.653  12.388
20031W        W85016  35.099  35.058  12.046
20032W        W85017  34.144  22.728   0.497
20033W        W85018   3.525  34.277   4.371
20034W        W85019   4.861  36.882  14.374
20035W        W85020  21.119  24.247  13.265
20036W        W85021  29.375  25.049   0.206
20037W        W85022  38.940  41.450  11.772
20038W        W85023   8.523   6.479  10.988
20039W        W85024  18.222  40.246   1.229
20040W        W85025  27.010  29.657   1.692
20041W        W85026  41.785   7.860   0.303
20042W        W85027   9.147  35.314  12.576
20043W        W85028  31.574  38.250  13.551
20044W        W85029  41.847   3.416  11.759
20045W        W85030  13.547   8.249  14.273
20046W        W85031  23.234  41.288   2.362
20047W        W85032  25.204  31.283   0.833
20048W        W85033  22.006  19.991  13.454
20049W        W85034  21.582  18.676   3.116
20050W        W85035  35.065  27.518  10.786
20051W        W85036  31.041  12.692  10.537
20052W        W85037  43.358  15.908  11.145
20053W        W85038  24.653  24.243   3.641
20054W        W85039  22.090  35.839   1.405
20055W        W85040  28.604  25.617  12.167
20056W        W85041  44.531  38.905   0.386
20057W        W85042  31.401  43.631  11.107
20058W        W85043  18.120   7.633  12.369
20059W        W85044  22.112  36.526  12.672
20060W        W85045  36.095  21.947  12.942
20061W        W85046  16.756  41.257  12.568
20062W        W85047  12.229  15.503  10.975
20063W        W85048   2.365  10.903  12.592
20064W        W85049  36.976  43.214   0.312
20065W        W85050  27.064  15.992   4.286
20066W        W85051  32.643  41.991   1.410
20067W        W85052  13.258  13.720   1.237
20068W        W85053  15.064  39.688  14.033
20069W        W85054  22.620  27.019  14.552
20070W        W85055  26.127  11.529  12.388
20071W        W85056  19.353  18.935  12.641
20072W        W85057  22.063  24.916  12.010
20073W        W85058  44.715   4.221   3.063
20074W        W85059  30.071   6.754  11.002
20075W        W85060  25.255  25.962   0.274
20076W        W85061  39.882  42.851  14.216
20077W        W85062  28.393   7.667   0.555
20078W        W85063  41.539   4.394   2.514
20079W        W85064  30.977  35.812   4.273
20080W        W85065  40.392  17.299   1.803
20081W        W85066  17.706  10.404   4.614
20082W        W85067  40.488  36.366   0.688
20083W        W85068   8.740  35.108   2.843
20084W        W85069  43.197  22.525   4.174
20085W        W85070   5.951  25.593   1.688
20086W        W85071  15.048  23.228   4.207
20087W        W85072   0.234  43.463   4.118
20088W        W85073  33.964  41.819   3.172
20089W        W85074  10.270  38.839   3.865
20090W        W85075  19.716   2.894  11.000
20091W        W85076  42.512  19.689  11.987
20092W        W85077  38.349  43.891  13.851
20093W        W85078   1.928  27.194  14.048
20094W        W85079  29.583  25.730   2.894
20095W        W85080  37.730  25.169   9.758
20096W        W85081   1.395   8.987   2.677
20097W        W85082  35.511  11.698   4.815
20098W        W85083   4.377   8.871   4.659
20099W        W85084  26.317  30.122   2.749
20100W        W85085  17.387   8.148  11.539
20101W        W85086   2.428  25.786  11.996
20102W        W85087  14.438   0.430  14.310
20103W        W85088  12.615  10.267   1.472
20104W        W85089  44.964  32.816  13.331
20105W        W85090  40.431  30.948   4.538
20106W        W85091  14.879  17.793   2.198
20107W        W85092  41.856  32.482  12.991
20108W        W85093  10.209   9.261   3.586
20109W        W85094  25.062  20.321  12.415
20110W        W85095  36.959  21.216   1.802
20111W        W85096  37.221  11.320  14.581
20112W        W85097  14.851   0.515   0.998
20113W        W85098   7.342  20.158  14.928
20114W        W85099  31.583  24.501  10.526
20115W        W85100   0.337   3.718  11.255
20116W        W85101  25.459  12.652   4.623
20117W        W85102  29.447  20.077  10.925
20118W        W85103  41.365   2.332   1.835
20119W        W85104  28.571  29.529  13.535
20120W        W85105   5.420   8.233   0.549
20121W        W85106  42.204  29.180   5.477
20122W        W85107  44.453  24.182   2.515
20123W        W85108  35.909  31.516   3.281
20124W        W85109  33.983  26.744   4.250
20125W        W85110  12.164  13.637  11.202
20126W        W85111  26.977  10.606  11.470
20127W        W85112  33.803   9.329   1.241
20128W        W85113  34.464  17.654   0.317
20129W        W85114  37.895   3.268   2.039
20130W        W85115  30.569  15.974  10.405
20131W        W85116  32.897   4.215  13.020
20132W        W85117  31.066  36.645  11.520
20133W        W85118   9.347  40.816  14.797
20134W        W85119  42.513  21.279   1.810
20135W        W85120  44.354  33.277  12.808
20136W        W85121  12.659  27.617  12.652
20137W        W85122  12.157  24.012  14.409
20138W        W85123  28.199  37.939  14.806
20139W        W85124  17.641   8.958  12.876
20140W        W85125  30.513   9.319   0.288
20141W        W85126  44.176  12.036  13.078
20142W        W85127   5.297  40.398   2.127
20143W        W85128  30.084  28.569   2.458
20144W        W85129  23.619  41.290   0.037
20145W        W85130   7.796  17.108   0.765
20146W        W85131  37.053  18.165  14.259
20147W        W85132  37.098  17.762  10.656
20148W        W85133  23.713  39.986   1.291
20149W        W85134   2.889  23.141  11.979
20150W        W85135   9.720  10.343  11.561
20151W        W85136  11.603  28.584   4.698
20152W        W85137  14.057  10.793   4.731
20153W        W85138  11.321  16.102  11.514
20154W        W85139   2.788  29.835  11.964
20155W        W85140   0.452  22.585   0.264
20156W        W85141  28.950   1.826   3.689
20157W        W85142   2.914  43.963  12.497
20158W        W85143   5.806  44.904  12.930
20159W        W85144   4.909  34.083   1.007
20160W        W85145  39.756  40.595   1.730
20161W        W85146  23.117  42.063   0.031
20162W        W85147  25.650   1.759  14.977
20163W        W85148  27.935  13.093   3.223
20164W        W85149   1.171  27.219   2.680
20165W        W85150  30.853  19.017  12.203
20166W        W85151  21.553  41.733   1.864
20167W        W85152  31.391  18.681   2.423
20168W        W85153   4.734  13.228   0.764
20169W        W85154  25.565  26.253   2.290
20170W        W85155  14.118  31.638  10.546
20171W        W85156  17.197  35.036   0.527
20172W        W85157   2.319   7.174   3.282
20173W        W85158  18.602   7.329   4.451
20174W        W85159  38.750   8.295  11.906
20175W        W85160  36.868  12.555  12.021
20176W        W85161  26.228  32.605  14.854
20177W        W85162  42.492  21.718   4.593
20178W        W85163   7.461   8.452   3.630
20179W        W85164  22.646  27.873  12.538
20180W        W85165   2.740  29.934   2.317
20181W        W85166  15.624  43.651  13.240
20182W        W85167  43.993  32.980   4.754
20183W        W85168  19.048  39.209   4.042
20184W        W85169   6.894   3.876   0.496
20185W        W85170  25.471  38.424   2.675
20186W        W85171  21.632  14.649   0.692
20187W        W85172  13.874  38.947   2.437
20188W        W85173  26.988  11.725   4.585
20189W        W85174  37.631  36.943  14.823
20190W        W85175  41.025   9.614  11.175
20191W        W85176  27.110  10.783  11.925
20192W        W85177   9.792  14.714  12.437
20193W        W85178  27.560   5.194   0.914
20194W        W85179  41.665  31.708  12.573
20195W        W85180  15.364  14.629  10.654
20196W        W85181  26.221  38.056  12.376
20197W        W85182  17.024  40.487   4.084
20198W        W85183  26.799  29.541   0.383
20199W        W85184  42.482   4.939  12.899
20200W        W85185  11.660   0.944   4.105
20201W        W85186   6.457  17.130   1.240
20202W        W85187  28.648  34.476  13.483
20203W        W85188   8.241   7.552  11.567
20204W        W85189  43.861  39.783   2.354
20205W        W85190  41.791   5.738  10.670
20206W        W85191   7.427  19.572  13.549
20207W        W85192  44.944   7.765   2.445
20208W        W85193  10.628   1.268   3.137
20209W        W85194  13.759   6.030   3.537
20210W        W85195  28.960  26.875  11.171
20211W        W85196  23.288  14.057   0.844
20212W        W85197  12.674  23.989  14.295
20213W        W85198   6.629  30.190   2.335
20214W        W85199  43.999  33.526  13.108
20215W        W85200  19.592  21.238  12.451
20216W        W85201  25.024  11.056   3.547
20217W        W85202   4.297  42.801  11.369
20218W        W85203  40.354  17.220  14.866
20219W        W85204   7.190   2.375  12.200
20220W        W85205  35.152  17.375   4.163
20221W        W85206   7.105  10.648  10.888
20222W        W85207   6.669  15.764   3.358
20223W        W85208  33.403  42.946  12.097
20224W        W85209   3.765  24.111   3.409
20225W        W85210  44.211  33.361   3.503
20226W        W85211  41.947  18.799  14.374
20227W        W85212  16.492  17.524  11.066
20228W        W85213  41.380   8.143   1.467
20229W        W85214  13.390  22.533   3.118
20230W        W85215  26.612  36.988  11.463
20231W        W85216  33.110  17.080   2.473
20232W        W85217  21.052  22.317   4.002
20233W        W85218  25.424   9.792   3.190
20234W        W85219  37.237  26.051  13.750
20235W        W85220  28.164  15.034  12.432
20236W        W85221  33.787   5.416   4.165
20237W        W85222   5.348   6.520   4.525
20238W        W85223   0.290  18.149   3.537
20239W        W85224  31.031  17.298   2.358
20240W        W85225  27.281  34.597  12.775
20241W        W85226  44.382  44.914  13.399
20242W        W85227   8.206  40.571   1.383
20243W        W85228  36.091   5.886  10.760
20244W        W85229   1.965  19.693   0.326
20245W        W85230   0.376  23.872  13.546
20246W        W85231  21.089   2.764   2.142
20247W        W85232   0.873  22.652  12.604
20248W        W85233  29.953  34.371  14.667
20249W        W85234   5.729  13.721  11.874
20250W        W85235   7.839  42.939   3.011
20251W        W85236  24.989  43.840   4.185
20252W        W85237  30.190  12.837  14.318
20253W        W85238  10.474  39.528  13.502
20254W        W85239   8.223  26.897   0.875
20255W        W85240  21.487  43.842  11.237
20256W        W85241  16.354  25.191  14.513
20257W        W85242  12.880  33.567  14.986
20258W        W85243  36.990  43.641  13.477
20259W        W85244   7.956  24.781   0.636
20260W        W85245  25.025  21.457   2.181
20261W        W85246  37.118   2.665   2.599
20262W        W85247  28.846  23.058   1.491
20263W        W85248   3.980   1.902   5.218
20264W        W85249  24.516   5.932   4.422
20265W        W85250  24.853  33.119   0.576
20266W        W85251   9.905  11.328  11.548
20267W        W85252  17.745  22.594   3.059
20268W        W85253  22.088  15.151  11.008
20269W        W85254  43.276  21.332  12.253
20270W        W85255  34.878  33.343   2.386
20271W        W85256  27.186  28.615   4.205
20272W        W85257  33.930  13.820  11.916
20273W        W85258  19.755  31.422  14.073
20274W        W85259  16.287  24.895   2.761
20275W        W85260  14.783  13.585  11.978
20276W        W85261   1.299  15.349   0.399
20277W        W85262  12.713   7.338   4.781
20278W        W85263  41.067  41.635  13.376
20279W        W85264  43.875  15.522   1.565
20280W        W85265  22.833  16.643   1.772
20281W        W85266  23.053  40.451   4.936
20282W        W85267  19.752  38.566  10.793
20283W        W85268  36.379  41.125  14.335
20284W        W85269   3.924   8.480  13.713
20285W        W85270  17.322  10.266  13.191
20286W        W85271  12.837  24.310  13.850
20287W        W85272  30.593  44.172   3.766
20288W        W85273  34.779  14.803  12.335
20289W        W85274  39.086   1.260  13.781
20290W        W85275  22.705  42.578   0.344
20291W        W85276   3.438   8.321  11.027
20292W        W85277  37.790   8.166   0.995
20293W        W85278   8.114  10.324   2.394
20294W        W85279  23.609  25.077   0.991
20295W        W85280  38.532  31.576  13.469
20296W        W85281  36.282  23.223  13.761
20297W        W85282  19.047   8.916   1.324
20298W        W85283  42.933  19.322  11.253
20299W        W85284   2.693  27.603  11.954
20300W        W85285  36.048  31.680  12.555
20301W        W85286   0.593  18.224  14.417
20302W        W85287   3.297  25.531   2.830
20303W        W85288  21.129  33.930   1.664
20304W        W85289  23.585  34.868   2.845
20305W        W85290   5.753  11.964  14.838
20306W        W85291  28.658  32.479   3.693
20307W        W85292  31.937  34.014   4.666
20308W        W85293  44.677  37.791   3.884
20309W        W85294  30.853  18.544  12.348
20310W        W85295  31.784  36.503  14.919
20311W        W85296  33.102  32.549   4.521
20312W        W85297  31.507  42.041  13.434
20313W        W85298   2.490   4.485   3.643
20314W        W85299  43.005   3.812  10.854
20315W        W85300  31.634   3.184  12.405
20316W        W85301  16.796  15.900   2.177
20317W        W85302  44.426  38.618   2.771
20318W        W85303  27.456  15.108   3.199
20319W        W85304  12.061  25.535   4.778
20320W        W85305  35.376  35.558  10.706
20321W        W85306  30.068  26.017   1.996
20322W        W85307  30.202  19.712   4.040
20323W        W85308  17.718  38.142  12.834
20324W        W85309  26.369   4.862  14.237
20325W        W85310  34.471  35.520   2.634
20326W        W85311  29.884  28.509   1.827
20327W        W85312  28.160  16.435  11.965
20328W        W85313  35.908  34.707  14.552
20329W        W85314   1.383  29.496  13.203
20330W        W85315  19.405  10.828   2.873
20331W        W85316  28.087  27.089   3.616
20332W        W85317  21.660  35.599  13.865
20333W        W85318  44.438  28.508  11.467
20334W        W85319  23.107  19.703  13.374
20335W        W85320   4.624  34.721   2.818
20336W        W85321  11.586  16.889  12.552
20337W        W85322  27.646  10.721   3.340
20338W        W85323  12.698  15.737   2.248
20339W        W85324  20.478  35.050  10.800
20340W        W85325  29.413  40.254   1.240
20341W        W85326  20.533   5.336   0.403
20342W        W85327  12.158   2.350   2.890
20343W        W85328  34.887  33.178  14.046
20344W        W85329   0.955  39.396  11.541
20345W        W85330  28.356  17.439   0.486
20346W        W85331  34.467  29.179   3.209
20347W        W85332  43.119  36.500  12.041
20348W        W85333  35.307  11.735   5.581
20349W        W85334  21.168  30.393   0.845
20350W        W85335  39.146   8.290   0.882
20351W        W85336   0.683  32.069  12.020
20352W        W85337  11.540  39.394  10.712
20353W        W85338  41.924   6.995   4.679
20354W        W85339  23.261  35.876   4.379
20355W        W85340  28.037   8.039  11.122
20356W        W85341   3.397  12.784  11.636
20357W        W85342  33.466  10.762   4.502
20358W        W85343   2.285  11.634  10.764
20359W        W85344   2.318  29.951   0.086
20360W        W85345  31.049  11.136   3.027
20361W        W85346  36.524  27.622  11.916
20362W        W85347  32.146   8.744  12.872
20363W        W85348  40.801   3.456   1.322
20364W        W85349   6.740  41.106   0.228
20365W        W85350  34.964  19.593   3.697
20366W        W85351  39.839  25.536   0.813
20367W        W85352  24.011   1.653  10.488
20368W        W85353  16.379  41.283   2.746
20369W        W85354   1.760  12.777   4.108
20370W        W85355  17.149  10.882   3.483
20371W        W85356   6.216  43.519  12.548
20372W        W85357  24.924  23.948  13.076
20373W        W85358  44.486  36.583   1.893
20374W        W85359  32.806   0.365   3.317
20375W        W85360   7.032   7.483  12.873
20376W        W85361   8.798  36.374   4.240
20377W        W85362  20.734  23.684   2.750
20378W        W85363  41.038  42.883   4.708
20379W        W85364  40.285   3.930  10.614
20380W        W85365  44.972   1.992   0.561
20381W        W85366   2.325  11.912  13.990
20382W        W85367   9.342  39.011   3.749
20383W        W85368   9.172   1.272  11.180
20384W        W85369  21.663  38.366  12.099
20385W        W85370  36.053  38.330  12.144
20386W        W85371  35.967  12.184  11.508
20387W        W85372  40.403  39.340  13.361
20388W        W85373   2.936  24.071  14.227
20389W        W85374  12.855  14.558  11.577
20390W        W85375  18.686  11.410  13.798
20391W        W85376  41.071   4.425   0.596
20392W        W85377   4.153  17.200  12.091
20393W        W85378  17.607  44.088  14.046
20394W        W85379  43.970  37.380   2.363
20395W        W85380  41.287  40.405  14.465
20396W        W85381  27.519  41.066   4.633
20397W        W85382  34.199  14.056   0.239
20398W        W85383  19.750  19.244  12.635
20399W        W85384   4.965   9.809  14.388
20400W        W85385  11.685  18.045   5.002
20401W        W85386  43.094  14.777  13.841
20402W        W85387  15.458   8.173  11.467
20403W        W85388  24.526  18.175   3.314
20404W        W85389  29.655  11.274   2.787
20405W        W85390   8.082  32.462   0.923
20406W        W85391  38.860   2.958   0.340
20407W        W85392  19.815   1.616   3.643
20408W        W85393   5.567  21.229   3.820
20409W        W85394   2.732  36.880  14.271
20410W        W85395  27.577  31.929   5.295
20411W        W85396  26.577  29.573  14.926
20412W        W85397  26.035  19.468   1.198
20413W        W85398   1.769   3.898   4.973
20414W        W85399   3.410  44.493   2.357
20415W        W85400   9.333  24.501  12.910
20416W        W85401  21.014  40.870   0.389
20417W        W85402  43.301  42.893   2.886
20418W        W85403  21.008  25.077   0.409
20419W        W85404  33.153   0.005   0.050
20420W        W85405  39.395   6.329   1.153
20421W        W85406   8.272  17.495   3.547
20422W        W85407  26.154   1.242   1.362
20423W        W85408  30.079  39.573  11.204
20424W        W85409   7.283   3.285  10.594
20425W        W85410  15.263  23.564   0.992
20426W        W85411  37.885   7.295  12.500
20427W        W85412   1.013  40.932  10.919
20428W        W85413  28.392   0.735  10.792
20429W        W85414  41.989  11.917   2.651
20430W        W85415  44.894   3.487  11.016
20431W        W85416   3.459  17.550  13.473
20432W        W85417  15.082   8.518  11.570
20433W        W85418  35.570   4.366  13.889
20434W        W85419  34.790   7.281  12.688
20435W        W85420  25.328  22.120  11.864
20436W        W85421  10.647  41.319  13.050
20437W        W85422  16.695  20.932   1.744
20438W        W85423  37.860  26.078  12.315
20439W        W85424  19.199   6.986   2.734
20440W        W85425   0.260  23.158  14.161
20441W        W85426  28.897  29.085   1.366
20442W        W85427  31.017  21.060   3.408
20443W        W85428   7.226  13.222  11.980
20444W        W85429  35.444  12.405   0.754
20445W        W85430  32.569  22.206   2.357
20446W        W85431  36.623  11.428  10.284
20447W        W85432  36.536  24.374   4.142
20448W        W85433   1.138  18.740  13.787
20449W        W85434   3.980  15.732  11.627
20450W        W85435  24.507  12.575   0.200
20451W        W85436  42.192   3.239   2.820
20452W        W85437  43.282   5.971   0.020
20453W        W85438   6.904  21.604  14.107
20454W        W85439  28.117  19.306   0.418
20455W        W85440  44.832  18.107   9.510
20456W        W85441  29.414   4.229   3.440
20457W        W85442   3.254   8.694  11.385
20458W        W85443  40.115  22.703   1.032
20459W        W85444   0.506  44.417   5.039
20460W        W85445  16.729   1.906   1.275
20461W        W85446  20.242  35.719  13.699
20462W        W85447  11.652  31.329  11.594
20463W        W85448  39.465  25.548  12.392
20464W        W85449  27.017  42.450  12.528
20465W        W85450  14.163   4.045  12.595
20466W        W85451  26.351  28.083   5.030
20467W        W85452  13.565   4.076  14.379
20468W        W85453  12.163  44.245   4.841
20469W        W85454   4.336   5.240   5.170
20470W        W85455  34.903  10.300   1.261
20471W        W85456  22.326  15.024   0.985
20472W        W85457  40.822  28.151   2.385
20473W        W85458  10.958  31.852   3.699
20474W        W85459  21.631  36.104   4.969
20475W        W85460  25.044   7.604   2.714
20476W        W85461  23.832  29.210  12.078
20477W        W85462  36.704  44.968   4.405
20478W        W85463  19.297  40.722   4.460
20479W        W85464  36.546   4.842  11.348
20480W        W85465  33.947  39.888   1.912
20481W        W85466  44.182   1.358  11.073
20482W        W85467  35.099  22.794  12.523
20483W        W85468  19.143  28.969   0.392
20484W        W85469  30.525   0.773   4.578
20485W        W85470  41.706  23.243  13.569
20486W        W85471  40.953  41.106  13.395
20487W        W85472   2.244  42.664  11.164
20488W        W85473   9.892  16.756   1.169
20489W        W85474  23.428  31.826   2.541
20490W        W85475  10.471  23.802   0.172
20491W        W85476   2.089  11.677  14.998
20492W        W85477  24.371  34.796   4.026
20493W        W85478   5.758  43.613  14.534
20494W        W85479  37.929  10.013  10.279
20495W        W85480  21.131   7.174  12.353
20496W        W85481   3.919  28.631  11.442
20497W        W85482  39.238  34.737   3.601
20498W        W85483  35.614   1.209  14.435
20499W        W85484  31.174  13.587  14.022
20500W        W85485  43.747  24.926   0.863
20501W        W85486   9.270  12.200   1.896
20502W        W85487  25.724  29.353   9.716
20503W        W85488  40.651  34.550   0.949
20504W        W85489   2.452  24.044   2.259
20505W        W85490  40.107  10.770   3.518
20506W        W85491  40.065  18.818  14.939
20507W        W85492  26.698  30.331  12.942
20508W        W85493  35.229  16.810   3.604
20509W        W85494   8.162   7.929  13.024
20510W        W85495  11.095  17.034  12.518
20511W        W85496  39.057  13.697  12.439
20512W        W85497   1.861  16.000   0.854
20513W        W85498  10.989  28.034  11.372
20514W        W85499  38.055   4.171   2.249
20515W        W85500  39.976  13.021  13.397
20516W        W85501  14.721  18.444   4.578
20517W        W85502   8.111  36.952  13.829
20518W        W85503  20.635  37.382  13.463
20519W        W85504  30.923   0.803  11.677
20520W        W85505  39.341  17.197  10.178
20521W        W85506   9.119   1.467   0.998
20522W        W85507  15.414  31.535  10.634
20523W        W85508  37.881  41.560   4.991
20524W        W85509  43.961  37.417  12.944
20525W        W85510  29.926  35.036   0.980
20526W        W85511   3.300   0.672  12.786
20527W        W85512  19.463  10.410  12.069
20528W        W85513  13.998  41.896  12.367
20529W        W85514   2.398  28.872  10.261
20530W        W85515  31.116  33.871   1.840
20531W        W85516   2.511  29.276  13.937
20532W        W85517  15.512  16.770  11.473
20533W        W85518   6.176  39.642  11.540
20534W        W85519   1.730  36.893   0.919
20535W        W85520  32.105  30.269   4.484
20536W        W85521  35.932  10.778  11.938
20537W        W85522  30.409  40.389   1.316
20538W        W85523  13.077  29.147   1.498
20539W        W85524  12.560  21.616  13.963
20540W        W85525   0.869  26.108   4.844
20541W        W85526  34.875   5.137  13.949
20542W        W85527   6.963   7.934   4.113
20543W        W85528  14.533  43.984   2.729
20544W        W85529  11.144   1.267   2.409
20545W        W85530   3.940  11.313   3.759
20546W        W85531  40.872  26.909  13.908
20547W        W85532  38.071  33.372   1.656
20548W        W85533  30.470  22.512   0.338
20549W        W85534  39.796  39.404  11.539
20550W        W85535   1.558  33.542   3.182
20551W        W85536  41.890  10.251   3.881
20552W        W85537   9.246  35.981  13.910
20553W        W85538  28.161  23.195   3.767
20554W        W85539  43.360   1.487   0.323
20555W        W85540  21.269  19.791   0.347
20556W        W85541   3.611  38.814  11.148
20557W        W85542  44.405  19.902  13.970
20558W        W85543   2.417   6.586   1.791
20559W        W85544  30.053  15.732   3.777
20560W        W85545  33.745  42.501   1.899
20561W        W85546  17.261  29.107  12.518
20562W        W85547   6.383  17.924   4.230
20563W        W85548  10.451  20.233  13.323
20564W        W85549  44.313  29.662   1.239
20565W        W85550   3.347  42.837   5.398
20566W        W85551   5.219  20.753   4.689
20567W        W85552  27.033  24.676  10.621
20568W        W85553  21.100  33.999   4.210
20569W        W85554  34.612  10.645  12.052
20570W        W85555  26.577  28.165  11.909
20571W        W85556  22.514  33.878   4.687
20572W        W85557  20.729  25.036  12.948
20573W        W85558  21.004  22.674  13.328
20574W        W85559  13.700  14.576  12.556
20575W        W85560   0.411  16.254   3.650
20576W        W85561  10.619  20.557   4.901
20577W        W85562  13.687  41.117  13.267
20578W        W85563  25.125  20.022  12.817
20579W        W85564  13.093  22.614   4.066
20580W        W85565   7.053  39.979  13.460
20581W        W85566   6.562  25.761   0.305
20582W        W85567  23.211  16.538   0.002
20583W        W85568  14.857  42.861  13.454
20584W        W85569  35.436  33.401  13.872
20585W        W85570  37.921  33.146  13.413
20586W        W85571  13.210  36.390   4.482
20587W        W85572  27.148  24.159  10.598
20588W        W85573  44.260  30.493  13.499
20589W        W85574  13.923  27.144   5.562
20590W        W85575  32.900  26.643   0.317
20591W        W85576  37.490  23.032  11.676
20592W        W85577  41.952  39.545   3.768
20593W        W85578  38.849  36.812  11.229
20594W        W85579  19.977   7.252   2.391
20595W        W85580  21.200  13.091  13.082
20596W        W85581  13.069  40.657  14.508
20597W        W85582   4.973  32.363  11.988
20598W        W85583  13.390  26.988   3.699
20599W        W85584  10.382  25.037   3.322
20600W        W85585  26.178  25.721  12.177
20601W        W85586   7.110  42.857   0.934
20602W        W85587  16.547  37.690  11.283
20603W        W85588  43.840   2.828  11.582
20604W        W85589  18.721   3.399   4.791
20605W        W85590  36.851  15.821   0.442
20606W        W85591  13.507  23.240  12.154
20607W        W85592  31.105  39.276  10.388
20608W        W85593  27.705  11.092  11.590
20609W        W85594   6.553   0.734   1.392
20610W        W85595  22.577  39.805  11.401
20611W        W85596  24.415   7.929  11.143
20612W        W85597   9.878  39.425   4.408
20613W        W85598  16.471  28.479  14.805
20614W        W85599  11.301  11.047  11.038
20615W        W85600  11.395  37.825   3.236
20616W        W85601  22.469  41.311   3.202
20617W        W85602  43.020  19.282  13.159
20618W        W85603  38.732  44.292   2.324
20619W        W85604  44.979  11.078   2.065
20620W        W85605  26.673   2.875  14.457
20621W        W85606  28.970   4.755  14.289
20622W        W85607  11.454  44.114   4.136
20623W        W85608  19.659   6.723   2.743
20624W        W85609  44.430  30.280  11.365
20625W        W85610   9.244  12.236   1.334
20626W        W85611  31.566  20.772  11.647
20627W        W85612  12.134  23.473  14.407
20628W        W85613  34.187   5.827  12.960
20629W        W85614  42.294  27.372  12.471
20630W        W85615   2.821  12.774  10.794
20631W        W85616  42.070  31.144   3.029
20632W        W85617  12.893  19.729  12.637
20633W        W85618  17.537  37.967   1.454
20634W        W85619  37.882  31.091  13.437
20635W        W85620   1.434  21.643   2.566
20636W        W85621  43.765   1.018  11.162
20637W        W85622  26.743  21.772   1.310
20638W        W85623   6.050   0.174  13.307
20639W        W85624  43.323  14.722  12.138
20640W        W85625  14.278   4.045   2.627
20641W        W85626  16.975  26.352   4.685
20642W        W85627   5.963  39.085   3.155
20643W        W85628   6.780  35.267  14.796
20644W        W85629  28.707   6.768   1.475
20645W        W85630  14.896  34.690  12.347
20646W        W85631  34.012  19.538  12.992
20647W        W85632  31.153  15.778  13.527
20648W        W85633   3.279   3.633   4.418
20649W        W85634  22.319  12.775   3.210
20650W        W85635  38.483  13.783  14.977
20651W        W85636  18.700  27.238  11.898
20652W        W85637  26.565   7.992   1.783
20653W        W85638  18.766  40.149  13.143
20654W        W85639  41.351  13.691  11.221
20655W        W85640   1.399  30.117  12.501
20656W        W85641   5.214  22.126  11.237
20657W        W85642  42.907  27.484   1.277
20658W        W85643  33.990  39.044  13.885
20659W        W85644  33.919  38.580  11.699
20660W        W85645  22.492  31.099  11.702
20661W        W85646  29.721  44.339  14.504
20662W        W85647  10.292   6.179  10.233
20663W        W85648  12.143  39.998  13.744
20664W        W85649  30.826  34.591   2.850
20665W        W85650  39.559  41.527   1.323
20666W        W85651  17.188  13.828   4.428
20667W        W85652   9.451   5.223  10.017
20668W        W85653   0.164  12.806  10.880
20669W        W85654   8.566  19.539   5.028
20670W        W85655  36.110  19.118  14.482
20671W        W85656  14.829  35.013   4.839
20672W        W85657  43.317   2.493  13.086
20673W        W85658  22.622  15.308  14.425
20674W        W85659  13.511  24.757  12.869
20675W        W85660  15.589   4.233  14.436
20676W        W85661   3.924  31.233  12.352
20677W        W85662   8.408  35.590   0.772
20678W        W85663  25.829  34.408   2.856
20679W        W85664  40.683  22.500   3.689
20680W        W85665  12.466  29.892  13.361
20681W        W85666  36.830  16.655   4.881
20682W        W85667  23.101  44.588  14.074
20683W        W85668   2.182  34.021   3.627
20684W        W85669   5.353  26.586   3.272
20685W        W85670  41.785  18.093  11.547
20686W        W85671  15.309  25.759   3.181
20687W        W85672  38.531  14.791  10.999
20688W        W85673  21.729  33.538  14.208
20689W        W85674  32.395  25.012   0.518
20690W        W85675  11.602  32.061  12.610
20691W        W85676  39.231  11.704  13.869
20692W        W85677  39.705   3.563   4.902
20693W        W85678   8.831   3.525   1.764
20694W        W85679  17.651  12.202   4.237
20695W        W85680  17.570  34.344  13.843
20696W        W85681   0.340  30.065  14.346
20697W        W85682  16.345  35.120   4.537
20698W        W85683  22.271  41.285   2.244
20699W        W85684  20.490  11.382   3.846
20700W        W85685  16.604  19.198   2.666
20701W        W85686  14.709  17.075  13.709
20702W        W85687  22.156  43.283   4.114
20703W        W85688  23.726   2.094  10.406
20704W        W85689   9.311  12.825  13.956
20705W        W85690  24.949  36.015   1.834
20706W        W85691  20.000   3.914   1.442
20707W        W85692  26.078   9.859  14.855
20708W        W85693  27.475   7.319  11.457
20709W        W85694   0.429  14.794   0.503
20710W        W85695  18.077  37.827   5.000
20711W        W85696  37.189  39.727   1.990
20712W        W85697  37.344  29.027  10.557
20713W        W85698  23.248  23.258  12.489
20714W        W85699  23.674  36.152   3.198
20715W        W85700   1.863   5.818   0.268
20716W        W85701  15.370  20.655  11.463
20717W        W85702  43.031  31.389  14.327
20718W        W85703  18.764  35.038   3.333
20719W        W85704  39.195  35.262   9.856
20720W        W85705  43.910  34.444  14.510
20721W        W85706   4.418   6.208  12.357
20722W        W85707  17.250  38.361   0.903
20723W        W85708  44.029  39.435  11.179
20724W        W85709  19.610   5.221  12.440
20725W        W85710  39.319  12.672   3.742
20726W        W85711   0.939  28.575   3.735
20727W        W85712   1.950  18.348   4.135
20728W        W85713  43.253   2.175  11.284
20729W        W85714  32.638  33.435  11.861
20730W        W85715  39.351  31.861  13.475
20731W        W85716  40.271   4.812   1.801
20732W        W85717  34.193  11.794   2.318
20733W        W85718  25.086  40.994   3.802
20734W        W85719  14.047  37.595   4.607
20735W        W85720  41.377   8.156   0.105
20736W        W85721  41.041  43.844  11.508
20737W        W85722  13.816  33.497   4.730
20738W        W85723  26.009   6.248   2.005
20739W        W85724  44.224  43.310   3.735
20740W        W85725   5.933  11.167   1.198
20741W        W85726  24.496   9.414  12.032
20742W        W85727   9.311   6.355   2.153
20743W        W85728  14.879  28.070  12.097
20744W        W85729   3.259  42.780   0.002
20745W        W85730  30.458  12.342   0.077
20746W        W85731   9.635  38.285   0.228
20747W        W85732  42.312  31.916  14.517
20748W        W85733   5.456  36.552   2.969
20749W        W85734   5.782  12.075   3.366
20750W        W85735  42.880  17.490   2.947
20751W        W85736  29.524  43.828  11.453
20752W        W85737  33.450  29.598   3.621
20753W        W85738  16.421  34.550   0.712
20754W        W85739  11.923  17.230  13.757
20755W        W85740  12.114  11.809  11.459
20756W        W85741  20.257   0.571   4.845
20757W        W85742  21.159  43.310  11.603
20758W        W85743  15.223  36.719  12.525
20759W        W85744  31.161   9.210   3.004
20760W        W85745  33.951  38.484   3.173
20761W        W85746  14.884   5.231   1.066
20762W        W85747  21.253  22.586  12.104
20763W        W85748  33.098   1.260  10.663
20764W        W85749   1.197  24.241   0.413
20765W        W85750  24.821  29.624  11.018
20766W        W85751  11.716  14.751  11.104
20767W        W85752   9.230  11.310   2.000
20768W        W85753  20.614   2.532  12.117
20769W        W85754   2.358  44.138   5.165
20770W        W85755  39.892   0.986   2.440
20771W        W85756  26.575   9.324  10.423
20772W        W85757  16.475  41.383  13.947
20773W        W85758  27.246  34.999   4.388
20774W        W85759  17.810  12.633   0.328
20775W        W85760   8.110  35.540  11.955
20776W        W85761  42.208  34.986   2.213
20777W        W85762   8.309  17.900   3.223
20778W        W85763  30.547  39.294   4.962
20779W        W85764  13.376  38.480  11.079
20780W        W85765  39.329  41.729   2.418
20781W        W85766  40.592  39.467   1.888
20782W        W85767  44.732   6.388  14.473
20783W        W85768  21.512   1.767  11.142
20784W        W85769  24.009  15.435   3.265
20785W        W85770  11.561  24.042   1.717
20786W        W85771  42.563  42.401  11.422
20787W        W85772  41.336  19.561  13.350
20788W        W85773  42.082  32.561   3.321
20789W        W85774  37.462  19.661  12.632
20790W        W85775  13.534  39.695   0.962
20791W        W85776  13.590  35.406  13.949
20792W        W85777  42.880  16.348  14.842
20793W        W85778  26.689  11.083  11.498
20794W        W85779   8.954   6.853  12.364
20795W        W85780   4.349  17.766   4.694
20796W        W85781  35.541  23.013   2.823
20797W        W85782  38.890  32.485   0.417
20798W        W85783   2.838   8.656   2.360
20799W        W85784  12.197   0.918   4.021
20800W        W85785  22.063  40.003   4.152
20801W        W85786   7.943  40.428   1.803
20802W        W85787  44.667  30.622  14.522
20803W        W85788   9.987  33.228  12.799
20804W        W85789   4.377   0.974   3.087
20805W        W85790  32.014  26.677   0.973
20806W        W85791  39.737  15.255  14.273
20807W        W85792   2.198   4.682   4.077
20808W        W85793   7.116  30.708   0.853
20809W        W85794   3.342  31.376  12.456
20810W        W85795  22.189   9.140   4.386
20811W        W85796  17.982  43.832  13.098
20812W        W85797  10.392  30.391  12.230
20813W        W85798  34.610   8.192  13.447
20814W        W85799  28.937  37.537  10.182
20815W        W85800  34.847  28.184  14.419
20816W        W85801  24.509   5.461   4.645
20817W        W85802  16.092  18.479   4.062
20818W        W85803  11.663   1.317  13.305
20819W        W85804  15.574  34.103  14.214
20820W        W85805  39.807   9.797   2.330
20821W        W85806  29.140   3.384   0.687
20822W        W85807  21.584  29.648  11.655
20823W        W85808  29.741  16.148   3.695
20824W        W85809  40.394  34.553  12.202
20825W        W85810   9.883  35.453  12.943
20826W        W85811  26.040  44.396   4.816
20827W        W85812  11.386  17.498   0.920
20828W        W85813  20.419  19.369  11.628
20829W        W85814   1.529   5.468  13.861
20830W        W85815  31.059  15.560   3.612
20831W        W85816  23.443  33.890   1.863
20832W        W85817  34.971  32.955   0.463
20833W        W85818  41.512  36.037  10.513
20834W        W85819  34.469  20.227   2.661
20835W        W85820  31.424  34.327   0.795
20836W        W85821  42.352  23.157   3.310
20837W        W85822   3.777  24.119   2.450
20838W        W85823   0.935  30.931   3.640
20839W        W85824  44.791  19.506  11.625
20840W        W85825  22.348  32.561   1.211
20841W        W85826   2.307  25.470   4.760
20842W        W85827  34.094   9.224  13.074
20843W        W85828  10.626  27.020  14.811
20844W        W85829  11.221   9.978   0.440
20845W        W85830   4.237  31.489   0.270
20846W        W85831  20.908  23.859   4.181
20847W        W85832  25.313  43.923   3.794
20848W        W85833   6.319  23.178   3.639
20849W        W85834   3.377   6.375   4.614
20850W        W85835   9.495   8.119   0.543
20851W        W85836   3.320  32.194   3.640
20852W        W85837   2.240   0.236  11.454
20853W        W85838  12.799  21.618   2.006
20854W        W85839  16.247  27.749  12.102
20855W        W85840  32.964  42.394  12.690
20856W        W85841  18.879   7.114   1.160
20857W        W85842  35.127  41.428   2.773
20858W        W85843   0.358  31.278   4.192
20859W        W85844  12.905   5.875  14.158
20860W        W85845  28.518   3.768  13.951
20861W        W85846  21.477  39.997  10.588
20862W        W85847   1.889   9.084  14.296
20863W        W85848  17.659  19.175   3.623
20864W        W85849   6.452  37.571   1.731
20865W        W85850  41.472   2.548  11.914
20866W        W85851  43.315  24.032   1.660
20867W        W85852  11.694  24.543  12.561
20868W        W85853  41.564  37.588   2.707
20869W        W85854  32.439  39.594   4.257
20870W        W85855  27.096  10.074  12.956
20871W        W85856  26.716  41.755  10.814
20872W        W85857  37.437  16.331  13.440
20873W        W85858  14.329  40.446   3.297
20874W        W85859  23.236   4.382  14.097
20875W        W85860  23.219  22.677   1.698
20876W        W85861  36.504   7.091  11.171
20877W        W85862  17.589  23.541   4.410
20878W        W85863  29.468   3.347  10.505
20879W        W85864  32.877  26.710   2.857
20880W        W85865   7.774   0.284   3.532
20881W        W85866   2.851  22.579   2.249
20882W        W85867  20.946  24.209  14.378
20883W        W85868   1.350  14.925  12.042
20884W        W85869  39.541  18.625  12.319
20885W        W85870  11.905   8.468  12.102
20886W        W85871   8.933  40.875   0.095
20887W        W85872  15.036  11.598   4.392
20888W        W85873  29.189  18.332  10.506
20889W        W85874  28.001  40.122   4.558
20890W        W85875   5.114   4.475  12.915
20891W        W85876  40.192  36.824  13.452
20892W        W85877  28.187  10.977   1.458
20893W        W85878  23.297  10.397   0.405
20894W        W85879  39.979  38.933  11.622
20895W        W85880   7.268   8.802  14.834
20896W        W85881  14.068  40.989   2.769
20897W        W85882   6.752  41.240   4.441
20898W        W85883  23.344  13.058  11.529
20899W        W85884  17.634   6.907  13.851
20900W        W85885  13.990  34.321   3.861
20901W        W85886  36.087  31.420  11.032
20902W        W85887  30.327  12.827   1.482
20903W        W85888   9.153  33.541   2.757
20904W        W85889  38.025  29.984  12.301
20905W        W85890  43.790  27.986  14.879
20906W        W85891  29.208  41.553  11.467
20907W        W85892  33.808  16.470  14.005
20908W        W85893  19.170  28.538  12.119
20909W        W85894  37.030  14.703   2.222
20910W        W85895  24.022  14.318  11.625
20911W        W85896  23.783   3.338  14.338
20912W        W85897  21.454   2.987  11.702
20913W        W85898   6.851   1.010   4.073
20914W        W85899  22.876   7.988   3.131
20915W        W85900  23.993   3.052   3.673
20916W        W85901  22.482  36.241  12.025
20917W        W85902  25.560  29.595  13.806
20918W        W85903   9.571  27.083   1.925
20919W        W85904   7.612  20.266  10.710
20920W        W85905  17.550  39.609  14.856
20921W        W85906  20.247   8.876  12.606
20922W        W85907  20.099   3.221  11.890
20923W        W85908  11.630  16.834  13.556
20924W        W85909  26.582   8.715   4.685
20925W        W85910  16.207  19.355   5.369
20926W        W85911  17.285  33.080  13.788
20927W        W85912  35.794   1.959   2.356
20928W        W85913  11.538   1.651   3.778
20929W        W85914  30.238   2.745  11.469
20930W        W85915  34.682  21.032   4.615
20931W        W85916  27.485   7.409   1.889
20932W        W85917  16.589  24.537   4.373
20933W        W85918  44.493  39.428  12.803
20934W        W85919  35.682  27.937  12.087
20935W        W85920  44.201   2.913   3.282
20936W        W85921   6.445   1.680  12.095
20937W        W85922  39.829  15.238   0.797
20938W        W85923  32.568  25.014  12.117
20939W        W85924   0.405  19.619   3.410
20940W        W85925  12.254   7.221   4.127
20941W        W85926  16.799  37.402   3.873
20942W        W85927  35.144  35.869  10.323
20943W        W85928  10.843  15.612   0.030
20944W        W85929  34.566  39.055  14.993
20945W        W85930  43.218  21.583   4.071
20946W        W85931  28.927  19.389   1.309
20947W        W85932   7.404  25.284   2.289
20948W        W85933  25.144  42.761  12.430
20949W        W85934   5.971   7.270   0.413
20950W        W85935  13.829   3.192   1.021
20951W        W85936  36.728   2.952   2.850
20952W        W85937  42.060  37.751   2.641
20953W        W85938  40.051  27.072   3.187
20954W        W85939  32.010  24.174   1.945
20955W        W85940   7.452  44.988   0.315
20956W        W85941  17.187  44.364   0.329
20957W        W85942  18.810  12.694   1.760
20958W        W85943  39.263  39.246   4.830
20959W        W85944  33.332  19.488  10.471
20960W        W85945  28.199  24.686  11.141
20961W        W85946  33.338  34.065   4.455
20962W        W85947   6.228  33.262   3.718
20963W        W85948  11.697  16.724  12.085
20964W        W85949   3.297  13.719   1.842
20965W        W85950  18.036   0.977  11.589
20966W        W85951  15.085  41.403   1.354
20967W        W85952  13.141  21.197   3.637
20968W        W85953  36.599  37.547  11.967
20969W        W85954  12.998  40.794  14.997
20970W        W85955   2.736  25.009   4.115
20971W        W85956  20.620  14.589   3.086
20972W        W85957  40.924  22.017  10.802
20973W        W85958   9.031  44.761  11.131
20974W        W85959  10.157  35.593  13.381
20975W        W85960   9.064  35.550   4.535
20976W        W85961  14.719  40.827   4.506
20977W        W85962   9.019  20.932  12.939
20978W        W85963  15.639  15.223   3.767
20979W        W85964  10.911  15.688  13.391
20980W        W85965   0.699   5.245   0.727
20981W        W85966  10.298  22.472   1.255
20982W        W85967  24.688  20.010  13.813
20983W        W85968  30.100  34.607   1.260
20984W        W85969  17.783  31.479   0.451
20985W        W85970  12.147  12.041   4.582
20986W        W85971  30.216  23.269  12.048
20987W        W85972  38.960  26.814   1.270
20988W        W85973  23.539  31.432   4.957
20989W        W85974   4.405  37.304   0.873
20990W        W85975  43.599  22.447  14.890
20991W        W85976  41.167   3.244   1.645
20992W        W85977  42.297  36.586  14.110
20993W        W85978  12.659  19.066   1.389
20994W        W85979  11.888  12.933   3.116
20995W        W85980  39.895  31.553   4.553
20996W        W85981   0.333   4.605  13.446
20997W        W85982  25.610  18.591   3.939
20998W        W85983  24.550   3.000   3.323
20999W        W85984  38.795  17.972   2.591
21000W        W85985  42.424  22.935  11.151
21001W        W85986  19.132   2.841   4.530
21002W        W85987  30.449  13.935   1.811
21003W        W85988  27.079  43.495   4.595
21004W        W85989  35.124  23.048  10.571
21005W        W85990   8.421   3.870   1.781
21006W        W85991  25.065  15.796   2.272
21007W        W85992  14.795  22.582  10.496
21008W        W85993  41.731  17.847  11.067
21009W        W85994  17.039  28.045   2.956
21010W        W85995  25.077  11.260   2.359
21011W        W85996  35.147  20.650  10.713
21012W        W85997   8.168   8.551   4.081
21013W        W85998  16.048   9.310   4.737
21014W        W85999  23.129  18.778   5.027
21015W        W86000   4.744  39.013   3.823
21016W        W86001   3.290  23.615   4.568
21017W        W86002  27.076  22.962   2.717
21018W        W86003  30.011   1.681  12.985
21019W        W86004  26.781  33.214   0.743
21020W        W86005  34.165   6.578  10.794
21021W        W86006  36.191  23.947  10.705
21022W        W86007  41.261   2.293   0.354
21023W        W86008  12.799  19.549   3.251
21024W        W86009  12.837   8.760   3.639
21025W        W86010  19.038   7.366  13.561
21026W        W86011  24.642  39.795  13.375
21027W        W86012   3.747   1.288  13.638
21028W        W86013  29.689  27.376   2.121
21029W        W86014   1.241  16.117   2.443
21030W        W86015  36.778   8.319  14.808
21031W        W86016  24.149  31.525   1.675
21032W        W86017   1.405   0.117  12.133
21033W        W86018  21.722   7.989   5.197
21034W        W86019  30.640  32.418   0.254
21035W        W86020   7.415  13.363  13.902
21036W        W86021  26.422  12.605  13.884
21037W        W86022  37.444   3.742   1.007
21038W        W86023  39.545  42.294  14.461
21039W        W86024  27.164  25.561   2.269
21040W        W86025  28.994   2.126   2.010
21041W        W86026   7.862  11.213   1.845
21042W        W86027  33.168  23.958  14.054
21043W        W86028  35.596  35.720   3.153
21044W        W86029  13.614   9.391  12.599
21045W        W86030  41.090   8.827   3.179
21046W        W86031   1.800  31.916   2.862
21047W        W86032  28.550  26.939   2.893
21048W        W86033   9.776  24.453   1.425
21049W        W86034  24.250   9.248  13.472
21050W        W86035   4.294  16.462  13.447
21051W        W86036  19.597  13.828   2.687
21052W        W86037  41.284  40.311   0.004
21053W        W86038   1.747  21.024   1.373
21054W        W86039  32.578  31.537  10.775
21055W        W86040   5.826  39.077  12.342
21056W        W86041  21.799  43.832   3.686
21057W        W86042  35.650  42.864   0.086
21058W        W86043  26.358  42.035  12.499
21059W        W86044  15.251  38.055   3.643
21060W        W86045   7.254  42.961  14.516
21061W        W86046  20.256  33.212   2.595
21062W        W86047  13.000   7.459  11.797
21063W        W86048  22.012  31.053   0.233
21064W        W86049  42.959  29.677   4.529
21065W        W86050  26.144  15.727   2.236
21066W        W86051  21.683   4.848   2.634
21067W        W86052  15.367  21.352   4.043
21068W        W86053  30.475  44.579   0.618
21069W        W86054  20.640   9.747   1.546
21070W        W86055   9.924  38.456   4.024
21071W        W86056  31.086  29.394   0.249
21072W        W86057  28.720  12.815   4.581
21073W        W86058   6.806  24.495  13.987
21074W        W86059  30.688  20.861  11.774
21075W        W86060  33.118  17.813  14.961
21076W        W86061   3.560  15.154  11.256
21077W        W86062   9.845  41.953   2.744
21078W        W86063  44.280  26.792   2.182
21079W        W86064  44.931  41.241  11.144
21080W        W86065  31.481  29.648  14.020
21081W        W86066  35.381  38.479   3.802
21082W        W86067  37.139   4.842  14.394
21083W        W86068  18.802   3.183   4.318
21084W        W86069  38.433  34.373   2.889
21085W        W86070  11.117  27.107   4.068
21086W        W86071   6.386  36.508   1.907
21087W        W86072  10.631  27.068   1.862
21088W        W86073  36.292  25.148   3.307
21089W        W86074  30.318  30.525   1.907
21090W        W86075  43.835  25.144  12.356
21091W        W86076  32.156  15.486   3.160
21092W        W86077  11.574  35.435  12.585
21093W        W86078  23.107  24.760   2.141
21094W        W86079  31.588  13.305   1.373
21095W        W86080  27.066   0.436   4.027
21096W        W86081  15.621  14.178   2.757
21097W        W86082  15.156  12.427   4.696
21098W        W86083  18.289  23.443  10.752
21099W        W86084   1.125  41.315   5.095
21100W        W86085  21.606  44.330  11.401
21101W        W86086  25.608  26.058  13.056
21102W        W86087  21.257   0.779   0.946
21103W        W86088   3.951  42.343  13.857
21104W        W86089  27.071  11.174   3.867
21105W        W86090  22.596  10.806   3.883
21106W        W86091   8.803   1.220   3.012
21107W        W86092  32.512   2.867  11.935
21108W        W86093  34.827  32.045   0.439
21109W        W86094  23.261  41.521  12.067
21110W        W86095   2.905  15.340  13.633
21111W        W86096  22.003  11.568   0.931
21112W        W86097   9.249   4.920  12.455
21113W        W86098  30.892  32.033  14.388
21114W        W86099   4.503  44.393   0.434
21115W        W86100  38.414  14.702   3.712
21116W        W86101   8.923  13.685  12.439
21117W        W86102  34.794   4.706   0.638
21118W        W86103  42.949   2.765   0.032
21119W        W86104  41.202   2.180  12.137
21120W        W86105  11.549  31.124   3.911
21121W        W86106  37.232  22.600  11.644
21122W        W86107  14.312  16.126   3.326
21123W        W86108  13.314  36.437  14.542
21124W        W86109  31.123  35.018   2.821
21125W        W86110   5.805  10.235   3.737
21126W        W86111  44.617  13.642  12.418
21127W        W86112  35.563  14.917  12.931
21128W        W86113   6.607   4.921  13.008
21129W        W86114  26.575   3.983   3.220
21130W        W86115  15.615  31.571   4.619
21131W        W86116  42.745  11.800  12.128
21132W        W86117   2.748  21.069  10.645
21133W        W86118   4.832  25.529  12.142
21134W        W86119  39.691  18.059   2.828
21135W        W86120  43.803  14.417  13.408
21136W        W86121   5.695  15.192   2.833
21137W        W86122  19.666  16.241   0.433
21138W        W86123  43.780   3.357   2.239
21139W        W86124   3.220   6.372   3.302
21140W        W86125   9.631  12.137   0.737
21141W        W86126  43.894  43.434  14.967
21142W        W86127   7.397  37.128   1.842
21143W        W86128   9.829  19.987   1.218
21144W        W86129   8.799   5.692  13.864
21145W        W86130   0.927   7.821  11.227
21146W        W86131   3.944  11.108  11.577
21147W        W86132  13.635  33.683   0.367
21148W        W86133   8.122  11.276  12.514
21149W        W86134  27.764  13.683  14.226
21150W        W86135   6.076  35.320   1.388
21151W        W86136  42.376  40.460  13.547
21152W        W86137  13.266  40.157  14.422
21153W        W86138   5.995  28.053  13.814
21154W        W86139   5.875  14.169  12.463
21155W        W86140   5.266   7.298  12.787
21156W        W86141  22.647  20.049  14.605
21157W        W86142   3.502  13.934   0.486
21158W        W86143  41.311  22.748   4.057
21159W        W86144  16.404  25.141  11.438
21160W        W86145  40.270  28.405  14.821
21161W        W86146   0.777  14.422  13.102
21162W        W86147   4.908   6.998   1.185
21163W        W86148   5.381   0.221  12.904
21164W        W86149  26.683  36.807   3.244
21165W        W86150  44.884   5.822  10.729
21166W        W86151   7.951   7.176  11.889
21167W        W86152   3.151  15.068  11.975
21168W        W86153  21.796  34.108   0.962
21169W        W86154  14.631  44.939  11.130
21170W        W86155  20.793  19.579  14.481
21171W        W86156  15.445   8.867  11.732
21172W        W86157   1.514   4.203  12.510
21173W        W86158  42.672  34.633   5.388
21174W        W86159   5.935  10.824  12.963
21175W        W86160  21.852  35.986   3.927
21176W        W86161  35.826  14.901  14.986
21177W        W86162  43.067   0.478  10.684
21178W        W86163  21.575  28.037  10.979
21179W        W86164   7.439  22.574  11.597
21180W        W86165  11.901  11.049   3.127
21181W        W86166  26.104   0.326   4.889
21182W        W86167  43.242   5.477  12.055
21183W        W86168  11.177  18.220  12.916
21184W        W86169  20.760   7.863  13.863
21185W        W86170  16.635  32.711  11.817
21186W        W86171  40.190  43.407  14.970
21187W        W86172  12.892   1.381  13.906
21188W        W86173  25.125  19.719   5.135
21189W        W86174  41.065  35.079  14.335
21190W        W86175   6.416   2.405  12.525
21191W        W86176  41.456  43.965  13.492
21192W        W86177   8.313  22.204   1.824
21193W        W86178  33.948  35.900  13.363
21194W        W86179  44.467   3.782   0.915
21195W        W86180  16.621  18.623  12.848
21196W        W86181  19.139   2.699  13.062
21197W        W86182  16.080  10.470  14.035
21198W        W86183  28.469  34.971  13.529
21199W        W86184  22.740  41.359   2.762
21200W        W86185  32.043   0.878   0.590
21201W        W86186  23.487   5.259   0.035
21202W        W86187  36.639  29.065  11.154
21203W        W86188  18.698  35.322   3.899
21204W        W86189  41.748  41.616  11.498
21205W        W86190  27.068  17.069   1.190
21206W        W86191  34.658  22.533   2.399
21207W        W86192  40.284  40.471   4.082
21208W        W86193   7.758  43.790  14.873
21209W        W86194  38.027  40.117  13.401
21210W        W86195   4.755  13.742   0.897
21211W        W86196   9.191  31.969   3.336
21212W        W86197  26.443  39.575   3.655
21213W        W86198   8.770   9.589   3.231
21214W        W86199  28.636  18.180   0.864
21215W        W86200  35.940  32.941  11.253
21216W        W86201   0.808  32.022  14.978
21217W        W86202  16.008  37.930   3.489
21218W        W86203  33.477  39.590  13.512
21219W        W86204  10.899   2.885   4.268
21220W        W86205  26.586  15.267   2.930
21221W        W86206  38.140  18.281   4.142
21222W        W86207   7.192  30.453   4.518
21223W        W86208  43.762  21.433  13.372
21224W        W86209  20.614  15.042   2.236
21225W        W86210  34.605   2.166   2.857
21226W        W86211   5.272  40.504  13.677
21227W        W86212   9.167  42.627   9.942
21228W        W86213  35.483   9.769  12.796
21229W        W86214  34.975  10.734   0.995
21230W        W86215  19.298  40.380  12.035
21231W        W86216   4.243  40.022  13.868
21232W        W86217  31.844  20.300  11.908
21233W        W86218   2.882   6.548   1.951
21234W        W86219  38.017  25.426  12.946
21235W        W86220  20.948  33.861  12.686
21236W        W86221  40.349  29.295  13.415
21237W        W86222  23.637  40.484  12.029
21238W        W86223  14.766  13.416   3.481
21239W        W86224  37.960  19.681  10.661
21240W        W86225  27.938  20.245   0.077
21241W        W86226  35.036  16.887   4.091
21242W        W86227  11.758  17.102   0.033
21243W        W86228   6.731  13.236   2.184
21244W        W86229  21.079  15.818   1.230
21245W        W86230   4.141  15.000  11.955
21246W        W86231  38.343   0.412   0.380
21247W        W86232  19.275   1.581  11.648
21248W        W86233  11.249  38.532   3.725
21249W        W86234  20.773   2.359   2.092
21250W        W86235   6.060  14.188   4.588
21251W        W86236  16.734  37.353  10.553
21252W        W86237  42.796  28.147  12.370
21253W        W86238  37.556  29.422   1.361
21254W        W86239  29.935  18.038  12.612
21255W        W86240   0.104  29.529  13.761
21256W        W86241  11.340  42.363   0.645
21257W        W86242  24.452  14.060   0.006
21258W        W86243  33.826   6.805   5.010
21259W        W86244   4.853  21.084   0.478
21260W        W86245  11.068   2.251  11.463
21261W        W86246  24.015  23.958  14.617
21262W        W86247  39.504  19.174   3.491
21263W        W86248  28.195  13.894   2.294
21264W        W86249   4.743  42.990   0.987
21265W        W86250   4.068  40.431   3.182
21266W        W86251  30.472   4.208   3.168
21267W        W86252   5.256   7.725  13.598
21268W        W86253  15.245  37.073   2.730
21269W        W86254  33.278   2.437  13.570
21270W        W86255   7.206  44.053   9.913
21271W        W86256  35.307  21.128  10.788
21272W        W86257  38.992  12.691  12.764
21273W        W86258  42.004  31.335  12.414
21274W        W86259  28.410  23.036  14.006
21275W        W86260  42.503  28.583  11.163
21276W        W86261   0.267  23.268   2.565
21277W        W86262  28.365  22.964   0.276
21278W        W86263  38.326   6.639   0.306
21279W        W86264  16.854   1.321  12.507
21280W        W86265  42.975  37.561  14.213
21281W        W86266  20.323  38.463   1.132
21282W        W86267  37.513  14.575   0.368
21283W        W86268   4.457  39.003  10.622
21284W        W86269  32.405  42.817  10.705
21285W        W86270  14.738  33.709  14.993
21286W        W86271  32.816  32.755   3.199
21287W        W86272   7.980  29.693  11.933
21288W        W86273  44.457   6.173  12.067
21289W        W86274  37.866   0.226  14.623
21290W        W86275  29.276  43.586   0.448
21291W        W86276   5.133  20.515  11.060
21292W        W86277  12.986  42.804   2.293
21293W        W86278  28.266  12.419   1.271
21294W        W86279   7.723  15.224   1.607
21295W        W86280   3.033  14.203   3.322
21296W        W86281  20.047   1.319  13.328
21297W        W86282   4.051  31.131   2.239
21298W        W86283  26.913  16.313  13.028
21299W        W86284  21.030  24.441  11.708
21300W        W86285  31.699  16.567  14.985
21301W        W86286  37.245  38.787   5.189
21302W        W86287  29.560  18.536  14.539
21303W        W86288   4.816  15.485  12.514
21304W        W86289  20.887  23.740  10.812
21305W        W86290  22.745  43.308  13.365
21306W        W86291  23.072   9.254   2.601
21307W        W86292   2.330   5.176   4.805
21308W        W86293  41.273  33.882   4.094
21309W        W86294  24.685  24.899   4.348
21310W        W86295  25.266   0.100  14.465
21311W        W86296  20.536  41.110  11.233
21312W        W86297  25.695  16.280   2.784
21313W        W86298  37.842   6.743  12.380
21314W        W86299  38.301  17.084   2.410
21315W        W86300   4.702  36.619  13.929
21316W        W86301   7.847   3.447   0.208
21317W        W86302  27.215   4.289  14.266
21318W        W86303  33.428  29.657  11.055
21319W        W86304  25.942  11.779   1.714
21320W        W86305   5.367   3.021  11.615
21321W        W86306  10.118  44.008   4.712
21322W        W86307  32.025   8.814   4.876
21323W        W86308   5.838  21.561  11.389
21324W        W86309  36.353  30.395  11.927
21325W        W86310  40.243  16.725  13.430
21326W        W86311  43.421   3.970   3.786
21327W        W86312  19.264  30.021   0.460
21328W        W86313  20.830  41.263  10.828
21329W        W86314   6.701  11.221  14.092
21330W        W86315   9.798  26.120   3.217
21331W        W86316  25.150   7.067   3.190
21332W        W86317  35.654  39.461  13.126
21333W        W86318  43.262  14.701  10.741
21334W        W86319   6.895   7.928   1.080
21335W        W86320  35.503  33.295   1.268
21336W        W86321  15.075  10.166  10.866
21337W        W86322  35.455  20.266   1.273
21338W        W86323   0.972  29.115  12.041
21339W        W86324  23.746  24.672   0.060
21340W        W86325  23.968  41.967   4.957
21341W        W86326  19.631  33.573   3.812
21342W        W86327  13.548  18.595  11.923
21343W        W86328  11.838  30.494   3.259
21344W        W86329  40.706  38.346   0.791
21345W        W86330  41.325  21.685   2.768
21346W        W86331   1.524   8.939   4.112
21347W        W86332  39.432  36.010  12.088
21348W        W86333  42.801  14.249   4.060
21349W        W86334  39.281   0.346   0.290
21350W        W86335  41.355  26.720   5.317
21351W        W86336  16.385  30.129   0.304
21352W        W86337  27.776  30.655  12.843
21353W        W86338  44.302  34.986   3.573
21354W        W86339  15.307   2.410  10.685
21355W        W86340  10.032  26.476   0.404
21356W        W86341  37.100  31.071  12.005
21357W        W86342  42.833   7.314  14.113
21358W        W86343  18.710  37.491  14.535
21359W        W86344  14.103  37.951  13.793
21360W        W86345  40.819   0.773  10.747
21361W        W86346  19.668  27.543   1.976
21362W        W86347  16.960  32.197  11.059
21363W        W86348  35.668   5.634  13.046
21364W        W86349  42.528  23.610   3.099
21365W        W86350   1.011  25.092   4.650
21366W        W86351  23.138  39.399  11.477
21367W        W86352  36.593  37.774   1.186
21368W        W86353  29.949  31.484  13.350
21369W        W86354  11.146  26.992   1.866
21370W        W86355  31.107  34.370  13.329
21371W        W86356  14.681  18.279   3.264
21372W        W86357  22.453  33.835   2.880
21373W        W86358  20.672  30.828  11.932
21374W        W86359  16.107  39.002   1.978
21375W        W86360  15.652  23.735   1.359
21376W        W86361  32.789  34.910  12.439
21377W        W86362  34.499   1.185  14.799
21378W        W86363  13.323  26.895   4.190
21379W        W86364  10.575  29.029   1.425
21380W        W86365  33.569  42.282  11.606
21381W        W86366  17.747   3.195  13.624
21382W        W86367  39.799  26.302  12.500
21383W        W86368  15.088   9.712   3.976
21384W        W86369  22.672  31.518  12.009
21385W        W86370   0.916   9.442  11.944
21386W        W86371  39.379   4.935   9.944
21387W        W86372  10.790  38.868  14.397
21388W        W86373   0.852  16.785   4.778
21389W        W86374  20.360  42.044  11.228
21390W        W86375  31.635  40.662  11.250
21391W        W86376  41.975  44.947   2.406
21392W        W86377  28.762  30.516   3.724
21393W        W86378  27.068  26.978   2.879
21394W        W86379  14.445  28.272  11.178
21395W        W86380  30.452  42.344   4.089
21396W        W86381  30.578   3.345   2.808
21397W        W86382  11.463   8.404  13.827
21398W        W86383  25.422  23.069  11.574
21399W        W86384   8.638  12.293   2.503
21400W        W86385  40.556   2.995  14.907
21401W        W86386   3.199  37.479   4.680
21402W        W86387  18.145  37.962   1.456
21403W        W86388  44.202  39.994  12.187
21404W        W86389  32.573  39.319  10.745
21405W        W86390  10.912  17.928  11.157
21406W        W86391  15.179  20.104   2.661
21407W        W86392  44.341  37.285  11.604
21408W        W86393  41.308  29.958   2.634
21409W        W86394  19.356   6.878   4.490
21410W        W86395  42.507  14.773  11.637
21411W        W86396  28.517  11.294  13.894
21412W        W86397   3.338   8.608  10.072
21413W        W86398  23.057  22.999  14.893
21414W        W86399  38.757  11.055  13.549
21415W        W86400  30.203  29.466   2.286
21416W        W86401  33.488  32.965  10.507
21417W        W86402  38.802  22.574   3.636
21418W        W86403  35.048   4.050   1.257
21419W        W86404  34.170  42.269   3.290
21420W        W86405   4.296  20.035   2.653
21421W        W86406  41.271  42.755  11.874
21422W        W86407  33.137  32.692  13.479
21423W        W86408   1.327  15.354  10.679
21424W        W86409  14.989   6.909   4.394
21425W        W86410  19.273  30.353  10.266
21426W        W86411   9.794  38.471  11.580
21427W        W86412   5.673   5.299   0.690
21428W        W86413  22.307   9.963   0.521
21429W        W86414  29.685   8.052  12.925
21430W        W86415  36.015   9.446   5.428
21431W        W86416  28.464  34.105   3.097
21432W        W86417   2.892  18.542   1.776
21433W        W86418  34.135  30.424  13.081
21434W        W86419  26.537   7.358  12.350
21435W        W86420  34.599   3.902   0.190
21436W        W86421  38.970   7.972   2.847
21437W        W86422  16.619  30.428  13.950
21438W        W86423   2.975   4.529   2.747
21439W        W86424   3.707   2.788   2.281
21440W        W86425   2.220   0.384   3.248
21441W        W86426  14.367  44.504  11.048
21442W        W86427  32.614  26.580  11.771
21443W        W86428  26.146  25.662   2.477
21444W        W86429  21.539   5.356  11.351
21445W        W86430  17.274  33.423  14.252
21446W        W86431  30.444   1.470  13.426
21447W        W86432  15.571  42.324  13.028
21448W        W86433  36.590   1.262  12.456
21449W        W86434  36.136   4.724  11.650
21450W        W86435  13.440  28.033   4.662
21451W        W86436  10.308  25.674  11.885
21452W        W86437   2.380   1.483  13.336
21453W        W86438   6.788   5.734   1.763
21454W        W86439  33.325  12.428   4.165
21455W        W86440  18.452  21.199  14.458
21456W        W86441  10.912  27.622   2.779
21457W        W86442  44.293  44.023   0.819
21458W        W86443  36.026  21.731  12.431
21459W        W86444   5.286  18.828   2.721
21460W        W86445  30.532  22.661   1.209
21461W        W86446   6.526  32.233   2.330
21462W        W86447  30.161  20.187   3.751
21463W        W86448  37.262  44.496   2.298
21464W        W86449  25.023  22.519   3.660
21465W        W86450   1.838  22.668   3.779
21466W        W86451  10.800  10.240   2.889
21467W        W86452  33.931   6.857  13.336
21468W        W86453  23.762  19.577   1.395
21469W        W86454  31.912  13.781  14.719
21470W        W86455  25.110  40.286  11.209
21471W        W86456  25.728  37.501  12.907
21472W        W86457  18.217  19.640   0.716
21473W        W86458   1.469  40.789   3.575
21474W        W86459   6.321  17.983  12.922
21475W        W86460  12.132  17.005   2.620
21476W        W86461  29.025   5.499   9.995
21477W        W86462  11.696  30.776  11.611
21478W        W86463  14.168  10.173  12.251
21479W        W86464  19.699  25.168   4.563
21480W        W86465  18.347  23.217   2.753
21481W        W86466  16.552  19.002   5.122
21482W        W86467  40.134  39.975   4.196
21483W        W86468   6.272  25.772  11.187
21484W        W86469   0.303  10.978  10.787
21485W        W86470   1.788   2.650   1.732
21486W        W86471   5.210  13.093  11.929
21487W        W86472  33.956   0.439  13.831
21488W        W86473   1.270  41.451  13.270
21489W        W86474   1.765  11.751  11.603
21490W        W86475   3.241  44.883   0.373
21491W        W86476  41.922   2.731   4.852
21492W        W86477  40.305  34.200   1.849
21493W        W86478  26.962   4.307   0.718
21494W        W86479  27.117   8.864   3.676
21495W        W86480   6.366  12.127   3.187
21496W        W86481  29.125  20.564   4.349
21497W        W86482  19.612  21.938   4.447
21498W        W86483   8.353  22.277  11.557
21499W        W86484  36.510  25.885  14.481
21500W        W86485  28.861  22.040  11.459
21501W        W86486  18.238  23.166  12.247
21502W        W86487  40.947  34.603   0.043
21503W        W86488  36.798  42.013  11.577
21504W        W86489  35.982  30.553  13.820
21505W        W86490   5.903  11.853   4.386
21506W        W86491  36.466  30.836   0.853
21507W        W86492  33.847  28.087   4.354
21508W        W86493  25.813  23.161   1.255
21509W        W86494  41.326  30.118  14.927
21510W        W86495  25.780  11.994   9.959
21511W        W86496  39.200  32.945   0.369
21512W        W86497   6.387   1.681   2.893
21513W        W86498   5.910  14.868   3.688
21514W        W86499   2.252  35.882   5.087
21515W        W86500  13.766  10.153   2.612
21516W        W86501  27.633  29.562  10.352
21517W        W86502   1.472   8.623   4.525
21518W        W86503  44.418  26.768   4.632
21519W        W86504  26.255  10.121   4.839
21520W        W86505   3.350  12.886  10.847
21521W        W86506  12.276   5.193  12.527
21522W        W86507  39.408  10.664   4.295
21523W        W86508  12.907  39.322  14.513
21524W        W86509   5.461  42.826   0.311
21525W        W86510   6.755  16.582  12.328
21526W        W86511  20.744  38.975  11.283
21527W        W86512  15.754  11.453  13.754
21528W        W86513   9.154  18.231  11.629
21529W        W86514   3.442   3.170   4.262
21530W        W86515  14.041  15.482  13.767
21531W        W86516   5.042  24.326   4.173
21532W        W86517  39.368  16.083  14.084
21533W        W86518   2.143  20.004  11.605
21534W        W86519  30.045  22.026   2.315
21535W        W86520  38.672  14.783   2.012
21536W        W86521  29.591  27.586  12.059
21537W        W86522  36.607  23.074  10.729
21538W        W86523  21.702  23.689  10.830
21539W        W86524   0.417  19.373   4.567
21540W        W86525  15.569  32.633   4.016
21541W        W86526   6.389  17.482   0.854
21542W        W86527  10.593  35.341  14.417
21543W        W86528  41.887   4.479  12.045
21544W        W86529  33.970  25.153   0.438
21545W        W86530  24.466  13.200   0.733
21546W        W86531  28.195  39.211   0.299
21547W        W86532  38.308  12.218   2.893
21548W        W86533   7.931  42.756  10.168
21549W        W86534  35.561  22.026   3.712
21550W        W86535  24.205  21.667  13.414
21551W        W86536  35.137  14.111  11.062
21552W        W86537  43.023   6.222   1.846
21553W        W86538   3.396  42.982  10.337
21554W        W86539   0.391  13.239  12.086
21555W        W86540  25.457   6.346   4.953
21556W        W86541  11.349  18.121   2.578
21557W        W86542  25.329   5.448  12.006
21558W        W86543  14.520  16.028   2.811
21559W        W86544  28.925  23.223   3.290
21560W        W86545   6.399  43.614  11.518
21561W        W86546  40.100  21.973  11.193
21562W        W86547   6.386  18.117   2.042
21563W        W86548   4.603  43.611  10.787
21564W        W86549  13.186  24.445   4.112
21565W        W86550  17.592   3.678  11.124
21566W        W86551  30.132  41.143   0.625
21567W        W86552  37.482  35.941  12.962
21568W        W86553   6.127   5.229  12.151
21569W        W86554  38.200  42.021   1.785
21570W        W86555  42.743  29.648  14.958
21571W        W86556  25.662  12.185  12.648
21572W        W86557  14.239  19.447  13.026
21573W        W86558   4.047  19.201   0.835
21574W        W86559  16.482   5.404   3.056
21575W        W86560  36.067  18.049  11.534
21576W        W86561   1.154  31.417   3.698
21577W        W86562  32.253  23.719   1.823
21578W        W86563  17.426   9.453   3.606
21579W        W86564  20.140   0.495  13.865
21580W        W86565   4.297  32.903  12.255
21581W        W86566  27.165  21.688   2.497
21582W        W86567  44.718  15.653   3.226
21583W        W86568  32.250  26.182   2.334
21584W        W86569  26.213   0.827  14.484
21585W        W86570  30.111  38.879  13.885
21586W        W86571   1.072  31.196   1.219
21587W        W86572  36.170  21.018  11.869
21588W        W86573  33.677   4.316   0.834
21589W        W86574   6.476  13.578  13.912
21590W        W86575  33.071  44.494   3.802
21591W        W86576  36.435  29.838   4.117
21592W        W86577  24.193  32.001  13.681
21593W        W86578  24.446  38.050   1.840
21594W        W86579  27.961  40.570  10.175
21595W        W86580  28.121  19.982  14.656
21596W        W86581  43.317  41.747  13.211
21597W        W86582  34.358   5.683   3.742
21598W        W86583   0.336  32.173   1.683
21599W        W86584  11.589   7.240   1.143
21600W        W86585  31.590  37.802   2.264
21601W        W86586   4.173  29.103   0.393
21602W        W86587  13.893  28.604   0.320
21603W        W86588  19.421  34.937   0.528
21604W        W86589  22.027  21.443   0.393
21605W        W86590  24.227  22.190   1.306
21606W        W86591  26.406  17.533   0.267
21607W        W86592  25.432   9.191  14.623
21608W        W86593  11.512   4.668  13.934
21609W        W86594   5.639   8.685   0.344
21610W        W86595  43.858  43.799  12.398
21611W        W86596   6.912  21.090  12.070
21612W        W86597   6.406   9.294   2.858
21613W        W86598   9.810  26.386  12.050
21614W        W86599  10.481  25.058  14.021
21615W        W86600  37.783  10.088  12.459
21616W        W86601  14.113  22.570   0.307
21617W        W86602  29.385  33.626  12.999
21618W        W86603  27.970  41.504  12.217
21619W        W86604  35.867  15.070   1.344
21620W        W86605  32.846  20.471   4.549
21621W        W86606  34.952  30.081   2.141
21622W        W86607  32.395  41.314  14.969
21623W        W86608  34.971  11.676   0.785
21624W        W86609  26.457   1.909  14.432
21625W        W86610  38.082  44.562   1.356
21626W        W86611  29.965  42.654   3.875
21627W        W86612  42.043  11.592  10.623
21628W        W86613   4.797  10.917  14.937
21629W        W86614  24.082  37.353  14.849
21630W        W86615  17.687   2.942  12.652
21631W        W86616  15.539  31.540  12.668
21632W        W86617  33.545  39.090  14.845
21633W        W86618  19.629  42.652   0.568
21634W        W86619  12.010  29.989   3.255
21635W        W86620   2.356   8.857   4.559
21636W        W86621  38.609   3.932  12.426
21637W        W86622  43.998  33.401  11.707
21638W        W86623  24.036  22.631   0.026
21639W        W86624  36.619  24.881   4.113
21640W        W86625   1.217  41.497  11.475
21641W        W86626  44.010  11.398  13.912
21642W        W86627  43.850  44.789   0.041
21643W        W86628  26.116   1.416  12.378
21644W        W86629   9.401   6.436  14.593
21645W        W86630  21.249   3.921  11.191
21646W        W86631  24.813   1.426  13.440
21647W        W86632  36.402   6.665   1.307
21648W        W86633  44.439  31.877  14.017
21649W        W86634  25.488  15.509   0.433
21650W        W86635   4.224  31.553  11.467
21651W        W86636  36.506  18.009  10.762
21652W        W86637   5.421   3.441   2.629
21653W        W86638  26.455  28.995   5.491
21654W        W86639  38.717   0.763   4.462
21655W        W86640  30.134   3.433   2.136
21656W        W86641  43.237  38.933  12.045
21657W        W86642  14.107  40.519  13.602
21658W        W86643  43.498  19.742  13.836
21659W        W86644  26.110   3.820   0.471
21660W        W86645   9.931  43.830   1.373
21661W        W86646  27.995   3.354   2.749
21662W        W86647  22.255  28.471   2.786
21663W        W86648  32.574  41.441   0.433
21664W        W86649   1.408  33.090  13.852
21665W        W86650  18.376  13.770   4.025
21666W        W86651  24.517  41.839   3.032
21667W        W86652  12.868  27.727   2.912
21668W        W86653  41.814   8.319   1.018
21669W        W86654   6.228  18.153  11.626
21670W        W86655   4.589   8.379   1.605
21671W        W86656  33.018  39.106  13.978
21672W        W86657  25.914  44.018   0.764
21673W        W86658  43.101  26.049   4.943
21674W        W86659  39.441   5.315  10.839
21675W        W86660  24.747  15.130   4.833
21676W        W86661  14.655   5.361  13.854
21677W        W86662  11.797  29.021   2.302
21678W        W86663  35.376   3.166   3.195
21679W        W86664  27.411  13.038   3.246
21680W        W86665  18.081  37.476   1.693
21681W        W86666  18.559  32.585  14.516
21682W        W86667  25.095  17.214  14.038
21683W        W86668  14.463   4.875  13.948
21684W        W86669  26.060  26.579   1.731
21685W        W86670  30.953  37.930   0.308
21686W        W86671  39.532   4.573   2.256
21687W        W86672  41.414   4.878   0.022
21688W        W86673  43.443  36.427  13.894
21689W        W86674  24.015  35.106   0.827
21690W        W86675   5.926  38.037   1.201
21691W        W86676  32.802   1.559  14.380
21692W        W86677  34.608  40.011   0.070
21693W        W86678  41.312  21.665  10.677
21694W        W86679  13.771  33.503  14.749
21695W        W86680  38.876  10.763   1.867
21696W        W86681  26.509  43.449  13.392
21697W        W86682  40.912  25.669   2.301
21698W        W86683  40.138  43.658  11.515
21699W        W86684  16.435   2.902  14.777
21700W        W86685  31.202  25.043  12.815
21701W        W86686   2.944   8.849   3.290
21702W        W86687  30.936  21.149  13.861
21703W        W86688  28.135  29.735   2.760
21704W        W86689  23.454  24.144  11.964
21705W        W86690  35.873   4.684   2.690
21706W        W86691   4.292  13.703  11.214
21707W        W86692  41.360   5.888  12.229
21708W        W86693  19.651  35.197   0.929
21709W        W86694  36.015  17.379   3.456
21710W        W86695  39.950  21.198  11.559
21711W        W86696  43.905  31.697  12.464
21712W        W86697  40.358  19.130   2.179
21713W        W86698   6.985  22.436   2.161
21714W        W86699  27.923  13.297  13.934
21715W        W86700  42.892   4.651  13.034
21716W        W86701  19.370  15.654   2.723
21717W        W86702   7.300   7.670  14.039
21718W        W86703   7.422   3.754  13.492
21719W        W86704  18.738  26.223   2.336
21720W        W86705  23.156  10.264  11.160
21721W        W86706   5.617  30.235   4.755
21722W        W86707   3.541   0.468   2.251
21723W        W86708  16.386  37.746  10.477
21724W        W86709  23.644   1.669  10.113
21725W        W86710  37.356  38.053   3.916
21726W        W86711  40.467   0.595   1.235
21727W        W86712   7.321  41.414   2.727
21728W        W86713  28.378  24.194  11.100
21729W        W86714  20.246  37.548   3.371
21730W        W86715  30.743  23.309   0.342
21731W        W86716  30.042  22.512   1.313
21732W        W86717   8.902   4.185   2.660
21733W        W86718  22.908  36.834   2.937
21734W        W86719  35.108   9.868  14.907
21735W        W86720  18.763  37.754  11.182
21736W        W86721   3.793   4.678  11.611
21737W        W86722  21.134  16.114   0.216
21738W        W86723  21.161   9.818  11.037
21739W        W86724   2.089  22.063   3.770
21740W        W86725  21.316  26.206  10.051
21741W        W86726  18.506  14.289  14.886
21742W        W86727  39.031  10.960   4.042
21743W        W86728  14.616   6.956  11.124
21744W        W86729  38.576  33.625  11.789
21745W        W86730  26.614  36.658  12.680
21746W        W86731   0.383  40.486   1.062
21747W        W86732   2.565   1.991  14.773
21748W        W86733  20.564  29.354   4.554
21749W        W86734  12.619  12.216   3.527
21750W        W86735  18.597  44.994  14.197
21751W        W86736  33.586  27.870  13.477
21752W        W86737  37.078   3.340  14.528
21753W        W86738  12.399  21.290   0.849
21754W        W86739  38.566  28.229   2.784
21755W        W86740  20.125  41.755  12.207
21756W        W86741   4.007   9.783  10.782
21757W        W86742  37.925  24.345   3.402
21758W        W86743  11.379   6.914   5.058
21759W        W86744  37.418  19.960   1.745
21760W        W86745  20.843  18.384  10.660
21761W        W86746  19.023  13.149   3.826
21762W        W86747  34.515  43.037   4.910
21763W        W86748  17.248  38.974   4.205
21764W        W86749  31.085  17.085   3.635
21765W        W86750  10.234  16.293  11.205
21766W        W86751   2.016  22.083  13.325
21767W        W86752  36.514  34.486   1.914
21768W        W86753  31.735  26.145   3.593
21769W        W86754  24.697  36.103  12.961
21770W        W86755   7.656  11.540  12.580
21771W        W86756  40.583   8.781  14.492
21772W        W86757  28.019  24.401  13.929
21773W        W86758  33.423  21.498  14.036
21774W        W86759  22.564  33.673   0.979
21775W        W86760  27.032  19.587  10.789
21776W        W86761  35.069  28.222   1.295
21777W        W86762  12.094  39.723  12.851
21778W        W86763  21.651   6.393  13.279
21779W        W86764   4.067  28.666   1.383
21780W        W86765  18.001  41.937  11.661
21781W        W86766  20.643  15.898   0.921
21782W        W86767   4.688  43.737   3.012
21783W        W86768  11.440   1.075  11.754
21784W        W86769  39.553  10.094  13.833
21785W        W86770  37.885  20.290   2.904
21786W        W86771  12.265  29.004   3.993
21787W        W86772  20.762  42.872   0.394
21788W        W86773  25.490  24.005   1.362
21789W        W86774  37.626  43.363   2.607
21790W        W86775  23.248   7.376  11.216
21791W        W86776   5.614   8.280   1.633
21792W        W86777  11.129  22.574   2.303
21793W        W86778   3.499  17.586  10.912
21794W        W86779  37.344  18.388   2.950
21795W        W86780  43.917  21.286   4.335
21796W        W86781  17.249   1.699   2.342
21797W        W86782  16.994   6.256   3.814
21798W        W86783  24.742  27.111  12.389
21799W        W86784  37.617  38.895  11.521
21800W        W86785  39.555  19.289  12.919
21801W        W86786  40.740  42.436  12.510
21802W        W86787  17.782  23.945   3.932
21803W        W86788  33.353  26.955  12.001
21804W        W86789  34.996  30.264   1.647
21805W        W86790  22.464  31.814   0.346
21806W        W86791   6.893  13.121   0.647
21807W        W86792  36.564  29.503   1.720
21808W        W86793   2.124  19.790  11.138
21809W        W86794  20.155   1.002  13.929
21810W        W86795  35.980   2.185   0.965
21811W        W86796  36.990  21.138  11.536
21812W        W86797  11.179  14.028  12.879
21813W        W86798  43.883  15.915  13.453
21814W        W86799  24.131  12.086   3.609
21815W        W86800  14.411  38.843   2.488
21816W        W86801  26.659   3.935  13.258
21817W        W86802  17.804  31.683   3.121
21818W        W86803  21.246  14.644   1.756
21819W        W86804  35.575  38.926   4.673
21820W        W86805   9.941  15.821   2.680
21821W        W86806  16.240  44.394   1.406
21822W        W86807  36.079  24.173   4.220
21823W        W86808  29.111  24.465  13.515
21824W        W86809  42.029  28.404   4.542
21825W        W86810  24.167  15.868   4.149
21826W        W86811  34.499  35.914  14.618
21827W        W86812   2.426  13.255   0.747
21828W        W86813   4.750  40.007  13.739
21829W        W86814   6.795  35.919   0.442
21830W        W86815  14.736  31.697   1.469
21831W        W86816   4.926  36.907  10.635
21832W        W86817   9.827  42.359   0.967
21833W        W86818  14.184  19.257  14.490
21834W        W86819   5.436   0.867  14.852
21835W        W86820   5.991  27.864  12.960
21836W        W86821  26.586  40.279   2.278
21837W        W86822  16.312  28.343   4.463
21838W        W86823  11.825   5.871   0.099
21839W        W86824  30.423  13.195   0.735
21840W        W86825  33.306  13.327   3.721
21841W        W86826   7.453  37.042   2.818
21842W        W86827  30.949  31.849   3.782
21843W        W86828   5.801  29.616   4.204
21844W        W86829  29.163   4.455   0.484
21845W        W86830  16.256   0.826  12.907
21846W        W86831  31.082  22.736   2.211
21847W        W86832  44.413  28.068   2.790
21848W        W86833  43.528  44.803  10.900
21849W        W86834  24.590  30.313  11.667
21850W        W86835  33.550  24.157  13.768
21851W        W86836  20.017   0.310   4.435
21852W        W86837  19.152  16.224  12.215
21853W        W86838  20.991  25.724   2.001
21854W        W86839  12.586  39.452  14.915
21855W        W86840  43.047  34.268  12.547
21856W        W86841  22.859   4.322   4.235
21857W        W86842  23.277  33.741  10.611
21858W        W86843  12.542   0.404  13.809
21859W        W86844  24.999   7.931   3.133
21860W        W86845  19.714  38.318  14.523
21861W        W86846  18.124   0.487   0.723
21862W        W86847  12.817  15.183   3.255
21863W        W86848  40.514   8.768   0.871
21864W        W86849   6.826  35.587  10.418
21865W        W86850  39.784  39.500  12.542
21866W        W86851  22.349  27.075   3.266
21867W        W86852  39.547  26.941  12.407
21868W        W86853  30.531  34.454  12.358
21869W        W86854  14.237  16.797  11.976
21870W        W86855  11.714  13.431  12.076
21871W        W86856   4.973  10.540  13.016
21872W        W86857  43.701  28.915  14.083
21873W        W86858  33.845  25.983  11.589
21874W        W86859  16.168  17.038  11.051
21875W        W86860  11.814  27.508   4.629
21876W        W86861  44.343  25.119   2.285
21877W        W86862  23.004  36.107   1.673
21878W        W86863  24.864   1.370   2.672
21879W        W86864  19.624   3.860  14.613
21880W        W86865   9.144  11.962  10.233
21881W        W86866  40.054  37.451   2.638
21882W        W86867  19.141  20.431  14.130
21883W        W86868  34.435   6.265   4.246
21884W        W86869   7.777  10.494   4.646
21885W        W86870  21.193  25.710   4.172
21886W        W86871  22.246  43.494   4.596
21887W        W86872  29.064  21.178  12.979
21888W        W86873  19.890  13.186  13.082
21889W        W86874  16.851  29.684   2.629
21890W        W86875  38.893  19.502  14.317
21891W        W86876  24.014  27.572  11.507
21892W        W86877   8.226  15.826   3.318
21893W        W86878  19.758  13.639   3.144
21894W        W86879   9.553  31.561   1.942
21895W        W86880  27.115  20.693  12.480
21896W        W86881   6.733  43.858  12.382
21897W        W86882  15.315  14.054  10.672
21898W        W86883   2.533  30.564  10.955
21899W        W86884  10.827  32.198   4.563
21900W        W86885   9.861  18.614  11.212
21901W        W86886  15.138  12.327  11.186
21902W        W86887  23.144   4.478  11.289
21903W        W86888   2.282  14.071   4.608
21904W        W86889  30.662  18.534  13.504
21905W        W86890  41.102  37.857   4.803
21906W        W86891   2.909   9.691   1.254
21907W        W86892  19.974  17.718   4.442
21908W        W86893  29.991  41.497   2.347
21909W        W86894  13.535  27.454   1.236
21910W        W86895  34.465  11.320   0.054
21911W        W86896  40.910  30.067   5.519
21912W        W86897   0.355   6.423  11.559
21913W        W86898   9.679  33.873  13.063
21914W        W86899  15.487  34.236   0.903
21915W        W86900  35.981  22.113  14.347
21916W        W86901  15.601  15.644  12.045
21917W        W86902  41.980  22.901   4.188
21918W        W86903  13.795  33.821   3.794
21919W        W86904  14.219  43.761   1.334
21920W        W86905  26.385  19.762  13.038
21921W        W86906   1.927  26.586  10.876
21922W        W86907  32.226   4.522   4.016
21923W        W86908   4.868   3.415   1.871
21924W        W86909   6.434  32.574   0.256
21925W        W86910   3.484   3.949   2.315
21926W        W86911  22.646   1.370   3.893
21927W        W86912  39.342  13.120  12.083
21928W        W86913   1.890  19.977  13.511
21929W        W86914  23.537  18.105  11.433
21930W        W86915  24.504   5.981  11.561
21931W        W86916  27.784  21.139   2.213
21932W        W86917  34.923  32.050  10.767
21933W        W86918  29.117  26.516   1.842
21934W        W86919  15.808   4.894  13.419
21935W        W86920  28.652   1.620   5.329
21936W        W86921  22.542  31.647   3.287
21937W        W86922   6.203   5.168   1.369
21938W        W86923  31.923  27.120  13.503
21939W        W86924  24.158  35.512  11.063
21940W        W86925  19.330  19.323   1.637
21941W        W86926  20.680  18.507   2.741
21942W        W86927  41.333  28.944   3.516
21943W        W86928  29.735   2.352   5.122
21944W        W86929  17.632  16.256   2.288
21945W        W86930  40.193  27.483   1.285
21946W        W86931  41.455  38.472   2.994
21947W        W86932  31.274  30.818   2.831
21948W        W86933  12.057   0.537  13.622
21949W        W86934  20.052   4.951  12.356
21950W        W86935  31.374  23.040   3.789
21951W        W86936  24.219  11.052   4.660
21952W        W86937  26.495  20.142   1.733
21953W        W86938  43.780  24.736  11.044
21954W        W86939  29.887  33.256   1.661
21955W        W86940  31.684   3.579   1.042
21956W        W86941  38.436  13.416   1.093
21957W        W86942   4.085  15.663  10.211
21958W        W86943  10.127   1.362  14.973
21959W        W86944  41.033  22.334   4.989
21960W        W86945  29.679  21.115  10.533
21961W        W86946  17.121  14.803   4.639
21962W        W86947  39.855  19.256   2.212
21963W        W86948   4.021  20.217   1.171
21964W        W86949  28.144  42.389  14.098
21965W        W86950  38.634   1.316  12.834
21966W        W86951   4.797  30.466  11.645
21967W        W86952  42.055   5.389  12.416
21968W        W86953  16.262  29.857   3.557
21969W        W86954  44.792  23.041  14.393
21970W        W86955  39.205  36.351   0.219
21971W        W86956  42.504  23.252  13.018
21972W        W86957  39.332  36.492  14.362
21973W        W86958  14.328  42.858  13.537
21974W        W86959  14.329  29.616  11.998
21975W        W86960  43.674   7.854   1.984
21976W        W86961  29.498  23.591   0.237
21977W        W86962  39.786  31.095   1.277
21978W        W86963  31.954  15.980  12.067
21979W        W86964  33.009  15.093  12.669
21980W        W86965   7.718   5.765   2.724
21981W        W86966  43.766  41.497   4.866
21982W        W86967  35.438  40.829   2.292
21983W        W86968   1.751  30.623   0.807
21984W        W86969  23.556  32.461   4.116
21985W        W86970  32.140  25.229  10.778
21986W        W86971  34.084   2.299   4.469
21987W        W86972   5.887   8.376   0.701
21988W        W86973   4.871  21.738  13.138
21989W        W86974   1.172  32.023  12.163
21990W        W86975  41.604  10.391  10.213
21991W        W86976  27.882  13.560  12.878
21992W        W86977  29.448   5.163  11.672
21993W        W86978  42.828  33.471  12.466
21994W        W86979   5.733  13.768  14.329
21995W        W86980  32.095  27.123   4.558
21996W        W86981  33.036  21.447   3.912
21997W        W86982   0.213  31.708   0.928
21998W        W86983  35.592  43.058  13.573
21999W        W86984  21.574  10.954  12.004
22000W        W86985  39.922   7.738  11.174
22001W        W86986   4.296  27.673  12.175
22002W        W86987  21.450  21.001  14.048
22003W        W86988  35.945  42.479  13.068
22004W        W86989   9.797  11.125   3.218
22005W        W86990  26.103  37.950  11.856
22006W        W86991  42.953  29.951  14.016
22007W        W86992  41.150  24.374   4.879
22008W        W86993  39.960  27.418   3.627
22009W        W86994  37.384  20.782  13.530
22010W        W86995  25.186  14.856   1.748
22011W        W86996  24.104   5.708   3.674
22012W        W86997  38.351  16.836  13.200
22013W        W86998  10.935  29.443   0.684
22014W        W86999  28.765  14.158   0.168
22015W        W87000  20.436  10.129  12.208
22016W        W87001  23.945  14.129   1.348
22017W        W87002  18.268  12.107   2.524
22018W        W87003  21.231  20.028  14.878
22019W        W87004  40.078  40.304   1.429
22020W        W87005  18.152  37.839   0.936
22021W        W87006  21.507   2.972   1.894
22022W        W87007  40.621  31.490  12.928
22023W        W87008   8.286  12.315  13.531
22024W        W87009  26.717   5.803   2.819
22025W        W87010  20.363  37.297   2.922
22026W        W87011  14.810   6.401   0.527
22027W        W87012  18.173  11.439  13.864
22028W        W87013  11.330  31.002  12.469
22029W        W87014  26.205   5.941   0.850
22030W        W87015  18.923   6.640  11.249
22031W        W87016  40.164   8.261  12.804
22032W        W87017  41.982  28.570  10.956
22033W        W87018  37.835  19.591  13.573
22034W        W87019  16.205  10.371  10.693
22035W        W87020  26.697  34.685  11.684
22036W        W87021   8.381   3.757   4.612
22037W        W87022  10.162  16.317   2.365
22038W        W87023  31.356  20.613  13.599
22039W        W87024   6.850  16.185   3.130
22040W        W87025  29.542  25.107  14.723
22041W        W87026  27.942  41.876   4.603
22042W        W87027  23.005  44.206  10.148
22043W        W87028  26.664  36.668   1.918
22044W        W87029  36.796  37.431  13.794
22045W        W87030  28.325  27.572  10.617
22046W        W87031  35.084  30.579   9.884
22047W        W87032  27.318  43.960   1.276
22048W        W87033  36.454  20.528  11.176
22049W        W87034  43.769   6.861  13.321
22050W        W87035  32.628  44.835   1.394
22051W        W87036  10.397  23.239  13.115
22052W        W87037  40.397  30.954  11.549
22053W        W87038  42.554   7.407  13.476
22054W        W87039   7.653  36.139   0.282
22055W        W87040  39.145   0.644   2.800
22056W        W87041  22.968  24.783   2.680
22057W        W87042   5.142  13.122  13.020
22058W        W87043  28.079  15.791  12.975
22059W        W87044  36.463   4.186   1.368
22060W        W87045  41.546   6.898  12.331
22061W        W87046  12.106  18.181  14.038
22062W        W87047  25.976  10.121  13.050
22063W        W87048   0.972  40.025   4.374
22064W        W87049  12.257   8.547  13.044
22065W        W87050  26.635  23.070  10.966
22066W        W87051  40.967   1.412  13.793
22067W        W87052  29.741  41.891  12.088
22068W        W87053  12.922  43.920  13.794
22069W        W87054  22.723  20.316  13.792
22070W        W87055  35.447   3.719   2.755
22071W        W87056   2.789  40.170   0.479
22072W        W87057   4.713  30.407   1.226
22073W        W87058  18.784  44.344   2.763
22074W        W87059   1.849  19.427  13.862
22075W        W87060  34.961  33.691  14.895
22076W        W87061  34.492  36.334   0.813
22077W        W87062   8.700   2.116  13.395
22078W        W87063  35.207   0.015  11.145
22079W        W87064  32.334  31.468   1.805
22080W        W87065   3.048  11.319  10.656
22081W        W87066  28.566  12.192   4.105
22082W        W87067  41.493  19.692  14.213
22083W        W87068  14.659  33.706   4.809
22084W        W87069  30.401  15.718   1.640
22085W        W87070   5.908  28.385  12.922
22086W        W87071  39.944  37.645  11.380
22087W        W87072  21.194  11.618   2.186
22088W        W87073  36.026  36.647   2.787
22089W        W87074   1.690  14.989  11.593
22090W        W87075  25.496  32.941   1.868
22091W        W87076  32.974  39.059   3.591
22092W        W87077  44.816  39.994   3.979
22093W        W87078  22.104  39.019   2.203
22094W        W87079  27.715  39.238  12.559
22095W        W87080  32.635   7.229   0.879
22096W        W87081  26.321  24.648   4.687
22097W        W87082  21.045  11.220   4.716
22098W        W87083  19.749  15.616   4.117
22099W        W87084   0.200  16.301   4.110
22100W        W87085  10.218  26.230  11.234
22101W        W87086   6.254  33.860   1.471
22102W        W87087  21.101  26.719   4.294
22103W        W87088  28.184  38.807  13.820
22104W        W87089  30.597  23.504   3.649
22105W        W87090  42.831  20.902  13.346
22106W        W87091  34.896  43.439   3.256
22107W        W87092  27.472  11.727  12.050
22108W        W87093  21.293  22.643   5.112
22109W        W87094  23.514   7.769   3.196
22110W        W87095  21.197  10.758  10.934
22111W        W87096   3.530  19.886   4.903
22112W        W87097  32.632  12.680   0.827
22113W        W87098  43.942   8.280   1.902
22114W        W87099  39.784  43.105   2.314
22115W        W87100  15.278  15.131   0.700
22116W        W87101  11.738  39.342   0.316
22117W        W87102  29.444  13.341  12.785
22118W        W87103  14.367  31.382   4.108
22119W        W87104   7.318   4.818   3.136
22120W        W87105  34.783   5.920  11.648
22121W        W87106   3.202  17.114   4.484
22122W        W87107  40.483  36.952   4.187
22123W        W87108  13.405  37.616   0.394
22124W        W87109  13.655  28.574  14.848
22125W        W87110  19.875   6.560  12.035
22126W        W87111  24.594  44.977   0.308
22127W        W87112   3.837  17.733  14.893
22128W        W87113  40.769  35.471  12.072
22129W        W87114  28.868  22.937  13.552
22130W        W87115  29.623  23.715   2.302
22131W        W87116  38.485  19.237  14.527
22132W        W87117  20.490  27.980  13.090
22133W        W87118   2.638   5.535  12.913
22134W        W87119  21.554  27.634  13.340
22135W        W87120  17.651  27.481  13.838
22136W        W87121   1.836   6.837  12.855
22137W        W87122  26.796  28.682  11.078
22138W        W87123  13.841  43.237  11.441
22139W        W87124   0.545  39.802   2.749
22140W        W87125   7.620   2.898   2.128
22141W        W87126   1.437  41.324   4.173
22142W        W87127  13.798  23.915   0.369
22143W        W87128  41.900  18.810  13.434
22144W        W87129  32.507  11.345  13.956
22145W        W87130  23.534  21.606   3.652
22146W        W87131  22.101  12.558   0.801
22147W        W87132  28.105   7.427   4.193
22148W        W87133  14.288  23.821  11.194
22149W        W87134  33.871  37.345   4.598
22150W        W87135  31.194  21.498  13.569
22151W        W87136  43.787   3.010  12.109
22152W        W87137   9.666  25.766   2.669
22153W        W87138  35.920  27.562  13.009
22154W        W87139   7.660  32.031  12.436
22155W        W87140  25.093  19.567   2.329
22156W        W87141  32.536  30.674  12.028
22157W        W87142  18.344   7.777  13.477
22158W        W87143  10.836  27.503  12.607
22159W        W87144   4.267  39.423   0.071
22160W        W87145  30.309  15.856  10.910
22161W        W87146  17.894  16.681   2.129
22162W        W87147   9.780  25.449   0.429
22163W        W87148  22.296  18.519  13.936
22164W        W87149  28.056  25.627   4.144
22165W        W87150  43.807   2.284  13.871
22166W        W87151  42.347  28.116  12.067
22167W        W87152   2.826   5.121  14.478
22168W        W87153  16.635  36.496  13.526
22169W        W87154  10.048  28.888  12.647
22170W        W87155  39.025  23.247   0.075
22171W        W87156  40.494  21.511   0.534
22172W        W87157  40.548  29.007   0.409
22173W        W87158  36.575  33.130   3.172
22174W        W87159  24.818  16.297   2.871
22175W        W87160   7.930  17.766   4.283
22176W        W87161   7.762  32.387   1.350
22177W        W87162  41.262  19.090   1.622
22178W        W87163  43.232   4.683  13.413
22179W        W87164  35.070  14.574   0.775
22180W        W87165  32.404  42.416  13.507
22181W        W87166  27.672  33.189   0.517
22182W        W87167   3.276  22.786   2.452
22183W        W87168  27.696  36.002  10.748
22184W        W87169   7.729  39.047   3.842
22185W        W87170  20.563  12.191   4.314
22186W        W87171  40.866  11.766   4.113
22187W        W87172  41.141  44.988   1.807
22188W        W87173  20.206   3.199  14.324
22189W        W87174  22.539  43.790   0.952
22190W        W87175  12.633  37.575   3.636
22191W        W87176  17.705  26.922  12.181
22192W        W87177  28.180  19.017   2.721
22193W        W87178  26.213  34.106  11.568
22194W        W87179  31.961   6.350   4.512
22195W        W87180  44.279  44.496  12.484
22196W        W87181  26.513  30.641   0.029
22197W        W87182  32.653  31.689  14.457
22198W        W87183  21.987  29.061  13.125
22199W        W87184  10.220   2.154   3.594
22200W        W87185  28.837  18.325  14.338
22201W        W87186  31.520  43.322  13.852
22202W        W87187   1.223  44.572   1.490
22203W        W87188  42.848  19.027   5.155
22204W        W87189  10.056  39.735   3.570
22205W        W87190  26.052  21.685  12.453
22206W        W87191  34.982  21.090   2.095
22207W        W87192  10.725  16.521  12.415
22208W        W87193   7.435  12.314  13.156
22209W        W87194  28.108   4.529  12.872
22210W        W87195  26.691   6.498  12.939
22211W        W87196   1.729  27.494   0.251
22212W        W87197  37.315  21.513   0.929
22213W        W87198  31.419  26.492   3.846
22214W        W87199  44.235   0.835  11.164
22215W        W87200  33.520  24.151  13.255
22216W        W87201  41.855  28.429  14.954
22217W        W87202  25.604  28.618  13.817
22218W        W87203   2.456  29.067   3.741
22219W        W87204  30.680   1.912   2.832
22220W        W87205   6.584  11.115   2.688
22221W        W87206   5.223  17.937   3.049
22222W        W87207  22.735  43.838  11.557
22223W        W87208  44.229  24.593  13.167
22224W        W87209   0.146  43.869   3.224
22225W        W87210  10.726  20.777  12.463
22226W        W87211  21.734  21.735  11.696
22227W        W87212   8.654  40.078   0.637
22228W        W87213  12.774   7.850   3.240
22229W        W87214  43.287  37.978  12.016
22230W        W87215  18.043  13.807   4.419
22231W        W87216  41.714  23.087  11.860
22232W        W87217  19.344  33.519   4.246
22233W        W87218  21.100   3.620  10.411
22234W        W87219   5.192   0.645  12.101
22235W        W87220  14.233  30.582  11.840
22236W        W87221  38.442  24.044  11.824
22237W        W87222  43.251  25.156  11.572
22238W        W87223  19.596  33.681   3.315
22239W        W87224  34.653   6.024   3.442
22240W        W87225  20.578  19.269  12.556
22241W        W87226  15.134  26.823  12.437
22242W        W87227  10.746   9.628  13.997
22243W        W87228  22.160  31.421  14.329
22244W        W87229  34.283  34.397   2.733
22245W        W87230   1.269  22.970   1.308
22246W        W87231  15.030  13.665   1.909
22247W        W87232   4.501  41.362   3.296
22248W        W87233   9.994  13.440  14.553
22249W        W87234  22.922  20.071  12.984
22250W        W87235  20.581  33.868  13.377
22251W        W87236  36.060   9.773  14.952
22252W        W87237  21.105  10.526  14.740
22253W        W87238  11.167   4.773   1.865
22254W        W87239  39.404  34.090  12.168
22255W        W87240  24.777  33.944  13.098
22256W        W87241   7.611  43.379  10.864
22257W        W87242  34.484   4.354   4.134
22258W        W87243  24.754  14.058   0.934
22259W        W87244   2.041  37.973   4.402
22260W        W87245  22.960  38.814   3.319
22261W        W87246  10.779  17.966  13.753
22262W        W87247  41.149  19.640   3.514
22263W        W87248  24.127  26.205   2.015
22264W        W87249  37.106  10.194  14.119
22265W        W87250  20.854   1.248  12.604
22266W        W87251  25.605  39.260   1.157
22267W        W87252   3.872  10.244  11.077
22268W        W87253  24.631  10.562   0.338
22269W        W87254  41.673   3.294   2.873
22270W        W87255  24.896  42.841   1.109
22271W        W87256  17.712  11.201   0.897
22272W        W87257  36.380  11.713   0.378
22273W        W87258   4.669  44.883   4.818
22274W        W87259  33.328   9.995  10.360
22275W        W87260  11.204  24.386   0.924
22276W        W87261   4.637   0.991   4.735
22277W        W87262   9.205  38.251  14.898
22278W        W87263  30.363  40.422   2.714
22279W        W87264   9.120  14.803  10.724
22280W        W87265   6.232  35.002   2.351
22281W        W87266  41.816  12.893   3.781
22282W        W87267  27.559   5.950   1.849
22283W        W87268   4.941  44.920   3.117
22284W        W87269  35.882  34.131   4.221
22285W        W87270   6.755  38.776   2.360
22286W        W87271  23.087  31.918   2.169
22287W        W87272  14.061  29.014  13.606
22288W        W87273  30.078  25.883  13.420
22289W        W87274  37.618  32.922   0.474
22290W        W87275  24.085  31.548   3.504
22291W        W87276   6.668  42.027  12.029
22292W        W87277  17.481   3.418  12.983
22293W        W87278  44.615   4.857  13.114
22294W        W87279  19.352   3.532  14.243
22295W        W87280  22.314  30.435   1.867
22296W        W87281  12.605   1.417   4.880
22297W        W87282  41.257  13.341  12.907
22298W        W87283  12.341  42.754   0.987
22299W        W87284  13.404  34.931  11.942
22300W        W87285  31.460  37.880   0.370
22301W        W87286   5.273  39.979  13.642
22302W        W87287   8.729  18.109   2.956
22303W        W87288   5.589  12.395  13.925
22304W        W87289  30.914  16.367  14.402
22305W        W87290  23.751  43.363  14.910
22306W        W87291   6.757  13.330  10.754
22307W        W87292  24.555  39.000   1.966
22308W        W87293   7.788  33.707  12.018
22309W        W87294   2.824   6.913   4.314
22310W        W87295  22.164  38.012  10.701
22311W        W87296  42.948  26.719  14.953
22312W        W87297  16.246  26.099  13.584
22313W        W87298  43.735  17.110  12.386
22314W        W87299  35.620  12.557   3.643
22315W        W87300  24.484  17.010  12.974
22316W        W87301  12.146  39.687   1.734
22317W        W87302   8.388  10.859  11.520
22318W        W87303  11.341   3.371  12.646
22319W        W87304  35.632  32.634  10.448
22320W        W87305  39.927  13.424   4.909
22321W        W87306  36.456   2.767  13.524
22322W        W87307   6.403  37.440  13.692
22323W        W87308  25.055  15.281  14.396
22324W        W87309   0.962  15.536  11.494
22325W        W87310  20.753  42.967   4.988
22326W        W87311  22.113   6.652   4.616
22327W        W87312  28.071  27.393  13.028
22328W        W87313  11.880  11.660   3.312
22329W        W87314  34.025  37.060   0.441
22330W        W87315  43.491  44.806   2.301
22331W        W87316   9.915  44.983  12.124
22332W        W87317  15.277   8.419   2.705
22333W        W87318   1.775   0.468  10.694
22334W        W87319   7.021  15.261  12.022
22335W        W87320  21.617   7.758  13.271
22336W        W87321  15.258  41.490   0.868
22337W        W87322  26.188  28.880   3.034
22338W        W87323   7.315  36.624   1.778
22339W        W87324   1.303  11.712  14.109
22340W        W87325  16.620   1.996  11.400
22341W        W87326  36.384   0.869   3.272
22342W        W87327  27.665   6.662  14.765
22343W        W87328   6.428  28.044   1.691
22344W        W87329  43.999   4.390   2.209
22345W        W87330   5.762  40.141  13.543
22346W        W87331  13.699  41.831   4.319
22347W        W87332  36.895  15.741  10.644
22348W        W87333  39.842   8.510   1.190
22349W        W87334  12.215  38.883  14.940
22350W        W87335  30.622  18.078   4.185
22351W        W87336  35.585   1.322   3.120
22352W        W87337   5.247  25.808  14.808
22353W        W87338  38.976   2.915  10.760
22354W        W87339  16.836  43.885   4.719
22355W        W87340   2.229  17.699   1.467
22356W        W87341  36.949  31.087   0.919
22357W        W87342  30.150  41.666  11.885
22358W        W87343   5.002  10.791  14.469
22359W        W87344  17.684  24.928  14.534
22360W        W87345   3.880   2.444  12.452
22361W        W87346  24.155   7.160   3.779
22362W        W87347   4.931  19.514  10.998
22363W        W87348  11.203  18.716  12.680
22364W        W87349  13.018  15.678  12.348
22365W        W87350  21.385  43.209   2.299
22366W        W87351   8.872  31.523  10.970
22367W        W87352  31.529  19.982  10.663
22368W        W87353  18.015  11.225  10.682
22369W        W87354  30.540  28.098   3.751
22370W        W87355  35.947  32.356  14.354
22371W        W87356   7.863   0.644   1.316
22372W        W87357  21.815  29.874   2.908
22373W        W87358  41.017   1.402  11.527
22374W        W87359  40.306  38.002   2.516
22375W        W87360  11.119   3.746   1.983
22376W        W87361   6.237   6.750   1.647
22377W        W87362  37.655  33.266  11.890
22378W        W87363   3.721  43.132   1.692
22379W        W87364  42.595   6.489  12.700
22380W        W87365   0.638  41.956   1.305
22381W        W87366  14.010   7.179   2.947
22382W        W87367  24.255  28.048  11.630
22383W        W87368   6.380  27.964   3.211
22384W        W87369  17.647  43.828  13.595
22385W        W87370  24.681   8.984   1.467
22386W        W87371  43.813   2.444   0.781
22387W        W87372  30.348   2.880   4.067
22388W        W87373  44.701  18.614  12.602
22389W        W87374   7.910   7.574  12.777
22390W        W87375   0.058  18.805   4.123
22391W        W87376  25.222  17.641  10.743
22392W        W87377  42.065   2.392   2.312
22393W        W87378  12.463   6.425  13.441
22394W        W87379  32.836  11.413   2.931
22395W        W87380  29.156  14.887  13.485
22396W        W87381  41.882   9.766   2.904
22397W        W87382  28.133  39.328  14.427
22398W        W87383  18.148   2.908   2.905
22399W        W87384   6.291  13.802  13.452
22400W        W87385  26.148  40.291  14.075
22401W        W87386  30.448  29.498   4.111
22402W        W87387   6.968  39.475   4.172
22403W        W87388  11.154  11.486  11.275
22404W        W87389  15.103  42.715  14.748
22405W        W87390  40.782  12.150   0.729
22406W        W87391  26.963  44.478   4.701
22407W        W87392  33.554  19.653  14.585
22408W        W87393  32.853  18.608  14.425
22409W        W87394  44.266  20.999   3.137
22410W        W87395  22.263  31.992  11.699
22411W        W87396  15.749  14.640  11.153
22412W        W87397   5.363   8.868   5.042
22413W        W87398  34.069  35.389   3.757
22414W        W87399  36.495  44.855  11.513
22415W        W87400  22.913  14.707  13.860
22416W        W87401   4.262  38.583   3.224
22417W        W87402  25.563  20.432  14.250
22418W        W87403  39.317  26.567   3.455
22419W        W87404  42.515  36.502   1.182
22420W        W87405  40.027  14.388  14.443
22421W        W87406  29.102  35.500   3.551
22422W        W87407  41.240  18.828  11.712
22423W        W87408   9.008  27.183  11.050
22424W        W87409  29.583  35.653  11.538
22425W        W87410  16.213  37.594   3.168
22426W        W87411  18.188  23.062  13.565
22427W        W87412  15.225  11.848   3.361
22428W        W87413  43.885  29.640  11.570
22429W        W87414   5.611  21.296   0.745
22430W        W87415   3.517  41.673  11.127
22431W        W87416   9.309  42.806   2.351
22432W        W87417  36.134  22.223   2.112
22433W        W87418  19.704  25.091  14.714
22434W        W87419  32.376   0.501  11.513
22435W        W87420  12.768   1.843  10.740
22436W        W87421  37.949  33.850   4.306
22437W        W87422  22.618   9.621   1.531
22438W        W87423  10.759   8.479   1.902
22439W        W87424  20.192  17.053   1.196
22440W        W87425  38.074  38.005  13.767
22441W        W87426  36.940  22.778  11.210
22442W        W87427  33.004  40.760   2.989
22443W        W87428   3.885   2.968  12.358
22444W        W87429   1.379  32.692   1.331
22445W        W87430  41.362  18.618   1.405
22446W        W87431  41.816  36.067  13.240
22447W        W87432  15.992  42.133   2.395
22448W        W87433  30.932  30.812   3.740
22449W        W87434  41.987  19.128   2.736
22450W        W87435  34.284  21.224  12.398
22451W        W87436  21.033  16.097  10.920
22452W        W87437  26.343  23.648  12.936
22453W        W87438   3.099  44.746  11.206
22454W        W87439  40.345  26.902  13.904
22455W        W87440  14.707   0.351   3.241
22456W        W87441   3.402   9.961   1.166
22457W        W87442   6.229  13.304   2.387
22458W        W87443   9.895  17.171  14.418
22459W        W87444  41.087  33.094   4.652
22460W        W87445  34.772  26.849  14.379
22461W        W87446  12.312   1.412  12.094
22462W        W87447   3.555  29.465  14.931
22463W        W87448  22.288   9.974   2.706
22464W        W87449   8.240  19.092  14.255
22465W        W87450  35.873  21.192  10.232
22466W        W87451  22.973  36.300   4.200
22467W        W87452  43.548   1.982   3.788
22468W        W87453  17.564   9.202   2.618
22469W        W87454  18.367   9.152  13.775
22470W        W87455  17.059  27.608   2.663
22471W        W87456  28.839   2.507   0.253
22472W        W87457   9.206   0.962  12.376
22473W        W87458   8.529  30.618   0.417
22474W        W87459  40.381   8.245   0.394
22475W        W87460  14.119  12.024  11.236
22476W        W87461   0.324  35.323   4.669
22477W        W87462   2.405  35.130   3.530
22478W        W87463   2.791  19.237   2.379
22479W        W87464  41.020  12.713   3.710
22480W        W87465  21.630  36.841   2.011
22481W        W87466  34.474  13.653   1.641
22482W        W87467  15.127  24.509  12.462
22483W        W87468  28.795  20.225   1.770
22484W        W87469  28.095  22.230   4.560
22485W        W87470  16.578   0.060   0.734
22486W        W87471  14.284  22.002   2.272
22487W        W87472  17.265   8.091  14.951
22488W        W87473  40.014  25.153   1.494
22489W        W87474   9.009   7.734  13.376
22490W        W87475  22.827  44.761  11.597
22491W        W87476  25.761  38.415   3.095
22492W        W87477   5.593   5.697   1.502
22493W        W87478  36.081  17.293   3.954
22494W        W87479   0.207  25.506   4.641
22495W        W87480   0.516  30.026   4.523
22496W        W87481   7.376  16.805   0.693
22497W        W87482  20.516  12.234   4.855
22498W        W87483  32.678  17.714  13.905
22499W        W87484  22.565  40.247   1.581
22500W        W87485   1.470  20.782   0.142
22501W        W87486  28.109   6.357  14.788
22502W        W87487  22.197  26.955   1.812
22503W        W87488  43.927  37.247   4.214
22504W        W87489   7.197  32.181  10.862
22505W        W87490  31.463   2.181   2.125
22506W        W87491   6.669  36.288   4.259
22507W        W87492  36.614  10.761   2.750
22508W        W87493  25.978  41.506   4.422
22509W        W87494  29.498   7.811  14.549
22510W        W87495  38.369  36.813   4.269
22511W        W87496  13.112  33.222   1.894
22512W        W87497  15.254  44.156  12.941
22513W        W87498  21.201  26.480  11.543
22514W        W87499  30.181  13.719   2.293
22515W        W87500  23.001   4.832  13.357
22516W        W87501  26.863  39.823  14.481
22517W        W87502  36.954  11.982   1.548
22518W        W87503  15.155  44.708   3.745
22519W        W87504  25.916  20.141  12.207
22520W        W87505   3.903  13.191  12.234
22521W        W87506  33.124   3.364  12.488
22522W        W87507   9.988  14.695  10.391
22523W        W87508  23.671  13.913   2.581
22524W        W87509  29.694  12.974   0.078
22525W        W87510  10.416  44.172   2.436
22526W        W87511  39.928   0.017  14.732
22527W        W87512   4.821   4.828   0.413
22528W        W87513  10.159  33.490   0.351
22529W        W87514  38.870  18.852   1.215
22530W        W87515   1.856   6.662  11.568
22531W        W87516  21.025  36.113   1.385
22532W        W87517  16.769  10.306   2.299
22533W        W87518  29.778  28.845  11.616
22534W        W87519   8.129  25.687   4.587
22535W        W87520   1.863  44.246  10.854
22536W        W87521   3.004  14.089   4.348
22537W        W87522  29.723  19.035   1.228
22538W        W87523  33.494  23.604   2.604
22539W        W87524   7.359  37.420  12.716
22540W        W87525  10.640   6.791   4.567
22541W        W87526  33.690  25.205   0.956
22542W        W87527  20.548   6.806  10.662
22543W        W87528  30.609   3.856  13.346
22544W        W87529  33.485  33.998  14.735
22545W        W87530   6.553  17.140   1.735
22546W        W87531  29.861  44.429  10.843
22547W        W87532  42.224   4.330  11.671
22548W        W87533  22.959  26.849   4.054
22549W        W87534  16.501   5.884  14.326
22550W        W87535   5.197   4.977  10.410
22551W        W87536  13.336  28.187   0.880
22552W        W87537   3.004   0.867   3.346
22553W        W87538  43.019  13.917  11.975
22554W        W87539  22.626   1.935   0.872
22555W        W87540   7.857  32.595  13.108
22556W        W87541  36.850  29.234  11.595
22557W        W87542  17.627   8.422  10.100
22558W        W87543   3.915  14.274   4.195
22559W        W87544  18.260  41.764   1.588
22560W        W87545  27.496   7.454   0.340
22561W        W87546  30.289  33.453  14.338
22562W        W87547  19.078  42.835   4.332
22563W        W87548  18.811  16.703   2.263
22564W        W87549  29.651  30.722   3.354
22565W        W87550  10.825  20.792   0.945
22566W        W87551  43.810  41.335   2.198
22567W        W87552  16.795  39.546  13.504
22568W        W87553  27.067   3.058  14.159
22569W        W87554  23.393   6.186   2.328
22570W        W87555   5.120  34.474   3.634
22571W        W87556  29.045  25.554   3.984
22572W        W87557  44.818   4.978  14.323
22573W        W87558  32.985  32.910  11.192
22574W        W87559  11.909  20.772  13.117
22575W        W87560  32.753  33.358  12.906
22576W        W87561  13.188  44.856  11.150
22577W        W87562  39.793   6.644  12.931
22578W        W87563  37.598  16.891   5.097
22579W        W87564  15.266  39.795   0.839
22580W        W87565   2.798  15.053  12.744
22581W        W87566   5.152  34.550  11.042
22582W        W87567   5.412  21.452   3.294
22583W        W87568  37.396   7.359  11.107
22584W        W87569  23.506  44.801   2.138
22585W        W87570   2.486  12.680   3.647
22586W        W87571  35.549   0.448   3.321
22587W        W87572  44.866  44.298   1.681
22588W        W87573  16.992  34.902   1.930
22589W        W87574   7.925  37.801  11.084
22590W        W87575  20.295   2.980   0.496
22591W        W87576   6.691   2.533  12.126
22592W        W87577  22.722   4.360  10.980
22593W        W87578   4.057  13.537   1.332
22594W        W87579   7.944   2.409  13.654
22595W        W87580  43.841   2.642  13.039
22596W        W87581  13.181  41.265   2.927
22597W        W87582  26.512   7.702   3.161
22598W        W87583   0.397  39.448  11.389
22599W        W87584  29.158  35.672   1.766
22600W        W87585  17.605  44.361  13.588
22601W        W87586  27.556   5.734   3.420
22602W        W87587  30.284   5.060  11.383
22603W        W87588   5.893  28.263  12.047
22604W        W87589   2.602  15.736  12.220
22605W        W87590  15.773  18.111  13.920
22606W        W87591  42.463   3.397   0.309
22607W        W87592  23.971   6.271  11.480
22608W        W87593  36.443   2.414  10.892
22609W        W87594   4.810   8.720   1.970
22610W        W87595  10.784  35.448   4.813
22611W        W87596  37.655  16.078  10.719
22612W        W87597  11.894  28.239  13.525
22613W        W87598  15.286  36.795   4.355
22614W        W87599  35.979   6.492   2.154
22615W        W87600  25.444  19.931  14.212
22616W        W87601   8.852  26.650   3.086
22617W        W87602  24.084  41.401   1.009
22618W        W87603  26.786  23.437   2.703
22619W        W87604  17.873  41.463   1.414
22620W        W87605  34.338  15.822  11.412
22621W        W87606  19.363  20.653   1.940
22622W        W87607  31.357  36.290   2.535
22623W        W87608   2.461  10.757  12.108
22624W        W87609  12.793   0.311  12.455
22625W        W87610  42.212  19.627   3.286
22626W        W87611  37.744  27.626   0.132
22627W        W87612  20.246   3.403   4.261
22628W        W87613   0.008  37.556  10.283
22629W        W87614  30.450  16.673   3.694
22630W        W87615  22.943   9.267   3.817
22631W        W87616  24.253  17.577   1.193
22632W        W87617   5.897  17.232   3.347
22633W        W87618   9.285   5.349  12.164
22634W        W87619  23.031  38.960   1.128
22635W        W87620  12.338   2.279   3.736
22636W        W87621   4.432  42.394  13.089
22637W        W87622  28.618   1.286  12.625
22638W        W87623   9.159   4.701   5.388
22639W        W87624  13.532   0.248  13.807
22640W        W87625  42.598  29.526   4.190
22641W        W87626  41.328  32.759   2.735
22642W        W87627   0.484  35.358  14.787
22643W        W87628   6.869  20.528   0.500
22644W        W87629  29.037  44.025  11.281
22645W        W87630   2.018  30.200   1.261
22646W        W87631   9.175  44.628   2.825
22647W        W87632   4.228   2.262  14.535
22648W        W87633  31.099  13.334   3.158
22649W        W87634  11.812   9.314  12.598
22650W        W87635  24.155  15.133  13.826
22651W        W87636   4.614  33.722   4.089
22652W        W87637   4.763  22.543   4.543
22653W        W87638  10.676   4.281   5.046
22654W        W87639   5.432  19.394   4.854
22655W        W87640  11.224  26.606  13.095
22656W        W87641  41.362  37.514  10.403
22657W        W87642  12.162  20.066   3.574
22658W        W87643  24.508  44.740   4.148
22659W        W87644   0.936  13.259  11.017
22660W        W87645  18.607  29.174   2.150
22661W        W87646  16.142  42.018   0.986
22662W        W87647  34.062  31.956   4.117
22663W        W87648  27.892   8.356  14.333
22664W        W87649  38.547  27.990  14.862
22665W        W87650   3.634   2.925  14.757
22666W        W87651  39.909  32.051   4.920
22667W        W87652   7.389  26.950   0.556
22668W        W87653  13.083  37.278  12.864
22669W        W87654   0.588  10.033   3.191
22670W        W87655   4.987  23.656   3.697
22671W        W87656  34.573  32.401   2.169
22672W        W87657  26.704  32.892  14.811
22673W        W87658  20.181  33.990  14.252
22674W        W87659  34.359  28.971   1.390
22675W        W87660  41.346  33.934  14.896
22676W        W87661  36.082  32.710   2.379
22677W        W87662  17.221  16.326   3.739
22678W        W87663  23.509  44.910   3.106
22679W        W87664  14.820  10.309  13.467
22680W        W87665  21.286  28.211  14.798
22681W        W87666  25.544  24.616   0.692
22682W        W87667  12.373  13.788   2.027
22683W        W87668  15.739  44.325   1.354
22684W        W87669  26.917  41.934  12.506
22685W        W87670  27.385  18.384  14.458
22686W        W87671  17.858   4.455  10.763
22687W        W87672   5.074  22.047  11.695
22688W        W87673   7.240  24.199   3.141
22689W        W87674  35.897  29.982   1.711
22690W        W87675  27.411  26.143   0.057
22691W        W87676  44.925  28.460  11.265
22692W        W87677  12.746  43.456   1.285
22693W        W87678  22.527  34.782  10.045
22694W        W87679  44.122  24.436  12.096
22695W        W87680   9.015  30.169   3.380
22696W        W87681  20.576  26.408   4.140
22697W        W87682  33.113   7.356  11.114
22698W        W87683  23.763  12.557   1.298
22699W        W87684  26.575  17.298   2.404
22700W        W87685  26.862  22.536   0.270
22701W        W87686  25.482  28.931   9.896
22702W        W87687  28.338  17.297   3.175
22703W        W87688   8.834   3.456  13.128
22704W        W87689  21.317  34.112   0.735
22705W        W87690  12.711   4.805   2.589
22706W        W87691  17.735  18.783   0.831
22707W        W87692  19.185  27.208   2.438
22708W        W87693  35.040  27.580   2.211
22709W        W87694  29.078  24.563   4.033
22710W        W87695   4.932  30.125  11.321
22711W        W87696  25.549  41.411  11.132
22712W        W87697  36.944  19.712  12.429
22713W        W87698   3.364   7.541   0.791
22714W        W87699   7.795  40.240   5.066
22715W        W87700  33.497  18.439   2.699
22716W        W87701  23.761  16.173  12.046
22717W        W87702  39.803  40.400   1.011
22718W        W87703  37.406  11.044  12.407
22719W        W87704  41.666  37.476  14.422
22720W        W87705  19.232  27.407   1.762
22721W        W87706  43.347   3.741  11.221
22722W        W87707  42.501  31.646   3.266
22723W        W87708  32.401   3.358  13.160
22724W        W87709  37.336   9.190   3.703
22725W        W87710   4.386  36.852   1.287
22726W        W87711  38.022   5.115  14.483
22727W        W87712  35.421  34.397   0.566
22728W        W87713   9.206   7.894  13.904
22729W        W87714  42.969  31.577   1.865
22730W        W87715  27.207  11.062  11.492
22731W        W87716  12.822  23.223   2.060
22732W        W87717  10.635  20.759  14.844
22733W        W87718  32.548  31.935  12.550
22734W        W87719   0.240  34.467  14.309
22735W        W87720  26.501  23.325   0.534
22736W        W87721   5.018  10.935  12.617
22737W        W87722  43.471  38.283  14.372
22738W        W87723  40.543  19.773   0.853
22739W        W87724  14.621  26.501  10.658
22740W        W87725  20.547   0.335   1.770
22741W        W87726  35.827  19.955  12.091
22742W        W87727  41.050  42.781  10.595
22743W        W87728  42.937  42.248   1.762
22744W        W87729  29.341  10.344  13.775
22745W        W87730   9.311  13.874   1.284
22746W        W87731  10.081  15.330   2.320
22747W        W87732  20.089  17.732  10.733
22748W        W87733  10.525  33.830   2.255
22749W        W87734  12.728  40.737   4.062
22750W        W87735  24.112  42.930   2.680
22751W        W87736  22.543  43.205   2.749
22752W        W87737   6.889  29.847  11.475
22753W        W87738  11.157   2.563   0.736
22754W        W87739  12.048  21.611   4.891
22755W        W87740  41.042  12.601   3.216
22756W        W87741  19.991  26.173  14.576
22757W        W87742  21.316  16.707  13.344
22758W        W87743  41.072  15.071  12.058
22759W        W87744  23.082  31.455   1.403
22760W        W87745   4.323  13.362   1.743
22761W        W87746  27.677   1.278   0.466
22762W        W87747   0.295  10.801  12.501
22763W        W87748   1.341  37.537   4.384
22764W        W87749  31.500  44.762   0.394
22765W        W87750  14.818   7.860   1.879
22766W        W87751  19.076  44.919  11.588
22767W        W87752  43.788  35.829  13.357
22768W        W87753  37.199  42.402   1.900
22769W        W87754   0.390  11.168   3.844
22770W        W87755  21.991   5.329   1.200
22771W        W87756  37.450  36.925   4.168
22772W        W87757  34.674   6.409   1.877
22773W        W87758   0.379  36.554   4.195
22774W        W87759  20.951  26.791  14.037
22775W        W87760  29.219   2.626  14.911
22776W        W87761  10.178  41.628   3.759
22777W        W87762  37.346  37.620   0.790
22778W        W87763  11.314  13.286  13.472
22779W        W87764  37.804  39.410  13.775
22780W        W87765  41.898  21.068   0.392
22781W        W87766  41.216  30.534   0.532
22782W        W87767  28.076  17.243   3.648
22783W        W87768  32.453  10.838  10.940
22784W        W87769  14.608  35.946   0.893
22785W        W87770   3.682  32.087  13.945
22786W        W87771  31.493   9.670  14.871
22787W        W87772  20.658  14.562   0.959
22788W        W87773   2.604   5.802   2.689
22789W        W87774  42.390   9.300   2.910
22790W        W87775  18.044  22.936   3.349
22791W        W87776  31.528   0.935   3.716
22792W        W87777  21.898  40.307  12.008
22793W        W87778   0.812  23.720   1.291
22794W        W87779  14.592  26.649  10.157
22795W        W87780   4.200   1.196   2.658
22796W        W87781  31.337   2.811   4.356
22797W        W87782  44.266   2.515  14.958
22798W        W87783  15.793   3.165   2.754
22799W        W87784  23.120  36.243   2.168
22800W        W87785  14.136  39.108   1.202
22801W        W87786   2.889  25.190   2.523
22802W        W87787  23.328  30.927  13.956
22803W        W87788  39.486  17.314  11.520
22804W        W87789  13.539  39.917   1.493
22805W        W87790  18.221  20.113   5.215
22806W        W87791  38.098  37.736  14.907
22807W        W87792  44.882  23.655   1.702
22808W        W87793  23.343  38.368   1.739
22809W        W87794   2.780  20.637   0.802
22810W        W87795  13.269  25.498   2.661
22811W        W87796  27.987  25.158   0.326
22812W        W87797  33.908  42.043   2.094
22813W        W87798  19.619  35.838   0.395
22814W        W87799  27.700  27.568  14.809
22815W        W87800  10.815  15.279  14.145
22816W        W87801   4.823  28.527  10.889
22817W        W87802  29.297  39.000   1.910
22818W        W87803  29.171   9.145  12.635
22819W        W87804  21.747  42.664   1.739
22820W        W87805  19.752  25.284  13.776
22821W        W87806  27.122   5.512   2.710
22822W        W87807  16.275  21.370   2.327
22823W        W87808  42.013  15.107  14.337
22824W        W87809  38.672  26.454  12.423
22825W        W87810  24.551  34.784   1.801
22826W        W87811  22.545   6.289  13.027
22827W        W87812  37.633  16.651   3.628
22828W        W87813  41.405   6.867   2.746
22829W        W87814  28.483  28.134   0.126
22830W        W87815   8.285  21.990  13.884
22831W        W87816  15.500  27.785   2.172
22832W        W87817  11.118  17.489   1.404
22833W        W87818  35.392  15.491  11.850
22834W        W87819  38.964   4.296   2.515
22835W        W87820  11.746  26.888  10.655
22836W        W87821   8.804  21.649   2.193
22837W        W87822  24.768  43.561  12.381
22838W        W87823  21.328  18.301  10.477
22839W        W87824  39.882  32.807  12.895
22840W        W87825  36.924  42.118   2.242
22841W        W87826  11.774  30.860  14.022
22842W        W87827  44.808  21.245  12.165
22843W        W87828  31.523  26.131  10.539
22844W        W87829  43.286  31.954   3.899
22845W        W87830  20.080  27.869   1.485
22846W        W87831  44.797  19.540  12.423
22847W        W87832  25.959  13.329   3.380
22848W        W87833  20.508  24.552   2.334
22849W        W87834   0.220  26.666   4.090
22850W        W87835  26.007  12.200  10.777
22851W        W87836   1.479  35.778   3.104
22852W        W87837  23.529  35.301  13.039
22853W        W87838  41.301  34.595   4.541
22854W        W87839  31.312  24.996  12.335
22855W        W87840  18.521  24.550   1.351
22856W        W87841  37.105  21.974   1.382
22857W        W87842  29.682  12.080  14.625
22858W        W87843  10.401  28.094  14.859
22859W        W87844  27.410  10.479   1.394
22860W        W87845   1.882  11.603  12.783
22861W        W87846  25.243  22.578   4.464
22862W        W87847  14.273  20.194  13.503
22863W        W87848   4.612  16.159   0.686
22864W        W87849   4.475  10.262   3.162
22865W        W87850  26.267   7.219   4.232
22866W        W87851  26.495  38.556  13.099
22867W        W87852   0.783   1.801  14.007
22868W        W87853   9.178  37.953   1.984
22869W        W87854   2.395   9.658  12.813
22870W        W87855  29.791   7.840   2.206
22871W        W87856   3.520  40.782   1.723
22872W        W87857  26.437  10.060   3.182
22873W        W87858  19.926  23.713   4.137
22874W        W87859  17.721  19.880   0.559
22875W        W87860   6.881  42.520   3.250
22876W        W87861  24.737  29.349   2.711
22877W        W87862  15.803  26.464   5.456
22878W        W87863  31.563   8.327   2.274
22879W        W87864  39.432  32.597  13.883
22880W        W87865  36.584  32.660   4.060
22881W        W87866  18.289  16.974  11.530
22882W        W87867  35.352   3.317  13.534
22883W        W87868   9.463  13.780  13.320
22884W        W87869  22.813  25.733   3.266
22885W        W87870   2.968   5.244   3.612
22886W        W87871  36.960  12.311  11.183
22887W        W87872  24.127   4.329   3.768
22888W        W87873  42.575  44.908  10.666
22889W        W87874  28.402  26.946   4.733
22890W        W87875  25.305  17.125  13.574
22891W        W87876  31.096  44.890  13.273
22892W        W87877  37.586  30.380  14.364
22893W        W87878  33.802   2.282  12.658
22894W        W87879  34.537  21.034  12.003
22895W        W87880  10.696  15.316  10.591
22896W        W87881  27.852   8.877  14.946
22897W        W87882  38.837  35.059  13.834
22898W        W87883  15.873  20.654  10.715
22899W        W87884   3.390   8.390  12.370
22900W        W87885  42.276  13.473  11.570
22901W        W87886  14.157   8.109  13.485
22902W        W87887  10.698  16.357   4.103
22903W        W87888  34.903  33.694  10.228
22904W        W87889  21.489  28.800   0.342
22905W        W87890   8.882   8.913  14.493
22906W        W87891  32.189  29.568  12.340
22907W        W87892   8.830  11.159  14.363
22908W        W87893  19.616  27.403   0.917
22909W        W87894  26.854  43.538  13.836
22910W        W87895  38.001  27.144   4.085
22911W        W87896  18.362  28.623   1.314
22912W        W87897  41.258  22.258   1.857
22913W        W87898   7.151  28.535   2.248
22914W        W87899  32.186  41.838   1.207
22915W        W87900  33.030  20.121   0.549
22916W        W87901   3.818  24.499  14.983
22917W        W87902  42.936  10.418   0.920
22918W        W87903  14.317  24.912   4.498
22919W        W87904  28.483  35.534   0.667
22920W        W87905   8.219  38.970  11.377
22921W        W87906  21.345  39.399   0.125
22922W        W87907  14.672  44.527  12.586
22923W        W87908   5.733   9.588  14.826
22924W        W87909   2.245  27.199  10.715
22925W        W87910   6.762  27.616  11.285
22926W        W87911   4.712  13.345   3.745
22927W        W87912  32.307   0.076   3.624
22928W        W87913  29.896  30.649   2.896
22929W        W87914   8.406   2.677  12.484
22930W        W87915  13.197  25.521  12.409
22931W        W87916  39.425  26.626   4.901
22932W        W87917  24.378  30.386   4.012
22933W        W87918   3.198  14.209  12.426
22934W        W87919  19.876  10.939  13.397
22935W        W87920  15.296  40.629   0.250
22936W        W87921  25.247  14.608  14.913
22937W        W87922   3.716   6.383  11.571
22938W        W87923  41.822  42.892  13.211
22939W        W87924   1.659   1.849   4.075
22940W        W87925  11.147  34.906   1.190
22941W        W87926  44.851  44.401   3.891
22942W        W87927  36.003  29.426   2.801
22943W        W87928  17.056  20.778  11.690
22944W        W87929  28.485  19.114  12.493
22945W        W87930  17.644   1.711   2.711
22946W        W87931  41.848  32.187  12.428
22947W        W87932  27.381   1.520   1.925
22948W        W87933  30.937  35.736  13.307
22949W        W87934  18.896  31.636  13.635
22950W        W87935   0.823   4.260  14.444
22951W        W87936  28.206  31.919  10.195
22952W        W87937  37.416   2.611  10.599
22953W        W87938   6.930  20.601  14.028
22954W        W87939  42.559  35.802   0.311
22955W        W87940   2.484  12.382  10.746
22956W        W87941  34.558   6.240   0.817
22957W        W87942  21.099  24.584   3.623
22958W        W87943  28.974   0.907   0.704
22959W        W87944  40.080  33.057   1.014
22960W        W87945  44.358  36.944  10.875
22961W        W87946  20.117  31.407  12.974
22962W        W87947  19.353  27.011   3.805
22963W        W87948  17.302  28.521  13.057
22964W        W87949  17.346  13.378  12.850
22965W        W87950  44.699  42.293  13.295
22966W        W87951  39.893   5.340   4.215
22967W        W87952  17.199  18.763  14.518
22968W        W87953  34.816  30.693  11.029
22969W        W87954   6.971  39.576   0.317
22970W        W87955  30.592  30.813  13.872
22971W        W87956  23.410  20.350   3.870
22972W        W87957  25.181  41.912  14.600
22973W        W87958  31.943  29.858  13.912
22974W        W87959  38.536   2.504   1.691
22975W        W87960   3.885   4.912   0.644
22976W        W87961  20.200  21.668  10.669
22977W        W87962  10.901  33.456   2.368
22978W        W87963  11.284  39.921  12.510
22979W        W87964   9.355   1.869   3.207
22980W        W87965   7.549  33.932  14.883
22981W        W87966   5.365  32.338   4.192
22982W        W87967  26.824  26.136   2.842
22983W        W87968  38.266  21.506   3.064
22984W        W87969  30.873  14.561  10.066
22985W        W87970  24.132  20.089  11.287
22986W        W87971   9.742  39.987  14.509
22987W        W87972  29.178  15.671   4.161
22988W        W87973  36.990  29.651   0.002
22989W        W87974   6.618  27.357  11.690
22990W        W87975  23.900  31.274   1.172
22991W        W87976   3.540   5.217   5.430
22992W        W87977  11.254   2.901  10.661
22993W        W87978   7.973  25.124   1.443
22994W        W87979   6.586  37.400   1.267
22995W        W87980   5.812  10.363   0.445
22996W        W87981  10.914  42.569   3.154
22997W        W87982  26.508  42.510   0.499
22998W        W87983  16.126  31.132  11.155
22999W        W87984  26.243   0.809   1.063
23000W        W87985  21.641   3.283   4.192
23001W        W87986  31.699  13.692  14.237
23002W        W87987   2.649   2.304   1.932
23003W        W87988   0.414  37.934  11.281
23004W        W87989  27.183  36.296   0.848
23005W        W87990  40.130  43.257  11.204
23006W        W87991   6.834  23.061   1.951
23007W        W87992  23.533  17.557  12.157
23008W        W87993  23.558  10.908  11.974
23009W        W87994  42.531   5.786   3.131
23010W        W87995  40.662  44.487   1.079
23011W        W87996  42.410  23.529   4.076
23012W        W87997   1.707  27.659   1.868
23013W        W87998  19.190  17.709  12.513
23014W        W87999  33.939  42.390  11.263
23015W        W88000  16.746  34.699  11.485
23016W        W88001  27.900  28.447  11.996
23017W        W88002   2.228   1.276  14.621
23018W        W88003   6.395  22.832   0.313
23019W        W88004  21.006  19.481  14.011
23020W        W88005  31.039   1.660   2.083
23021W        W88006  22.664  11.969   1.426
23022W        W88007   7.873  23.483  12.448
23023W        W88008  42.892  37.255  14.656
23024W        W88009  30.651  10.108  12.169
23025W        W88010  21.882  34.110  11.573
23026W        W88011  26.620  26.025   0.444
23027W        W88012   7.673  34.393  14.500
23028W        W88013  25.489  19.818   1.369
23029W        W88014  16.712   2.572   3.820
23030W        W88015  20.584   2.915  13.951
23031W        W88016  29.980  35.667  14.766
23032W        W88017  41.601  41.668  14.669
23033W        W88018   1.865   0.266   4.150
23034W        W88019  40.828  31.566   5.066
23035W        W88020  18.469   7.821  12.993
23036W        W88021  27.052  12.431  12.563
23037W        W88022  34.943  13.739   1.893
23038W        W88023  17.871  39.359   0.392
23039W        W88024  30.591  40.270   5.019
23040W        W88025  37.291  38.492  11.490
23041W        W88026  24.753   5.184  11.201
23042W        W88027  17.137  13.737  12.478
23043W        W88028   0.350  18.365  10.828
23044W        W88029  15.720  34.050   3.827
23045W        W88030  32.931  33.061   0.571
23046W        W88031   0.662   6.542   2.014
23047W        W88032  33.833   5.960  13.357
23048W        W88033  30.988  32.601   3.252
23049W        W88034  33.607  15.786  12.002
23050W        W88035  13.239   8.200  12.099
23051W        W88036  44.826  43.489   1.361
23052W        W88037  40.344  20.226  12.939
23053W        W88038  30.143  25.749   1.239
23054W        W88039  43.097  13.717   3.388
23055W        W88040  34.333  14.088  12.882
23056W        W88041  36.534  26.172   1.805
23057W        W88042  24.708  18.309  12.488
23058W        W88043  13.572  15.005   4.162
23059W        W88044   5.031  43.976   2.133
23060W        W88045  38.599   8.335  13.844
23061W        W88046  41.801  12.723   2.147
23062W        W88047   4.746   4.419   0.747
23063W        W88048  34.464  28.792  10.622
23064W        W88049  39.668  30.831  11.918
23065W        W88050  22.221  29.196  11.036
23066W        W88051  42.844  31.503   0.786
23067W        W88052  22.966   8.726   1.782
23068W        W88053  44.176  14.060   0.323
23069W        W88054  36.872  25.267  10.961
23070W        W88055   1.328  34.233  11.743
23071W        W88056  26.879  44.726  11.595
23072W        W88057  12.080   5.700   4.601
23073W        W88058  29.669  12.626   4.783
23074W        W88059  22.268  42.041  12.853
23075W        W88060   1.248  36.887  10.998
23076W        W88061  36.006   0.025  14.867
23077W        W88062  20.707  28.188   1.364
23078W        W88063  30.646   4.722   0.745
23079W        W88064  20.539   9.605   3.073
23080W        W88065   9.151  23.287   1.273
23081W        W88066  29.625  29.980   4.932
23082W        W88067  24.867  44.948  12.870
23083W        W88068  15.690  43.549  14.579
23084W        W88069  27.329  24.272   3.269
23085W        W88070  28.717   4.817   2.312
23086W        W88071  15.692  13.727   1.281
23087W        W88072  29.667  26.622   2.719
23088W        W88073  36.575   7.587   3.641
23089W        W88074   7.036  34.566  13.783
23090W        W88075  43.829  16.568  12.405
23091W        W88076   5.459  37.422   0.475
23092W        W88077  36.337   6.978  14.244
23093W        W88078  39.840  15.488   2.739
23094W        W88079  28.798   3.450   0.297
23095W        W88080  35.914  31.572  14.805
23096W        W88081   9.524  37.008  13.189
23097W        W88082  31.852  33.283   0.756
23098W        W88083   9.428   4.001  12.049
23099W        W88084  38.005  10.089   1.955
23100W        W88085  36.382  33.075  10.521
23101W        W88086   4.937  27.217  14.310
23102W        W88087  13.076  38.058  11.170
23103W        W88088  14.369   7.672  12.128
23104W        W88089  20.505  23.036  12.117
23105W        W88090   7.827  18.329  14.367
23106W        W88091  38.390  19.458  10.863
23107W        W88092   0.505  26.879   4.929
23108W        W88093   6.896   9.694  10.228
23109W        W88094  44.995   6.695  11.190
23110W        W88095  38.618  40.908  13.844
23111W        W88096  23.142   1.482  13.533
23112W        W88097   3.886  16.674   4.711
23113W        W88098  10.180  17.173  13.974
23114W        W88099   6.475  17.438   4.099
23115W        W88100  27.688  21.512  12.921
23116W        W88101  39.076  24.813  13.051
23117W        W88102  30.892   2.054  11.743
23118W        W88103  20.633  22.377  11.537
23119W        W88104  28.168   5.843  14.918
23120W        W88105  14.848   0.427   0.481
23121W        W88106  34.777  27.914  12.958
23122W        W88107  26.928  22.632   3.089
23123W        W88108  28.599  42.964   4.161
23124W        W88109  20.823  42.122  12.020
23125W        W88110  12.924  38.518   1.421
23126W        W88111  17.892  26.661  10.532
23127W        W88112  26.448   6.758   4.405
23128W        W88113  40.281  28.724   9.464
23129W        W88114   0.371  33.008  13.591
23130W        W88115  19.070   9.634  13.433
23131W        W88116  14.708  13.088   3.092
23132W        W88117  38.787  27.365  14.437
23133W        W88118  36.365  32.999  12.021
23134W        W88119   1.963  15.664  12.957
23135W        W88120  22.079   8.293   1.487
23136W        W88121  43.791  42.032   2.787
23137W        W88122   8.878  11.321  12.071
23138W        W88123  35.926  37.564   1.748
23139W        W88124  11.551  38.363   0.949
23140W        W88125  33.903   8.805   2.819
23141W        W88126  17.676   4.664  14.467
23142W        W88127  10.666  44.371   3.667
23143W        W88128  43.793  10.608  14.328
23144W        W88129   1.781  32.173   0.022
23145W        W88130  40.926  20.802   1.054
23146W        W88131   0.421   0.514  14.767
23147W        W88132  26.569  13.690  11.626
23148W        W88133  39.383  28.117  14.444
23149W        W88134  41.622  43.084   2.349
23150W        W88135  24.948  13.277  14.893
23151W        W88136  32.028  21.828  12.109
23152W        W88137  22.166  40.577  14.020
23153W        W88138  28.985  28.566  10.863
23154W        W88139  23.984  10.664   3.156
23155W        W88140  27.198  13.364  12.324
23156W        W88141  22.843  38.504   0.927
23157W        W88142  11.616  41.415  10.734
23158W        W88143  18.159  40.417  11.532
23159W        W88144  16.466   2.896   4.156
23160W        W88145  17.610   9.310  11.707
23161W        W88146  26.510  36.997   4.535
23162W        W88147  21.408  25.538  14.062
23163W        W88148  10.082  10.351   2.280
23164W        W88149  31.208  21.985   0.668
23165W        W88150   2.506  26.555  14.294
23166W        W88151  28.912  17.657  13.109
23167W        W88152  16.145  23.348   2.730
23168W        W88153   9.632  24.946  11.167
23169W        W88154   8.648  10.973  11.081
23170W        W88155   0.491  13.725   0.389
23171W        W88156  19.649   6.956  14.017
23172W        W88157  42.473  39.235   4.559
23173W        W88158   5.235  28.863  14.812
23174W        W88159  43.111  37.043   4.366
23175W        W88160  39.015   4.002  11.439
23176W        W88161   9.798  25.459   2.271
23177W        W88162  17.884  26.691   4.920
23178W        W88163   9.536  25.447  11.234
23179W        W88164   5.878  34.876  13.234
23180W        W88165   7.102  12.064  13.980
23181W        W88166  40.984  44.255   2.327
23182W        W88167  36.237  16.438   3.443
23183W        W88168  25.657   1.542   2.263
23184W        W88169   3.240  39.102  10.959
23185W        W88170  36.483  43.749  11.964
23186W        W88171   8.151  18.788   1.448
23187W        W88172  36.404  39.350   2.950
23188W        W88173  12.170  32.372   1.460
23189W        W88174  40.717   7.556  12.970
23190W        W88175  42.662  18.355  14.802
23191W        W88176  14.345  17.828   0.170
23192W        W88177  40.122   5.594  11.723
23193W        W88178  12.727  42.656   2.716
23194W        W88179   9.217  30.951  14.354
23195W        W88180  28.359  18.225   3.070
23196W        W88181   9.890  15.563   9.896
23197W        W88182  43.236  37.878   1.389
23198W        W88183   3.936   7.370   3.827
23199W        W88184  26.652  10.215   2.736
23200W        W88185   8.951  20.507   0.372
23201W        W88186  13.845  32.176  11.122
23202W        W88187  25.174  43.921  11.658
23203W        W88188  23.542  17.595   9.547
23204W        W88189  11.915  34.668  14.332
23205W        W88190  34.617   1.008   0.315
23206W        W88191  16.685  29.289   1.696
23207W        W88192  15.718  28.314   0.668
23208W        W88193   6.801   7.231   3.238
23209W        W88194   0.224  28.369   0.744
23210W        W88195  10.889  30.904  13.763
23211W        W88196  43.946  24.224   3.825
23212W        W88197   5.975  42.727   0.186
23213W        W88198  31.850  30.561   1.833
23214W        W88199  28.208  28.067   3.402
23215W        W88200  28.105  31.029  12.636
23216W        W88201   8.194  30.388  13.004
23217W        W88202  36.599  16.094   1.260
23218W        W88203  17.795  31.947   1.746
23219W        W88204   8.741  39.598   0.844
23220W        W88205  33.019  34.257   2.182
23221W        W88206  29.685  11.601   4.825
23222W        W88207  33.823  30.880  12.118
23223W        W88208  43.033  36.064  11.753
23224W        W88209  32.353  11.504   1.631
23225W        W88210  18.978  31.899  14.510
23226W        W88211  24.644  29.115   3.188
23227W        W88212  43.376  26.521  12.991
23228W        W88213  39.882  33.702   2.396
23229W        W88214  15.105  20.358  11.104
23230W        W88215  32.812  37.399  13.575
23231W        W88216  16.748  31.893  12.005
23232W        W88217  44.998  38.178  12.594
23233W        W88218  37.086   0.536   1.443
23234W        W88219  30.189  17.896  11.537
23235W        W88220  10.688  39.276  13.949
23236W        W88221   5.839  10.749  13.976
23237W        W88222   8.864  30.109  14.375
23238W        W88223  19.516  21.093   1.719
23239W        W88224  23.433  39.563   3.577
23240W        W88225  18.093   3.370  10.808
23241W        W88226  16.599  32.453  13.990
23242W        W88227  15.838  36.336   1.725
23243W        W88228   1.555   9.683   0.502
23244W        W88229   5.343   4.860   1.190
23245W        W88230  36.580  37.112  11.031
23246W        W88231  30.007  11.195  11.871
23247W        W88232  35.356   4.179  14.508
23248W        W88233  25.707   4.375   2.269
23249W        W88234  14.826  40.483  11.609
23250W        W88235  21.271  29.483   1.925
23251W        W88236  44.477   8.701  11.525
23252W        W88237  17.948  15.136   4.706
23253W        W88238  17.782  42.880   2.092
23254W        W88239  41.545  10.098   4.250
23255W        W88240  41.852  33.561  12.440
23256W        W88241   4.244  13.806  13.927
23257W        W88242  25.677  26.281   1.389
23258W        W88243   8.940  14.454   5.005
23259W        W88244  27.618  35.286   0.316
23260W        W88245  41.361   9.424  14.297
23261W        W88246  37.117  14.096   2.400
23262W        W88247  36.857  39.040  13.397
23263W        W88248  32.642  27.536   2.356
23264W        W88249  21.051  41.626   2.607
23265W        W88250  37.139  28.777  11.560
23266W        W88251  37.214  18.052   3.328
23267W        W88252  35.251  10.133  13.305
23268W        W88253  38.137  36.295   1.221
23269W        W88254  29.433   5.463  14.097
23270W        W88255  20.627  26.915   4.236
23271W        W88256  31.665  41.027   1.669
23272W        W88257   7.939  32.989  11.477
23273W        W88258  14.358  17.922  12.999
23274W        W88259  41.071  19.286   2.837
23275W        W88260  27.518  16.809   4.580
23276W        W88261  34.618  28.387  12.919
23277W        W88262  42.184   0.214  10.555
23278W        W88263   4.179  36.300  12.796
23279W        W88264  19.247   4.665   2.900
23280W        W88265   9.056  36.864  13.892
23281W        W88266  44.282  34.890   1.253
23282W        W88267  39.341  27.419   2.278
23283W        W88268  10.947   2.785  11.507
23284W        W88269  21.389  40.289  10.159
23285W        W88270  29.821  36.586  14.524
23286W        W88271  12.108  10.534   4.528
23287W        W88272  42.928  27.141   2.723
23288W        W88273  27.951  37.074  13.410
23289W        W88274  43.903  12.710   3.635
23290W        W88275  24.032  30.247  12.030
23291W        W88276   8.149  26.608   3.706
23292W        W88277  33.620  19.673   3.029
23293W        W88278  42.894   1.681   0.125
23294W        W88279  20.578  27.925  13.599
23295W        W88280  40.757   2.595  13.988
23296W        W88281   1.523  29.010  13.673
23297W        W88282  37.355   8.162  12.101
23298W        W88283  16.732  23.972   0.371
23299W        W88284  39.025  36.618   1.181
23300W        W88285  41.437   1.436  12.481
23301W        W88286  34.978  19.959  14.523
23302W        W88287  19.742   3.439  11.131
23303W        W88288  12.469  34.813   2.236
23304W        W88289   8.825  20.267  13.756
23305W        W88290  38.122  31.545  14.793
23306W        W88291  43.154   4.098  14.771
23307W        W88292  32.832   1.285  12.430
23308W        W88293   1.959  41.821   4.290
23309W        W88294  12.558  40.390   4.401
23310W        W88295  18.966  28.132  14.505
23311W        W88296   1.481  17.500   3.179
23312W        W88297  11.856  40.748  12.553
23313W        W88298  35.645   0.756  13.374
23314W        W88299  33.220  32.767  14.864
23315W        W88300  40.378  27.672  13.633
23316W        W88301  21.209  25.167   1.267
23317W        W88302  42.972  15.132   4.058
23318W        W88303  21.344  41.685  10.414
23319W        W88304  20.040  44.394   1.208
23320W        W88305  34.180  26.477   1.332
23321W        W88306  41.591  39.526  13.033
23322W        W88307  29.729   6.812   2.719
23323W        W88308  38.423  29.137   4.538
23324W        W88309  38.374  35.245  12.815
23325W        W88310  12.509  17.636   4.153
23326W        W88311  22.521  25.160  12.022
23327W        W88312  30.958   6.152  14.225
23328W        W88313  36.991  24.570  14.775
23329W        W88314   2.435  27.487  12.420
23330W        W88315  16.239  41.431   1.914
23331W        W88316  16.148  26.454   1.289
23332W        W88317  32.828  20.384  14.325
23333W        W88318  12.854  21.076   0.806
23334W        W88319  23.095  34.365  11.037
23335W        W88320  31.795  19.358   4.312
23336W        W88321  23.003  39.797  14.910
23337W        W88322  13.422  36.532  12.120
23338W        W88323  13.189  18.500   0.815
23339W        W88324  11.445   1.903   5.093
23340W        W88325  11.140  10.570   4.560
23341W        W88326  20.551  19.810   0.995
23342W        W88327  39.012   9.335   1.064
23343W        W88328  27.186  28.749  10.731
23344W        W88329  28.190  40.388  10.690
23345W        W88330   4.974  38.035  11.980
23346W        W88331  43.384  37.289  14.444
23347W        W88332  29.507   0.823   2.494
23348W        W88333  19.829   5.387   3.067
23349W        W88334   1.791  43.921   1.880
23350W        W88335  27.109  40.296   3.766
23351W        W88336   8.296   5.503  13.952
23352W        W88337  35.140   1.260  14.671
23353W        W88338  23.885   1.205   5.523
23354W        W88339  33.653  20.651   4.248
23355W        W88340  23.311  10.171   2.729
23356W        W88341  11.771  13.306   4.462
23357W        W88342  13.240  37.902  13.678
23358W        W88343  18.725  16.653   3.160
23359W        W88344  28.512  22.054  12.990
23360W        W88345  19.029  44.840   3.483
23361W        W88346  31.431   5.860   3.296
23362W        W88347  12.881   8.859   0.790
23363W        W88348  20.212  44.282   4.611
23364W        W88349  27.835  25.301   1.049
23365W        W88350  33.471  20.598  12.501
23366W        W88351  19.814  19.494   1.449
23367W        W88352  20.565  28.990  11.838
23368W        W88353   8.342   5.405   3.175
23369W        W88354  20.203   1.302   4.158
23370W        W88355  39.736  10.324  12.508
23371W        W88356  21.524  42.339  14.031
23372W        W88357  10.276  29.901   3.558
23373W        W88358  18.275  11.336  11.130
23374W        W88359  44.013   3.334  13.047
23375W        W88360  22.633   5.325   3.294
23376W        W88361  25.572  33.165   3.881
23377W        W88362  13.696  13.651   4.361
23378W        W88363   0.687   2.841  13.768
23379W        W88364   6.356   7.462   2.644
23380W        W88365  30.231  13.855  14.519
23381W        W88366  35.367  43.583   1.300
23382W        W88367  32.967  33.932  14.009
23383W        W88368  15.843   7.916   2.476
23384W        W88369   3.655  28.953   0.687
23385W        W88370  20.708  20.271  14.922
23386W        W88371  22.748  17.514   1.341
23387W        W88372  29.327   1.472   3.779
23388W        W88373  26.955  18.706   0.745
23389W        W88374  18.755  16.045  13.519
23390W        W88375  17.070  18.887  12.942
23391W        W88376  13.772  16.040  11.513
23392W        W88377   5.635  31.562   4.703
23393W        W88378  44.813   9.788   1.893
23394W        W88379   3.420  34.289   1.500
23395W        W88380  36.350   8.166  11.577
23396W        W88381  42.942  29.907  14.552
23397W        W88382  30.538  20.759   3.248
23398W        W88383  36.259  40.359   3.746
23399W        W88384  34.144   3.798   0.442
23400W        W88385  41.365  15.816   2.773
23401W        W88386  14.118  43.842  11.558
23402W        W88387  18.615  28.214  11.062
23403W        W88388  40.310  16.247   1.711
23404W        W88389  21.683  24.633   4.919
23405W        W88390  37.833  16.042  14.859
23406W        W88391  12.393   9.722   2.880
23407W        W88392   4.408  28.509   4.975
23408W        W88393  13.238  37.737  13.171
23409W        W88394  22.021  22.206   4.088
23410W        W88395   9.338  19.784   0.364
23411W        W88396  43.781  18.329  12.100
23412W        W88397  41.495  39.811   1.350
23413W        W88398   7.331  23.473  11.273
23414W        W88399  37.380  44.759  13.429
23415W        W88400  16.521  42.007  13.359
23416W        W88401   5.280  39.457  13.707
23417W        W88402   5.357  23.399   3.421
23418W        W88403  43.800  18.172   2.303
23419W        W88404  38.625  40.581   0.576
23420W        W88405  26.672   3.722  12.401
23421W        W88406  41.815  18.168   1.111
23422W        W88407  30.930  20.002  13.108
23423W        W88408  35.092  11.387  11.962
23424W        W88409  24.769  31.814  10.767
23425W        W88410  23.649  36.557  13.367
23426W        W88411  15.656  19.602   0.771
23427W        W88412  34.510  38.883   2.751
23428W        W88413  42.438  20.661  13.584
23429W        W88414  24.168  19.843   0.764
23430W        W88415  21.745  29.050  13.573
23431W        W88416  28.210  16.036   0.357
23432W        W88417  22.422   6.365  12.539
23433W        W88418  11.942  31.666  12.459
23434W        W88419  44.848  14.146  12.068
23435W        W88420  35.713  21.239  12.045
23436W        W88421  10.923  27.556   1.834
23437W        W88422  29.643   1.414   3.307
23438W        W88423  13.709   0.092   0.377
23439W        W88424   8.470  17.632  11.636
23440W        W88425  20.516  23.684  14.888
23441W        W88426  13.650  26.079  11.046
23442W        W88427  41.042   1.579  12.817
23443W        W88428  44.209   6.920   0.471
23444W        W88429  27.542  15.985   1.108
23445W        W88430  14.625  26.588   0.113
23446W        W88431   9.485  21.148  12.852
23447W        W88432  21.061   0.463   1.775
23448W        W88433  31.365  34.509  12.903
23449W        W88434   6.342   1.810  13.928
23450W        W88435  34.138  44.789  10.901
23451W        W88436  38.411   2.264   0.725
23452W        W88437   2.157  32.533  14.994
23453W        W88438  29.234   1.689   2.839
23454W        W88439   5.879  12.653  13.195
23455W        W88440  11.254  39.185   1.875
23456W        W88441   6.664  39.146  10.204
23457W        W88442  22.605   5.651  13.098
23458W        W88443  16.194   7.239   3.091
23459W        W88444  22.263  11.891   4.128
23460W        W88445  18.172  33.112   1.312
23461W        W88446   5.805  32.617   0.762
23462W        W88447   4.446  40.350   2.176
23463W        W88448   4.041  36.950  11.176
23464W        W88449  24.629   1.268   2.239
23465W        W88450  16.290   0.503   9.844
23466W        W88451   4.456   3.067   1.896
23467W        W88452  14.152  28.274   1.876
23468W        W88453  19.309  21.996  13.287
23469W        W88454  11.588   6.366   1.295
23470W        W88455  29.179  24.860   2.155
23471W        W88456  18.748  35.898  11.930
23472W        W88457  23.737  12.136   0.003
23473W        W88458   6.833  32.707  11.166
23474W        W88459  30.704   3.438   0.358
23475W        W88460  44.375  17.819   0.312
23476W        W88461  17.993  11.839   3.354
23477W        W88462  27.609   5.210   1.463
23478W        W88463  19.641  27.150   0.434
23479W        W88464  30.944  14.239  10.639
23480W        W88465   4.786  40.466  13.520
23481W        W88466  29.329  17.370   0.714
23482W        W88467   4.799   9.271  14.390
23483W        W88468  15.107  20.101   1.268
23484W        W88469  44.054   0.905  12.564
23485W        W88470  34.527  25.945  14.297
23486W        W88471  12.198  27.252   4.910
23487W        W88472  13.208  43.444   3.389
23488W        W88473  22.946   7.227  12.491
23489W        W88474  35.102  34.636  12.831
23490W        W88475  26.699  35.802  14.717
23491W        W88476  12.115  22.748   4.170
23492W        W88477   6.373   9.758  10.210
23493W        W88478  15.190  36.997  14.839
23494W        W88479  26.747  40.057  10.640
23495W        W88480  27.294  30.077   1.489
23496W        W88481  29.436  22.623  14.360
23497W        W88482  20.093  43.825   0.068
23498W        W88483  29.188  30.907   0.796
23499W        W88484  44.484   8.095  12.999
23500W        W88485   6.860  38.050  12.943
23501W        W88486  41.621  10.420   2.747
23502W        W88487   1.252  12.762   1.926
23503W        W88488  30.656  33.470   3.510
23504W        W88489  27.727   2.267  12.514
23505W        W88490  33.325   9.153   1.109
23506W        W88491  40.535  12.718  13.140
23507W        W88492  29.884   7.384   1.288
23508W        W88493  35.031  25.492   3.709
23509W        W88494  16.319   6.258  13.013
23510W        W88495  41.419   8.638  11.482
23511W        W88496  13.184  40.438   1.332
23512W        W88497  36.644  43.253  11.916
23513W        W88498   5.735  27.076  12.543
23514W        W88499  36.513  41.912   0.803
23515W        W88500  13.392  33.102   1.302
23516W        W88501  34.904  36.176   3.200
23517W        W88502   4.731   4.721   3.005
23518W        W88503  43.810   9.175   0.977
23519W        W88504  28.671  23.793  14.401
23520W        W88505   4.526  43.270  14.724
23521W        W88506   2.715  11.307  12.523
23522W        W88507  42.527  24.780   0.883
23523W        W88508  28.504  30.041   1.659
23524W        W88509  26.247   1.882   1.412
23525W        W88510  24.056  30.589  12.809
23526W        W88511  26.380  31.477   2.687
23527W        W88512  21.355  20.547  11.981
23528W        W88513   0.850  20.288  14.809
23529W        W88514  44.888  33.066  13.802
23530W        W88515  33.767  30.073  13.013
23531W        W88516  39.387   6.371   2.220
23532W        W88517  42.920  20.764  12.857
23533W        W88518  31.364  44.150   4.705
23534W        W88519  38.575  40.218   4.905
23535W        W88520  36.772  28.059   3.265
23536W        W88521   3.974  23.693   0.233
23537W        W88522  23.715  43.899   4.023
23538W        W88523  40.560  44.745   1.514
23539W        W88524  22.575  22.261   4.091
23540W        W88525  28.567   9.336   1.607
23541W        W88526  17.538  19.205   2.639
23542W        W88527  34.790  42.288  11.647
23543W        W88528  32.578  32.607  14.233
23544W        W88529  28.509  10.681   1.177
23545W        W88530  21.172  25.973  10.652
23546W        W88531   5.975  34.405   3.048
23547W        W88532  13.508  34.253   3.758
23548W        W88533  18.027  14.288  12.930
23549W        W88534  43.913   3.770   1.168
23550W        W88535  31.838  39.981  12.879
23551W        W88536  12.753  14.166  12.346
23552W        W88537   5.129  36.561   3.372
23553W        W88538  26.035  19.121  14.982
23554W        W88539  27.674  18.802   1.324
23555W        W88540  37.111  14.939   0.337
23556W        W88541  32.904  14.086   1.755
23557W        W88542  31.467  30.319  12.066
23558W        W88543  35.596  20.192  14.624
23559W        W88544  28.115  14.155   3.709
23560W        W88545  35.327  25.445   1.801
23561W        W88546  38.976  10.300  13.003
23562W        W88547  41.779  36.517  14.090
23563W        W88548  17.408  38.805   3.276
23564W        W88549   4.041   1.826  13.087
23565W        W88550   7.751  42.540  13.445
23566W        W88551  30.082  31.532  12.494
23567W        W88552  35.352  30.080   2.970
23568W        W88553  23.506  16.535   2.752
23569W        W88554  26.118  38.751   4.574
23570W        W88555   7.840  17.492   3.842
23571W        W88556  18.176  12.296  13.009
23572W        W88557  15.399  31.059   1.798
23573W        W88558  22.052  26.638   3.703
23574W        W88559  26.869  24.426   4.068
23575W        W88560  29.210  22.612   0.770
23576W        W88561  38.412   8.498   1.176
23577W        W88562  29.533  36.172   4.146
23578W        W88563  14.585  41.816   2.240
23579W        W88564  34.346  16.023   1.893
23580W        W88565  35.189  27.881   5.107
23581W        W88566  41.786  16.740  11.145
23582W        W88567  27.930   1.746   2.302
23583W        W88568  44.504  22.948   0.710
23584W        W88569   0.806  22.841   2.410
23585W        W88570  20.770  13.757  12.944
23586W        W88571   2.555  43.756   4.827
23587W        W88572  35.069  19.125   3.907
23588W        W88573  41.761  33.103   2.849
23589W        W88574  36.038   2.737   4.644
23590W        W88575  15.781  15.139  11.194
23591W        W88576   2.239  23.174   0.513
23592W        W88577   9.783  16.663   2.492
23593W        W88578  25.439   0.271   0.313
23594W        W88579  31.652   1.298  13.046
23595W        W88580  41.861  16.212   3.507
23596W        W88581   3.770  10.335   4.204
23597W        W88582   6.957   6.423   0.453
23598W        W88583  17.152  35.917   3.972
23599W        W88584  22.121  21.969   0.352
23600W        W88585  24.069  37.805  13.295
23601W        W88586  29.659   4.255   1.761
23602W        W88587  18.780  26.136  14.483
23603W        W88588  16.743  14.745   0.755
23604W        W88589  27.748  38.367   4.892
23605W        W88590  40.236  18.303  14.859
23606W        W88591  22.145  28.623  12.438
23607W        W88592  20.270  33.607  10.308
23608W        W88593  44.525  29.260   4.969
23609W        W88594  36.415  29.214   2.131
23610W        W88595  35.491  11.056   4.523
23611W        W88596  37.288  41.495   3.718
23612W        W88597  37.937  37.830   3.569
23613W        W88598  14.665  20.739  13.984
23614W        W88599   9.396  29.550   3.756
23615W        W88600   9.696   4.316   3.053
23616W        W88601  16.274   7.189  13.054
23617W        W88602  22.895  25.523  11.927
23618W        W88603  35.880  36.246   0.431
23619W        W88604  21.759  12.369  13.571
23620W        W88605   9.197  21.613  14.088
23621W        W88606  31.444  36.847  10.683
23622W        W88607  13.623  24.524  13.327
23623W        W88608  21.307  38.141  12.405
23624W        W88609  12.123  32.375   3.946
23625W        W88610  26.822  27.054  12.609
23626W        W88611  23.146  25.873  12.895
23627W        W88612  29.608  10.355  12.857
23628W        W88613   9.871  25.863  12.094
23629W        W88614   0.407   3.450  12.969
23630W        W88615  42.173   9.160   0.174
23631W        W88616  38.980  36.709   4.677
23632W        W88617  36.410  41.987   2.243
23633W        W88618  13.867   2.072  13.528
23634W        W88619  31.569  39.655  11.928
23635W        W88620  19.847  32.895   2.636
23636W        W88621  32.044  31.939  13.939
23637W        W88622   8.659  15.191  13.760
23638W        W88623  27.354  15.225  14.039
23639W        W88624   2.426   0.891  13.736
23640W        W88625  37.737   0.844   1.800
23641W        W88626   5.241   6.897  11.096
23642W        W88627  42.980  44.547   0.310
23643W        W88628  16.788  38.108  13.008
23644W        W88629  24.630  27.268   4.426
23645W        W88630  31.038   7.318   1.452
23646W        W88631  42.284   1.266   2.159
23647W        W88632  13.322   1.642   1.732
23648W        W88633  31.937  27.525  12.550
23649W        W88634  33.991  33.414  12.613
23650W        W88635   9.276  35.458   2.195
23651W        W88636  43.234  12.077  14.897
23652W        W88637  26.725  39.484  14.870
23653W        W88638   6.750  12.777  12.413
23654W        W88639  32.614   8.952   1.221
23655W        W88640  41.039   7.229   2.866
23656W        W88641  34.774  31.221  14.039
23657W        W88642  30.569  33.969   1.217
23658W        W88643  10.933  32.113  14.880
23659W        W88644  40.555   0.255  12.685
23660W        W88645   9.464  24.749   0.173
23661W        W88646   8.258  23.798   0.843
23662W        W88647  39.375  12.634  14.327
23663W        W88648  41.285   3.701  13.613
23664W        W88649  19.816  32.020   1.779
23665W        W88650   6.283  14.575  13.822
23666W        W88651  25.476  17.572   3.245
23667W        W88652  43.818   8.610   0.899
23668W        W88653  34.587  43.484   1.752
23669W        W88654  32.664  13.223   3.180
23670W        W88655  23.695  42.478   2.227
23671W        W88656   3.692  20.743  12.474
23672W        W88657   5.770  39.817   1.765
23673W        W88658   1.702  35.324   3.264
23674W        W88659  25.244  15.584  10.959
23675W        W88660   4.261  30.834  14.022
23676W        W88661  25.526  12.034  10.607
23677W        W88662   1.891  20.683  10.655
23678W        W88663  14.263   4.159   1.974
23679W        W88664  35.326  13.621  10.965
23680W        W88665  32.538  43.025   4.755
23681W        W88666   9.624   0.735   3.685
23682W        W88667  40.972   3.903   0.354
23683W        W88668   6.006   0.550   4.498
23684W        W88669  34.349   1.974   4.168
23685W        W88670   8.899  38.023  12.248
23686W        W88671  22.929   6.273   2.488
23687W        W88672  28.837   4.508   1.444
23688W        W88673  11.860   4.788  12.122
23689W        W88674  40.313  41.058  11.524
23690W        W88675  24.247  21.577   4.741
23691W        W88676   0.933  41.414   9.749
23692W        W88677  23.008  27.134  12.651
23693W        W88678  11.256  17.088   2.896
23694W        W88679  12.585   5.972   3.703
23695W        W88680  12.888   0.417   3.486
23696W        W88681  33.215  12.817  14.459
23697W        W88682  21.725   1.341  14.790
23698W        W88683  39.564   3.833  12.466
23699W        W88684   3.910  16.523  11.222
23700W        W88685  10.839  29.923   4.477
23701W        W88686   0.876  26.416  12.360
23702W        W88687  29.544   6.360   2.918
23703W        W88688  24.966  34.897  12.535
23704W        W88689  28.930   1.714  12.553
23705W        W88690  36.320  44.880   4.026
23706W        W88691   0.376  13.184  13.467
23707W        W88692  29.225   2.447   2.311
23708W        W88693  18.646   8.429  13.827
23709W        W88694  31.475   4.444  11.002
23710W        W88695  19.712   9.388  14.360
23711W        W88696  36.849  30.429   1.727
23712W        W88697  34.722   5.722   1.674
23713W        W88698  20.077  28.124  14.509
23714W        W88699   8.690  29.843   0.809
23715W        W88700   2.341  15.313   3.715
23716W        W88701  14.003  12.405   1.057
23717W        W88702  11.367   1.577  11.906
23718W        W88703  15.570  31.646   2.875
23719W        W88704  30.173  16.669   4.200
23720W        W88705  32.276  25.456  14.840
23721W        W88706  37.467   7.755   0.868
23722W        W88707   0.334  19.321  11.218
23723W        W88708  15.771  24.607  12.821
23724W        W88709   3.475  10.261   2.845
23725W        W88710  18.778   1.839   0.290
23726W        W88711  33.410  23.218  14.516
23727W        W88712   8.793   3.852   2.174
23728W        W88713  23.376   6.942  12.447
23729W        W88714  19.461  21.489   4.259
23730W        W88715  35.353  10.662   2.389
23731W        W88716   0.767  31.999   2.741
23732W        W88717   6.382  28.197   1.208
23733W        W88718  41.463  22.208  14.826
23734W        W88719   9.318   7.039  11.624
23735W        W88720  14.715  10.109   9.977
23736W        W88721  41.846  36.656   5.007
23737W        W88722  18.456  39.029   4.658
23738W        W88723  36.792   5.325  10.623
23739W        W88724  29.284  17.275   2.827
23740W        W88725  22.471   3.573  12.902
23741W        W88726  39.868   2.855  14.399
23742W        W88727  37.310  31.917   2.304
23743W        W88728  44.112  26.808  12.000
23744W        W88729  10.358  27.612   4.172
23745W        W88730  18.265  21.756  11.528
23746W        W88731   2.047  30.596  11.366
23747W        W88732  19.212  20.319   1.128
23748W        W88733  38.797  32.623   2.355
23749W        W88734  40.545   2.464  14.775
23750W        W88735  40.349  13.330   0.917
23751W        W88736  10.415   0.972   0.302
23752W        W88737  37.072  13.425  12.534
23753W        W88738  17.110  14.650   3.285
23754W        W88739  42.086  35.582   2.236
23755W        W88740  36.509  33.632   3.214
23756W        W88741  41.921  12.230   0.644
23757W        W88742  44.723  19.031   0.318
23758W        W88743  40.157   0.781   2.839
23759W        W88744  41.272   3.169  10.719
23760W        W88745   0.824  14.622   3.223
23761W        W88746  21.554   4.788  12.242
23762W        W88747  23.104  31.424   2.457
23763W        W88748  37.959  28.688   1.898
23764W        W88749  26.377  31.898  10.265
23765W        W88750   1.722  11.381  11.181
23766W        W88751  28.850  20.028  13.948
23767W        W88752  43.566   1.428  13.911
23768W        W88753   3.439  17.043   4.979
23769W        W88754  39.169  38.653  11.825
23770W        W88755   4.408  14.369   3.266
23771W        W88756  28.676  40.800  11.901
23772W        W88757  25.653  29.561  12.423
23773W        W88758  38.088  26.622   3.222
23774W        W88759   0.131  16.192   1.760
23775W        W88760  19.066   5.739   1.451
23776W        W88761  18.711   9.389  14.085
23777W        W88762  43.957  25.146  13.259
23778W        W88763  12.946   3.662  12.017
23779W        W88764  26.768  27.825   2.230
23780W        W88765  11.866  25.642  14.708
23781W        W88766  15.596  33.059  14.927
23782W        W88767  35.786  38.456  12.567
23783W        W88768  32.083  12.792   0.768
23784W        W88769  34.473  20.245  12.512
23785W        W88770  33.951  17.446  11.569
23786W        W88771  38.320  29.430   1.492
23787W        W88772   6.700  10.704   1.380
23788W        W88773  37.690   0.989  11.118
23789W        W88774  39.967  15.088   1.793
23790W        W88775   3.809  35.174   1.857
23791W        W88776  35.303  41.775  11.604
23792W        W88777   7.941  25.658   2.632
23793W        W88778   8.118  36.029  11.605
23794W        W88779   1.236  41.931   2.251
23795W        W88780  20.098  13.187  14.995
23796W        W88781  30.635  10.860   4.231
23797W        W88782  22.158  31.498  11.709
23798W        W88783   5.342   6.502   2.862
23799W        W88784  33.774  32.821   3.366
23800W        W88785  10.850  13.271   3.577
23801W        W88786  26.702  43.363   3.558
23802W        W88787   0.028  42.235  12.095
23803W        W88788  18.682  24.120  14.676
23804W        W88789  38.046  19.841   0.799
23805W        W88790  28.987   0.432   3.316
23806W        W88791  12.675   3.172   1.408
23807W        W88792   2.537  43.422  13.755
23808W        W88793  23.108  24.162  11.074
23809W        W88794  41.462  33.154   1.282
23810W        W88795  29.942  12.384  14.254
23811W        W88796  37.923  40.381  12.649
23812W        W88797  22.164  41.916  14.844
23813W        W88798  31.907  44.288   1.212
23814W        W88799   3.054  31.833  11.659
23815W        W88800  17.724  30.600  13.400
23816W        W88801  30.112  28.018  13.289
23817W        W88802  36.394  11.979   4.071
23818W        W88803   3.578  44.972   3.191
23819W        W88804  31.494  26.591  10.817
23820W        W88805  44.252  27.511   2.748
23821W        W88806  13.865  21.102   4.181
23822W        W88807  35.071  43.547  11.251
23823W        W88808  37.334   6.327   4.202
23824W        W88809  23.605  32.384  14.372
23825W        W88810  40.374  26.420  13.018
23826W        W88811  36.631   0.957  13.603
23827W        W88812  28.126  24.064   1.709
23828W        W88813  29.117  42.333  11.275
23829W        W88814  26.469  38.529   0.056
23830W        W88815  10.398  27.658   2.692
23831W        W88816  40.514   8.745  11.190
23832W        W88817  38.531  22.346  12.931
23833W        W88818   3.896   5.373   9.761
23834W        W88819  21.629  37.808  14.892
23835W        W88820  10.446  19.720  12.941
23836W        W88821  26.601  37.684   1.778
23837W        W88822  40.411  23.193  11.619
23838W        W88823  27.167  11.332  14.247
23839W        W88824   1.494  40.346  12.465
23840W        W88825  13.267  14.312   5.045
23841W        W88826  30.696  26.694  10.829
23842W        W88827   7.257  18.221  12.013
23843W        W88828  41.195  42.091  11.961
23844W        W88829  36.498   4.731   1.807
23845W        W88830   5.248  26.108   4.388
23846W        W88831  14.294  22.639  10.627
23847W        W88832  29.594  39.783  11.207
23848W        W88833  43.185  34.520   4.135
23849W        W88834  18.335  12.180  11.592
23850W        W88835  21.086  38.821   3.146
23851W        W88836  30.610  24.425   2.145
23852W        W88837  11.675   8.451   1.731
23853W        W88838  33.921  24.084  11.162
23854W        W88839  10.012   7.101   2.679
23855W        W88840  12.932   6.966   0.806
23856W        W88841  44.870  37.869   2.225
23857W        W88842   2.770  14.585  11.166
23858W        W88843  32.985  10.772   2.208
23859W        W88844  10.225   0.306  14.992
23860W        W88845  27.203  32.926   0.685
23861W        W88846  19.391  40.461  13.767
23862W        W88847   6.785  17.140  12.494
23863W        W88848   8.782  30.273   3.845
23864W        W88849  37.154   7.980  11.171
23865W        W88850  43.043  29.124  14.825
23866W        W88851  26.233  37.798  10.930
23867W        W88852  31.911   5.732  11.963
23868W        W88853  14.738   4.441  13.851
23869W        W88854  39.947  20.536   0.871
23870W        W88855   1.952  33.938   1.710
23871W        W88856  27.193  36.908  12.933
23872W        W88857  14.355   7.781   3.594
23873W        W88858  13.677  36.551  11.646
23874W        W88859  39.396  34.628  14.005
23875W        W88860  33.977  18.338   0.370
23876W        W88861  27.814  25.963  11.907
23877W        W88862  18.464  30.710  13.650
23878W        W88863  37.574   5.511   0.275
23879W        W88864  21.702   1.208   3.354
23880W        W88865  39.937  11.823   3.759
23881W        W88866  33.985  14.495  12.546
23882W        W88867  10.829  23.504   0.534
23883W        W88868   5.002  16.528   2.398
23884W        W88869  35.621  26.777  13.407
23885W        W88870  14.901  26.218   3.622
23886W        W88871  19.982  42.431   0.276
23887W        W88872   7.312  40.372   0.388
23888W        W88873  35.050   1.651  12.442
23889W        W88874  44.242  21.285   1.290
23890W        W88875  20.949  22.783   2.520
23891W        W88876  43.043   7.374  13.616
23892W        W88877  24.898  24.140   1.972
23893W        W88878   2.245   3.053  10.216
23894W        W88879  26.012  23.837   2.216
23895W        W88880  29.977  15.833  11.336
23896W        W88881  15.323  39.132  12.940
23897W        W88882  34.531  24.449   1.045
23898W        W88883  39.940   6.148  14.668
23899W        W88884  15.909   2.067  12.057
23900W        W88885  27.617  27.633  12.859
23901W        W88886  10.482  25.658   1.713
23902W        W88887  23.162   4.245   1.622
23903W        W88888  33.319  10.099  13.327
23904W        W88889  22.975  28.202  14.949
23905W        W88890   9.689  26.622   3.394
23906W        W88891  32.265  10.457  14.391
23907W        W88892   9.379  12.371   0.323
23908W        W88893  40.793   6.208  13.791
23909W        W88894  12.124  34.396  13.918
23910W        W88895  15.201  25.451  11.782
23911W        W88896   1.736  13.391  13.432
23912W        W88897  27.646  31.306  10.250
23913W        W88898  37.429   7.957   1.964
23914W        W88899  17.748  40.529  13.537
23915W        W88900  11.365   1.359   4.233
23916W        W88901  33.574  31.106   1.874
23917W        W88902   7.339   4.682   5.370
23918W        W88903   4.489   8.452  14.509
23919W        W88904  41.309  36.050  10.039
23920W        W88905  32.572  26.688  12.595
23921W        W88906   7.575  32.314   2.266
23922W        W88907  27.513  16.376   4.874
23923W        W88908   3.285  34.616   3.429
23924W        W88909  30.844   1.399   0.286
23925W        W88910  21.076  24.315   4.560
23926W        W88911   3.189   9.469  13.460
23927W        W88912  17.748   9.811   3.388
23928W        W88913  28.333   6.931   0.483
23929W        W88914  38.387  29.948   1.469
23930W        W88915  31.187   3.797  13.939
23931W        W88916  32.437  42.486   2.814
23932W        W88917   5.854  30.173   1.531
23933W        W88918  33.126  15.546  12.003
23934W        W88919  21.898  42.312  11.871
23935W        W88920  12.613  30.897  11.674
23936W        W88921   1.148  18.007   0.292
23937W        W88922   7.949  38.322  14.499
23938W        W88923  27.891   7.283  12.414
23939W        W88924  27.575  17.698   3.241
23940W        W88925   1.142  19.672  13.426
23941W        W88926  17.770  42.358   2.465
23942W        W88927  36.369   0.340   3.778
23943W        W88928  15.288  37.995   1.145
23944W        W88929  28.543  38.792   1.319
23945W        W88930  33.042  31.735  11.530
23946W        W88931  28.115  41.774   3.778
23947W        W88932   9.191  40.365   0.003
23948W        W88933   0.121  25.346  14.455
23949W        W88934  25.888  23.821  11.114
23950W        W88935  39.490   6.726   3.167
23951W        W88936  30.087   9.189  10.766
23952W        W88937  44.075  25.520   5.005
23953W        W88938  24.240  32.010   3.722
23954W        W88939  17.122  12.866   3.110
23955W        W88940  38.410  35.392  13.857
23956W        W88941  37.235   0.827   3.686
23957W        W88942  22.114   5.190   2.451
23958W        W88943   3.863  12.498  10.728
23959W        W88944  11.286  29.558   3.857
23960W        W88945  18.659   2.167   4.146
23961W        W88946  39.956   6.431   4.301
23962W        W88947   0.262  29.607  12.178
23963W        W88948  26.100  33.413   0.304
23964W        W88949  43.191  38.998  13.000
23965W        W88950  18.139  17.034  11.049
23966W        W88951  22.729  38.145   3.035
23967W        W88952   9.648   3.248  12.184
23968W        W88953  20.978  22.079  12.245
23969W        W88954  20.107  22.514  14.449
23970W        W88955  37.799  37.107   0.851
23971W        W88956   0.410  18.340   9.757
23972W        W88957  22.602  21.032   4.647
23973W        W88958   9.698  39.811  13.464
23974W        W88959  27.946  23.057   4.202
23975W        W88960  25.549  26.519   1.850
23976W        W88961  28.629  34.542   0.833
23977W        W88962  13.529  16.225   3.780
23978W        W88963  22.068  20.263   3.072
23979W        W88964  10.590  17.248   0.187
23980W        W88965  11.128   2.417   4.312
23981W        W88966  30.104   4.128   0.484
23982W        W88967   7.751  42.078  10.969
23983W        W88968  40.827  13.127   2.230
23984W        W88969  34.896  37.536  12.974
23985W        W88970  17.200   4.347  12.381
23986W        W88971  39.903  44.799   3.135
23987W        W88972  32.071  33.103   3.593
23988W        W88973   1.470  17.721   4.115
23989W        W88974   5.166  33.565  12.827
23990W        W88975   6.718  34.916   4.185
23991W        W88976  35.070  28.681  14.813
23992W        W88977  44.794  32.575   3.941
23993W        W88978  11.255  36.510  12.964
23994W        W88979  24.159  23.640   0.390
23995W        W88980  26.772  22.770  13.153
23996W        W88981  14.243  23.254   1.819
23997W        W88982  10.376  43.012  10.583
23998W        W88983  17.781  40.841  13.971
23999W        W88984  42.081  23.454  11.924
24000W        W88985  41.372  38.804  13.538
24001W        W88986  31.600  41.803  12.944
24002W        W88987   8.708  24.969  14.471
24003W        W88988   8.614   2.421   2.277
24004W        W88989  29.324   8.644  10.894
24005W        W88990  31.078  35.918   3.317
24006W        W88991  33.368  28.920  14.424
24007W        W88992  40.490  40.699   2.260
24008W        W88993   1.910  18.566  14.032
24009W        W88994  33.151  41.327  11.439
24010W        W88995  34.727  36.260   4.941
24011W        W88996  37.755  32.552  11.197
24012W        W88997  20.965  37.306  10.590
24013W        W88998  35.711  40.813  13.905
24014W        W88999  44.064   9.826  11.170
24015W        W89000  23.727  27.679   1.675
24016W        W89001   6.300  41.439   4.677
24017W        W89002  19.982  18.074   2.180
24018W        W89003  32.590  24.996  10.593
24019W        W89004  32.907   2.054  14.561
24020W        W89005  31.065  13.621  12.631
24021W        W89006  39.743  23.994   3.182
24022W        W89007   5.915  38.561   1.177
24023W        W89008  11.742   2.385  14.026
24024W        W89009  23.935  22.510  12.867
24025W        W89010   9.263  42.543  13.482
24026W        W89011   6.419   4.246   0.327
24027W        W89012   5.868  31.958  10.692
24028W        W89013   2.158   5.428   1.528
24029W        W89014  16.149   1.275  14.438
24030W        W89015  23.069  10.058  11.610
24031W        W89016  11.853  17.855  12.510
24032W        W89017  25.219   8.169  11.030
24033W        W89018  21.279  17.259   4.277
24034W        W89019  19.678   2.458   0.856
24035W        W89020  31.347  30.796   0.703
24036W        W89021  17.118   0.690   2.152
24037W        W89022  38.098  16.081   0.951
24038W        W89023  14.780   1.021   3.798
24039W        W89024  44.934   8.418   3.769
24040W        W89025  20.569  20.283   3.242
24041W        W89026  28.566  23.405  11.602
24042W        W89027  19.597  24.974   0.668
24043W        W89028   2.240  15.613   1.538
24044W        W89029  32.549  38.543   4.379
24045W        W89030  38.448  18.535  11.225
24046W        W89031  34.158  20.096   0.054
24047W        W89032  44.091  13.493   2.746
24048W        W89033  25.032  38.634  11.972
24049W        W89034   6.394  35.481   2.169
24050W        W89035  41.822  30.952   4.011
24051W        W89036   8.345  30.574  10.448
24052W        W89037  35.071  25.223  12.114
24053W        W89038  14.731  14.404   3.536
24054W        W89039  10.016  22.246   0.329
24055W        W89040  40.945  11.258   2.860
24056W        W89041   0.976  22.798   4.283
24057W        W89042  10.389  16.843   3.739
24058W        W89043   1.815   2.816   2.231
24059W        W89044  14.784   1.277  14.455
24060W        W89045  11.887  36.519  13.521
24061W        W89046  12.755  19.271   1.874
24062W        W89047  21.149  27.909  10.719
24063W        W89048  31.728  42.274  11.574
24064W        W89049  11.331  17.417   3.294
24065W        W89050  11.253  27.053  10.474
24066W        W89051  20.075  13.816  11.975
24067W        W89052  44.119  35.586  13.007
24068W        W89053   7.209  22.929  11.937
24069W        W89054   3.136  43.422  10.504
24070W        W89055  25.114   5.847  14.653
24071W        W89056   7.914   6.406  14.543
24072W        W89057   0.815  40.542   0.368
24073W        W89058  33.600  25.407   4.500
24074W        W89059  23.997   2.403   0.711
24075W        W89060  38.527  19.294  11.993
24076W        W89061  10.315  22.763  11.191
24077W        W89062  12.112  22.943  14.384
24078W        W89063   3.990  43.495  12.996
24079W        W89064  22.614   5.766  11.301
24080W        W89065  25.215   4.830   0.474
24081W        W89066  26.927   0.737   2.254
24082W        W89067  31.519   6.136  10.501
24083W        W89068   1.773  14.610  13.907
24084W        W89069  34.972  39.744  12.211
24085W        W89070  19.783  28.421   1.814
24086W        W89071  13.781   1.301  12.812
24087W        W89072   1.727   0.248   1.962
24088W        W89073  42.768   5.911  13.834
24089W        W89074  25.260  20.271  14.641
24090W        W89075  11.573  31.696   4.606
24091W        W89076  21.538  38.539   4.642
24092W        W89077  43.006  10.762  11.820
24093W        W89078   1.238   8.685  13.567
24094W        W89079  40.716  21.980   4.645
24095W        W89080  13.337  39.532   0.345
24096W        W89081  19.767   7.221   0.039
24097W        W89082  28.626   6.243   0.811
24098W        W89083  29.943  37.001   2.847
24099W        W89084  19.430   0.375   3.116
24100W        W89085  15.564  39.838   3.508
24101W        W89086  10.723  28.561   1.189
24102W        W89087  43.259  27.157  14.900
24103W        W89088   0.552  32.480   2.775
24104W        W89089  27.113   9.856   3.934
24105W        W89090  16.816   3.532  10.264
24106W        W89091  23.337   4.910   2.336
24107W        W89092  38.421  36.965   1.860
24108W        W89093  34.798  36.936   1.878
24109W        W89094  20.685  21.864  10.695
24110W        W89095  36.442   8.366   0.904
24111W        W89096  25.986  14.178  14.804
24112W        W89097  35.785   2.391  14.538
24113W        W89098   9.719  44.656  12.548
24114W        W89099  28.809   3.399  11.579
24115W        W89100  37.394  32.698   2.235
24116W        W89101  15.905  26.040   3.765
24117W        W89102  34.602   3.506   4.610
24118W        W89103  28.551  18.319   2.338
24119W        W89104  14.070  14.475  12.003
24120W        W89105   3.007  31.438   3.105
24121W        W89106  25.743   4.739   3.564
24122W        W89107  29.698   1.305  11.492
24123W        W89108  21.147  20.305  13.017
24124W        W89109  35.941  28.264   0.455
24125W        W89110  11.156  37.492   0.952
24126W        W89111   2.711  42.565  12.014
24127W        W89112  42.525  29.175   1.033
24128W        W89113  14.865  41.502  13.563
24129W        W89114  39.081   6.570   4.525
24130W        W89115  22.208  41.168  10.601
24131W        W89116  44.525  34.080   0.985
24132W        W89117  28.672   4.416   1.955
24133W        W89118  36.908  18.315   2.401
24134W        W89119  38.888   1.781  13.058
24135W        W89120   5.229  41.906  10.515
24136W        W89121  44.806  23.837   4.166
24137W        W89122   5.225  24.290  11.568
24138W        W89123  10.714  16.658   2.300
24139W        W89124  32.343   7.399   0.127
24140W        W89125  35.910  36.562   1.357
24141W        W89126   5.557  32.072   2.385
24142W        W89127  43.289  11.849   3.657
24143W        W89128  27.949   7.148   1.626
24144W        W89129   9.141  15.390   3.445
24145W        W89130  18.743  32.372  10.322
24146W        W89131  16.819  22.789  11.245
24147W        W89132  27.173  28.744  13.923
24148W        W89133  39.519   2.979  10.893
24149W        W89134  18.584   4.214   0.275
24150W        W89135  16.750  28.928  13.963
24151W        W89136  42.949  35.200  12.469
24152W        W89137  36.830  24.269  11.074
24153W        W89138  15.325   9.634   3.094
24154W        W89139  38.548   8.989  13.450
24155W        W89140  41.787  44.399  13.797
24156W        W89141  40.282  34.043  12.075
24157W        W89142  12.359  34.620   3.934
24158W        W89143  34.278  18.308   2.266
24159W        W89144   4.845   7.795   3.948
24160W        W89145  41.824  20.776  11.288
24161W        W89146  39.629  11.469   1.677
24162W        W89147   6.522  21.722   1.875
24163W        W89148   9.360   4.924  10.447
24164W        W89149  39.334  23.049   0.419
24165W        W89150  30.275  37.080  12.470
24166W        W89151  11.869   5.174   1.286
24167W        W89152  11.778  15.846  14.433
24168W        W89153  19.322   5.517  10.658
24169W        W89154   7.598  20.190  11.689
24170W        W89155  15.071  39.019   0.335
24171W        W89156  10.892  35.802   1.486
24172W        W89157  18.080  40.793   2.472
24173W        W89158  17.044  27.635  12.461
24174W        W89159   3.484   1.775  11.321
24175W        W89160  35.121  42.879  13.619
24176W        W89161  42.095   1.884   2.485
24177W        W89162  23.154  12.467  10.372
24178W        W89163  34.919  43.065   0.808
24179W        W89164  28.021   5.633   2.314
24180W        W89165  10.784  25.439  11.682
24181W        W89166  30.065  32.694   4.087
24182W        W89167   0.765   4.951  13.834
24183W        W89168  41.529  24.525  12.964
24184W        W89169   8.660  13.171   2.331
24185W        W89170  14.055   5.922   3.131
24186W        W89171  17.182  40.391   4.997
24187W        W89172   0.329   3.889   2.660
24188W        W89173   7.598  14.710  10.597
24189W        W89174  40.741   9.196  11.120
24190W        W89175  33.861   6.865   1.226
24191W        W89176  40.924  43.754  14.360
24192W        W89177  24.221  18.645  13.930
24193W        W89178   1.916   5.772   3.295
24194W        W89179  38.811   5.744  13.083
24195W        W89180  35.078  18.624  12.220
24196W        W89181  12.365  20.033  13.416
24197W        W89182  13.931  21.040   3.262
24198W        W89183  44.977  28.955   0.394
24199W        W89184  30.089  42.777  11.066
24200W        W89185  41.569   1.381   4.257
24201W        W89186  29.809  14.298  11.524
24202W        W89187  15.652   2.026  12.513
24203W        W89188  44.241  33.954   4.684
24204W        W89189  13.637  43.367   0.252
24205W        W89190  24.679  23.267  14.340
24206W        W89191  16.030  11.582   2.303
24207W        W89192   8.614  20.855   3.814
24208W        W89193  34.893  29.373   4.642
24209W        W89194  43.993  21.676   4.703
24210W        W89195   2.896  25.909   4.078
24211W        W89196  39.873   4.252   2.623
24212W        W89197   1.984  39.881  11.676
24213W        W89198  36.430  32.429   0.836
24214W        W89199  18.723  21.123  12.014
24215W        W89200   1.972  19.388   4.251
24216W        W89201   8.330   7.500   3.154
24217W        W89202  20.987  15.440   4.035
24218W        W89203  15.645  19.610  14.386
24219W        W89204  11.221  14.611   0.277
24220W        W89205  26.829  17.035   3.372
24221W        W89206  22.580  44.832   3.050
24222W        W89207  27.109  35.972   0.445
24223W        W89208  43.214   6.087   4.724
24224W        W89209  16.321  39.316   4.021
24225W        W89210   7.390  23.748  13.927
24226W        W89211   3.379  39.304   4.295
24227W        W89212  31.897  24.075   3.825
24228W        W89213  22.603   1.845   4.622
24229W        W89214  39.920  21.774   1.340
24230W        W89215   0.600  20.269  13.125
24231W        W89216   9.895   7.608   4.145
24232W        W89217  12.819   1.580   4.067
24233W        W89218  10.124  12.694  13.294
24234W        W89219  40.881  17.809   0.828
24235W        W89220  10.144  37.811  13.965
24236W        W89221   2.690  12.229  12.883
24237W        W89222  13.856  14.372   1.916
24238W        W89223   7.706  12.851  13.105
24239W        W89224  19.723   5.208  10.571
24240W        W89225  29.873  16.994  14.905
24241W        W89226  21.049  39.248  10.953
24242W        W89227  31.415  28.453   3.675
24243W        W89228   8.598  13.251  13.451
24244W        W89229  43.269   2.098   2.536
24245W        W89230  41.997  43.131  12.337
24246W        W89231  35.545   7.405  14.631
24247W        W89232  21.246  14.866  11.153
24248W        W89233  17.291  35.923  13.460
24249W        W89234  18.164  38.385  12.502
24250W        W89235  15.798  17.076  14.453
24251W        W89236  31.656  37.895   4.017
24252W        W89237  13.834  15.163  14.846
24253W        W89238  41.016  38.647  11.503
24254W        W89239   7.461  26.541   1.443
24255W        W89240  10.168   3.946   2.392
24256W        W89241  38.489  36.434   0.846
24257W        W89242  39.688  37.343  11.043
24258W        W89243  17.035  14.806  10.910
24259W        W89244  28.202  31.892   4.148
24260W        W89245  42.317   1.348  12.868
24261W        W89246  42.321  25.806  13.476
24262W        W89247   5.167   7.186  14.477
24263W        W89248   0.260  15.357   4.124
24264W        W89249   3.060  19.667  11.542
24265W        W89250  12.183  11.213   2.682
24266W        W89251  36.072   0.677  12.189
24267W        W89252  20.810   5.444   1.680
24268W        W89253   3.892  44.591   4.486
24269W        W89254  39.305   6.080   2.670
24270W        W89255  36.888   0.978   1.276
24271W        W89256  34.533  25.491   4.420
24272W        W89257  29.611  43.682   2.865
24273W        W89258  18.315  24.107   0.375
24274W        W89259  33.820  23.186   4.854
24275W        W89260  39.623  33.877   0.356
24276W        W89261  13.634  37.931   4.485
24277W        W89262  37.368   7.951  13.522
24278W        W89263  28.936  37.787   0.371
24279W        W89264  28.529  17.182  12.131
24280W        W89265  27.776   2.244   2.257
24281W        W89266  27.785  41.101   0.214
24282W        W89267   0.213  26.168  11.856
24283W        W89268  10.293   3.420  13.536
24284W        W89269  44.450  13.257  14.139
24285W        W89270  11.691  42.082  10.573
24286W        W89271  38.874  29.196  11.335
24287W        W89272  15.366   1.236   1.424
24288W        W89273  17.024   2.302   1.039
24289W        W89274  29.269  17.267  13.056
24290W        W89275  10.371  11.789   3.646
24291W        W89276  43.203  28.101   1.320
24292W        W89277   1.765  28.878  11.922
24293W        W89278   1.127  17.417  14.063
24294W        W89279  13.825  40.587  10.997
24295W        W89280  17.815  40.377  12.220
24296W        W89281  29.221   1.358   1.417
24297W        W89282  40.360  43.309  13.879
24298W        W89283  32.450  12.533  10.230
24299W        W89284  29.224  13.762  12.573
24300W        W89285  16.153  10.263   0.964
24301W        W89286  10.187   1.960  12.476
24302W        W89287  29.578  40.860  11.986
24303W        W89288  25.661  23.731   3.255
24304W        W89289  11.910  28.051  14.850
24305W        W89290  40.987  26.647   2.237
24306W        W89291   6.796  14.173   3.618
24307W        W89292  11.642  13.304  13.064
24308W        W89293  12.726  40.395   0.265
24309W        W89294   2.291  13.365  12.847
24310W        W89295  27.813  27.584  10.695
24311W        W89296   6.712  17.777  10.753
24312W        W89297  27.001  43.402  12.446
24313W        W89298  28.114  14.952  13.569
24314W        W89299  41.382  33.795  14.389
24315W        W89300   0.311   6.245  12.956
24316W        W89301  29.210   8.195  13.869
24317W        W89302  10.161   6.388   9.784
24318W        W89303   5.115  36.759   2.233
24319W        W89304  24.677  21.414   0.029
24320W        W89305   5.756  30.824   0.022
24321W        W89306  10.215   2.016  13.362
24322W        W89307  27.309  13.780   2.480
24323W        W89308  43.412  38.596  12.766
24324W        W89309  40.007   9.851  13.515
24325W        W89310  34.838  39.273   2.715
24326W        W89311   6.958  21.853   4.584
24327W        W89312  26.150  41.542   3.594
24328W        W89313   5.149  21.285   1.750
24329W        W89314  37.287  33.416   2.740
24330W        W89315  41.869   3.701  12.940
24331W        W89316  27.952  31.587  14.244
24332W        W89317  40.271  36.070   2.655
24333W        W89318  43.718  27.598  14.198
24334W        W89319  33.637  23.219   4.348
24335W        W89320   2.736  11.908   4.772
24336W        W89321  21.797  14.013  11.218
24337W        W89322  43.455  13.220  13.991
24338W        W89323   1.999   8.264   1.021
24339W        W89324   6.988  29.588   4.146
24340W        W89325  35.573  15.722  14.022
24341W        W89326  34.928  44.018   2.447
24342W        W89327  12.099  42.442   0.657
24343W        W89328  16.089  30.051   5.062
24344W        W89329  36.819  38.086   0.309
24345W        W89330  44.132  21.258  13.062
24346W        W89331  20.026  19.846  12.835
24347W        W89332  25.657   5.792   2.769
24348W        W89333  36.271   3.374   9.816
24349W        W89334  40.051  25.995   3.360
24350W        W89335  20.236  16.950  11.129
24351W        W89336  18.482  13.992  11.507
24352W        W89337  29.934  20.476  14.880
24353W        W89338  42.512  13.337   4.507
24354W        W89339   6.846   1.288  14.482
24355W        W89340  23.971  38.133  11.188
24356W        W89341  36.523  14.323   0.172
24357W        W89342  33.610  37.837  14.894
24358W        W89343  37.235  28.928   3.347
24359W        W89344  31.138  18.600   2.863
24360W        W89345  10.451  39.787   1.648
24361W        W89346  11.290  21.727  10.735
24362W        W89347  25.483   5.671  10.662
24363W        W89348   4.364  16.897   0.200
24364W        W89349  34.570  16.680  11.278
24365W        W89350  23.953   1.368  13.790
24366W        W89351   4.433  16.693  13.905
24367W        W89352   4.505  33.055   2.787
24368W        W89353  19.162  29.603  13.762
24369W        W89354  26.191  36.839   4.162
24370W        W89355  17.918  15.666   3.691
24371W        W89356  38.360   3.785   1.380
24372W        W89357  27.909   5.004  12.882
24373W        W89358   0.919   5.690  14.285
24374W        W89359  31.652   5.299   4.569
24375W        W89360  41.414  15.130  10.287
24376W        W89361  23.254  19.998  11.529
24377W        W89362  33.826  21.939   1.583
24378W        W89363  11.133  44.448  13.833
24379W        W89364   4.728  30.514   4.551
24380W        W89365   6.429  40.435   2.867
24381W        W89366  40.436  24.175   1.450
24382W        W89367  16.385  29.931  13.440
24383W        W89368  15.720  32.506  13.605
24384W        W89369  23.968  44.869   2.832
24385W        W89370   0.234   2.983   2.193
24386W        W89371   9.623  31.108   1.311
24387W        W89372  33.576   7.127  12.282
24388W        W89373  13.006   0.956  13.360
24389W        W89374  24.407  10.686   2.283
24390W        W89375  14.617  22.755   0.273
24391W        W89376  31.901  26.969   2.751
24392W        W89377   0.332  18.849  11.019
24393W        W89378   9.876   3.802  13.765
24394W        W89379  11.437  24.778   2.834
24395W        W89380  25.615   6.366  14.644
24396W        W89381  10.435  15.529   0.829
24397W        W89382  32.573  21.705   0.351
24398W        W89383  16.295   1.879  10.471
24399W        W89384   7.438   3.264  13.850
24400W        W89385   5.225  39.356  10.782
24401W        W89386  26.897  10.724   2.195
24402W        W89387  43.865  11.159  13.447
24403W        W89388  33.135  24.522   3.554
24404W        W89389  18.363   8.429  11.549
24405W        W89390  32.083  27.571   1.106
24406W        W89391  40.793   9.965   4.233
24407W        W89392  10.358  10.231  11.183
24408W        W89393   3.667  35.877  11.128
24409W        W89394  44.699  31.285   3.759
24410W        W89395  40.309  19.550   0.328
24411W        W89396  33.722   2.730   1.257
24412W        W89397  43.678  18.024  10.302
24413W        W89398  36.001  27.849   4.693
24414W        W89399  32.034   5.803  13.378
24415W        W89400   1.652  33.032  11.663
24416W        W89401   3.681   9.753   0.707
24417W        W89402  42.244  13.060  13.026
24418W        W89403  17.223  25.568   1.107
24419W        W89404  11.831   2.170   3.640
24420W        W89405   5.510  22.682   4.038
24421W        W89406  27.404  33.565   0.840
24422W        W89407  14.811   4.985   3.677
24423W        W89408  34.433   3.631  10.838
24424W        W89409  21.887  22.227  12.452
24425W        W89410  19.066   5.770   4.786
24426W        W89411  36.395   5.336   1.887
24427W        W89412  17.566  14.314   2.277
24428W        W89413  11.910  17.445   1.009
24429W        W89414   3.699  18.016   0.549
24430W        W89415  28.779  41.272   4.535
24431W        W89416  27.672   2.872   1.822
24432W        W89417  16.540   3.663   4.968
24433W        W89418  22.932  38.876  12.474
24434W        W89419  18.577  38.382   4.108
24435W        W89420  31.609  44.342  10.753
24436W        W89421  21.342  26.987   4.975
24437W        W89422  31.360  25.025  14.589
24438W        W89423   3.934   5.896   2.597
24439W        W89424  39.799  35.435  12.057
24440W        W89425  17.574  20.970   2.236
24441W        W89426  31.498  17.121  11.906
24442W        W89427   1.191  34.384   3.719
24443W        W89428  24.082  29.216   0.888
24444W        W89429  19.850  18.288  12.968
24445W        W89430  14.773  18.953   4.527
24446W        W89431  22.827  16.135   1.781
24447W        W89432  27.695   3.615   3.739
24448W        W89433  12.348   8.284  14.998
24449W        W89434  26.476  15.073   3.401
24450W        W89435  12.813  28.054  11.357
24451W        W89436  10.948  34.438  11.721
24452W        W89437   0.731  13.652  14.913
24453W        W89438  33.253   5.912  11.127
24454W        W89439  26.221  22.957   3.419
24455W        W89440  29.514  32.039   3.475
24456W        W89441  14.846  15.711  13.453
24457W        W89442  25.955  26.238   3.771
24458W        W89443  13.161  44.928   1.068
24459W        W89444  13.672  41.072  10.938
24460W        W89445  28.952  18.957  13.408
24461W        W89446  39.127   9.102   2.584
24462W        W89447  25.449   2.712   1.185
24463W        W89448  10.652  43.050   3.263
24464W        W89449   2.787  14.458   0.729
24465W        W89450  23.630  33.688   3.943
24466W        W89451  27.645  37.739  11.040
24467W        W89452  25.671   5.246  14.369
24468W        W89453  29.231   9.962  12.959
24469W        W89454  44.294  18.740  14.639
24470W        W89455  43.886  20.792   1.814
24471W        W89456  42.550  40.955   0.197
24472W        W89457  22.254  40.986   4.648
24473W        W89458   1.678  11.872  12.378
24474W        W89459  31.299  40.958  11.560
24475W        W89460  39.823  21.493  13.100
24476W        W89461  38.832   4.628  14.817
24477W        W89462  36.349  30.879   1.716
24478W        W89463   8.122  38.912   4.276
24479W        W89464  39.704  43.089   1.276
24480W        W89465  28.829  37.974   4.702
24481W        W89466   8.705  38.924  14.577
24482W        W89467  42.268  35.511  12.991
24483W        W89468   2.082  10.231   4.075
24484W        W89469   1.705  28.123  10.701
24485W        W89470  19.228  20.758  12.075
24486W        W89471  40.803  16.594  12.543
24487W        W89472   3.195  38.851   4.645
24488W        W89473  30.343  42.494   3.297
24489W        W89474  42.370  38.914  10.672
24490W        W89475   5.479  27.098   0.417
24491W        W89476  24.578  25.953  13.944
24492W        W89477  10.898  29.667  12.517
24493W        W89478  38.416  24.179  13.138
24494W        W89479  34.373  20.753   1.769
24495W        W89480  40.234   5.870   0.417
24496W        W89481  17.703  16.201   3.296
24497W        W89482   1.005  44.453   0.956
24498W        W89483  27.342   3.292   1.813
24499W        W89484   2.761  20.786   2.266
24500W        W89485  43.937  13.983   5.300
24501W        W89486   6.377  17.806  12.440
24502W        W89487  25.488  40.386   0.434
24503W        W89488  25.276  12.110   3.641
24504W        W89489  33.097  28.267  10.887
24505W        W89490  40.856  13.584   4.704
24506W        W89491  19.710  40.009   2.827
24507W        W89492  33.665   4.480  13.108
24508W        W89493  31.863  13.282   1.851
24509W        W89494   8.143  21.866  11.790
24510W        W89495  21.649  20.163   2.722
24511W        W89496  35.258   8.167   3.146
24512W        W89497  22.130  41.008  14.313
24513W        W89498  10.534  11.243  14.458
24514W        W89499  36.560  21.442   4.526
24515W        W89500  17.894  19.070  14.926
24516W        W89501  44.057   0.208   0.254
24517W        W89502   4.697   2.029   1.841
24518W        W89503  30.411  10.453   0.071
24519W        W89504  11.402  38.033   3.723
24520W        W89505  41.951  22.028   4.142
24521W        W89506   8.621  20.153  10.409
24522W        W89507  17.728  38.942   1.617
24523W        W89508  38.102  29.151   2.753
24524W        W89509  21.753   1.508  10.718
24525W        W89510  17.926  24.953  11.216
24526W        W89511  13.800   3.367  12.967
24527W        W89512  39.035   2.805   3.561
24528W        W89513   1.921  20.654   3.352
24529W        W89514  40.272   7.134  12.397
24530W        W89515  38.043  13.518  13.505
24531W        W89516  37.979  26.781   2.756
24532W        W89517  29.998  43.993   3.042
24533W        W89518  25.968  20.549  10.863
24534W        W89519   3.348   9.111   1.630
24535W        W89520  22.053  33.513   4.702
24536W        W89521   9.206  31.198  11.648
24537W        W89522   3.321  41.867   0.913
24538W        W89523  41.703  37.354  12.593
24539W        W89524   7.519  42.629   5.174
24540W        W89525   4.345   8.861   2.201
24541W        W89526   6.253  34.597   0.207
24542W        W89527   6.242  42.527   4.770
24543W        W89528  17.489  37.235  12.640
24544W        W89529  20.509  13.886  10.707
24545W        W89530  36.523  41.890  11.137
24546W        W89531  28.506  25.486   4.511
24547W        W89532   9.740  39.392   1.213
24548W        W89533  15.793  19.292   4.129
24549W        W89534  44.927  41.947  14.704
24550W        W89535  35.977  33.855  13.496
24551W        W89536  20.952  18.981  13.891
24552W        W89537   5.615   7.784   3.276
24553W        W89538   9.451  21.485   1.763
24554W        W89539  28.447  39.755   0.371
24555W        W89540  35.684  27.438   4.681
24556W        W89541  27.009  11.745  13.811
24557W        W89542  15.147  12.848  11.210
24558W        W89543  26.964  32.666  14.414
24559W        W89544  23.220  35.973   0.015
24560W        W89545   8.889  10.201  12.844
24561W        W89546  11.455  11.139   0.813
24562W        W89547  24.725   4.058  12.428
24563W        W89548  23.136  13.879   2.413
24564W        W89549  31.337  14.171  11.554
24565W        W89550  29.502  25.586  11.592
24566W        W89551  28.473  17.940   0.403
24567W        W89552  42.377   7.331   3.708
24568W        W89553  31.237  38.987   2.339
24569W        W89554   2.239  28.447   2.273
24570W        W89555  41.022  43.806   4.361
24571W        W89556  21.223  19.020  11.997
24572W        W89557  19.641  30.844   3.495
24573W        W89558   0.793  41.213   2.385
24574W        W89559  34.827  24.048   0.812
24575W        W89560  34.838  34.616   0.934
24576W        W89561  16.648  39.402   2.595
24577W        W89562   7.252  25.405   1.000
24578W        W89563  18.657  26.577   1.952
24579W        W89564  22.301  21.763   4.186
24580W        W89565  38.104  27.059   2.336
24581W        W89566  27.520  40.062   4.402
24582W        W89567  30.127  11.350  14.316
24583W        W89568   2.944  43.213   1.229
24584W        W89569  17.705  41.589  11.372
24585W        W89570   7.212   5.256   2.228
24586W        W89571   1.534  13.428   2.616
24587W        W89572  36.046  11.494  13.745
24588W        W89573  22.283  10.772   0.786
24589W        W89574  35.936  25.428  12.024
24590W        W89575  30.140  31.108   0.674
24591W        W89576  37.363  13.788   0.806
24592W        W89577  29.466  10.796  13.123
24593W        W89578  22.598  44.894  13.422
24594W        W89579  18.230  16.253   1.445
24595W        W89580  35.291  25.988   4.337
24596W        W89581   9.016  39.853   4.556
24597W        W89582  25.321  23.978   4.867
24598W        W89583  40.812   0.194   1.425
24599W        W89584  41.059   6.332  12.497
24600W        W89585  25.571  21.122   3.463
24601W        W89586  30.654  15.470  10.126
24602W        W89587  43.102  23.083   2.767
24603W        W89588  29.204  40.008  12.230
24604W        W89589  39.292  27.135  12.876
24605W        W89590  40.587   7.392   4.169
24606W        W89591  11.144   1.769  13.612
24607W        W89592  43.481  30.377   3.708
24608W        W89593  21.037   9.952  11.534
24609W        W89594  10.828  35.582  14.021
24610W        W89595   3.895  38.476   0.891
24611W        W89596  16.567  18.213  14.420
24612W        W89597  24.430  19.289  12.981
24613W        W89598  40.841  42.850  11.519
24614W        W89599  23.739  26.069  14.996
24615W        W89600   4.200   7.863  11.533
24616W        W89601  23.703  42.237   0.864
24617W        W89602   5.146  25.662   2.096
24618W        W89603  40.558  33.856  13.615
24619W        W89604  41.084  10.734   3.209
24620W        W89605  42.925   0.762  13.881
24621W        W89606  39.266  28.595  12.461
24622W        W89607  25.579   3.389   2.015
24623W        W89608   8.450   1.544  14.202
24624W        W89609  40.030  27.978   1.320
24625W        W89610  38.240   2.967   3.820
24626W        W89611  28.970  39.325   3.253
24627W        W89612  15.118  26.098   0.763
24628W        W89613  23.201   7.891  12.990
24629W        W89614  35.444  15.058   4.091
24630W        W89615  36.357  37.325  12.688
24631W        W89616  25.682  43.593  10.896
24632W        W89617   7.071  25.746   0.145
24633W        W89618  42.937  44.051  14.330
24634W        W89619  13.799  23.524  13.468
24635W        W89620  13.880  34.498   4.685
24636W        W89621  40.940   6.246   4.569
24637W        W89622  38.042  33.943   2.267
24638W        W89623   5.120   4.315   3.024
24639W        W89624   5.348  43.336   0.381
24640W        W89625  20.320  32.403   3.777
24641W        W89626  41.465   1.406   0.516
24642W        W89627  35.591  44.720  14.930
24643W        W89628   0.285  15.111  11.986
24644W        W89629  23.890   0.944  13.544
24645W        W89630   8.984  14.095  11.905
24646W        W89631  12.455  21.644   1.208
24647W        W89632   6.798  44.505   4.194
24648W        W89633  40.068   6.351   1.694
24649W        W89634  21.141  17.175  10.955
24650W        W89635  21.040  28.749  13.904
24651W        W89636  17.735   4.810   2.732
24652W        W89637  38.835  25.055   2.217
24653W        W89638   7.318  14.169  11.955
24654W        W89639  24.241  13.714   1.137
24655W        W89640  34.152  14.541  13.035
24656W        W89641   9.173  19.819  14.408
24657W        W89642  18.791  32.681  11.601
24658W        W89643  44.559  11.759   4.076
24659W        W89644  39.421  22.656   2.393
24660W        W89645  10.338  38.178   3.158
24661W        W89646  36.509  26.745   4.892
24662W        W89647  11.316  12.698  14.012
24663W        W89648  16.100   3.571   0.264
24664W        W89649   1.332  14.496   3.275
24665W        W89650   1.819  30.910   2.811
24666W        W89651   7.955   1.219  10.961
24667W        W89652  17.201  31.078  12.827
24668W        W89653  42.284  14.817   0.905
24669W        W89654  27.507   9.876   4.288
24670W        W89655  20.657  27.315   0.991
24671W        W89656  25.938  10.907   2.356
24672W        W89657  19.294  10.715  14.272
24673W        W89658  10.242  21.516   4.559
24674W        W89659  12.938   7.602  10.778
24675W        W89660  28.185  43.571   1.259
24676W        W89661   5.151  43.296   4.526
24677W        W89662   4.398  42.242  14.165
24678W        W89663  28.851  40.479  13.819
24679W        W89664  44.420  11.371   0.707
24680W        W89665  21.137  36.298   3.367
24681W        W89666   9.842  37.509   3.850
24682W        W89667  44.794  11.884  13.851
24683W        W89668  39.602  23.553   1.342
24684W        W89669  26.269   7.916  14.980
24685W        W89670  35.848  37.707  10.588
24686W        W89671  42.724   0.806   2.005
24687W        W89672   2.965  20.581  10.731
24688W        W89673  30.978  30.594  14.908
24689W        W89674  42.295  21.563   0.243
24690W        W89675  35.099  12.025   4.681
24691W        W89676  23.187  19.181  12.629
24692W        W89677  25.194  24.720   4.354
24693W        W89678  23.999  44.468   1.458
24694W        W89679  44.224  24.020   3.316
24695W        W89680  26.447  23.124   2.412
24696W        W89681  29.453  10.790   2.716
24697W        W89682  29.570   7.211  11.580
24698W        W89683  42.888  15.142  11.697
24699W        W89684  27.817  22.541   9.954
24700W        W89685  14.060   8.820  14.913
24701W        W89686  14.454  27.915   0.139
24702W        W89687  43.912  29.344   1.457
24703W        W89688  41.841   3.182  11.293
24704W        W89689  28.253  14.085   3.206
24705W        W89690   1.840  13.235  11.195
24706W        W89691  28.715  21.004   3.409
24707W        W89692  14.306  29.792   1.467
24708W        W89693  16.047  35.924   2.315
24709W        W89694  38.403  34.410  14.010
24710W        W89695  20.173  15.761   0.688
24711W        W89696  42.509  14.329  12.530
24712W        W89697   7.368  29.580  10.628
24713W        W89698  15.564  29.773  11.563
24714W        W89699  44.369  44.041  10.717
24715W        W89700   2.113  14.918  11.877
24716W        W89701  17.961  21.282  12.695
24717W        W89702  41.108  33.118  14.913
24718W        W89703  23.907  18.865   0.754
24719W        W89704  33.181  30.646  14.941
24720W        W89705  38.022  32.194   3.820
24721W        W89706  11.374  38.000  12.469
24722W        W89707  10.608   5.271   3.860
24723W        W89708  13.015   4.225   3.377
24724W        W89709  43.694  35.623   3.429
24725W        W89710  25.681  18.834   1.224
24726W        W89711   5.334  27.642   3.417
24727W        W89712   7.829  33.912   4.842
24728W        W89713  11.360  32.844  11.635
24729W        W89714  19.314  24.821   3.108
24730W        W89715  19.791  32.453  11.597
24731W        W89716   3.199   4.429  11.339
24732W        W89717   5.860  37.878   4.942
24733W        W89718  25.150  26.891  12.948
24734W        W89719  12.824  42.772  12.519
24735W        W89720  23.176  18.974   2.674
24736W        W89721  30.901  30.999  11.489
24737W        W89722  23.627  19.106  14.328
24738W        W89723   9.726  31.403   4.214
24739W        W89724   2.729  37.290  10.686
24740W        W89725  29.381  40.961   0.817
24741W        W89726  21.587  25.515  14.563
24742W        W89727  31.702  39.212   4.497
24743W        W89728  11.627  41.906   3.151
24744W        W89729  34.901  33.020   1.454
24745W        W89730  36.693   8.432   5.468
24746W        W89731  11.906  16.085  10.370
24747W        W89732  35.138   7.124   1.953
24748W        W89733  18.114  35.117  13.548
24749W        W89734  28.932  17.543   2.055
24750W        W89735  27.965  20.023  13.775
24751W        W89736  20.565  44.842   2.457
24752W        W89737  28.450  44.056  10.754
24753W        W89738  27.145  19.652   1.179
24754W        W89739  24.476  28.466  12.327
24755W        W89740   0.204  20.535   1.173
24756W        W89741  10.651  42.110   3.134
24757W        W89742   6.801  29.692  13.685
24758W        W89743  28.998   5.245   3.788
24759W        W89744  35.345  38.020  14.521
24760W        W89745  11.806  33.047  12.583
24761W        W89746   9.421  43.876  14.489
24762W        W89747   9.448  30.503   0.872
24763W        W89748  15.218  21.181   2.136
24764W        W89749  23.022  10.088   0.011
24765W        W89750  23.770   8.179  12.192
24766W        W89751   9.296  33.357  10.327
24767W        W89752  12.388  40.883  13.470
24768W        W89753  39.560  14.307   1.934
24769W        W89754  31.090   7.819   1.341
24770W        W89755  44.047  26.467   2.517
24771W        W89756  38.980  26.607   4.616
24772W        W89757   9.115  43.921  12.479
24773W        W89758  11.912  31.675  12.964
24774W        W89759  21.642   4.939  14.033
24775W        W89760   2.002  35.462   3.673
24776W        W89761  25.032   7.134  11.525
24777W        W89762  40.926  42.463  14.736
24778W        W89763  38.465  33.026   3.861
24779W        W89764  32.596  23.128   4.232
24780W        W89765  24.672  44.296   0.846
24781W        W89766  42.516  25.290   2.381
24782W        W89767  44.261   9.482   3.223
24783W        W89768  30.902  39.067   1.955
24784W        W89769  33.640  22.750   1.342
24785W        W89770  12.866   9.774  13.874
24786W        W89771  23.510  19.506   2.288
24787W        W89772  40.815  12.250  13.410
24788W        W89773   5.853  33.638  13.857
24789W        W89774  40.621   1.268  14.135
24790W        W89775  24.519  41.486   4.212
24791W        W89776  32.060  29.441  13.303
24792W        W89777  16.660  29.527  12.192
24793W        W89778   5.865   3.591  12.593
24794W        W89779  22.990  43.917  12.031
24795W        W89780  34.116  43.542  14.030
24796W        W89781   9.302  26.509  12.016
24797W        W89782   2.464  10.815   1.939
24798W        W89783  14.377  32.188   4.511
24799W        W89784  32.887   4.677   0.764
24800W        W89785  26.147  14.192  11.113
24801W        W89786  25.438  39.131   1.931
24802W        W89787  38.898  27.185   3.462
24803W        W89788  38.582  26.596  10.721
24804W        W89789  39.509  30.780  12.936
24805W        W89790  44.049  37.009  11.280
24806W        W89791  15.286  42.482   0.928
24807W        W89792  15.310  21.717  11.738
24808W        W89793  37.511   1.470   4.314
24809W        W89794   2.704  40.104   4.893
24810W        W89795  30.935  20.958   4.631
24811W        W89796  10.016   7.360  14.934
24812W        W89797  11.200  32.430  12.551
24813W        W89798  30.724  41.862   2.757
24814W        W89799  18.044   7.269   0.815
24815W        W89800  19.315   8.833   5.078
24816W        W89801  27.508  17.127   1.991
24817W        W89802  26.473  25.145   3.631
24818W        W89803  15.328  36.025   4.668
24819W        W89804  36.527  39.909  13.256
24820W        W89805  20.341  13.827   2.098
24821W        W89806  44.527  23.493  12.538
24822W        W89807  27.154  17.813   0.951
24823W        W89808  13.697  22.172   1.902
24824W        W89809   5.285  17.099   4.045
24825W        W89810   0.177   5.312   0.730
24826W        W89811  42.104  13.711   2.366
24827W        W89812  34.676  41.796  12.909
24828W        W89813  14.553   1.877   4.164
24829W        W89814  23.164   3.487  11.042
24830W        W89815  10.351  14.074   2.682
24831W        W89816   7.975  44.571  12.894
24832W        W89817  24.511  27.956   3.662
24833W        W89818   1.253  24.187   3.094
24834W        W89819  12.125  29.488   3.297
24835W        W89820  35.079  44.834   4.820
24836W        W89821  43.985  20.341   0.822
24837W        W89822  10.535   0.327   3.744
24838W        W89823  41.356  43.918   2.602
24839W        W89824  10.585  14.639  11.889
24840W        W89825  29.935  33.978  11.840
24841W        W89826  11.758  22.786   4.544
24842W        W89827  40.459   7.192   2.180
24843W        W89828  19.524  15.507  13.956
24844W        W89829  26.680  22.563   4.557
24845W        W89830  43.007  12.356  13.840
24846W        W89831  28.102  36.952  11.512
24847W        W89832   9.002  12.795   2.165
24848W        W89833  14.820   2.293  13.553
24849W        W89834  19.338   0.929  11.543
24850W        W89835  26.057   8.606   3.375
24851W        W89836  26.160  37.962   4.176
24852W        W89837   4.728  27.560   2.739
24853W        W89838  20.264  31.473  14.114
24854W        W89839  33.625  27.892  14.355
24855W        W89840   6.776  19.553   3.746
24856W        W89841  42.898  36.177   2.606
24857W        W89842  36.098  23.956   2.778
24858W        W89843  17.138  29.586  12.353
24859W        W89844  23.420  31.353   1.010
24860W        W89845  25.437  32.854  13.490
24861W        W89846   8.337   0.403   1.330
24862W        W89847  25.683  16.083   4.866
24863W        W89848   4.123   0.985   4.841
24864W        W89849  33.885  38.053   1.788
24865W        W89850  44.815  33.091   1.765
24866W        W89851   5.092  15.192  14.635
24867W        W89852  16.265  39.877   4.276
24868W        W89853  12.070   4.130   4.433
24869W        W89854  27.560   0.480  10.272
24870W        W89855  15.628  43.285   3.140
24871W        W89856   1.856  39.553   0.941
24872W        W89857  10.437   4.879   4.594
24873W        W89858  17.775  21.721   0.310
24874W        W89859  23.983  41.696   4.163
24875W        W89860  26.337  33.927   5.013
24876W        W89861  32.456   0.814  12.179
24877W        W89862  39.404  29.520  11.629
24878W        W89863  20.484   1.466   1.138
24879W        W89864  25.954   0.326   1.209
24880W        W89865  23.542   4.210   1.250
24881W        W89866  33.313  32.013  14.472
24882W        W89867  19.671  39.658  10.681
24883W        W89868   1.297  38.431  11.561
24884W        W89869  13.559  29.108   1.300
24885W        W89870  41.266  16.839   0.531
24886W        W89871   6.641  22.587   3.021
24887W        W89872  24.743  29.921   1.827
24888W        W89873  18.675  21.651   1.836
24889W        W89874  34.572  33.620  12.432
24890W        W89875  40.845  32.538  13.943
24891W        W89876   6.675  14.179  13.482
24892W        W89877   0.469   0.028   2.023
24893W        W89878  19.017  33.218  13.024
24894W        W89879   1.139   0.942  11.081
24895W        W89880   1.850  15.450  11.194
24896W        W89881  13.795  18.201  13.852
24897W        W89882  35.988  14.343   5.136
24898W        W89883   3.260  11.311  12.515
24899W        W89884  35.283  32.596  13.499
24900W        W89885  38.008  12.299   1.361
24901W        W89886  34.166  23.044  14.372
24902W        W89887  38.402   0.693   4.877
24903W        W89888  31.963  16.274   0.990
24904W        W89889  15.353  30.021   0.495
24905W        W89890  30.519   2.318  11.998
24906W        W89891  21.418  25.448   2.833
24907W        W89892  18.780  11.158  14.940
24908W        W89893  23.515  34.922   3.483
24909W        W89894  41.866   1.010   2.386
24910W        W89895  17.862  18.692   5.276
24911W        W89896  33.520  13.786  12.787
24912W        W89897  13.171  12.414  12.127
24913W        W89898   1.413  23.552  11.610
24914W        W89899   2.868  38.836   1.506
24915W        W89900   3.821  13.778   0.900
24916W        W89901   9.869  33.647   4.559
24917W        W89902  19.298  44.025   1.453
24918W        W89903  40.470   9.228  13.174
24919W        W89904  32.963  38.595  14.078
24920W        W89905  37.901  44.963  12.327
24921W        W89906   0.428   1.951  10.720
24922W        W89907  21.770   5.360  13.327
24923W        W89908   6.075  40.510  14.068
24924W        W89909  24.237  11.059   0.428
24925W        W89910  31.445  37.507   4.360
24926W        W89911   4.047   2.744   1.850
24927W        W89912  29.707  28.346  13.950
24928W        W89913  29.634  17.748   0.932
24929W        W89914  12.371  38.115  12.155
24930W        W89915  43.413  42.567   4.398
24931W        W89916  40.716  33.088  11.074
24932W        W89917  44.938  43.099  11.447
24933W        W89918  44.312  32.427   4.155
24934W        W89919  30.507  29.511   4.988
24935W        W89920   1.651  23.302   1.391
24936W        W89921  41.312  40.892  10.697
24937W        W89922  37.049   4.667  13.915
24938W        W89923  37.435  15.497   2.174
24939W        W89924   3.967   7.469  11.178
24940W        W89925  36.327  42.880  12.073
24941W        W89926   5.928  13.865  11.012
24942W        W89927  16.703  33.698   2.668
24943W        W89928  20.722  33.042   0.446
24944W        W89929   1.889  22.514   0.266
24945W        W89930   0.056  25.952   0.259
24946W        W89931  12.336   9.740  13.910
24947W        W89932  39.946  12.850  10.677
24948W        W89933   2.488  31.151  13.394
24949W        W89934  35.265  43.490  14.533
24950W        W89935  33.869  42.763  12.857
24951W        W89936  44.559  18.876   4.175
24952W        W89937   5.290   9.809   4.350
24953W        W89938   4.904   8.258  12.557
24954W        W89939  27.870  31.994   4.537
24955W        W89940  27.450  15.275  13.023
24956W        W89941  13.415   1.270  12.452
24957W        W89942  42.498   8.169   0.258
24958W        W89943   8.082   0.024   2.288
24959W        W89944  18.797  21.781   3.230
24960W        W89945  10.126  25.408   1.422
24961W        W89946  38.527  44.343  11.932
24962W        W89947  43.509  24.638  14.667
24963W        W89948  44.265   4.398   2.774
24964W        W89949  15.553  39.385  11.568
24965W        W89950  41.476   0.757   1.647
24966W        W89951  27.228  26.546  11.560
24967W        W89952  35.594   5.189  14.392
24968W        W89953   8.276  16.637   2.848
24969W        W89954  17.627  31.174  10.954
24970W        W89955  26.530  24.217   3.463
24971W        W89956   7.233   5.433  12.447
24972W        W89957  13.438  41.957  14.186
24973W        W89958  21.854  13.242   0.836
24974W        W89959  34.536  27.033   2.650
24975W        W89960   1.818   8.922  13.415
24976W        W89961  26.172  44.052  10.781
24977W        W89962  33.015  23.988  11.213
24978W        W89963  12.233  30.919   1.328
24979W        W89964  21.614   8.021  14.149
24980W        W89965  23.221  40.851   3.184
24981W        W89966  19.152   6.518  10.481
24982W        W89967   9.894  37.869   4.749
24983W        W89968   6.931  15.499   4.157
24984W        W89969   1.741  40.561   1.792
24985W        W89970  18.590  31.033  11.049
24986W        W89971   1.114  11.587   2.256
24987W        W89972   3.264  10.852   4.438
24988W        W89973  37.632  25.949   1.870
24989W        W89974   0.616  36.962  13.485
24990W        W89975   4.913  35.145   2.667
24991W        W89976  14.491  12.561   4.286
24992W        W89977   6.413  21.689   0.916
24993W        W89978  30.925   9.885  13.422
24994W        W89979  36.902   1.492   2.766
24995W        W89980   3.922  34.948   0.419
24996W        W89981  22.785  42.008  12.927
24997W        W89982  34.378  44.533   3.469
24998W        W89983  15.996  44.070   2.900
24999W        W89984  23.585   8.644  12.624
25000W        W89985  13.698  26.666  12.172
25001W        W89986  26.199  19.750  12.479
25002W        W89987  19.972  20.677   2.570
25003W        W89988  41.612  42.492   3.133
25004W        W89989  40.636  39.364  11.154
25005W        W89990   2.435  33.864  11.118
25006W        W89991   9.116  26.340  11.153
25007W        W89992  30.646  31.129  11.057
25008W        W89993  34.213  13.887  10.914
25009W        W89994  11.237  36.280  11.218
25010W        W89995  27.596   5.129  12.420
25011W        W89996  11.137  15.167   0.179
25012W        W89997  33.815  34.908   2.222
25013W        W89998  38.040  35.896  14.253
25014W        W89999  24.141  41.335   2.398
25015W        W90000   7.658  29.930   3.628
25016W        W90001  16.357  37.396  10.918
25017W        W90002  11.162  26.564   2.148
25018W        W90003  16.007  26.160  11.988
25019W        W90004  25.403   5.824   2.283
25020W        W90005  42.938  41.862   3.631
25021W        W90006   2.512   7.621  11.669
25022W        W90007  43.026   2.062  10.843
25023W        W90008  30.694  37.948   4.131
25024W        W90009  10.223  25.141  10.681
25025W        W90010  43.457  18.626   1.667
25026W        W90011  21.909  19.078  12.593
25027W        W90012  44.775  10.076   0.887
25028W        W90013  39.751  41.531   1.795
25029W        W90014  10.465  22.857   3.313
25030W        W90015  23.682  27.656  10.708
25031W        W90016  14.237  31.672   4.539
25032W        W90017  24.758  29.217   1.400
25033W        W90018   9.198  33.846   1.660
25034W        W90019  38.759  16.866   2.223
25035W        W90020  11.133  20.673   2.888
25036W        W90021  41.728  16.041   3.046
25037W        W90022   4.617  33.600  13.940
25038W        W90023   1.719  34.240   3.655
25039W        W90024  10.906  17.181   3.760
25040W        W90025  28.559  20.727   1.677
25041W        W90026   8.264  34.620   1.288
25042W        W90027   1.933  31.797  10.866
25043W        W90028   9.284  20.487   1.602
25044W        W90029  14.345  17.011   1.279
25045W        W90030  20.572  38.864   3.095
25046W        W90031  10.123  33.521   4.120
25047W        W90032   5.139  33.902  11.622
25048W        W90033  24.921   0.288  11.924
25049W        W90034  14.828  34.191  14.100
25050W        W90035  23.270  34.352  13.674
25051W        W90036  13.935  27.844   2.035
25052W        W90037  34.314  27.719   3.254
25053W        W90038  20.266  13.251  12.685
25054W        W90039   4.657  43.111  10.624
25055W        W90040  24.507  31.907  14.774
25056W        W90041  18.565  24.509   0.571
25057W        W90042   3.814  31.049   1.299
25058W        W90043  12.095  26.445  10.698
25059W        W90044  35.493  17.685   1.821
25060W        W90045  27.635  11.657   0.933
25061W        W90046   4.519  33.855  14.404
25062W        W90047   8.520  11.527   0.337
25063W        W90048  16.605  10.886  12.198
25064W        W90049  23.243  12.998   4.539
25065W        W90050  13.111  25.306   2.094
25066W        W90051  26.158  32.584   0.880
25067W        W90052  27.481   1.036   1.823
25068W        W90053   6.794  39.016  12.523
25069W        W90054  34.896   4.640  11.513
25070W        W90055  28.131  14.553  10.639
25071W        W90056  35.330  29.733   2.251
25072W        W90057  40.533  19.273   0.707
25073W        W90058  26.152   8.605   1.403
25074W        W90059   2.412  39.680  10.770
25075W        W90060   6.872  17.201  13.022
25076W        W90061  16.011  40.014  11.099
25077W        W90062  38.479  36.584  12.898
25078W        W90063  26.100  15.532   0.679
25079W        W90064  23.448  42.906   2.133
25080W        W90065   4.438  33.386   3.697
25081W        W90066  38.883  18.495  14.379
25082W        W90067  23.695  40.587  12.978
25083W        W90068  23.663  30.084   4.540
25084W        W90069  35.953  12.633   3.026
25085W        W90070   7.702  23.493   9.844
25086W        W90071  14.295   8.272   3.804
25087W        W90072  32.476  19.126  12.469
25088W        W90073   1.365  27.917  13.289
25089W        W90074   1.720   2.669   0.449
25090W        W90075  28.902   2.521   3.201
25091W        W90076  13.584  31.983  13.834
25092W        W90077   3.276   8.867  12.222
25093W        W90078   2.412  19.229  14.420
25094W        W90079  22.365  15.632  12.058
25095W        W90080  22.652  16.768   4.473
25096W        W90081   7.178  37.778  12.392
25097W        W90082  18.420  35.122   1.735
25098W        W90083  14.194  41.366  14.459
25099W        W90084  19.761  42.057  12.027
25100W        W90085   2.361  31.421  14.881
25101W        W90086  40.155   7.439  12.867
25102W        W90087   6.931  23.574   1.953
25103W        W90088  30.064  18.544   3.646
25104W        W90089  32.128  25.411   3.659
25105W        W90090  27.212  34.073  14.279
25106W        W90091  15.728  30.215  10.262
25107W        W90092   6.880   4.867   3.557
25108W        W90093  11.992  21.566   3.171
25109W        W90094  38.384  25.212   2.463
25110W        W90095  13.293  19.769  10.994
25111W        W90096  20.996  38.243   2.367
25112W        W90097  15.813  33.124   1.419
25113W        W90098  10.531  26.569   3.764
25114W        W90099  11.012  19.429   4.914
25115W        W90100  32.951   7.907   3.202
25116W        W90101  35.907  33.342  13.486
25117W        W90102  43.060   8.707   2.824
25118W        W90103  21.792  28.847   2.797
25119W        W90104  31.449  10.155   0.885
25120W        W90105  36.303   7.278  12.972
25121W        W90106  42.023  11.109   3.721
25122W        W90107  22.029  27.959  13.155
25123W        W90108  32.470  11.374  11.632
25124W        W90109  11.065   5.297   1.853
25125W        W90110  30.348  17.202  14.871
25126W        W90111   2.355  17.642   0.454
25127W        W90112  31.173  33.556   3.575
25128W        W90113  25.491  10.337   3.598
25129W        W90114  18.054   6.457   2.372
25130W        W90115  24.284  28.595  14.661
25131W        W90116  14.059  31.912   0.792
25132W        W90117  30.100  31.003  12.481
25133W        W90118  13.651  27.966   1.243
25134W        W90119  18.519  44.544  14.996
25135W        W90120   1.339  43.013   4.531
25136W        W90121  27.486   6.671   3.674
25137W        W90122  29.192  21.729   3.592
25138W        W90123  42.297  11.152   0.266
25139W        W90124  17.050  29.200   1.331
25140W        W90125  37.187  26.582   2.193
25141W        W90126   6.498  39.836   0.211
25142W        W90127  33.554   3.875   2.909
25143W        W90128  30.563  11.600   4.608
25144W        W90129  32.598  13.686   0.899
25145W        W90130  12.172  32.386  11.252
25146W        W90131   4.702  38.673  14.873
25147W        W90132  33.532  15.886  14.513
25148W        W90133  42.769   7.721   0.122
25149W        W90134  11.655  25.723   2.739
25150W        W90135  19.512   4.523   4.055
25151W        W90136  20.949  26.948   0.715
25152W        W90137  30.650   6.139  12.100
25153W        W90138  36.531  25.954   2.716
25154W        W90139   2.065  17.102   1.741
25155W        W90140  22.616  37.867   4.056
25156W        W90141  37.115  13.329   0.928
25157W        W90142  22.766  27.889   3.564
25158W        W90143  10.832  38.974  10.623
25159W        W90144  40.532   8.364  13.143
25160W        W90145  32.512  13.866  13.012
25161W        W90146  42.903  25.684   3.751
25162W        W90147   4.194   8.850  11.121
25163W        W90148  17.741  29.558   2.134
25164W        W90149   9.737   2.212   3.317
25165W        W90150  25.505  21.656  13.871
25166W        W90151  37.246  38.793  10.590
25167W        W90152  25.515  14.517  12.798
25168W        W90153  19.969  13.481   0.425
25169W        W90154  42.905  13.800   2.884
25170W        W90155  25.098  24.329   1.272
25171W        W90156  16.267  10.432  13.548
25172W        W90157  31.393  34.846   0.823
25173W        W90158   5.088   2.426   0.760
25174W        W90159  11.710  44.490  10.761
25175W        W90160  14.808  15.598   2.763
25176W        W90161  13.047  15.666   4.476
25177W        W90162  19.243  20.740   1.429
25178W        W90163  44.927  22.978   3.395
25179W        W90164  18.144  35.289  10.634
25180W        W90165  28.376  14.834   2.738
25181W        W90166   0.726  42.537   4.199
25182W        W90167  39.200   4.876  12.021
25183W        W90168  11.117  35.513   4.436
25184W        W90169  22.622   8.838   1.388
25185W        W90170  19.122  17.213   0.796
25186W        W90171   4.720   6.721  14.355
25187W        W90172  41.766   2.407  13.892
25188W        W90173  18.585  16.148   3.177
25189W        W90174   8.811  26.685  12.063
25190W        W90175  44.510   9.769   4.637
25191W        W90176  14.174  34.874   1.440
25192W        W90177  17.338  20.985  14.022
25193W        W90178  21.427  26.456   0.334
25194W        W90179  25.657  32.196  12.911
25195W        W90180   9.427  30.355  13.526
25196W        W90181  38.555  18.700  10.234
25197W        W90182   9.830  33.456  11.090
25198W        W90183   0.530  14.537   4.140
25199W        W90184  16.204   2.642   4.541
25200W        W90185  24.993  10.430  10.786
25201W        W90186  20.974   1.324  13.471
25202W        W90187   5.099  16.554  14.918
25203W        W90188   2.643   5.737  11.155
25204W        W90189  18.587  34.502  12.572
25205W        W90190  16.839  28.656  14.454
25206W        W90191  34.383  21.372   4.913
25207W        W90192   0.382  37.110   0.596
25208W        W90193   2.011  14.681  14.369
25209W        W90194  35.067  13.185  12.535
25210W        W90195   2.384  27.793  11.550
25211W        W90196  44.242  13.277  12.400
25212W        W90197  40.479  34.920   2.289
25213W        W90198  39.139  26.439   2.162
25214W        W90199  28.625   6.313   2.689
25215W        W90200  31.978  11.805   2.283
25216W        W90201   3.414  10.236   0.722
25217W        W90202  19.451  35.413  11.606
25218W        W90203  29.523  27.695   3.535
25219W        W90204  33.827  15.240  13.657
25220W        W90205  19.975   8.724   2.890
25221W        W90206  32.061   0.552   1.015
25222W        W90207  18.801  37.914   2.812
25223W        W90208   6.162  11.184   1.698
25224W        W90209   5.489  39.827  10.712
25225W        W90210  41.438  28.190   1.886
25226W        W90211  11.033   6.704  10.121
25227W        W90212   8.421   9.313   4.745
25228W        W90213   5.023  27.199   0.635
25229W        W90214   3.723  42.667   3.293
25230W        W90215  31.156   1.821   0.307
25231W        W90216  44.242  10.796   1.982
25232W        W90217  18.839   5.151   4.009
25233W        W90218  19.992   6.723   2.324
25234W        W90219   3.980   8.515   3.243
25235W        W90220   4.719   4.542  13.987
25236W        W90221  40.627  14.607   5.226
25237W        W90222  38.145  40.392   3.255
25238W        W90223  14.254  28.886  12.235
25239W        W90224  16.598   9.183  12.562
25240W        W90225  43.846  30.986  14.595
25241W        W90226   8.142  12.822   0.314
25242W        W90227  41.700   2.768   2.877
25243W        W90228   0.782  29.542   3.710
25244W        W90229  25.229   4.361   0.254
25245W        W90230  35.570  28.614  11.562
25246W        W90231  29.522  33.086  10.133
25247W        W90232   1.933  40.942  13.451
25248W        W90233  41.928   4.130  14.424
25249W        W90234  12.988  17.481   4.230
25250W        W90235  33.795   0.691   3.197
25251W        W90236  26.347  16.524  11.653
25252W        W90237   6.708  44.714  14.504
25253W        W90238  31.342  22.942   1.197
25254W        W90239  20.790   4.555   0.012
25255W        W90240  18.645  24.048   3.167
25256W        W90241  15.914  23.828   3.414
25257W        W90242  37.373  11.669  13.827
25258W        W90243   3.640  38.567   1.371
25259W        W90244  23.122  20.925  11.949
25260W        W90245  13.164  12.522  13.047
25261W        W90246   6.847  35.773  14.938
25262W        W90247   5.934  21.948  12.001
25263W        W90248  15.146  43.460   3.227
25264W        W90249  13.473  37.898   2.926
25265W        W90250  42.060  11.100  10.802
25266W        W90251  14.841  39.555   0.252
25267W        W90252  15.388  36.137  13.360
25268W        W90253  10.907  12.822   3.061
25269W        W90254   0.841   3.036  14.205
25270W        W90255  12.091  25.180  14.727
25271W        W90256  21.184  14.154   4.499
25272W        W90257   1.574   2.757   1.254
25273W        W90258  13.627  41.311   2.211
25274W        W90259  15.839  27.885  13.898
25275W        W90260  35.475  26.156  13.456
25276W        W90261  13.102  15.053  13.110
25277W        W90262  17.093  37.339  12.037
25278W        W90263  18.792  39.124  13.058
25279W        W90264  38.919  27.533   0.775
25280W        W90265  36.098  22.122   0.439
25281W        W90266  23.145  33.942  13.368
25282W        W90267  37.569  32.549   1.748
25283W        W90268  22.479   1.792   2.512
25284W        W90269  25.161  34.401  12.352
25285W        W90270  15.549  42.422   1.806
25286W        W90271  27.669   0.726   0.463
25287W        W90272  12.470   2.992   0.939
25288W        W90273  30.634  37.921   0.753
25289W        W90274  35.520  25.922  11.135
25290W        W90275   9.456  29.695  13.970
25291W        W90276  30.992  19.020   4.051
25292W        W90277  38.035  17.348  11.086
25293W        W90278   8.442  30.536   1.191
25294W        W90279  38.507  22.246  11.139
25295W        W90280   8.737  16.550   0.422
25296W        W90281  19.032  43.328   0.243
25297W        W90282  38.506  34.955   0.657
25298W        W90283  10.704  40.832  12.907
25299W        W90284  39.936  28.329   0.239
25300W        W90285   6.652  31.010   2.731
25301W        W90286  10.184  10.319  14.822
25302W        W90287  25.552  15.591  12.159
25303W        W90288  13.953  33.094  12.329
25304W        W90289  22.913  12.758  11.650
25305W        W90290   6.329  38.882   1.276
25306W        W90291  16.688  26.453  11.141
25307W        W90292  29.977  33.315  13.962
25308W        W90293   6.767  41.841  13.544
25309W        W90294  38.310   0.922   0.895
25310W        W90295  23.620  14.549   4.073
25311W        W90296  40.328   1.017  11.592
25312W        W90297  35.853   2.166   1.458
25313W        W90298  28.449  39.548   3.606
25314W        W90299  30.339   9.125   3.695
25315W        W90300  27.250  16.157  14.872
25316W        W90301  21.598  36.445   1.670
25317W        W90302  35.627  34.012   4.654
25318W        W90303  26.295  25.326   0.842
25319W        W90304  39.604  30.534   1.088
25320W        W90305  12.133  38.909   3.659
25321W        W90306  41.213   1.904  11.265
25322W        W90307  11.984  22.133   0.462
25323W        W90308  10.399  11.327  13.844
25324W        W90309   3.749  31.441   4.621
25325W        W90310  43.131  36.122  10.598
25326W        W90311  41.454   3.784   2.128
25327W        W90312  17.270   0.212  10.567
25328W        W90313  42.056   1.788  10.522
25329W        W90314  14.150   5.533   4.547
25330W        W90315   0.213   7.341  13.396
25331W        W90316  29.183  33.682  10.124
25332W        W90317  15.803  42.153  11.206
25333W        W90318   3.228  39.442   0.357
25334W        W90319  17.115  14.131  12.126
25335W        W90320  28.631  18.867   2.476
25336W        W90321  31.063  21.732   4.191
25337W        W90322  41.874  28.290   5.447
25338W        W90323   4.387  31.258   3.517
25339W        W90324  25.231  40.672  14.210
25340W        W90325  13.497  25.985   0.941
25341W        W90326  40.103   0.847   4.817
25342W        W90327  44.358   9.576   0.256
25343W        W90328  19.361  17.963  13.812
25344W        W90329   4.783  43.829   1.362
25345W        W90330   1.813  30.500   4.535
25346W        W90331  25.003  28.203  11.164
25347W        W90332  21.115  33.988   4.740
25348W        W90333  44.380  12.643   2.741
25349W        W90334  43.657  37.355   0.313
25350W        W90335  40.453  30.426   4.491
25351W        W90336  10.205  12.686  14.819
25352W        W90337  18.225  12.076   3.757
25353W        W90338  13.582  14.245   3.278
25354W        W90339  34.025  18.063   2.697
25355W        W90340   9.259   1.383   4.386
25356W        W90341  15.166   0.477  13.507
25357W        W90342  43.560  27.994   2.779
25358W        W90343  20.223  22.553   4.700
25359W        W90344  21.995  15.698   2.267
25360W        W90345  34.059  34.545   0.508
25361W        W90346  19.523   2.893   3.268
25362W        W90347  44.568  43.243  13.482
25363W        W90348  40.045  23.015   4.609
25364W        W90349  26.164   3.095   5.005
25365W        W90350   4.379  21.709  14.878
25366W        W90351  22.235  24.128  14.363
25367W        W90352  30.107  10.836   3.365
25368W        W90353  18.292  37.324  11.576
25369W        W90354   2.402  12.654   1.862
25370W        W90355  43.838  34.654  11.206
25371W        W90356  22.538  23.716  10.842
25372W        W90357   3.401   1.947  14.735
25373W        W90358  41.436  37.073   2.623
25374W        W90359  22.170  16.224  10.783
25375W        W90360   1.180  34.175  12.651
25376W        W90361  40.508  28.449   0.338
25377W        W90362  35.920  36.473  14.946
25378W        W90363  42.486   4.535  11.243
25379W        W90364  41.754  33.114  11.547
25380W        W90365   6.158  26.569  12.722
25381W        W90366   8.821  41.760  11.259
25382W        W90367  10.295  40.043  12.764
25383W        W90368  43.423  22.603   0.909
25384W        W90369  38.968   1.479   0.945
25385W        W90370  34.638  40.465  10.787
25386W        W90371   3.885  11.166  12.999
25387W        W90372  32.507  10.695   0.405
25388W        W90373  25.110  29.207  11.151
25389W        W90374  43.831   1.351   2.295
25390W        W90375   3.346  24.130   1.689
25391W        W90376  15.190  33.500   0.778
25392W        W90377  12.409  28.114  14.833
25393W        W90378   1.786  28.099   2.870
25394W        W90379  43.194   7.759  14.777
25395W        W90380   1.436  41.225  11.103
25396W        W90381  33.952  11.153   2.319
25397W        W90382  40.386  18.773   1.271
25398W        W90383  15.356  35.220   0.761
25399W        W90384  16.954   6.689   4.581
25400W        W90385  30.416  27.424  12.270
25401W        W90386   6.852   8.523  14.062
25402W        W90387  13.854  19.485   4.788
25403W        W90388  31.456  20.074  13.296
25404W        W90389  25.755  27.360   0.769
25405W        W90390  35.173  39.168  10.699
25406W        W90391   9.610   8.625  14.759
25407W        W90392  31.026   5.443   1.836
25408W        W90393  41.538  30.855   2.225
25409W        W90394  30.401   6.881   3.287
25410W        W90395  25.986  37.926  10.484
25411W        W90396  33.093  38.630   4.506
25412W        W90397  18.248  11.695  10.739
25413W        W90398  17.776   2.048  10.656
25414W        W90399  11.294  35.674   4.909
25415W        W90400  19.641  12.608   1.402
25416W        W90401  33.497  28.049   2.583
25417W        W90402  19.695   1.188  12.539
25418W        W90403  27.576  33.699  12.023
25419W        W90404  16.374  43.441   4.480
25420W        W90405  30.191   7.281   3.833
25421W        W90406  31.092  41.268   3.198
25422W        W90407   5.339  12.275  11.625
25423W        W90408   7.913  41.927   2.614
25424W        W90409   2.484  41.763   1.495
25425W        W90410   8.187   8.493  10.181
25426W        W90411   8.306  43.765   2.237
25427W        W90412  14.445  27.098   5.451
25428W        W90413   3.953  16.141   4.732
25429W        W90414   9.881  26.986  13.548
25430W        W90415  17.554   3.392  14.050
25431W        W90416  41.382  30.122  12.009
25432W        W90417  16.117   0.422   1.908
25433W        W90418  41.354  27.964   4.873
25434W        W90419  26.058   7.846  13.969
25435W        W90420  43.002  43.525  10.668
25436W        W90421  26.280  41.758  13.845
25437W        W90422  35.752  37.619  13.872
25438W        W90423  12.164  19.947   2.564
25439W        W90424  44.735  33.396  12.465
25440W        W90425  36.459  28.804  14.943
25441W        W90426   7.630  20.628  13.448
25442W        W90427  43.701  11.986  10.923
25443W        W90428  17.132  36.906  11.049
25444W        W90429  30.877  17.081  13.894
25445W        W90430  34.072  17.235  10.593
25446W        W90431  34.367  22.182   2.849
25447W        W90432  24.919  21.096  11.856
25448W        W90433  31.338  30.405   4.565
25449W        W90434  39.134  38.744   4.886
25450W        W90435  16.694  12.121   3.222
25451W        W90436   9.210   3.456  13.641
25452W        W90437  19.819  24.258  13.845
25453W        W90438  31.641  17.690   4.119
25454W        W90439  15.726  13.420  14.366
25455W        W90440  15.408  25.630   1.689
25456W        W90441  40.569   6.735  12.502
25457W        W90442  37.439  25.289  10.182
25458W        W90443   6.922  25.146   1.371
25459W        W90444  38.837  18.259  13.907
25460W        W90445  27.004   4.646  12.958
25461W        W90446  33.565  35.622   1.865
25462W        W90447  31.917  24.570   0.806
25463W        W90448  19.332  21.687  10.475
25464W        W90449   0.960   1.035   3.226
25465W        W90450  17.131  31.151  10.081
25466W        W90451  12.695  19.666  11.619
25467W        W90452  31.066  20.778  12.437
25468W        W90453  28.367  24.485   1.137
25469W        W90454  15.164  36.597  13.381
25470W        W90455  39.624  21.206   0.132
25471W        W90456  15.771  33.483   2.331
25472W        W90457  29.996  38.297  10.691
25473W        W90458   5.835   5.282   1.732
25474W        W90459  13.222  23.529   4.577
25475W        W90460  27.549   7.899   1.823
25476W        W90461   0.547  12.998  11.205
25477W        W90462  12.643  33.852  11.866
25478W        W90463  33.648   4.931   2.250
25479W        W90464   0.721  41.052   3.155
25480W        W90465  37.429  39.283   1.821
25481W        W90466  36.159  39.777  14.052
25482W        W90467  44.875  22.539  14.480
25483W        W90468  24.525  22.024   3.039
25484W        W90469   7.134   6.777  14.006
25485W        W90470   6.911  34.439  11.620
25486W        W90471  12.650  32.721   2.263
25487W        W90472  22.123  30.926  10.633
25488W        W90473   1.301   5.304   4.496
25489W        W90474  25.746  27.410  10.252
25490W        W90475  31.438  34.542   1.984
25491W        W90476  22.113  24.656  13.598
25492W        W90477  38.447  30.525   1.340
25493W        W90478  18.352  27.231   1.756
25494W        W90479  25.608  38.369  14.438
25495W        W90480   3.722   2.152  11.590
25496W        W90481  25.396   0.877  14.216
25497W        W90482  34.952  42.291   1.279
25498W        W90483  12.715   4.455  14.300
25499W        W90484  42.461  29.617   5.359
25500W        W90485  23.654  10.359  11.115
25501W        W90486  18.473  11.898  12.922
25502W        W90487  19.715  23.026  13.647
25503W        W90488  25.932  37.326   4.983
25504W        W90489  24.609   0.914  14.862
25505W        W90490  35.411  30.996   2.298
25506W        W90491   4.884   1.081   0.906
25507W        W90492   7.150  41.362   0.056
25508W        W90493  10.703  21.188   0.108
25509W        W90494  25.555  29.058   0.951
25510W        W90495  21.165  21.295   1.359
25511W        W90496  31.778  11.199  13.499
25512W        W90497  39.159   1.386  12.856
25513W        W90498  34.906  23.458   0.004
25514W        W90499  20.213   3.238  10.518
25515W        W90500  44.877   5.322   4.153
25516W        W90501  20.285  25.715  13.493
25517W        W90502  41.173  10.319   4.949
25518W        W90503  18.266  37.632   0.454
25519W        W90504  35.567   0.848   3.710
25520W        W90505  16.479  43.020   1.278
25521W        W90506  40.385   2.845  14.441
25522W        W90507   5.357  29.694  11.545
25523W        W90508  13.070  41.011  12.003
25524W        W90509   7.276   2.660   3.591
25525W        W90510  23.654   8.621   1.242
25526W        W90511   5.129   1.472   4.155
25527W        W90512  43.450   8.743  14.701
25528W        W90513  14.455  21.674  10.679
25529W        W90514  42.053  31.696  14.928
25530W        W90515  18.334   6.790  12.079
25531W        W90516  26.222   6.688   1.816
25532W        W90517  15.389  20.738  10.859
25533W        W90518  27.623   2.500   3.065
25534W        W90519   6.618  39.085   4.169
25535W        W90520  20.296  13.104   2.687
25536W        W90521   9.992  10.922  13.189
25537W        W90522  30.778  32.186  12.635
25538W        W90523  35.234  41.380   0.949
25539W        W90524  19.191  23.986  14.896
25540W        W90525  32.858  19.433   4.516
25541W        W90526  43.866   9.615  13.832
25542W        W90527  40.820  31.022  12.986
25543W        W90528  24.694  10.626   1.341
25544W        W90529  10.144  15.130   1.529
25545W        W90530  39.372   9.437  12.115
25546W        W90531  25.832   7.755   3.179
25547W        W90532  23.045  32.036   4.452
25548W        W90533  28.991   1.791   1.244
25549W        W90534  11.420   3.990   1.456
25550W        W90535  24.913  28.766   0.299
25551W        W90536   2.185  23.909  13.446
25552W        W90537  13.508  33.602  10.731
25553W        W90538  40.383   0.566   3.255
25554W        W90539  14.704  32.593  12.400
25555W        W90540  26.314  44.702   1.779
25556W        W90541  20.336  34.092  13.755
25557W        W90542  28.131  23.987  14.293
25558W        W90543  34.324  17.802   2.378
25559W        W90544  20.180  33.222  11.531
25560W        W90545  26.726  26.518  11.543
25561W        W90546  29.457  34.146  12.915
25562W        W90547   4.985  29.867   9.844
25563W        W90548  28.994  32.443  12.252
25564W        W90549  29.882  39.221  12.866
25565W        W90550   7.179  38.314  12.421
25566W        W90551  31.769   8.102   9.959
25567W        W90552  18.503  34.531   1.793
25568W        W90553  31.711   1.161   5.041
25569W        W90554  36.032   1.614   0.153
25570W        W90555  13.263   5.527   4.503
25571W        W90556   2.426  10.917   4.028
25572W        W90557  27.266  40.935   2.332
25573W        W90558  28.150  35.637   3.746
25574W        W90559   9.162  41.304   3.668
25575W        W90560  20.701  35.409   3.161
25576W        W90561  14.741  35.358   2.753
25577W        W90562  29.571  21.143  13.456
25578W        W90563  41.726  11.816   0.396
25579W        W90564  30.105  32.211   5.049
25580W        W90565  44.406  29.618   0.716
25581W        W90566  13.879   8.705  11.172
25582W        W90567   6.330  25.662  12.484
25583W        W90568  20.648   5.602   3.458
25584W        W90569   0.294   6.734  13.164
25585W        W90570  35.508  44.264  13.280
25586W        W90571  29.720  25.187  14.238
25587W        W90572  37.047  12.605  13.908
25588W        W90573  23.242  17.687   2.525
25589W        W90574  14.924  12.169   4.294
25590W        W90575   2.090   6.555   2.722
25591W        W90576  36.478  35.509   3.930
25592W        W90577  20.147  32.886   3.976
25593W        W90578  18.296  10.044   5.272
25594W        W90579   4.957  20.523   5.071
25595W        W90580  24.031  35.922  14.738
25596W        W90581  30.483  42.859  11.615
25597W        W90582   1.049  32.087  14.514
25598W        W90583  10.413   6.123  10.728
25599W        W90584  33.946   9.264  12.143
25600W        W90585  14.205   7.475  10.677
25601W        W90586   2.258  24.639  13.954
25602W        W90587   5.921  44.707   0.395
25603W        W90588  42.946  10.716   4.589
25604W        W90589  16.304  17.108   4.133
25605W        W90590  13.377   2.288   3.662
25606W        W90591  41.294  37.982  13.958
25607W        W90592  35.904  12.188   2.765
25608W        W90593   8.152  24.154   3.370
25609W        W90594  24.955  40.521   3.670
25610W        W90595   4.062  39.254  12.878
25611W        W90596   9.633  18.559  10.747
25612W        W90597  24.040   9.803   1.136
25613W        W90598  15.679   7.042  13.954
25614W        W90599  23.205  10.337   4.569
25615W        W90600  38.988  31.969   3.648
25616W        W90601  42.399  33.523   4.412
25617W        W90602  38.641   8.984   1.222
25618W        W90603   4.566  29.521  14.740
25619W        W90604   8.356  20.966  13.867
25620W        W90605   3.442  14.192   4.648
25621W        W90606  43.470  38.513  14.861
25622W        W90607  35.017   9.572   2.394
25623W        W90608   5.652   6.878  10.785
25624W        W90609  13.980   8.090   3.435
25625W        W90610  27.206  14.678   4.113
25626W        W90611  30.863  30.226   4.126
25627W        W90612  32.563  44.017   3.579
25628W        W90613  15.783  40.651   4.493
25629W        W90614  27.196   1.197  11.548
25630W        W90615  11.384  26.039   3.741
25631W        W90616  17.028  24.498  12.542
25632W        W90617  26.985  15.320   0.433
25633W        W90618   9.247  39.177   2.324
25634W        W90619  31.640   1.663  10.670
25635W        W90620  38.065  13.288  13.980
25636W        W90621  39.775   4.763   3.184
25637W        W90622  35.276   8.089   0.923
25638W        W90623  20.070   1.840  14.577
25639W        W90624  25.175  28.487  14.468
25640W        W90625  23.524   6.849  11.955
25641W        W90626  35.111  25.499  12.581
25642W        W90627  31.360   6.238   2.135
25643W        W90628  16.725  42.488  11.897
25644W        W90629  22.959  33.363  11.088
25645W        W90630  41.961  34.674   0.266
25646W        W90631  10.346  30.684   4.474
25647W        W90632  42.908  25.048   2.146
25648W        W90633  31.763  35.080   3.124
25649W        W90634   5.328  40.936   0.384
25650W        W90635  44.941   1.920  11.438
25651W        W90636   9.360  30.671  12.558
25652W        W90637  19.242  23.789  13.167
25653W        W90638   1.932  10.824  10.836
25654W        W90639  21.503  36.361   2.170
25655W        W90640  23.446  14.021   4.062
25656W        W90641  14.302  12.632   9.795
25657W        W90642   6.740   2.643   2.860
25658W        W90643   1.761  24.975   1.803
25659W        W90644  44.839  10.127   2.281
25660W        W90645   7.497  40.243  12.408
25661W        W90646  37.842  36.294   4.641
25662W        W90647  12.694  14.130  13.860
25663W        W90648  10.154   2.420   1.313
25664W        W90649  15.917  36.444   2.259
25665W        W90650  20.933   2.752  14.311
25666W        W90651  11.623  35.256  10.606
25667W        W90652   0.358  16.820   3.277
25668W        W90653  21.226  42.702   1.404
25669W        W90654   8.213  10.617   1.339
25670W        W90655  25.461  36.629   3.515
25671W        W90656  18.024  22.158  11.269
25672W        W90657   3.310  22.080   0.020
25673W        W90658   9.311  39.099   0.438
25674W        W90659  21.817  13.118   1.380
25675W        W90660  21.842  14.377  14.144
25676W        W90661  21.946   4.247  12.160
25677W        W90662  33.429   1.470   1.324
25678W        W90663  15.534   3.810  13.459
25679W        W90664  15.168  29.686  14.756
25680W        W90665  25.676  32.550  14.720
25681W        W90666  25.066  40.732   3.205
25682W        W90667  24.946  22.019   4.909
25683W        W90668  35.784  29.727  13.299
25684W        W90669   1.732  32.938   3.170
25685W        W90670  23.017  18.767  12.106
25686W        W90671  25.488  22.151   4.646
25687W        W90672  35.543   1.846  12.541
25688W        W90673  27.704  24.776   1.846
25689W        W90674  30.724   9.672   4.222
25690W        W90675   9.644   7.690  14.746
25691W        W90676  15.329  30.964  13.882
25692W        W90677  10.940  33.093   1.444
25693W        W90678   0.923  15.740   2.623
25694W        W90679  44.207  22.053   0.146
25695W        W90680  12.173  38.997  14.044
25696W        W90681  33.438   9.268   2.162
25697W        W90682  39.080  17.027  10.791
25698W        W90683  30.866  17.259   0.802
25699W        W90684  22.990  25.417  10.652
25700W        W90685  35.145  28.888  12.011
25701W        W90686  35.808  30.542  11.220
25702W        W90687  39.293  23.479   4.370
25703W        W90688  38.877  43.880  14.934
25704W        W90689  24.198  33.522  13.954
25705W        W90690  12.877  25.968  13.553
25706W        W90691  14.387  37.236   2.801
25707W        W90692  36.437  13.399   0.237
25708W        W90693  33.560  15.759   4.096
25709W        W90694  43.337  15.196  13.985
25710W        W90695  11.769  29.687  12.567
25711W        W90696   7.294  13.911   1.317
25712W        W90697  43.626  15.838   1.889
25713W        W90698  41.317  22.304  12.473
25714W        W90699  19.698  33.638  12.132
25715W        W90700  38.319  38.985   4.568
25716W        W90701  17.175  10.127  10.723
25717W        W90702   3.730  17.854  12.508
25718W        W90703  19.745  13.546  14.887
25719W        W90704  11.666  16.633   2.320
25720W        W90705  24.240  12.218  11.937
25721W        W90706  16.132   0.868  10.478
25722W        W90707  44.703  29.060   0.851
25723W        W90708   1.628  26.164  13.858
25724W        W90709   4.344   3.915  11.644
25725W        W90710  16.885  41.612   1.391
25726W        W90711  13.855  43.793   1.857
25727W        W90712  37.284  41.817  10.719
25728W        W90713  16.059  10.667   2.291
25729W        W90714  44.767   9.786  14.408
25730W        W90715   0.175  20.298   0.282
25731W        W90716  16.167  32.443   4.614
25732W        W90717  28.937  29.892  14.296
25733W        W90718  36.873  10.405  11.185
25734W        W90719  20.538  26.513  10.932
25735W        W90720  38.455  20.822   4.582
25736W        W90721  26.220  14.621   2.231
25737W        W90722  29.886  24.542  12.837
25738W        W90723   3.807  16.996  14.073
25739W        W90724  27.529  25.516  10.921
25740W        W90725  27.089  26.202  13.755
25741W        W90726  29.053  41.531   2.342
25742W        W90727  24.636   8.153   1.743
25743W        W90728   7.866   8.676  14.551
25744W        W90729   6.428  44.336  11.924
25745W        W90730  29.458  21.513   0.287
25746W        W90731  18.897  24.859  11.148
25747W        W90732   9.964  20.928  14.396
25748W        W90733  43.374  29.489  12.392
25749W        W90734  17.643  40.778   1.756
25750W        W90735  29.453  32.670  11.513
25751W        W90736  13.051  24.841  10.707
25752W        W90737  24.354   0.989  13.788
25753W        W90738  20.218  30.159   4.528
25754W        W90739  12.994  28.437  10.994
25755W        W90740  15.077  15.785   1.394
25756W        W90741  13.544  25.637  14.113
25757W        W90742  27.978  22.240  10.791
25758W        W90743  24.816  37.541  12.986
25759W        W90744  30.251  23.993   4.699
25760W        W90745  42.289  37.920  13.861
25761W        W90746   8.146  42.276   2.320
25762W        W90747  24.470   5.827  13.947
25763W        W90748  35.184  22.454  13.419
25764W        W90749   5.663   2.243   3.084
25765W        W90750  34.246  31.399   1.850
25766W        W90751   3.429   5.563  11.465
25767W        W90752   2.680  27.599   0.729
25768W        W90753  21.993   8.579  11.870
25769W        W90754  16.340   5.316  11.992
25770W        W90755  24.215  41.976   2.622
25771W        W90756  33.347   5.475   9.981
25772W        W90757   5.802   4.947  11.797
25773W        W90758  10.183  10.717  11.064
25774W        W90759  41.032   8.286  11.498
25775W        W90760  32.367  15.132   2.785
25776W        W90761  16.368  21.432   0.485
25777W        W90762  25.612   5.162  11.622
25778W        W90763   2.320  31.604   2.457
25779W        W90764  15.775  13.823  10.836
25780W        W90765  24.592   8.493   1.304
25781W        W90766  44.752  11.063   4.423
25782W        W90767  11.568  13.591  10.001
25783W        W90768  23.781  43.274  12.524
25784W        W90769  36.538  26.152  12.097
25785W        W90770  32.464   8.128  12.015
25786W        W90771   6.012  35.936  14.774
25787W        W90772  43.479  35.374   9.915
25788W        W90773  17.206  27.453  13.391
25789W        W90774  43.255   9.256  11.169
25790W        W90775  38.411  17.465  10.132
25791W        W90776  32.742  35.785   0.820
25792W        W90777   2.452  41.423   4.250
25793W        W90778  13.330  38.249   2.572
25794W        W90779  43.430  27.039  10.497
25795W        W90780  33.030  18.243   0.256
25796W        W90781   2.305  33.386  14.064
25797W        W90782   5.654  39.035   1.240
25798W        W90783  33.456  11.953   4.012
25799W        W90784  42.779  38.555   3.580
25800W        W90785  32.096  17.789  13.881
25801W        W90786  29.455  39.003   4.479
25802W        W90787   6.893  13.262  14.667
25803W        W90788  26.723  12.705  12.253
25804W        W90789  43.527  16.697   2.663
25805W        W90790  17.529  39.942   3.626
25806W        W90791  32.428  13.706  12.089
25807W        W90792  28.690  20.862   2.619
25808W        W90793   3.459   9.906  13.530
25809W        W90794  43.033  10.542   2.637
25810W        W90795  31.914  24.360  11.962
25811W        W90796  11.550  41.414   1.960
25812W        W90797  25.734   2.895   1.911
25813W        W90798  27.738  20.027   2.664
25814W        W90799  42.276  35.949  10.879
25815W        W90800  28.450  32.978   3.699
25816W        W90801  14.119  31.628  14.408
25817W        W90802  34.629   0.979  11.155
25818W        W90803  12.825  20.268  13.512
25819W        W90804   9.102  36.933   3.641
25820W        W90805  35.071  28.365   4.471
25821W        W90806  34.090  14.840  13.903
25822W        W90807  42.958  25.378  11.917
25823W        W90808  15.812   9.326  12.854
25824W        W90809  29.245  26.968  13.530
25825W        W90810  20.816   0.842   4.304
25826W        W90811  42.825  20.343  14.689
25827W        W90812  24.689  23.167   1.349
25828W        W90813  42.918   7.342  12.397
25829W        W90814  14.218  15.184   3.685
25830W        W90815  10.222  33.683   3.642
25831W        W90816  19.628   3.275  13.879
25832W        W90817  33.611  10.653   3.620
25833W        W90818  12.364  13.832   0.508
25834W        W90819  14.388  22.172  11.883
25835W        W90820  15.381  10.738  14.007
25836W        W90821   7.331  25.548   4.290
25837W        W90822  43.584  33.815   1.055
25838W        W90823  16.500  42.018   2.283
25839W        W90824  20.494  30.166  10.667
25840W        W90825   1.415   1.378   0.275
25841W        W90826  44.872  40.809   0.270
25842W        W90827  42.974   2.007   1.734
25843W        W90828  44.548  11.626  14.349
25844W        W90829  15.643  14.537   1.744
25845W        W90830  14.433   6.850   5.045
25846W        W90831  13.799   7.081  11.381
25847W        W90832  15.736  14.775  12.689
25848W        W90833  38.843   7.860  13.811
25849W        W90834   1.890  31.116   0.823
25850W        W90835  13.860  37.681   3.250
25851W        W90836  30.046  21.469   1.420
25852W        W90837  29.916  27.061   2.925
25853W        W90838  10.005   4.402   1.308
25854W        W90839  16.280  38.821   3.813
25855W        W90840  28.238  10.734   0.514
25856W        W90841  12.769  26.728   1.198
25857W        W90842  15.074  39.745   2.342
25858W        W90843  13.594  28.641   0.745
25859W        W90844  16.049  28.068   1.638
25860W        W90845   2.934   8.119  11.079
25861W        W90846  33.523   1.958  14.954
25862W        W90847  37.372  31.001  13.545
25863W        W90848  23.200  29.875   3.619
25864W        W90849  23.132   6.355  14.100
25865W        W90850  42.602  18.898   4.557
25866W        W90851  42.808  29.486   1.947
25867W        W90852  12.250   4.737   4.842
25868W        W90853  32.736  37.863  11.113
25869W        W90854  27.658   8.328  13.021
25870W        W90855  11.532  29.364  13.852
25871W        W90856  20.711  33.646   4.199
25872W        W90857   9.452  16.294  10.733
25873W        W90858  40.122  18.584   0.873
25874W        W90859  42.207   4.882   0.507
25875W        W90860  30.297  33.580  13.144
25876W        W90861  38.140   8.122  14.373
25877W        W90862  19.139  39.429  10.675
25878W        W90863  31.531  28.681  12.955
25879W        W90864  15.108  13.969   5.163
25880W        W90865  31.605  36.076  12.043
25881W        W90866  25.104  22.142  10.840
25882W        W90867  18.064   2.646  11.240
25883W        W90868   5.405  16.587  12.246
25884W        W90869   2.740  10.439  14.837
25885W        W90870  22.495   6.278  14.795
25886W        W90871  44.330  31.189   1.796
25887W        W90872  19.673  11.437  11.174
25888W        W90873  10.397  43.571   3.381
25889W        W90874  24.458  27.416  11.141
25890W        W90875  42.026  11.211  11.934
25891W        W90876   4.715  22.489  14.942
25892W        W90877  10.121  39.507   2.948
25893W        W90878  10.830  38.095   2.731
25894W        W90879  31.507   7.643   3.669
25895W        W90880  37.734  23.603  12.949
25896W        W90881  21.839  30.547  14.886
25897W        W90882  33.859  34.030  14.348
25898W        W90883  41.479  39.835   0.026
25899W        W90884  11.929  42.615   2.202
25900W        W90885  21.751   0.969   4.074
25901W        W90886  24.899  16.832  13.748
25902W        W90887  20.442  13.311   0.440
25903W        W90888  32.722  11.843   1.359
25904W        W90889  32.841  38.819  13.589
25905W        W90890  33.985  15.592  11.708
25906W        W90891  15.608  12.860   4.982
25907W        W90892  29.148   1.439  14.391
25908W        W90893   8.328   1.415   2.261
25909W        W90894   5.486  41.435  12.336
25910W        W90895  20.007   4.909  14.287
25911W        W90896  12.587  41.297   1.129
25912W        W90897  23.768  18.126  13.397
25913W        W90898  33.390   0.261   0.972
25914W        W90899   5.096  41.348   1.736
25915W        W90900   9.741  34.637   4.590
25916W        W90901  25.616  17.284  14.928
25917W        W90902  22.434  11.452   0.032
25918W        W90903  10.927  20.163   3.190
25919W        W90904  22.383  24.679  12.343
25920W        W90905  30.297  36.378  13.630
25921W        W90906  32.596  19.724   2.770
25922W        W90907  10.919  35.132  13.806
25923W        W90908   2.624   1.934   5.083
25924W        W90909  21.247   9.458   4.542
25925W        W90910   3.771  42.082  12.123
25926W        W90911  17.143  38.294   1.996
25927W        W90912  29.606  35.200  12.817
25928W        W90913  30.663  23.933  11.825
25929W        W90914  35.852   3.876   2.426
25930W        W90915  44.717  26.137   0.612
25931W        W90916  29.022   5.723  14.500
25932W        W90917   4.574  37.333   4.391
25933W        W90918   4.062  11.798   2.922
25934W        W90919  14.290   0.576   2.654
25935W        W90920   5.959  30.526   1.169
25936W        W90921  27.845   4.542   4.654
25937W        W90922  21.944  33.889   3.655
25938W        W90923  20.350  15.292   1.600
25939W        W90924  25.419  29.177  12.079
25940W        W90925  18.499  23.940  10.952
25941W        W90926  41.135  27.881  13.962
25942W        W90927  14.127  32.746   1.005
25943W        W90928  33.113  32.210  11.251
25944W        W90929  22.154  37.746   1.897
25945W        W90930   6.203   7.653  12.004
25946W        W90931  35.431  36.382   3.879
25947W        W90932  11.226  22.293   0.877
25948W        W90933  39.027   4.445   0.524
25949W        W90934  41.792  26.554  12.075
25950W        W90935   2.678  29.121  11.081
25951W        W90936   1.579  34.955  10.779
25952W        W90937  26.560  15.621  12.857
25953W        W90938   7.686  36.604   2.715
25954W        W90939  29.510  14.360   1.742
25955W        W90940  41.350  20.888   5.456
25956W        W90941  43.361  13.281   0.469
25957W        W90942  39.610  42.089  13.176
25958W        W90943  30.669  16.181  12.494
25959W        W90944   3.251  27.616  11.112
25960W        W90945   7.921  30.897  11.968
25961W        W90946   7.955  37.727   1.259
25962W        W90947  39.842   7.632  11.709
25963W        W90948  31.137   5.294   2.316
25964W        W90949  39.126   0.857   4.150
25965W        W90950  39.729  15.795   2.318
25966W        W90951  11.913  41.959   2.730
25967W        W90952  38.061  23.017  14.208
25968W        W90953   0.731  37.555  11.499
25969W        W90954  21.034  35.398  14.646
25970W        W90955  23.060  18.143   3.286
25971W        W90956  10.672  29.519   1.681
25972W        W90957  28.190  34.978  12.004
25973W        W90958  36.322  41.002   2.444
25974W        W90959  19.138  42.914  10.717
25975W        W90960  34.508   1.680  12.958
25976W        W90961  32.172  35.226   4.037
25977W        W90962  36.610  22.330   0.436
25978W        W90963  19.641  12.129   0.367
25979W        W90964   8.881  12.382   4.297
25980W        W90965  10.378  22.055   4.530
25981W        W90966  36.439  29.519  11.408
25982W        W90967  31.149  20.078   1.487
25983W        W90968  11.173  34.081  11.085
25984W        W90969   5.231  37.121  14.705
25985W        W90970   3.187  26.241   0.751
25986W        W90971  28.595  21.441   4.575
25987W        W90972   6.760   6.888   0.535
25988W        W90973  39.367  43.542   4.215
25989W        W90974  34.461   9.744  10.647
25990W        W90975   9.259  13.816   2.144
25991W        W90976  36.574  21.127  10.550
25992W        W90977  35.942  10.617  13.821
25993W        W90978  39.241  44.262   3.676
25994W        W90979  29.095   1.321  12.854
25995W        W90980   8.295  43.926   1.737
25996W        W90981  21.811  35.443   0.681
25997W        W90982  44.808  42.601   2.790
25998W        W90983  40.395  37.094  13.977
25999W        W90984  35.560  20.697   0.404
26000W        W90985  21.724  11.432   0.508
26001W        W90986  32.104  32.690   4.390
26002W        W90987  10.382  41.904   1.303
26003W        W90988   1.239   4.033   2.327
26004W        W90989  13.123   3.570  10.811
26005W        W90990  30.135   0.317  11.596
26006W        W90991  33.445  21.865  10.659
26007W        W90992   3.989  31.699   9.935
26008W        W90993  12.762  22.444   0.122
26009W        W90994  30.969   6.391   0.763
26010W        W90995  21.126  26.258  14.720
26011W        W90996   9.195  15.860  10.665
26012W        W90997  21.949  36.944  11.559
26013W        W90998  12.636  24.117  12.469
26014W        W90999  11.819  33.235   0.791
26015W        W91000   4.480  27.223   4.669
26016W        W91001  23.572  28.207   4.056
26017W        W91002  43.846  14.932   3.955
26018W        W91003  24.170  41.037   2.831
26019W        W91004  18.543  28.994   1.633
26020W        W91005  22.398   6.218   3.366
26021W        W91006   7.763  26.220   4.188
26022W        W91007   9.555   8.041  12.847
26023W        W91008  38.005  11.469  12.489
26024W        W91009  39.100  37.371  14.870
26025W        W91010   7.917  33.153   2.558
26026W        W91011  34.646  44.818   3.818
26027W        W91012  37.582   0.018   4.284
26028W        W91013  22.584  23.925   1.918
26029W        W91014  19.321  11.926   4.523
26030W        W91015  27.436  31.448  13.384
26031W        W91016   9.036   2.990  11.051
26032W        W91017  36.307  29.218   4.786
26033W        W91018  30.070  12.336  10.473
26034W        W91019  30.836   9.134  14.915
26035W        W91020   9.222  21.897  13.210
26036W        W91021  37.146  17.627   0.683
26037W        W91022  22.680  42.074  13.846
26038W        W91023  39.465  15.932  11.601
26039W        W91024  16.151  15.222  14.393
26040W        W91025   5.684   4.113  12.380
26041W        W91026   3.189  32.417   1.223
26042W        W91027  16.549  12.203  13.631
26043W        W91028  14.376  44.487  14.448
26044W        W91029  40.164  17.432  11.879
26045W        W91030  23.038   5.553  12.808
26046W        W91031  28.001  32.323   0.567
26047W        W91032   2.663  31.419   0.462
26048W        W91033  26.711  29.128   2.784
26049W        W91034  34.020  30.895   0.627
26050W        W91035  13.990   4.745  13.776
26051W        W91036  17.358   7.858  11.981
26052W        W91037  33.740  35.426   2.330
26053W        W91038  28.048  10.374   2.802
26054W        W91039  38.488   3.749   0.884
26055W        W91040  36.312  12.780  10.978
26056W        W91041  28.215  11.813  13.594
26057W        W91042   5.108  25.216   1.738
26058W        W91043  19.532  25.652  10.655
26059W        W91044  12.241  37.880   3.773
26060W        W91045  38.942  28.134  13.509
26061W        W91046  15.165  44.340  11.587
26062W        W91047   3.717  17.768  14.384
26063W        W91048  26.121  10.903   3.231
26064W        W91049  12.526  35.992  13.331
26065W        W91050  36.446  31.855  12.299
26066W        W91051  17.501  19.176  13.029
26067W        W91052  25.293  28.447  10.785
26068W        W91053   0.601  33.548   0.285
26069W        W91054  41.306  27.567  12.132
26070W        W91055  16.853  39.449   0.339
26071W        W91056  31.866  27.082   0.251
26072W        W91057   5.444  30.313  12.871
26073W        W91058   7.934  40.062  12.619
26074W        W91059  25.951  18.169  13.736
26075W        W91060   1.203  29.149  14.533
26076W        W91061  34.159  27.423  14.015
26077W        W91062  44.622   5.626  13.817
26078W        W91063  28.575  14.538  13.354
26079W        W91064  43.467  31.994  11.158
26080W        W91065  14.419  33.043   1.335
26081W        W91066  34.507   3.704  14.731
26082W        W91067  24.153  16.308  14.247
26083W        W91068  15.168   4.267  11.073
26084W        W91069  19.323  12.601  10.332
26085W        W91070  24.081  16.909  12.496
26086W        W91071  18.364  24.736   4.258
26087W        W91072  44.172  36.584  14.355
26088W        W91073  41.975  15.736   3.698
26089W        W91074  10.198  44.366  13.845
26090W        W91075  30.445  44.903  11.460
26091W        W91076   1.460  41.971  13.095
26092W        W91077  28.651   5.715   3.846
26093W        W91078  27.227   8.214   3.116
26094W        W91079  17.552  11.315  14.328
26095W        W91080  30.471  32.057   2.150
26096W        W91081  16.562  40.275   0.954
26097W        W91082  14.221  39.925   3.229
26098W        W91083  11.833  37.167   0.428
26099W        W91084  39.815  41.131  10.745
26100W        W91085  37.984  31.582  10.639
26101W        W91086  33.015  20.739  13.960
26102W        W91087  10.665  34.874   4.059
26103W        W91088  28.543   6.487   3.177
26104W        W91089  21.545  12.043   2.420
26105W        W91090  17.365  22.063  12.997
26106W        W91091   5.990   0.822  13.860
26107W        W91092  43.366  38.014   3.393
26108W        W91093  14.905  25.966  13.401
26109W        W91094  17.229  23.173  13.193
26110W        W91095  31.453  15.323  10.588
26111W        W91096  12.615  25.996   0.423
26112W        W91097  37.275  16.189  12.435
26113W        W91098   3.654  28.106   1.735
26114W        W91099  25.582  22.114   2.110
26115W        W91100   3.854  26.858   0.869
26116W        W91101   3.339  21.575   3.786
26117W        W91102  14.746  24.290  11.943
26118W        W91103  11.587  34.812  13.357
26119W        W91104   0.911  21.334   0.054
26120W        W91105  16.722  24.617  14.739
26121W        W91106  15.632  38.306   1.397
26122W        W91107  27.382   3.490  12.833
26123W        W91108  15.157  26.069   4.578
26124W        W91109  13.325  11.071   0.113
26125W        W91110  44.294  22.789  14.453
26126W        W91111  14.784  35.594   3.233
26127W        W91112  42.947   7.203   4.194
26128W        W91113  13.706  41.924  10.604
26129W        W91114  20.038  26.432   2.400
26130W        W91115   2.581  34.859  11.640
26131W        W91116  12.603   5.557   3.381
26132W        W91117  24.647  41.824   1.774
26133W        W91118  42.360  31.117  13.856
26134W        W91119  26.607  27.946   0.346
26135W        W91120  31.638  28.966  12.006
26136W        W91121  24.124  43.127   5.196
26137W        W91122   7.052  17.423  11.582
26138W        W91123  41.456  10.911  12.838
26139W        W91124  11.794  26.150  11.990
26140W        W91125  23.244  21.422   9.934
26141W        W91126  39.456   8.096  12.466
26142W        W91127  44.875  39.393   0.945
26143W        W91128  38.792  40.166  10.281
26144W        W91129  39.383  40.964  13.498
26145W        W91130  32.056  27.454  11.573
26146W        W91131   7.741  20.578  12.019
26147W        W91132  26.023  19.741   2.067
26148W        W91133  18.154  30.931   2.281
26149W        W91134  12.406  38.664  12.915
26150W        W91135  15.084   0.043  12.171
26151W        W91136  34.057  32.051  12.213
26152W        W91137   3.634  16.236  11.566
26153W        W91138  17.275  37.777  12.909
26154W        W91139  32.954  22.458   3.837
26155W        W91140   1.313   0.484  10.913
26156W        W91141  17.375  19.102  14.885
26157W        W91142  29.543  41.158  11.574
26158W        W91143   8.881   6.690   2.843
26159W        W91144  24.782  17.532  11.658
26160W        W91145  35.952   9.149  12.872
26161W        W91146  36.004  39.610   3.188
26162W        W91147  13.710  23.287   3.363
26163W        W91148  13.578  26.019   1.873
26164W        W91149  31.577  14.527   3.779
26165W        W91150  16.561  20.027  13.077
26166W        W91151  14.051  12.832  14.323
26167W        W91152  40.842  23.528  11.631
26168W        W91153   9.679  19.625   0.033
26169W        W91154  29.492   6.203  11.548
26170W        W91155  18.702  19.742  14.063
26171W        W91156  29.164  25.554  13.462
26172W        W91157   6.749  31.777  12.041
26173W        W91158  24.405   5.436  14.803
26174W        W91159  27.122   1.223  12.418
26175W        W91160  31.488  35.846   0.679
26176W        W91161   5.957  22.464   2.298
26177W        W91162   5.232  18.624  13.406
26178W        W91163   9.390   9.927   0.016
26179W        W91164  38.902   0.283   4.279
26180W        W91165  42.057  26.690  14.612
26181W        W91166   2.179  30.150  13.820
26182W        W91167  26.674  44.649  10.100
26183W        W91168  42.844  20.045   2.161
26184W        W91169  16.425   5.699   2.625
26185W        W91170  19.630  30.074   3.680
26186W        W91171  27.905   8.631   2.693
26187W        W91172  16.292  17.055  12.573
26188W        W91173  26.068  42.549  10.581
26189W        W91174  17.796   1.076   3.865
26190W        W91175  29.700  25.607  14.570
26191W        W91176  25.178  31.534  14.975
26192W        W91177  32.871  42.086   0.480
26193W        W91178  44.990  11.933  10.762
26194W        W91179  11.571  12.298   2.516
26195W        W91180  27.619  28.594  14.520
26196W        W91181   6.348  44.432  12.409
26197W        W91182  13.107   5.444   4.035
26198W        W91183  21.923  39.513  10.882
26199W        W91184  20.970   6.549   2.474
26200W        W91185  10.640  43.957  14.876
26201W        W91186  16.526  36.902  10.375
26202W        W91187  16.546  31.693   3.788
26203W        W91188  32.390  42.248   0.705
26204W        W91189  43.934  16.767   1.906
26205W        W91190  31.447  30.871  13.338
26206W        W91191   3.687  23.738   3.042
26207W        W91192  12.254  16.203  10.765
26208W        W91193  16.542  18.720  11.486
26209W        W91194  15.112  31.355  14.893
26210W        W91195  18.647   5.234  12.497
26211W        W91196   0.980  34.952   3.629
26212W        W91197   0.352  12.707  10.401
26213W        W91198   1.760   9.760  11.562
26214W        W91199   4.144   4.685  11.076
26215W        W91200   7.817  30.755  13.860
26216W        W91201   6.320  34.357  14.222
26217W        W91202  30.476  11.587  13.467
26218W        W91203  22.170  32.327  14.370
26219W        W91204   0.287  42.039  14.337
26220W        W91205  33.551  34.124  10.965
26221W        W91206  14.151   9.344   2.674
26222W        W91207   4.477  40.493   0.790
26223W        W91208  16.185  32.061  13.061
26224W        W91209  18.967  22.680   4.095
26225W        W91210   0.883  32.433  11.255
26226W        W91211  17.227  42.890   3.395
26227W        W91212   2.370  44.933   1.489
26228W        W91213  26.259  43.439  11.502
26229W        W91214   2.415  43.151  11.211
26230W        W91215  44.877  11.588   4.444
26231W        W91216  42.255  34.587   3.260
26232W        W91217  13.003  44.487   0.400
26233W        W91218  40.133  36.912  12.487
26234W        W91219   8.862  25.809  13.208
26235W        W91220  34.762  23.728  10.713
26236W        W91221  17.058   1.369  13.000
26237W        W91222  42.909  28.625   2.947
26238W        W91223  13.160  24.449  13.069
26239W        W91224  20.729  38.140   1.287
26240W        W91225  30.652  34.614  14.297
26241W        W91226  31.905   4.633  11.567
26242W        W91227   3.919   0.544   4.188
26243W        W91228  33.619  13.829   1.037
26244W        W91229  17.623  11.415  11.541
26245W        W91230  15.790  41.188   4.519
26246W        W91231  36.171  26.224   0.357
26247W        W91232  35.836  41.587   4.901
26248W        W91233  14.854  25.636   0.766
26249W        W91234  26.850  12.205  11.269
26250W        W91235  43.275   8.689  12.546
26251W        W91236  11.325  10.178   3.739
26252W        W91237  41.286  26.222   9.848
26253W        W91238   8.903  18.018   4.268
26254W        W91239   0.518   9.151   4.256
26255W        W91240   7.549  13.667  11.980
26256W        W91241   7.166  15.037  14.333
26257W        W91242  34.547  15.127  14.336
26258W        W91243   7.697   2.905   3.740
26259W        W91244  25.478  18.030  11.619
26260W        W91245  12.338   1.992  12.246
26261W        W91246  16.402  25.932   3.677
26262W        W91247   5.690  19.681   3.680
26263W        W91248   3.097  13.590   0.458
26264W        W91249  41.325  40.255   2.777
26265W        W91250   4.688   1.450   0.075
26266W        W91251   9.245  13.719  14.754
26267W        W91252  29.719   4.028  12.268
26268W        W91253  19.724  17.241   3.581
26269W        W91254  39.802  15.227  11.081
26270W        W91255   0.763   2.687   0.371
26271W        W91256  30.432  34.001   4.214
26272W        W91257  25.109  16.473   2.493
26273W        W91258  42.797  10.636   0.461
26274W        W91259  12.514   0.486   0.851
26275W        W91260  27.609   9.226   1.515
26276W        W91261  38.231  22.809  14.952
26277W        W91262  28.071   5.877   1.875
26278W        W91263   7.292  27.115  10.758
26279W        W91264  38.545  22.268  12.034
26280W        W91265  32.935  38.102  14.288
26281W        W91266  12.619   3.735   0.423
26282W        W91267   0.693  38.342   4.199
26283W        W91268  12.347   0.354  12.127
26284W        W91269  34.918  42.316   4.193
26285W        W91270   3.817  15.697   2.271
26286W        W91271  16.006  32.927  14.623
26287W        W91272  26.254  43.428   3.862
26288W        W91273  36.075   0.521  13.591
26289W        W91274  32.949  28.524  14.383
26290W        W91275  29.255  20.288   0.215
26291W        W91276  38.053  41.903  12.091
26292W        W91277  18.695  22.766   4.546
26293W        W91278  16.052   1.303  12.930
26294W        W91279  19.709  26.570   3.801
26295W        W91280  25.708  29.429  13.311
26296W        W91281  27.135  40.950   1.839
26297W        W91282  22.935  17.203  12.907
26298W        W91283  24.002  25.386   9.778
26299W        W91284  20.339   9.604  12.174
26300W        W91285  26.978  39.029   2.622
26301W        W91286  40.453  23.456  13.564
26302W        W91287   7.089   2.407   3.186
26303W        W91288  34.370  37.040   3.106
26304W        W91289  36.941  36.023  13.639
26305W        W91290   9.195  44.072   4.972
26306W        W91291  21.224  24.547   2.563
26307W        W91292  13.060  44.401   4.369
26308W        W91293  10.379  31.541   1.316
26309W        W91294  14.149  34.450   3.392
26310W        W91295  23.937   7.034   3.166
26311W        W91296  27.890   3.347   1.787
26312W        W91297   7.801   4.759  13.610
26313W        W91298  22.540  13.632   2.150
26314W        W91299  33.326   8.987  13.840
26315W        W91300   3.341  44.996  13.373
26316W        W91301   3.737  13.608  13.959
26317W        W91302  35.517  41.270   3.073
26318W        W91303   4.747  17.773   2.775
26319W        W91304  11.936  26.548  14.785
26320W        W91305  41.133  30.387   3.813
26321W        W91306  37.487  13.624  12.888
26322W        W91307  24.467  30.330   3.504
26323W        W91308  44.671   0.529   4.247
26324W        W91309  18.458  42.707  10.451
26325W        W91310  15.118   3.419   1.937
26326W        W91311  37.987  32.990  11.400
26327W        W91312  43.811  10.632  10.706
26328W        W91313   3.650  14.681  13.352
26329W        W91314   8.767  12.322   1.999
26330W        W91315  25.332   8.840   2.857
26331W        W91316  26.331  30.343  10.304
26332W        W91317  30.766  41.946   4.170
26333W        W91318  21.571  18.740   0.331
26334W        W91319   5.160  38.920   1.127
26335W        W91320   4.473   6.927   2.429
26336W        W91321  21.615   7.850   2.658
26337W        W91322  21.982  15.274   2.866
26338W        W91323  15.816  38.038  12.572
26339W        W91324  40.267  20.736   4.979
26340W        W91325  44.149  41.382   3.868
26341W        W91326  32.004  38.613   1.461
26342W        W91327  44.810  43.563  10.933
26343W        W91328  42.592   5.350   1.947
26344W        W91329  43.339  13.754  12.933
26345W        W91330  44.998   1.493   0.364
26346W        W91331   0.867  15.534   1.740
26347W        W91332  38.463  14.951   3.266
26348W        W91333  25.659  28.094   0.432
26349W        W91334  10.384  22.818   0.847
26350W        W91335  39.399  34.362   1.335
26351W        W91336  33.020  32.645  11.619
26352W        W91337  41.426  41.048   2.367
26353W        W91338   2.254  15.639   2.055
26354W        W91339  12.803   8.636   2.693
26355W        W91340  36.862   9.349  13.079
26356W        W91341  25.854  42.057  11.569
26357W        W91342  36.830  33.613   2.299
26358W        W91343  19.661  17.870   0.800
26359W        W91344  28.120  25.681  14.447
26360W        W91345  14.285   7.794  14.493
26361W        W91346  19.146  22.691  10.676
26362W        W91347  31.059  14.787  12.097
26363W        W91348   5.804   0.992   4.307
26364W        W91349  37.862  35.939  11.393
26365W        W91350  33.072  18.754  14.948
26366W        W91351  22.464   4.487  14.731
26367W        W91352   1.482  36.722  11.978
26368W        W91353  33.404  26.907  14.004
26369W        W91354  13.092  20.777  12.554
26370W        W91355  10.847  39.941   0.357
26371W        W91356  39.885  21.881  12.116
26372W        W91357  13.688  40.277  12.951
26373W        W91358   7.668   9.367  12.983
26374W        W91359  37.017  39.740   4.072
26375W        W91360  32.919  34.535   0.758
26376W        W91361  44.434  37.016   4.276
26377W        W91362  11.010   8.168  13.783
26378W        W91363  36.165  35.290   1.377
26379W        W91364   5.157   5.462   2.945
26380W        W91365  22.747  22.232  10.230
26381W        W91366   6.145  19.840  12.109
26382W        W91367   9.719  15.592   4.838
26383W        W91368  26.544  35.291  10.597
26384W        W91369  27.540  34.826   1.217
26385W        W91370  43.834   6.797  14.513
26386W        W91371  33.684  18.937   2.695
26387W        W91372   8.362  41.530  11.590
26388W        W91373  23.968   0.918   1.809
26389W        W91374  22.655  24.992   4.187
26390W        W91375  29.129  44.337  12.616
26391W        W91376  36.829  12.825   1.955
26392W        W91377  42.903   5.413   0.457
26393W        W91378  22.311  39.984   2.536
26394W        W91379   7.424  21.537  10.556
26395W        W91380   6.315  34.869  10.756
26396W        W91381  41.836  11.076  11.408
26397W        W91382   9.959  18.575  13.833
26398W        W91383  11.831   1.014  10.555
26399W        W91384   3.327  23.251   2.749
26400W        W91385  18.538  22.758  10.264
26401W        W91386   9.650   0.319   0.205
26402W        W91387  43.523   7.723   3.320
26403W        W91388   1.442  43.968  12.879
26404W        W91389  22.751  34.958   1.386
26405W        W91390   8.836  39.908  13.120
26406W        W91391   9.876   8.339   0.094
26407W        W91392  42.730  43.344   1.209
26408W        W91393   8.934   8.302   2.614
26409W        W91394  13.742  24.756  11.376
26410W        W91395   2.839  41.815   1.096
26411W        W91396   5.167  31.977   3.236
26412W        W91397  27.396  43.319   0.762
26413W        W91398   4.877  29.554  12.370
26414W        W91399  11.447  19.892  13.399
26415W        W91400  22.480  12.760   2.709
26416W        W91401  34.557  31.536  14.471
26417W        W91402  43.183   8.272   2.326
26418W        W91403  17.550  12.166   3.349
26419W        W91404   6.646   1.385  13.985
26420W        W91405  33.898  12.966  11.163
26421W        W91406  25.925  33.926  13.809
26422W        W91407  32.191  11.111   0.264
26423W        W91408  17.317  39.370  10.769
26424W        W91409  29.897  26.720  12.990
26425W        W91410  10.227  38.965   1.629
26426W        W91411  23.146   0.440   4.482
26427W        W91412  29.232   9.243  12.084
26428W        W91413  22.061  14.890   0.518
26429W        W91414  13.689   6.238   2.078
26430W        W91415   1.485   4.286  14.532
26431W        W91416  32.460  22.227   0.303
26432W        W91417  30.700  14.706  10.591
26433W        W91418  20.742  38.433   0.808
26434W        W91419  25.977  19.629  13.816
26435W        W91420   1.127  25.226  13.116
26436W        W91421  42.285   4.720   3.967
26437W        W91422  34.094  15.493   2.285
26438W        W91423   7.597   7.697  13.161
26439W        W91424  26.983  19.219  13.001
26440W        W91425   8.967  43.215  11.134
26441W        W91426  27.265  12.349  11.670
26442W        W91427  21.188  37.287  14.476
26443W        W91428  36.124   1.553  13.333
26444W        W91429  36.587   1.762  11.559
26445W        W91430  23.731   4.824   0.337
26446W        W91431  44.995   1.843  12.465
26447W        W91432  33.728   2.499  13.881
26448W        W91433  31.899  21.546  14.891
26449W        W91434  39.919  15.845  12.026
26450W        W91435   8.626  41.696  14.642
26451W        W91436  25.380  17.200  14.460
26452W        W91437   6.587  14.729  11.639
26453W        W91438  20.502  13.201   5.006
26454W        W91439  25.699   1.398  12.817
26455W        W91440  33.558  30.081   2.773
26456W        W91441  29.804  28.045  11.036
26457W        W91442  43.471  32.849   2.374
26458W        W91443   6.422  19.787  10.534
26459W        W91444  38.728  33.974   3.630
26460W        W91445  31.585  44.340   4.293
26461W        W91446  12.933   1.983   2.775
26462W        W91447   7.983  44.613   1.385
26463W        W91448  41.730   5.686   0.276
26464W        W91449  27.842  23.374  14.745
26465W        W91450  18.363  15.665  10.526
26466W        W91451  30.349  38.901   4.664
26467W        W91452  38.978  15.695   3.218
26468W        W91453   9.302  13.149   4.100
26469W        W91454  29.121  12.587  11.894
26470W        W91455  23.377  34.081   3.684
26471W        W91456  28.931  11.223  10.536
26472W        W91457  26.584  41.039  11.717
26473W        W91458  27.057  15.604   4.690
26474W        W91459  39.021   1.299  14.618
26475W        W91460   4.747   8.891  11.976
26476W        W91461  32.567   3.520   9.956
26477W        W91462  20.048  23.018  11.889
26478W        W91463  33.368  10.195   1.348
26479W        W91464  19.614  34.939  11.332
26480W        W91465  39.261  40.251  12.946
26481W        W91466  11.813  21.264  14.471
26482W        W91467  31.228  19.180   3.563
26483W        W91468  17.815   4.871  14.916
26484W        W91469  20.417  38.598  13.370
26485W        W91470  32.575  44.254  11.071
26486W        W91471  29.735   1.747   2.759
26487W        W91472   9.896  21.259   1.715
26488W        W91473   8.626  12.613  12.868
26489W        W91474   9.829  41.701  13.512
26490W        W91475  26.396   9.661   0.221
26491W        W91476   8.347  36.566  10.638
26492W        W91477  24.379   7.650   5.098
26493W        W91478  31.711  38.695   3.586
26494W        W91479  18.828  29.508  11.964
26495W        W91480  32.939  18.583   1.549
26496W        W91481  35.307  19.616   0.344
26497W        W91482  25.846  40.538   2.702
26498W        W91483  40.372   5.348  13.013
26499W        W91484  40.347  32.640   4.918
26500W        W91485  39.998  36.353  13.613
26501W        W91486  27.058   2.072   4.468
26502W        W91487  44.970   0.541  11.415
26503W        W91488  41.977  15.610  14.958
26504W        W91489   2.695  28.070  13.484
26505W        W91490  24.602  12.717   3.132
26506W        W91491   8.832   1.315  10.749
26507W        W91492  29.006  17.204  13.501
26508W        W91493  37.201   0.849   4.667
26509W        W91494  22.007  15.735  11.695
26510W        W91495  28.460  36.592  11.614
26511W        W91496  41.881  40.851   2.160
26512W        W91497   6.736  18.306   3.562
26513W        W91498  14.085  31.262   1.927
26514W        W91499  13.757   8.644  14.537
26515W        W91500   2.444  33.013   4.317
26516W        W91501  23.228  44.983  12.823
26517W        W91502  40.030   3.798   4.073
26518W        W91503  10.573  37.491  13.253
26519W        W91504  26.901   3.897  14.336
26520W        W91505  41.757  36.924   2.263
26521W        W91506  36.185  40.002   1.331
26522W        W91507  11.136  20.090  12.532
26523W        W91508  13.300   9.343   4.162
26524W        W91509   7.971  36.378  13.966
26525W        W91510  10.669  28.978   3.923
26526W        W91511  36.946  29.942   4.883
26527W        W91512  32.219  30.297   2.357
26528W        W91513  31.911  18.844  13.245
26529W        W91514  33.480   0.520   2.809
26530W        W91515  38.418  43.196   2.119
26531W        W91516  23.744  21.469   2.913
26532W        W91517  41.436  25.335  14.283
26533W        W91518  41.547  40.595  13.853
26534W        W91519  25.586  29.359   3.671
26535W        W91520  28.434  11.408  13.393
26536W        W91521  33.656  19.749   4.134
26537W        W91522  13.623  28.175   0.452
26538W        W91523  21.569  31.522   3.819
26539W        W91524   5.895  37.997   4.099
26540W        W91525  25.621   2.719  12.950
26541W        W91526  31.505  35.803  11.077
26542W        W91527  23.700  17.641  13.169
26543W        W91528  38.716  38.978  14.485
26544W        W91529   1.206  10.241   1.877
26545W        W91530  10.169  39.411   1.909
26546W        W91531   0.297  24.995  11.498
26547W        W91532  22.045  26.139   4.644
26548W        W91533  10.292  34.495  10.329
26549W        W91534  26.135  19.143  13.949
26550W        W91535  28.877   3.935  12.452
26551W        W91536  36.832  19.529   1.474
26552W        W91537  22.004   5.477   2.879
26553W        W91538  40.322  11.849   3.425
26554W        W91539  31.883   3.312  14.668
26555W        W91540  38.039  13.205  10.727
26556W        W91541  25.995  10.779   4.114
26557W        W91542  10.095  12.460   1.775
26558W        W91543  31.527  37.778  11.998
26559W        W91544  28.640  30.048   0.665
26560W        W91545  31.872  41.822  11.771
26561W        W91546  28.617  27.432  12.399
26562W        W91547  39.930   0.301   2.977
26563W        W91548  37.995  13.289   1.312
26564W        W91549  30.191  32.183   0.417
26565W        W91550  36.355   3.020   0.317
26566W        W91551  32.563  40.779   2.263
26567W        W91552  34.448  42.779   0.020
26568W        W91553  24.633  33.137  11.138
26569W        W91554  42.229  38.959  11.956
26570W        W91555  28.585   0.808  10.324
26571W        W91556   2.011  26.599  12.518
26572W        W91557  14.897  43.993   3.194
26573W        W91558  27.973  16.683   4.841
26574W        W91559  34.902  28.375  13.907
26575W        W91560   0.102   9.075   0.836
26576W        W91561  21.267  23.797  14.349
26577W        W91562  28.064   2.095   1.532
26578W        W91563  31.984  40.952   0.004
26579W        W91564   6.287  20.766   3.775
26580W        W91565  40.167  10.676  12.035
26581W        W91566   5.224   4.819   3.121
26582W        W91567  22.642  29.530  12.611
26583W        W91568  12.797  34.602   3.676
26584W        W91569  40.050  15.975   2.681
26585W        W91570   3.676  39.317  11.418
26586W        W91571  16.691   6.713  14.928
26587W        W91572  28.350  27.905  14.119
26588W        W91573  16.453  44.669  10.178
26589W        W91574  20.228  17.281   3.744
26590W        W91575   9.831  29.294  12.846
26591W        W91576  23.776  29.978  11.684
26592W        W91577  37.803   0.455  12.409
26593W        W91578  31.835  22.386   1.797
26594W        W91579  23.636  10.050   3.576
26595W        W91580  24.643  31.174   2.282
26596W        W91581  24.407   9.866  11.676
26597W        W91582  19.856   6.665   0.826
26598W        W91583  32.969  31.926  13.018
26599W        W91584  22.260  11.911   2.670
26600W        W91585  35.380  25.110   0.281
26601W        W91586   0.706   1.328   2.451
26602W        W91587  16.942  12.211   0.232
26603W        W91588   8.724  41.310  11.974
26604W        W91589   0.118  38.883  12.928
26605W        W91590   7.196  12.305   2.291
26606W        W91591  31.091  14.004   2.366
26607W        W91592  21.016  23.537  11.721
26608W        W91593  13.091  15.655  13.991
26609W        W91594  11.350   7.607  11.614
26610W        W91595  30.056  14.146   0.865
26611W        W91596   7.335  35.545  13.126
26612W        W91597  21.178  21.697  11.576
26613W        W91598  17.196  26.614   2.469
26614W        W91599  38.864   3.419  13.287
26615W        W91600  39.293  23.528  11.398
26616W        W91601  19.163  44.937  10.632
26617W        W91602  25.764  19.165  13.590
26618W        W91603   5.363  14.979   0.490
26619W        W91604   7.243   2.803   2.796
26620W        W91605  14.062  30.208   4.157
26621W        W91606  29.009   6.468   3.566
26622W        W91607  11.420  21.504  14.699
26623W        W91608  22.822  32.350  11.376
26624W        W91609   2.719  11.939   0.934
26625W        W91610  21.972  24.605  11.629
26626W        W91611   5.342  36.674   4.671
26627W        W91612  37.248  33.828   0.128
26628W        W91613  34.328  19.787   1.735
26629W        W91614   2.289  27.991   1.277
26630W        W91615  19.470  41.253   3.805
26631W        W91616  28.872  14.101   4.898
26632W        W91617  42.520  32.992  14.829
26633W        W91618  44.871   1.724  10.356
26634W        W91619  11.369  43.005   2.760
26635W        W91620  32.036  36.452   0.810
26636W        W91621  24.571  40.782  10.717
26637W        W91622  13.310  41.352  11.689
26638W        W91623  24.456  42.625   1.292
26639W        W91624  22.204  24.616  14.116
26640W        W91625  29.494  23.623  10.839
26641W        W91626  24.279  23.713  11.666
26642W        W91627  38.189  33.524   2.807
26643W        W91628  43.369  21.709   1.697
26644W        W91629  23.748  31.071   4.581
26645W        W91630  27.645  42.306  13.365
26646W        W91631   9.661  28.012  13.973
26647W        W91632  41.474  35.671   4.411
26648W        W91633   8.416  34.697   2.926
26649W        W91634  11.888  27.981   3.856
26650W        W91635  16.873   4.672  12.073
26651W        W91636  30.488  38.406  13.100
26652W        W91637  38.346  17.131   5.206
26653W        W91638  12.967  12.693  11.298
26654W        W91639  21.743  11.218   1.876
26655W        W91640   2.903   7.193  10.468
26656W        W91641  35.932  29.939   4.281
26657W        W91642   8.059   7.386   1.423
26658W        W91643  28.917   7.766   3.202
26659W        W91644  38.842   0.332  12.164
26660W        W91645  10.727   1.222   4.253
26661W        W91646  23.634  21.211  12.713
26662W        W91647  44.766  37.603   4.411
26663W        W91648   9.491  22.259   3.738
26664W        W91649   3.705  35.390   0.210
26665W        W91650  41.419  26.995  12.447
26666W        W91651   6.477  20.640  11.551
26667W        W91652  36.433  38.752   0.716
26668W        W91653  18.591   9.200  14.547
26669W        W91654  26.059   9.117  14.054
26670W        W91655   1.355   9.709  13.625
26671W        W91656  34.651  13.345  14.856
26672W        W91657  38.962  16.313  11.151
26673W        W91658  37.415  29.546  10.529
26674W        W91659  20.728  24.579   2.799
26675W        W91660  38.964   6.784   0.430
26676W        W91661   4.097   9.955   3.301
26677W        W91662  30.150   0.422   4.563
26678W        W91663  39.328  10.204   4.015
26679W        W91664  35.042   8.386  12.613
26680W        W91665  15.484  23.547  11.912
26681W        W91666   7.272  28.688  11.690
26682W        W91667  12.158  19.431   4.402
26683W        W91668  43.322  41.106   2.031
26684W        W91669  26.960  38.366  14.954
26685W        W91670  14.379  34.068  13.857
26686W        W91671  44.387  26.151  10.769
26687W        W91672   0.898  44.564  11.556
26688W        W91673  42.886  14.125  13.295
26689W        W91674  25.064  37.384   3.403
26690W        W91675  23.682  37.463   1.942
26691W        W91676  41.851  20.578   4.281
26692W        W91677   6.689   1.330  14.990
26693W        W91678  16.718   5.144   0.799
26694W        W91679  34.122  14.283   1.624
26695W        W91680  38.752  30.330   1.708
26696W        W91681  23.553   6.707  14.260
26697W        W91682  43.882  10.619  13.444
26698W        W91683  31.326  25.472   1.021
26699W        W91684   4.885  43.829  11.685
26700W        W91685  44.527  25.912  13.453
26701W        W91686  39.977  42.747  11.429
26702W        W91687  24.546   7.381   4.681
26703W        W91688  35.525  18.337  14.592
26704W        W91689  42.931  24.191   3.643
26705W        W91690  26.143  34.007   3.054
26706W        W91691  33.542  16.128  10.865
26707W        W91692  36.102  19.540  11.009
26708W        W91693  12.299  26.581  10.245
26709W        W91694  17.229  37.853   0.933
26710W        W91695  20.694   3.962  12.123
26711W        W91696  15.310  20.238   2.158
26712W        W91697   2.963  28.752   2.976
26713W        W91698   9.994  37.062  13.041
26714W        W91699  40.088  26.173   1.961
26715W        W91700  12.245   7.221   4.955
26716W        W91701  34.600  11.640  11.148
26717W        W91702  22.705  38.490  14.965
26718W        W91703   2.482  21.540  10.709
26719W        W91704  28.335  19.297   4.831
26720W        W91705  13.554   1.832   3.850
26721W        W91706   7.159  38.484   3.455
26722W        W91707  30.689  19.531  13.365
26723W        W91708  16.600  37.891  14.385
26724W        W91709  32.843  25.999  11.202
26725W        W91710  26.461  15.970  11.870
26726W        W91711  32.915  23.546   3.258
26727W        W91712   3.709  10.926   1.337
26728W        W91713  27.622  34.889  10.938
26729W        W91714   3.847   2.923   0.240
26730W        W91715  30.885  10.083   2.627
26731W        W91716   6.310  37.284   4.146
26732W        W91717  12.387  43.576  12.541
26733W        W91718  43.406  26.212   4.248
26734W        W91719  30.891  20.206   1.899
26735W        W91720   3.201  39.521  11.268
26736W        W91721  36.476  32.489  10.531
26737W        W91722  28.272   4.720  13.530
26738W        W91723  27.807  21.692   9.757
26739W        W91724   8.217  17.895   2.299
26740W        W91725  31.873  13.638  12.146
26741W        W91726   9.132  32.635  12.960
26742W        W91727  30.923   3.791   2.687
26743W        W91728  17.313  37.579  11.196
26744W        W91729   6.467  18.946   2.014
26745W        W91730  37.368  43.044  11.234
26746W        W91731  25.049   8.545   3.613
26747W        W91732  37.373  31.127   1.681
26748W        W91733  24.208  30.691  11.813
26749W        W91734  22.190  39.309   0.719
26750W        W91735   2.350   0.043   4.242
26751W        W91736  18.481  14.471  13.451
26752W        W91737  14.257  10.006   0.705
26753W        W91738  21.778  34.837   1.334
26754W        W91739  34.118  17.597  14.939
26755W        W91740  26.991  37.595  11.296
26756W        W91741  30.995   9.158  13.951
26757W        W91742  24.600  42.747  13.080
26758W        W91743  25.411  23.997  11.373
26759W        W91744  41.601  31.925  14.921
26760W        W91745  35.674  44.462  13.744
26761W        W91746  17.374  42.515   2.103
26762W        W91747  39.157  43.630   1.879
26763W        W91748  27.939   8.344   3.722
26764W        W91749  10.227   2.398  14.326
26765W        W91750  30.316  34.636   2.779
26766W        W91751  42.541  10.158  14.443
26767W        W91752  30.334  19.058   2.783
26768W        W91753  43.768  21.012   2.299
26769W        W91754   8.002  29.634   3.936
26770W        W91755  13.819  12.437   1.886
26771W        W91756   0.952  13.223   1.028
26772W        W91757   2.669  36.064   3.723
26773W        W91758  13.291  28.451   3.250
26774W        W91759  43.945  42.882  13.980
26775W        W91760  39.468   4.771  12.457
26776W        W91761  33.438  27.915  12.456
26777W        W91762  33.916  14.120   2.417
26778W        W91763  35.292  21.527  14.000
26779W        W91764  24.521  30.652   0.489
26780W        W91765  17.775  39.152  14.877
26781W        W91766  10.752  26.477  14.940
26782W        W91767  29.585  29.843  12.081
26783W        W91768  14.208  40.267  13.140
26784W        W91769  31.432  25.578   4.289
26785W        W91770  35.662  34.890   4.042
26786W        W91771  12.261  44.795  14.349
26787W        W91772  38.032  15.558   1.828
26788W        W91773   0.335  42.828  13.871
26789W        W91774  25.297  15.251  10.520
26790W        W91775  21.281  31.346   1.741
26791W        W91776  13.149  17.275  14.601
26792W        W91777  18.162  19.718   2.176
26793W        W91778   4.650  41.956   1.240
26794W        W91779  22.266  34.978   1.236
26795W        W91780  33.652  30.103   0.281
26796W        W91781  37.391  30.144   4.190
26797W        W91782  28.918   9.981  11.073
26798W        W91783  39.827  39.587   4.075
26799W        W91784   6.253  34.621  10.275
26800W        W91785  14.767  35.047  10.688
26801W        W91786  20.887  28.723   2.644
26802W        W91787  15.681  33.620   1.495
26803W        W91788  36.166  26.660   2.161
26804W        W91789  27.645  21.299   0.938
26805W        W91790  24.819   0.856   3.330
26806W        W91791  19.533  40.913  13.560
26807W        W91792  38.831   0.929   1.024
26808W        W91793  35.362  19.720  12.941
26809W        W91794   8.922  12.134  14.366
26810W        W91795  38.884  11.388   4.337
26811W        W91796  19.300  13.885   3.194
26812W        W91797  32.969   3.953  13.466
26813W        W91798   6.705  11.869  10.492
26814W        W91799  38.553  18.739   2.174
26815W        W91800  19.093  11.595  14.918
26816W        W91801  27.043  35.425  10.653
26817W        W91802  20.392  31.387   1.494
26818W        W91803  38.988  11.548   0.566
26819W        W91804  43.826  20.058   5.534
26820W        W91805  30.711   1.425   5.535
26821W        W91806  13.067  37.803   3.798
26822W        W91807  19.449  26.537   2.925
26823W        W91808   7.947  33.005  10.555
26824W        W91809  43.369  36.608  14.948
26825W        W91810  28.922  16.628   0.231
26826W        W91811   9.774  44.815  11.664
26827W        W91812  10.819  36.937  14.446
26828W        W91813   2.486  27.666  10.736
26829W        W91814  28.646  22.194  12.381
26830W        W91815  29.560  35.702   4.345
26831W        W91816  21.316   1.867   1.843
26832W        W91817  24.100  32.471  14.209
26833W        W91818  16.009  25.196   2.444
26834W        W91819  16.802  13.364  12.062
26835W        W91820  24.025   3.972  13.207
26836W        W91821   6.183  38.313   2.073
26837W        W91822  14.772  44.482  14.100
26838W        W91823  10.218   9.280   0.723
26839W        W91824  16.763  16.832   1.231
26840W        W91825  38.169  24.926   2.821
26841W        W91826  25.695   0.234  12.901
26842W        W91827  30.898  20.410   4.020
26843W        W91828  30.623  15.104   2.919
26844W        W91829  28.873  16.134   1.894
26845W        W91830   1.762  38.644   3.024
26846W        W91831  23.104  22.149  11.562
26847W        W91832  35.202  22.419   2.392
26848W        W91833  11.237  42.396   3.571
26849W        W91834  12.274  29.638  12.027
26850W        W91835  29.135  18.158  13.872
26851W        W91836  26.427  17.126  14.494
26852W        W91837  18.632  11.759   3.739
26853W        W91838   9.628  18.421   1.779
26854W        W91839  26.698  16.717  14.323
26855W        W91840  42.513  39.499  12.410
26856W        W91841  15.584  39.648   2.692
26857W        W91842  28.785   0.331  11.969
26858W        W91843   6.353  25.471  13.443
26859W        W91844  32.566  19.159  11.600
26860W        W91845  32.448   4.665   1.029
26861W        W91846  18.095  32.955   4.170
26862W        W91847  22.963  11.231  11.067
26863W        W91848  21.051   0.687  10.586
26864W        W91849  35.574   4.233  10.856
26865W        W91850  38.521  12.096  12.061
26866W        W91851  41.898  36.833   0.931
26867W        W91852  41.431  16.943  13.373
26868W        W91853  43.034   3.742  13.842
26869W        W91854  43.785  14.119   1.908
26870W        W91855  18.958  15.704   3.039
26871W        W91856  41.333   6.710   0.386
26872W        W91857   9.735  20.094  10.340
26873W        W91858   9.641  19.131  13.644
26874W        W91859   8.933   8.894   3.836
26875W        W91860  43.754  37.480  14.788
26876W        W91861  30.736   6.924   1.306
26877W        W91862  40.050  32.670   2.346
26878W        W91863  43.986  24.097   2.334
26879W        W91864   6.250  33.116  14.639
26880W        W91865  37.554   5.858   3.182
26881W        W91866  30.859  12.840   2.439
26882W        W91867   8.733   6.774   4.477
26883W        W91868  21.006  42.880   4.514
26884W        W91869  42.349   6.099   3.573
26885W        W91870  13.544   5.403   1.982
26886W        W91871   4.359  20.629  10.676
26887W        W91872   0.880  25.446   3.302
26888W        W91873   9.374  38.561  14.535
26889W        W91874   6.672  12.800  14.463
26890W        W91875   7.384  10.295   3.224
26891W        W91876  43.420   8.344   1.194
26892W        W91877  23.148  36.625  14.365
26893W        W91878  37.528  19.233  11.874
26894W        W91879  29.075  20.680   3.608
26895W        W91880  31.060  14.530   3.684
26896W        W91881  11.860   9.590   4.840
26897W        W91882   0.419  28.522   1.200
26898W        W91883  28.381  15.402   4.517
26899W        W91884   0.378  24.044  14.838
26900W        W91885  25.006  20.337   2.944
26901W        W91886   0.754  31.031  11.167
26902W        W91887  34.211  25.762   1.005
26903W        W91888  30.646  24.083   1.179
26904W        W91889  22.721  11.482  13.864
26905W        W91890  44.265  25.444  12.470
26906W        W91891   5.918   3.040   3.230
26907W        W91892  41.898   8.344   0.101
26908W        W91893   9.774   8.903  10.663
26909W        W91894  44.904  26.700   0.971
26910W        W91895  28.271   5.656  11.452
26911W        W91896  31.077  41.989   3.708
26912W        W91897  39.013  25.013   1.254
26913W        W91898  24.413  24.976   1.707
26914W        W91899  41.930  28.487  13.044
26915W        W91900  34.918  23.105  11.410
26916W        W91901  30.023   5.636   1.740
26917W        W91902  41.796  29.010   0.738
26918W        W91903  39.341  31.310   2.282
26919W        W91904  12.367  26.967   2.320
26920W        W91905  37.495  40.294   0.358
26921W        W91906   4.821  14.382   4.657
26922W        W91907   9.187  27.229   3.686
26923W        W91908  33.775  37.359   3.653
26924W        W91909   2.819  11.101   4.365
26925W        W91910  37.049   2.221   4.710
26926W        W91911  11.257  43.799   1.454
26927W        W91912  18.524   1.011   4.926
26928W        W91913   9.305  12.771   4.456
26929W        W91914  12.770  17.099  14.293
26930W        W91915  38.330  22.625   1.848
26931W        W91916   6.286   4.413   1.919
26932W        W91917  20.866   4.903   4.908
26933W        W91918  30.499  25.657   2.760
26934W        W91919   4.032  38.871   1.221
26935W        W91920   5.987   3.101  12.436
26936W        W91921   9.647  43.044   2.020
26937W        W91922  27.654   4.743   1.233
26938W        W91923  32.053  11.404  12.050
26939W        W91924   0.466  29.961   3.525
26940W        W91925  37.676  13.304  11.083
26941W        W91926  40.846  25.411  11.701
26942W        W91927  10.281  21.828  11.042
26943W        W91928  10.665  23.636   1.500
26944W        W91929  30.813  18.731  13.960
26945W        W91930  35.297  16.085  11.067
26946W        W91931  43.883   7.173   3.299
26947W        W91932  25.880  29.876  13.013
26948W        W91933  12.394  12.797   4.146
26949W        W91934  30.360  40.950   1.895
26950W        W91935  16.836  12.781   1.386
26951W        W91936  40.382  36.592  12.157
26952W        W91937   1.901  40.432  10.531
26953W        W91938  28.080  42.019  13.379
26954W        W91939   9.220  27.584   1.186
26955W        W91940  30.460   9.408  13.962
26956W        W91941  15.889  25.082  11.494
26957W        W91942   6.176  10.566   3.265
26958W        W91943  37.548  19.005   2.287
26959W        W91944   1.941  24.873   0.300
26960W        W91945   3.316  21.403  11.241
26961W        W91946   1.181  14.281   2.468
26962W        W91947  15.869   9.721  12.479
26963W        W91948  26.967  32.990   3.388
26964W        W91949   9.680   4.614   3.769
26965W        W91950  20.814  15.058   1.755
26966W        W91951  34.570  26.170   2.697
26967W        W91952   5.913  19.836   4.193
26968W        W91953  41.473   8.484   1.844
26969W        W91954  36.665  10.640  10.751
26970W        W91955  27.535  10.648  10.686
26971W        W91956  16.544  29.437   0.028
26972W        W91957   6.114  34.574   4.641
26973W        W91958  30.672   6.557  11.136
26974W        W91959  42.855  33.596   0.325
26975W        W91960   7.461  39.422   2.168
26976W        W91961  41.966  41.459   4.636
26977W        W91962  12.285   3.149  13.007
26978W        W91963   4.524  42.512   0.133
26979W        W91964  43.729  23.405  10.709
26980W        W91965   2.991   7.884  14.891
26981W        W91966  25.576  29.912   2.772
26982W        W91967   0.891  32.565   1.323
26983W        W91968  32.659  43.960  11.480
26984W        W91969  44.386  26.516   4.203
26985W        W91970  14.845  30.973  14.033
26986W        W91971  37.363  35.426  10.221
26987W        W91972  41.618  42.447  11.601
26988W        W91973  11.331  30.483  12.507
26989W        W91974  15.852   3.770  14.419
26990W        W91975  10.870  20.988  12.918
26991W        W91976  42.060  20.130   0.756
26992W        W91977   0.335   9.259   4.840
26993W        W91978   8.908   4.728  14.952
26994W        W91979   0.076  37.212   1.679
26995W        W91980   4.833   3.902   3.645
26996W        W91981   0.393  26.867   0.806
26997W        W91982  41.999  11.935   4.016
26998W        W91983  39.135   7.383  13.759
26999W        W91984   0.324  12.227  13.060
27000W        W91985  17.408  40.565   1.344
27001W        W91986   4.234  30.950  12.863
27002W        W91987  20.121   8.093  13.067
27003W        W91988   1.778   0.850  14.361
27004W        W91989   5.192  33.438   2.132
27005W        W91990  27.466  12.872   0.442
27006W        W91991   9.204  13.907   4.867
27007W        W91992  27.019  43.241  14.254
27008W        W91993  33.533  11.585   0.056
27009W        W91994  43.826   7.638   1.179
27010W        W91995  26.547  28.985  11.598
27011W        W91996  20.131  13.278   1.727
27012W        W91997  20.787  27.746   5.151
27013W        W91998  24.228  18.111   1.856
27014W        W91999   9.812  33.361   1.433
27015W        W92000  37.479  11.198   3.662
27016W        W92001  19.248  24.163   1.335
27017W        W92002  20.956  36.195   0.574
27018W        W92003  16.691  15.051   1.855
27019W        W92004  42.638  33.805  11.986
27020W        W92005  18.698   9.140   4.116
27021W        W92006  11.333  40.022   0.795
27022W        W92007  25.869  43.046   4.552
27023W        W92008   3.332  41.310   4.960
27024W        W92009   9.970  29.511   0.891
27025W        W92010  20.636   1.195  11.201
27026W        W92011   8.773  21.347   3.737
27027W        W92012  28.133  30.989   2.171
27028W        W92013  19.303  12.610   1.780
27029W        W92014  12.784  25.506   1.732
27030W        W92015   4.295  35.067   2.595
27031W        W92016  41.641   1.744  11.045
27032W        W92017  22.894  37.469  10.722
27033W        W92018  44.663  28.494  10.150
27034W        W92019   8.423  30.941  12.224
27035W        W92020  15.632  28.696   1.237
27036W        W92021   6.232  42.831  11.907
27037W        W92022  10.870   4.839   3.670
27038W        W92023  37.021  27.959  13.293
27039W        W92024  25.730  33.409   1.290
27040W        W92025   2.564   3.431   3.678
27041W        W92026   7.511  18.080   2.853
27042W        W92027  29.495   6.356   0.289
27043W        W92028  13.356  24.187   0.369
27044W        W92029  20.085  12.371   1.315
27045W        W92030  28.109  25.461   1.840
27046W        W92031  36.761  28.799   3.970
27047W        W92032  28.150  14.095  12.895
27048W        W92033  24.088  31.644  14.572
27049W        W92034   6.149  44.487  11.525
27050W        W92035  16.798  34.353  10.622
27051W        W92036   7.137  17.058   3.427
27052W        W92037  43.414   3.424   0.706
27053W        W92038  40.811   4.848  14.802
27054W        W92039  27.780   4.719  13.309
27055W        W92040  20.039  40.940  13.498
27056W        W92041  18.078  13.245   0.479
27057W        W92042  42.252  22.127   1.973
27058W        W92043   6.960  13.621  12.805
27059W        W92044   7.200  44.581  12.472
27060W        W92045  30.537  39.090   1.552
27061W        W92046  34.855  24.480   2.317
27062W        W92047  43.534  37.959   0.325
27063W        W92048   7.793  12.890   5.136
27064W        W92049  36.165  30.917  11.160
27065W        W92050  18.887  15.882   4.015
27066W        W92051  34.970  24.806   0.208
27067W        W92052  33.912   1.694   3.386
27068W        W92053  30.021  20.720   0.757
27069W        W92054  40.340  37.387   3.583
27070W        W92055  24.122  26.175  12.723
27071W        W92056   3.606   0.500   3.168
27072W        W92057  31.583  38.273  14.557
27073W        W92058  20.004  15.953  11.988
27074W        W92059  25.810  28.202  14.960
27075W        W92060   5.804  20.231  12.072
27076W        W92061  27.344  10.326  11.983
27077W        W92062  17.145  42.032   2.805
27078W        W92063  14.389   5.704   0.327
27079W        W92064  43.222  13.513  14.866
27080W        W92065  29.881  20.628   2.683
27081W        W92066  23.469  16.197   1.726
27082W        W92067  21.479   4.972  13.121
27083W        W92068  39.483  16.187   0.082
27084W        W92069  17.363  20.256   0.390
27085W        W92070  11.925  36.466   4.059
27086W        W92071  35.482  12.847  12.636
27087W        W92072  13.839  40.251   3.356
27088W        W92073  15.152   0.052   0.726
27089W        W92074  26.728   4.933   4.167
27090W        W92075  43.722   7.700   0.547
27091W        W92076  27.075  38.869   3.103
27092W        W92077   5.361  35.773  12.416
27093W        W92078  30.093   3.404   4.604
27094W        W92079   2.018  14.551   2.100
27095W        W92080  23.265   0.534  11.147
27096W        W92081  13.637  11.305   2.678
27097W        W92082  36.795  24.137  13.881
27098W        W92083  41.905   3.440  14.805
27099W        W92084  41.077  26.528  10.225
27100W        W92085  10.276  14.084  14.207
27101W        W92086   0.139  35.406   1.147
27102W        W92087  34.485  24.448   3.156
27103W        W92088  14.649  34.038   2.166
27104W        W92089  27.470  19.209   2.363
27105W        W92090  12.151  21.090   4.775
27106W        W92091  42.805   6.864   0.270
27107W        W92092  36.062  34.905  11.920
27108W        W92093  41.102  22.624   2.237
27109W        W92094  33.724   2.944  10.529
27110W        W92095   6.527   6.798   3.160
27111W        W92096  41.868  27.415  12.815
27112W        W92097  20.067  29.637  14.844
27113W        W92098   5.588   2.283   0.851
27114W        W92099  43.234  22.132   0.134
27115W        W92100  37.147  14.037   4.984
27116W        W92101  14.185  19.793   3.791
27117W        W92102  37.474   1.009   2.282
27118W        W92103  15.920   3.600   4.253
27119W        W92104  22.641  16.234   4.770
27120W        W92105   7.337  14.826   4.069
27121W        W92106  36.729  42.386  14.118
27122W        W92107  28.692  21.578  11.657
27123W        W92108   5.641  34.650  13.994
27124W        W92109  41.453  20.250   3.159
27125W        W92110  20.573   9.882  13.030
27126W        W92111  16.077  26.647  12.539
27127W        W92112  42.528  17.028  14.647
27128W        W92113  24.524  44.899  12.481
27129W        W92114  13.226   9.824   3.352
27130W        W92115  21.623  37.995  10.721
27131W        W92116  12.540  16.648  13.436
27132W        W92117  17.148  24.781  10.829
27133W        W92118  15.372   7.627   3.108
27134W        W92119  35.926  39.312  14.035
27135W        W92120  29.812  33.380  13.141
27136W        W92121  20.032   1.410  11.787
27137W        W92122  14.864  14.249   1.583
27138W        W92123  26.154  28.912   4.078
27139W        W92124  25.779  12.846  12.462
27140W        W92125   3.571  24.057   4.509
27141W        W92126  29.442  26.528   0.000
27142W        W92127  23.517  25.694   3.710
27143W        W92128   1.183  30.349  14.303
27144W        W92129  15.167  21.672  11.247
27145W        W92130  39.417  44.834  12.404
27146W        W92131   2.300  24.790  10.585
27147W        W92132  19.531  44.750   2.788
27148W        W92133   2.441   9.881  14.399
27149W        W92134  22.764  14.744  12.588
27150W        W92135  14.437  40.030   1.214
27151W        W92136  32.332  20.966   0.563
27152W        W92137  34.979  29.901   4.622
27153W        W92138  33.167  41.459   4.185
27154W        W92139  14.279  33.539  14.847
27155W        W92140  41.484  36.780  12.573
27156W        W92141  44.885  32.629   1.272
27157W        W92142   7.897   1.958   3.824
27158W        W92143  38.368  25.446  11.895
27159W        W92144  41.501  19.769   1.304
27160W        W92145  18.639  15.693   0.270
27161W        W92146   9.122  40.851  14.315
27162W        W92147  11.749  32.698   0.773
27163W        W92148  20.430   3.665  14.377
27164W        W92149  11.944  35.013  10.923
27165W        W92150  38.928  20.454  14.258
27166W        W92151   5.672   1.674   0.299
27167W        W92152  32.552  22.694   0.536
27168W        W92153  41.868   2.657  12.901
27169W        W92154  35.552   5.225   3.618
27170W        W92155   4.475  35.994   3.241
27171W        W92156  16.365   5.942   1.324
27172W        W92157  18.955  22.384   4.765
27173W        W92158  11.073  44.785   1.169
27174W        W92159  20.458  31.927   0.939
27175W        W92160  36.298  34.073   1.679
27176W        W92161  27.647  39.220   3.301
27177W        W92162  38.107  44.577  12.588
27178W        W92163   6.766  26.988   1.324
27179W        W92164   4.662  25.139  11.490
27180W        W92165   6.438   9.853   1.778
27181W        W92166  12.961  30.588  12.611
27182W        W92167  44.537  25.086   1.382
27183W        W92168  39.500  12.156   3.673
27184W        W92169  32.833  11.318   1.463
27185W        W92170   8.182   7.976  10.748
27186W        W92171  31.073   3.865  12.569
27187W        W92172  42.802  37.598  13.371
27188W        W92173  27.886   4.878  14.418
27189W        W92174   8.987  10.303  14.211
27190W        W92175   2.363  42.002   1.033
27191W        W92176   0.064  23.142  11.883
27192W        W92177  40.661   4.705  12.501
27193W        W92178   0.258  39.857  10.572
27194W        W92179  32.657  33.481  11.372
27195W        W92180  15.712   0.732   1.004
27196W        W92181  10.737  22.463   4.306
27197W        W92182   8.730   3.706  14.944
27198W        W92183  26.836  17.229  12.160
27199W        W92184   8.742  25.439   2.257
27200W        W92185  19.189  31.243   4.088
27201W        W92186  17.236   0.575   4.173
27202W        W92187   5.808  32.932  12.525
27203W        W92188  42.528   8.827  10.844
27204W        W92189  16.131  18.234   1.976
27205W        W92190  26.936   3.175   1.451
27206W        W92191  43.036   8.828   0.950
27207W        W92192  18.830   9.737  10.474
27208W        W92193  33.911   6.253   3.756
27209W        W92194  25.922  13.565   4.637
27210W        W92195  30.179   0.992  14.380
27211W        W92196  33.665   2.312   0.903
27212W        W92197  20.776  18.021   4.056
27213W        W92198  24.972   2.709   4.994
27214W        W92199  39.587  24.605   3.746
27215W        W92200  23.318  18.279   5.073
27216W        W92201  18.172  11.614  11.591
27217W        W92202  19.393  23.750   4.058
27218W        W92203  29.624  15.751  10.375
27219W        W92204  16.077  19.350  12.980
27220W        W92205  29.037  27.706  13.269
27221W        W92206  33.575  44.822  14.706
27222W        W92207  23.606  39.821  10.766
27223W        W92208  29.103  17.223  10.589
27224W        W92209  12.267  36.846  13.372
27225W        W92210   3.826  34.348  13.752
27226W        W92211  20.839   7.397   2.937
27227W        W92212  12.155  30.503  12.386
27228W        W92213   1.455   6.797   0.630
27229W        W92214  27.037   7.314   2.897
27230W        W92215  39.128  10.799  12.996
27231W        W92216   1.697  34.788   1.805
27232W        W92217  13.997   4.124   3.054
27233W        W92218  14.653  28.358   1.692
27234W        W92219  27.935   0.086  14.207
27235W        W92220  27.232  27.963   3.088
27236W        W92221  25.602   9.890   4.275
27237W        W92222  32.050  10.666   1.452
27238W        W92223  19.610   0.290  11.340
27239W        W92224   1.042  30.656   4.073
27240W        W92225   7.297  11.068  12.031
27241W        W92226  41.539  31.385  13.579
27242W        W92227  34.613  29.987   1.450
27243W        W92228  17.695  35.790   1.268
27244W        W92229  32.175  36.446   0.292
27245W        W92230  41.944  37.909  14.282
27246W        W92231  13.100  19.989  13.068
27247W        W92232   3.788  16.990   2.760
27248W        W92233   7.230   0.327   2.320
27249W        W92234  26.409  36.881   3.688
27250W        W92235  27.947  36.102   1.435
27251W        W92236  31.644  18.281  11.982
27252W        W92237  16.779  17.217  10.732
27253W        W92238  12.355  31.147   3.595
27254W        W92239  44.532  24.114  10.745
27255W        W92240  16.319  35.636  12.601
27256W        W92241  17.012  32.300   5.197
27257W        W92242  42.886  32.563   1.213
27258W        W92243  18.590  32.225   2.057
27259W        W92244  25.535   3.907  14.249
27260W        W92245  18.345  12.860   4.197
27261W        W92246  14.353  16.664  12.527
27262W        W92247  44.738   0.573   1.493
27263W        W92248  38.537  26.907  11.670
27264W        W92249  43.944   5.309   3.643
27265W        W92250  16.346  31.052   2.212
27266W        W92251   8.698  34.823   3.326
27267W        W92252  25.033  43.012   4.785
27268W        W92253  41.405   8.399  11.942
27269W        W92254  40.972  34.110   3.729
27270W        W92255  21.102  13.348  11.122
27271W        W92256   4.352  26.267   1.682
27272W        W92257  32.131  24.971   2.926
27273W        W92258  34.063  17.208  14.154
27274W        W92259  22.159  23.647   1.408
27275W        W92260   5.793  16.248  10.430
27276W        W92261  34.163  21.545  14.544
27277W        W92262  31.041  24.881  11.653
27278W        W92263   0.405  41.522  12.869
27279W        W92264  34.395   8.800   3.981
27280W        W92265  13.113  33.102  13.412
27281W        W92266  30.183  37.888  12.884
27282W        W92267  40.367  23.384  13.065
27283W        W92268   5.607  28.532   2.436
27284W        W92269   6.687  23.991  11.234
27285W        W92270  38.814  35.685  13.026
27286W        W92271  42.793  41.714   2.782
27287W        W92272  13.235   9.100   2.178
27288W        W92273  36.198  28.679   3.700
27289W        W92274  35.711   5.958  14.774
27290W        W92275   1.304  44.018  10.673
27291W        W92276   7.363  37.669   1.787
27292W        W92277  42.277  29.657  14.040
27293W        W92278  38.432  30.110  14.063
27294W        W92279   9.705  33.102   2.975
27295W        W92280  40.035  16.656  12.952
27296W        W92281  43.463   0.875  10.683
27297W        W92282   1.747  34.449  14.474
27298W        W92283   7.127  36.524   4.279
27299W        W92284  25.283   1.448  13.174
27300W        W92285  26.704  38.031  13.806
27301W        W92286  26.248   5.471  10.626
27302W        W92287  22.867  22.944  14.419
27303W        W92288  14.966  42.919  12.963
27304W        W92289  41.873   7.947   4.293
27305W        W92290   3.318  26.722   0.917
27306W        W92291  18.254   5.748   1.428
27307W        W92292  36.074  17.733   1.154
27308W        W92293  41.318  39.961  13.054
27309W        W92294  14.832  32.868   0.304
27310W        W92295  39.774  22.214   1.644
27311W        W92296   2.548  20.991   4.342
27312W        W92297  24.806  13.329   3.675
27313W        W92298  12.842  32.955  12.977
27314W        W92299  13.011  34.683  11.399
27315W        W92300  34.855  39.127  12.616
27316W        W92301   4.901  22.032  10.219
27317W        W92302  36.153   3.929  13.358
27318W        W92303  22.730   2.656  14.742
27319W        W92304  16.656  44.521  13.634
27320W        W92305  30.558  10.389   3.199
27321W        W92306  20.218  16.148  10.011
27322W        W92307  24.419  14.673   0.277
27323W        W92308  11.412  42.026  13.710
27324W        W92309  21.860   5.769   0.815
27325W        W92310  32.490  34.077  14.818
27326W        W92311   2.439  42.291  11.645
27327W        W92312  12.269  37.918   4.642
27328W        W92313   2.539  13.607   1.370
27329W        W92314  36.586  31.910   0.801
27330W        W92315  33.042  30.222  11.528
27331W        W92316  24.580  32.330  14.408
27332W        W92317  33.329  22.612  11.503
27333W        W92318  23.897  28.903   0.505
27334W        W92319  10.267  21.937   1.416
27335W        W92320  44.970  43.224   0.932
27336W        W92321   3.529  10.687   3.234
27337W        W92322  18.371  33.710  10.178
27338W        W92323   4.518  18.171  11.705
27339W        W92324  11.303   0.556   1.747
27340W        W92325  15.188  11.158   4.137
27341W        W92326  15.286  12.829   0.691
27342W        W92327   7.242   5.454   1.753
27343W        W92328  27.437  24.511  12.227
27344W        W92329   4.440  42.785   4.596
27345W        W92330  38.353  29.613  12.476
27346W        W92331   8.748   7.524  11.117
27347W        W92332   3.471   3.276   3.746
27348W        W92333   4.912  21.708   3.440
27349W        W92334  11.432   3.409   3.304
27350W        W92335  38.761  38.538  14.015
27351W        W92336  10.339  16.672   2.705
27352W        W92337  18.044  24.622   4.636
27353W        W92338  37.935  38.994  13.434
27354W        W92339   7.614  21.726   0.309
27355W        W92340  30.029  25.387  13.873
27356W        W92341  11.526   6.306  13.102
27357W        W92342  22.812  38.029   3.576
27358W        W92343  25.179   2.432   3.387
27359W        W92344   7.291  28.524   2.759
27360W        W92345  36.812  22.611  10.722
27361W        W92346  16.180  34.119   4.029
27362W        W92347  26.667   1.814  13.056
27363W        W92348  37.701   0.852   4.501
27364W        W92349  39.180  21.126  14.909
27365W        W92350  13.820   3.425   1.903
27366W        W92351  25.119  13.163   2.348
27367W        W92352  22.590  33.208  13.385
27368W        W92353  21.232   9.777  10.511
27369W        W92354  35.430  30.616  13.566
27370W        W92355   7.378  44.797   3.211
27371W        W92356  37.851  11.601  11.615
27372W        W92357  23.287   4.301   3.402
27373W        W92358  39.455  37.749  14.934
27374W        W92359   1.416  11.421  12.897
27375W        W92360  11.316  21.867  11.706
27376W        W92361  22.805  26.554   1.376
27377W        W92362  27.274   0.403   0.354
27378W        W92363  27.464   9.810  11.991
27379W        W92364  37.512   3.254   0.826
27380W        W92365  19.338  24.284  10.653
27381W        W92366   9.610   6.226   0.927
27382W        W92367   1.053  15.737   0.709
27383W        W92368  20.583  16.240   2.315
27384W        W92369  28.606  38.574   4.265
27385W        W92370  22.685   5.843   1.062
27386W        W92371  37.823  36.141  11.863
27387W        W92372  32.226  13.596  11.277
27388W        W92373  10.278   4.206  10.687
27389W        W92374  32.531   8.558   2.784
27390W        W92375  17.673  38.285  13.700
27391W        W92376  28.964  23.002  11.880
27392W        W92377  22.207   9.362   1.753
27393W        W92378   7.116   8.366   0.404
27394W        W92379  26.098  11.727   3.622
27395W        W92380  29.620  35.884   1.672
27396W        W92381   4.512  28.124  12.041
27397W        W92382  23.507  23.206  14.767
27398W        W92383   9.378  30.141  12.584
27399W        W92384  44.577  19.386  12.984
27400W        W92385   5.226  19.378   1.345
27401W        W92386   9.219  44.945  10.665
27402W        W92387  36.059  31.479  10.511
27403W        W92388   6.295  38.910   0.330
27404W        W92389  43.855  19.305   0.867
27405W        W92390  43.504  13.437  10.755
27406W        W92391   6.232  30.524  11.157
27407W        W92392  35.866  17.727  12.646
27408W        W92393  39.987  14.553   1.727
27409W        W92394  37.941  23.504  11.184
27410W        W92395  14.711  43.545   2.968
27411W        W92396  42.457  16.636  14.989
27412W        W92397  40.820  30.788  13.447
27413W        W92398  23.137   1.257  12.544
27414W        W92399  32.966  37.072   3.220
27415W        W92400  25.898  24.070   4.036
27416W        W92401  42.279  33.192  11.649
27417W        W92402  35.550  36.484  14.313
27418W        W92403  18.570  37.083   0.829
27419W        W92404  33.497  20.692  11.222
27420W        W92405  30.984  21.658  14.751
27421W        W92406  26.136  36.204   1.375
27422W        W92407  44.719  15.229  14.368
27423W        W92408  14.229  37.510  13.562
27424W        W92409  32.992  30.894   0.357
27425W        W92410  32.998  42.772   1.925
27426W        W92411  12.081  42.869  14.889
27427W        W92412  28.979  10.650   1.399
27428W        W92413   8.300  24.230   1.989
27429W        W92414  28.912   0.743  14.862
27430W        W92415  39.329  33.174  11.171
27431W        W92416  39.961  11.019   0.756
27432W        W92417  23.559  43.747  12.519
27433W        W92418  23.279  26.136   3.735
27434W        W92419   6.760  31.051   3.240
27435W        W92420  22.077  37.584  11.190
27436W        W92421  15.258  43.791   0.366
27437W        W92422  35.433  18.440  12.780
27438W        W92423   1.720   0.821  11.882
27439W        W92424   6.094  29.213   2.925
27440W        W92425  19.307  15.623   3.821
27441W        W92426  25.000  43.113   2.695
27442W        W92427  19.531  12.676   3.060
27443W        W92428   0.084  20.544   4.144
27444W        W92429   4.123  42.814  12.940
27445W        W92430  44.879  34.934  14.308
27446W        W92431  21.576  43.441   0.291
27447W        W92432  36.444  24.909  14.344
27448W        W92433  40.220  42.330  12.031
27449W        W92434  42.918  39.469  13.057
27450W        W92435  37.151  27.014   1.908
27451W        W92436  31.418  23.467  11.826
27452W        W92437   1.208   0.563  11.895
27453W        W92438  15.540  20.806   1.354
27454W        W92439   8.629  17.249   2.724
27455W        W92440  26.473  24.009  10.607
27456W        W92441  35.864  25.472   3.778
27457W        W92442  12.197  40.812   4.620
27458W        W92443  36.251  28.528   2.692
27459W        W92444   9.706  11.610   3.276
27460W        W92445  24.770   4.498  12.726
27461W        W92446  44.594  24.111  13.758
27462W        W92447  31.530   5.897   1.193
27463W        W92448  29.202  23.692  14.371
27464W        W92449   0.222   8.819   3.516
27465W        W92450  31.685  15.665  12.983
27466W        W92451  18.793  10.346   3.773
27467W        W92452  19.063  14.352  13.022
27468W        W92453  17.947  28.926   4.173
27469W        W92454  22.562  30.486  14.097
27470W        W92455  19.696  19.942  12.019
27471W        W92456  32.909  29.159  10.600
27472W        W92457  28.984  43.815  11.752
27473W        W92458  17.688  20.302  10.638
27474W        W92459  13.391  35.000   4.790
27475W        W92460  20.606  26.029  13.898
27476W        W92461  28.984  11.442   2.339
27477W        W92462  31.612  34.921  10.774
27478W        W92463   7.628  14.782  12.385
27479W        W92464  42.365  11.377  14.289
27480W        W92465  26.924  29.888  13.068
27481W        W92466   1.152  36.540   3.150
27482W        W92467  44.284  30.533  10.942
27483W        W92468   3.905  39.855  13.506
27484W        W92469  22.112  43.022  13.329
27485W        W92470  15.232  19.898  12.773
27486W        W92471  17.077  24.112  14.861
27487W        W92472   2.244  14.373   4.182
27488W        W92473  17.081  40.046  14.358
27489W        W92474   2.910  23.796  12.528
27490W        W92475  18.305  30.441  11.897
27491W        W92476  43.882  13.647   1.685
27492W        W92477   2.946  39.889  10.750
27493W        W92478  41.095  25.724  14.457
27494W        W92479  17.437  12.760  14.950
27495W        W92480   2.407   2.626  11.173
27496W        W92481  14.412  14.193  11.633
27497W        W92482  17.184   3.373  12.554
27498W        W92483   7.824  14.343  10.296
27499W        W92484  34.624  14.457  11.962
27500W        W92485  34.611   8.947  11.729
27501W        W92486  26.213  34.015   2.537
27502W        W92487  10.055  29.870   0.475
27503W        W92488  20.134   5.623  10.197
27504W        W92489  30.026  24.705   0.223
27505W        W92490  29.425   6.917  11.184
27506W        W92491  22.551  30.326   4.152
27507W        W92492   9.595  30.578   1.741
27508W        W92493  41.847  20.023  12.544
27509W        W92494   1.737  39.623  11.228
27510W        W92495  10.273   8.529  12.602
27511W        W92496  25.027  30.516  14.755
27512W        W92497  23.688   6.476   0.770
27513W        W92498  20.593  29.667  11.569
27514W        W92499  35.248  19.512   4.184
27515W        W92500   1.966  22.991   0.005
27516W        W92501  31.575  42.090   1.801
27517W        W92502  30.934   7.790   0.332
27518W        W92503  32.083  22.310  14.141
27519W        W92504   1.458  30.036   3.684
27520W        W92505   0.971  27.331   3.405
27521W        W92506   5.385   9.305   4.527
27522W        W92507  12.264  33.852  13.926
27523W        W92508  32.821  40.015  11.895
27524W        W92509  11.639  35.130   1.187
27525W        W92510  40.425  40.809   2.778
27526W        W92511  17.786  31.879   4.690
27527W        W92512  21.713   5.275  10.463
27528W        W92513   3.676   7.845  11.509
27529W        W92514   8.161   4.712  13.067
27530W        W92515  32.741   2.943   4.143
27531W        W92516  43.530   2.292   1.514
27532W        W92517  35.361  16.003  12.011
27533W        W92518  32.810  11.890  10.686
27534W        W92519   1.920  44.931  11.930
27535W        W92520   1.623  32.597   4.560
27536W        W92521  32.207  30.224  11.232
27537W        W92522  39.392  43.320   4.935
27538W        W92523  14.141  26.785  14.931
27539W        W92524  44.438  10.287   3.735
27540W        W92525  10.910  43.773  13.850
27541W        W92526  24.246   1.753   3.892
27542W        W92527  12.364  20.506   3.354
27543W        W92528  41.589   3.728  14.485
27544W        W92529  32.968  13.343   4.188
27545W        W92530  36.526  23.694   4.607
27546W        W92531  30.888  30.688  11.076
27547W        W92532  11.890  15.849  10.829
27548W        W92533  37.029   5.400  14.461
27549W        W92534  41.806  17.160   2.127
27550W        W92535  39.296  16.712   4.992
27551W        W92536  17.673  24.920   0.058
27552W        W92537  26.979  32.484   4.226
27553W        W92538  21.929  19.608  12.573
27554W        W92539   0.381  15.783   3.844
27555W        W92540   8.845   0.279  10.391
27556W        W92541  36.798  44.199   0.732
27557W        W92542  41.088  34.340  11.626
27558W        W92543   9.654  37.678  13.862
27559W        W92544   9.083   6.559  11.109
27560W        W92545   2.448  18.121   4.111
27561W        W92546   8.904  18.541  13.844
27562W        W92547   8.252  38.851   3.795
27563W        W92548   6.638  26.633  14.831
27564W        W92549  25.327   3.385  14.307
27565W        W92550  26.498  31.229   0.727
27566W        W92551  20.034  24.035  13.426
27567W        W92552  34.465  31.047   2.392
27568W        W92553  43.810  23.652  11.143
27569W        W92554  24.656  39.098   0.285
27570W        W92555  17.182  36.381  10.977
27571W        W92556  30.300  31.638   2.495
27572W        W92557  31.494  22.627   4.102
27573W        W92558  34.895  27.149   1.160
27574W        W92559   9.357  34.953   4.626
27575W        W92560  18.100  15.647  10.962
27576W        W92561  23.496  33.088   3.306
27577W        W92562  15.222  44.968  13.438
27578W        W92563  24.167  10.371  12.412
27579W        W92564  23.761   3.633  13.482
27580W        W92565   7.051   9.044   2.888
27581W        W92566   2.770  32.852   2.248
27582W        W92567  38.997   9.409   4.657
27583W        W92568   1.415  25.179   2.820
27584W        W92569  21.659  34.500  14.214
27585W        W92570  37.067  31.034  13.048
27586W        W92571  26.473   5.693   3.687
27587W        W92572  34.969  10.103   3.227
27588W        W92573  20.627  38.594  12.905
27589W        W92574  22.597  33.128  10.790
27590W        W92575   9.346  44.183  11.111
27591W        W92576  32.433   4.527   0.475
27592W        W92577  19.249  16.613  14.237
27593W        W92578  17.330   0.492  14.939
27594W        W92579  28.741  17.163  13.072
27595W        W92580  44.245  34.599   0.245
27596W        W92581  39.796  28.997   1.752
27597W        W92582  14.427   4.819  10.312
27598W        W92583   9.767  36.365  11.943
27599W        W92584  37.616  33.431  14.855
27600W        W92585  35.311  28.355  11.209
27601W        W92586  17.237  14.800  13.110
27602W        W92587   6.961  15.764  13.106
27603W        W92588  37.143   6.666  13.865
27604W        W92589  16.140  18.086   1.457
27605W        W92590   4.741  17.259   0.231
27606W        W92591  16.284   6.170  13.930
27607W        W92592   4.854  33.618   0.712
27608W        W92593  43.289   9.286   1.031
27609W        W92594   5.288  44.886  14.440
27610W        W92595   0.726  25.211   5.077
27611W        W92596  21.068  40.773   0.937
27612W        W92597  32.825  38.282  12.942
27613W        W92598   5.719  42.342  13.818
27614W        W92599  28.547   5.212  14.892
27615W        W92600  35.025  31.317  12.571
27616W        W92601  13.000  33.680  10.998
27617W        W92602  13.140  11.805   4.594
27618W        W92603   2.327  27.498   2.181
27619W        W92604  15.263  24.551  12.984
27620W        W92605  17.285  38.581   3.854
27621W        W92606  25.080  12.908  14.053
27622W        W92607  31.051  11.914   1.632
27623W        W92608   7.208  17.694   4.679
27624W        W92609   1.965   0.478  12.610
27625W        W92610   7.906   1.541  14.612
27626W        W92611  26.141  36.402  11.181
27627W        W92612  33.573  44.929  12.713
27628W        W92613  42.781   9.439  12.380
27629W        W92614  43.242  43.779  13.025
27630W        W92615   3.311  15.973  12.353
27631W        W92616   2.359  20.115   3.886
27632W        W92617  30.064  16.699   3.234
27633W        W92618   3.826  41.087  13.031
27634W        W92619  37.086  13.691   3.200
27635W        W92620   9.570  12.283   3.775
27636W        W92621  15.162  43.699  14.018
27637W        W92622  36.725  24.084  13.019
27638W        W92623  26.286  44.838  10.395
27639W        W92624   8.399  37.362  13.648
27640W        W92625  11.079   7.679   0.790
27641W        W92626   3.915  44.241  11.677
27642W        W92627  41.597  13.815   4.201
27643W        W92628  11.102  30.239   2.342
27644W        W92629  34.867  25.004   2.511
27645W        W92630  17.109  12.173   4.648
27646W        W92631   5.896   2.922  11.604
27647W        W92632  32.406  44.548  14.499
27648W        W92633  29.372  43.082  10.422
27649W        W92634  38.692  25.971  12.566
27650W        W92635  37.972   1.360   4.535
27651W        W92636  34.488  34.451  11.598
27652W        W92637   4.305  37.329   1.456
27653W        W92638  33.111  17.634   3.652
27654W        W92639  10.425  30.002  13.393
27655W        W92640  26.598  24.212  14.376
27656W        W92641  31.669  25.295  10.985
27657W        W92642  30.942  20.463   2.611
27658W        W92643  18.608  27.763  13.457
27659W        W92644   4.291  19.505  12.130
27660W        W92645  43.340  32.425   2.109
27661W        W92646  14.877   9.282  13.325
27662W        W92647  16.255   3.761   5.649
27663W        W92648   4.454  44.730  11.062
27664W        W92649  37.174   5.394  14.961
27665W        W92650  20.824  29.079   4.133
27666W        W92651  11.224  32.803   1.860
27667W        W92652  22.698  36.909   0.975
27668W        W92653   9.257   6.334  10.248
27669W        W92654  12.180   5.375   2.227
27670W        W92655  43.546   1.674  11.985
27671W        W92656   4.641  20.770   4.721
27672W        W92657   1.229  13.678  14.057
27673W        W92658  39.732  43.885  12.338
27674W        W92659  16.182  14.522  10.897
27675W        W92660  35.373   5.348   5.120
27676W        W92661   4.461  24.125  12.944
27677W        W92662  12.863  17.253  13.298
27678W        W92663   3.381  12.560   0.746
27679W        W92664  20.184  43.499  11.425
27680W        W92665  21.531   6.755   1.692
27681W        W92666  18.189   0.432  14.296
27682W        W92667  13.558   7.877  13.032
27683W        W92668  31.959  37.449  13.949
27684W        W92669  13.597  29.112  14.524
27685W        W92670  32.624   8.067   1.925
27686W        W92671  26.274  11.534  12.873
27687W        W92672  15.058  17.809  11.151
27688W        W92673  22.345  34.851  11.032
27689W        W92674  37.105   2.689  13.003
27690W        W92675  33.975  42.307   3.791
27691W        W92676  37.365  22.549   0.928
27692W        W92677   7.161  18.066  12.511
27693W        W92678   4.433   3.117   3.446
27694W        W92679  44.847  29.548   1.578
27695W        W92680  31.514  26.376  14.793
27696W        W92681  42.214  24.697  14.149
27697W        W92682   7.084  44.240  11.575
27698W        W92683  11.558  29.225  14.348
27699W        W92684   3.051   6.376  13.885
27700W        W92685  32.060   2.970  13.574
27701W        W92686   0.004  11.944  13.363
27702W        W92687   9.719   0.919  10.630
27703W        W92688  28.452  23.250   4.209
27704W        W92689   6.915  17.738   2.232
27705W        W92690  20.227   8.640   2.022
27706W        W92691  37.372   6.768  12.133
27707W        W92692  38.051  22.546   1.380
27708W        W92693  30.257  15.071  12.885
27709W        W92694   4.258   3.458   4.366
27710W        W92695  29.203  19.321   3.813
27711W        W92696   8.220  18.643  14.503
27712W        W92697   3.200   3.714  10.928
27713W        W92698  18.629  24.973  13.870
27714W        W92699  35.372  29.697   3.363
27715W        W92700  33.275  35.672  12.508
27716W        W92701  13.377  31.994   0.508
27717W        W92702   4.696   0.673   1.324
27718W        W92703  42.575  36.313   0.347
27719W        W92704   4.014  31.417  12.819
27720W        W92705  37.804  23.061   0.134
27721W        W92706  21.543  24.279  13.868
27722W        W92707  13.379  12.349   2.125
27723W        W92708  30.964  22.128  12.982
27724W        W92709   0.411  24.144   2.809
27725W        W92710  29.140  14.829  10.795
27726W        W92711  17.678  25.659  11.693
27727W        W92712  37.357  34.340  13.843
27728W        W92713  28.092  35.668  11.620
27729W        W92714  17.866  31.614   4.034
27730W        W92715  13.242  17.968   4.209
27731W        W92716  36.929  37.491   1.744
27732W        W92717   5.209  38.408  11.690
27733W        W92718  27.691  12.624  11.896
27734W        W92719  37.976  35.342   1.803
27735W        W92720  37.576   1.525   2.344
27736W        W92721  41.620  23.494  12.175
27737W        W92722  33.052  30.825   4.707
27738W        W92723  26.565  40.789   4.216
27739W        W92724  20.337  20.669   1.599
27740W        W92725  19.494  38.422   4.616
27741W        W92726   6.637  26.476  10.123
27742W        W92727  30.915  44.412   2.974
27743W        W92728  13.839   1.718  11.307
27744W        W92729  39.563  20.531   3.357
27745W        W92730  30.138  10.688  13.801
27746W        W92731  29.656   8.246  10.868
27747W        W92732  44.776  15.386  13.595
27748W        W92733   4.968  19.574  12.773
27749W        W92734  11.646  33.325   2.681
27750W        W92735   3.637  12.039   4.157
27751W        W92736  19.631  12.275  13.399
27752W        W92737  15.528  32.077  13.366
27753W        W92738  31.367   8.777  11.583
27754W        W92739   1.522  22.619  14.306
27755W        W92740  14.914  22.712  14.292
27756W        W92741  35.566   7.468   4.458
27757W        W92742  20.116  32.926  13.976
27758W        W92743  21.749  20.640   5.017
27759W        W92744  19.637   9.870  13.880
27760W        W92745  34.929  19.255  13.428
27761W        W92746  35.520  12.668  10.547
27762W        W92747  16.175  34.015  10.685
27763W        W92748  25.921   5.690   3.772
27764W        W92749  41.777  26.588   0.961
27765W        W92750   8.593  26.821  13.081
27766W        W92751  29.531  25.205   2.399
27767W        W92752  20.808  24.324   3.292
27768W        W92753  27.051   9.385   3.728
27769W        W92754  12.486  28.643   3.672
27770W        W92755  16.093  42.451   1.382
27771W        W92756  10.261  18.815   3.141
27772W        W92757  22.504  19.035   4.573
27773W        W92758  27.271  10.876   2.596
27774W        W92759  37.565  36.881  12.527
27775W        W92760  25.012  16.503  12.503
27776W        W92761  22.720  42.737   1.719
27777W        W92762  36.048  20.126  13.344
27778W        W92763   0.683  35.432   3.420
27779W        W92764   9.555  34.266  13.424
27780W        W92765   2.788  44.089  11.967
27781W        W92766  24.174  11.406  13.798
27782W        W92767  24.209  24.489   3.720
27783W        W92768  44.690  36.856  10.485
27784W        W92769  38.274   7.917  12.984
27785W        W92770   2.864  27.196   2.122
27786W        W92771  26.946  16.608  10.735
27787W        W92772  24.612  35.800   4.107
27788W        W92773  25.061   3.202   3.323
27789W        W92774  37.593  41.571   0.150
27790W        W92775  26.005  32.426  13.275
27791W        W92776  33.065  10.122   4.074
27792W        W92777  36.511  13.372  12.549
27793W        W92778  33.429  16.631   3.955
27794W        W92779  25.811  33.872   0.218
27795W        W92780  17.047  24.437  14.046
27796W        W92781   7.901  20.742  13.890
27797W        W92782  27.172   4.747   0.990
27798W        W92783  35.664   1.945  14.983
27799W        W92784  17.437  20.258  13.550
27800W        W92785  34.426  12.845  14.850
27801W        W92786  13.919  36.333  12.039
27802W        W92787  25.474  25.039   3.528
27803W        W92788  27.708  38.421  14.487
27804W        W92789  24.023   0.478  14.348
27805W        W92790  16.870  15.773  12.548
27806W        W92791  42.248  41.320  10.746
27807W        W92792  38.533   5.405   1.897
27808W        W92793  12.989  36.722  11.094
27809W        W92794   9.229   7.098   0.383
27810W        W92795  40.322  18.913  12.487
27811W        W92796  18.242  38.237  11.615
27812W        W92797   3.870   2.069  14.930
27813W        W92798  36.218   5.631  10.315
27814W        W92799  30.681  38.295  14.510
27815W        W92800  14.286  19.710   0.824
27816W        W92801  30.024  30.111  12.208
27817W        W92802   9.831  18.492   3.168
27818W        W92803  30.990  41.930  11.756
27819W        W92804  15.699   2.700   3.652
27820W        W92805  38.493  40.846   1.613
27821W        W92806  37.913   4.959  14.975
27822W        W92807   8.699  15.634   3.385
27823W        W92808  14.163   1.791   2.057
27824W        W92809  24.694   3.979  11.547
27825W        W92810   2.012  12.704  11.236
27826W        W92811  43.578  28.645  11.114
27827W        W92812   5.867  13.650   3.085
27828W        W92813  35.572  38.432   3.337
27829W        W92814  13.370  34.570  11.023
27830W        W92815  21.335   8.561   3.141
27831W        W92816  34.439  44.300  13.378
27832W        W92817  32.107  29.427  14.213
27833W        W92818  35.945   8.862  11.734
27834W        W92819  21.619  33.904  12.996
27835W        W92820   3.639  28.796   1.744
27836W        W92821  22.112  24.957  14.491
27837W        W92822   6.224   0.511   3.834
27838W        W92823  21.182   5.140   4.541
27839W        W92824  40.101  38.379   1.174
27840W        W92825  31.160  10.118  13.826
27841W        W92826  30.290  37.047  13.380
27842W        W92827  41.622  18.442   5.032
27843W        W92828  21.573  25.244  13.645
27844W        W92829  15.596  43.866  13.727
27845W        W92830  28.658   3.865  10.925
27846W        W92831  11.729   4.921  11.202
27847W        W92832  40.337   5.468  14.821
27848W        W92833  28.289  10.822   3.946
27849W        W92834  35.877  26.469   1.720
27850W        W92835   6.584  17.075   5.247
27851W        W92836  32.571  39.742   2.483
27852W        W92837  44.237  28.900   0.517
27853W        W92838  15.340  27.236  12.212
27854W        W92839  43.543  39.258   3.714
27855W        W92840   1.919  23.485   0.245
27856W        W92841  32.434  37.554   2.692
27857W        W92842  40.801   3.733  14.892
27858W        W92843  25.559  23.096   4.619
27859W        W92844  18.179  43.501   4.318
27860W        W92845  35.448  24.754  12.995
27861W        W92846  35.677  21.995  11.197
27862W        W92847  17.655  27.890   0.411
27863W        W92848   8.770  40.801  13.096
27864W        W92849  38.580  18.965  11.584
27865W        W92850  32.436  44.360  10.477
27866W        W92851  21.731   8.708   0.856
27867W        W92852  24.473  23.564   2.832
27868W        W92853  12.820   0.531  11.195
27869W        W92854  14.777  22.320  12.572
27870W        W92855  17.131  37.426  14.998
27871W        W92856   2.137   3.525  14.002
27872W        W92857  33.553  42.953   1.768
27873W        W92858  17.487  21.720   0.743
27874W        W92859  42.836  37.055   2.854
27875W        W92860   3.210   0.627  14.094
27876W        W92861  11.339  22.100   1.743
27877W        W92862   7.685  14.232   1.233
27878W        W92863   5.378  31.501  14.469
27879W        W92864   0.438   3.353   3.325
27880W        W92865  23.489  20.717  14.353
27881W        W92866   9.901   0.241  11.165
27882W        W92867  43.709  34.565   1.940
27883W        W92868  29.326  35.923   0.294
27884W        W92869  37.175  38.115  14.902
27885W        W92870  32.500   6.616  12.900
27886W        W92871   9.283   0.321   0.932
27887W        W92872  27.031   4.299   1.745
27888W        W92873  28.464  12.650  13.634
27889W        W92874   9.674  37.853  11.061
27890W        W92875  36.438  12.212  12.814
27891W        W92876  13.003   8.643   4.932
27892W        W92877   9.686   0.344   3.100
27893W        W92878  12.241  19.804   0.698
27894W        W92879  11.627  32.212   4.632
27895W        W92880  30.908  37.581  12.987
27896W        W92881  13.272  33.618  13.384
27897W        W92882  12.719  30.227  12.944
27898W        W92883   3.991   0.758  10.690
27899W        W92884  43.521  29.965  11.374
27900W        W92885  10.236  43.422   0.176
27901W        W92886  23.254  14.507  11.130
27902W        W92887   9.983   7.335   0.865
27903W        W92888  39.381  34.093  14.942
27904W        W92889  15.755  12.571   0.717
27905W        W92890  30.016  20.182  14.461
27906W        W92891  34.860  35.525  10.715
27907W        W92892  27.959   7.904   3.415
27908W        W92893  42.153  42.812   4.730
27909W        W92894  40.927   2.600  11.959
27910W        W92895  39.016  11.970   2.458
27911W        W92896  12.588  26.074  14.405
27912W        W92897   6.532  19.915   5.098
27913W        W92898  44.270   8.917  14.467
27914W        W92899  11.352  40.815  13.375
27915W        W92900  22.096   0.006  13.433
27916W        W92901  29.686   6.150   4.630
27917W        W92902   3.903  43.185  11.547
27918W        W92903  17.362  12.337  11.541
27919W        W92904  16.514   0.845   0.047
27920W        W92905  18.864  14.885   0.764
27921W        W92906  38.573  26.031   3.605
27922W        W92907  31.447  11.718   1.892
27923W        W92908  15.998  39.955  10.110
27924W        W92909  10.575   6.841   2.292
27925W        W92910  10.785  35.834   2.363
27926W        W92911  12.480  31.033   0.409
27927W        W92912  30.574  21.901   2.398
27928W        W92913  44.412  38.594   0.769
27929W        W92914   5.347  28.484  12.901
27930W        W92915  22.303  36.056  10.598
27931W        W92916  44.473  44.545  10.702
27932W        W92917  26.886   7.435  12.710
27933W        W92918  43.159  15.679  13.892
27934W        W92919  21.792  27.983   1.261
27935W        W92920  32.902  22.963  12.410
27936W        W92921  11.129   0.613   3.387
27937W        W92922  36.072   8.953   0.274
27938W        W92923  44.961  18.299  14.843
27939W        W92924  11.096  43.444  12.128
27940W        W92925  21.004  30.382   1.743
27941W        W92926  18.814  21.151  14.819
27942W        W92927  14.771  36.663   1.420
27943W        W92928  35.161  24.574  13.469
27944W        W92929  22.101   9.229  12.624
27945W        W92930  26.313  28.914  11.143
27946W        W92931  15.669  10.665   1.972
27947W        W92932  15.151  17.619   4.073
27948W        W92933  13.643  21.616  14.828
27949W        W92934  15.877  13.647  13.361
27950W        W92935   3.927   4.303   3.412
27951W        W92936  10.381  40.114   3.412
27952W        W92937  29.508  10.402  10.100
27953W        W92938  12.848  14.307  10.952
27954W        W92939   4.233  21.987  13.511
27955W        W92940  20.036  40.197  10.823
27956W        W92941  26.118  22.013   0.283
27957W        W92942  22.745  42.233   1.702
27958W        W92943  33.912  18.730  14.303
27959W        W92944  30.444  44.933   1.689
27960W        W92945   2.498  10.819   0.508
27961W        W92946  37.876  34.087   3.818
27962W        W92947  42.532  26.053   0.308
27963W        W92948  25.901  16.694  13.865
27964W        W92949  27.257   3.424  14.535
27965W        W92950  33.643  12.500   1.750
27966W        W92951  35.022   4.225  14.914
27967W        W92952  10.485  14.673  10.540
27968W        W92953  14.119  14.734   4.614
27969W        W92954   5.656  41.940   0.485
27970W        W92955  18.506   9.336  10.612
27971W        W92956  32.541  38.570  14.931
27972W        W92957  17.028   9.849  13.444
27973W        W92958  32.594   4.678  14.954
27974W        W92959  43.924  41.763   4.409
27975W        W92960   7.788   3.963   2.890
27976W        W92961  17.273  20.392  11.997
27977W        W92962   1.493   1.904  12.645
27978W        W92963  10.152  16.525   0.708
27979W        W92964  20.188  38.029   1.374
27980W        W92965  40.386  29.344  11.632
27981W        W92966  11.539  20.383  12.380
27982W        W92967  10.671  10.321  14.549
27983W        W92968  30.814  21.290   4.263
27984W        W92969  43.793  37.987  12.082
27985W        W92970  19.753   9.739   1.778
27986W        W92971  29.161  11.113  12.080
27987W        W92972  13.232  31.923  12.509
27988W        W92973  33.940   2.274  10.731
27989W        W92974  28.474  25.200  13.383
27990W        W92975   9.444   3.949  14.404
27991W        W92976  25.200  27.519   1.771
27992W        W92977   9.086   0.258   1.823
27993W        W92978  37.720  42.881  13.431
27994W        W92979  42.062   0.510  13.858
27995W        W92980  15.187   8.664  14.794
27996W        W92981  35.024  37.372   1.615
27997W        W92982  25.557  42.517   1.798
27998W        W92983  27.630   9.405   0.055
27999W        W92984   1.048   1.780   1.176
28000W        W92985  21.169  31.821  11.114
28001W        W92986  35.361  38.597  13.918
28002W        W92987  43.939  16.317  14.962
28003W        W92988   8.056  32.052  10.563
28004W        W92989  26.458  20.293   0.300
28005W        W92990   6.638   8.347  13.571
28006W        W92991  42.403  28.139  14.193
28007W        W92992   7.735  11.596  13.358
28008W        W92993   6.449  38.333  10.362
28009W        W92994  18.298  44.245   0.365
28010W        W92995  44.273   7.638  13.147
28011W        W92996  34.493  35.881   4.081
28012W        W92997  26.781   5.819   4.106
28013W        W92998  40.907  30.936   0.341
28014W        W92999   9.644  13.132   0.858
28015W        W93000  38.716  35.231   9.648
28016W        W93001  15.228   2.362   2.837
28017W        W93002   5.269   8.739   1.677
28018W        W93003  10.274   8.701  13.926
28019W        W93004   8.720  43.361   1.218
28020W        W93005  15.298  42.345   0.056
28021W        W93006  30.856  27.545   3.639
28022W        W93007   3.517  15.053   1.842
28023W        W93008   0.694  12.575  12.875
28024W        W93009  13.733   5.043   4.520
28025W        W93010  20.831  38.351  12.495
28026W        W93011  33.363   2.722   0.783
28027W        W93012  14.963  40.194  13.966
28028W        W93013  10.238  30.475  10.287
28029W        W93014  17.992  25.202   1.883
28030W        W93015  35.052   1.223   1.891
28031W        W93016  11.418  12.824   2.926
28032W        W93017  19.016  42.887  13.914
28033W        W93018  14.818  10.326  11.983
28034W        W93019   1.068   9.760   0.352
28035W        W93020  19.722  32.160  10.752
28036W        W93021   8.875   2.384   2.712
28037W        W93022  36.589  16.655  13.428
28038W        W93023  41.911   4.898  14.792
28039W        W93024  34.515  11.393  11.599
28040W        W93025  38.497  15.147   0.473
28041W        W93026   8.309  29.741  14.986
28042W        W93027  12.764   2.780  10.781
28043W        W93028  25.695  28.327   2.691
28044W        W93029   2.306  11.296  12.919
28045W        W93030   8.436  18.813   4.706
28046W        W93031  22.579   4.302  13.457
28047W        W93032  29.543  21.222   1.270
28048W        W93033  43.624  13.424   4.233
28049W        W93034  18.796  38.350   3.111
28050W        W93035   6.446  21.003  10.048
28051W        W93036  32.340  44.483   0.320
28052W        W93037  37.653   6.274   3.758
28053W        W93038  30.485  43.395   0.007
28054W        W93039  17.739  20.119  12.085
28055W        W93040  11.645  39.296   2.698
28056W        W93041   8.814  13.617  14.445
28057W        W93042   3.647  33.061  11.559
28058W        W93043  43.377  25.088  10.619
28059W        W93044   0.967  19.099  10.071
28060W        W93045  42.935  19.309   9.752
28061W        W93046  36.103  20.748  14.465
28062W        W93047  44.993  25.042   3.500
28063W        W93048  27.401  34.712  12.272
28064W        W93049  10.415  24.284  11.177
28065W        W93050   4.073  19.771  11.127
28066W        W93051  35.859  12.761   1.909
28067W        W93052  10.016  21.686  14.772
28068W        W93053  37.711  37.030   9.765
28069W        W93054  10.664  39.256   1.765
28070W        W93055  22.101  13.860   0.403
28071W        W93056  37.485  17.180   3.850
28072W        W93057  14.875   2.229   2.119
28073W        W93058  25.139  25.023   2.187
28074W        W93059  13.215  27.154   2.421
28075W        W93060  10.246  35.710   3.157
28076W        W93061  36.348  36.227   1.191
28077W        W93062  16.855  26.568   2.029
28078W        W93063  38.061  41.012   2.762
28079W        W93064  43.281   5.613   4.506
28080W        W93065  44.994  24.498  12.918
28081W        W93066  37.823  26.927  11.078
28082W        W93067  13.841  44.070  14.187
28083W        W93068  13.950   7.709   1.354
28084W        W93069   7.182  31.504   1.372
28085W        W93070  36.891  29.670   3.253
28086W        W93071  44.600  12.773   1.348
28087W        W93072  17.530  21.975  14.921
28088W        W93073  43.357  42.530  12.499
28089W        W93074  27.553  38.231   2.022
28090W        W93075   2.464  44.174   4.544
28091W        W93076  41.054  21.794   3.209
28092W        W93077  13.182  32.495   2.360
28093W        W93078  19.516  43.985   0.974
28094W        W93079  31.983  10.804  11.164
28095W        W93080  41.824  29.049   3.701
28096W        W93081  36.381  20.022   2.936
28097W        W93082  11.853  12.789  13.833
28098W        W93083  25.267  12.149  14.673
28099W        W93084   5.501   8.044   2.814
28100W        W93085  15.126  37.076   0.917
28101W        W93086  28.044  15.389  13.300
28102W        W93087  25.118   5.725   1.836
28103W        W93088  10.616   8.630   3.254
28104W        W93089  15.590  10.165  12.484
28105W        W93090   8.868  22.064  14.072
28106W        W93091  11.326   0.943  14.029
28107W        W93092  31.222  20.956  12.892
28108W        W93093  22.662  38.460  11.612
28109W        W93094  26.138   1.359   2.233
28110W        W93095  12.134  18.610  13.711
28111W        W93096  30.055   9.700  10.571
28112W        W93097  15.372  13.281  12.074
28113W        W93098  30.653  31.240   2.352
28114W        W93099  27.672  16.566  11.112
28115W        W93100   3.317  37.989  14.341
28116W        W93101  29.526  34.421   9.583
28117W        W93102  15.817  20.430  11.600
28118W        W93103  21.243  38.386  12.884
28119W        W93104  35.360  40.280   1.708
28120W        W93105  10.872  17.782   3.098
28121W        W93106  25.373   1.353   2.658
28122W        W93107  12.943  22.699   5.256
28123W        W93108  36.392  44.742  12.146
28124W        W93109  24.408  30.141   2.352
28125W        W93110  19.072  28.969  11.139
28126W        W93111  11.959  43.270  12.627
28127W        W93112  28.455  20.014   0.509
28128W        W93113   2.566  19.308  10.428
28129W        W93114  41.447   1.519   3.153
28130W        W93115   1.255  22.837  13.881
28131W        W93116  37.025  28.808   0.675
28132W        W93117  13.310  11.833   0.820
28133W        W93118  34.506  43.982  12.894
28134W        W93119  44.718   1.368   2.167
28135W        W93120  21.658  31.693  14.771
28136W        W93121  43.828  20.242  11.931
28137W        W93122  14.712  21.633   4.611
28138W        W93123  17.342  11.976  13.074
28139W        W93124  21.742  37.348   1.838
28140W        W93125  11.564  27.374  10.752
28141W        W93126  31.950  37.995  10.697
28142W        W93127  15.598  27.926  13.170
28143W        W93128  23.247  36.628   0.850
28144W        W93129  14.034  29.033   3.218
28145W        W93130   3.447  15.356   2.268
28146W        W93131  25.556  21.256   0.363
28147W        W93132  42.435  21.778  10.660
28148W        W93133  26.284  41.466  11.810
28149W        W93134  42.965  14.614   1.726
28150W        W93135  14.212   7.428  11.672
28151W        W93136  40.831  22.130  11.306
28152W        W93137  38.192   7.661   2.763
28153W        W93138  31.474  37.959  12.466
28154W        W93139  14.346  10.314  11.791
28155W        W93140  32.102  14.377   3.703
28156W        W93141   3.679  18.744   2.745
28157W        W93142  31.367  41.821   0.366
28158W        W93143   5.024  28.972  10.661
28159W        W93144   8.976  34.053   2.944
28160W        W93145   1.506  25.202   0.030
28161W        W93146  27.507  28.225  14.138
28162W        W93147  11.511  38.695  14.246
28163W        W93148   8.603  20.149  10.925
28164W        W93149  19.611  13.771   3.631
28165W        W93150  22.026  37.430  14.809
28166W        W93151  10.947  36.637  14.857
28167W        W93152  21.524   6.360  12.757
28168W        W93153   4.188  37.773   0.742
28169W        W93154  12.053   3.394  10.577
28170W        W93155  11.713  18.957  13.896
28171W        W93156  18.595  38.333   2.182
28172W        W93157  27.602   0.796  11.637
28173W        W93158  25.154  27.965  12.942
28174W        W93159  31.946  14.587  12.001
28175W        W93160  27.026  13.881  11.505
28176W        W93161  22.750  32.117  12.660
28177W        W93162  39.079   8.920  12.211
28178W        W93163  36.777  33.445   2.801
28179W        W93164  40.714   5.217   3.177
28180W        W93165   5.900  37.787  13.731
28181W        W93166  32.570  19.417   2.342
28182W        W93167  27.424  25.554   4.914
28183W        W93168  17.196  24.032  12.418
28184W        W93169  21.234   0.137  13.964
28185W        W93170   4.847   3.740  12.399
28186W        W93171  42.823  32.853  13.089
28187W        W93172  10.702  19.754  13.436
28188W        W93173   6.208   6.031   2.666
28189W        W93174  22.781  35.399   0.448
28190W        W93175  43.352  23.967   3.433
28191W        W93176  24.830  34.390   1.616
28192W        W93177   2.062  42.301  13.837
28193W        W93178  17.233  42.410  10.162
28194W        W93179  36.417   1.401   4.499
28195W        W93180  16.000   5.242   3.090
28196W        W93181  29.301  20.185   0.733
28197W        W93182  23.294  43.538  11.170
28198W        W93183  29.074   2.223   2.787
28199W        W93184   8.835  35.983   0.088
28200W        W93185  34.293   1.333   3.546
28201W        W93186  28.701  31.841   0.157
28202W        W93187  40.543  42.818   2.562
28203W        W93188  15.925  33.289   5.098
28204W        W93189   9.688  24.772  12.596
28205W        W93190   7.370  10.268  11.123
28206W        W93191  31.189  22.039  13.823
28207W        W93192  32.116   2.386   1.885
28208W        W93193  37.001  16.337  11.440
28209W        W93194  42.455   1.739  13.158
28210W        W93195  11.836  35.347   2.836
28211W        W93196  21.568   4.965   0.417
28212W        W93197   8.800  27.087   3.385
28213W        W93198  42.816  11.253  12.488
28214W        W93199  40.546  21.045  11.944
28215W        W93200   4.637  18.619   4.552
28216W        W93201  33.949  20.499   4.681
28217W        W93202  23.320  37.326  11.517
28218W        W93203   1.648  40.952   0.894
28219W        W93204   9.810  41.464  14.463
28220W        W93205  44.872  31.508  12.901
28221W        W93206   0.313  30.182   0.763
28222W        W93207  42.760  27.611   2.618
28223W        W93208  29.577   5.142   3.559
28224W        W93209   2.870  35.167  12.089
28225W        W93210  14.002   2.697   1.466
28226W        W93211   9.020  10.154   1.342
28227W        W93212  13.383  43.207  11.716
28228W        W93213   6.897   1.986   1.312
28229W        W93214  24.023  40.096  14.879
28230W        W93215  38.425  35.197   3.207
28231W        W93216   2.686  44.841   0.381
28232W        W93217  13.974  31.378   9.909
28233W        W93218  42.562   6.475  14.823
28234W        W93219  19.600  29.701  13.469
28235W        W93220   3.818   6.839  11.843
28236W        W93221  34.951  35.422   0.235
28237W        W93222  36.699  18.258   1.271
28238W        W93223   9.191  39.458  12.710
28239W        W93224  40.097  43.847  11.978
28240W        W93225  16.128   1.340   0.808
28241W        W93226  14.143  17.385   3.115
28242W        W93227  42.806   5.034  11.208
28243W        W93228  26.734  44.506  12.049
28244W        W93229   8.285   6.686  14.850
28245W        W93230  32.072  15.601  11.147
28246W        W93231  39.314  29.415  10.764
28247W        W93232  24.242   8.278   0.311
28248W        W93233  22.758  32.271   5.279
28249W        W93234  31.856  15.106  14.054
28250W        W93235  10.594   3.693   2.198
28251W        W93236   7.231  42.280   2.928
28252W        W93237  30.812  35.009   1.374
28253W        W93238   3.169  12.702   2.221
28254W        W93239  32.561  13.843  11.604
28255W        W93240  32.987  22.749   4.270
28256W        W93241  32.598  21.312  14.376
28257W        W93242  15.308  13.568  12.995
28258W        W93243  34.239  42.330   1.800
28259W        W93244  16.088   4.847  11.928
28260W        W93245  16.179   7.467  14.377
28261W        W93246  31.447  39.488  13.734
28262W        W93247  39.419  37.806   4.321
28263W        W93248  40.582  13.328   1.808
28264W        W93249  12.814   8.113  10.744
28265W        W93250  42.495  29.107  10.289
28266W        W93251   7.279  21.117  12.455
28267W        W93252  38.101  21.545  14.421
28268W        W93253   3.362  43.090   3.815
28269W        W93254  12.959   2.033  12.061
28270W        W93255  31.653  41.512  11.145
28271W        W93256   5.679   3.475   3.079
28272W        W93257   7.929  10.382  12.980
28273W        W93258  41.281  44.955   2.654
28274W        W93259  13.181  30.915   4.567
28275W        W93260   4.670   2.810  12.458
28276W        W93261  41.595  44.843  13.360
28277W        W93262   3.715  24.677  13.904
28278W        W93263  27.042  15.642  10.379
28279W        W93264  30.432  38.943   0.108
28280W        W93265   6.628  28.549   2.363
28281W        W93266  34.374  42.322   4.194
28282W        W93267  39.814   8.762  14.119
28283W        W93268   9.758  14.281   3.705
28284W        W93269  38.812  30.253  12.823
28285W        W93270  44.381  28.198   1.704
28286W        W93271  36.028  44.759   2.725
28287W        W93272   5.941   0.245   0.546
28288W        W93273  38.469   0.514   4.070
28289W        W93274  30.894  39.183  13.536
28290W        W93275  11.961  19.723   1.505
28291W        W93276   5.339  27.155   1.916
28292W        W93277  14.816   8.298  14.827
28293W        W93278  40.271  21.244  13.881
28294W        W93279  20.587  24.520  11.992
28295W        W93280  22.902  10.481   3.157
28296W        W93281  33.566  17.317  14.349
28297W        W93282  41.385  37.802   1.858
28298W        W93283  22.768  27.392  14.912
28299W        W93284  12.685  35.703  12.936
28300W        W93285   1.808   8.205  11.653
28301W        W93286  19.313  38.269  10.767
28302W        W93287  19.962   2.807  11.445
28303W        W93288  13.856   7.623   3.614
28304W        W93289  27.801   9.939   2.891
28305W        W93290  12.817  12.099   0.311
28306W        W93291  32.795  33.781   1.458
28307W        W93292  41.791  11.566  11.556
28308W        W93293  24.895  21.131  14.258
28309W        W93294  44.752  19.183   3.394
28310W        W93295   9.840  20.161  10.898
28311W        W93296  14.293  16.256   2.387
28312W        W93297  27.905  39.221  13.054
28313W        W93298  44.039  37.526  12.062
28314W        W93299  24.003   4.868   3.156
28315W        W93300   9.405  40.926   2.188
28316W        W93301  27.122   3.903   4.555
28317W        W93302  43.173  42.856  11.312
28318W        W93303  40.881  13.112   3.991
28319W        W93304   5.846  12.279  11.873
28320W        W93305  37.035  33.885   2.672
28321W        W93306  27.554  17.961  12.747
28322W        W93307  20.712  27.783   0.458
28323W        W93308  31.491  16.249   2.757
28324W        W93309  21.080  27.963   3.720
28325W        W93310  17.016  14.649  11.416
28326W        W93311  44.862  14.826   1.239
28327W        W93312   2.027  36.415   0.955
28328W        W93313  37.027   1.005   2.820
28329W        W93314   3.882  32.642  14.359
28330W        W93315  21.231  39.488   1.654
28331W        W93316  43.387  43.227  14.416
28332W        W93317  15.201  15.608  12.417
28333W        W93318  17.449  33.535   1.710
28334W        W93319  22.599  31.573  11.508
28335W        W93320   9.820  20.085   2.210
28336W        W93321  22.666  43.285   0.909
28337W        W93322  20.258  32.604  10.788
28338W        W93323  30.946   5.685   3.559
28339W        W93324  37.651   0.456   3.617
28340W        W93325  41.458  10.685   0.812
28341W        W93326  21.545  30.239  13.065
28342W        W93327  11.389  19.890   0.481
28343W        W93328  18.462   9.455   1.511
28344W        W93329  40.833  19.475   0.235
28345W        W93330  21.667  40.455  11.582
28346W        W93331   1.008  17.709   4.870
28347W        W93332  22.119  43.166  13.875
28348W        W93333   9.298  41.364  12.722
28349W        W93334  18.862  19.900  14.537
28350W        W93335  36.582  35.830   2.470
28351W        W93336   6.249  19.106  12.749
28352W        W93337  12.278   6.712  12.966
28353W        W93338  14.263  39.251   2.218
28354W        W93339   3.747   9.363  11.949
28355W        W93340  29.596  11.732   0.175
28356W        W93341  36.561  20.598  10.694
28357W        W93342  12.720  20.187   1.916
28358W        W93343  32.411   4.534  10.077
28359W        W93344  36.815  43.590   0.657
28360W        W93345   7.782  37.885  12.994
28361W        W93346  30.866  15.699   2.329
28362W        W93347  24.396  21.884  14.447
28363W        W93348   4.216  41.515   3.696
28364W        W93349  44.354  19.043   1.001
28365W        W93350   6.178  23.194  10.483
28366W        W93351   7.257   0.908   3.302
28367W        W93352  40.591  26.205  11.985
28368W        W93353  26.689  39.793  13.520
28369W        W93354  21.738  27.562   2.125
28370W        W93355   0.428   2.398   1.258
28371W        W93356   6.303   3.983  14.290
28372W        W93357  26.936  27.187  14.886
28373W        W93358  44.579  17.069  11.411
28374W        W93359   6.876  16.955   2.911
28375W        W93360  23.608  32.635  13.486
28376W        W93361  35.635  16.949  13.718
28377W        W93362  21.230  32.459  14.716
28378W        W93363  30.164  35.015  14.019
28379W        W93364  10.921   7.453  11.246
28380W        W93365   8.690  10.097  13.837
28381W        W93366  24.160  21.777   1.829
28382W        W93367  27.622  14.370   3.672
28383W        W93368  31.244  26.741   1.425
28384W        W93369  25.152  37.904  13.863
28385W        W93370  27.185   3.192  12.457
28386W        W93371  36.535   2.193  11.847
28387W        W93372  10.124  25.146   2.903
28388W        W93373   1.826  37.139   1.373
28389W        W93374  31.717   9.799   2.873
28390W        W93375  18.283  36.547  14.405
28391W        W93376   3.311   0.346  11.481
28392W        W93377   9.301  11.277   3.396
28393W        W93378  19.698   5.017   4.042
28394W        W93379  17.373  44.699  10.721
28395W        W93380  40.634  12.202   4.295
28396W        W93381  43.228  29.202  12.857
28397W        W93382   9.064   3.880  11.632
28398W        W93383  17.334  43.925   3.214
28399W        W93384   3.875  40.398  10.750
28400W        W93385   5.827  18.719   1.280
28401W        W93386   4.670  23.339   0.315
28402W        W93387   7.140   2.325  11.248
28403W        W93388  10.434   5.308  13.871
28404W        W93389  29.169   9.847  11.514
28405W        W93390  25.774  27.106  12.582
28406W        W93391  40.859  38.594  14.776
28407W        W93392   2.399  16.360   2.626
28408W        W93393  25.489   6.046  13.934
28409W        W93394  40.534  26.099   3.831
28410W        W93395   3.115  16.648   1.271
28411W        W93396  32.976  10.841  11.048
28412W        W93397  36.596  37.593   2.144
28413W        W93398  32.519   4.231  11.068
28414W        W93399  24.109   1.990  10.085
28415W        W93400  34.191  35.429   1.413
28416W        W93401   6.138  24.509  12.087
28417W        W93402   4.454   3.904   4.538
28418W        W93403  43.200  10.190  11.115
28419W        W93404   3.244  35.819   1.481
28420W        W93405   1.804  38.356  11.586
28421W        W93406  42.291  33.442   1.823
28422W        W93407  25.501   4.294   3.603
28423W        W93408  11.144  38.499  12.475
28424W        W93409  42.806  11.046   0.163
28425W        W93410  30.072  34.597   0.731
28426W        W93411   1.554  24.482  12.065
28427W        W93412  33.088  41.462  10.415
28428W        W93413  17.843  20.121   1.260
28429W        W93414  12.788  42.013   0.493
28430W        W93415  28.174  13.652   0.432
28431W        W93416  11.874  13.753  13.468
28432W        W93417  19.995  24.630   1.445
28433W        W93418  39.491  17.300   1.994
28434W        W93419  44.217   6.681   4.128
28435W        W93420  39.006  28.605   1.586
28436W        W93421  29.258  21.828  12.267
28437W        W93422  38.365  15.300  11.719
28438W        W93423  25.516  20.111  12.503
28439W        W93424  28.207   0.677  11.278
28440W        W93425  42.544  19.840   2.953
28441W        W93426  43.429  34.919   3.762
28442W        W93427  29.735  36.899  11.010
28443W        W93428  11.185  22.298   4.100
28444W        W93429  16.895  12.102   5.106
28445W        W93430   1.081  33.018  14.304
28446W        W93431   0.401  19.274  10.707
28447W        W93432  28.093   2.875   1.525
28448W        W93433   4.961  27.659  11.410
28449W        W93434  22.762  15.839   3.503
28450W        W93435  34.787  44.662  12.213
28451W        W93436  18.101  36.481  12.051
28452W        W93437  36.104   7.915  11.179
28453W        W93438  19.223  23.072  13.866
28454W        W93439  39.936  26.094  12.942
28455W        W93440   7.606  22.714  12.895
28456W        W93441  17.189   5.331  13.584
28457W        W93442  26.952  15.209   1.389
28458W        W93443   6.843   4.588  13.895
28459W        W93444  40.221   3.386  14.263
28460W        W93445  43.431  12.134   1.195
28461W        W93446   5.770  16.005  14.529
28462W        W93447  24.806   0.260   2.653
28463W        W93448  34.130  35.839   2.850
28464W        W93449  37.292  12.527   0.277
28465W        W93450  18.869  16.206  14.002
28466W        W93451  28.453  35.046  14.400
28467W        W93452   3.764   5.113  14.322
28468W        W93453  41.903  39.420  11.909
28469W        W93454  22.187  32.026   3.401
28470W        W93455  34.851  30.463   0.752
28471W        W93456  41.990  14.319  12.457
28472W        W93457  37.457  10.282  12.839
28473W        W93458   3.894  29.463  12.865
28474W        W93459  11.667  43.217  10.373
28475W        W93460  44.086  12.226   3.723
28476W        W93461  37.301  25.562   1.741
28477W        W93462   0.695  15.064   4.190
28478W        W93463  31.066  13.328  11.701
28479W        W93464  33.864  27.461   3.238
28480W        W93465  22.531   9.120   2.417
28481W        W93466  10.721   8.395  10.792
28482W        W93467  24.142  13.222  14.337
28483W        W93468  13.153  32.249   1.869
28484W        W93469   4.433  34.451  12.781
28485W        W93470  44.005  12.195  11.912
28486W        W93471   2.889  31.774   2.693
28487W        W93472  10.816  20.041   1.363
28488W        W93473  21.378  40.261  11.956
28489W        W93474  20.500  37.142  10.427
28490W        W93475  11.616   0.844  13.574
28491W        W93476  27.425  32.389  13.432
28492W        W93477   5.205  10.191   3.005
28493W        W93478   5.965   1.815  14.678
28494W        W93479  34.583  13.800   4.942
28495W        W93480   5.119  27.070   4.117
28496W        W93481  37.905  27.550   2.314
28497W        W93482   4.482  12.924   3.559
28498W        W93483   4.207   7.542  10.056
28499W        W93484  42.762   2.959  11.261
28500W        W93485  24.285  42.918   1.714
28501W        W93486  35.018  39.870   1.775
28502W        W93487  21.988  39.326  10.396
28503W        W93488  38.645  39.331  14.935
28504W        W93489  43.813  24.227  14.486
28505W        W93490   2.413   0.223  14.236
28506W        W93491  29.101   0.939  11.687
28507W        W93492  44.272   0.459  14.831
28508W        W93493  19.628  22.786  11.623
28509W        W93494   2.933   1.527  14.064
28510W        W93495  37.257  32.710   1.360
28511W        W93496   8.406  38.886  14.058
28512W        W93497  28.737  16.764  13.461
28513W        W93498  19.777   6.197  12.396
28514W        W93499  40.931  44.982  14.877
28515W        W93500  18.377  11.624   4.665
28516W        W93501  15.701  43.751  11.866
28517W        W93502  43.564  22.894   3.641
28518W        W93503  23.509  22.126   2.324
28519W        W93504  21.227  11.204   3.460
28520W        W93505   7.340  21.470   4.653
28521W        W93506  23.550  38.350   3.990
28522W        W93507  32.196  31.121   2.745
28523W        W93508  14.771  17.091  12.745
28524W        W93509  26.825  18.504  13.640
28525W        W93510   8.884  28.048  14.593
28526W        W93511   5.298  37.776   2.435
28527W        W93512  16.136  33.475   3.364
28528W        W93513  28.658  34.152  11.318
28529W        W93514  16.525  40.017  13.583
28530W        W93515  21.020   8.888  12.124
28531W        W93516  31.452  28.235   1.678
28532W        W93517  36.549  34.808  14.010
28533W        W93518  34.932  29.869   0.678
28534W        W93519  12.023  41.283   3.802
28535W        W93520  15.822  38.564   1.841
28536W        W93521  26.061  35.415  11.416
28537W        W93522  12.361  11.544  12.960
28538W        W93523  38.213   6.280   1.484
28539W        W93524   5.248  43.666  14.047
28540W        W93525   0.932  40.274  10.339
28541W        W93526   3.789  18.678  14.971
28542W        W93527  12.702  24.235   4.117
28543W        W93528  38.344  16.893   3.347
28544W        W93529  10.520  28.656  13.399
28545W        W93530  11.857  25.603   1.836
28546W        W93531  24.469   1.198   0.859
28547W        W93532  42.955  18.189   5.010
28548W        W93533  44.719  25.937   2.279
28549W        W93534   9.561  21.492  13.259
28550W        W93535   8.122  13.059  10.876
28551W        W93536  29.915   5.262  12.876
28552W        W93537  33.658  14.265   5.059
28553W        W93538  14.760  13.277   1.733
28554W        W93539   4.352  32.468   2.383
28555W        W93540  40.868   6.209  14.921
28556W        W93541  11.627  31.963  11.704
28557W        W93542   0.389  15.567   2.567
28558W        W93543  30.563   0.550  11.411
28559W        W93544  29.851  10.736   3.811
28560W        W93545  41.842  30.370  14.228
28561W        W93546  31.114  41.324   4.057
28562W        W93547  34.675  20.184   0.004
28563W        W93548  22.998  31.324   3.338
28564W        W93549  36.795  41.988   4.197
28565W        W93550  44.012   2.342   1.287
28566W        W93551  37.521  32.842   4.856
28567W        W93552  39.930   1.215   4.438
28568W        W93553   9.358   4.442   2.632
28569W        W93554  13.717  31.663  14.792
28570W        W93555  28.657  16.275  14.958
28571W        W93556  41.894  19.631   0.463
28572W        W93557   6.839  21.091   4.559
28573W        W93558  14.950  40.750   0.717
28574W        W93559   0.306   2.868  14.126
28575W        W93560   9.201  44.428  12.461
28576W        W93561  28.919  22.735  14.412
28577W        W93562  17.312  34.429  14.281
28578W        W93563  23.024   2.995  10.817
28579W        W93564  22.208  29.405  11.860
28580W        W93565  15.354  10.657   4.340
28581W        W93566  21.486  26.703   0.791
28582W        W93567   5.291   4.927   9.913
28583W        W93568  19.201  40.574   3.086
28584W        W93569  25.009  40.380  12.074
28585W        W93570   9.197  31.983   0.243
28586W        W93571  15.777  32.971  13.398
28587W        W93572   9.389   0.623   2.740
28588W        W93573  21.375   3.189  10.658
28589W        W93574  40.613   6.231   1.288
28590W        W93575  29.656  11.791   1.643
28591W        W93576  27.364  37.817   1.764
28592W        W93577  30.861  35.207  12.652
28593W        W93578   6.621  30.844   0.964
28594W        W93579  32.014  16.757   4.361
28595W        W93580  12.115  42.526  13.786
28596W        W93581   4.704   8.809   0.348
28597W        W93582   9.132  14.354  12.561
28598W        W93583  18.582  24.067  13.712
28599W        W93584  36.579   7.862  12.492
28600W        W93585  24.061  38.983   0.987
28601W        W93586  26.134  42.011  14.659
28602W        W93587  11.410  15.832  13.450
28603W        W93588  13.032  17.975   0.316
28604W        W93589  18.954  23.509  14.023
28605W        W93590  44.680  13.204  12.687
28606W        W93591  34.587  39.346  12.205
28607W        W93592  34.934  21.621  12.548
28608W        W93593  14.543  19.784   4.207
28609W        W93594  27.386  43.807   0.083
28610W        W93595   0.876  40.340   0.841
28611W        W93596  33.999  22.392   1.411
28612W        W93597  26.679  35.032  13.921
28613W        W93598   0.751  42.022   4.109
28614W        W93599  33.941   1.365   4.772
28615W        W93600  15.850  29.592   2.244
28616W        W93601  12.171  15.615   4.398
28617W        W93602  24.146   3.832   4.188
28618W        W93603  10.170  24.058   4.652
28619W        W93604  38.415   7.792   4.614
28620W        W93605  36.798  11.581  14.378
28621W        W93606  30.990  30.429  14.011
28622W        W93607  34.606  13.471  10.138
28623W        W93608  23.986  41.226  14.304
28624W        W93609  15.595  33.047   4.378
28625W        W93610  35.753  13.113  13.020
28626W        W93611  10.314  37.913   1.747
28627W        W93612  29.247  15.749  10.749
28628W        W93613  38.899  38.132   0.390
28629W        W93614   7.839   6.803   0.817
28630W        W93615  40.824  30.856   2.756
28631W        W93616  38.397  43.967  14.385
28632W        W93617  44.681   9.222  10.801
28633W        W93618  31.646  29.615  14.500
28634W        W93619  36.364  36.765   1.204
28635W        W93620  27.947  15.609   4.993
28636W        W93621  11.180  25.463  10.355
28637W        W93622   0.331   7.336  10.680
28638W        W93623  29.479  40.527   2.958
28639W        W93624  34.392   3.660  13.933
28640W        W93625  41.065  36.533  12.840
28641W        W93626  17.099  35.457   4.795
28642W        W93627  29.171   4.988  13.427
28643W        W93628  23.242  36.316   0.417
28644W        W93629  10.384  38.124  12.121
28645W        W93630  30.020  13.620   0.920
28646W        W93631  34.055   7.350   0.381
28647W        W93632  32.908  27.144  13.353
28648W        W93633   9.201  27.636  10.801
28649W        W93634  18.665  33.454   2.655
28650W        W93635  22.836  17.732  13.486
28651W        W93636   6.264  23.663  13.975
28652W        W93637   2.842  15.496  13.021
28653W        W93638   5.177   1.202   3.516
28654W        W93639  10.278  42.932  12.792
28655W        W93640  12.347  16.110   4.460
28656W        W93641   6.921   3.240  13.824
28657W        W93642  17.469   6.202   0.914
28658W        W93643  11.618   7.194  14.757
28659W        W93644  16.816   7.370   4.081
28660W        W93645  17.724  20.185  12.608
28661W        W93646  33.187  38.089  14.765
28662W        W93647  34.610  23.131   4.254
28663W        W93648  29.981  17.808   1.793
28664W        W93649   8.803  16.206   1.608
28665W        W93650  28.011  25.402  14.049
28666W        W93651  21.688  19.023   2.716
28667W        W93652   5.892   4.335   1.613
28668W        W93653  29.876  36.785   1.876
28669W        W93654  18.553  39.869  13.523
28670W        W93655  37.932  34.994  14.438
28671W        W93656   5.239  19.816  12.413
28672W        W93657  33.393   4.216  11.342
28673W        W93658  18.255  14.692   4.542
28674W        W93659   9.974  44.412   3.149
28675W        W93660  32.414  42.048  12.501
28676W        W93661  12.119  30.653  11.898
28677W        W93662   4.671  35.271  13.341
28678W        W93663  41.524  18.981   0.706
28679W        W93664   4.490  43.322   1.349
28680W        W93665  34.579  14.124   1.403
28681W        W93666  35.756  11.420  13.138
28682W        W93667  21.231  33.636  10.715
28683W        W93668   7.844  33.962  12.825
28684W        W93669  19.182  31.635  13.139
28685W        W93670  18.801  13.732   3.119
28686W        W93671  31.083  17.522   2.836
28687W        W93672  31.962  30.313   3.996
28688W        W93673   6.236  24.209   1.844
28689W        W93674   3.920   5.381  11.575
28690W        W93675  18.615   1.193   2.816
28691W        W93676  10.656  36.808   2.330
28692W        W93677  34.169  40.552  11.630
28693W        W93678  17.171  20.670  11.114
28694W        W93679  37.813  35.659   0.869
28695W        W93680  31.619  43.771   3.253
28696W        W93681   7.638   8.844  13.984
28697W        W93682  13.138  23.463  13.049
28698W        W93683  18.364  30.018  12.542
28699W        W93684  38.667  32.946   0.432
28700W        W93685  21.962  30.341  12.257
28701W        W93686  14.290  12.640   1.454
28702W        W93687  15.968  17.389   2.723
28703W        W93688  16.906   5.302   3.927
28704W        W93689  11.339   0.480  12.000
28705W        W93690   5.646  20.169  13.844
28706W        W93691   6.855  15.321  10.534
28707W        W93692  36.544  25.487  12.849
28708W        W93693   7.201   8.303   4.551
28709W        W93694  31.671  28.685  11.510
28710W        W93695  37.066  18.534  11.080
28711W        W93696  33.594  36.499  10.731
28712W        W93697  37.312  28.576  14.790
28713W        W93698  18.979   5.288   5.025
28714W        W93699  26.145  42.013   4.467
28715W        W93700  34.102  22.934   1.478
28716W        W93701  22.226  35.839  13.116
28717W        W93702   7.515   7.275   1.508
28718W        W93703  24.025  22.297   1.769
28719W        W93704   5.774  12.030  11.433
28720W        W93705   1.894   1.203  11.554
28721W        W93706  32.838  31.492   3.565
28722W        W93707  20.260   1.379   2.663
28723W        W93708  31.038  43.562   2.307
28724W        W93709  27.770  13.225   4.627
28725W        W93710  26.400   7.315  12.851
28726W        W93711  34.424  27.006   4.233
28727W        W93712   4.143  13.044   1.134
28728W        W93713  25.671  17.632  14.506
28729W        W93714  10.507   6.174   4.204
28730W        W93715   6.312  29.072   4.697
28731W        W93716  35.525  24.247  12.927
28732W        W93717   3.297  17.366   2.935
28733W        W93718  22.433  31.878  13.052
28734W        W93719  42.789   2.526   0.459
28735W        W93720  27.123  23.029   3.836
28736W        W93721  19.627  16.974   1.850
28737W        W93722  36.204  32.443   0.233
28738W        W93723  36.349  43.760  12.874
28739W        W93724  40.400  23.892  13.058
28740W        W93725  19.727  38.372   2.715
28741W        W93726  17.551   2.924   0.338
28742W        W93727   6.490  40.591   0.914
28743W        W93728  30.837  44.005   2.130
28744W        W93729   1.149  22.941   3.139
28745W        W93730  23.406  28.061  10.560
28746W        W93731  32.697   6.311   3.381
28747W        W93732  36.781  23.565  11.705
28748W        W93733  10.722  32.523   2.737
28749W        W93734  38.990  14.776  10.778
28750W        W93735  13.342  17.002   0.447
28751W        W93736  44.761  23.050  11.473
28752W        W93737  42.323  14.546   3.928
28753W        W93738  32.814  16.594  13.427
28754W        W93739  25.493  39.575   2.775
28755W        W93740  24.669  28.566   0.733
28756W        W93741  34.419  25.744  11.928
28757W        W93742  30.477  28.135   0.355
28758W        W93743  36.601  34.880   0.649
28759W        W93744   1.685  17.728  11.281
28760W        W93745  22.137   1.450   3.147
28761W        W93746   0.291  44.240   3.698
28762W        W93747  19.937  23.066  14.954
28763W        W93748  22.133   6.867   3.061
28764W        W93749  20.721  19.880   0.466
28765W        W93750  20.638  35.558   0.300
28766W        W93751  43.801  29.967   4.389
28767W        W93752  42.022  32.223  14.908
28768W        W93753   2.336  11.099   4.522
28769W        W93754  12.651   4.470   1.782
28770W        W93755  39.667   5.678   2.797
28771W        W93756  27.513  17.636   3.908
28772W        W93757  23.225  32.176   3.634
28773W        W93758   7.252  23.204   3.813
28774W        W93759  41.370  23.580   5.234
28775W        W93760   0.822  36.879   0.458
28776W        W93761  18.915  20.669  14.929
28777W        W93762   5.928   4.245   0.217
28778W        W93763  10.701  14.224   2.280
28779W        W93764  10.922   4.784   1.412
28780W        W93765  20.712   2.911   4.791
28781W        W93766  28.996   0.363  12.452
28782W        W93767  32.650  28.611   1.245
28783W        W93768  15.785  44.976   0.251
28784W        W93769   7.322  20.599  12.619
28785W        W93770  37.804   5.873  14.935
28786W        W93771  21.819   0.286   0.258
28787W        W93772  40.762   2.055  10.988
28788W        W93773  16.061  36.018  10.719
28789W        W93774   3.885   9.751   1.200
28790W        W93775   7.335  29.594  11.525
28791W        W93776  12.398   4.297   0.401
28792W        W93777  35.075  10.873  12.022
28793W        W93778  19.261  17.754  11.626
28794W        W93779  16.880  15.545  12.043
28795W        W93780  15.510  11.353   0.174
28796W        W93781  26.448  40.498  13.122
28797W        W93782   4.913  34.168  11.251
28798W        W93783  36.971  25.019   4.475
28799W        W93784  41.474  28.145  12.943
28800W        W93785  33.405  23.615   3.113
28801W        W93786  38.996  43.110   1.796
28802W        W93787  44.925  41.723  12.876
28803W        W93788  17.049  23.305   4.084
28804W        W93789  43.969  39.857  11.450
28805W        W93790  26.293  36.896  11.096
28806W        W93791  21.168  13.643  13.761
28807W        W93792  13.335  39.407   1.327
28808W        W93793   8.631  13.024   5.106
28809W        W93794  32.808  15.090   4.086
28810W        W93795   3.904  28.440  14.392
28811W        W93796  30.768   1.047   4.197
28812W        W93797   0.805  24.552  12.984
28813W        W93798  12.929   8.615  10.845
28814W        W93799  38.807  10.810  11.927
28815W        W93800  25.217   1.382  14.226
28816W        W93801  30.902  27.911  14.460
28817W        W93802  26.694  34.647   4.140
28818W        W93803  25.583   4.309  13.928
28819W        W93804  13.932  40.893   0.967
28820W        W93805  16.187  33.576   2.861
28821W        W93806  31.958  25.763  12.116
28822W        W93807  22.089  17.019   4.676
28823W        W93808  38.254   6.744   1.719
28824W        W93809  20.955  22.489  12.526
28825W        W93810   4.436   5.203  13.250
28826W        W93811   5.976  41.464   4.263
28827W        W93812  42.287   3.407  10.676
28828W        W93813  42.924  18.927   2.856
28829W        W93814  29.671  11.602  14.413
28830W        W93815  41.979  34.491  12.340
28831W        W93816  44.460   7.177  12.281
28832W        W93817  33.975  32.948  10.739
28833W        W93818  33.952  35.900   1.509
28834W        W93819   4.657   6.211  10.062
28835W        W93820  26.730  11.545   0.531
28836W        W93821  26.799  23.579   4.579
28837W        W93822  15.687  31.450   4.138
28838W        W93823   6.963  38.595  13.654
28839W        W93824   7.810  10.411  14.477
28840W        W93825  34.004   6.724   3.549
28841W        W93826  11.346  29.083   4.548
28842W        W93827  22.441  20.568   4.519
28843W        W93828   6.318  13.151   1.897
28844W        W93829  13.804  20.082   4.062
28845W        W93830   7.730  17.743   2.393
28846W        W93831  34.818  39.352   0.449
28847W        W93832  26.621  23.595   2.178
28848W        W93833  22.711  16.768  10.484
28849W        W93834  16.856  25.766  12.949
28850W        W93835   0.983  15.012   1.886
28851W        W93836  42.343   6.948   1.443
28852W        W93837  22.327  41.079  11.648
28853W        W93838   4.960  13.421   4.180
28854W        W93839   7.720  37.029  13.474
28855W        W93840  21.623  18.595  10.812
28856W        W93841  37.116   0.989  13.828
28857W        W93842  13.665   9.190  10.422
28858W        W93843  11.113   3.370  13.979
28859W        W93844  18.640  43.016  14.792
28860W        W93845  34.531  22.917  12.769
28861W        W93846  12.690  34.516   1.773
28862W        W93847   0.701   0.720  10.923
28863W        W93848  40.726   7.835   0.443
28864W        W93849  10.319  11.118   2.741
28865W        W93850   9.414  16.792   3.742
28866W        W93851  16.251  10.839   3.240
28867W        W93852  23.039   8.296   0.689
28868W        W93853  13.764  29.914   3.078
28869W        W93854  10.378   0.084  11.320
28870W        W93855  19.122  31.959   3.119
28871W        W93856  44.804  14.732   3.432
28872W        W93857  14.250  11.218   3.307
28873W        W93858  17.807   0.101   1.580
28874W        W93859  26.258  16.629   1.292
28875W        W93860   6.924  10.651   1.848
28876W        W93861  13.863  13.273  10.706
28877W        W93862  42.344  35.125   0.896
28878W        W93863  17.519   6.228   2.387
28879W        W93864  38.579   4.438  11.587
28880W        W93865   9.990  11.666   4.154
28881W        W93866  16.474  17.368   2.699
28882W        W93867  13.616   3.482  13.581
28883W        W93868  26.135  30.672   3.566
28884W        W93869  14.586   8.742   4.115
28885W        W93870  34.087  18.023  11.538
28886W        W93871  25.096  24.072  12.216
28887W        W93872  38.607   3.647  12.870
28888W        W93873  23.945  28.501   3.576
28889W        W93874  30.027   0.893   2.630
28890W        W93875  44.702  29.609   4.614
28891W        W93876  17.102   9.171   1.819
28892W        W93877  41.406  24.036  13.314
28893W        W93878  30.365   5.492   0.355
28894W        W93879  28.453  17.537  12.837
28895W        W93880  34.634   8.105  12.472
28896W        W93881  20.806   1.887   1.830
28897W        W93882  10.692  30.164   1.440
28898W        W93883  16.830   8.149  10.173
28899W        W93884  30.641  16.145   4.951
28900W        W93885  24.691  10.281  11.553
28901W        W93886  28.379  17.179   0.919
28902W        W93887  24.726  17.958  12.085
28903W        W93888   3.871  26.710  11.848
28904W        W93889   7.766  15.687   4.971
28905W        W93890  28.514  15.539  13.102
28906W        W93891  18.097  42.028   0.087
28907W        W93892  14.822  35.063   0.681
28908W        W93893   8.426  36.359  13.533
28909W        W93894  17.942  39.157  13.440
28910W        W93895   6.744  39.408   0.927
28911W        W93896  33.582  29.722   2.261
28912W        W93897  32.372  24.980   0.006
28913W        W93898   0.386  41.871   1.759
28914W        W93899  29.876  12.364  11.911
28915W        W93900  23.321  29.071   4.544
28916W        W93901  12.640  15.476   4.195
28917W        W93902   7.454  15.132  10.326
28918W        W93903  35.272  23.557  10.749
28919W        W93904  41.532   0.261  13.846
28920W        W93905  23.735   1.855   2.658
28921W        W93906  31.461   2.088   4.961
28922W        W93907  29.021  44.735  14.865
28923W        W93908  35.580   3.268   2.246
28924W        W93909  16.413   4.359  14.836
28925W        W93910  29.429  31.173   3.271
28926W        W93911  37.566  29.724   1.810
28927W        W93912  41.725   2.126  12.119
28928W        W93913   8.525  28.718  11.210
28929W        W93914  36.080   8.758   1.230
28930W        W93915  18.572  35.825  13.921
28931W        W93916  23.495  42.557   1.325
28932W        W93917  15.630  20.389  10.171
28933W        W93918  41.380  17.746  13.560
28934W        W93919  33.970  17.319   3.399
28935W        W93920  42.560  32.002  12.055
28936W        W93921  13.785  14.100  10.996
28937W        W93922   0.778  22.000  10.476
28938W        W93923  29.581  24.423   3.447
28939W        W93924  19.149  25.724  12.867
28940W        W93925  22.692  42.456  12.082
28941W        W93926  12.435   6.837  11.920
28942W        W93927  31.445   0.533  13.538
28943W        W93928  12.395   4.910   1.977
28944W        W93929   6.197  21.280  10.430
28945W        W93930  33.434  36.827  11.436
28946W        W93931  12.112  41.271  11.555
28947W        W93932  24.925  15.045   2.706
28948W        W93933  16.085  19.625   9.808
28949W        W93934   8.398  18.291   0.216
28950W        W93935  10.798  23.444   4.564
28951W        W93936   1.490   0.936  10.707
28952W        W93937  34.700  34.670  11.141
28953W        W93938  35.002  17.717   0.005
28954W        W93939  35.002  27.167  11.139
28955W        W93940  34.110  43.890  12.098
28956W        W93941  35.716  42.865  11.096
28957W        W93942  25.511  27.695   4.867
28958W        W93943  11.928  40.995  14.854
28959W        W93944  10.660  44.745  12.623
28960W        W93945  33.119  39.858  12.286
28961W        W93946  14.729  30.097   1.375
28962W        W93947  25.946  13.253  13.110
28963W        W93948   2.162   6.256  11.538
28964W        W93949  41.384   1.723   1.294
28965W        W93950  26.511   3.701   2.797
28966W        W93951  13.784   8.663   0.389
28967W        W93952  14.524  26.698   5.034
28968W        W93953  26.763  10.162   1.515
28969W        W93954  23.505   5.610   4.508
28970W        W93955  41.673  16.180  12.538
28971W        W93956  17.753   2.606   3.790
28972W        W93957  11.439  42.838   2.286
28973W        W93958  30.779   8.733  14.565
28974W        W93959  23.682  17.082  14.473
28975W        W93960  16.028  32.082  13.560
28976W        W93961  22.009  11.700  14.068
28977W        W93962  20.247  15.318  13.189
28978W        W93963  44.318  40.054   2.359
28979W        W93964  36.810  39.753  10.830
28980W        W93965  41.949  22.790   2.461
28981W        W93966  32.767   7.543   2.166
28982W        W93967   3.363   9.949  14.407
28983W        W93968   0.262  31.763  12.714
28984W        W93969  13.241   1.903   2.341
28985W        W93970  28.702  44.874  11.186
28986W        W93971  29.059  21.096   0.977
28987W        W93972  23.130   9.062  13.401
28988W        W93973  28.093  34.912   3.227
28989W        W93974  14.106  25.564   1.276
28990W        W93975  22.923  16.169  13.177
28991W        W93976  28.946  31.115  11.688
28992W        W93977   2.859  13.436   0.938
28993W        W93978  19.255  29.821  14.468
28994W        W93979   6.458  43.362   0.622
28995W        W93980  20.484  43.946  12.439
28996W        W93981   7.441   1.103  12.360
28997W        W93982   6.942  31.053   3.733
28998W        W93983   0.815  31.528  12.036
28999W        W93984  16.237  28.659  12.479
29000W        W93985  15.000  33.050  12.982
29001W        W93986  24.993  44.772   4.316
29002W        W93987   7.197  36.082   4.563
29003W        W93988  17.821  34.551  12.622
29004W        W93989  24.556  16.324   1.808
29005W        W93990  12.678  33.940  11.357
29006W        W93991  34.424   9.652  13.301
29007W        W93992  33.632  28.253   1.253
29008W        W93993  26.817   4.443   2.438
29009W        W93994  38.251  27.656   1.918
29010W        W93995   6.079   5.369   2.180
29011W        W93996  39.544  40.655  12.028
29012W        W93997  43.741  40.052   4.068
29013W        W93998   4.704  12.920   3.005
29014W        W93999  41.399   2.872  14.276
29015W        W94000  13.716   5.419  10.285
29016W        W94001  41.458   4.047   1.258
29017W        W94002  21.774   0.185   1.283
29018W        W94003  22.274   0.851  11.683
29019W        W94004  17.913  34.075   0.751
29020W        W94005  15.378  25.015  11.535
29021W        W94006  30.741   2.720  14.761
29022W        W94007  15.890  30.996   1.957
29023W        W94008  29.051  38.060   0.839
29024W        W94009  38.457  19.964   1.525
29025W        W94010   1.921  13.375  14.556
29026W        W94011  39.378  24.035  11.565
29027W        W94012  28.515  28.124   2.179
29028W        W94013  15.657  25.548   2.623
29029W        W94014  42.686  35.765  10.605
29030W        W94015  27.214  10.268   4.733
29031W        W94016  26.199  31.511  13.006
29032W        W94017  28.338  29.279  11.992
29033W        W94018  42.330  32.883  13.441
29034W        W94019  42.430  40.774   4.700
29035W        W94020  35.619  32.462  13.891
29036W        W94021  43.673  12.510   9.644
29037W        W94022  26.939  17.168  11.241
29038W        W94023  36.047  24.655   3.308
29039W        W94024  11.685  29.423   1.974
29040W        W94025  35.565  34.867  12.940
29041W        W94026   3.723  24.083  11.589
29042W        W94027  29.192  24.144   4.398
29043W        W94028  18.962  11.634   2.406
29044W        W94029  31.192  37.333  14.471
29045W        W94030  35.980  11.743   1.751
29046W        W94031  40.590   9.332   0.422
29047W        W94032  12.965  21.994   0.224
29048W        W94033  24.771   2.820   4.528
29049W        W94034  35.425  35.532  13.887
29050W        W94035  12.907   4.473   4.108
29051W        W94036   2.765  25.549  11.147
29052W        W94037   1.077  37.295   2.030
29053W        W94038  15.570  31.400  14.045
29054W        W94039  41.455  23.230   1.803
29055W        W94040  43.797   2.828   2.281
29056W        W94041  16.544  32.031  10.714
29057W        W94042  42.891  26.961   0.404
29058W        W94043  21.490   6.994   3.805
29059W        W94044  17.199  29.197  13.861
29060W        W94045  22.791   1.952   0.346
29061W        W94046  38.321   7.319  10.600
29062W        W94047  31.634  29.646  12.482
29063W        W94048  37.121  42.555   1.010
29064W        W94049  40.793  36.089  14.175
29065W        W94050  31.366  14.324   3.309
29066W        W94051  36.514  27.674   4.552
29067W        W94052  37.483   4.804   2.767
29068W        W94053  22.125  18.816  13.006
29069W        W94054  19.004  22.048   0.183
29070W        W94055   8.655   3.391   1.284
29071W        W94056  36.933  32.088  14.914
29072W        W94057  23.602  36.367   3.695
29073W        W94058  29.966  40.824   4.259
29074W        W94059  38.836  39.154   0.430
29075W        W94060  32.410  21.208  10.813
29076W        W94061  22.761   5.293  13.484
29077W        W94062  36.638  21.073  14.902
29078W        W94063  33.140  12.902   4.414
29079W        W94064  41.346  37.062  14.416
29080W        W94065  17.153   3.033  10.332
29081W        W94066  13.417  15.447   1.068
29082W        W94067  30.653  12.122   2.877
29083W        W94068  10.257   4.674  11.008
29084W        W94069  28.048  25.396  14.873
29085W        W94070  20.329   5.348  12.523
29086W        W94071  20.308  10.890  12.589
29087W        W94072  42.772  29.899   2.431
29088W        W94073  20.623   8.038   5.057
29089W        W94074   1.944  34.536  10.764
29090W        W94075  27.141  44.675  14.387
29091W        W94076  27.097  35.469  14.719
29092W        W94077  20.052   2.783  14.063
29093W        W94078   9.925   5.180   9.783
29094W        W94079  11.841   3.496   4.164
29095W        W94080  41.908   6.477   4.628
29096W        W94081  28.498  16.741  14.857
29097W        W94082   7.585  25.955  12.356
29098W        W94083   6.727  11.861  12.489
29099W        W94084  24.590  16.571  14.425
29100W        W94085  22.701  21.173  12.055
29101W        W94086  20.082  25.569  11.683
29102W        W94087   6.853  37.772  11.988
29103W        W94088   6.889   4.409   0.398
29104W        W94089  28.122  19.061  14.529
29105W        W94090  25.384  39.506  12.245
29106W        W94091  10.117  41.316  11.234
29107W        W94092  26.616  20.604   3.750
29108W        W94093   6.734  41.230  13.687
29109W        W94094  10.829  30.675  12.384
29110W        W94095  21.936  31.045   2.440
29111W        W94096  31.784   4.236   1.828
29112W        W94097  41.159  13.797  12.132
29113W        W94098  11.247  27.568  13.336
29114W        W94099   9.262  25.172   1.971
29115W        W94100  17.822   3.110   3.934
29116W        W94101  24.919   8.363   5.075
29117W        W94102  18.670  12.440   3.106
29118W        W94103  22.931   2.000   3.286
29119W        W94104   0.700  30.479   3.610
29120W        W94105  27.949  15.013   0.392
29121W        W94106  37.109  41.980  13.385
29122W        W94107   2.712  17.192   2.317
29123W        W94108  33.124  32.127   3.772
29124W        W94109  31.473  18.197   3.879
29125W        W94110  23.404  36.863   3.040
29126W        W94111  44.343   3.877   1.411
29127W        W94112  18.657  27.332   1.296
29128W        W94113  16.214  30.136  10.942
29129W        W94114  44.828   0.009  13.102
29130W        W94115   8.492  30.710  12.692
29131W        W94116   6.750  40.302   4.269
29132W        W94117   9.870   6.437  11.139
29133W        W94118  42.592  22.273   2.951
29134W        W94119  36.012  32.606  12.080
29135W        W94120  16.096  24.617  11.592
29136W        W94121  43.472  27.172   4.704
29137W        W94122  23.105  28.919  11.985
29138W        W94123   2.399  20.545   1.452
29139W        W94124  24.112  40.865   0.961
29140W        W94125  14.086   2.386  14.268
29141W        W94126  41.544  37.105  12.157
29142W        W94127  22.452  15.052   2.904
29143W        W94128   9.286   6.895  10.752
29144W        W94129  39.527  18.669   1.573
29145W        W94130   8.659  15.044  12.958
29146W        W94131  28.955   5.708  13.969
29147W        W94132   6.724  22.906  12.115
29148W        W94133  42.562  18.609   2.192
29149W        W94134   8.118   2.602   2.324
29150W        W94135   6.397  35.021  13.964
29151W        W94136  18.370   8.705  12.405
29152W        W94137  42.331  34.481  13.201
29153W        W94138  26.768   6.423  10.864
29154W        W94139  38.066  23.017   2.278
29155W        W94140  35.777  12.618  14.289
29156W        W94141  35.023  27.660   1.282
29157W        W94142  33.145   2.249   2.704
29158W        W94143  29.263  31.254   9.828
29159W        W94144  11.408  43.919  14.907
29160W        W94145  21.606   3.997  11.561
29161W        W94146   6.243  31.433  12.964
29162W        W94147   6.360  44.428  13.846
29163W        W94148  17.290   5.379  14.091
29164W        W94149  20.656  42.302   3.774
29165W        W94150  27.037  26.484   2.162
29166W        W94151  18.171   0.214   0.280
29167W        W94152  33.556   4.517   4.114
29168W        W94153  22.539  22.148   3.187
29169W        W94154  38.278  38.310  12.492
29170W        W94155  25.557  38.654  12.093
29171W        W94156  28.433   8.640  11.670
29172W        W94157  35.868   7.710  12.047
29173W        W94158  24.766  11.680   4.104
29174W        W94159  15.701  19.873  12.538
29175W        W94160   8.186  36.340   4.615
29176W        W94161   2.755   2.286  12.245
29177W        W94162  10.148  24.115  14.880
29178W        W94163  21.756  20.566   3.564
29179W        W94164  27.052  18.091  11.321
29180W        W94165  34.910   4.406   3.380
29181W        W94166  24.127  20.745  12.060
29182W        W94167   1.563   4.626   2.832
29183W        W94168  38.859   3.280   2.182
29184W        W94169   3.355  21.306   0.744
29185W        W94170  23.756  17.181   2.247
29186W        W94171  38.951  22.675   2.623
29187W        W94172  11.394   1.999  14.020
29188W        W94173  32.873  36.258   1.931
29189W        W94174  10.583   7.066  12.043
29190W        W94175  15.199  38.986   3.063
29191W        W94176  26.641  24.739  14.339
29192W        W94177  20.545  37.429   2.436
29193W        W94178  18.719  13.285   3.386
29194W        W94179   9.910  18.178  13.382
29195W        W94180  44.520   7.926  13.519
29196W        W94181  43.332  28.201  11.072
29197W        W94182   6.715  43.825   2.664
29198W        W94183  32.938  15.285   1.915
29199W        W94184  31.475   5.337   0.021
29200W        W94185  32.395  18.079  14.620
29201W        W94186  30.150   8.633  10.745
29202W        W94187  43.286  34.958  13.358
29203W        W94188   2.398  32.953   1.914
29204W        W94189  43.920  21.062  14.935
29205W        W94190  21.426  35.969   2.959
29206W        W94191  17.359  12.905  13.078
29207W        W94192  40.857  44.120  13.622
29208W        W94193  19.675  16.761  11.100
29209W        W94194   9.080   6.041   1.741
29210W        W94195  25.312   8.984   3.731
29211W        W94196  14.337  18.043  10.752
29212W        W94197  32.690  27.118  14.780
29213W        W94198   0.046  37.498  12.082
29214W        W94199  38.455  31.418  10.452
29215W        W94200  20.086  15.249   2.605
29216W        W94201  24.486   2.679  11.780
29217W        W94202  41.594   5.206   4.129
29218W        W94203  11.465   5.470   1.203
29219W        W94204   2.722  39.679  11.177
29220W        W94205  28.911  37.379   0.029
29221W        W94206   0.801  26.893  12.140
29222W        W94207  25.698   8.742  14.750
29223W        W94208   4.869  25.654   4.923
29224W        W94209  34.541  37.155  10.687
29225W        W94210   2.144  14.166  10.716
29226W        W94211  26.612   7.400  14.102
29227W        W94212   3.691  36.417  11.156
29228W        W94213  22.208  37.297   3.170
29229W        W94214  25.660  43.683  11.935
29230W        W94215  24.086  17.767  12.845
29231W        W94216  20.222   1.681  10.764
29232W        W94217   2.510  15.011  11.070
29233W        W94218  28.630   7.167  14.703
29234W        W94219  40.358  25.321  14.800
29235W        W94220  26.427   5.797   2.097
29236W        W94221   4.772  22.470   2.240
29237W        W94222  37.535  10.879   1.806
29238W        W94223  18.605  43.536   1.988
29239W        W94224  13.786  29.472   3.328
29240W        W94225  30.145  11.156  11.001
29241W        W94226  35.378  34.495  10.508
29242W        W94227  32.641  34.341   0.288
29243W        W94228   1.949  32.656  11.919
29244W        W94229  21.550  32.184  11.040
29245W        W94230   2.175  14.904   2.802
29246W        W94231  16.821   9.086  13.053
29247W        W94232  17.228   2.930  12.945
29248W        W94233  40.545  16.566   2.239
29249W        W94234  32.635  12.148   3.932
29250W        W94235   5.499  35.311  11.187
29251W        W94236  30.151  24.132   4.213
29252W        W94237  43.597  16.383  11.231
29253W        W94238   6.335  21.513  11.304
29254W        W94239   3.267  25.181   0.944
29255W        W94240  38.910   5.285  12.121
29256W        W94241  18.714  13.260  14.727
29257W        W94242   6.125  15.756  13.364
29258W        W94243   6.561  16.541   4.360
29259W        W94244  12.339  38.355   2.259
29260W        W94245  17.359  22.167  14.080
29261W        W94246  13.673  37.050   2.217
29262W        W94247  15.618  20.714  14.102
29263W        W94248  31.119  29.503   2.436
29264W        W94249  44.934  21.388   3.586
29265W        W94250  30.789  44.292  11.846
29266W        W94251  27.936  36.416   2.079
29267W        W94252  13.657   2.172   0.782
29268W        W94253  14.215  42.404  14.451
29269W        W94254  23.703  17.340   3.735
29270W        W94255  14.754  43.807  13.218
29271W        W94256  11.775  14.645   5.205
29272W        W94257  29.154   4.927   1.363
29273W        W94258   6.132  30.694   0.361
29274W        W94259  37.450  13.517   0.170
29275W        W94260  33.802  18.103  10.461
29276W        W94261  11.765  42.018   3.643
29277W        W94262   6.708   2.463  14.939
29278W        W94263  30.085  31.714   5.673
29279W        W94264  23.781  16.283  13.062
29280W        W94265  14.982  27.277  14.857
29281W        W94266  18.895   1.248  14.700
29282W        W94267  43.483  37.283  13.924
29283W        W94268  14.921  43.237   1.188
29284W        W94269  41.458  18.367   1.864
29285W        W94270  21.269  14.801  12.029
29286W        W94271  39.467  42.066  11.057
29287W        W94272  35.913  33.011   1.461
29288W        W94273  15.776  41.178  13.374
29289W        W94274  23.642  12.096  12.603
29290W        W94275  15.058  38.866   2.585
29291W        W94276   4.960  30.649   0.309
29292W        W94277   4.104  26.295  12.083
29293W        W94278  23.268  27.856   1.268
29294W        W94279  20.751  27.675  11.952
29295W        W94280   4.496   0.184   2.932
29296W        W94281   1.661  35.070  14.181
29297W        W94282  37.137  17.539   4.946
29298W        W94283  38.380  32.457  13.948
29299W        W94284  18.184  17.495  14.787
29300W        W94285  30.455  29.654  11.427
29301W        W94286   8.386  18.121   4.154
29302W        W94287  20.844  40.413   0.643
29303W        W94288  35.851   6.900   0.285
29304W        W94289  22.016   8.639   4.149
29305W        W94290  29.441  34.658   3.635
29306W        W94291  37.062   8.214  13.880
29307W        W94292  43.288  30.870   3.674
29308W        W94293  31.393  33.109   1.373
29309W        W94294  44.945   6.836   2.400
29310W        W94295  12.284  39.916  10.721
29311W        W94296  15.775  33.976  11.920
29312W        W94297  36.088   8.205   0.539
29313W        W94298  18.625   7.859   2.294
29314W        W94299  11.356  38.069  14.738
29315W        W94300   4.798  40.906  13.885
29316W        W94301  33.323  25.626  12.818
29317W        W94302  11.124  36.453   2.814
29318W        W94303  33.154  18.830   2.747
29319W        W94304   3.802  35.685   1.749
29320W        W94305  38.029  19.795  14.932
29321W        W94306  29.023   5.832   2.915
29322W        W94307  10.932  19.608  12.016
29323W        W94308  26.579   8.673   3.283
29324W        W94309  18.570   3.908   4.801
29325W        W94310  14.583  14.320  14.905
29326W        W94311  11.697  30.509  12.142
29327W        W94312  28.408   5.459  12.309
29328W        W94313   2.513  35.543  14.003
29329W        W94314  30.670   7.821  14.813
29330W        W94315  19.493   0.077  11.812
29331W        W94316  34.687  35.391   4.557
29332W        W94317   6.406   9.736  13.327
29333W        W94318   0.497  42.948   0.717
29334W        W94319  43.473  13.772  11.148
29335W        W94320  14.707  22.014   0.812
29336W        W94321  20.329  13.228  14.195
29337W        W94322  12.168  41.938   4.497
29338W        W94323  40.513  32.398   2.310
29339W        W94324  27.684  10.142   1.054
29340W        W94325   4.291  26.175   3.332
29341W        W94326  21.631  41.042  14.435
29342W        W94327  33.875  16.970   1.239
29343W        W94328  10.952   7.766  10.059
29344W        W94329  12.858   2.757  11.771
29345W        W94330  39.260  32.960   1.320
29346W        W94331   7.265  42.507  13.629
29347W        W94332   6.312  26.134   1.549
29348W        W94333  26.451   1.044  11.093
29349W        W94334  10.120  36.899  12.576
29350W        W94335  38.745  34.929   3.617
29351W        W94336   3.994   8.261   3.730
29352W        W94337  19.966  28.455   3.689
29353W        W94338  37.112   3.232   1.410
29354W        W94339  33.915  42.147   2.632
29355W        W94340  14.783  41.275   4.185
29356W        W94341  40.958  44.735  14.351
29357W        W94342  16.325   4.277  13.937
29358W        W94343  22.218  22.687   4.119
29359W        W94344   7.766  14.130  13.928
29360W        W94345  34.001  34.127  11.224
29361W        W94346  14.838  20.224  12.661
29362W        W94347  42.287  42.202   0.176
29363W        W94348  33.094  41.954  13.925
29364W        W94349   3.432  22.796   2.943
29365W        W94350  14.616  21.784  13.835
29366W        W94351  40.548  16.830   2.675
29367W        W94352  28.735   2.875  13.689
29368W        W94353   0.115   8.891   3.016
29369W        W94354  24.484   6.721  11.997
29370W        W94355   3.222  15.127  14.530
29371W        W94356  33.233   0.844   4.095
29372W        W94357  31.494  15.093   1.894
29373W        W94358  16.342  29.166  12.402
29374W        W94359  36.261  20.517  11.636
29375W        W94360  37.652  29.984  11.278
29376W        W94361  35.067  41.053  11.152
29377W        W94362  42.213  33.384   2.678
29378W        W94363   9.237  44.473  13.343
29379W        W94364  32.301  36.543   1.311
29380W        W94365  10.683   4.478   1.773
29381W        W94366  37.668   5.783   0.926
29382W        W94367  12.340   3.514   1.636
29383W        W94368  41.213  12.725  12.190
29384W        W94369  22.767   5.274   0.858
29385W        W94370  11.681  29.997  10.838
29386W        W94371  36.894   1.951   0.678
29387W        W94372  24.189  38.292   1.296
29388W        W94373  34.490  15.114   1.717
29389W        W94374  13.847  10.404   0.809
29390W        W94375  10.540  16.716   0.395
29391W        W94376  32.473  15.551   0.650
29392W        W94377  21.476  27.701   4.151
29393W        W94378  40.798  18.151   0.052
29394W        W94379  39.867  37.154   1.519
29395W        W94380  25.031  27.840   0.498
29396W        W94381  24.134  14.624   1.310
29397W        W94382  41.464  41.276  13.389
29398W        W94383  17.261  40.049  10.740
29399W        W94384  18.902  29.449   2.792
29400W        W94385  40.529  15.780   0.781
29401W        W94386  13.058  16.388   4.063
29402W        W94387  36.682  11.712   1.190
29403W        W94388   1.250  17.450  10.709
29404W        W94389   3.985  28.989  11.955
29405W        W94390  32.532  21.546   4.611
29406W        W94391  40.044   4.384   0.259
29407W        W94392  39.949  41.628  10.632
29408W        W94393  41.695  30.616  11.392
29409W        W94394   7.278  23.157   0.751
29410W        W94395  27.654  18.300  11.948
29411W        W94396  20.504  22.764  12.558
29412W        W94397  22.078   3.054  14.518
29413W        W94398  25.597  26.800   1.428
29414W        W94399   4.340   7.128  14.908
29415W        W94400   3.126  14.877   0.748
29416W        W94401  41.297  35.965   2.617
29417W        W94402  20.703   2.824   1.293
29418W        W94403  10.337   0.004   3.066
29419W        W94404  28.649  10.599  14.750
29420W        W94405  14.189  30.656  12.941
29421W        W94406  19.028   5.866  14.465
29422W        W94407   2.991  33.934  13.044
29423W        W94408  14.223   2.617   4.813
29424W        W94409   1.020   5.493   0.377
29425W        W94410  25.761  33.665  13.011
29426W        W94411   6.472  25.875  13.153
29427W        W94412  16.781   0.912  12.854
29428W        W94413  29.594  23.106  12.676
29429W        W94414  38.966   0.622  10.153
29430W        W94415   5.854  25.612   3.638
29431W        W94416  12.054  10.392   1.680
29432W        W94417   3.202  36.579  11.175
29433W        W94418  26.145  10.249  14.495
29434W        W94419   3.411  34.230  12.910
29435W        W94420  37.912  25.753  11.912
29436W        W94421  12.141  10.710   2.714
29437W        W94422   3.373  29.942  14.922
29438W        W94423  41.901  20.829   1.402
29439W        W94424  41.028  18.768  14.494
29440W        W94425  31.175  34.839  11.111
29441W        W94426  21.987  17.767  14.455
29442W        W94427  35.086  14.130   1.162
29443W        W94428  34.601  34.415   1.376
29444W        W94429   4.258  16.390  12.085
29445W        W94430   9.140  44.828   0.864
29446W        W94431  30.545  22.116   0.008
29447W        W94432  30.935   0.770   2.459
29448W        W94433  10.773  37.274  12.823
29449W        W94434  25.983  27.888  12.095
29450W        W94435  33.222   5.326  14.962
29451W        W94436  17.676  25.384  12.128
29452W        W94437   3.274  11.864   3.297
29453W        W94438   1.950  18.022   2.335
29454W        W94439   5.664  21.683  12.387
29455W        W94440   1.787  14.119  12.835
29456W        W94441  21.083  41.919   1.950
29457W        W94442  31.954  14.919   1.578
29458W        W94443  40.272  26.998   3.641
29459W        W94444  38.898  26.764  13.606
29460W        W94445  39.409  29.165   0.683
29461W        W94446   6.745  37.019   0.490
29462W        W94447  34.559  34.568  14.309
29463W        W94448  24.300  36.880   2.984
29464W        W94449   1.639  15.107   0.960
29465W        W94450   0.565  44.695   3.703
29466W        W94451  42.175   4.991   2.341
29467W        W94452  10.509  10.367  13.337
29468W        W94453  27.998  12.067   4.756
29469W        W94454  30.138  44.623   2.125
29470W        W94455   6.240  31.798  12.125
29471W        W94456  27.146  32.475  13.963
29472W        W94457  34.985  26.416  12.892
29473W        W94458  39.175  33.471   2.892
29474W        W94459  36.165  26.528  10.677
29475W        W94460  13.070  16.666  13.949
29476W        W94461  23.101  31.564   4.246
29477W        W94462  31.803  29.458  11.986
29478W        W94463   2.979  44.570   4.492
29479W        W94464   5.737  16.593   3.399
29480W        W94465   0.457  19.301   0.324
29481W        W94466  29.944  20.775  13.399
29482W        W94467  24.588  27.483  14.693
29483W        W94468  37.969  13.813  13.063
29484W        W94469  42.112  26.415  10.441
29485W        W94470  24.623  21.242   0.509
29486W        W94471  37.797  26.210   0.858
29487W        W94472  31.391  38.768   4.470
29488W        W94473  39.219  32.261  14.226
29489W        W94474  26.127  31.565  11.741
29490W        W94475  17.222   7.201   5.370
29491W        W94476   3.219   0.402   3.892
29492W        W94477  37.836   1.788   5.149
29493W        W94478  33.405   4.227  14.343
29494W        W94479  31.220  25.129  10.717
29495W        W94480  42.780   9.916  10.021
29496W        W94481  18.741  32.125  13.764
29497W        W94482  28.081  30.633   1.172
29498W        W94483  19.498   5.562  14.418
29499W        W94484  21.774  12.058  10.727
29500W        W94485   7.269   0.094  12.423
29501W        W94486  34.421   9.579   2.729
29502W        W94487  35.003  24.977  11.639
29503W        W94488  15.331   1.466  11.622
29504W        W94489  10.884  26.287  10.666
29505W        W94490   6.152  33.009   4.153
29506W        W94491  28.431   6.938   1.896
29507W        W94492  20.289  38.907   0.316
29508W        W94493   4.338  16.888  10.870
29509W        W94494  37.171  12.738  10.678
29510W        W94495   6.434  26.127  12.692
29511W        W94496   1.771  14.625   0.807
29512W        W94497  28.894  31.593  14.511
29513W        W94498   2.547  34.014  13.424
29514W        W94499  21.120  11.538   5.506
29515W        W94500   2.426   4.218  14.996
29516W        W94501  31.853  25.781  14.957
29517W        W94502  30.067  33.352  10.370
29518W        W94503  10.166   1.956   2.571
29519W        W94504  31.183  40.606   3.235
29520W        W94505  34.823  24.784   2.985
29521W        W94506  39.815   4.715  12.836
29522W        W94507  10.664  37.222   0.849
29523W        W94508   1.474  33.995   2.861
29524W        W94509  13.429  43.713   0.860
29525W        W94510  12.906  27.707   3.841
29526W        W94511  11.100   7.103  14.453
29527W        W94512  12.413  33.588  12.836
29528W        W94513  23.784  25.433   0.249
29529W        W94514  30.003  20.154   2.823
29530W        W94515   6.606   4.227   0.834
29531W        W94516  43.496  31.614   4.237
29532W        W94517  34.864   9.896   0.954
29533W        W94518  28.922   0.201   4.273
29534W        W94519  27.466  24.086  11.912
29535W        W94520   9.216  25.497   3.809
29536W        W94521  16.795  36.001  13.471
29537W        W94522   1.950  13.250  10.690
29538W        W94523  29.761  37.840   2.540
29539W        W94524  36.381  19.733  11.980
29540W        W94525   5.881  38.478   4.354
29541W        W94526  43.126  27.007   1.261
29542W        W94527  16.307  23.433  11.059
29543W        W94528  29.879  43.326   3.126
29544W        W94529  32.147   3.713   1.213
29545W        W94530   6.570   8.432   0.415
29546W        W94531  41.736  36.503  12.204
29547W        W94532   7.152   4.418   1.780
29548W        W94533  32.553  25.976   4.082
29549W        W94534  10.854   6.865  12.817
29550W        W94535  21.707  35.061   1.799
29551W        W94536   8.693  44.792   4.610
29552W        W94537  42.856  25.925   3.304
29553W        W94538  24.226   2.157  10.571
29554W        W94539  40.009  34.090  14.401
29555W        W94540   5.438  24.199   2.924
29556W        W94541  28.181  44.790  13.885
29557W        W94542  27.387  27.619   3.935
29558W        W94543  17.222  19.537  14.026
29559W        W94544   8.408   2.716  11.564
29560W        W94545  36.273   5.805   0.587
29561W        W94546  39.365  35.144  13.868
29562W        W94547  30.583   6.253   2.784
29563W        W94548  34.815  17.340  11.632
29564W        W94549  27.737  42.332  10.798
29565W        W94550   6.488   0.835  12.582
29566W        W94551   5.015  41.380  14.044
29567W        W94552  21.547  11.856   0.820
29568W        W94553  22.563  24.618   3.680
29569W        W94554  25.808   8.205  13.341
29570W        W94555  33.619   0.434  13.441
29571W        W94556   9.653  17.679  10.766
29572W        W94557  41.527  42.863  12.383
29573W        W94558  29.855  44.965   4.571
29574W        W94559  26.124  34.070  11.065
29575W        W94560  24.076   6.927   2.336
29576W        W94561  21.196  27.119  13.089
29577W        W94562  25.215  20.724   3.230
29578W        W94563  34.592  27.464  13.734
29579W        W94564  13.236  34.125  10.747
29580W        W94565  22.136  15.777   2.781
29581W        W94566   3.232  31.616   1.889
29582W        W94567  10.484   2.232  14.760
29583W        W94568  18.146  32.478  11.035
29584W        W94569   0.925  37.141   1.500
29585W        W94570   3.467   6.164   3.760
29586W        W94571   2.345   1.462   1.344
29587W        W94572  27.224  10.007   1.296
29588W        W94573   9.774  36.461   2.698
29589W        W94574  24.014  16.176   0.317
29590W        W94575  29.572  31.568  13.707
29591W        W94576  14.107  30.633   1.939
29592W        W94577   0.362  15.959   2.210
29593W        W94578  37.245  29.647  13.407
29594W        W94579  28.963   6.686  11.106
29595W        W94580  30.898   3.511  14.273
29596W        W94581  32.543   4.329  12.661
29597W        W94582  21.619  32.420  12.119
29598W        W94583  41.418  10.311   3.235
29599W        W94584  44.511  10.543  13.001
29600W        W94585  23.745  30.028   3.654
29601W        W94586  23.910  32.677  14.704
29602W        W94587  31.041  29.930   2.762
29603W        W94588  39.789   2.810   0.283
29604W        W94589  39.303  21.555   2.773
29605W        W94590  14.137  37.086   3.692
29606W        W94591   8.824  24.888   4.592
29607W        W94592  11.816   0.798  11.143
29608W        W94593  39.501  33.921   3.753
29609W        W94594  31.906   0.356   2.931
29610W        W94595  31.728  23.520   0.354
29611W        W94596  26.429   1.896  13.517
29612W        W94597   7.720  39.586   3.729
29613W        W94598   1.394  14.460   4.234
29614W        W94599   8.173  32.187   1.864
29615W        W94600   2.371  31.422   3.989
29616W        W94601  16.029  26.179  13.124
29617W        W94602  32.505  44.999  12.900
29618W        W94603  24.504   4.817   3.070
29619W        W94604  21.973  13.997   3.565
29620W        W94605  31.479   0.033  13.576
29621W        W94606  23.722  17.538   1.302
29622W        W94607  29.964  28.274   4.067
29623W        W94608  12.539   8.368  13.432
29624W        W94609  20.647  22.669   3.370
29625W        W94610  27.235   6.808  11.443
29626W        W94611   7.127  12.703   4.224
29627W        W94612   4.232   1.391   4.473
29628W        W94613  17.196   6.394  12.568
29629W        W94614  40.455  41.337  12.030
29630W        W94615   9.881   2.551   0.894
29631W        W94616  21.501   2.658   1.480
29632W        W94617  35.596  34.560   1.471
29633W        W94618  25.202  23.079  12.104
29634W        W94619  23.809  26.723   4.773
29635W        W94620  27.603  19.692   1.412
29636W        W94621  13.324  15.755   1.505
29637W        W94622   9.329   4.438  14.920
29638W        W94623  39.942   8.418  14.926
29639W        W94624   4.895  24.723   5.022
29640W        W94625  16.549  33.848  12.579
29641W        W94626  12.208  18.130  13.523
29642W        W94627  29.672  20.713  12.517
29643W        W94628  35.467  43.888  11.202
29644W        W94629   2.113  26.747   0.775
29645W        W94630  38.133   8.970  11.207
29646W        W94631  42.019  43.472   3.648
29647W        W94632  24.825  22.211  13.591
29648W        W94633   9.011  15.760   1.792
29649W        W94634  18.403   7.691  11.938
29650W        W94635   2.357  41.532   5.254
29651W        W94636   6.933  11.541  12.863
29652W        W94637  18.310  27.707   1.548
29653W        W94638  24.511  14.152   2.295
29654W        W94639  13.087   2.868   1.566
29655W        W94640  22.605   7.779  13.347
29656W        W94641  12.478  39.328  11.584
29657W        W94642  12.879  35.053   4.668
29658W        W94643  18.225  12.275   0.391
29659W        W94644  20.283  14.217  14.245
29660W        W94645   8.316   6.605   0.781
29661W        W94646  34.521   1.149  13.030
29662W        W94647   4.996  36.133  13.777
29663W        W94648  15.833  41.056   3.202
29664W        W94649   0.605   8.095   4.071
29665W        W94650  34.537  15.541  10.624
29666W        W94651   1.864  32.582   1.240
29667W        W94652  19.048   1.825   2.768
29668W        W94653  44.688  35.830   2.659
29669W        W94654  13.767   8.843  12.610
29670W        W94655  34.468  42.274  11.051
29671W        W94656  15.843  10.921  13.815
29672W        W94657  18.718  24.941   0.829
29673W        W94658  10.234   5.733   4.081
29674W        W94659  20.380   6.725   5.009
29675W        W94660  38.617  31.714  14.835
29676W        W94661  14.365  28.622   2.312
29677W        W94662  35.833   7.604  12.957
29678W        W94663  15.324  40.752   2.342
29679W        W94664  22.373  19.917   4.992
29680W        W94665  39.373  23.680   3.369
29681W        W94666   7.588  39.867   2.400
29682W        W94667  27.549  22.483   3.403
29683W        W94668  10.672   8.786  12.358
29684W        W94669  28.968  40.502   4.949
29685W        W94670  21.644  10.776   2.820
29686W        W94671  16.225  32.625   0.328
29687W        W94672  28.009   8.498  11.340
29688W        W94673  40.359  41.459   0.352
29689W        W94674  40.931   7.195  12.094
29690W        W94675   8.197   2.011  13.478
29691W        W94676  43.806  21.179   3.285
29692W        W94677  44.916  23.915  11.771
29693W        W94678   4.410  29.108   1.363
29694W        W94679  34.686  41.729   2.674
29695W        W94680  13.295  42.324   2.632
29696W        W94681  42.539  16.175   4.053
29697W        W94682  29.927  35.482  14.012
29698W        W94683   4.706  34.481  13.727
29699W        W94684   7.254  24.119  12.551
29700W        W94685  23.008  17.556  14.771
29701W        W94686   3.440  41.831   1.835
29702W        W94687  39.308  36.846  12.011
29703W        W94688  27.084  37.164  11.607
29704W        W94689   8.173   9.453   2.107
29705W        W94690  38.910  25.479   0.955
29706W        W94691  14.178  40.498   4.302
29707W        W94692   2.894  23.127   0.937
29708W        W94693  44.422  18.000   0.812
29709W        W94694  20.915  13.004   4.162
29710W        W94695  10.755   4.455   4.564
29711W        W94696  39.402   3.671  11.589
29712W        W94697  31.102   3.184   0.188
29713W        W94698  15.159  37.808   0.226
29714W        W94699  37.951  21.101  13.030
29715W        W94700   2.454  13.918   2.774
29716W        W94701  10.942  28.411   2.514
29717W        W94702  40.514  24.976   0.264
29718W        W94703  31.059  19.039   0.057
29719W        W94704  11.193   2.992   5.027
29720W        W94705  43.987  19.602  14.008
29721W        W94706  23.409  42.318  10.872
29722W        W94707  16.106  43.381  14.272
29723W        W94708  36.879  13.167   4.319
29724W        W94709   5.802  21.022  10.618
29725W        W94710  42.698  29.003   0.194
29726W        W94711   6.410   5.677   0.661
29727W        W94712   2.317  31.947   2.843
29728W        W94713  16.669  16.875   2.593
29729W        W94714  41.836  30.534  14.962
29730W        W94715  43.487   9.023  13.833
29731W        W94716  19.974  39.900  12.218
29732W        W94717  14.371  33.082  14.517
29733W        W94718  10.779   0.716   4.393
29734W        W94719  41.468   9.276   3.872
29735W        W94720  29.425   1.475  13.523
29736W        W94721  23.464  13.898  14.536
29737W        W94722  19.990  36.146   0.675
29738W        W94723  12.764   5.702   1.428
29739W        W94724   6.253   2.869  13.759
29740W        W94725  16.061  14.795  13.084
29741W        W94726  39.339  13.566  12.930
29742W        W94727   1.127  17.197   5.107
29743W        W94728  22.181  20.289  11.433
29744W        W94729  12.924   1.305   1.658
29745W        W94730  12.381   5.152  13.859
29746W        W94731   8.546  43.822  13.424
29747W        W94732  11.818  12.951  10.685
29748W        W94733  29.360  25.015  12.918
29749W        W94734  22.955  26.529   2.781
29750W        W94735  44.803   8.949   3.766
29751W        W94736  42.843   3.324  12.524
29752W        W94737  22.177  35.012   2.157
29753W        W94738   8.274  19.866  12.942
29754W        W94739   5.847  30.271  13.753
29755W        W94740  24.121  30.959   0.320
29756W        W94741  21.281  30.286  13.517
29757W        W94742  11.842   9.044   0.287
29758W        W94743  11.740   4.411  10.707
29759W        W94744  20.220  21.818   3.086
29760W        W94745   5.737  29.737   4.707
29761W        W94746  33.879   3.373   1.767
29762W        W94747  11.829  17.006  10.759
29763W        W94748  12.777  22.135   2.054
29764W        W94749  23.999  19.525   2.683
29765W        W94750   7.807  41.583  12.299
29766W        W94751  37.433  37.716   1.986
29767W        W94752  41.882  32.119   2.680
29768W        W94753   7.035  19.126  11.541
29769W        W94754  21.758  41.946  10.625
29770W        W94755  11.692  36.142  13.020
29771W        W94756  40.337  14.738  14.814
29772W        W94757  30.638  39.717  14.953
29773W        W94758  10.947  21.635  14.874
29774W        W94759  23.126  34.150  11.497
29775W        W94760  15.709   0.510  14.059
29776W        W94761  39.744   6.334  13.838
29777W        W94762  15.314   7.228  12.638
29778W        W94763  43.419  39.026  12.515
29779W        W94764  17.060   3.667  11.167
29780W        W94765  26.123   6.704  11.953
29781W        W94766  42.798  13.564   5.520
29782W        W94767   7.385  23.528   4.206
29783W        W94768  19.599   2.450  13.102
29784W        W94769  24.558  16.058  14.527
29785W        W94770  17.739  40.230  13.950
29786W        W94771  18.276  31.072  14.009
29787W        W94772  26.531  44.669   0.198
29788W        W94773  26.610  41.688   0.839
29789W        W94774   7.947   2.416  11.421
29790W        W94775  37.100   2.211   3.900
29791W        W94776  14.133  11.072   4.228
29792W        W94777  35.517  22.304  13.057
29793W        W94778   0.623  30.073  13.045
29794W        W94779   8.895  24.919   0.302
29795W        W94780  23.540  37.337  12.925
29796W        W94781  42.145  37.998  14.747
29797W        W94782  12.137   1.338   1.075
29798W        W94783  23.189  26.586  11.390
29799W        W94784  41.201  21.233   0.905
29800W        W94785  21.676  38.616   0.399
29801W        W94786  16.107  29.379   3.642
29802W        W94787  23.031  35.528   2.852
29803W        W94788  37.408   3.797  13.876
29804W        W94789  32.013  23.281   1.106
29805W        W94790   3.408  31.711   2.885
29806W        W94791  38.802   5.806  11.006
29807W        W94792  34.481  19.026  11.101
29808W        W94793  23.700   9.402   3.386
29809W        W94794  43.807  24.176  13.427
29810W        W94795   9.080  22.542  10.737
29811W        W94796  36.007  40.782  12.500
29812W        W94797  41.006  41.883  13.853
29813W        W94798  30.477  10.397  14.549
29814W        W94799  19.706  31.624   0.923
29815W        W94800   7.446  19.041   2.393
29816W        W94801  10.301  10.540   4.520
29817W        W94802  14.431  20.070   5.063
29818W        W94803  19.541   2.022   3.842
29819W        W94804  36.967  39.469  13.110
29820W        W94805  28.143  34.458  12.910
29821W        W94806  33.446  43.951  14.213
29822W        W94807  36.598  15.628  11.134
29823W        W94808  42.290  19.703  13.210
29824W        W94809  23.654  17.059   2.739
29825W        W94810  34.176  41.010  13.832
29826W        W94811  40.760  11.321  11.074
29827W        W94812   8.139  11.073  11.000
29828W        W94813  37.800  39.687   2.447
29829W        W94814  37.033   6.170  13.052
29830W        W94815  23.194  10.436  12.017
29831W        W94816  13.252  16.150  10.639
29832W        W94817   1.460  27.926  11.579
29833W        W94818   2.630  27.922  13.989
29834W        W94819  17.947  31.626   0.957
29835W        W94820  34.533  31.870  12.062
29836W        W94821  17.603   3.414   1.412
29837W        W94822   8.266  38.697  13.598
29838W        W94823  42.443   1.407  14.343
29839W        W94824  42.465  40.520  12.594
29840W        W94825   4.304  20.652   3.705
29841W        W94826   3.931  30.037  10.752
29842W        W94827   2.677   2.175  11.251
29843W        W94828  10.782   3.963  14.965
29844W        W94829  36.404  41.574  14.577
29845W        W94830  16.107  44.762  11.809
29846W        W94831   1.821  18.565   4.603
29847W        W94832  42.493  44.029  14.831
29848W        W94833   6.273   3.368   1.861
29849W        W94834  43.864   6.120   1.417
29850W        W94835  36.931   8.463   2.191
29851W        W94836  20.046  14.136  10.750
29852W        W94837  10.833   8.180   1.108
29853W        W94838   5.808  21.833  14.275
29854W        W94839  14.094  23.036  14.328
29855W        W94840  11.238  23.499  14.338
29856W        W94841  41.288  32.527  13.004
29857W        W94842  38.072  15.333  12.970
29858W        W94843  17.287  32.865  14.281
29859W        W94844  22.306  25.657   0.372
29860W        W94845  13.384   5.509   1.130
29861W        W94846   7.808   6.601   4.502
29862W        W94847  19.086  31.881  11.165
29863W        W94848  16.651  41.777  12.533
29864W        W94849  12.753   6.352  12.508
29865W        W94850   3.040  30.153  12.833
29866W        W94851  31.241  37.174  11.326
29867W        W94852  42.835  42.373  14.416
29868W        W94853  40.024  18.133   3.273
29869W        W94854  12.322   4.938  12.978
29870W        W94855  29.629  17.684  12.369
29871W        W94856   0.919  14.082   0.192
29872W        W94857  26.865  38.822  14.346
29873W        W94858  35.589  32.664  10.974
29874W        W94859  14.713  14.699   1.789
29875W        W94860   6.227  16.425   0.704
29876W        W94861   8.901  40.433   0.941
29877W        W94862  33.712   3.790  11.417
29878W        W94863   7.772  44.995  14.488
29879W        W94864  23.085   4.858   0.749
29880W        W94865   8.582   5.039  13.023
29881W        W94866  29.413   2.948   4.009
29882W        W94867  14.709  28.092   2.696
29883W        W94868  24.574  30.358  13.557
29884W        W94869   2.849  22.527  13.433
29885W        W94870  32.479   2.154   3.136
29886W        W94871  35.456  30.110   1.429
29887W        W94872  23.028   4.218   0.355
29888W        W94873  21.959  23.655  12.547
29889W        W94874  24.185   2.669  13.371
29890W        W94875  23.291  36.916   4.922
29891W        W94876  23.019   7.017   4.566
29892W        W94877   2.041  19.197  10.488
29893W        W94878  12.673   5.532  10.233
29894W        W94879  12.759  41.756   2.505
29895W        W94880  36.573  11.700   3.673
29896W        W94881  29.083  33.072   0.278
29897W        W94882  24.655   2.884  13.183
29898W        W94883  29.684  20.830  13.913
29899W        W94884  36.372  18.247  11.188
29900W        W94885  14.670   5.169  11.038
29901W        W94886  44.034  20.687   4.838
29902W        W94887  18.131  31.939  13.988
29903W        W94888  23.347  18.413  13.879
29904W        W94889  22.547  25.262   4.625
29905W        W94890  18.650  29.702  14.847
29906W        W94891  28.540  43.671   1.720
29907W        W94892  44.122  31.119   2.396
29908W        W94893  10.762   0.236   3.264
29909W        W94894   4.036  42.317  12.631
29910W        W94895  12.102   0.450   1.239
29911W        W94896  43.912  34.508  10.369
29912W        W94897  36.505  29.299   0.722
29913W        W94898  24.544  21.513   0.933
29914W        W94899  23.964  36.569   4.038
29915W        W94900  44.349   2.424  13.064
29916W        W94901  17.660   7.996   4.234
29917W        W94902  44.612  11.304  12.097
29918W        W94903  32.054  14.117  12.914
29919W        W94904  14.159   2.891   2.379
29920W        W94905  29.046  40.355  12.590
29921W        W94906  23.471  23.698   1.799
29922W        W94907   2.845  22.757  13.891
29923W        W94908  15.371  16.658   1.280
29924W        W94909  34.349   9.741   0.137
29925W        W94910  26.151  18.791  12.723
29926W        W94911  21.151  38.115   0.960
29927W        W94912  15.116  44.001  11.141
29928W        W94913  20.219  43.711  10.917
29929W        W94914  12.116  44.387  13.939
29930W        W94915  35.599  13.223   2.305
29931W        W94916  31.678  30.367  14.993
29932W        W94917  30.129  43.295   3.789
29933W        W94918  20.296  14.971   4.469
29934W        W94919  32.605  26.045  13.110
29935W        W94920   7.815  32.128  14.867
29936W        W94921   1.482   2.850  13.505
29937W        W94922  23.331  25.046   3.731
29938W        W94923   9.815  26.627   1.831
29939W        W94924  36.556  41.811   9.869
29940W        W94925  23.719  26.256  10.249
29941W        W94926  41.516  15.419   0.235
29942W        W94927  31.965   6.776   2.817
29943W        W94928   8.828  40.722  11.547
29944W        W94929  27.501  12.671  14.409
29945W        W94930  40.977  15.461   4.430
29946W        W94931   4.695  43.324   2.739
29947W        W94932   6.262  12.074  10.799
29948W        W94933  15.775  19.869   0.304
29949W        W94934  14.840  35.940   1.938
29950W        W94935   4.308   7.632  14.950
29951W        W94936  40.849  11.836  11.886
29952W        W94937   6.655  30.205  11.212
29953W        W94938  37.109  33.696   4.909
29954W        W94939  11.656  22.264  13.071
29955W        W94940  16.404  20.524  12.398
29956W        W94941   2.692  35.174  11.254
29957W        W94942  43.974   9.516   3.667
29958W        W94943  10.897  13.333   0.286
29959W        W94944  18.895  33.729  13.056
29960W        W94945   4.764  38.602   4.187
29961W        W94946  32.097   3.848   1.711
29962W        W94947  43.467  23.827  14.419
29963W        W94948  17.547  35.719   2.859
29964W        W94949  10.286  37.617   1.304
29965W        W94950  39.957   3.329  11.517
29966W        W94951  25.095  10.575   0.578
29967W        W94952  37.967  34.391   4.225
29968W        W94953  40.608  23.265   3.349
29969W        W94954   5.749  29.740   1.796
29970W        W94955   5.453  16.364  14.161
29971W        W94956  24.598  12.196  13.887
29972W        W94957  27.525  31.620   0.958
29973W        W94958  42.434  26.199   1.262
29974W        W94959  32.643  39.012  13.116
29975W        W94960  11.771  24.184  10.746
29976W        W94961   0.720  40.723   2.298
29977W        W94962  40.946   0.349  11.757
29978W        W94963   3.454  25.154  13.893
29979W        W94964  35.580  25.644  13.643
29980W        W94965  15.241  16.966  11.863
29981W        W94966   9.509   7.485  11.826
29982W        W94967  20.172  11.171   1.903
29983W        W94968  23.483   5.708  12.110
29984W        W94969  38.375  19.123   2.491
29985W        W94970  23.301  33.659  12.963
29986W        W94971   1.278  37.777   0.912
29987W        W94972   4.067  30.339   2.649
29988W        W94973  38.441  43.057  12.670
29989W        W94974  35.483  23.002   1.973
29990W        W94975  29.229   7.954  12.536
29991W        W94976  22.225  42.376  12.264
29992W        W94977  18.276  37.900  12.034
29993W        W94978  41.573  36.518  11.713
29994W        W94979  37.602   6.749  10.612
29995W        W94980  23.409  37.748   0.388
29996W        W94981  39.784   0.215  12.439
29997W        W94982  17.022  12.109  12.516
29998W        W94983  41.535  15.349   3.721
29999W        W94984  25.428  31.667   2.170
30000W        W94985  27.941  18.726  13.263
30001W        W94986  23.283  12.385   3.112
30002W        W94987  28.665  41.785   3.095
30003W        W94988  11.249  44.530  12.912
30004W        W94989  21.679  34.330   2.339
30005W        W94990  11.912  15.387   1.839
30006W        W94991   1.817  37.290   3.105
30007W        W94992  39.409  22.741  14.287
30008W        W94993  22.428  25.094  14.102
30009W        W94994   6.804  15.681  11.251
30010W        W94995  26.493   4.662  14.696
30011W        W94996  35.910  33.366  10.481
30012W        W94997   9.885  25.373  11.688
30013W        W94998  37.163  31.522  11.732
30014W        W94999   0.581   1.887  14.870
30015W        W95000  22.663  40.820   4.963
30016W        W95001  34.790  25.736   0.404
30017W        W95002  11.257  37.797   0.165
30018W        W95003  18.840  41.331   1.395
30019W        W95004  42.478  11.140  13.812
30020W        W95005  13.208  32.716   0.946
30021W        W95006  20.107  43.444  13.547
30022W        W95007  43.729  31.020  13.089
30023W        W95008  44.818  41.097  14.791
30024W        W95009  14.804  27.382   3.203
30025W        W95010  19.634  19.493   0.010
30026W        W95011  10.381  15.557   1.353
30027W        W95012  23.636  14.217   0.472
30028W        W95013  26.678  27.157   5.038
30029W        W95014  20.820  17.587   0.049
30030W        W95015  44.477  27.010  14.381
30031W        W95016  12.195  18.154   4.535
30032W        W95017  44.049  23.171   3.692
30033W        W95018  36.827   0.668   0.848
30034W        W95019   5.434  34.411   4.110
30035W        W95020  32.473   1.174  14.981
30036W        W95021  24.754   8.936   4.447
30037W        W95022  25.916  43.960  13.803
30038W        W95023   2.283  24.733  13.047
30039W        W95024  37.041  27.711   1.438
30040W        W95025   4.938  17.547   3.216
30041W        W95026   7.766  17.293   4.327
30042W        W95027  40.763  14.336  12.955
30043W        W95028  20.265  15.991   3.653
30044W        W95029   0.267  22.583   1.723
30045W        W95030  35.276  27.000   4.381
30046W        W95031  30.602  18.602   3.698
30047W        W95032   8.369  28.116  11.563
30048W        W95033  42.011  29.516   3.705
30049W        W95034  37.872  25.903   2.801
30050W        W95035  11.323  21.976  12.209
30051W        W95036  28.476  16.104   3.233
30052W        W95037  30.111  29.950   2.158
30053W        W95038  11.739   7.244   3.243
30054W        W95039  30.261   9.885   4.272
30055W        W95040  14.343   8.883  12.543
30056W        W95041   4.279  27.595   0.393
30057W        W95042  16.327  31.961  11.679
30058W        W95043  22.577  40.858  13.371
30059W        W95044  39.000   4.301   4.018
30060W        W95045  42.180  21.883   2.845
30061W        W95046  43.950  11.663  14.367
30062W        W95047   8.592  41.110   1.867
30063W        W95048  41.230  13.232   3.162
30064W        W95049  10.765  27.970  12.379
30065W        W95050  40.384  38.754  14.700
30066W        W95051  17.063  36.883   2.244
30067W        W95052   6.869  34.895   3.131
30068W        W95053  35.458  15.883   2.300
30069W        W95054   6.432  15.652   1.909
30070W        W95055  10.333  32.667   1.744
30071W        W95056  22.082  28.011  11.716
30072W        W95057  27.467  19.644   0.042
30073W        W95058  20.349  20.812  12.855
30074W        W95059  30.060  30.235  13.105
30075W        W95060  36.997  21.207   2.713
30076W        W95061  36.623   8.207   1.388
30077W        W95062  15.753  37.300   1.520
30078W        W95063  23.116  32.851  13.358
30079W        W95064  12.689   6.907  13.255
30080W        W95065  40.365  38.526   0.170
30081W        W95066   2.308  15.331   4.806
30082W        W95067  28.872  39.554  13.090
30083W        W95068  33.627  32.439  14.351
30084W        W95069   0.022  22.472  14.988
30085W        W95070  28.609   0.962  14.481
30086W        W95071  35.050  34.080   2.653
30087W        W95072  32.089  32.170  14.967
30088W        W95073  16.310  29.596   1.915
30089W        W95074  43.538  43.964  12.011
30090W        W95075  37.394  41.257  14.315
30091W        W95076  23.637   5.945   0.901
30092W        W95077   9.800  43.940  12.067
30093W        W95078  36.295  15.341  13.315
30094W        W95079  14.399  16.697  11.034
30095W        W95080  20.054  11.940  13.432
30096W        W95081  33.397   4.607   1.265
30097W        W95082   3.281  43.490   0.758
30098W        W95083  13.414  31.120   0.839
30099W        W95084  10.735  29.948  13.806
30100W        W95085  41.776  26.035  12.660
30101W        W95086  36.544  11.435   1.739
30102W        W95087  10.446  42.530   2.033
30103W        W95088  16.721  15.589  14.409
30104W        W95089  19.919   9.886  14.339
30105W        W95090   5.942  41.046  11.589
30106W        W95091   1.905  37.341   1.849
30107W        W95092  15.215  32.331   3.469
30108W        W95093  16.133  35.169  12.552
30109W        W95094   8.142   7.907  13.938
30110W        W95095  30.481  34.630   0.384
30111W        W95096  11.174  12.144   3.693
30112W        W95097  21.988  15.255   0.144
30113W        W95098  27.877  40.213   1.934
30114W        W95099  20.633  32.492   3.141
30115W        W95100  13.029  30.569  11.578
30116W        W95101  38.632  18.703  14.820
30117W        W95102   5.451   5.801  14.011
30118W        W95103  28.571  21.304   0.898
30119W        W95104   7.788  36.670   3.607
30120W        W95105   3.602   9.767   3.871
30121W        W95106   2.318  15.843   2.540
30122W        W95107  42.100   0.177  14.740
30123W        W95108   1.955   2.434   4.460
30124W        W95109  24.661  33.069  14.754
30125W        W95110  28.903  26.068   2.739
30126W        W95111  39.465  29.543   2.885
30127W        W95112   2.384   8.825   3.622
30128W        W95113  32.634  14.789   4.469
30129W        W95114  42.166   1.844  11.014
30130W        W95115  14.276   0.764  13.084
30131W        W95116  19.302   3.191   4.140
30132W        W95117   4.777  25.240   0.991
30133W        W95118   4.470  36.809  11.415
30134W        W95119  41.400  41.988  11.495
30135W        W95120   0.097  27.370  11.832
30136W        W95121  22.262   6.279   3.862
30137W        W95122  44.718  38.903   1.727
30138W        W95123  12.147  31.594   2.716
30139W        W95124   7.939   4.325  14.463
30140W        W95125   8.189  28.481   1.859
30141W        W95126  25.697  39.705  13.015
30142W        W95127  12.386  16.106   1.082
30143W        W95128  23.512  30.152   2.652
30144W        W95129  25.029  20.921   2.214
30145W        W95130  36.339   2.012  12.880
30146W        W95131  19.049  33.416  14.427
30147W        W95132   5.194  21.458   4.175
30148W        W95133  19.601  20.766  14.241
30149W        W95134  12.162   5.336  14.956
30150W        W95135  33.412  19.008  11.198
30151W        W95136  33.132  23.481   2.262
30152W        W95137  15.591  40.310  12.304
30153W        W95138  27.555  43.324  10.647
30154W        W95139  12.379   7.809  12.075
30155W        W95140  29.489  43.481  14.296
30156W        W95141   1.978  18.564  11.167
30157W        W95142   1.304  25.044  12.579
30158W        W95143  23.202  25.064  12.605
30159W        W95144  43.144  16.919  13.049
30160W        W95145   7.298   8.663  14.338
30161W        W95146  10.717  33.564  11.218
30162W        W95147  16.960   4.123   2.302
30163W        W95148  42.601  40.938  11.127
30164W        W95149  10.296  31.203   3.336
30165W        W95150  36.164  37.039   3.888
30166W        W95151  10.868  13.465  11.036
30167W        W95152  38.285  20.212   1.930
30168W        W95153  14.543  18.730  13.751
30169W        W95154  16.345  34.921   2.463
30170W        W95155  29.065  43.332  12.547
30171W        W95156  32.111  44.336   4.144
30172W        W95157   0.040  17.154  12.865
30173W        W95158  27.612  44.769   0.909
30174W        W95159  10.328  41.023  14.858
30175W        W95160  41.005  35.499   0.634
30176W        W95161  11.634  29.135   2.794
30177W        W95162  30.253  24.877  12.626
30178W        W95163  32.399   0.446  12.569
30179W        W95164  18.807  33.197  11.409
30180W        W95165  22.274  16.852   3.162
30181W        W95166  37.787   6.616   0.275
30182W        W95167   9.584  13.804   1.730
30183W        W95168  41.755  10.214   2.248
30184W        W95169  20.614  27.344   4.907
30185W        W95170   0.826  22.231  11.456
30186W        W95171  38.274  29.675   3.695
30187W        W95172   1.871  26.057   0.304
30188W        W95173  28.179  22.014  13.458
30189W        W95174  38.476  15.339   1.442
30190W        W95175  12.600   7.891  12.576
30191W        W95176  21.162  35.486  13.748
30192W        W95177  24.562  36.513   2.259
30193W        W95178  34.186  15.363  14.002
30194W        W95179  15.810   4.702   3.624
30195W        W95180  20.660  28.237   3.571
30196W        W95181  18.650  33.403   3.244
30197W        W95182  30.521  32.361   4.434
30198W        W95183  23.989  27.856   4.875
30199W        W95184  19.135  42.994   4.846
30200W        W95185  29.126  16.614  10.690
30201W        W95186   0.822  37.528   0.170
30202W        W95187  14.268  30.778  10.977
30203W        W95188  23.530  25.516   0.721
30204W        W95189  15.177  23.593   0.454
30205W        W95190  43.845  44.273   0.180
30206W        W95191  42.761  15.212   4.520
30207W        W95192  31.382  34.006   4.652
30208W        W95193  17.520  27.805  14.214
30209W        W95194  14.211  23.522  12.090
30210W        W95195  12.597   1.751  12.797
30211W        W95196  37.382  24.059  12.419
30212W        W95197   7.157  11.092  13.678
30213W        W95198  29.551  10.583  11.512
30214W        W95199  20.372  39.325   4.693
30215W        W95200  12.642  39.980  14.943
30216W        W95201  41.449  28.674   4.280
30217W        W95202  43.725  14.274   0.400
30218W        W95203  12.778  40.842   2.242
30219W        W95204  41.386  38.920   0.733
30220W        W95205  15.358  14.604   2.566
30221W        W95206  33.798  17.343  12.953
30222W        W95207  14.658  25.766  11.974
30223W        W95208  29.715  23.241   2.850
30224W        W95209   7.631  10.679  10.935
30225W        W95210  31.160   7.420   0.961
30226W        W95211  23.427   6.610  13.755
30227W        W95212  26.974  36.716   2.828
30228W        W95213  22.286  30.093   3.605
30229W        W95214  28.508  39.774  12.800
30230W        W95215  42.570  34.999   3.142
30231W        W95216   6.959  37.086   4.105
30232W        W95217  11.630  29.949  12.999
30233W        W95218   9.335  42.337  14.291
30234W        W95219  43.265  39.959   3.266
30235W        W95220  39.530  38.894  14.728
30236W        W95221  35.354   5.263  11.055
30237W        W95222   1.780  39.126  11.189
30238W        W95223  10.396  21.149  12.786
30239W        W95224  23.755  32.454   0.492
30240W        W95225  29.132  29.949   0.836
30241W        W95226  44.467  25.386   1.801
30242W        W95227  17.068  30.422   1.196
30243W        W95228  37.541  31.870  11.708
30244W        W95229  41.068  30.624   2.362
30245W        W95230   5.362  13.318  12.623
30246W        W95231  23.921  20.290  14.848
30247W        W95232  10.628  32.764  11.977
30248W        W95233  34.047  15.702  12.742
30249W        W95234  27.176  19.281  11.170
30250W        W95235  14.310  17.144   4.537
30251W        W95236   5.172   4.986  12.971
30252W        W95237  39.008  31.022   4.544
30253W        W95238  27.966  39.048  11.066
30254W        W95239  25.048   7.754  13.661
30255W        W95240   5.709  27.720   4.606
30256W        W95241  41.826  25.815  13.291
30257W        W95242  18.843  21.022   1.209
30258W        W95243  22.585  26.665   4.910
30259W        W95244  26.596  14.432  12.122
30260W        W95245  24.150  13.199   0.257
30261W        W95246  18.673   5.915  11.744
30262W        W95247   9.459   5.863   2.106
30263W        W95248  41.509   2.032  11.666
30264W        W95249  37.998  32.664  14.238
30265W        W95250  23.379  32.625   2.651
30266W        W95251  31.468  20.123  13.815
30267W        W95252  34.296  29.727  10.502
30268W        W95253  25.634  23.535   3.732
30269W        W95254   9.139  42.103  13.840
30270W        W95255  36.833  21.208   0.838
30271W        W95256  34.031  26.145   0.699
30272W        W95257  30.504  17.244   4.426
30273W        W95258  27.737  28.015   3.190
30274W        W95259   5.888  35.590  11.403
30275W        W95260  18.134  37.510  11.136
30276W        W95261   0.755  34.564  13.444
30277W        W95262   4.081   2.768   3.200
30278W        W95263  29.143   4.467   2.208
30279W        W95264  21.019  16.035   3.140
30280W        W95265  31.168   0.159   0.481
30281W        W95266  29.229   6.936  14.888
30282W        W95267  34.344  39.371   2.793
30283W        W95268  21.941  27.691  11.148
30284W        W95269  20.940   9.282   0.785
30285W        W95270  41.390  36.632   4.023
30286W        W95271  27.621  27.222   4.972
30287W        W95272   7.201  30.090  12.460
30288W        W95273  41.994  33.109   2.190
30289W        W95274  32.963  12.273  12.581
30290W        W95275   3.383  16.623   4.569
30291W        W95276  15.868  43.442  12.785
30292W        W95277  38.543  30.079  12.379
30293W        W95278  18.117   6.844  11.131
30294W        W95279  23.012  22.519  14.692
30295W        W95280  43.040  24.678  14.436
30296W        W95281  18.101   8.886   0.988
30297W        W95282  22.175  13.228  12.113
30298W        W95283  32.628   7.313  14.260
30299W        W95284  25.954  13.322  11.151
30300W        W95285  12.609   5.658   4.525
30301W        W95286  42.077  28.462  14.468
30302W        W95287  44.547  26.737  14.817
30303W        W95288   7.646  28.552  10.180
30304W        W95289   9.953  41.958  14.371
30305W        W95290   6.768   2.386   2.398
30306W        W95291  44.339   4.816   4.088
30307W        W95292  21.178  27.626  12.996
30308W        W95293  13.967  37.282  12.592
30309W        W95294  37.401  23.785   4.091
30310W        W95295   9.260  10.314   1.797
30311W        W95296  34.017   0.723   2.688
30312W        W95297   3.323  43.171   2.783
30313W        W95298  27.686  11.604  13.507
30314W        W95299  32.518  21.268  13.456
30315W        W95300  44.324  11.540   2.116
30316W        W95301   9.246  13.996  10.544
30317W        W95302   5.006  14.616   0.384
30318W        W95303  26.292  32.104   5.015
30319W        W95304  34.456  40.824  12.948
30320W        W95305  13.787  20.563   0.682
30321W        W95306  40.242  21.206   2.338
30322W        W95307  28.143  21.231   4.731
30323W        W95308  19.636  23.572  10.373
30324W        W95309  42.108  10.716  11.684
30325W        W95310   8.646  22.704  13.051
30326W        W95311  21.209  31.369  13.027
30327W        W95312  44.905   9.705  10.724
30328W        W95313  30.709  24.141   4.498
30329W        W95314  30.950  15.034   3.662
30330W        W95315   0.027  27.268  14.223
30331W        W95316  15.162  10.443  14.438
30332W        W95317  23.016  28.625  10.642
30333W        W95318  31.524  19.860   4.164
30334W        W95319  31.862  19.924  11.527
30335W        W95320   9.377   9.805   1.898
30336W        W95321  22.740  16.765  14.897
30337W        W95322  17.558  24.483   4.603
30338W        W95323  16.325  13.954   3.361
30339W        W95324  29.396  30.324  11.991
30340W        W95325  44.879  33.126   2.269
30341W        W95326  10.049  41.825  12.530
30342W        W95327   9.873  15.677   1.370
30343W        W95328  29.845  17.560  12.862
30344W        W95329  17.609   8.475  11.161
30345W        W95330  24.342  44.920  12.973
30346W        W95331  43.716  35.544   1.280
30347W        W95332  43.784  40.798  12.358
30348W        W95333   0.559  34.976   3.278
30349W        W95334  30.986  27.202  12.850
30350W        W95335  38.101  23.738  12.046
30351W        W95336   5.984   9.587   3.007
30352W        W95337  17.022  23.996  11.145
30353W        W95338   6.417   3.826  12.004
30354W        W95339  34.012  42.649  12.253
30355W        W95340  28.283  42.872  12.413
30356W        W95341   8.985  39.339   4.032
30357W        W95342  27.096  14.821  14.986
30358W        W95343  10.433  21.646  12.595
30359W        W95344  11.221  13.806   0.960
30360W        W95345  29.121  25.468   1.322
30361W        W95346   4.663  38.739   2.960
30362W        W95347  15.476  16.111   3.683
30363W        W95348  20.224  43.484   1.360
30364W        W95349  44.704   0.663   3.301
30365W        W95350  34.698   3.812  13.557
30366W        W95351  22.109   4.988   3.792
30367W        W95352   5.185   6.981   3.593
30368W        W95353  24.586   5.715  11.124
30369W        W95354   8.184  20.397  12.871
30370W        W95355  28.411  10.890  13.334
30371W        W95356   8.907  18.158  13.453
30372W        W95357  19.442  32.132  14.572
30373W        W95358  31.936   8.914   2.783
30374W        W95359  20.900  32.082   1.341
30375W        W95360  14.472  28.673   4.758
30376W        W95361  10.879  17.922   2.595
30377W        W95362  22.027  40.151  14.950
30378W        W95363  13.067   2.304  14.921
30379W        W95364  26.351  43.226   4.332
30380W        W95365  10.185  34.363  12.636
30381W        W95366  17.255   1.694   0.318
30382W        W95367  37.392  12.167  10.962
30383W        W95368  30.495   1.889  12.986
30384W        W95369  30.716   1.197   2.264
30385W        W95370  30.114  38.169   1.211
30386W        W95371   8.649  32.113   1.704
30387W        W95372   4.850  15.571  11.141
30388W        W95373  18.382  43.460   2.462
30389W        W95374   0.107  33.601   2.335
30390W        W95375  11.610  18.030   2.158
30391W        W95376   9.967   2.609   3.600
30392W        W95377   0.979  43.807  12.612
30393W        W95378  10.673  23.934   4.642
30394W        W95379  10.098  37.016   1.713
30395W        W95380   4.444  22.793   0.347
30396W        W95381   8.714  11.027   0.304
30397W        W95382  42.193  31.900   1.848
30398W        W95383  26.689   8.581  14.284
30399W        W95384  32.604  17.207  10.724
30400W        W95385  39.340  22.134   0.234
30401W        W95386  32.095  33.047  13.855
30402W        W95387  31.730  21.766   2.481
30403W        W95388  10.611  18.836   0.936
30404W        W95389   6.329  14.683   1.454
30405W        W95390  19.816   2.910   1.727
30406W        W95391  36.446   3.999   0.542
30407W        W95392  29.494  36.479  12.567
30408W        W95393   2.364   2.522  12.074
30409W        W95394  43.904   4.874   2.362
30410W        W95395   3.317  21.058   1.249
30411W        W95396  42.415  24.282   0.836
30412W        W95397  26.400  39.753   1.597
30413W        W95398  36.868  27.105  10.896
30414W        W95399  44.791   7.328   9.933
30415W        W95400  20.206  34.480   0.491
30416W        W95401  39.733  22.905   5.002
30417W        W95402  28.143  24.199  12.675
30418W        W95403   4.997  15.646   4.576
30419W        W95404  20.276  35.387  13.022
30420W        W95405  27.629   4.968   0.263
30421W        W95406  41.884  27.126  14.296
30422W        W95407  38.871   0.371  14.040
30423W        W95408   4.376  38.748   4.541
30424W        W95409   8.838  25.897   1.397
30425W        W95410  16.084  34.491   1.384
30426W        W95411  31.064   5.737   1.402
30427W        W95412  26.256  14.671   3.933
30428W        W95413  13.087  19.522  13.854
30429W        W95414  36.831  36.805  10.697
30430W        W95415  15.799   8.149  13.107
30431W        W95416   7.258   0.991  13.465
30432W        W95417   4.241  40.949   0.771
30433W        W95418   6.747  29.693   3.326
30434W        W95419  43.501  36.146   4.806
30435W        W95420   4.965  43.349   3.232
30436W        W95421  18.027  16.300  14.202
30437W        W95422   0.003  37.663  11.126
30438W        W95423  30.669  23.551   3.134
30439W        W95424  33.284  13.181   2.267
30440W        W95425  23.598  44.708   0.324
30441W        W95426  29.217  13.886  13.970
30442W        W95427   2.964  39.867   2.754
30443W        W95428   5.221  25.604  11.165
30444W        W95429  22.547  38.890   0.716
30445W        W95430  34.156  32.307   3.764
30446W        W95431  38.008  22.922  13.351
30447W        W95432   3.233  14.550  11.994
30448W        W95433  13.210  41.590  12.630
30449W        W95434   1.722  25.168  14.458
30450W        W95435  26.625   1.651   3.063
30451W        W95436  32.651  26.770  14.341
30452W        W95437   5.917  12.767  12.149
30453W        W95438  32.446  21.404   0.807
30454W        W95439   8.617   3.095   0.818
30455W        W95440  17.233  42.261   0.342
30456W        W95441  23.935   5.324   0.271
30457W        W95442   2.684  41.897  11.398
30458W        W95443  24.513  30.636  14.029
30459W        W95444  13.752  32.843   3.502
30460W        W95445  44.473  16.740  13.739
30461W        W95446   0.504  14.504   2.329
30462W        W95447  39.299  33.346  13.357
30463W        W95448  43.064  13.879   2.287
30464W        W95449  44.760   4.962   3.812
30465W        W95450  43.002  11.720  13.459
30466W        W95451  16.743  12.658  13.852
30467W        W95452  15.071  17.787   1.699
30468W        W95453  42.215  10.933   1.289
30469W        W95454  40.992  31.395  13.367
30470W        W95455  40.343  23.343   1.321
30471W        W95456  31.208  40.163  12.527
30472W        W95457  21.175  36.665  11.931
30473W        W95458  40.313   3.279   1.469
30474W        W95459  22.587  29.655  10.588
30475W        W95460  23.705   1.952   0.828
30476W        W95461   9.087  41.261   1.864
30477W        W95462  20.262  34.846   2.266
30478W        W95463  43.715   8.344  13.437
30479W        W95464  38.442  31.127  11.721
30480W        W95465   1.925  36.314   1.810
30481W        W95466  26.303   7.794   0.905
30482W        W95467  35.468  30.517  13.030
30483W        W95468  42.997  11.334  10.786
30484W        W95469  23.142  17.347  13.359
30485W        W95470  26.748   4.784   0.657
30486W        W95471  36.991  20.210  12.518
30487W        W95472  23.073   4.001  11.080
30488W        W95473  20.088  32.220   0.428
30489W        W95474   2.935   5.843   4.184
30490W        W95475  31.649   5.212   3.624
30491W        W95476  10.109  33.370  12.323
30492W        W95477  29.584   8.832  13.942
30493W        W95478  14.882  39.539   1.179
30494W        W95479  10.647  38.321   3.567
30495W        W95480   4.879   4.521  12.139
30496W        W95481  38.793  23.675  14.885
30497W        W95482  34.074  21.563   3.864
30498W        W95483  41.854  11.336   4.704
30499W        W95484  38.372  42.315  11.432
30500W        W95485  32.123  42.068  14.865
30501W        W95486  12.543  30.080  14.542
30502W        W95487  36.132  12.630  13.921
30503W        W95488   7.613  37.506   2.693
30504W        W95489  16.142  36.522  14.493
30505W        W95490  16.985   2.318  11.560
30506W        W95491  20.242   1.053   0.828
30507W        W95492  42.479  11.714   2.651
30508W        W95493  19.759  23.045   3.091
30509W        W95494   2.185  12.698  14.005
30510W        W95495  27.601  32.156  12.056
30511W        W95496   6.265  43.765   2.449
30512W        W95497  14.351  41.591  11.201
30513W        W95498  44.128  33.639  13.591
30514W        W95499  36.761  43.964   4.095
30515W        W95500  42.410  35.376  14.398
30516W        W95501  31.140  24.145  14.985
30517W        W95502   4.998  41.663   2.203
30518W        W95503  25.744  41.955  13.017
30519W        W95504   9.904  31.912  12.983
30520W        W95505  27.569   4.628   3.709
30521W        W95506  18.977  39.503   1.665
30522W        W95507  26.696  38.113   4.015
30523W        W95508   8.184   8.475   2.297
30524W        W95509  36.248   6.547   3.604
30525W        W95510  32.538   7.729  10.601
30526W        W95511   9.745  27.053  11.451
30527W        W95512  42.353  25.274  13.432
30528W        W95513  20.334  25.142   5.001
30529W        W95514  24.789  32.436   0.915
30530W        W95515   4.785  16.371  12.153
30531W        W95516  44.198   7.870   0.705
30532W        W95517  42.420  36.068   1.460
30533W        W95518  16.293  31.054  12.501
30534W        W95519  27.412  40.528   4.149
30535W        W95520  28.768  18.512  13.113
30536W        W95521  20.823  18.690  14.982
30537W        W95522  36.869  13.552  11.238
30538W        W95523  12.931  33.798   4.132
30539W        W95524   4.194   9.325   2.427
30540W        W95525   6.302  33.388  13.805
30541W        W95526  27.349  37.980  13.426
30542W        W95527   6.616  37.946  10.703
30543W        W95528   2.718  11.822  12.572
30544W        W95529  39.089  24.743   4.631
30545W        W95530  34.438   4.842  12.731
30546W        W95531  44.556  23.570  13.504
30547W        W95532  27.108  28.765   2.712
30548W        W95533  13.663  44.632  11.329
30549W        W95534  35.506   9.773   3.190
30550W        W95535  40.572  30.542  13.037
30551W        W95536  29.683   9.389  12.904
30552W        W95537   6.225  34.641  12.853
30553W        W95538   9.288   3.766   1.868
30554W        W95539  33.450  11.207   0.509
30555W        W95540  16.837   7.772  13.435
30556W        W95541  41.748  21.440   0.763
30557W        W95542  22.178  16.615  12.951
30558W        W95543  26.600  35.312  14.837
30559W        W95544  26.918  28.180   4.160
30560W        W95545  20.740  32.407  10.775
30561W        W95546  43.889   5.834   2.262
30562W        W95547  24.573  24.960  12.105
30563W        W95548  42.001  29.701   0.416
30564W        W95549  40.792  18.237   0.548
30565W        W95550  16.809  24.814  13.277
30566W        W95551  11.633   4.686   0.761
30567W        W95552  25.764  24.602  13.829
30568W        W95553   7.739  19.348  14.308
30569W        W95554  41.212  40.300   1.992
30570W        W95555  37.110   6.629   3.358
30571W        W95556   7.894   4.331  12.587
30572W        W95557  11.816  29.593   1.519
30573W        W95558   8.799  34.521  14.690
30574W        W95559  37.556  40.775  11.554
30575W        W95560  38.249   1.162   3.574
30576W        W95561  29.473  27.518  13.063
30577W        W95562  35.185  27.462   4.810
30578W        W95563  12.216  31.508  13.811
30579W        W95564  40.351   7.189  10.591
30580W        W95565  31.678  13.544  11.310
30581W        W95566  16.239  24.291  14.380
30582W        W95567  17.366   7.827   0.747
30583W        W95568   3.246  30.073   3.467
30584W        W95569  40.900  21.635   0.228
30585W        W95570   0.507  37.102   4.522
30586W        W95571  41.960  16.152   4.013
30587W        W95572  43.489  37.825   3.852
30588W        W95573  18.714  39.646  13.060
30589W        W95574  19.541   0.508   4.450
30590W        W95575   0.218  16.851  12.479
30591W        W95576  40.953   4.614  11.163
30592W        W95577  27.951   5.620  13.942
30593W        W95578  38.430   6.302   3.073
30594W        W95579  39.430   7.224   3.301
30595W        W95580  38.373  42.576  14.483
30596W        W95581  13.241  40.203  13.605
30597W        W95582  28.922  12.862   3.105
30598W        W95583  19.777   2.303  11.377
30599W        W95584  40.373  25.679  13.491
30600W        W95585  33.606  13.459  14.828
30601W        W95586  34.029   8.630   0.710
30602W        W95587  27.703  40.147   2.787
30603W        W95588  43.087  21.709  14.362
30604W        W95589   8.686  10.494   1.141
30605W        W95590   5.901  22.471   3.784
30606W        W95591   3.161  24.072   0.148
30607W        W95592  27.880  18.224  10.402
30608W        W95593  41.458  40.930   1.380
30609W        W95594   1.035  31.775   2.363
30610W        W95595  19.212  20.849  14.546
30611W        W95596  15.936  22.360   3.372
30612W        W95597  37.937  17.089  12.976
30613W        W95598  14.439  11.301  13.378
30614W        W95599  28.758  16.017   0.376
30615W        W95600   4.923  16.138   3.200
30616W        W95601  22.618  25.239   3.272
30617W        W95602   4.136  16.043  14.497
30618W        W95603  13.135  20.027  13.879
30619W        W95604  44.019  42.783   0.298
30620W        W95605  38.306  37.382  12.491
30621W        W95606   2.749  38.054   3.312
30622W        W95607  13.154  24.327  10.649
30623W        W95608  22.204  11.675   0.446
30624W        W95609  37.973  24.493   4.303
30625W        W95610  31.526  16.229   1.260
30626W        W95611  15.204  20.184  13.472
30627W        W95612  32.831  13.321  12.957
30628W        W95613  30.485  23.990   3.489
30629W        W95614  38.090  23.979  10.678
30630W        W95615  20.206  17.307  13.852
30631W        W95616   4.863   0.995   0.297
30632W        W95617  30.270  17.361   2.549
30633W        W95618  10.978   3.681  11.704
30634W        W95619  44.858  24.424   3.382
30635W        W95620  38.620   9.208   0.741
30636W        W95621  27.879  32.965  13.858
30637W        W95622  40.062  29.134   4.935
30638W        W95623  20.470   0.871   3.892
30639W        W95624  16.539  41.590   3.881
30640W        W95625  44.633  18.682  12.053
30641W        W95626  33.029  25.255   2.800
30642W        W95627   8.962  43.024  13.611
30643W        W95628  38.013  30.573   2.646
30644W        W95629  26.908  33.787  10.784
30645W        W95630   7.325  13.619   1.740
30646W        W95631   4.470   9.892   0.341
30647W        W95632  36.633  16.533   2.043
30648W        W95633  26.328  29.008   1.469
30649W        W95634  24.999  32.157  11.955
30650W        W95635  31.921  32.195  12.074
30651W        W95636   3.303   4.930  11.181
30652W        W95637  19.803   7.739   1.854
30653W        W95638  13.267  28.082   2.897
30654W        W95639  11.227  33.406  14.377
30655W        W95640  24.964  31.597   0.461
30656W        W95641  26.116  12.847  12.852
30657W        W95642  28.706  40.490   4.104
30658W        W95643   3.088  15.002   3.373
30659W        W95644  10.251  38.542  14.035
30660W        W95645  26.944  24.512   3.535
30661W        W95646  19.273  38.443   2.270
30662W        W95647  33.434  10.404   3.200
30663W        W95648  15.357   1.875   2.739
30664W        W95649  25.389  26.013   1.863
30665W        W95650  44.318  22.219   3.645
30666W        W95651  16.955  41.310  11.217
30667W        W95652   6.069  10.495   0.010
30668W        W95653  39.119  14.404   4.069
30669W        W95654  22.320  15.815   0.742
30670W        W95655  22.767  12.191  12.228
30671W        W95656  44.418  33.576   1.165
30672W        W95657  20.695  41.960   0.450
30673W        W95658  42.616  22.930  14.977
30674W        W95659  42.304  38.841   2.004
30675W        W95660  29.224  11.786  14.826
30676W        W95661   7.903  23.037   0.420
30677W        W95662  27.638   1.294  13.808
30678W        W95663  15.718  34.036  13.688
30679W        W95664   2.469  11.447  13.385
30680W        W95665  33.403   8.054  12.137
30681W        W95666  21.886  24.491  14.513
30682W        W95667   1.554  26.542   3.884
30683W        W95668  15.582  26.040   2.815
30684W        W95669  36.315  30.261   1.507
30685W        W95670  16.158  39.116   3.346
30686W        W95671  23.246  38.354  13.837
30687W        W95672  30.603  28.662  11.352
30688W        W95673  40.392  38.903   2.663
30689W        W95674  41.194  29.625   0.123
30690W        W95675  23.281   2.090  11.237
30691W        W95676  32.007   7.165   1.426
30692W        W95677  30.253  10.006  13.008
30693W        W95678  14.244  31.669   3.146
30694W        W95679  33.680  37.909   1.280
30695W        W95680  18.113  26.597  12.202
30696W        W95681   6.122  24.161   4.919
30697W        W95682   9.093   1.739  13.910
30698W        W95683   5.716   3.806  11.600
30699W        W95684  12.394  33.788  12.355
30700W        W95685   6.591  21.218  14.314
30701W        W95686  25.116  11.724  13.598
30702W        W95687  32.783  24.303   1.192
30703W        W95688  30.555  23.101   2.587
30704W        W95689  34.864  20.977   3.615
30705W        W95690  39.495  18.135   1.517
30706W        W95691  35.311   0.465  11.567
30707W        W95692  33.389  18.030   3.802
30708W        W95693  19.782  22.553   1.882
30709W        W95694   7.447  22.229   2.851
30710W        W95695   8.467  14.258  11.457
30711W        W95696  18.991  30.614  11.559
30712W        W95697   6.491  10.871   4.542
30713W        W95698  37.108  18.491  12.930
30714W        W95699  37.557  22.767   1.366
30715W        W95700  18.786  37.471   3.070
30716W        W95701  38.360   2.837   0.295
30717W        W95702  24.211  26.041   2.513
30718W        W95703  38.888   4.933  11.588
30719W        W95704   7.739   2.857  10.095
30720W        W95705  29.179  40.420   2.567
30721W        W95706  44.983  41.597   2.898
30722W        W95707  44.450   7.804   2.255
30723W        W95708  30.592   7.606   4.155
30724W        W95709  12.418   4.799  11.550
30725W        W95710  37.605  32.552  12.491
30726W        W95711  44.730  16.852  10.206
30727W        W95712   4.604  30.486  14.935
30728W        W95713   2.090  34.012  14.476
30729W        W95714  35.555  30.631   3.188
30730W        W95715  43.733  11.781  13.001
30731W        W95716   4.436   1.013  11.653
30732W        W95717   3.762  31.006  13.077
30733W        W95718  32.194  10.360  10.937
30734W        W95719  10.032  31.929   1.270
30735W        W95720  15.439   5.937  12.663
30736W        W95721  21.747  10.385  14.238
30737W        W95722   2.992  18.446   3.676
30738W        W95723  38.848  40.466  11.653
30739W        W95724  30.117  22.984  14.252
30740W        W95725  26.658  18.648  12.794
30741W        W95726  19.887  34.813   0.283
30742W        W95727   0.378   5.274   3.150
30743W        W95728  26.501  19.257  10.740
30744W        W95729  14.298  19.098   3.590
30745W        W95730  24.626  18.089   0.440
30746W        W95731  41.547  37.856   3.171
30747W        W95732  14.671   5.217   3.244
30748W        W95733  35.518  23.134  10.891
30749W        W95734   5.531  44.849  13.991
30750W        W95735  23.713  18.531  10.602
30751W        W95736  14.428   6.687  13.434
30752W        W95737  27.506  13.049   2.380
30753W        W95738  41.909  16.006  12.093
30754W        W95739  42.116  19.078  10.255
30755W        W95740  40.849  35.918   3.249
30756W        W95741   4.646  27.873   3.899
30757W        W95742  43.446  32.483   4.714
30758W        W95743  44.889  13.362  14.386
30759W        W95744   1.007  13.877  14.479
30760W        W95745  34.441   9.871   0.633
30761W        W95746  27.493  35.386  13.396
30762W        W95747  26.646  36.612   0.020
30763W        W95748  15.856  14.554   9.918
30764W        W95749  42.552  35.898   2.915
30765W        W95750   8.218  10.374  13.425
30766W        W95751  31.347  36.179   4.194
30767W        W95752  28.142  27.344   2.278
30768W        W95753  29.996  24.412  13.334
30769W        W95754   8.047  14.501  12.192
30770W        W95755  26.771  29.168  11.190
30771W        W95756  38.946   5.505  14.465
30772W        W95757  39.057  14.436   2.108
30773W        W95758  29.350  38.076   1.675
30774W        W95759  31.074  18.574   4.610
30775W        W95760  22.022  25.622   2.005
30776W        W95761  17.515  13.249   4.119
30777W        W95762   9.543  26.578   3.885
30778W        W95763  28.422  13.234   1.834
30779W        W95764  16.393  23.814  14.536
30780W        W95765   6.293   8.858   2.580
30781W        W95766  34.983  41.344  14.737
30782W        W95767  35.478   2.212  10.780
30783W        W95768   7.462  14.871   1.200
30784W        W95769  35.084  31.144  10.929
30785W        W95770  30.029  29.342   5.055
30786W        W95771  31.703  27.031  11.014
30787W        W95772  20.684  11.727   2.177
30788W        W95773  27.274   5.791  11.063
30789W        W95774  38.546   2.241   2.144
30790W        W95775  24.779  25.016  14.067
30791W        W95776  21.229  24.306   4.058
30792W        W95777   5.859  35.581   4.636
30793W        W95778  18.022   9.281  10.015
30794W        W95779   2.786  41.877   4.084
30795W        W95780  34.591  24.566   1.548
30796W        W95781  37.901  39.017   1.891
30797W        W95782  20.157  24.963  10.756
30798W        W95783  33.013  40.668   4.859
30799W        W95784   7.786  12.110  11.524
30800W        W95785   1.480  33.150   0.167
30801W        W95786   5.174  36.441   0.524
30802W        W95787  30.836  18.545   4.156
30803W        W95788   8.001  13.570   2.460
30804W        W95789  38.475  18.734  10.745
30805W        W95790   6.669  43.939   1.640
30806W        W95791  23.438  43.589   1.385
30807W        W95792  12.691  11.332   3.762
30808W        W95793  44.102  38.882   2.478
30809W        W95794  20.310  14.466   4.938
30810W        W95795  30.128  15.299   3.483
30811W        W95796  26.406  20.770  13.499
30812W        W95797  32.859   9.889   1.998
30813W        W95798  24.610  36.013   3.175
30814W        W95799   7.816   3.607  13.946
30815W        W95800  25.767  24.611   4.479
30816W        W95801   9.294   6.594   0.540
30817W        W95802  30.708  19.118   3.637
30818W        W95803  24.557  31.641   1.341
30819W        W95804  14.884   2.215  12.129
30820W        W95805   1.340  27.633   4.914
30821W        W95806   2.054  44.668   2.543
30822W        W95807   1.262  14.077   1.466
30823W        W95808  15.139  18.582  11.578
30824W        W95809  31.637  29.154   3.756
30825W        W95810   8.360  11.708   3.638
30826W        W95811  44.340  16.163  13.543
30827W        W95812   4.640  37.856  11.159
30828W        W95813  26.711  41.823   5.274
30829W        W95814  32.931   3.738   3.752
30830W        W95815  29.601  12.780  12.102
30831W        W95816  23.080  44.954   4.320
30832W        W95817  40.987  11.639  12.884
30833W        W95818  11.311  15.910   3.618
30834W        W95819   1.470  10.679  11.158
30835W        W95820  22.220  39.600  12.912
30836W        W95821  27.781   5.309   3.196
30837W        W95822  12.501   9.332  13.162
30838W        W95823  19.612  24.097  14.586
30839W        W95824  15.774  22.139   4.241
30840W        W95825  34.484  42.055   1.423
30841W        W95826  28.930  23.805  11.632
30842W        W95827  26.655   0.638   3.210
30843W        W95828  17.766  13.381  11.617
30844W        W95829  19.851  32.561  12.484
30845W        W95830  21.534  33.071  12.941
30846W        W95831  32.835   4.459  13.478
30847W        W95832  29.729  22.762   5.044
30848W        W95833  23.685  37.183   4.760
30849W        W95834  43.708  28.860   2.750
30850W        W95835   8.387   9.279   1.232
30851W        W95836   2.223  10.706   3.391
30852W        W95837  41.875   6.677   3.071
30853W        W95838   2.513   4.666  12.015
30854W        W95839  15.189  13.560   4.878
30855W        W95840  27.464  22.175  14.808
30856W        W95841   5.366  10.385   2.554
30857W        W95842  25.421  32.172   4.756
30858W        W95843  26.547  37.762   3.127
30859W        W95844  32.516  23.536  11.948
30860W        W95845  44.062  35.840   3.704
30861W        W95846  25.743  20.666   3.245
30862W        W95847  11.683  19.817   3.810
30863W        W95848  30.455  10.423  10.666
30864W        W95849  24.248  24.325   5.272
30865W        W95850  34.100  24.059   4.215
30866W        W95851   6.444  23.436   1.246
30867W        W95852  12.721   8.354   0.930
30868W        W95853   8.627  44.809   3.688
30869W        W95854  14.352  28.720  12.726
30870W        W95855  26.916  18.728   2.678
30871W        W95856  35.420  16.651  10.789
30872W        W95857  22.875  32.747   2.724
30873W        W95858  40.372   8.026   1.334
30874W        W95859  21.508   2.453   0.995
30875W        W95860  20.917  40.018   3.270
30876W        W95861  41.970  37.546   4.898
30877W        W95862  42.578  41.774  11.981
30878W        W95863  26.616   5.270  13.806
30879W        W95864   1.416  18.721   0.980
30880W        W95865  28.227  37.355  10.308
30881W        W95866  29.871   5.691   0.372
30882W        W95867   4.983  22.946  12.412
30883W        W95868  17.693  18.609   3.990
30884W        W95869  34.806  23.654  12.984
30885W        W95870   5.947  34.011  11.201
30886W        W95871   2.017  41.068   2.755
30887W        W95872   2.786  31.995  12.439
30888W        W95873   2.920  44.676   2.324
30889W        W95874  11.649  39.261  12.676
30890W        W95875  11.047  39.212  13.194
30891W        W95876  29.510  20.773   0.827
30892W        W95877  24.992  42.422   1.363
30893W        W95878   8.835  23.223  14.336
30894W        W95879  20.166   4.948  10.348
30895W        W95880  31.463  18.103  14.274
30896W        W95881  11.774   2.941  10.553
30897W        W95882  17.969  37.362   2.607
30898W        W95883  17.246  36.472   3.686
30899W        W95884  42.023  16.714   1.912
30900W        W95885  43.980   0.471   0.731
30901W        W95886   8.239  38.711   1.256
30902W        W95887  22.101  36.599  12.104
30903W        W95888  41.850  30.836   2.641
30904W        W95889  12.156  30.354   4.745
30905W        W95890  19.582  10.667  12.509
30906W        W95891  35.556  35.836   0.488
30907W        W95892  44.508  25.404  10.270
30908W        W95893  16.222  26.937  10.819
30909W        W95894   2.884  10.777  11.798
30910W        W95895  24.564  36.976  12.532
30911W        W95896  35.808  37.938  14.293
30912W        W95897  15.553  26.182  12.900
30913W        W95898   0.476  34.054   1.467
30914W        W95899  16.603  24.705  11.622
30915W        W95900  38.884  30.972  13.548
30916W        W95901  26.805  20.098   4.500
30917W        W95902  25.080  43.922  13.493
30918W        W95903   6.633   0.097  11.286
30919W        W95904   5.162  19.907   1.331
30920W        W95905  13.369  16.404   2.324
30921W        W95906  24.596  23.477  11.991
30922W        W95907   4.743  33.068   1.041
30923W        W95908  32.777  14.197   0.805
30924W        W95909   5.336  11.399   2.288
30925W        W95910  35.499  35.642   2.216
30926W        W95911  15.797  21.530  14.408
30927W        W95912  37.064  19.808  10.870
30928W        W95913   0.034   2.162   1.517
30929W        W95914  20.662  29.805   3.648
30930W        W95915  41.466  17.214  14.285
30931W        W95916   3.737  36.183  10.697
30932W        W95917   3.911  15.428   1.788
30933W        W95918   9.811  19.237  12.682
30934W        W95919   9.027  26.534   3.940
30935W        W95920   6.393  25.137   0.100
30936W        W95921  18.612  17.447   0.076
30937W        W95922  42.558  42.812  14.370
30938W        W95923  42.330  15.758  11.915
30939W        W95924   7.250  36.613  12.910
30940W        W95925   4.903  44.460   2.257
30941W        W95926  38.653  42.574  11.076
30942W        W95927  12.292  19.744   2.031
30943W        W95928  30.888   6.834  10.751
30944W        W95929  10.212   2.925   1.270
30945W        W95930  41.828  18.073   1.618
30946W        W95931  35.388  44.342   4.455
30947W        W95932  24.516   4.637   1.310
30948W        W95933  35.257  22.144  11.533
30949W        W95934  39.567  32.067  13.896
30950W        W95935  10.360  28.559  12.874
30951W        W95936  37.367  34.487  12.344
30952W        W95937  14.160  24.217   0.994
30953W        W95938   2.750   8.851  12.330
30954W        W95939  44.518  42.348   3.199
30955W        W95940  41.535  43.504   1.902
30956W        W95941  15.143  20.066  12.290
30957W        W95942   0.360   0.693   4.393
30958W        W95943  11.083  40.722   4.100
30959W        W95944  41.258  21.797  12.501
30960W        W95945  31.809  23.702   0.843
30961W        W95946  20.242  34.026   0.699
30962W        W95947  27.974  18.558   3.747
30963W        W95948  29.956   3.726   1.740
30964W        W95949  40.965   9.167  10.656
30965W        W95950  44.897   3.630  14.214
30966W        W95951  27.855  15.167  14.028
30967W        W95952  16.138  13.828   4.630
30968W        W95953   5.218  37.225  12.448
30969W        W95954  30.989  26.782   2.269
30970W        W95955  14.648  39.730   3.485
30971W        W95956  40.016  17.797   5.470
30972W        W95957   5.365  21.203  12.159
30973W        W95958  23.176  44.030   4.647
30974W        W95959  22.974  39.985   4.144
30975W        W95960  17.131  35.387   2.783
30976W        W95961  44.238  15.083  14.424
30977W        W95962   9.350  11.671  13.781
30978W        W95963  34.611  13.253   1.298
30979W        W95964  17.551  18.187  12.763
30980W        W95965  28.656  35.533   1.145
30981W        W95966  16.162  13.871   1.409
30982W        W95967  41.353  41.297   3.756
30983W        W95968  44.518  37.405  13.804
30984W        W95969  23.773  35.363   2.724
30985W        W95970  43.205  41.196   0.801
30986W        W95971  38.382  36.802  10.718
30987W        W95972   3.979  31.385  14.845
30988W        W95973   3.329  23.665  13.484
30989W        W95974  17.980  26.493   0.361
30990W        W95975  18.558  14.289  12.957
30991W        W95976  32.607   9.589   2.676
30992W        W95977   4.450  24.496  13.454
30993W        W95978  21.178  10.136   3.870
30994W        W95979  16.706  37.396   1.774
30995W        W95980   3.411  22.679  11.935
30996W        W95981  38.095  44.373  11.621
30997W        W95982  18.664   0.376  11.619
30998W        W95983  11.306  37.512   3.661
30999W        W95984  43.065  10.745  13.252
31000W        W95985   4.802  24.791   2.907
31001W        W95986  41.406  36.874  13.098
31002W        W95987  19.897  44.745  11.853
31003W        W95988  24.571  38.129   3.100
31004W        W95989  36.983  19.700   1.937
31005W        W95990   4.354  21.678  10.674
31006W        W95991  12.553  43.876   4.888
31007W        W95992  16.101  33.712   4.828
31008W        W95993  34.415  28.181  10.602
31009W        W95994   1.525  38.390  13.305
31010W        W95995  16.545  31.531   4.818
31011W        W95996   3.316   7.511  13.506
31012W        W95997  35.409  35.783   1.003
31013W        W95998  25.993  38.144   4.634
31014W        W95999  15.276   5.236   1.393
31015W        W96000  19.670  11.750   4.916
31016W        W96001  27.388  30.989  12.533
31017W        W96002  37.254  11.645   0.170
31018W        W96003  10.861  29.914   3.918
31019W        W96004  38.585  43.480   2.672
31020W        W96005  21.821  40.101   5.082
31021W        W96006  17.146  30.444  12.525
31022W        W96007  16.243  25.688   4.990
31023W        W96008  13.305  22.631  14.358
31024W        W96009   4.387  41.860  10.423
31025W        W96010   6.945  10.959  11.581
31026W        W96011  18.359   3.021  12.493
31027W        W96012   6.485  41.936   1.770
31028W        W96013  25.346  24.702   3.117
31029W        W96014  16.123   6.202   2.913
31030W        W96015  21.613  27.318   2.585
31031W        W96016  20.313   9.477   4.588
31032W        W96017  43.371  21.384  14.060
31033W        W96018  20.708  20.037  13.025
31034W        W96019  13.257  23.074   1.779
31035W        W96020  30.892   8.790   4.457
31036W        W96021  43.248  22.260  10.172
31037W        W96022  35.434  39.832  11.582
31038W        W96023  21.663  20.668   4.077
31039W        W96024  18.768  43.901   0.427
31040W        W96025  10.122  21.253  10.228
31041W        W96026  16.343  22.404   3.045
31042W        W96027  29.101   3.142  13.946
31043W        W96028   9.477   9.806  13.961
31044W        W96029  22.249  27.562  12.903
31045W        W96030  11.716  32.170   1.227
31046W        W96031  36.648  32.679  13.835
31047W        W96032   4.576  32.461   0.371
31048W        W96033  17.825  18.040   3.240
31049W        W96034   9.632  37.973  11.618
31050W        W96035  11.818  31.896  13.941
31051W        W96036  31.049  33.551   4.098
31052W        W96037  29.007   1.343   1.891
31053W        W96038  30.556  24.692  11.577
31054W        W96039  14.299  41.824  10.751
31055W        W96040  24.593  32.842   1.854
31056W        W96041  20.799  10.688  10.599
31057W        W96042  17.582  14.769  11.555
31058W        W96043  29.582  44.039  10.630
31059W        W96044  16.077  29.157  12.836
31060W        W96045  37.000  10.250  10.690
31061W        W96046   3.969  22.033   2.579
31062W        W96047   8.699   0.477  14.883
31063W        W96048  26.897  37.680  13.457
31064W        W96049  33.525  33.904   3.510
31065W        W96050  36.852  34.704   0.167
31066W        W96051  20.500  17.302  14.715
31067W        W96052   2.513   2.033   0.748
31068W        W96053  43.712   0.185  12.889
31069W        W96054  36.601  12.254   2.192
31070W        W96055  39.317  30.897   2.617
31071W        W96056  29.396  26.555   3.167
31072W        W96057   5.778   5.907  14.431
31073W        W96058  36.079  40.095   4.157
31074W        W96059  38.105   3.428  12.911
31075W        W96060  26.662  25.338  14.920
31076W        W96061  15.701  44.274  11.819
31077W        W96062  21.262  44.275   3.777
31078W        W96063  43.764  33.573   1.494
31079W        W96064   5.907   1.788  12.311
31080W        W96065  22.123   2.639  11.172
31081W        W96066  27.106  33.317   1.174
31082W        W96067  21.921  31.780  12.994
31083W        W96068  43.994  26.480  11.582
31084W        W96069  15.799  12.246   1.686
31085W        W96070  43.450  22.970  14.747
31086W        W96071  44.600  41.776   1.241
31087W        W96072  34.547  29.404  11.365
31088W        W96073  37.475  36.629   0.880
31089W        W96074   6.319  32.175  10.858
31090W        W96075  18.819  15.865   4.516
31091W        W96076   7.171  43.260  11.114
31092W        W96077  24.619   0.412   1.759
31093W        W96078  41.841  34.310  13.343
31094W        W96079  37.333  31.819  14.143
31095W        W96080   0.529  13.175  14.963
31096W        W96081   7.878  15.513  12.153
31097W        W96082  23.765  23.778   3.045
31098W        W96083   6.991  31.149  11.166
31099W        W96084   0.420  32.187  12.471
31100W        W96085   4.166  37.280   4.683
31101W        W96086   7.767  28.992   0.011
31102W        W96087  37.848  11.883   1.594
31103W        W96088   5.194  34.437  14.675
31104W        W96089  24.109  40.815   1.473
31105W        W96090   3.311   3.554  11.980
31106W        W96091   1.919  20.720   4.397
31107W        W96092   6.707   1.892   0.228
31108W        W96093  43.673  18.828   3.076
31109W        W96094  19.179  36.847   1.076
31110W        W96095  40.157  27.510  14.368
31111W        W96096  20.257   7.180   0.222
31112W        W96097  10.873  23.047   3.049
31113W        W96098  34.553  13.284   2.974
31114W        W96099   6.202  31.964  12.606
31115W        W96100  21.696   3.107   1.342
31116W        W96101   7.902  24.993   3.265
31117W        W96102  43.016  42.312  11.223
31118W        W96103  16.612  13.076  12.561
31119W        W96104  10.320   9.610   0.276
31120W        W96105   7.734  31.733  13.009
31121W        W96106  35.918  35.995   0.891
31122W        W96107  15.679  12.096  10.703
31123W        W96108   0.308  10.249   0.193
31124W        W96109   0.929  18.837  13.311
31125W        W96110  31.124  38.168  12.007
31126W        W96111  40.519  42.854  14.082
31127W        W96112   3.488  44.443   3.231
31128W        W96113  44.069   5.338  11.555
31129W        W96114  38.978  22.476  13.939
31130W        W96115  22.150  17.700   3.182
31131W        W96116   9.734  37.021  10.651
31132W        W96117  10.556  33.652  12.269
31133W        W96118   3.235  12.542   4.778
31134W        W96119  26.554  24.120   2.246
31135W        W96120  17.472  27.641   2.315
31136W        W96121  40.881  21.145   0.499
31137W        W96122  22.022  26.449  13.039
31138W        W96123  13.024   8.814   0.285
31139W        W96124   5.593  31.676  13.993
31140W        W96125  36.401  16.150  13.801
31141W        W96126  44.612  10.194   4.974
31142W        W96127   2.844  30.413   3.651
31143W        W96128  35.259  34.128  13.932
31144W        W96129  25.854  24.729   3.186
31145W        W96130  44.903  23.014   2.886
31146W        W96131  23.007  39.533  14.201
31147W        W96132  20.477  24.674   1.338
31148W        W96133  13.741  12.105  12.042
31149W        W96134  27.768  40.542   3.125
31150W        W96135  44.996   8.964  12.539
31151W        W96136  17.740  29.597   2.650
31152W        W96137   3.591  19.486   2.803
31153W        W96138  20.971  16.727   1.751
31154W        W96139   6.872  22.677  11.632
31155W        W96140  12.307   2.500  12.414
31156W        W96141  28.355  24.174   3.105
31157W        W96142   4.755  12.705   4.412
31158W        W96143  18.831  15.764  10.744
31159W        W96144  28.855   0.485  14.363
31160W        W96145   7.324   6.212  13.435
31161W        W96146  27.913  41.280   3.042
31162W        W96147   2.426  32.366   3.604
31163W        W96148  34.156  17.560   3.814
31164W        W96149  10.636   3.053   4.915
31165W        W96150   2.927  10.240  13.920
31166W        W96151  25.953  37.542  13.812
31167W        W96152  38.069   8.429   0.493
31168W        W96153  25.737   9.540   1.388
31169W        W96154  22.796  39.245   2.287
31170W        W96155  41.913  33.236  14.726
31171W        W96156  26.193   0.385  11.089
31172W        W96157   3.053   1.180   0.368
31173W        W96158   7.088  39.342   1.316
31174W        W96159  35.061   7.762   2.886
31175W        W96160  20.697  38.887  12.496
31176W        W96161  39.462   4.262   1.825
31177W        W96162  28.059   9.810  14.859
31178W        W96163   0.346   1.509   0.780
31179W        W96164  23.423   7.266   3.238
31180W        W96165  32.269  31.420  12.624
31181W        W96166  13.629  36.596  10.776
31182W        W96167  11.095  31.947  12.607
31183W        W96168   1.691  22.949   3.296
31184W        W96169  25.673  37.333  10.557
31185W        W96170  28.570   8.162  14.789
31186W        W96171  12.725   0.221  13.339
31187W        W96172  14.685  13.224  11.626
31188W        W96173  11.655  24.749  13.508
31189W        W96174  18.244  42.765   1.849
31190W        W96175  28.051  36.770   4.175
31191W        W96176   9.715  35.599  10.802
31192W        W96177  34.601  37.525  11.100
31193W        W96178   1.228  40.303  11.104
31194W        W96179  42.721  32.090  12.531
31195W        W96180   9.454  12.864   1.296
31196W        W96181  44.212  21.604  12.470
31197W        W96182  33.703  37.547  11.072
31198W        W96183   9.873   4.226  13.496
31199W        W96184  16.980  43.950   2.789
31200W        W96185   4.815  22.990  11.538
31201W        W96186  28.975   3.590   1.656
31202W        W96187  32.977   0.299   0.613
31203W        W96188  20.292  41.417  13.539
31204W        W96189  12.449  30.695  12.755
31205W        W96190  31.870   7.307  13.283
31206W        W96191  23.685  19.823   0.959
31207W        W96192  26.122  32.429   1.390
31208W        W96193  42.486  34.219   3.599
31209W        W96194  14.183  11.841  12.099
31210W        W96195   6.662   8.325   4.000
31211W        W96196  15.055  15.010  14.698
31212W        W96197  26.271   4.835   0.455
31213W        W96198  25.618   5.752   3.289
31214W        W96199  37.302  18.901   2.753
31215W        W96200  23.049   6.584  10.640
31216W        W96201  23.217  40.091   0.264
31217W        W96202  22.075  34.383   1.990
31218W        W96203  30.236   1.963  10.841
31219W        W96204   9.235  10.899   0.665
31220W        W96205   4.377   6.368   1.517
31221W        W96206   4.646  12.046  14.004
31222W        W96207  28.475   1.608  11.828
31223W        W96208  36.476  34.609   3.320
31224W        W96209  13.791  12.378  14.344
31225W        W96210  11.650  23.488  14.827
31226W        W96211  24.793  34.329   2.713
31227W        W96212   0.854  44.238  14.925
31228W        W96213  22.668  26.361  14.008
31229W        W96214  36.379   3.380   1.675
31230W        W96215  40.134  35.896   2.188
31231W        W96216  28.466  41.013   3.658
31232W        W96217   6.922  24.749  10.837
31233W        W96218  16.173  29.771   4.654
31234W        W96219   7.991  38.896   3.317
31235W        W96220  32.509  32.181  13.881
31236W        W96221  21.254  35.984  13.834
31237W        W96222  43.586  39.406  10.371
31238W        W96223   5.717  36.987   4.913
31239W        W96224  25.186   8.229  13.896
31240W        W96225  25.697   9.021   2.560
31241W        W96226  10.594  17.014  12.477
31242W        W96227  34.933  21.395   3.940
31243W        W96228  34.933  11.603   1.763
31244W        W96229  17.309  39.108  11.231
31245W        W96230  39.944  34.063   2.750
31246W        W96231  43.055  32.109  12.105
31247W        W96232  29.043  42.880  11.701
31248W        W96233   5.208  16.600   2.862
31249W        W96234  31.455  34.658   0.352
31250W        W96235  19.866   7.944  14.251
31251W        W96236  14.237  21.705   3.593
31252W        W96237  21.427  44.981   0.410
31253W        W96238   3.821   5.125   2.776
31254W        W96239  35.794  32.747   0.243
31255W        W96240  21.167  42.408  14.420
31256W        W96241  14.477  39.774  13.033
31257W        W96242  42.720  41.919   0.129
31258W        W96243  37.456  38.077   0.992
31259W        W96244  35.088  25.747  13.483
31260W        W96245  28.191  10.613   4.761
31261W        W96246  13.167  22.777   0.045
31262W        W96247  29.713  28.070  10.224
31263W        W96248  10.884   3.882   4.834
31264W        W96249  26.384  44.902  10.916
31265W        W96250   6.605  31.435  13.939
31266W        W96251   7.494  39.058  13.479
31267W        W96252  33.433  38.784  13.935
31268W        W96253  11.196  23.091   2.181
31269W        W96254  17.161   2.734   2.441
31270W        W96255  37.350  43.763  12.397
31271W        W96256   5.750  26.419  11.185
31272W        W96257  11.706  13.776   2.620
31273W        W96258  23.615  28.710   3.941
31274W        W96259  36.757  41.451   4.435
31275W        W96260  17.780  12.644  12.948
31276W        W96261  37.537  15.106   2.999
31277W        W96262  21.526  37.827   3.548
31278W        W96263  20.796  38.074  12.031
31279W        W96264   5.897   2.510  13.541
31280W        W96265   4.948  17.756   0.938
31281W        W96266   0.467  11.649   3.677
31282W        W96267  31.034  19.275  13.669
31283W        W96268  33.938  23.258   1.840
31284W        W96269  10.094  25.177   0.006
31285W        W96270  11.824  12.311   0.413
31286W        W96271  23.072  30.509   2.938
31287W        W96272  14.085  39.137   1.715
31288W        W96273   1.888  17.970   3.274
31289W        W96274  27.436  43.930  12.908
31290W        W96275  35.888  43.390   4.928
31291W        W96276   5.613  32.105   1.871
31292W        W96277  36.841  23.066  12.975
31293W        W96278   1.351   9.203  11.851
31294W        W96279   4.688  26.547  12.789
31295W        W96280  19.209  35.712  11.213
31296W        W96281   1.235  19.476  14.738
31297W        W96282   6.101   3.936   0.632
31298W        W96283  33.045  29.840  14.491
31299W        W96284  23.927  42.855   3.683
31300W        W96285   7.852  10.131  12.209
31301W        W96286   3.422  17.870   2.997
31302W        W96287  40.813   7.732   2.833
31303W        W96288  41.069  24.249  12.055
31304W        W96289   9.873   5.825   0.731
31305W        W96290   8.787  21.668   4.882
31306W        W96291  29.166   4.965  11.272
31307W        W96292  19.779  42.229  13.583
31308W        W96293   5.692   3.344  11.359
31309W        W96294   0.552   6.915   2.390
31310W        W96295   0.663   0.890   0.744
31311W        W96296  21.470  12.742   2.871
31312W        W96297  36.373  30.584  10.508
31313W        W96298  12.908  38.876   4.201
31314W        W96299  37.830  42.449  14.803
31315W        W96300   8.920  18.813  11.205
31316W        W96301  27.481  12.348   0.370
31317W        W96302   6.227  21.429   5.004
31318W        W96303  17.304  11.115  12.694
31319W        W96304  12.097  43.347  10.653
31320W        W96305  28.597   0.369   2.385
31321W        W96306   5.982   0.175   4.152
31322W        W96307   3.555   2.084  12.060
31323W        W96308  43.987  34.380   4.558
31324W        W96309  13.066  13.360  11.904
31325W        W96310  13.323  16.827   3.196
31326W        W96311  33.275  13.556   0.229
31327W        W96312  41.876  12.375   2.885
31328W        W96313  27.674   2.499  10.734
31329W        W96314   7.916  17.816  12.616
31330W        W96315  13.767   1.138   0.905
31331W        W96316   9.426  40.256  13.406
31332W        W96317  29.999  18.342  10.735
31333W        W96318   8.446  17.740   2.736
31334W        W96319  13.216  34.426   1.905
31335W        W96320  27.744  42.016  14.962
31336W        W96321  40.560  28.424  11.446
31337W        W96322  44.214  24.707   3.916
31338W        W96323  28.844  37.266  11.041
31339W        W96324  17.054  33.497  10.666
31340W        W96325   8.252  21.620  13.466
31341W        W96326   4.478  25.387  13.490
31342W        W96327  26.462   2.915  10.747
31343W        W96328  39.126   1.693  14.925
31344W        W96329  29.628   7.327   2.163
31345W        W96330  15.020  37.499  14.829
31346W        W96331  33.550   3.419   2.655
31347W        W96332  43.459  39.884  10.559
31348W        W96333  36.818  23.571  12.990
31349W        W96334  23.656  42.755   0.888
31350W        W96335  42.019  44.258  10.235
31351W        W96336  29.794  15.043   0.459
31352W        W96337  26.978  16.687  14.776
31353W        W96338  21.361  26.380  12.944
31354W        W96339   9.001   2.817   2.994
31355W        W96340  21.979  32.463  11.028
31356W        W96341   8.661   7.946   9.820
31357W        W96342  16.091  43.876  13.461
31358W        W96343  36.358  35.372   2.381
31359W        W96344  38.146  33.007   0.541
31360W        W96345  31.146  22.380  13.390
31361W        W96346  44.988  17.582   2.824
31362W        W96347  18.848  32.399   3.266
31363W        W96348   5.676  30.619  12.018
31364W        W96349  35.602  20.298  10.762
31365W        W96350  31.028  35.018  14.304
31366W        W96351  24.101  25.720  14.915
31367W        W96352  15.806  14.054   1.762
31368W        W96353  32.594   3.104  13.576
31369W        W96354  32.939  25.889   1.516
31370W        W96355  26.559  28.134  10.247
31371W        W96356  43.251  39.275   4.150
31372W        W96357   8.138  21.704  14.365
31373W        W96358  29.034   4.689   2.681
31374W        W96359  25.602  16.329  13.539
31375W        W96360   7.884  38.057  14.943
31376W        W96361  43.734  39.038  12.082
31377W        W96362  41.964   3.364   1.100
31378W        W96363   2.832  38.326  11.508
31379W        W96364  37.560  13.046   1.077
31380W        W96365  17.768  38.493   3.698
31381W        W96366  33.878  35.355  14.902
31382W        W96367  44.605  14.631   4.950
31383W        W96368   5.714  44.679  12.427
31384W        W96369   6.984   2.926   3.248
31385W        W96370  10.726  43.321   2.373
31386W        W96371  28.048  23.316  10.420
31387W        W96372  27.577   9.475   2.953
31388W        W96373  42.187   3.606  12.091
31389W        W96374  19.354  35.811  14.541
31390W        W96375  44.408  32.397   2.723
31391W        W96376  43.795  20.049   1.245
31392W        W96377  35.822   0.888   0.788
31393W        W96378  11.754  21.660   0.547
31394W        W96379  10.811  29.380   2.259
31395W        W96380  25.729  36.983  12.904
31396W        W96381   5.408  30.563  14.255
31397W        W96382  42.505  41.970  14.441
31398W        W96383  11.231  20.386   0.650
31399W        W96384  19.284  22.827   3.688
31400W        W96385  31.994  27.600   0.099
31401W        W96386  31.852   9.324   3.703
31402W        W96387  41.018  28.058  12.677
31403W        W96388  36.855  38.369   3.155
31404W        W96389  19.657  29.964  12.997
31405W        W96390  20.247  31.358   0.977
31406W        W96391  16.007   9.030   2.679
31407W        W96392  17.080  44.373  14.834
31408W        W96393  16.527  19.726   3.245
31409W        W96394  28.648   4.957   1.233
31410W        W96395  38.324  31.807  13.061
31411W        W96396  28.145  26.480  14.852
31412W        W96397   3.526  18.302   0.936
31413W        W96398  28.503  21.180   3.876
31414W        W96399  37.543  43.509  11.089
31415W        W96400  27.679  12.055  11.552
31416W        W96401  13.050   3.448  12.534
31417W        W96402  15.219  42.793  11.247
31418W        W96403  22.015   0.228   0.751
31419W        W96404  22.227  35.044   2.679
31420W        W96405  26.207   2.924  12.127
31421W        W96406  17.115  25.621  12.527
31422W        W96407  21.700   4.464  10.271
31423W        W96408  30.513  37.318   4.235
31424W        W96409  13.393  20.745  10.673
31425W        W96410  44.678  32.671  11.244
31426W        W96411  28.548  32.157   3.242
31427W        W96412   5.266  38.922   1.685
31428W        W96413  19.046  22.714   0.877
31429W        W96414  22.776  34.792  11.863
31430W        W96415  37.004  25.260  12.975
31431W        W96416  34.560  30.122   4.338
31432W        W96417  35.348  12.602  14.582
31433W        W96418  40.824  41.821   0.960
31434W        W96419  12.139  34.285  14.737
31435W        W96420  32.066  26.038  12.958
31436W        W96421  35.388  21.527   3.706
31437W        W96422  39.868  36.000  14.477
31438W        W96423   6.482  23.576   4.713
31439W        W96424  42.441  14.231   5.026
31440W        W96425  16.879  18.313   4.035
31441W        W96426   7.867  31.917   0.345
31442W        W96427  12.446  10.903   2.341
31443W        W96428   1.856  31.099   3.323
31444W        W96429   8.232   8.594   0.876
31445W        W96430  15.050  24.061  13.023
31446W        W96431  42.797  44.043   0.263
31447W        W96432  26.547  24.021  13.896
31448W        W96433  32.859  25.766   2.774
31449W        W96434   1.929  41.841   0.806
31450W        W96435  38.398   2.918  10.782
31451W        W96436   6.323   3.246  12.809
31452W        W96437  41.461  43.318  13.432
31453W        W96438  29.453  29.914  14.272
31454W        W96439  10.834   3.373   4.127
31455W        W96440  44.999   6.661  12.767
31456W        W96441  13.406   7.239   0.847
31457W        W96442  38.740  21.112   9.992
31458W        W96443  26.213   6.813   1.298
31459W        W96444  44.281  30.030   3.196
31460W        W96445  12.029  30.971   3.975
31461W        W96446   0.304   0.508  10.702
31462W        W96447  22.054  41.417  14.972
31463W        W96448  22.480  43.969  11.136
31464W        W96449  12.814  20.701  11.913
31465W        W96450  30.540  11.940  10.716
31466W        W96451  43.490   8.848   1.234
31467W        W96452  14.597  26.736   2.288
31468W        W96453  42.872  44.565  14.413
31469W        W96454  39.088  12.726  10.394
31470W        W96455  34.891  44.128  14.005
31471W        W96456  44.748  21.723  11.988
31472W        W96457  22.128   5.748  13.296
31473W        W96458   8.653  24.002   3.568
31474W        W96459  44.436   3.237   1.720
31475W        W96460  43.695  32.955  13.382
31476W        W96461  32.508  11.174   0.677
31477W        W96462  28.983  10.328  11.462
31478W        W96463  31.622  38.250   1.367
31479W        W96464  29.687  23.490  14.215
31480W        W96465  16.794   3.902   3.262
31481W        W96466  22.671  14.749  13.102
31482W        W96467  35.059  13.171   3.264
31483W        W96468  37.493  34.147   4.167
31484W        W96469  33.117   2.200   4.652
31485W        W96470  42.589  16.641   2.344
31486W        W96471  43.789   5.761  11.532
31487W        W96472  17.976  21.036   1.373
31488W        W96473   4.958  34.038  12.502
31489W        W96474   4.067  13.159  11.337
31490W        W96475  22.576   0.996   4.213
31491W        W96476  13.670  39.417  12.958
31492W        W96477  15.088  16.151   1.793
31493W        W96478  44.818  12.993   2.693
31494W        W96479  27.611   6.387  10.554
31495W        W96480  21.276  31.592  10.665
31496W        W96481  25.218  44.214  14.728
31497W        W96482   1.294  20.169   4.378
31498W        W96483  23.900  33.957   2.765
31499W        W96484  18.087  35.476   1.421
31500W        W96485   0.648  36.241  11.146
31501W        W96486  21.038   5.002   4.038
31502W        W96487  25.169  18.380   3.717
31503W        W96488  26.990  18.215   1.360
31504W        W96489  17.660  26.450  12.399
31505W        W96490   5.890  11.228   3.750
31506W        W96491  20.549  31.617   3.721
31507W        W96492  25.602  42.275   0.531
31508W        W96493  20.551  33.585   0.493
31509W        W96494   1.623  25.015  13.301
31510W        W96495  37.442  20.562   2.421
31511W        W96496  20.772  38.824   1.775
31512W        W96497   4.710  11.724  11.629
31513W        W96498  24.037  37.596   0.743
31514W        W96499  13.707  27.015   5.108
31515W        W96500  21.052  18.637   3.307
31516W        W96501  38.776   2.786   4.169
31517W        W96502  14.805   9.764   4.668
31518W        W96503  40.997   7.067   3.351
31519W        W96504  12.741  28.021  11.866
31520W        W96505  39.033  25.068   0.214
31521W        W96506  37.454  30.494   3.798
31522W        W96507   9.219  44.585   1.679
31523W        W96508  34.153  24.762  11.969
31524W        W96509  35.481  19.651  13.861
31525W        W96510  43.731  41.103   4.095
31526W        W96511  31.708   1.246   2.369
31527W        W96512  12.334  13.841   3.399
31528W        W96513  32.203  13.811  14.290
31529W        W96514  21.393  14.282  14.955
31530W        W96515  21.692  33.142   0.930
31531W        W96516  44.782   6.717  10.698
31532W        W96517   9.671  34.653   0.035
31533W        W96518  39.439  21.037   3.289
31534W        W96519  31.610  26.538   2.854
31535W        W96520  16.961  44.335  12.687
31536W        W96521  35.848  22.960  13.886
31537W        W96522  41.806  20.659   3.121
31538W        W96523  16.658  34.185  11.568
31539W        W96524   0.744  33.108   4.309
31540W        W96525  34.175  41.897  14.234
31541W        W96526  25.679  22.478  14.241
31542W        W96527  11.894  38.746   0.887
31543W        W96528  15.261  41.899  12.913
31544W        W96529   1.266  26.588  13.120
31545W        W96530   4.228   2.736  12.684
31546W        W96531   9.614  18.025   2.302
31547W        W96532   5.908  25.760  14.364
31548W        W96533  11.523  23.305  10.229
31549W        W96534  10.192  34.644   1.700
31550W        W96535   5.826  16.735   0.849
31551W        W96536  37.500  14.049   1.428
31552W        W96537  31.839   0.978  14.317
31553W        W96538  39.470  36.804   2.905
31554W        W96539  33.340  28.196  13.121
31555W        W96540  15.757  14.766  12.184
31556W        W96541  39.579   7.210   1.926
31557W        W96542  40.084  27.882  12.323
31558W        W96543  40.807  26.160  14.396
31559W        W96544   5.342  35.285   2.231
31560W        W96545   3.982   9.419  13.955
31561W        W96546   1.909   3.168  14.320
31562W        W96547  20.755  22.675   4.863
31563W        W96548   2.299  20.780  12.588
31564W        W96549  42.676  23.442  14.739
31565W        W96550  39.495  40.293   3.687
31566W        W96551  18.075   6.368  12.258
31567W        W96552  41.482  44.130  11.788
31568W        W96553   4.363  26.470  11.503
31569W        W96554  10.472  12.670   0.790
31570W        W96555  34.530  42.582  10.642
31571W        W96556  25.075   2.867  13.487
31572W        W96557  18.094  10.409   4.242
31573W        W96558  23.079   0.375   3.200
31574W        W96559   8.718  35.565   2.065
31575W        W96560   7.861  19.640  13.871
31576W        W96561  30.450  37.549  10.319
31577W        W96562  18.959  11.838   4.136
31578W        W96563  25.759  14.617  14.996
31579W        W96564  16.782   2.685   2.832
31580W        W96565  44.268  26.628   1.660
31581W        W96566  23.057  44.679  12.450
31582W        W96567  25.041  19.213  13.905
31583W        W96568  29.133  21.515   2.352
31584W        W96569  18.008  43.461  13.602
31585W        W96570  41.536  23.117   3.748
31586W        W96571  17.887  43.320   2.415
31587W        W96572  32.431  44.676  13.356
31588W        W96573  31.313  24.447   3.358
31589W        W96574  22.394  27.191   2.442
31590W        W96575  38.248  27.086   4.521
31591W        W96576  13.892  36.205   3.817
31592W        W96577  18.606  11.728  14.905
31593W        W96578  43.056  20.661   0.004
31594W        W96579  19.214  24.448  11.234
31595W        W96580  31.875  34.458  10.623
31596W        W96581  44.505  23.045   1.598
31597W        W96582  34.529  11.163   2.755
31598W        W96583  42.540   2.236   3.646
31599W        W96584  24.655  18.538  12.967
31600W        W96585  11.697  25.449   2.302
31601W        W96586   8.158  15.861   0.323
31602W        W96587  10.248   7.457   1.299
31603W        W96588  27.048  12.796   2.300
31604W        W96589  37.857  30.983   3.149
31605W        W96590   8.070  42.854   1.873
31606W        W96591  39.781   9.155  11.979
31607W        W96592  21.658  10.768   4.299
31608W        W96593  33.971  29.549   4.752
31609W        W96594   9.896   9.197  12.284
31610W        W96595  23.515  37.450   0.790
31611W        W96596  25.904  40.085   4.244
31612W        W96597  13.072  23.448   3.114
31613W        W96598   2.791   8.476  11.467
31614W        W96599  34.921  30.892   2.604
31615W        W96600  33.379  17.871  14.529
31616W        W96601   8.076   2.098  10.918
31617W        W96602  23.168  21.620   4.592
31618W        W96603  27.451  15.370   3.649
31619W        W96604  33.958  40.128   0.488
31620W        W96605  28.472  41.433  14.402
31621W        W96606  33.122  26.736  13.573
31622W        W96607  29.402  36.585   1.011
31623W        W96608  16.562  18.815   2.272
31624W        W96609  44.262  14.030  12.498
31625W        W96610  44.539   1.980   4.174
31626W        W96611  24.092  37.454  11.146
31627W        W96612  30.946  22.199  12.463
31628W        W96613  26.059   8.160   1.849
31629W        W96614  21.284  22.162   0.280
31630W        W96615  21.180   5.130  12.156
31631W        W96616   0.584  20.217  10.323
31632W        W96617  14.541  30.518  14.777
31633W        W96618  29.905  22.212   0.095
31634W        W96619   5.352  10.526  13.918
31635W        W96620  18.272  40.425   0.217
31636W        W96621  43.933   5.684  13.020
31637W        W96622  10.292  36.402  10.802
31638W        W96623  27.904  43.880   3.030
31639W        W96624  22.545  42.126   4.505
31640W        W96625   1.298  38.776   0.492
31641W        W96626  26.059  16.314   3.169
31642W        W96627   7.647  40.424  12.925
31643W        W96628  20.752   6.540   4.604
31644W        W96629  35.977  40.470   1.497
31645W        W96630  31.963   2.894   1.892
31646W        W96631   3.775  30.040  13.556
31647W        W96632  42.380  21.153   0.546
31648W        W96633  25.006   9.842  12.970
31649W        W96634  37.383   8.392  11.624
31650W        W96635   9.216  41.385  11.210
31651W        W96636  25.813  39.588  12.514
31652W        W96637  16.594   7.395  11.020
31653W        W96638   8.727  38.424  14.804
31654W        W96639  20.992  16.427  14.798
31655W        W96640  34.579   0.471  13.384
31656W        W96641  35.369   8.828  12.035
31657W        W96642  11.347   8.535   4.373
31658W        W96643  37.637   5.273   4.594
31659W        W96644   2.166  41.956   0.006
31660W        W96645  40.491  25.356   2.276
31661W        W96646  16.302  39.788  10.726
31662W        W96647  35.504   6.305   0.983
31663W        W96648  27.127  41.232   3.679
31664W        W96649  43.331  24.225   1.172
31665W        W96650  39.391  39.473   2.385
31666W        W96651   4.490  10.092  12.394
31667W        W96652  20.653   1.405  13.884
31668W        W96653  44.697   7.426  13.484
31669W        W96654  42.887  31.008   1.071
31670W        W96655  32.584  34.452  12.594
31671W        W96656  31.574  31.375   4.802
31672W        W96657  35.978  22.260  14.846
31673W        W96658  41.053  16.804  12.983
31674W        W96659  17.824   5.397  14.870
31675W        W96660  20.414   3.480   1.421
31676W        W96661  40.573  39.851  10.034
31677W        W96662  30.665   4.938  11.064
31678W        W96663  31.153  34.786  11.969
31679W        W96664  40.178   6.304   2.586
31680W        W96665  34.453  10.454   1.457
31681W        W96666  36.041  34.275  14.275
31682W        W96667  38.245  16.761  14.239
31683W        W96668   6.599  34.305  12.020
31684W        W96669   3.416  36.517  11.662
31685W        W96670  40.450  10.214  14.905
31686W        W96671  24.241  15.791   2.734
31687W        W96672  12.202  17.505   2.788
31688W        W96673  34.287  20.418  11.627
31689W        W96674   8.789  21.002   3.347
31690W        W96675  42.215   3.684   4.625
31691W        W96676  18.727  27.150   2.704
31692W        W96677  29.171  20.507  12.526
31693W        W96678  13.580  21.009   2.306
31694W        W96679  38.893  29.516  12.514
31695W        W96680  29.866  36.124  12.503
31696W        W96681  31.965   1.915  14.483
31697W        W96682  26.669  13.095   1.793
31698W        W96683  32.548  21.193   3.367
31699W        W96684  27.468  11.155   3.064
31700W        W96685   4.276   9.278  14.879
31701W        W96686   4.403  43.760   4.462
31702W        W96687   0.994  14.686   4.038
31703W        W96688  27.121  39.581  10.937
31704W        W96689  29.646  14.716  13.418
31705W        W96690  29.388  26.173   2.641
31706W        W96691   3.686  28.592  13.906
31707W        W96692   7.241  10.774  13.259
31708W        W96693   3.903  18.560  10.531
31709W        W96694   3.281  16.607  10.702
31710W        W96695  43.731  37.368  13.409
31711W        W96696  31.660   8.673   3.634
31712W        W96697  43.733   6.376  14.203
31713W        W96698  27.005  26.378  11.114
31714W        W96699  37.987  42.166   1.277
31715W        W96700  39.578  33.815  14.557
31716W        W96701  32.930  11.762  12.383
31717W        W96702  43.770  19.575   0.376
31718W        W96703   6.862  41.194  12.371
31719W        W96704   6.773  23.267   2.417
31720W        W96705  30.342  40.559  12.679
31721W        W96706  34.636  42.749   4.049
31722W        W96707  16.024  36.652   0.071
31723W        W96708   6.960  33.549  12.504
31724W        W96709  35.562  17.517  13.949
31725W        W96710  38.232  44.788  13.031
31726W        W96711  12.848   1.389   0.450
31727W        W96712  39.050  16.452   1.202
31728W        W96713  20.156  31.961  12.962
31729W        W96714   7.440   2.366  13.625
31730W        W96715   8.975  11.644   2.692
31731W        W96716  20.053  18.290   0.722
31732W        W96717  20.641  30.567   4.356
31733W        W96718   0.115  11.373  12.134
31734W        W96719  28.893  30.499  12.100
31735W        W96720  23.973  37.837  14.771
31736W        W96721  36.638  41.960   2.940
31737W        W96722  19.947  40.847  12.595
31738W        W96723   5.997  38.625  11.592
31739W        W96724  28.209  38.846   4.109
31740W        W96725  10.811  26.532   1.194
31741W        W96726  40.187   1.199  12.808
31742W        W96727   4.535  27.207  12.030
31743W        W96728  37.029   5.389   4.309
31744W        W96729  15.977  29.202   4.564
31745W        W96730  30.630  28.470  13.984
31746W        W96731  38.405  32.151   0.995
31747W        W96732  30.640  28.530   4.696
31748W        W96733  13.254  40.248   0.838
31749W        W96734  16.322  10.216  14.994
31750W        W96735  30.739  33.950  12.400
31751W        W96736  27.718  34.978   4.631
31752W        W96737   2.879  21.576  11.527
31753W        W96738  39.900   8.592   0.455
31754W        W96739  18.516  39.832   2.648
31755W        W96740  31.547  20.979  10.545
31756W        W96741  41.820  26.846   5.121
31757W        W96742  44.702  24.168   0.961
31758W        W96743  44.918   7.263   4.170
31759W        W96744  38.365  19.510   2.821
31760W        W96745  30.473  44.921  12.421
31761W        W96746  25.491  42.555   3.196
31762W        W96747  15.683   0.679   4.618
31763W        W96748  36.309  43.875  10.635
31764W        W96749   7.874  33.189  11.951
31765W        W96750   9.343  42.904  11.515
31766W        W96751   0.510  37.811  14.445
31767W        W96752   1.888   4.627  10.739
31768W        W96753   0.074  20.023   0.702
31769W        W96754  36.468  36.066  14.743
31770W        W96755  41.294  30.571  12.382
31771W        W96756  36.368  22.778  13.017
31772W        W96757  43.597  25.544   3.229
31773W        W96758   9.419  14.830   0.455
31774W        W96759  22.247  44.981  14.303
31775W        W96760  21.593  26.800   2.673
31776W        W96761  11.955  32.097   5.217
31777W        W96762   8.684  44.433   3.331
31778W        W96763   2.313  33.530  14.572
31779W        W96764   2.430  34.478   0.816
31780W        W96765  25.391  44.381   1.311
31781W        W96766   0.482  12.904   1.396
31782W        W96767  35.187  40.881  14.857
31783W        W96768  16.065  16.374   1.901
31784W        W96769  23.568  13.684   1.295
31785W        W96770  14.696  21.193  12.604
31786W        W96771  44.870   4.053  12.697
31787W        W96772   9.451  19.835   4.550
31788W        W96773  21.276  25.482  11.602
31789W        W96774  43.129   5.585  14.702
31790W        W96775  34.729  17.997   3.166
31791W        W96776  21.174  12.743   4.615
31792W        W96777  29.048  32.090   3.219
31793W        W96778  37.906  26.475  14.484
31794W        W96779  17.979  17.464  13.040
31795W        W96780  34.601   2.421   4.398
31796W        W96781   7.176  20.503   3.263
31797W        W96782  13.109  27.729   0.079
31798W        W96783   7.320  38.961  10.384
31799W        W96784  41.716  32.504   2.970
31800W        W96785  40.809  10.292  13.523
31801W        W96786  41.240   7.723   0.372
31802W        W96787  30.460  34.908   1.769
31803W        W96788  38.025  26.221  14.035
31804W        W96789  24.245  32.982   3.732
31805W        W96790  17.531  14.716   4.167
31806W        W96791  13.394  27.391  11.150
31807W        W96792  22.631  16.613  14.395
31808W        W96793  36.420  37.856  12.414
31809W        W96794  13.813  43.893   0.065
31810W        W96795  32.850   7.485  11.603
31811W        W96796   5.991  32.824   2.865
31812W        W96797  22.274  21.225   3.375
31813W        W96798  35.857   9.025  13.779
31814W        W96799   9.812  36.137   0.783
31815W        W96800  34.098   9.557   3.246
31816W        W96801   3.587  29.637  13.267
31817W        W96802  39.894   8.953   2.462
31818W        W96803   5.363  14.885   4.061
31819W        W96804  39.329  32.135  12.117
31820W        W96805  22.285   1.389  10.795
31821W        W96806  16.668   1.654   4.984
31822W        W96807  16.552  32.866  10.395
31823W        W96808  29.674  31.045   0.875
31824W        W96809  19.039  26.400   4.244
31825W        W96810   8.793  27.098   4.438
31826W        W96811  43.819   7.952   3.735
31827W        W96812   9.656  24.958   2.256
31828W        W96813  30.670  36.039  14.027
31829W        W96814  40.361  17.226   3.526
31830W        W96815   8.653  39.594  13.470
31831W        W96816   8.385  40.477  11.553
31832W        W96817  39.978  28.362   4.130
31833W        W96818  19.635  23.705  14.921
31834W        W96819   7.839  23.473  11.077
31835W        W96820  13.167   1.502   3.164
31836W        W96821   9.278  39.889  14.806
31837W        W96822  33.506  40.368   1.271
31838W        W96823  19.377  19.832   2.647
31839W        W96824  37.104  30.649   4.162
31840W        W96825  35.177  13.087  14.795
31841W        W96826  12.664   2.261  13.006
31842W        W96827  35.390  14.336   3.137
31843W        W96828  28.659  15.197  10.762
31844W        W96829  25.539  33.486  12.126
31845W        W96830   1.960  17.710  13.523
31846W        W96831  34.794  20.786  13.532
31847W        W96832  41.513  28.894   0.314
31848W        W96833  44.000  36.306   4.938
31849W        W96834   2.792  35.484  10.836
31850W        W96835  10.901  43.497   4.262
31851W        W96836  10.505  10.912  12.531
31852W        W96837  33.995  24.915   3.750
31853W        W96838  17.322  28.029   1.974
31854W        W96839  37.951  13.789   1.483
31855W        W96840  38.749  27.035   4.447
31856W        W96841  39.835  22.239   0.270
31857W        W96842  14.796  37.619   4.497
31858W        W96843  30.685  36.865  14.497
31859W        W96844  21.209  39.912   4.813
31860W        W96845  11.950  24.924   2.781
31861W        W96846  17.270  21.541   3.698
31862W        W96847  44.420  32.180   9.930
31863W        W96848  30.932  29.628   3.321
31864W        W96849  16.681  25.977  10.112
31865W        W96850  21.480  31.986  11.496
31866W        W96851  36.514  34.690  12.166
31867W        W96852  19.058  11.100   1.172
31868W        W96853  32.430   9.702  12.450
31869W        W96854   7.271  28.441   4.182
31870W        W96855  14.194   0.213  13.053
31871W        W96856  16.088   8.713  12.972
31872W        W96857  35.458  10.582   0.886
31873W        W96858  34.486  37.329  12.220
31874W        W96859   6.855  20.670   1.899
31875W        W96860  19.781   7.590  14.659
31876W        W96861   2.886  12.366  14.992
31877W        W96862  20.482  43.739  12.894
31878W        W96863  10.436  17.761   4.969
31879W        W96864  15.643  40.333  10.914
31880W        W96865  11.330   3.368  14.461
31881W        W96866  18.833  34.578  10.216
31882W        W96867  20.301  22.545   1.892
31883W        W96868   3.477   3.208  12.897
31884W        W96869  35.940  28.334  12.380
31885W        W96870  37.437  14.296  13.559
31886W        W96871   2.853   5.747   0.275
31887W        W96872  28.143  40.875  13.364
31888W        W96873  30.406  39.316  12.859
31889W        W96874  43.889   7.246  10.634
31890W        W96875  16.289  29.220  13.977
31891W        W96876  16.569  13.382   0.771
31892W        W96877   9.470  24.662   5.054
31893W        W96878   9.708  10.635   1.785
31894W        W96879   3.189  27.637  12.981
31895W        W96880   5.944  11.668  11.078
31896W        W96881   1.688  26.864  11.260
31897W        W96882  36.820  29.168   3.133
31898W        W96883  23.948  34.381  13.067
31899W        W96884   7.416  16.347  12.363
31900W        W96885  21.224  10.093   0.484
31901W        W96886  28.181  27.492   0.033
31902W        W96887   7.847  43.516  12.989
31903W        W96888  26.659  44.671   4.236
31904W        W96889  35.096  28.394   0.282
31905W        W96890  40.482  44.617   9.740
31906W        W96891  26.799  12.586  11.681
31907W        W96892  33.596  42.408  12.096
31908W        W96893  34.936  22.014   2.176
31909W        W96894  19.339   6.538  10.955
31910W        W96895  32.622   0.913   2.738
31911W        W96896  14.636  43.518   1.520
31912W        W96897  17.599  31.887   1.264
31913W        W96898   7.185  25.058   3.993
31914W        W96899  30.236   1.680   2.613
31915W        W96900  27.709  12.620   0.821
31916W        W96901  25.985  29.891   3.132
31917W        W96902   0.749   3.726   4.485
31918W        W96903  38.812   1.037   2.809
31919W        W96904  25.012  43.537   0.435
31920W        W96905  34.534   1.208   2.530
31921W        W96906  19.071  24.517  14.916
31922W        W96907  11.157  16.053   1.215
31923W        W96908  25.531  23.508   1.516
31924W        W96909  16.857  34.034   1.485
31925W        W96910  14.078  11.177  13.890
31926W        W96911  38.030   0.238   2.284
31927W        W96912  43.758  22.177   4.539
31928W        W96913  14.873   8.991   3.685
31929W        W96914   8.663  17.358  14.410
31930W        W96915  44.198   0.308   4.148
31931W        W96916  39.865  11.340   1.162
31932W        W96917  39.552  36.290  14.826
31933W        W96918  17.580  44.284  12.072
31934W        W96919  39.838   6.115   0.945
31935W        W96920  10.875   7.414   3.841
31936W        W96921  35.122  21.551  14.504
31937W        W96922   2.387  43.971  12.896
31938W        W96923  39.702   9.811  13.072
31939W        W96924  15.298  19.589  12.380
31940W        W96925  10.589  40.316  13.717
31941W        W96926  27.495  26.777   0.934
31942W        W96927   2.353  43.896  14.581
31943W        W96928  43.829  39.087   2.867
31944W        W96929   3.289   9.381   0.441
31945W        W96930   8.713  31.883  11.766
31946W        W96931  21.595  26.395   3.619
31947W        W96932  17.825  21.120   2.683
31948W        W96933  27.243   2.719  13.793
31949W        W96934   0.305  32.086   4.715
31950W        W96935  26.110  27.743  10.476
31951W        W96936   3.758  14.681   2.286
31952W        W96937  34.814  27.950  10.831
31953W        W96938  28.731  36.992  14.756
31954W        W96939  21.890   3.349   1.823
31955W        W96940  25.743  10.290   1.696
31956W        W96941   1.137  36.406  11.147
31957W        W96942  36.970  41.160   0.733
31958W        W96943  41.718  35.996   2.931
31959W        W96944   9.262  34.091   4.219
31960W        W96945  12.305  11.080  10.771
31961W        W96946   1.589   7.193  14.403
31962W        W96947  16.524  12.271   2.506
31963W        W96948  21.422   8.732   4.109
31964W        W96949  23.945  38.898  14.145
31965W        W96950  27.147   7.534   2.409
31966W        W96951  21.879  44.302   3.967
31967W        W96952  18.501  29.354   3.145
31968W        W96953  10.207  10.060   4.649
31969W        W96954  26.730  41.289   1.147
31970W        W96955   0.208  26.324   0.690
31971W        W96956   2.834  44.274  10.534
31972W        W96957   7.279   3.198  14.815
31973W        W96958   0.931  10.474  12.008
31974W        W96959  13.183  44.990   3.520
31975W        W96960  20.650  41.015   4.587
31976W        W96961  38.471  30.583   3.806
31977W        W96962  24.521  25.580   2.543
31978W        W96963  43.346  43.097   4.344
31979W        W96964  38.914   3.238   3.093
31980W        W96965  11.552   8.950   4.103
31981W        W96966  38.513  18.616   4.062
31982W        W96967  25.647   4.510   0.539
31983W        W96968  35.098  33.557   4.120
31984W        W96969  41.320  27.010   4.418
31985W        W96970  33.981  20.431  11.202
31986W        W96971  31.076  20.728   0.428
31987W        W96972  41.743  37.897  11.264
31988W        W96973  11.548  30.992  14.505
31989W        W96974  26.598  21.461   3.765
31990W        W96975  42.769  39.819  11.984
31991W        W96976  27.288  18.321   0.924
31992W        W96977  18.497  18.171  10.391
31993W        W96978  39.126  22.731   1.172
31994W        W96979  41.812  21.357   5.050
31995W        W96980  20.145   3.401   0.213
31996W        W96981  11.284  18.731   1.460
31997W        W96982  11.684  16.816   2.814
31998W        W96983  12.060  39.404  10.748
31999W        W96984  38.138  25.432   0.359
32000W        W96985  42.977   4.864   3.636
32001W        W96986   0.550   1.044   4.076
32002W        W96987   0.184  27.983  10.595
32003W        W96988  28.996  10.597  14.108
32004W        W96989  19.616  33.969  12.506
32005W        W96990  16.976  29.672   5.093
32006W        W96991  31.640  12.662  12.967
32007W        W96992   7.637   6.931  13.980
32008W        W96993  44.231  38.926   3.158
32009W        W96994  39.729  19.597   3.654
32010W        W96995  21.959  27.424   0.229
32011W        W96996  29.851  14.816  11.597
32012W        W96997   4.475  37.928   2.721
32013W        W96998   9.477   3.016  13.801
32014W        W96999   3.359  37.574  13.585
32015W        W97000  30.896  29.122   3.193
32016W        W97001  22.563  23.782  13.902
32017W        W97002  31.033   2.797  11.200
32018W        W97003   7.351  13.850  14.111
32019W        W97004   0.356   2.966  10.786
32020W        W97005  41.466  32.872   2.262
32021W        W97006   2.907   9.657  14.390
32022W        W97007  18.570   7.951  11.507
32023W        W97008  28.000   7.355   0.698
32024W        W97009  19.117  30.488   4.490
32025W        W97010  17.720  42.186  13.872
32026W        W97011   7.876  28.250   3.309
32027W        W97012  16.232   5.831   3.758
32028W        W97013  32.951  11.693  14.877
32029W        W97014  22.525  10.214  12.590
32030W        W97015  19.261   3.001   0.493
32031W        W97016  19.741  19.753   4.357
32032W        W97017   4.160  34.008  11.564
32033W        W97018  38.531  23.584  13.361
32034W        W97019  42.569  33.850  14.393
32035W        W97020  30.366  20.105   1.871
32036W        W97021  19.665  26.043  14.187
32037W        W97022  30.142  31.971   0.886
32038W        W97023  14.321  40.274  10.790
32039W        W97024  11.401   7.514  14.392
32040W        W97025  16.242  24.620  14.888
32041W        W97026  29.498  20.043  10.407
32042W        W97027   2.735  39.944  14.529
32043W        W97028  43.781  38.245   4.725
32044W        W97029  26.553  41.575  12.621
32045W        W97030  41.781  27.106   1.008
32046W        W97031  10.742  42.504   1.321
32047W        W97032  26.156   0.190   1.691
32048W        W97033  44.951  33.896   0.693
32049W        W97034  31.990   3.066  13.044
32050W        W97035  41.944   3.048   3.239
32051W        W97036  28.609   9.850  13.468
32052W        W97037  38.840   0.372   4.798
32053W        W97038   8.798   9.901   2.260
32054W        W97039   1.510  28.603  10.711
32055W        W97040  15.628  21.802   2.766
32056W        W97041  16.627  24.550   0.251
32057W        W97042  16.044  39.839   2.090
32058W        W97043   9.577  29.070   0.328
32059W        W97044  12.665  28.519   1.272
32060W        W97045  14.390  23.486   2.312
32061W        W97046  32.890  25.537   3.244
32062W        W97047   2.454  30.928   1.690
32063W        W97048  29.318  31.576   2.389
32064W        W97049  44.601  27.402  10.162
32065W        W97050  29.558  44.971  14.122
32066W        W97051  29.518  30.331  10.161
32067W        W97052  29.655   1.369  12.014
32068W        W97053  37.382  15.657  10.807
32069W        W97054  31.420  35.441   2.879
32070W        W97055  43.825  18.550   0.406
32071W        W97056  17.219  11.235   2.349
32072W        W97057  38.575  42.815   0.349
32073W        W97058   0.823   4.159   2.750
32074W        W97059  15.313   4.794   2.619
32075W        W97060  10.523   1.287   1.771
32076W        W97061  33.575  26.190   1.757
32077W        W97062   4.949  11.919  14.863
32078W        W97063  44.834  26.452   4.504
32079W        W97064  35.599  17.350   2.202
32080W        W97065   8.309  10.734   3.682
32081W        W97066  23.680  43.513   3.694
32082W        W97067   0.241  34.362  13.412
32083W        W97068  10.602  41.139  14.415
32084W        W97069  28.540  34.991   3.985
32085W        W97070  16.725   4.466  12.513
32086W        W97071   9.428  36.960  11.072
32087W        W97072  11.215  16.583  12.230
32088W        W97073  43.246  15.072   1.801
32089W        W97074  12.084  12.131   3.583
32090W        W97075  37.569  34.724   4.103
32091W        W97076  28.300  32.137  12.497
32092W        W97077   6.695  15.328   1.343
32093W        W97078  37.356  37.269   3.225
32094W        W97079  21.947  23.093   1.353
32095W        W97080   6.522  37.481  11.047
32096W        W97081  32.093  22.454  14.642
32097W        W97082  18.847  21.629  12.017
32098W        W97083  10.614   5.205  12.344
32099W        W97084   5.805  14.636   4.305
32100W        W97085  30.598  43.835   4.749
32101W        W97086  44.881  38.448  11.805
32102W        W97087   0.431  16.588  11.134
32103W        W97088  16.145  22.462  13.288
32104W        W97089  39.439   4.336  13.674
32105W        W97090  32.833  14.962  13.666
32106W        W97091  29.209  13.814   2.359
32107W        W97092  28.234  31.600  13.809
32108W        W97093   1.848   0.985   4.621
32109W        W97094  27.514  24.059   2.451
32110W        W97095  13.294  39.350   3.236
32111W        W97096  30.474  12.829  14.947
32112W        W97097  17.695  32.128  11.436
32113W        W97098   2.487  30.630  13.733
32114W        W97099  24.466  17.507  12.076
32115W        W97100  17.772  15.057   1.255
32116W        W97101   8.221  10.672  14.212
32117W        W97102  23.688  15.252  10.944
32118W        W97103  17.684   7.826   1.928
32119W        W97104   0.169  15.575   0.906
32120W        W97105   2.405  44.594   2.906
32121W        W97106  41.050   2.660   0.687
32122W        W97107   2.747  15.242   1.629
32123W        W97108  33.365  34.445  12.155
32124W        W97109   9.409  28.094  14.436
32125W        W97110  44.013  30.029  10.618
32126W        W97111  13.281  14.133   1.680
32127W        W97112  10.381  30.662  11.150
32128W        W97113   8.502   9.722  13.056
32129W        W97114  14.390   1.984   2.793
32130W        W97115  41.932  16.043  12.973
32131W        W97116  16.340  34.519   2.809
32132W        W97117  35.662   5.697  11.076
32133W        W97118  44.426   7.411  10.297
32134W        W97119  10.492   8.500  14.341
32135W        W97120  19.085  14.300   1.407
32136W        W97121  22.231   4.214  10.903
32137W        W97122   4.539  30.884   4.260
32138W        W97123  21.575  15.809  13.441
32139W        W97124  34.806  41.167   0.716
32140W        W97125  33.529  22.932   1.810
32141W        W97126   0.298  25.581   2.854
32142W        W97127  28.239   3.788   1.457
32143W        W97128   4.856   7.206  11.241
32144W        W97129  28.513  38.453   1.731
32145W        W97130  15.905  42.571   4.441
32146W        W97131  38.915  14.128   3.084
32147W        W97132  21.041  16.883   4.601
32148W        W97133   1.141  29.971   0.882
32149W        W97134  30.394  25.393   4.486
32150W        W97135  13.834  35.473   2.649
32151W        W97136  38.966  12.393   0.978
32152W        W97137  22.987  11.489   3.212
32153W        W97138  16.769  12.360  10.759
32154W        W97139   1.942  25.036   0.822
32155W        W97140  31.520  41.967  12.462
32156W        W97141  38.026  26.897   3.646
32157W        W97142  34.733   5.022   1.354
32158W        W97143   0.889  23.542  10.732
32159W        W97144  44.325  25.380   0.188
32160W        W97145  18.222  21.511   1.210
32161W        W97146  36.041  16.000  14.157
32162W        W97147   5.842  43.482  11.152
32163W        W97148  37.440   7.567   3.651
32164W        W97149  14.002   4.677  11.572
32165W        W97150   1.675  19.234   2.857
32166W        W97151  44.479  41.779   0.755
32167W        W97152  18.157  25.188  13.852
32168W        W97153  28.616  32.894  14.517
32169W        W97154  28.985  21.829  10.852
32170W        W97155  21.008  41.464  14.850
32171W        W97156  21.389  44.538   3.341
32172W        W97157   5.194  38.542  14.825
32173W        W97158   5.386  28.408  12.043
32174W        W97159  25.798  19.493  10.110
32175W        W97160  34.387   7.673  11.561
32176W        W97161  10.492  28.075  11.276
32177W        W97162  20.384  29.127  12.309
32178W        W97163  13.662   5.264  14.490
32179W        W97164  27.100  41.369  14.906
32180W        W97165  40.026  33.524   0.270
32181W        W97166  39.581  20.649  13.935
32182W        W97167  15.789  36.200  11.134
32183W        W97168   5.867  29.516  14.859
32184W        W97169  37.317  27.437  11.154
32185W        W97170   2.133   9.773  13.815
32186W        W97171  20.137  12.351  13.112
32187W        W97172  39.022  44.401  11.702
32188W        W97173   9.645  35.347  13.385
32189W        W97174  10.593  36.540   0.222
32190W        W97175   2.217  27.415  14.542
32191W        W97176   0.246  15.166   1.818
32192W        W97177   1.862  30.127   1.791
32193W        W97178   7.764  40.051   2.885
32194W        W97179  32.976  22.135  14.024
32195W        W97180  40.312  31.866   0.541
32196W        W97181  21.032  22.523  14.392
32197W        W97182   2.039   8.865  10.424
32198W        W97183  32.578   0.623  13.057
32199W        W97184  43.090  35.967   5.073
32200W        W97185  13.132  41.948  14.638
32201W        W97186   8.764   8.682  12.014
32202W        W97187  33.514  34.862   3.197
32203W        W97188  32.446  30.613  13.907
32204W        W97189   5.399  23.038   2.612
32205W        W97190  19.049  22.226   2.422
32206W        W97191  37.961   0.468   4.777
32207W        W97192  10.286  44.721  11.697
32208W        W97193  15.878  22.231  13.999
32209W        W97194  43.348  10.005  11.584
32210W        W97195  28.501   9.147   1.089
32211W        W97196  42.444  37.392   2.614
32212W        W97197  20.146   2.339  12.204
32213W        W97198   6.596  41.429   0.625
32214W        W97199  11.058  10.294   1.943
32215W        W97200   0.290  44.387  11.505
32216W        W97201  26.935   3.171  12.909
32217W        W97202  27.948  35.805   4.192
32218W        W97203   4.961  22.513  14.454
32219W        W97204   9.179  22.072  14.993
32220W        W97205  17.184   0.371   0.447
32221W        W97206  31.862  14.428  12.492
32222W        W97207   4.640  39.505   3.742
32223W        W97208  31.617  17.638   1.153
32224W        W97209  14.081  14.245   0.067
32225W        W97210  34.797  41.768  11.605
32226W        W97211  37.887   1.721  10.694
32227W        W97212   1.106   5.797  12.938
32228W        W97213   6.709  24.582   4.485
32229W        W97214  21.291  15.008   0.899
32230W        W97215  38.525  27.444  11.648
32231W        W97216  26.870  38.263  13.349
32232W        W97217   1.313  17.148  14.480
32233W        W97218  32.577   3.278   4.507
32234W        W97219   1.207   0.238   3.433
32235W        W97220  40.436  44.354  12.922
32236W        W97221   2.838  35.579   4.113
32237W        W97222  20.031  41.823  13.367
32238W        W97223  31.673  39.694  13.340
32239W        W97224  40.844  23.258  13.270
32240W        W97225  14.156   1.384  13.294
32241W        W97226   0.037  35.863   1.715
32242W        W97227  43.538   4.168  11.481
32243W        W97228  22.493  27.050  12.797
32244W        W97229   6.457   9.175   0.417
32245W        W97230  28.086  27.210   0.462
32246W        W97231  11.714  41.298   4.213
32247W        W97232  15.023   4.283   3.365
32248W        W97233  28.318  16.852   2.123
32249W        W97234  12.928  41.705   4.728
32250W        W97235  42.032  26.508  12.573
32251W        W97236  44.403  42.286   2.655
32252W        W97237   7.223   9.639  11.487
32253W        W97238  21.021   7.530  10.385
32254W        W97239  28.105  13.485  14.939
32255W        W97240   8.193   9.689  11.337
32256W        W97241  21.836  44.760  12.096
32257W        W97242  19.602   1.980  12.845
32258W        W97243   9.027  18.692   0.952
32259W        W97244  36.448  21.493  12.609
32260W        W97245   9.147  21.515  13.579
32261W        W97246  16.898   0.309  11.803
32262W        W97247  18.253   4.030   4.384
32263W        W97248  17.763   2.251  11.127
32264W        W97249  38.989  33.551  12.960
32265W        W97250  24.220  10.230   2.004
32266W        W97251  30.651  31.810  13.968
32267W        W97252   8.832   7.790   1.289
32268W        W97253  32.712  24.229   4.825
32269W        W97254  43.768  12.609  12.163
32270W        W97255  41.477  20.003   0.513
32271W        W97256  23.235  41.542   3.714
32272W        W97257  37.645  43.400  14.652
32273W        W97258   3.748  32.019  11.927
32274W        W97259   0.875  14.371   3.664
32275W        W97260   3.648  23.730  12.951
32276W        W97261  11.370  33.527   0.974
32277W        W97262   6.290  12.134  12.491
32278W        W97263   5.198  17.026  13.485
32279W        W97264   6.086  17.673  14.213
32280W        W97265  29.844  10.636  14.232
32281W        W97266  39.823  32.945  11.381
32282W        W97267  31.063  33.555   4.662
32283W        W97268  27.978  30.095   2.420
32284W        W97269  17.365   6.172  13.002
32285W        W97270  43.994  37.306  10.737
32286W        W97271   4.048  13.156   0.639
32287W        W97272   5.449   3.819  14.923
32288W        W97273  32.184  11.123   3.587
32289W        W97274  41.321  10.352  13.324
32290W        W97275  32.514  24.858  12.613
32291W        W97276   4.649   3.768  14.384
32292W        W97277  33.036  29.563   1.873
32293W        W97278   6.975  20.825  11.612
32294W        W97279  12.128  38.256  13.565
32295W        W97280  16.290  21.012   0.811
32296W        W97281  30.944  11.139  10.758
32297W        W97282   5.768  38.254   1.659
32298W        W97283   9.368  24.126   2.883
32299W        W97284  26.084   8.627   3.883
32300W        W97285  15.963  18.308  13.473
32301W        W97286  39.033  21.655   0.688
32302W        W97287  44.089  18.361  14.960
32303W        W97288  25.386  26.778   2.281
32304W        W97289  23.236  13.553   0.883
32305W        W97290  23.051   0.176  14.796
32306W        W97291  12.266  13.268  10.833
32307W        W97292  43.336   5.300   0.765
32308W        W97293  32.530  10.762  13.448
32309W        W97294  21.202   5.708   3.277
32310W        W97295  30.213  44.287  13.027
32311W        W97296  13.736  28.174  13.654
32312W        W97297  12.254  40.795   2.351
32313W        W97298  44.173  12.167   0.260
32314W        W97299  10.482   1.938  12.920
32315W        W97300   2.649  15.184  14.059
32316W        W97301  39.010  28.710   4.116
32317W        W97302   4.873   9.894  11.874
32318W        W97303  12.278  42.958  11.905
32319W        W97304   1.846  15.608  14.394
32320W        W97305  34.744  42.080   0.398
32321W        W97306  37.159  16.554   4.495
32322W        W97307  33.578  23.179   3.330
32323W        W97308  33.542  36.389  12.084
32324W        W97309  14.188  16.624  10.550
32325W        W97310  41.869  19.156  10.698
32326W        W97311  36.051  18.716   4.190
32327W        W97312  24.750  38.068  10.804
32328W        W97313  44.425  25.986  14.385
32329W        W97314  35.420  29.477  11.337
32330W        W97315   8.468  14.694   2.615
32331W        W97316   2.200   2.486   0.302
32332W        W97317  13.257  26.734  11.935
32333W        W97318  21.176  34.040  14.190
32334W        W97319  20.654  29.607  13.542
32335W        W97320  21.379  21.832  13.798
32336W        W97321  10.250   2.176   0.856
32337W        W97322   7.865  26.669  12.932
32338W        W97323   5.226  18.373  13.867
32339W        W97324   8.685   4.327   0.863
32340W        W97325  23.800  11.874  13.111
32341W        W97326  24.515  13.207   1.292
32342W        W97327  34.671  15.535  11.137
32343W        W97328  43.056   4.867   0.937
32344W        W97329  37.065  21.320  10.584
32345W        W97330  31.912  26.488   1.898
32346W        W97331   2.447  38.833   0.682
32347W        W97332  43.934  44.938  11.231
32348W        W97333   2.799  35.624   1.948
32349W        W97334   5.870  34.098   4.558
32350W        W97335  36.912   3.547  14.997
32351W        W97336  21.101  19.912   9.980
32352W        W97337  40.053  39.851  14.284
32353W        W97338  24.032  42.982   0.141
32354W        W97339  11.920  11.430  10.885
32355W        W97340  22.100  20.600   0.031
32356W        W97341  34.001   4.592   2.406
32357W        W97342   3.210   3.249   2.951
32358W        W97343   1.563   7.540  13.453
32359W        W97344  27.494  43.870  11.463
32360W        W97345  38.100  29.938  14.609
32361W        W97346   0.886  42.351  10.702
32362W        W97347  44.240  26.245  13.958
32363W        W97348  13.170  15.696  14.519
32364W        W97349  30.504   6.772   0.872
32365W        W97350  36.311  31.790   4.172
32366W        W97351  33.128  29.436  14.177
32367W        W97352  28.193  38.831  12.868
32368W        W97353  33.887  19.656  14.969
32369W        W97354   0.018  13.225   4.158
32370W        W97355  19.032  41.765  13.397
32371W        W97356  13.656  20.177  13.029
32372W        W97357   0.004  17.622  12.017
32373W        W97358  41.038  42.021   1.977
32374W        W97359  18.333   1.310   1.947
32375W        W97360   7.742  31.981  13.469
32376W        W97361  29.972   6.202   2.568
32377W        W97362   3.479  41.409  12.450
32378W        W97363   3.389  34.395  11.988
32379W        W97364  32.908   2.025   4.102
32380W        W97365  32.611  30.415  10.306
32381W        W97366  12.346  37.512  14.013
32382W        W97367  13.009  26.927   3.334
32383W        W97368  22.849   8.898  11.502
32384W        W97369  43.531  38.869   0.244
32385W        W97370  33.099  22.725   2.820
32386W        W97371  41.712  15.135  13.880
32387W        W97372  27.617  31.683   3.177
32388W        W97373  37.115  11.356  11.209
32389W        W97374   3.394  41.369  12.959
32390W        W97375   2.900  32.478  14.452
32391W        W97376  44.345   6.207  13.120
32392W        W97377  14.570  11.386   9.912
32393W        W97378  29.481   6.452   1.264
32394W        W97379  40.515  25.255   3.210
32395W        W97380  43.773  37.366  12.468
32396W        W97381  31.182  24.680   3.827
32397W        W97382  11.919  21.540   1.726
32398W        W97383  28.051  28.343  13.929
32399W        W97384  42.244  27.681   2.624
32400W        W97385  35.038   0.867  11.983
32401W        W97386  24.438  17.228   4.228
32402W        W97387  13.074  34.667  14.947
32403W        W97388   5.862  35.869  13.317
32404W        W97389  26.256  36.234  14.925
32405W        W97390   7.977  40.213  14.524
32406W        W97391  39.360   2.255  13.859
32407W        W97392   0.813  32.955  11.393
32408W        W97393   1.977  38.604  13.449
32409W        W97394  10.318  16.027  13.945
32410W        W97395  16.056  17.935   9.609
32411W        W97396  32.129  30.625   0.067
32412W        W97397   8.739  17.751  12.065
32413W        W97398   1.996  16.169  12.796
32414W        W97399  23.031  18.364   0.293
32415W        W97400  12.374   8.368   1.338
32416W        W97401  29.915  16.537   1.264
32417W        W97402  29.807  40.773   3.340
32418W        W97403   0.299  37.776  11.742
32419W        W97404  18.041  36.330  14.828
32420W        W97405  12.714  24.050  10.478
32421W        W97406  14.218  34.441   4.304
32422W        W97407  22.977  36.905  11.696
32423W        W97408   4.082  21.558   3.305
32424W        W97409   5.827  40.315   4.823
32425W        W97410  18.251  41.981  13.920
32426W        W97411  43.002  34.623  10.778
32427W        W97412  20.609   7.857   2.670
32428W        W97413   7.673  27.515   4.073
32429W        W97414  21.754   8.371  10.643
32430W        W97415   8.795  11.619  12.977
32431W        W97416   0.307   9.444  11.591
32432W        W97417  37.503  26.114  11.905
32433W        W97418   9.404  13.077  12.084
32434W        W97419   3.948  24.161  12.078
32435W        W97420  30.102  22.580   3.199
32436W        W97421  26.502  39.079   3.662
32437W        W97422  31.124  30.442   1.264
32438W        W97423   9.019  20.617   4.005
32439W        W97424  36.424   8.789   2.623
32440W        W97425  30.067  39.366   4.115
32441W        W97426  17.333  10.785   3.009
32442W        W97427   1.130  40.681  14.341
32443W        W97428  43.727   1.503   3.806
32444W        W97429  28.662  11.555   3.729
32445W        W97430  38.536  39.773   0.862
32446W        W97431   3.384  32.291  13.536
32447W        W97432  20.048  41.344  13.988
32448W        W97433  31.557  14.044   4.083
32449W        W97434  40.213   3.255   0.509
32450W        W97435  41.379  10.157   3.745
32451W        W97436  34.294   9.140   3.564
32452W        W97437   6.391   8.832  10.961
32453W        W97438  32.865  12.620  13.512
32454W        W97439  43.837  43.799   0.740
32455W        W97440   7.765   1.558   2.309
32456W        W97441  36.844  34.231  14.929
32457W        W97442  36.093  16.067   4.701
32458W        W97443   7.304   5.947  12.469
32459W        W97444  33.855  21.544  10.677
32460W        W97445  42.399  30.905   0.877
32461W        W97446  42.817  25.912  13.643
32462W        W97447  40.783   1.271   0.696
32463W        W97448  23.667  23.989  13.652
32464W        W97449  40.841  29.655   2.118
32465W        W97450  12.620  39.466   1.884
32466W        W97451   5.279   7.227  10.699
32467W        W97452  42.682   5.942  11.091
32468W        W97453  24.626  11.300  11.509
32469W        W97454  28.844   0.046   3.702
32470W        W97455  43.454  20.926   3.561
32471W        W97456  27.658  36.307  11.179
32472W        W97457   7.330  10.200  14.449
32473W        W97458  25.529  32.007  12.008
32474W        W97459  29.566   0.762  11.573
32475W        W97460  36.334  29.215   0.219
32476W        W97461   3.472  30.109   5.032
32477W        W97462  34.439  19.968   3.116
32478W        W97463   3.989  27.194  12.903
32479W        W97464   1.485  34.946  14.704
32480W        W97465  33.919   1.785   4.439
32481W        W97466  41.422  14.133   0.119
32482W        W97467  34.297  31.907   2.681
32483W        W97468   4.764  44.769  11.490
32484W        W97469   9.567   6.902   2.485
32485W        W97470  36.673  29.931   1.356
32486W        W97471  35.963  14.372  10.692
32487W        W97472  28.008   8.934   4.172
32488W        W97473  25.627   3.495  10.751
32489W        W97474   1.832  40.438   4.005
32490W        W97475  28.744  21.740  12.144
32491W        W97476  30.720  41.483  12.478
32492W        W97477  16.093   6.700  13.994
32493W        W97478  29.577  12.658  11.614
32494W        W97479  23.812  13.421   2.640
32495W        W97480   0.933   0.943   2.719
32496W        W97481  13.115  35.530   0.418
32497W        W97482  16.820  19.122  13.533
32498W        W97483   3.266  39.008  11.470
32499W        W97484  25.782   5.256   3.463
32500W        W97485   4.726  31.009  11.973
32501W        W97486   6.928  21.129   4.059
32502W        W97487  29.764  27.484  11.566
32503W        W97488  20.058  11.910   0.626
32504W        W97489   8.284  23.013   1.240
32505W        W97490  22.284  35.952   4.243
32506W        W97491   5.903  20.313  13.388
32507W        W97492  44.702  25.404  13.252
32508W        W97493  29.577   2.394  14.532
32509W        W97494  33.398  26.553  11.004
32510W        W97495  33.175  26.938   3.639
32511W        W97496  26.943  40.826  11.190
32512W        W97497  40.493  13.854  11.589
32513W        W97498  28.858  21.920   3.233
32514W        W97499  20.116  13.220   0.856
32515W        W97500  25.225  12.594   3.830
32516W        W97501  26.692  39.862   0.751
32517W        W97502  36.837  15.611   4.615
32518W        W97503  21.791  15.670  13.901
32519W        W97504  24.555  35.597   2.109
32520W        W97505  19.973  38.132   0.914
32521W        W97506  30.111  39.735   0.052
32522W        W97507   4.273   2.281   3.857
32523W        W97508  38.428   4.852  12.748
32524W        W97509  39.918  18.196  10.531
32525W        W97510  26.547  10.162   0.392
32526W        W97511   8.711  44.900   2.727
32527W        W97512  15.179  22.696   0.994
32528W        W97513  40.586  39.285   4.622
32529W        W97514  24.539  12.445   1.766
32530W        W97515   2.380  28.191   3.665
32531W        W97516  13.166   7.497  12.497
32532W        W97517  39.957  11.885   2.779
32533W        W97518  42.912  44.881  12.362
32534W        W97519  20.639  31.471   2.004
32535W        W97520  11.349  35.206  12.183
32536W        W97521  30.608  15.104  10.921
32537W        W97522  20.611  39.126   1.329
32538W        W97523  22.709  12.909  12.526
32539W        W97524  21.839   1.946   1.861
32540W        W97525  43.432  16.788  12.097
32541W        W97526  31.321   9.910  10.750
32542W        W97527  18.981  30.984   3.158
32543W        W97528  24.011   7.245  14.893
32544W        W97529  26.963  19.200   0.018
32545W        W97530  20.098   4.703   1.928
32546W        W97531  10.987  12.333   1.299
32547W        W97532  23.177  34.877  12.219
32548W        W97533  22.877   4.885  11.495
32549W        W97534  42.623  14.864  14.935
32550W        W97535  13.556   4.395  14.759
32551W        W97536  44.340   0.064   0.813
32552W        W97537  19.533  38.074   1.799
32553W        W97538   6.155  36.290   4.211
32554W        W97539  12.341  16.269  11.645
32555W        W97540   2.680  43.817   0.791
32556W        W97541   3.822  26.015   3.525
32557W        W97542  44.442  10.813  12.110
32558W        W97543  25.471  18.788  13.328
32559W        W97544   5.733   7.806  13.452
32560W        W97545  31.660  22.276   2.621
32561W        W97546  15.332  39.873  11.567
32562W        W97547  28.106  19.615  13.406
32563W        W97548  15.133  38.020  12.510
32564W        W97549  19.315   7.419  10.613
32565W        W97550  32.957  30.176   3.257
32566W        W97551  33.678  30.964   9.611
32567W        W97552  26.934  38.261   0.452
32568W        W97553  21.481  26.065   3.242
32569W        W97554  35.416  23.870  12.084
32570W        W97555  17.438  31.521   9.857
32571W        W97556  35.826  19.146  11.218
32572W        W97557  13.195  19.365  10.248
32573W        W97558  24.617   3.912   3.337
32574W        W97559  20.490  16.717  12.978
32575W        W97560  21.673  16.880  14.393
32576W        W97561   7.705  11.876   0.474
32577W        W97562  34.396  11.091  10.048
32578W        W97563  24.926  40.381  10.614
32579W        W97564  41.791  27.588  14.567
32580W        W97565  21.875  38.862  10.142
32581W        W97566  38.437  32.681  11.423
32582W        W97567  15.136  43.487   2.164
32583W        W97568   0.692  14.842  12.818
32584W        W97569   5.282  25.737  13.890
32585W        W97570  16.559  25.365  10.989
32586W        W97571  25.745  16.611   1.296
32587W        W97572   6.770  11.333  10.795
32588W        W97573   2.927  23.558  14.310
32589W        W97574  39.887  29.042   2.274
32590W        W97575   2.693  12.804  13.529
32591W        W97576  20.066  28.580  10.183
32592W        W97577  12.212  39.570   0.855
32593W        W97578   6.899  32.420   3.552
32594W        W97579   1.065  24.149   4.544
32595W        W97580  20.794  21.205   0.908
32596W        W97581  26.601  22.633  14.779
32597W        W97582  12.199  41.095   2.763
32598W        W97583  21.203   2.371  12.830
32599W        W97584   9.457   2.522   3.649
32600W        W97585  36.985  35.948   4.193
32601W        W97586  38.258  38.599   3.196
32602W        W97587  33.974  39.582   0.524
32603W        W97588  25.254   3.387   2.884
32604W        W97589   6.849  40.387  14.761
32605W        W97590  25.206  11.863   0.914
32606W        W97591  44.546  18.749   2.391
32607W        W97592  14.702  41.621   1.750
32608W        W97593  27.575  44.512   3.810
32609W        W97594   6.449  32.298  12.224
32610W        W97595  13.200  19.736  11.501
32611W        W97596  10.679  34.470  11.235
32612W        W97597  41.350  34.338  10.690
32613W        W97598  34.027  31.526   4.440
32614W        W97599  27.439   5.940   0.369
32615W        W97600  21.049  26.449   0.866
32616W        W97601   2.969   4.848   4.265
32617W        W97602   2.248  19.487  11.546
32618W        W97603   9.700  22.501   2.781
32619W        W97604  40.034  43.318  13.461
32620W        W97605  39.226  42.874  13.313
32621W        W97606  13.024   0.820  12.524
32622W        W97607  35.576  34.517   4.800
32623W        W97608   3.963  12.376  13.459
32624W        W97609  38.882   4.910  13.942
32625W        W97610  37.535  44.282  14.441
32626W        W97611  33.376  19.170  14.568
32627W        W97612  31.071  38.470  11.529
32628W        W97613   3.335  36.447   1.720
32629W        W97614   8.246  23.843  14.933
32630W        W97615   1.862  35.550  14.141
32631W        W97616  41.569  17.650  14.011
32632W        W97617   7.070  40.751   1.864
32633W        W97618  27.508  12.224  12.696
32634W        W97619  39.290   6.756   4.075
32635W        W97620  10.746   7.301   2.788
32636W        W97621   7.896  44.997   3.114
32637W        W97622  32.836  43.772  12.517
32638W        W97623  38.333  44.007  12.297
32639W        W97624  16.367  42.566   4.705
32640W        W97625   4.185  22.303  13.067
32641W        W97626  39.512  23.505   0.170
32642W        W97627   1.734  18.177  13.397
32643W        W97628  32.966   6.885   0.696
32644W        W97629  20.719  29.003   1.836
32645W        W97630   3.523  19.199   1.700
32646W        W97631  41.502   4.883   4.629
32647W        W97632  44.488   1.744   3.707
32648W        W97633  20.729  44.382  12.446
32649W        W97634   6.515   6.426   2.803
32650W        W97635   8.669  39.595   1.785
32651W        W97636   6.415  38.561   4.497
32652W        W97637  18.695  15.272  10.610
32653W        W97638  34.962   1.132  12.441
32654W        W97639  36.418  36.410   1.664
32655W        W97640   6.457  38.327  14.222
32656W        W97641  23.614  39.407  11.155
32657W        W97642  15.738  14.333   3.811
32658W        W97643   0.827  12.913  13.464
32659W        W97644  33.934  13.818   2.830
32660W        W97645  17.709  39.269  12.472
32661W        W97646   2.344  22.223   0.318
32662W        W97647  25.736  43.952   1.252
32663W        W97648   6.410  40.768   3.254
32664W        W97649  10.035  23.578   4.393
32665W        W97650  20.796   5.467  14.932
32666W        W97651  10.875   3.002   3.750
32667W        W97652  20.737  37.383  12.617
32668W        W97653   4.245  16.795   3.202
32669W        W97654   9.520  26.509  12.471
32670W        W97655   0.523  43.303   0.333
32671W        W97656  19.305  32.910   4.664
32672W        W97657   6.582  11.611   1.844
32673W        W97658  41.585  19.250   1.221
32674W        W97659  17.276  28.839   2.591
32675W        W97660  41.852  42.123  10.788
32676W        W97661  35.682  32.294   0.439
32677W        W97662  40.035  13.593   2.168
32678W        W97663   3.546  35.199  11.642
32679W        W97664  19.020  43.883   2.833
32680W        W97665   5.447  35.428  11.668
32681W        W97666   4.152   7.734  12.104
32682W        W97667  32.893  34.468   2.649
32683W        W97668  18.701  40.312   0.474
32684W        W97669  26.066  38.040   2.200
32685W        W97670  27.071  42.300  11.084
32686W        W97671   3.363  28.631   3.572
32687W        W97672   4.104  27.152   4.332
32688W        W97673  41.865  19.243   3.223
32689W        W97674  43.625  19.002  14.514
32690W        W97675  10.703  17.594  10.807
32691W        W97676  44.837  43.063   5.070
32692W        W97677  21.751  10.401   4.663
32693W        W97678  19.503   9.631   0.255
32694W        W97679  10.727   7.352   2.220
32695W        W97680   5.330  16.841  12.709
32696W        W97681   0.775  33.664  12.429
32697W        W97682  30.985  12.218  10.726
32698W        W97683  34.231  36.015  11.178
32699W        W97684  32.521  34.001   4.887
32700W        W97685  30.265  32.117  12.535
32701W        W97686  13.256  34.425   2.898
32702W        W97687  16.550  28.317   1.686
32703W        W97688  12.751  42.006  12.057
32704W        W97689  34.745  34.117  13.853
32705W        W97690  40.449   0.720  12.893
32706W        W97691  39.588  39.506   4.537
32707W        W97692   5.928  10.109  14.682
32708W        W97693   5.849   1.854   3.861
32709W        W97694  14.298  18.744   4.479
32710W        W97695  22.052  39.968   3.601
32711W        W97696   5.026  11.762   3.107
32712W        W97697  38.578  36.946  12.525
32713W        W97698   9.398  18.891   2.171
32714W        W97699  13.686  17.663   4.229
32715W        W97700  20.307  29.616  14.385
32716W        W97701  20.641  16.009   1.870
32717W        W97702  13.628  34.818  13.963
32718W        W97703   0.170  33.082   1.422
32719W        W97704  23.008  41.553  12.949
32720W        W97705  22.627  28.368  12.433
32721W        W97706   6.142  27.163  11.663
32722W        W97707  42.389  18.400   4.524
32723W        W97708  23.010  15.294   1.682
32724W        W97709  44.484  30.735  11.566
32725W        W97710   0.252   5.258  12.029
32726W        W97711  13.331  32.390  13.335
32727W        W97712  35.610   9.495  14.049
32728W        W97713   3.883  39.989   2.853
32729W        W97714  34.461  38.590   3.859
32730W        W97715  35.150   1.932  11.086
32731W        W97716  40.500   5.965   0.852
32732W        W97717   3.742  41.294   3.643
32733W        W97718   5.110  25.234   5.100
32734W        W97719  15.252  23.082  12.554
32735W        W97720  12.319  19.376   1.628
32736W        W97721  24.584  10.797  11.559
32737W        W97722  34.026  26.466  11.633
32738W        W97723   3.288   3.865   1.505
32739W        W97724  19.997  18.896  13.532
32740W        W97725  10.032   5.420   1.202
32741W        W97726   2.680  38.808  11.485
32742W        W97727  39.435  20.681  14.873
32743W        W97728  37.586  20.226  12.893
32744W        W97729  14.429  42.899  13.021
32745W        W97730  10.805  12.223   2.299
32746W        W97731  34.072  26.147   3.857
32747W        W97732   4.466   0.335  13.326
32748W        W97733  37.435  26.701  12.928
32749W        W97734  30.600   0.761  10.945
32750W        W97735  11.582  24.752   4.759
32751W        W97736  31.828   0.415  11.442
32752W        W97737   2.346  37.634  12.451
32753W        W97738  39.778  40.461   4.093
32754W        W97739  20.181  12.721   0.915
32755W        W97740  21.456  13.113   3.706
32756W        W97741   3.685  24.013  12.507
32757W        W97742  24.137  19.129   2.359
32758W        W97743   6.753  12.204   1.764
32759W        W97744  28.614   0.727   1.671
32760W        W97745   7.491  41.843   2.937
32761W        W97746  31.454  24.471   2.206
32762W        W97747  17.730  40.754   4.552
32763W        W97748  16.237   8.391  10.768
32764W        W97749   7.408  34.785   3.648
32765W        W97750  40.993  25.948  10.828
32766W        W97751  22.719   3.917   1.652
32767W        W97752   6.281  41.838  13.795
32768W        W97753  37.367  12.644  11.145
32769W        W97754  16.209   9.197   0.343
32770W        W97755  19.705   4.382  13.833
32771W        W97756  33.285  21.084   0.465
32772W        W97757  25.232  39.058   4.044
32773W        W97758  10.296  13.289  12.088
32774W        W97759  21.919  28.432   4.579
32775W        W97760   0.346   1.510  10.453
32776W        W97761  33.358   0.832  10.788
32777W        W97762  37.004   9.845  12.958
32778W        W97763   3.932  43.066  12.060
32779W        W97764  41.262  19.759   2.507
32780W        W97765   4.424  18.280   0.417
32781W        W97766  12.359  31.097  13.491
32782W        W97767  25.919  11.413  13.246
32783W        W97768  13.387  21.623  14.340
32784W        W97769  33.701  23.697  12.516
32785W        W97770  35.432  22.634  10.688
32786W        W97771   4.920  14.228  14.316
32787W        W97772  12.650  25.750  13.063
32788W        W97773  16.491  41.092  14.437
32789W        W97774  18.723  15.120  12.429
32790W        W97775  12.361  43.032  12.400
32791W        W97776  10.362   4.827  14.915
32792W        W97777  40.069  11.673   1.492
32793W        W97778  26.458  27.594  14.317
32794W        W97779  10.457  18.551  14.016
32795W        W97780  41.045  43.683  13.361
32796W        W97781   5.457  14.283  11.681
32797W        W97782   9.206  28.269   4.556
32798W        W97783  35.906  20.657   4.684
32799W        W97784  36.254  10.660  11.058
32800W        W97785  36.780  26.074   4.322
32801W        W97786   1.226  12.668  10.743
32802W        W97787  16.727   7.871  14.917
32803W        W97788  17.118  11.444   0.820
32804W        W97789  30.579  19.765  14.908
32805W        W97790  24.117   9.935  12.892
32806W        W97791  41.937  22.110  14.372
32807W        W97792   0.861  44.724  12.961
32808W        W97793  34.477  43.151  14.128
32809W        W97794  24.619  42.771   2.563
32810W        W97795  41.760  27.118   4.690
32811W        W97796   5.033  38.579   2.651
32812W        W97797   1.383  31.225   2.383
32813W        W97798  31.736  19.610   1.661
32814W        W97799   3.575  43.356   4.602
32815W        W97800  17.846  17.985   1.823
32816W        W97801  38.876   8.669  14.158
32817W        W97802  40.266   0.001   2.348
32818W        W97803  24.433  26.617   0.501
32819W        W97804  24.112  31.455  12.938
32820W        W97805  11.596   2.438   0.487
32821W        W97806  15.791  10.581  11.616
32822W        W97807  24.531  21.247  13.381
32823W        W97808  34.582   2.144  13.834
32824W        W97809   6.328  38.283   4.057
32825W        W97810  20.000  36.894   4.076
32826W        W97811  27.315  41.165  11.156
32827W        W97812  11.645   1.716   4.565
32828W        W97813  20.592  44.839  11.775
32829W        W97814  30.741  25.302  10.857
32830W        W97815  13.644   8.471   0.874
32831W        W97816  25.549  17.767   4.697
32832W        W97817   1.699   0.729   0.283
32833W        W97818  28.016  14.865  14.496
32834W        W97819   9.272  27.700  11.496
32835W        W97820  41.315  13.434   0.224
32836W        W97821  36.816  17.624  14.270
32837W        W97822  36.130  29.735   4.724
32838W        W97823  31.572  42.712  12.015
32839W        W97824  31.049  12.075   0.098
32840W        W97825  12.685  15.992   4.065
32841W        W97826  35.365  34.809   1.866
32842W        W97827  11.555   3.273   4.734
32843W        W97828   0.173  12.917  14.312
32844W        W97829  44.203  11.348  11.288
32845W        W97830   8.661  14.310   1.678
32846W        W97831  22.476  14.356  12.399
32847W        W97832  38.427  36.618  14.446
32848W        W97833  44.230  41.112   2.444
32849W        W97834  24.436  42.553  10.720
32850W        W97835  40.288  12.805   5.010
32851W        W97836  32.414  15.971  12.310
32852W        W97837   9.940  10.424   0.514
32853W        W97838  44.522   1.739  11.155
32854W        W97839  16.717  11.358  13.339
32855W        W97840  43.879   4.487  14.375
32856W        W97841  32.030   4.727   1.354
32857W        W97842   9.404  42.381   0.657
32858W        W97843  14.398  22.305  13.531
32859W        W97844   0.588   5.812  13.002
32860W        W97845   2.245  25.472  11.175
32861W        W97846  18.220   0.549  11.394
32862W        W97847  25.883  35.860   5.052
32863W        W97848   3.700  21.056   1.862
32864W        W97849  12.328  31.895   2.333
32865W        W97850   0.389  40.880   0.279
32866W        W97851  43.273  31.297  10.595
32867W        W97852  36.729  13.686   0.905
32868W        W97853   2.077  38.373   3.802
32869W        W97854   3.948   5.750   1.553
32870W        W97855  12.798  14.094   3.700
32871W        W97856   2.882  33.432  11.545
32872W        W97857  22.116  13.586  11.218
32873W        W97858   2.017  12.569   1.342
32874W        W97859  39.240  20.008   2.981
32875W        W97860  36.072  31.943  11.109
32876W        W97861  20.601  24.188  14.838
32877W        W97862  11.551  38.925   4.523
32878W        W97863   1.001  28.301  13.370
32879W        W97864  38.427  14.647  13.130
32880W        W97865  31.828  35.348  11.016
32881W        W97866  23.018  35.424   3.369
32882W        W97867  20.833  17.738  14.570
32883W        W97868  33.498  25.491  13.319
32884W        W97869  38.375  18.023   5.142
32885W        W97870  41.769  13.728   0.189
32886W        W97871   7.357   0.018  13.319
32887W        W97872  13.361  24.489   3.620
32888W        W97873  36.990  23.852  13.404
32889W        W97874  16.008  40.399  12.609
32890W        W97875  22.019  30.565   2.272
32891W        W97876  28.137  41.255   2.576
32892W        W97877  13.253  42.800  10.045
32893W        W97878  44.303  41.381  11.766
32894W        W97879  29.668   6.340  12.870
32895W        W97880  27.471  38.756   3.438
32896W        W97881  37.452  18.954  10.429
32897W        W97882   4.861  34.561   2.327
32898W        W97883   4.121  36.265   4.984
32899W        W97884  40.540  38.254  13.241
32900W        W97885   7.783  33.973  13.325
32901W        W97886   8.250  17.891  12.062
32902W        W97887  16.058  31.289  14.886
32903W        W97888  11.414   9.675   3.157
32904W        W97889   3.068   9.327  11.597
32905W        W97890  33.100  26.372   3.788
32906W        W97891  43.753   4.277  10.658
32907W        W97892  27.733  24.122   0.717
32908W        W97893  38.311  44.816  10.730
32909W        W97894  18.739  13.715  10.611
32910W        W97895  30.141  18.961  14.961
32911W        W97896  44.554  42.832   0.170
32912W        W97897  42.542  36.200  11.629
32913W        W97898  41.916  42.785  12.708
32914W        W97899  13.303  26.396   3.114
32915W        W97900  24.151  20.488  11.626
32916W        W97901  10.308  25.792  12.386
32917W        W97902  37.249  21.842  11.046
32918W        W97903  14.578  25.760   0.328
32919W        W97904  40.338  20.515  14.335
32920W        W97905   7.745  39.276  10.420
32921W        W97906  35.337  11.889   4.131
32922W        W97907   4.326  40.004  12.425
32923W        W97908  15.185   9.667   5.002
32924W        W97909  15.650  30.193   1.422
32925W        W97910  35.650  30.552   1.244
32926W        W97911  26.784  44.814   5.071
32927W        W97912  26.713  33.823  14.915
32928W        W97913  16.533   6.210  12.078
32929W        W97914  15.640   8.323   2.230
32930W        W97915  43.396  44.520   1.845
32931W        W97916   6.659  25.126   3.765
32932W        W97917   0.955  39.434   3.600
32933W        W97918  37.155  44.731   4.237
32934W        W97919  36.080  38.228   2.365
32935W        W97920  28.659  22.291  14.365
32936W        W97921  43.376  39.789  14.508
32937W        W97922  26.512   4.211  14.960
32938W        W97923  33.797  43.498  11.987
32939W        W97924  41.979  28.666   0.388
32940W        W97925  23.939  36.822   2.298
32941W        W97926  41.777  34.074  14.590
32942W        W97927  32.866   0.777  10.640
32943W        W97928   5.863  42.026   2.557
32944W        W97929  16.412   6.987  14.295
32945W        W97930   2.234  42.723  10.300
32946W        W97931   3.917  35.937  13.840
32947W        W97932  23.656  17.291   0.854
32948W        W97933  20.113  31.725   0.611
32949W        W97934  19.805  14.815  11.047
32950W        W97935  27.261  22.269  10.711
32951W        W97936   3.986  37.083  11.661
32952W        W97937  12.257   8.182   3.990
32953W        W97938  11.731   7.968  11.338
32954W        W97939  31.839  43.901   4.136
32955W        W97940  29.972  27.768   4.168
32956W        W97941  26.676  40.940  10.770
32957W        W97942   5.675  11.602  14.357
32958W        W97943  21.539  23.064   4.411
32959W        W97944   9.798  42.903   1.536
32960W        W97945  28.292  33.085  13.583
32961W        W97946  30.424   4.964   0.350
32962W        W97947  20.713  26.646  14.657
32963W        W97948   9.209  23.706   3.687
32964W        W97949  18.687  28.088   2.430
32965W        W97950   5.600  16.602  13.102
32966W        W97951   2.777   9.996   3.235
32967W        W97952  35.529  15.767   0.938
32968W        W97953   8.985  29.963   4.261
32969W        W97954  41.748  28.935  14.858
32970W        W97955  44.572   8.688   9.996
32971W        W97956  31.622  44.276  12.053
32972W        W97957  14.839  42.263   2.364
32973W        W97958  36.115  22.162   3.126
32974W        W97959  24.509  25.709  11.718
32975W        W97960  18.554   9.646   0.375
32976W        W97961  36.609   7.221   4.031
32977W        W97962  31.707  18.137  13.824
32978W        W97963  22.392  20.391   3.669
32979W        W97964  12.737  17.437   4.684
32980W        W97965   7.266   1.915  12.414
32981W        W97966  27.313  42.308  14.425
32982W        W97967  28.507   3.419  12.055
32983W        W97968   3.377  37.282   3.306
32984W        W97969  38.728  28.394  13.899
32985W        W97970   5.272  14.120   4.602
32986W        W97971  25.430  43.464  10.472
32987W        W97972  32.900  16.600   1.249
32988W        W97973  15.456  33.191  13.887
32989W        W97974   5.765  15.761   3.502
32990W        W97975  37.491  41.340   2.180
32991W        W97976  35.364  41.534   4.545
32992W        W97977  24.556   6.400   4.095
32993W        W97978   5.672  36.816  13.836
32994W        W97979  29.408  37.465  12.515
32995W        W97980  21.996   4.362  11.642
32996W        W97981  21.189  20.497   1.133
32997W        W97982   2.330  31.083   2.549
32998W        W97983  43.376  36.060  14.922
32999W        W97984   8.932  17.658   1.799
33000W        W97985  11.705   3.225  11.344
33001W        W97986  13.780  13.624  14.019
33002W        W97987  18.322  44.582  12.508
33003W        W97988  44.577  37.172   0.548
33004W        W97989  36.685   2.468   3.670
33005W        W97990   5.302   9.373  14.508
33006W        W97991  38.310  38.385   2.690
33007W        W97992  27.201   3.719  12.405
33008W        W97993  29.188   1.237   2.409
33009W        W97994  13.438  11.957  11.619
33010W        W97995   9.092  34.348  12.261
33011W        W97996  38.816  21.765  12.056
33012W        W97997  32.401   9.765   0.324
33013W        W97998   2.064   7.659   4.166
33014W        W97999  28.367   1.289  14.860
33015W        W98000  41.255  35.269  11.129
33016W        W98001  11.645   7.355   2.559
33017W        W98002  33.278   9.389  14.316
33018W        W98003  44.240  42.755   3.403
33019W        W98004  38.612  16.214  12.003
33020W        W98005  15.268  32.359   1.425
33021W        W98006   3.371   3.995  13.308
33022W        W98007  43.772  32.664   0.035
33023W        W98008   7.411  32.132   0.477
33024W        W98009  33.131   7.109   2.240
33025W        W98010   0.836   9.918   4.524
33026W        W98011  16.674  43.967   3.743
33027W        W98012   7.834  34.117  10.900
33028W        W98013  30.217  17.880   2.343
33029W        W98014  20.837   5.219  12.539
33030W        W98015  32.017  34.741   1.655
33031W        W98016  41.923  21.014   1.879
33032W        W98017  26.751  12.654  13.449
33033W        W98018  37.584  44.191  12.262
33034W        W98019   0.479   4.171   4.597
33035W        W98020  29.652   0.917   0.256
33036W        W98021  29.267   2.447   5.343
33037W        W98022  14.003   4.457  12.340
33038W        W98023  34.449  29.697  13.904
33039W        W98024   9.960  37.312  14.045
33040W        W98025  30.159   2.472   2.202
33041W        W98026  42.313  18.726  12.502
33042W        W98027   0.793  31.822  12.462
33043W        W98028  11.780  25.444  12.948
33044W        W98029  17.971  33.937   2.271
33045W        W98030  27.539  15.412   2.773
33046W        W98031   5.879  44.046   2.262
33047W        W98032  36.066  32.485   2.898
33048W        W98033  14.215  41.044   1.773
33049W        W98034  33.653   9.958  11.919
33050W        W98035   5.538  36.986  13.340
33051W        W98036  20.083  41.994   2.644
33052W        W98037   4.571  35.237   3.041
33053W        W98038  26.118  35.443   4.243
33054W        W98039  34.164   7.277   2.202
33055W        W98040  23.263  24.746  14.303
33056W        W98041   2.870  13.702  14.073
33057W        W98042   7.438  37.890   1.297
33058W        W98043  39.891   0.444  11.155
33059W        W98044  23.245  29.260   1.966
33060W        W98045  33.889  39.266  13.443
33061W        W98046   0.682  27.933  10.699
33062W        W98047  39.943  38.805   1.451
33063W        W98048  33.621  14.495   1.813
33064W        W98049   4.108  38.261   2.857
33065W        W98050  32.825  31.536   1.710
33066W        W98051   4.131  37.569  11.578
33067W        W98052  35.161  15.712   1.912
33068W        W98053  44.005   5.657   3.267
33069W        W98054  23.674  38.802   0.469
33070W        W98055   0.377  34.782   4.799
33071W        W98056  13.628  18.638   2.803
33072W        W98057  40.917  29.957  11.205
33073W        W98058  32.504  39.900   2.012
33074W        W98059  36.427  28.402   0.255
33075W        W98060  26.098   3.735  12.379
33076W        W98061   6.816   8.353  13.063
33077W        W98062   0.752  26.521   4.072
33078W        W98063  15.296  11.754   2.840
33079W        W98064  28.168  16.605   2.577
33080W        W98065  39.740  37.540   2.121
33081W        W98066   3.840   1.446  14.121
33082W        W98067  13.980  13.453  11.173
33083W        W98068   8.666  44.340   0.980
33084W        W98069  28.949  38.913   4.577
33085W        W98070  13.767  30.130  12.088
33086W        W98071  13.604  29.529  14.847
33087W        W98072  34.565  36.471   1.808
33088W        W98073   7.389  19.841  13.110
33089W        W98074  30.199  43.396   0.444
33090W        W98075   4.886   4.446   1.252
33091W        W98076  23.690  11.758   0.886
33092W        W98077   8.748  26.202  14.663
33093W        W98078  39.072  41.407  12.257
33094W        W98079  27.997   6.443  11.206
33095W        W98080  41.131  31.498  12.879
33096W        W98081  44.761  23.925   3.298
33097W        W98082  20.536  18.091  14.309
33098W        W98083  25.606  33.670   4.620
33099W        W98084  26.539  28.854   2.364
33100W        W98085  30.444  42.780   3.754
33101W        W98086  39.816  10.825   1.230
33102W        W98087   3.862  12.160   1.288
33103W        W98088  42.459  35.608   1.187
33104W        W98089  41.690  34.426  13.849
33105W        W98090  34.445  28.114  11.615
33106W        W98091  10.859  13.886  13.441
33107W        W98092  40.645  14.864   0.220
33108W        W98093  43.465  32.874  10.841
33109W        W98094  24.131   0.348  11.333
33110W        W98095  42.947  23.399   4.102
33111W        W98096  28.243  24.238   0.691
33112W        W98097  14.615  14.035   1.159
33113W        W98098  33.144  43.691  13.337
33114W        W98099  22.061   3.943   3.713
33115W        W98100   4.935  31.904  11.549
33116W        W98101  25.011   3.217   4.807
33117W        W98102  28.213  21.587   2.277
33118W        W98103  11.763  28.471  11.193
33119W        W98104  10.222  18.542  11.636
33120W        W98105  44.940   6.976   3.726
33121W        W98106  25.071  12.145   0.145
33122W        W98107  20.037  26.286   4.104
33123W        W98108  30.220   1.416   4.655
33124W        W98109  28.677   9.180   4.517
33125W        W98110  22.888   0.536   4.935
33126W        W98111   3.044  38.748   5.182
33127W        W98112  38.027  18.703  11.448
33128W        W98113  44.846  37.880  12.982
33129W        W98114  41.899  27.962  14.246
33130W        W98115  35.383   0.329  10.693
33131W        W98116  33.666  38.390   3.662
33132W        W98117  22.786  35.762  14.763
33133W        W98118  44.297   4.918   3.579
33134W        W98119  28.783  34.473   2.722
33135W        W98120  25.473  37.023   1.593
33136W        W98121  26.494  32.955  13.133
33137W        W98122   9.302   2.982  11.903
33138W        W98123   0.976  20.203   3.378
33139W        W98124  34.321   6.464  11.426
33140W        W98125  28.489  28.377  10.737
33141W        W98126  26.043   3.823   1.487
33142W        W98127  27.593   4.771  13.852
33143W        W98128  36.103   0.817   3.716
33144W        W98129  18.471  21.535  14.842
33145W        W98130  11.217  24.732   0.249
33146W        W98131  11.840  11.579  14.004
33147W        W98132  44.440   9.767   3.657
33148W        W98133  43.298  22.628  13.329
33149W        W98134  21.044  44.103   3.288
33150W        W98135  11.639  35.971   2.303
33151W        W98136  30.110  37.964   0.727
33152W        W98137  26.273  43.887   4.116
33153W        W98138  34.459  27.104  12.966
33154W        W98139  39.781  34.544  14.338
33155W        W98140  35.923  44.298  12.471
33156W        W98141  36.801  23.005  13.848
33157W        W98142  41.069  14.713  10.654
33158W        W98143  16.479  20.536  13.875
33159W        W98144  33.474  24.987  13.630
33160W        W98145  15.821  43.028  14.520
33161W        W98146   3.895  41.455  14.805
33162W        W98147  40.490   4.745  14.387
33163W        W98148  35.827  44.511  12.942
33164W        W98149  27.462   5.804  14.419
33165W        W98150  37.359  13.810   9.805
33166W        W98151  40.960  17.156   2.669
33167W        W98152  43.436  22.649   4.619
33168W        W98153  28.608  14.020  11.159
33169W        W98154  15.605  42.952  14.033
33170W        W98155  20.550  29.941  12.032
33171W        W98156   5.236   9.822  14.825
33172W        W98157  11.620  38.059   1.387
33173W        W98158   3.412  25.423  13.428
33174W        W98159  12.777  28.067   2.059
33175W        W98160  34.924  34.059  12.476
33176W        W98161  30.229  41.691  14.946
33177W        W98162  11.161   5.559  10.533
33178W        W98163  25.969  38.081  13.602
33179W        W98164   5.884  36.428   3.789
33180W        W98165  16.612  33.112  11.424
33181W        W98166  39.953  20.781   2.320
33182W        W98167  31.027  22.756   4.525
33183W        W98168  24.677  22.411  14.821
33184W        W98169  15.863  39.068   4.004
33185W        W98170  11.968  12.252  11.680
33186W        W98171  22.534  29.634   1.396
33187W        W98172   5.987  39.141  11.499
33188W        W98173  15.043  19.589   4.043
33189W        W98174  27.453  43.956  11.962
33190W        W98175  44.949  32.871   4.747
33191W        W98176  33.487  24.434   0.719
33192W        W98177  13.168  21.484  12.137
33193W        W98178  28.864  43.017   1.229
33194W        W98179   4.457  10.704  12.975
33195W        W98180  18.939  25.205   1.848
33196W        W98181   5.841   6.644   1.329
33197W        W98182  42.691  14.690   5.152
33198W        W98183   9.988   3.290  12.575
33199W        W98184  37.780  29.995   0.835
33200W        W98185  42.121  37.308  14.629
33201W        W98186  24.112  40.295  14.309
33202W        W98187  42.025   1.027  13.697
33203W        W98188  26.661  20.469  12.598
33204W        W98189  41.176  18.601  13.299
33205W        W98190  40.346  24.503  14.203
33206W        W98191   7.378  43.166  13.729
33207W        W98192   4.334   9.369   3.335
33208W        W98193  24.798   9.484   1.383
33209W        W98194   3.299  29.193   3.599
33210W        W98195   4.797  16.756  11.612
33211W        W98196   3.460  18.441  11.142
33212W        W98197  38.406  43.992   1.765
33213W        W98198   4.995  13.807  14.033
33214W        W98199  35.004  15.327   0.063
33215W        W98200   0.735   0.185  13.856
33216W        W98201  23.556  20.651   1.823
33217W        W98202  34.085  41.375   3.388
33218W        W98203  15.659   7.470   2.345
33219W        W98204  36.003  39.855  13.014
33220W        W98205  44.523  33.579   3.140
33221W        W98206  21.313   7.380  13.475
33222W        W98207   1.753  43.722  10.749
33223W        W98208   9.182   5.941  13.382
33224W        W98209  13.604  14.780  13.971
33225W        W98210  38.693  19.105   0.611
33226W        W98211  17.142  34.445  14.766
33227W        W98212  25.673  19.000   3.627
33228W        W98213   9.133  44.849  13.821
33229W        W98214   4.401   1.425  12.934
33230W        W98215  12.409  17.281   1.178
33231W        W98216  20.543  42.162  12.444
33232W        W98217  36.931  25.923   0.802
33233W        W98218  13.307  37.122   0.266
33234W        W98219  33.969  21.458   3.377
33235W        W98220  23.639   1.501  11.490
33236W        W98221  29.642   1.000   1.505
33237W        W98222  29.827   5.017  12.042
33238W        W98223   3.209  32.120   1.676
33239W        W98224   0.381  36.588   0.476
33240W        W98225  12.815  15.694  13.318
33241W        W98226  32.721  37.457  10.819
33242W        W98227  16.174  18.596   1.229
33243W        W98228  23.784  30.098   1.766
33244W        W98229   1.398  26.798   4.726
33245W        W98230  31.069  10.730  13.626
33246W        W98231  11.608  10.788   0.478
33247W        W98232   6.361  41.478   1.070
33248W        W98233   7.219  12.454  14.991
33249W        W98234  33.181  18.529   3.716
33250W        W98235   6.418  13.210   3.304
33251W        W98236  11.456   0.246  14.253
33252W        W98237  42.818  18.068  12.151
33253W        W98238  41.908  38.939   4.540
33254W        W98239  44.245  39.813   4.081
33255W        W98240  31.598  39.320  14.676
33256W        W98241  17.056   0.498  13.024
33257W        W98242  24.494   6.682  10.976
33258W        W98243  19.662  27.100   2.248
33259W        W98244   2.502  15.810   3.773
33260W        W98245   3.776  21.553   2.442
33261W        W98246  25.276  20.481   1.420
33262W        W98247   3.210  40.472   1.379
33263W        W98248  41.086  41.872   1.426
33264W        W98249  15.121  16.477  12.019
33265W        W98250  25.008  19.159   4.947
33266W        W98251  18.061  37.156   0.327
33267W        W98252  34.323  34.544   0.953
33268W        W98253   0.211   2.314  12.500
33269W        W98254  44.629   1.087   0.746
33270W        W98255  21.082  21.718   9.959
33271W        W98256  27.168  34.231   5.072
33272W        W98257  32.141  23.655  10.295
33273W        W98258   1.027  29.574  14.792
33274W        W98259  34.348   9.274   1.756
33275W        W98260  36.094   6.152  11.201
33276W        W98261  24.915   6.260   4.450
33277W        W98262  15.812  24.134   4.643
33278W        W98263  44.030   6.215   5.273
33279W        W98264  14.203  40.860  14.571
33280W        W98265  11.935   7.304   0.749
33281W        W98266  19.998   1.908  10.302
33282W        W98267  30.436  27.230  13.567
33283W        W98268  12.388  33.629  13.372
33284W        W98269  29.735   7.519  10.573
33285W        W98270  29.958  18.692  11.893
33286W        W98271  30.664   9.550  12.199
33287W        W98272   9.866  11.528  12.008
33288W        W98273   2.951  13.192   3.258
33289W        W98274  32.498  28.131   4.076
33290W        W98275  40.280  31.403   3.607
33291W        W98276  18.718  33.454  12.674
33292W        W98277  35.764  39.780   3.628
33293W        W98278  32.459  15.139  14.003
33294W        W98279  26.411  36.492   2.352
33295W        W98280  35.403  12.026   2.847
33296W        W98281  38.925  15.166  12.786
33297W        W98282  36.595  16.686   2.671
33298W        W98283  19.230  44.749  14.894
33299W        W98284  42.855  41.008  14.330
33300W        W98285   3.444  29.851  11.642
33301W        W98286  15.252  40.241  11.916
33302W        W98287  39.014  17.127  13.360
33303W        W98288  20.875  10.297  10.930
33304W        W98289   8.251  15.844   0.909
33305W        W98290  43.486  25.247   4.139
33306W        W98291  32.446  19.252   4.973
33307W        W98292  32.069  17.814   4.402
33308W        W98293  33.900  23.221  14.785
33309W        W98294  23.209   9.687   0.876
33310W        W98295   7.409   2.845  14.265
33311W        W98296   2.039  13.981  11.590
33312W        W98297  10.780   0.822   1.666
33313W        W98298   7.516  38.844   4.279
33314W        W98299  13.931  22.580   1.663
33315W        W98300   5.682   2.177   1.648
33316W        W98301  12.169  10.538  11.973
33317W        W98302  31.951   6.716   0.507
33318W        W98303  10.609  25.385  13.493
33319W        W98304  30.918  35.479   0.074
33320W        W98305   9.357  35.996  12.000
33321W        W98306  18.971  28.644   3.667
33322W        W98307   9.781  30.075   2.627
33323W        W98308  38.707   2.623  11.113
33324W        W98309  18.933   0.107   3.920
33325W        W98310  36.984  18.799   4.204
33326W        W98311   7.900  44.236  12.099
33327W        W98312  27.667  15.253   2.297
33328W        W98313  22.971   0.980  13.586
33329W        W98314   5.622   9.289  13.861
33330W        W98315   0.788  24.419   3.163
33331W        W98316   2.796  42.515  12.957
33332W        W98317  26.658  11.807  13.089
33333W        W98318  16.699  11.282   4.264
33334W        W98319  21.982  22.629   3.660
33335W        W98320   6.673  33.015  13.841
33336W        W98321  41.829   8.911  12.731
33337W        W98322   2.836  28.146  14.951
33338W        W98323  39.408   0.829   0.427
33339W        W98324   4.410  37.934  11.851
33340W        W98325  35.903  18.170  12.917
33341W        W98326   5.152   6.814  11.936
33342W        W98327  30.445  26.669   4.560
33343W        W98328  41.539  38.048  14.991
33344W        W98329  14.035  31.092   4.371
33345W        W98330   5.500  25.934   2.372
33346W        W98331  41.296  27.871   3.280
33347W        W98332  16.589   8.551   0.341
33348W        W98333  38.267  16.903  10.933
33349W        W98334   3.186  33.736  13.482
33350W        W98335   5.232  39.170  10.236
33351W        W98336  31.684   0.221   1.265
33352W        W98337  15.289   1.012   4.728
33353W        W98338  26.187  39.188  11.156
33354W        W98339  36.048  27.569  12.124
33355W        W98340  20.580  33.541  11.673
33356W        W98341  25.602  31.539  11.797
33357W        W98342  33.100  19.798  12.018
33358W        W98343  29.103   5.006   3.072
33359W        W98344  14.319   2.501   2.798
33360W        W98345  12.563  27.224   3.049
33361W        W98346  33.485   2.971   3.092
33362W        W98347  22.600   0.313  12.417
33363W        W98348  35.437  12.700  13.128
33364W        W98349  34.809   9.763  13.977
33365W        W98350   4.731   5.238   5.494
33366W        W98351  35.887  18.278  14.956
33367W        W98352  40.539  14.485  14.421
33368W        W98353  43.585  16.935  14.401
33369W        W98354  41.005  32.304  13.452
33370W        W98355  31.152  23.921   3.269
33371W        W98356  28.667   5.696  11.130
33372W        W98357  20.507  40.928   2.570
33373W        W98358   3.862  18.640   2.206
33374W        W98359   1.015  30.964   4.489
33375W        W98360  11.397  33.923   1.685
33376W        W98361  31.032   4.362   2.351
33377W        W98362  25.168  35.550  13.492
33378W        W98363  33.920   8.729  12.203
33379W        W98364  36.264  20.622  13.442
33380W        W98365   0.828  23.210   1.346
33381W        W98366  44.801  21.155   4.782
33382W        W98367  22.620  32.604  14.803
33383W        W98368  42.784   6.933  13.552
33384W        W98369  21.813  25.164  14.875
33385W        W98370   1.848  26.515   3.043
33386W        W98371  38.479  39.481  10.755
33387W        W98372   0.213   2.456   2.197
33388W        W98373  15.787  38.957   4.493
33389W        W98374  18.908  42.255   4.324
33390W        W98375  40.373  29.736  14.920
33391W        W98376  36.529  20.934  11.522
33392W        W98377  36.109  35.012   0.727
33393W        W98378  41.520  35.707  14.649
33394W        W98379   4.489   0.005  12.866
33395W        W98380  10.168  22.079  12.572
33396W        W98381  10.712  18.169   0.822
33397W        W98382  34.963  43.218  13.975
33398W        W98383   7.627  38.621   1.874
33399W        W98384  35.410  26.488   3.667
33400W        W98385   3.731   1.446   2.678
33401W        W98386  40.738  22.996   1.334
33402W        W98387  11.783  41.768  13.469
33403W        W98388   2.218  32.705  12.505
33404W        W98389  25.054  10.311   2.386
33405W        W98390   0.519  24.773   4.156
33406W        W98391  19.196  14.109   3.698
33407W        W98392  25.069  33.914   1.525
33408W        W98393  36.885  13.862  14.039
33409W        W98394   8.723  25.723  14.068
33410W        W98395  26.756   2.959   4.904
33411W        W98396  27.449  24.664  12.745
33412W        W98397  19.362  30.509   1.431
33413W        W98398  40.554  41.345   2.813
33414W        W98399  34.441  23.466  12.103
33415W        W98400  28.341  22.124  14.936
33416W        W98401  35.451  13.523   1.862
33417W        W98402  36.308  39.108   0.326
33418W        W98403  38.826  12.194   2.911
33419W        W98404   6.711  32.634  13.473
33420W        W98405  19.650   6.290  13.100
33421W        W98406  29.036   9.484   3.295
33422W        W98407  19.858   8.735   1.682
33423W        W98408  42.077  19.065   1.265
33424W        W98409  24.206  36.850   3.484
33425W        W98410   9.383  24.689   1.669
33426W        W98411   8.848  16.736  11.161
33427W        W98412   0.364  22.954   2.128
33428W        W98413  11.201  27.056  13.562
33429W        W98414  41.970  17.986  10.169
33430W        W98415  41.131  40.690  12.034
33431W        W98416  40.837  15.117   2.127
33432W        W98417  29.297  30.088   4.551
33433W        W98418  33.830  30.943   0.163
33434W        W98419   5.047  15.313   1.019
33435W        W98420  44.438  42.676  14.315
33436W        W98421  29.952  43.354  13.749
33437W        W98422  32.341  39.101   0.751
33438W        W98423  17.782  21.986  12.142
33439W        W98424   4.656   3.394  13.545
33440W        W98425   8.696  28.422   2.737
33441W        W98426   3.846  20.992  13.543
33442W        W98427   0.076  13.646   1.887
33443W        W98428  19.130  36.404   1.384
33444W        W98429  12.073   0.435  11.699
33445W        W98430  36.516  23.859   4.091
33446W        W98431   6.407   3.950   4.482
33447W        W98432  41.219  21.966   4.678
33448W        W98433  10.088  13.840   1.757
33449W        W98434  34.420  43.249  14.640
33450W        W98435  18.608  21.723  12.466
33451W        W98436   2.720   4.338   3.163
33452W        W98437  22.540  36.137  14.484
33453W        W98438  34.406  26.957   1.270
33454W        W98439   4.253  19.101  10.489
33455W        W98440  18.951  44.025  12.520
33456W        W98441  16.901  31.391  10.620
33457W        W98442  26.011  32.120   2.373
33458W        W98443  28.191  38.829   2.833
33459W        W98444   3.923  22.080  10.639
33460W        W98445   6.242  41.236   0.291
33461W        W98446  44.570  28.518   4.283
33462W        W98447  31.536  16.100  12.702
33463W        W98448   9.333   5.092   5.087
33464W        W98449  31.651  31.187   2.677
33465W        W98450  11.432  18.750  10.822
33466W        W98451  35.830  17.772   3.168
33467W        W98452  37.359  27.622   4.577
33468W        W98453   7.174  12.337  12.548
33469W        W98454  24.765   8.703  14.816
33470W        W98455   9.936  26.197  10.808
33471W        W98456   3.161  42.003  11.285
33472W        W98457  41.047  22.526  12.104
33473W        W98458  31.458  28.605  14.332
33474W        W98459  26.195   1.895   2.889
33475W        W98460  42.310  17.369   1.895
33476W        W98461  16.856  12.162  13.019
33477W        W98462  36.649  25.995   0.377
33478W        W98463  26.627   7.438  14.954
33479W        W98464  27.583  33.354  13.981
33480W        W98465  40.024  12.720   0.121
33481W        W98466  25.761  40.862   0.369
33482W        W98467   0.666  11.236   4.691
33483W        W98468  27.176  23.849  11.298
33484W        W98469  41.284  14.546   4.703
33485W        W98470   1.332  26.216   2.323
33486W        W98471  15.818  17.231  12.672
33487W        W98472  27.147  19.990  11.781
33488W        W98473   0.822  34.861  11.982
33489W        W98474  18.276  10.597   3.715
33490W        W98475   5.288  28.516  10.686
33491W        W98476  37.328  32.483  12.949
33492W        W98477  37.072  22.814  13.419
33493W        W98478  13.143  41.471  14.880
33494W        W98479  36.723  23.587   0.038
33495W        W98480   0.736   0.477   1.291
33496W        W98481  26.765  33.414  13.130
33497W        W98482   3.371  43.463  14.317
33498W        W98483  25.788  11.193  12.151
33499W        W98484   3.507  38.416   0.526
33500W        W98485  33.536  44.344   1.497
33501W        W98486  34.895  12.617   4.633
33502W        W98487  27.390  33.471   1.788
33503W        W98488   3.963  18.526  14.112
33504W        W98489  38.470   3.672  12.011
33505W        W98490  22.019  34.991   4.177
33506W        W98491   9.420  11.222  10.798
33507W        W98492  40.613   1.292  13.075
33508W        W98493   6.514  31.241   2.272
33509W        W98494  37.077   0.896  11.940
33510W        W98495  41.823  18.912   5.019
33511W        W98496  39.108  41.936   0.324
33512W        W98497  26.271  14.658  14.860
33513W        W98498  42.537  39.823  14.980
33514W        W98499   9.395  22.303   1.399
33515W        W98500  31.083  33.141  11.995
33516W        W98501  20.029   9.800   4.295
33517W        W98502  28.081  17.623   0.900
33518W        W98503  27.178  14.026   4.691
33519W        W98504  43.050  15.374   2.152
33520W        W98505  25.001  32.966   1.578
33521W        W98506  11.706  39.428   4.564
33522W        W98507  28.652  18.644  12.622
33523W        W98508   8.536  16.784  14.494
33524W        W98509  13.944  13.235   3.752
33525W        W98510  17.126  34.629   4.496
33526W        W98511  12.814  20.514   3.107
33527W        W98512  10.359  41.024   2.450
33528W        W98513  11.972   7.667   3.465
33529W        W98514  17.643  32.588  11.708
33530W        W98515  40.408  16.569   0.382
33531W        W98516  30.429  37.852  14.363
33532W        W98517  39.749  39.030   4.743
33533W        W98518  16.267  40.527  14.805
33534W        W98519  26.500  19.779   0.331
33535W        W98520  41.488   4.260  12.802
33536W        W98521  28.566  39.064  12.474
33537W        W98522  30.054  38.295  14.919
33538W        W98523  33.080  22.804  11.929
33539W        W98524  14.799  36.594  14.594
33540W        W98525  30.018  21.342  13.650
33541W        W98526  42.835  18.791  14.543
33542W        W98527  25.950  40.660   1.337
33543W        W98528  24.205  27.546  12.461
33544W        W98529  16.877  24.221   2.575
33545W        W98530  13.168  12.225   2.861
33546W        W98531  19.272  30.004   1.328
33547W        W98532  28.824  14.655  11.672
33548W        W98533  27.176  28.268   2.671
33549W        W98534  18.640  16.288   4.870
33550W        W98535   1.664  26.340  11.240
33551W        W98536  17.008  42.497  14.360
33552W        W98537  35.544  27.176   2.677
33553W        W98538   2.852  18.959  14.519
33554W        W98539  43.793  19.823   2.627
33555W        W98540  35.602  14.785  14.494
33556W        W98541  28.872  41.950  11.525
33557W        W98542  24.022   4.438   1.237
33558W        W98543  39.880  27.426  11.476
33559W        W98544  16.065  26.646   3.211
33560W        W98545  28.127  31.866   3.148
33561W        W98546  31.371  39.410   2.650
33562W        W98547   5.799  30.559   4.104
33563W        W98548  10.315  31.033  11.981
33564W        W98549  34.743   1.576  12.030
33565W        W98550  10.388  31.420  14.563
33566W        W98551   4.763  15.631   1.932
33567W        W98552  37.631  37.308   2.448
33568W        W98553   6.439  27.518   1.734
33569W        W98554   8.744  42.394  10.611
33570W        W98555   4.802  27.178  14.819
33571W        W98556  26.788   1.938  11.275
33572W        W98557  15.276   2.636   9.756
33573W        W98558  34.792   1.029   3.270
33574W        W98559  25.703  19.662  10.782
33575W        W98560  23.467  14.172  14.977
33576W        W98561   7.362  39.060   1.693
33577W        W98562  11.042  42.288   0.221
33578W        W98563   4.534   1.509   2.311
33579W        W98564  11.246   0.967  14.913
33580W        W98565  21.704  17.721  14.018
33581W        W98566  27.657  23.906   1.536
33582W        W98567  43.455   6.004  12.930
33583W        W98568  32.545  38.710  11.848
33584W        W98569  33.350  24.080   3.705
33585W        W98570   6.825  21.568   0.029
33586W        W98571  24.966  39.837  12.290
33587W        W98572   3.693  24.143   0.359
33588W        W98573  22.196   0.501  14.388
33589W        W98574  27.161  18.326   0.403
33590W        W98575   9.023  42.596  13.930
33591W        W98576   6.306  27.119  14.335
33592W        W98577  41.250  11.635  13.891
33593W        W98578  20.050   4.196  13.076
33594W        W98579   4.932  28.818   3.767
33595W        W98580  14.306  12.693  13.432
33596W        W98581   7.413   0.762  14.921
33597W        W98582  31.933   9.699   2.398
33598W        W98583  25.815  33.820   5.061
33599W        W98584  24.013  42.825  10.978
33600W        W98585  27.291  41.323   5.052
33601W        W98586  13.866  18.232  10.674
33602W        W98587  17.834   9.771   0.870
33603W        W98588  30.666  23.286  11.188
33604W        W98589   9.777  44.894  13.006
33605W        W98590  12.299   3.662   4.435
33606W        W98591  14.954  30.908  12.719
33607W        W98592  14.597  15.033   2.724
33608W        W98593   9.116   5.417  12.642
33609W        W98594   6.933  42.899  13.555
33610W        W98595   0.041  10.689  12.963
33611W        W98596  23.214  29.114   3.570
33612W        W98597  44.419  26.716   0.715
33613W        W98598  21.092  30.712   1.341
33614W        W98599   8.073  27.030  13.227
33615W        W98600  36.809  25.904   3.408
33616W        W98601  15.819  30.646  13.428
33617W        W98602   3.378  36.270   3.668
33618W        W98603   8.551   3.148  12.683
33619W        W98604  13.280  17.734   1.959
33620W        W98605  35.045  16.658   4.552
33621W        W98606  41.224   5.275   3.222
33622W        W98607   0.740  11.770  12.449
33623W        W98608  32.928  23.765   4.209
33624W        W98609  13.564  25.591   2.217
33625W        W98610  27.186   9.409  11.177
33626W        W98611   7.654  44.929   4.747
33627W        W98612   6.784  27.445   4.090
33628W        W98613  31.510   2.823   1.504
33629W        W98614   5.755  39.454  12.949
33630W        W98615   6.879  31.479  11.626
33631W        W98616  23.526   5.174  12.284
33632W        W98617   7.702  13.612  13.489
33633W        W98618  26.315   1.403  14.352
33634W        W98619  24.245  14.069  12.042
33635W        W98620   6.179   0.822  13.008
33636W        W98621  40.643  23.984   5.469
33637W        W98622  32.121  11.200  12.535
33638W        W98623  17.176  34.161  12.155
33639W        W98624  32.906   3.710  13.923
33640W        W98625   7.611  21.273  11.388
33641W        W98626  40.162  17.790  13.003
33642W        W98627   3.466  26.091   2.143
33643W        W98628  31.111  36.339  11.919
33644W        W98629  17.794  29.459  11.246
33645W        W98630  40.401   7.991  14.926
33646W        W98631   1.769  21.007   2.124
33647W        W98632   6.913  43.090   0.492
33648W        W98633  23.314  21.230  13.533
33649W        W98634  41.015   7.105   4.215
33650W        W98635   8.431  22.871   2.408
33651W        W98636  40.468  16.091   4.417
33652W        W98637  14.293  44.233  13.980
33653W        W98638  23.290  15.351   2.733
33654W        W98639  31.517  11.949   1.402
33655W        W98640  19.991  35.818   2.161
33656W        W98641  34.322  32.859  12.006
33657W        W98642  23.057  34.674  14.404
33658W        W98643  31.390  32.898   4.571
33659W        W98644  22.296  14.419   5.079
33660W        W98645  24.927   3.463  14.841
33661W        W98646  25.207  40.037   3.750
33662W        W98647  28.400  43.798  12.946
33663W        W98648  41.494  27.648  13.127
33664W        W98649  30.119  15.903   2.809
33665W        W98650   7.689  27.656  14.368
33666W        W98651   7.629  37.967  13.492
33667W        W98652  22.388   5.438  10.972
33668W        W98653  43.008  17.747  12.532
33669W        W98654  27.980  34.671  11.551
33670W        W98655  21.923  15.517  12.306
33671W        W98656   0.561  26.575  14.314
33672W        W98657  34.276  26.609   2.766
33673W        W98658  40.669  30.104   1.796
33674W        W98659  30.115  23.384   1.556
33675W        W98660  33.948  38.646   0.307
33676W        W98661   0.914  35.410   3.871
33677W        W98662  28.098   7.644  14.020
33678W        W98663  26.661   6.674   3.923
33679W        W98664  39.264  10.119  14.279
33680W        W98665  28.804   7.917   4.561
33681W        W98666  20.215  28.688   1.076
33682W        W98667  43.043  21.634  11.307
33683W        W98668  44.406  17.572  14.769
33684W        W98669  31.126  22.684  12.417
33685W        W98670  24.583   5.852   3.913
33686W        W98671   2.689   6.702  11.994
33687W        W98672  43.288  10.346   4.090
33688W        W98673  17.611  23.701   3.403
33689W        W98674  44.044  21.797   1.024
33690W        W98675  10.136  24.793  11.144
33691W        W98676  31.088   6.917  12.537
33692W        W98677   3.472   4.726   2.802
33693W        W98678  13.104  43.287  12.142
33694W        W98679   7.934  20.159   0.369
33695W        W98680  18.151   4.034   2.971
33696W        W98681  13.652  38.272  12.624
33697W        W98682  12.178  32.065  10.441
33698W        W98683  23.538  28.386  12.500
33699W        W98684  39.686  29.578   0.413
33700W        W98685  10.564   0.839   3.931
33701W        W98686   6.595  24.262   3.591
33702W        W98687   5.780  29.220   4.684
33703W        W98688   2.277  11.969   0.538
33704W        W98689  25.145   8.643   4.635
33705W        W98690   8.444  42.019  14.259
33706W        W98691  32.000  27.104  12.008
33707W        W98692  38.630   1.474   1.704
33708W        W98693  20.665  41.834   4.003
33709W        W98694  36.020  19.179   1.927
33710W        W98695  44.769   2.763   2.318
33711W        W98696  18.866   4.736  11.603
33712W        W98697  23.828   1.009  13.024
33713W        W98698   4.738   3.405  11.109
33714W        W98699  20.747   4.887  13.990
33715W        W98700   3.934  24.505  13.423
33716W        W98701  36.939  39.390   1.681
33717W        W98702  28.997   8.365  11.194
33718W        W98703  13.126  10.163   1.423
33719W        W98704  37.662  23.638  10.764
33720W        W98705   7.897  36.017  12.051
33721W        W98706   1.947   6.249   0.960
33722W        W98707  33.438  42.768   2.255
33723W        W98708   1.828  15.544   2.374
33724W        W98709   5.941  41.577   3.265
33725W        W98710  41.913  20.354   3.804
33726W        W98711  17.958  24.879   2.288
33727W        W98712  19.077  41.533  11.571
33728W        W98713  26.035  24.691  12.926
33729W        W98714  28.194  29.704  12.369
33730W        W98715  21.689  14.178  12.672
33731W        W98716   2.783  31.539   2.214
33732W        W98717  21.649  17.503   2.769
33733W        W98718  10.356  22.818   4.072
33734W        W98719  10.845  43.890   3.597
33735W        W98720  33.556  23.001  13.139
33736W        W98721  31.873  34.024   1.265
33737W        W98722   0.600  34.533   4.393
33738W        W98723  43.908  11.148   4.546
33739W        W98724  18.274   2.992  11.565
33740W        W98725  27.279  37.659   2.662
33741W        W98726   2.951  15.544  11.911
33742W        W98727  26.104  33.989   2.034
33743W        W98728  42.529  15.152   3.284
33744W        W98729  14.611  26.101   2.794
33745W        W98730  23.026  35.180  14.329
33746W        W98731  22.176  22.842   2.398
33747W        W98732   6.338  22.209   3.790
33748W        W98733   8.851   7.873   0.410
33749W        W98734  26.295  12.864  14.828
33750W        W98735   5.249  32.027   4.583
33751W        W98736  12.080  14.857  10.358
33752W        W98737   9.642  28.666  12.450
33753W        W98738  11.051  32.613   2.343
33754W        W98739  35.980  41.759   0.722
33755W        W98740  32.930   8.753  13.530
33756W        W98741  22.198   7.398   0.341
33757W        W98742  30.229  41.857   4.090
33758W        W98743  40.784  26.429  13.799
33759W        W98744  37.984  30.660  11.199
33760W        W98745  25.643  37.306   0.840
33761W        W98746  18.281  41.952  12.983
33762W        W98747  28.897  21.108   1.480
33763W        W98748  18.635   6.582   4.086
33764W        W98749  37.599  20.720  13.077
33765W        W98750  37.480  42.355  13.415
33766W        W98751   1.055  43.033   1.468
33767W        W98752  37.910  33.670   1.270
33768W        W98753  16.660  15.241  10.763
33769W        W98754  11.609  14.079   4.188
33770W        W98755  19.727  24.490  11.337
33771W        W98756  28.086  11.752   2.560
33772W        W98757  29.989   8.504  14.240
33773W        W98758  31.464  38.554   0.857
33774W        W98759  15.636  16.036   2.796
33775W        W98760  33.139  44.919   3.458
33776W        W98761  18.696  41.833   1.259
33777W        W98762  16.759  26.407  14.958
33778W        W98763  36.083  19.528   1.202
33779W        W98764  14.296  33.857   1.826
33780W        W98765   3.791  17.242  14.534
33781W        W98766  38.058  25.887  11.142
33782W        W98767  24.939  41.392   4.512
33783W        W98768  21.967  18.256   3.763
33784W        W98769   0.900  25.154   2.855
33785W        W98770  19.247  43.779  11.686
33786W        W98771   0.759  38.985   3.746
33787W        W98772  28.088  34.963   1.346
33788W        W98773  22.166   3.377   4.932
33789W        W98774  24.201  14.860   1.807
33790W        W98775  26.988  25.565   1.278
33791W        W98776  15.615  31.961   4.150
33792W        W98777  41.023  11.391  14.824
33793W        W98778   9.095  31.363   1.848
33794W        W98779  28.228  11.133  11.659
33795W        W98780  41.097  17.836  12.080
33796W        W98781  39.662  17.217   2.995
33797W        W98782  11.559   6.995   2.179
33798W        W98783  29.507  18.174   1.213
33799W        W98784   2.739   3.732  10.666
33800W        W98785  12.785  19.797  14.367
33801W        W98786  20.761  24.090   2.412
33802W        W98787  13.722  17.398  13.466
33803W        W98788  25.708  12.977   2.749
33804W        W98789  26.477  25.069   1.777
33805W        W98790   6.199  14.789   3.255
33806W        W98791  37.049   1.278   2.320
33807W        W98792   3.324  35.497  10.751
33808W        W98793  32.492  37.905  10.626
33809W        W98794   0.077  27.972   0.392
33810W        W98795   4.759  42.155   2.169
33811W        W98796  36.765   6.233   2.160
33812W        W98797   7.328  36.313  13.791
33813W        W98798  42.088  32.978  11.179
33814W        W98799  10.295  44.650  12.208
33815W        W98800  32.295  42.001   4.528
33816W        W98801  14.748  31.756   0.026
33817W        W98802  15.421  25.497   5.419
33818W        W98803  14.241  17.445  14.816
33819W        W98804  19.328  41.869  12.936
33820W        W98805  28.540   7.871  13.904
33821W        W98806   9.503  13.320  14.496
33822W        W98807  39.017  37.892  12.523
33823W        W98808  11.156  43.018   1.879
33824W        W98809  24.994  32.475   1.813
33825W        W98810  32.943   1.749  10.650
33826W        W98811   7.010  44.217   2.371
33827W        W98812  40.691  36.921  13.555
33828W        W98813   4.376  32.276  10.513
33829W        W98814  18.774  38.842   4.266
33830W        W98815   4.379   6.358  10.935
33831W        W98816   2.331  42.163  11.152
33832W        W98817  10.409  32.953  10.689
33833W        W98818   9.764  11.614   0.798
33834W        W98819  43.076  23.701   4.741
33835W        W98820   4.823  14.669   3.361
33836W        W98821   8.164  14.340   0.974
33837W        W98822  27.355  35.001  13.085
33838W        W98823  16.746   5.463   2.292
33839W        W98824  16.897   3.823  11.643
33840W        W98825  34.643   2.802   0.978
33841W        W98826   0.817   9.578   4.113
33842W        W98827  37.565  38.102  13.606
33843W        W98828  39.558  41.090  13.033
33844W        W98829  40.216  12.248   3.116
33845W        W98830  41.465  21.033  11.896
33846W        W98831  15.078  41.095   2.763
33847W        W98832  11.830  21.239  13.391
33848W        W98833   6.253   7.365   4.065
33849W        W98834  20.490  22.835  11.645
33850W        W98835   7.182  19.072  10.710
33851W        W98836   9.879  40.874  13.934
33852W        W98837  36.843  11.128   4.051
33853W        W98838  38.943  39.850   1.637
33854W        W98839  23.642  17.665   2.105
33855W        W98840   5.770   7.360  12.698
33856W        W98841  29.997  20.960   2.321
33857W        W98842  27.393   8.473   2.708
33858W        W98843   2.443  23.470  11.664
33859W        W98844  32.927  37.747   2.665
33860W        W98845  37.867  32.691   2.653
33861W        W98846  28.541  15.733   2.010
33862W        W98847  24.688  19.741  12.807
33863W        W98848  40.208  27.079   2.662
33864W        W98849  29.830   7.319   4.177
33865W        W98850   2.271  35.292  14.364
33866W        W98851  35.065  22.434   3.647
33867W        W98852  18.445  35.376  11.592
33868W        W98853  35.487  15.292  10.660
33869W        W98854  28.343  20.128   4.523
33870W        W98855   0.397  32.083  13.830
33871W        W98856  36.249  19.459  12.771
33872W        W98857  33.483   8.162  14.742
33873W        W98858  33.486  33.062   2.426
33874W        W98859  29.377   0.196   0.738
33875W        W98860  11.148  11.604  13.441
33876W        W98861  26.048  36.717   1.213
33877W        W98862  26.200   7.959   2.323
33878W        W98863  30.705  36.728   3.830
33879W        W98864  44.476  19.711  10.810
33880W        W98865  38.933  16.230  13.763
33881W        W98866  14.909  15.947   3.705
33882W        W98867  26.782   5.451   4.616
33883W        W98868   4.540  37.333  14.433
33884W        W98869  14.548   5.334  13.362
33885W        W98870  32.578   8.343   2.341
33886W        W98871  22.569  42.297  11.141
33887W        W98872   1.275  28.777   3.326
33888W        W98873  12.243   2.727  14.376
33889W        W98874  25.097  30.510   3.140
33890W        W98875  17.785  43.062  13.336
33891W        W98876  22.245  39.428  11.280
33892W        W98877  14.273  24.028   2.321
33893W        W98878   6.731  41.743   4.576
33894W        W98879  31.281   6.661   4.840
33895W        W98880  21.028  12.964  11.453
33896W        W98881  37.201  41.165  13.020
33897W        W98882  36.043  35.079  12.770
33898W        W98883  10.083  18.684  14.332
33899W        W98884  27.881  19.272   1.304
33900W        W98885  24.234  40.040   1.866
33901W        W98886   2.965  34.892  14.261
33902W        W98887   7.618  25.714  14.731
33903W        W98888  11.646  37.055   2.267
33904W        W98889   5.130  42.935   3.637
33905W        W98890   5.774  37.775   0.767
33906W        W98891  23.312  34.150   4.561
33907W        W98892  33.377  34.132  14.233
33908W        W98893  21.851  42.352  14.950
33909W        W98894   1.897  10.268  13.839
33910W        W98895  43.039  26.922   4.563
33911W        W98896   5.811  27.197   2.202
33912W        W98897  34.549  19.348  12.573
33913W        W98898  42.521   3.253   4.438
33914W        W98899   8.665  22.167   0.050
33915W        W98900  16.193  12.292   4.519
33916W        W98901  14.137  35.837  12.087
33917W        W98902  44.901  43.115  13.870
33918W        W98903   2.923  23.647   1.877
33919W        W98904  29.935  30.894   3.759
33920W        W98905   0.688  11.848   2.420
33921W        W98906   9.277   2.058   2.743
33922W        W98907  39.521   3.645   0.460
33923W        W98908   5.120   8.857   9.877
33924W        W98909  17.679  12.738  13.453
33925W        W98910  12.377  14.063  14.249
33926W        W98911  12.267  21.959  11.426
33927W        W98912  14.175   9.939  11.471
33928W        W98913  24.732  36.065  10.539
33929W        W98914  40.620  16.767  14.877
33930W        W98915  31.120  16.805   0.728
33931W        W98916  35.641  17.709  11.622
33932W        W98917  44.935  14.336   3.148
33933W        W98918  21.288  40.296   0.988
33934W        W98919   0.362  13.290   3.361
33935W        W98920  41.677  43.196   1.483
33936W        W98921  16.126  30.603   3.113
33937W        W98922  31.642  39.741  14.953
33938W        W98923   3.964   7.428  11.696
33939W        W98924  14.315  10.209  13.588
33940W        W98925  39.573  23.594  13.381
33941W        W98926  23.702   3.841   0.897
33942W        W98927  41.530  31.865   3.093
33943W        W98928  32.623  15.275   3.215
33944W        W98929  17.366  39.414   0.349
33945W        W98930  27.426  28.493  11.778
33946W        W98931  39.426   8.030  11.568
33947W        W98932  11.191   9.672  12.045
33948W        W98933  13.907   0.495   3.699
33949W        W98934   5.468  23.669  13.492
33950W        W98935  43.876  27.483   0.202
33951W        W98936  20.008  35.826  12.876
33952W        W98937  36.647  28.163  11.169
33953W        W98938  43.524  40.036  14.060
33954W        W98939  20.053  31.665  12.518
33955W        W98940   3.479  27.456  10.165
33956W        W98941  22.385  22.526   2.838
33957W        W98942  12.379  13.334   2.293
33958W        W98943  21.879  22.061  11.139
33959W        W98944  32.078  39.072   3.771
33960W        W98945  35.156  34.009   0.263
33961W        W98946  29.108  26.182  12.618
33962W        W98947  19.495  21.590   2.514
33963W        W98948  12.704  40.297  13.785
33964W        W98949  36.310   7.386   1.908
33965W        W98950  14.308  40.241  14.949
33966W        W98951  38.605  13.389  13.554
33967W        W98952   5.800  43.455  12.057
33968W        W98953  44.323  40.955  12.540
33969W        W98954  25.090  24.443   2.369
33970W        W98955  30.096   5.451   0.812
33971W        W98956  39.490  14.593   2.356
33972W        W98957  44.759  30.502  12.604
33973W        W98958  34.642   9.639   5.016
33974W        W98959   7.148  30.785   2.063
33975W        W98960  10.371  35.075  11.218
33976W        W98961  34.805  25.404   1.862
33977W        W98962  36.574  43.724   0.041
33978W        W98963  20.143  44.298  10.189
33979W        W98964  23.263  19.727   1.296
33980W        W98965  26.391  19.281   3.247
33981W        W98966  38.379  32.990   4.353
33982W        W98967   2.321   5.936  12.593
33983W        W98968   4.037  38.072  13.872
33984W        W98969   5.907   3.220   4.085
33985W        W98970   2.118   3.547  12.363
33986W        W98971  30.544   4.924   3.562
33987W        W98972  19.477  11.448   4.551
33988W        W98973  33.446   2.922  13.889
33989W        W98974   1.776  12.744  12.196
33990W        W98975  38.306  43.724  12.794
33991W        W98976   1.775  10.241   0.062
33992W        W98977  43.382   8.397   0.681
33993W        W98978  29.253  15.732  14.300
33994W        W98979   5.937  27.949   1.872
33995W        W98980  34.165  40.003  14.769
33996W        W98981  26.047  35.885   3.925
33997W        W98982  23.164  21.316   2.211
33998W        W98983   7.820  39.486  13.509
33999W        W98984  24.949   8.655  14.097
34000W        W98985   1.473  41.184   2.744
34001W        W98986  18.097  32.583   3.666
34002W        W98987   5.283  38.786  14.371
34003W        W98988  22.255  30.456  13.308
34004W        W98989  24.921  23.272   0.881
34005W        W98990  26.109  38.392  14.275
34006W        W98991  40.474  43.788   2.808
34007W        W98992  43.828   6.117   0.122
34008W        W98993   6.870  29.459   4.663
34009W        W98994  42.391  37.052  12.129
34010W        W98995  17.541  15.755   0.906
34011W        W98996  32.517   0.764   0.340
34012W        W98997  15.043  35.507  13.921
34013W        W98998  33.603   6.500   5.354
34014W        W98999  43.388   4.705   4.623
34015W        W99000  41.863  42.530  11.113
34016W        W99001  12.332  40.568  12.201
34017W        W99002  27.077  26.064  13.228
34018W        W99003   1.903  36.524  14.126
34019W        W99004  18.749  35.373   0.174
34020W        W99005  24.102  38.423   0.357
34021W        W99006   0.412  28.147   3.205
34022W        W99007   0.395  27.556  13.571
34023W        W99008  40.388  28.208   3.679
34024W        W99009  22.778  15.745   1.434
34025W        W99010  11.613   0.264  13.773
34026W        W99011  17.160  27.727  13.839
34027W        W99012  18.069   7.486   3.527
34028W        W99013  37.116  43.941   0.383
34029W        W99014  18.666   9.465   0.843
34030W        W99015  37.837  16.544   0.906
34031W        W99016  18.011  17.778   3.813
34032W        W99017  28.952   5.423   1.297
34033W        W99018   1.876  29.021  10.443
34034W        W99019  26.426  44.233   3.112
34035W        W99020   3.349   3.253   4.800
34036W        W99021  34.360  33.091   3.743
34037W        W99022  22.345   9.729  12.682
34038W        W99023   0.421   3.726   1.702
34039W        W99024  38.497   1.771   0.985
34040W        W99025  25.005   6.837   1.288
34041W        W99026   7.565  32.528   0.881
34042W        W99027  14.109   3.273  14.487
34043W        W99028  10.664  38.592  14.836
34044W        W99029   6.880   6.337   1.851
34045W        W99030  23.177  21.204   0.755
34046W        W99031  31.099  27.202  14.741
34047W        W99032  19.704  19.093  11.732
34048W        W99033   9.086  26.843  12.467
34049W        W99034   7.642  28.903   3.655
34050W        W99035  35.358  15.171  13.340
34051W        W99036  20.124   6.882  11.545
34052W        W99037   9.859   5.772  13.880
34053W        W99038   4.910   7.503  14.115
34054W        W99039  28.194  20.789   3.936
34055W        W99040  34.097  43.240   1.749
34056W        W99041  19.811  32.117   4.312
34057W        W99042  19.738  24.189   1.532
34058W        W99043  17.111   8.475  11.085
34059W        W99044  41.116  12.119   3.405
34060W        W99045   2.110  14.324   1.206
34061W        W99046   7.476  13.546  11.204
34062W        W99047  19.641  29.172   0.365
34063W        W99048  13.596  18.132  11.132
34064W        W99049  42.758  15.884   1.861
34065W        W99050  27.237  16.627  11.655
34066W        W99051   2.904  17.360  13.350
34067W        W99052  21.192  34.574   0.528
34068W        W99053  28.500   9.625   4.769
34069W        W99054  19.974  27.016  10.559
34070W        W99055  39.327   7.188  13.320
34071W        W99056   9.767  35.732   4.106
34072W        W99057  27.122   5.306  13.543
34073W        W99058  30.038   0.977   3.306
34074W        W99059  11.777  24.731   1.093
34075W        W99060   6.179  15.707   3.203
34076W        W99061  15.341  39.468   0.328
34077W        W99062  33.870   0.336   0.771
34078W        W99063  41.983   3.195  12.876
34079W        W99064  30.994   2.102   3.253
34080W        W99065  39.891   5.180  10.639
34081W        W99066  27.213   2.988   3.949
34082W        W99067  30.636  25.212  13.464
34083W        W99068  17.668   8.267   0.569
34084W        W99069   3.285  18.922   4.504
34085W        W99070  21.785  26.960   0.038
34086W        W99071  32.909  30.562   1.897
34087W        W99072  23.166   1.067  11.190
34088W        W99073  35.308  44.232   3.172
34089W        W99074  24.706  44.450  13.457
34090W        W99075  30.174  44.980   2.512
34091W        W99076  42.075  39.316   0.822
34092W        W99077  32.601  32.452  12.410
34093W        W99078  11.317   2.805   3.976
34094W        W99079  28.688  44.841  13.829
34095W        W99080  32.650  24.197   3.393
34096W        W99081   0.313  21.048   3.288
34097W        W99082  17.850  33.099  11.645
34098W        W99083  39.996  43.336   1.664
34099W        W99084   5.203   0.029  11.588
34100W        W99085  44.098   4.912   2.838
34101W        W99086  16.483  36.565   3.208
34102W        W99087  40.015   9.420  11.588
34103W        W99088  41.467  35.452   4.893
34104W        W99089  31.734   3.248   3.736
34105W        W99090  36.468  43.352   0.376
34106W        W99091  38.320  19.046  11.158
34107W        W99092  26.427  26.104   1.843
34108W        W99093  39.606  10.666   3.528
34109W        W99094  26.190  12.165   1.424
34110W        W99095  11.111  25.973  14.251
34111W        W99096   9.370  22.164  11.946
34112W        W99097  37.502  33.616  11.543
34113W        W99098  18.297  31.472   4.973
34114W        W99099  30.061  36.171   3.402
34115W        W99100  10.927  26.130   2.390
34116W        W99101  42.988   2.292   0.884
34117W        W99102  21.234  38.515   0.659
34118W        W99103   4.843  40.971   3.369
34119W        W99104  16.048  39.390   0.742
34120W        W99105   1.253   2.799   4.384
34121W        W99106   1.412  39.993   0.925
34122W        W99107   6.720  41.251   3.346
34123W        W99108  41.943  26.993  12.348
34124W        W99109  38.933  40.322  11.179
34125W        W99110  39.313  34.082  11.153
34126W        W99111   8.461   9.266   0.324
34127W        W99112  41.993  42.917   0.046
34128W        W99113   8.368  34.754  14.447
34129W        W99114  16.766  18.234  12.548
34130W        W99115  32.208  14.626   1.909
34131W        W99116  25.714  28.130   3.207
34132W        W99117  32.425   8.745  13.640
34133W        W99118   3.378   1.621  11.874
34134W        W99119  20.775  10.766   0.707
34135W        W99120   0.973  12.787   2.795
34136W        W99121  34.779  13.194  12.998
34137W        W99122  30.977  34.584   0.608
34138W        W99123  20.217  15.166  12.274
34139W        W99124  22.921  43.350  10.666
34140W        W99125   0.096   4.587   1.141
34141W        W99126  11.082  31.320   0.317
34142W        W99127  20.730  35.860  12.451
34143W        W99128   9.857   9.618  13.669
34144W        W99129  34.153   9.101   0.904
34145W        W99130   1.829  38.207   1.475
34146W        W99131  30.459  26.889   2.308
34147W        W99132  22.729   5.501   4.157
34148W        W99133  20.750  16.043  12.618
34149W        W99134  37.464  11.113   2.261
34150W        W99135  15.016  14.121  11.946
34151W        W99136   7.042  23.752   3.336
34152W        W99137  23.310  19.028  14.811
34153W        W99138  22.434   0.311   3.354
34154W        W99139  28.074  12.964  13.575
34155W        W99140  35.304  10.750   3.321
34156W        W99141  10.363  26.941   2.332
34157W        W99142  20.252  19.514   9.708
34158W        W99143  33.490  29.208  12.812
34159W        W99144  24.605   6.415   0.639
34160W        W99145  21.292  30.375   4.697
34161W        W99146  14.064  35.576  13.944
34162W        W99147  21.511  42.819  12.527
34163W        W99148  27.151  33.547   2.251
34164W        W99149  37.065  33.852  11.354
34165W        W99150  36.682  17.760   0.503
34166W        W99151   4.455  17.715  13.845
34167W        W99152  20.875  27.577  14.491
34168W        W99153  39.491  20.975  12.078
34169W        W99154  30.663  34.983  14.829
34170W        W99155  41.999   4.778   1.353
34171W        W99156  32.148  36.011   4.484
34172W        W99157  25.196  22.095   3.355
34173W        W99158  35.179  34.126  12.949
34174W        W99159  10.967  35.613   0.326
34175W        W99160  21.021  24.392  12.235
34176W        W99161   1.012  19.197  12.428
34177W        W99162  24.917  23.800   4.219
34178W        W99163   5.523  38.938  10.612
34179W        W99164   6.682  21.597  13.611
34180W        W99165  16.913   4.962  12.523
34181W        W99166  29.711  19.531   3.169
34182W        W99167   3.327   5.523   4.101
34183W        W99168   8.371   2.701   0.434
34184W        W99169  12.728  43.867  10.654
34185W        W99170  37.060   2.018   1.642
34186W        W99171  18.906   7.730  11.818
34187W        W99172  39.425  43.286   3.244
34188W        W99173  28.752   0.863   2.574
34189W        W99174  16.926  11.082  10.743
34190W        W99175  44.980  13.085   1.196
34191W        W99176  35.007  21.070   3.120
34192W        W99177  12.218  17.668  12.797
34193W        W99178  31.879  23.545   4.247
34194W        W99179   4.132  34.981   4.427
34195W        W99180  27.647  35.406   4.323
34196W        W99181  25.870  10.442  11.085
34197W        W99182  10.340  15.591  14.260
34198W        W99183  39.112  42.443  12.582
34199W        W99184  40.814  44.985   3.594
34200W        W99185  29.584  18.270  12.992
34201W        W99186  17.093   7.190   3.099
34202W        W99187  13.200   4.846  13.369
34203W        W99188  35.983  34.394   3.361
34204W        W99189  32.535  22.043  12.684
34205W        W99190   3.174  17.116   3.378
34206W        W99191  21.709   8.307   0.429
34207W        W99192  11.334  26.632   1.139
34208W        W99193  23.856  39.085   0.051
34209W        W99194   8.342   8.980  10.266
34210W        W99195  24.191  13.720  12.757
34211W        W99196  22.076  39.106   1.170
34212W        W99197  35.221  26.547  12.416
34213W        W99198   5.454  39.455   2.474
34214W        W99199  40.359  19.290  13.510
34215W        W99200  37.440  32.439   0.944
34216W        W99201  28.711   5.456   3.395
34217W        W99202  23.585   8.937  13.601
34218W        W99203  11.202  10.712   4.069
34219W        W99204   1.440  30.742  13.994
34220W        W99205  23.966  39.803  11.629
34221W        W99206  38.617   6.239   5.083
34222W        W99207   8.915   4.803   0.785
34223W        W99208  30.697  29.553  10.974
34224W        W99209  43.855  32.405  14.520
34225W        W99210  30.756  37.661   1.223
34226W        W99211  24.332  28.956   2.814
34227W        W99212   7.364  23.010  10.970
34228W        W99213  25.056  42.616   2.833
34229W        W99214  33.615  43.657  13.104
34230W        W99215   7.484   0.168  14.067
34231W        W99216  42.360   8.373   1.748
34232W        W99217   0.758  33.503  11.488
34233W        W99218  44.900  27.973   5.007
34234W        W99219  25.429  14.600  14.189
34235W        W99220   2.942  40.240  12.365
34236W        W99221  38.418  38.153  14.172
34237W        W99222  34.764   7.659  13.751
34238W        W99223  37.536  33.164   2.373
34239W        W99224   4.444   9.264  12.589
34240W        W99225  29.569  21.805   0.714
34241W        W99226  15.324  40.601  13.990
34242W        W99227   9.252  29.754  11.648
34243W        W99228   5.620  18.206   3.304
34244W        W99229   6.954  12.587  14.077
34245W        W99230  31.046  22.159  14.839
34246W        W99231   9.708   6.088   2.782
34247W        W99232  19.155  29.481   1.317
34248W        W99233  18.112  30.554  14.797
34249W        W99234  24.623  31.866   1.811
34250W        W99235  39.685   7.549  10.755
34251W        W99236  44.768  20.180   2.691
34252W        W99237  33.501  37.397  14.621
34253W        W99238  38.515  39.978  14.136
34254W        W99239   3.355  23.030  12.710
34255W        W99240  41.664  43.061   4.634
34256W        W99241  10.577   7.129  14.370
34257W        W99242  29.532   9.312  14.714
34258W        W99243  44.821  31.080  14.805
34259W        W99244  39.694  32.007   4.454
34260W        W99245  15.824  11.116  12.451
34261W        W99246  26.634   0.046   5.540
34262W        W99247  42.524   0.040   0.010
34263W        W99248  31.642  33.528   1.195
34264W        W99249  23.980  30.341   2.651
34265W        W99250  11.014   6.934   3.709
34266W        W99251   7.908  43.887   4.741
34267W        W99252   0.977   4.466  13.865
34268W        W99253  21.794  14.650  12.853
34269W        W99254  29.683  44.097   4.098
34270W        W99255   4.949  38.376  14.334
34271W        W99256  38.998  32.915  12.400
34272W        W99257  32.069  31.300   4.593
34273W        W99258  14.618  38.444  12.207
34274W        W99259  16.852  30.744   2.368
34275W        W99260  28.937  14.155  11.556
34276W        W99261  42.678  28.511   3.800
34277W        W99262  11.329   0.143   3.200
34278W        W99263  11.242  38.392  11.537
34279W        W99264  40.428  32.798  10.255
34280W        W99265   8.155  37.463   0.765
34281W        W99266  20.750  19.720   2.384
34282W        W99267   2.802   2.375  11.741
34283W        W99268   2.349   9.129  14.933
34284W        W99269  39.361  26.834  11.918
34285W        W99270   6.920  42.267  10.394
34286W        W99271  13.714  26.552  10.662
34287W        W99272  27.750  18.016   1.764
34288W        W99273   7.426  19.305   0.873
34289W        W99274   6.164  23.693  10.299
34290W        W99275  14.748  42.049  12.918
34291W        W99276  20.619   8.782   4.582
34292W        W99277  44.867  42.596  13.784
34293W        W99278  17.974  43.528  11.522
34294W        W99279  14.645  15.309  11.120
34295W        W99280  20.041  14.011   0.380
34296W        W99281  37.234  33.595  10.711
34297W        W99282  11.052   6.482  13.126
34298W        W99283  33.474  33.800   4.018
34299W        W99284   1.716  40.897   4.227
34300W        W99285  28.538  31.725  12.023
34301W        W99286  13.066  37.021  13.922
34302W        W99287  23.163  27.565   3.516
34303W        W99288   3.067  41.364   9.902
34304W        W99289   4.047   2.933   2.695
34305W        W99290  14.146  37.987  11.132
34306W        W99291  12.867  13.454  14.140
34307W        W99292  37.843   9.464   2.684
34308W        W99293   8.605  37.180  12.084
34309W        W99294  18.798   0.045   2.257
34310W        W99295  22.704  34.053   0.050
34311W        W99296   6.221  38.831  13.067
34312W        W99297   0.405  34.611   2.962
34313W        W99298  24.734  19.362  14.724
34314W        W99299  39.942  29.364   2.990
34315W        W99300  35.067  19.755  13.395
34316W        W99301   6.836  33.677  13.386
34317W        W99302  28.423   9.673  11.923
34318W        W99303   6.801  40.610   4.685
34319W        W99304  31.222  32.751   4.059
34320W        W99305   0.828  17.068   3.842
34321W        W99306  30.589  29.438  13.993
34322W        W99307  32.427  36.954  11.480
34323W        W99308  15.775  16.014   4.645
34324W        W99309  22.735  34.595  10.506
34325W        W99310  36.489   6.942   4.448
34326W        W99311  17.627  13.412   3.639
34327W        W99312  15.406  23.183   2.302
34328W        W99313  18.243  37.991  13.907
34329W        W99314  23.190   7.355   1.180
34330W        W99315  14.742   1.665  10.300
34331W        W99316   1.888  21.178   3.556
34332W        W99317  40.859  35.038   0.885
34333W        W99318   2.729  43.764  10.552
34334W        W99319  11.365  12.701  10.696
34335W        W99320  40.268  25.294   2.752
34336W        W99321  37.996  28.547  14.478
34337W        W99322  27.982  16.326  14.398
34338W        W99323  42.771  13.768   3.778
34339W        W99324  10.979  37.027   2.753
34340W        W99325  19.382   8.722  10.691
34341W        W99326   3.955   4.861  13.702
34342W        W99327  12.857  41.257  12.413
34343W        W99328  44.449  16.722  11.790
34344W        W99329  40.933  33.861  13.252
34345W        W99330  13.303  44.383   5.110
34346W        W99331  26.572  14.962  12.084
34347W        W99332  34.108  30.084   4.091
34348W        W99333  12.745  43.844   3.898
34349W        W99334   3.380  14.203  13.383
34350W        W99335  15.813   0.298   1.452
34351W        W99336  22.511  38.778   1.211
34352W        W99337  30.083  23.045   2.056
34353W        W99338  43.773  20.300   1.710
34354W        W99339  40.474   5.470  12.111
34355W        W99340   4.849  11.758  13.616
34356W        W99341  15.472   1.374   2.730
34357W        W99342  21.266  17.091  14.140
34358W        W99343  38.975  11.839  12.053
34359W        W99344  44.318  20.089  11.747
34360W        W99345  23.480   9.710  11.648
34361W        W99346   9.750   5.435   4.413
34362W        W99347   0.381  27.185  10.066
34363W        W99348  43.122   1.915   0.541
34364W        W99349  39.356   5.198  13.929
34365W        W99350  40.810  42.892  14.500
34366W        W99351  34.179  31.369   4.913
34367W        W99352  39.431  21.277   0.613
34368W        W99353  15.301  39.300   2.194
34369W        W99354  10.385  28.587  13.948
34370W        W99355   8.676  33.092  12.165
34371W        W99356  20.966  10.227  10.404
34372W        W99357  26.477  36.022   4.178
34373W        W99358  14.729  43.547  14.627
34374W        W99359   8.789   2.295  12.476
34375W        W99360  40.977   3.038   3.617
34376W        W99361  12.625   4.677   3.590
34377W        W99362   5.990  23.601   1.009
34378W        W99363  37.605  24.230   3.917
34379W        W99364   1.619  28.921  14.735
34380W        W99365  20.163   9.890   3.304
34381W        W99366  44.426  14.732  10.755
34382W        W99367  36.114  26.546  14.608
34383W        W99368  27.579   0.259   0.755
34384W        W99369  22.977   5.267   2.512
34385W        W99370  15.062  18.658   0.030
34386W        W99371  16.246  37.532   1.456
34387W        W99372  38.885  24.086   2.225
34388W        W99373   6.017   3.482   1.438
34389W        W99374  31.096  37.074  12.967
34390W        W99375   6.139  28.465  11.152
34391W        W99376   5.249  42.282   0.581
34392W        W99377   4.620  41.450   1.955
34393W        W99378   4.859  31.698   2.924
34394W        W99379  23.608  35.071  10.796
34395W        W99380  43.065  26.217  12.701
34396W        W99381  18.187  28.005   2.508
34397W        W99382  13.271  21.273  12.584
34398W        W99383  35.952  13.111   3.236
34399W        W99384  41.495  36.949   1.823
34400W        W99385  36.056  28.514  14.804
34401W        W99386  10.813  28.159  14.525
34402W        W99387   1.506  31.792   3.684
34403W        W99388   9.732  37.306  14.907
34404W        W99389   5.411  38.525   3.556
34405W        W99390  33.635   8.717  12.647
34406W        W99391  44.449   3.761  10.981
34407W        W99392  23.502  43.743  13.938
34408W        W99393  11.868  42.003   0.503
34409W        W99394  22.088   0.664  11.263
34410W        W99395  28.240  11.823  12.617
34411W        W99396  30.025  16.324  13.485
34412W        W99397   2.503  28.956  13.087
34413W        W99398  38.433   3.723  13.918
34414W        W99399  29.472  34.898   1.804
34415W        W99400  14.846  15.188   4.691
34416W        W99401  44.018  34.560   2.370
34417W        W99402  17.644  34.148  12.352
34418W        W99403  20.505  15.222   4.076
34419W        W99404  21.951  36.347   0.709
34420W        W99405   0.830  23.782  13.865
34421W        W99406   9.303  24.574   3.613
34422W        W99407  33.012  33.645  14.865
34423W        W99408  33.954  41.551  10.725
34424W        W99409  29.879   3.743   4.297
34425W        W99410  29.539  25.860  12.045
34426W        W99411  12.308  14.263   4.622
34427W        W99412  44.520  42.798  11.408
34428W        W99413   8.298  20.973  10.986
34429W        W99414  25.012  27.999   3.690
34430W        W99415  19.639   4.779   0.259
34431W        W99416  44.972  12.555   0.387
34432W        W99417  30.900  41.552   4.481
34433W        W99418  21.723  39.438   1.403
34434W        W99419   9.429  33.340  13.857
34435W        W99420  29.967  11.645  14.818
34436W        W99421  22.124   1.836  10.499
34437W        W99422  25.737  27.682   1.176
34438W        W99423  34.882   0.852  14.892
34439W        W99424   5.384  11.989  10.522
34440W        W99425  40.290  15.104  13.122
34441W        W99426  10.272  44.195  13.343
34442W        W99427  12.297  19.670   3.270
34443W        W99428  40.227  20.841   4.047
34444W        W99429  16.339   0.449  11.172
34445W        W99430  32.064  24.150  12.887
34446W        W99431  42.659  36.105  12.130
34447W        W99432  25.472  22.712  13.822
34448W        W99433   1.823  16.113   4.571
34449W        W99434  38.987  15.735  14.523
34450W        W99435  39.523  27.407   0.377
34451W        W99436  35.513  31.941   1.297
34452W        W99437  29.092  18.148  12.906
34453W        W99438   6.765   9.166   2.447
34454W        W99439  43.939  17.146   0.738
34455W        W99440  15.680   2.642   0.853
34456W        W99441   2.863  29.967   1.774
34457W        W99442   1.036  41.900  13.385
34458W        W99443  33.905  22.041   2.593
34459W        W99444  23.658  11.532   2.093
34460W        W99445  11.193   9.340   4.113
34461W        W99446   1.884   0.793   3.158
34462W        W99447  30.079  31.822  12.061
34463W        W99448  13.477  20.520   2.492
34464W        W99449  39.103  28.609  11.529
34465W        W99450   7.359  38.061  11.993
34466W        W99451   6.460  10.077  14.456
34467W        W99452  40.314  36.692   5.003
34468W        W99453  30.623   1.010   0.887
34469W        W99454   3.452  35.688  13.862
34470W        W99455  32.989  19.064   1.761
34471W        W99456  15.085  19.076  10.739
34472W        W99457  17.604  44.846  13.401
34473W        W99458   7.700   4.643  14.094
34474W        W99459  34.965   3.485  11.038
34475W        W99460  10.616  42.171   1.705
34476W        W99461  23.466  10.548   2.368
34477W        W99462   9.228  31.711  11.750
34478W        W99463   3.462  31.410  14.837
34479W        W99464   4.721  32.909   3.246
34480W        W99465  38.027  26.172  14.917
34481W        W99466  24.100  33.504   0.588
34482W        W99467   1.645   8.289   1.959
34483W        W99468  26.948  23.068   0.312
34484W        W99469   8.695  19.756  12.559
34485W        W99470  26.210  44.074   9.906
34486W        W99471  36.106   9.668   3.235
34487W        W99472  21.959  33.277   3.307
34488W        W99473  36.929  38.590  11.088
34489W        W99474  25.938   5.923  11.336
34490W        W99475   6.833  36.370  13.153
34491W        W99476   5.005  10.468   0.801
34492W        W99477  24.701  43.495  13.351
34493W        W99478  30.565  29.063   4.685
34494W        W99479  16.546  21.476  10.838
34495W        W99480  44.415   3.681  11.520
34496W        W99481   4.840  15.366  13.304
34497W        W99482   0.886   3.541  12.206
34498W        W99483  39.584   7.672   3.531
34499W        W99484  18.202   9.715   4.876
34500W        W99485  38.086  12.669  12.744
34501W        W99486   3.725  22.302  12.083
34502W        W99487  20.985  34.533   2.883
34503W        W99488  30.464  23.094   3.340
34504W        W99489   2.501   8.531  11.899
34505W        W99490   2.843  41.444   2.859
34506W        W99491  35.952  21.739  14.762
34507W        W99492  41.244  31.205   0.018
34508W        W99493  36.750  23.662  14.416
34509W        W99494  22.502   6.209   4.676
34510W        W99495  38.330  16.705   0.868
34511W        W99496  16.121  10.791  11.975
34512W        W99497  32.170  41.493  11.253
34513W        W99498  24.775  20.882  11.384
34514W        W99499   3.713  37.383  12.609
34515W        W99500  41.046  41.384   0.751
34516W        W99501  33.194  22.973   2.371
34517W        W99502  38.870  17.101   3.672
34518W        W99503  41.861  44.819  14.432
34519W        W99504  40.257   6.397  12.911
34520W        W99505  39.356  11.288   2.867
34521W        W99506  12.277  11.744   2.318
34522W        W99507  26.222  42.935  14.265
34523W        W99508  17.104   9.096  14.352
34524W        W99509  29.432  26.713   3.675
34525W        W99510  21.046   3.633   9.863
34526W        W99511  19.221  15.626   1.719
34527W        W99512  17.378   1.415   1.504
34528W        W99513  16.636  34.447   1.167
34529W        W99514  22.339  20.225  10.101
34530W        W99515  20.788  40.407  11.021
34531W        W99516  20.698  18.947  12.938
34532W        W99517  31.132  18.527   0.911
34533W        W99518  20.040  42.219   1.258
34534W        W99519  11.100  38.459  14.036
34535W        W99520  20.518  23.330  11.688
34536W        W99521  30.904   8.471  13.622
34537W        W99522  20.826  25.255  12.474
34538W        W99523  44.528  14.322   3.613
34539W        W99524  30.079  13.146  13.873
34540W        W99525   0.764  12.693  14.941
34541W        W99526  33.451   8.131   3.157
34542W        W99527  12.466  17.210   3.878
34543W        W99528  16.766  28.239   0.329
34544W        W99529   6.175  10.726   1.362
34545W        W99530   2.984   4.970  12.495
34546W        W99531   7.891  41.391   5.098
34547W        W99532  34.875  36.340  10.462
34548W        W99533  25.520  28.198  12.000
34549W        W99534  36.894  33.185  14.928
34550W        W99535  44.729   0.226   2.463
34551W        W99536  44.536  21.652   0.505
34552W        W99537  36.961  42.620  12.539
34553W        W99538  34.556  14.577   1.717
34554W        W99539  32.112  11.707   3.232
34555W        W99540  12.054  25.247  11.220
34556W        W99541  33.435  42.350   0.089
34557W        W99542  25.543  37.537   3.239
34558W        W99543   7.448  42.212   2.010
34559W        W99544  31.483   0.103  11.681
34560W        W99545  16.056  27.445   1.387
34561W        W99546  10.391   6.742  13.376
34562W        W99547   9.405  43.899  11.566
34563W        W99548  32.944  27.149   2.583
34564W        W99549  26.933   4.242  11.592
34565W        W99550  18.480  32.295  11.386
34566W        W99551  26.124  11.834   4.134
34567W        W99552  27.353  39.405  10.521
34568W        W99553   1.311  23.267   3.519
34569W        W99554  40.994  20.512   1.495
34570W        W99555  44.334  14.161   5.001
34571W        W99556  42.630   7.316  10.274
34572W        W99557  41.909  11.221   3.200
34573W        W99558  18.102  28.634  11.186
34574W        W99559   0.190  41.551   2.421
34575W        W99560  14.712  15.002  13.393
34576W        W99561  43.931   8.324  11.202
34577W        W99562   7.929   0.744  14.052
34578W        W99563  10.904  31.419  14.438
34579W        W99564  24.042  25.704   0.853
34580W        W99565  18.312  18.343   1.698
34581W        W99566  33.541  38.416  12.042
34582W        W99567  19.501  41.932  14.399
34583W        W99568  14.347  42.585  11.079
34584W        W99569   0.825  43.265  10.391
34585W        W99570  13.769  21.592   0.909
34586W        W99571   3.441   2.749  12.505
34587W        W99572  41.115   4.418  12.444
34588W        W99573   3.794  42.512  10.886
34589W        W99574  14.559  39.774  14.843
34590W        W99575  29.027  43.352   0.881
34591W        W99576  21.615  43.973   0.987
34592W        W99577  19.056  33.538  10.677
34593W        W99578  31.528   8.569   9.956
34594W        W99579  21.242  23.250  14.435
34595W        W99580  34.130  37.851  14.970
34596W        W99581   8.507  25.241  13.945
34597W        W99582  12.618  33.449  14.551
34598W        W99583  26.325  42.851   4.702
34599W        W99584   7.306  30.551  14.817
34600W        W99585   4.457  32.547   2.881
34601W        W99586  14.615  41.102  13.361
34602W        W99587  33.915  14.026   3.808
34603W        W99588   4.771  34.336  13.229
34604W        W99589  10.855   4.138   3.012
34605W        W99590  19.169   8.412   1.368
34606W        W99591  37.906  35.976  13.328
34607W        W99592  31.135  12.861  13.134
34608W        W99593  30.627  24.212   1.677
34609W        W99594  43.797  11.716  12.076
34610W        W99595  32.566  33.318   1.499
34611W        W99596  13.194  17.737  12.649
34612W        W99597  13.097   9.381   0.783
34613W        W99598  27.517  31.155   1.779
34614W        W99599  33.194   3.840  14.747
34615W        W99600  14.370   3.229   4.032
34616W        W99601  22.691   0.501   0.309
34617W        W99602   4.220  24.961  10.647
34618W        W99603   8.429  20.545   2.799
34619W        W99604   9.255  34.076   0.333
34620W        W99605   6.611  25.150   1.788
34621W        W99606  42.018  24.948   0.143
34622W        W99607   9.529   3.474  14.052
34623W        W99608  33.222  38.103   4.394
34624W        W99609  34.621  34.068   4.885
34625W        W99610   8.753  26.156   4.140
34626W        W99611  22.187  17.228   1.926
34627W        W99612  13.651  22.650  13.034
34628W        W99613  29.788  17.221   2.684
34629W        W99614  13.731  43.281   0.799
34630W        W99615  42.948  39.853   1.394
34631W        W99616   6.968  27.159  11.986
34632W        W99617   6.724   3.890  11.616
34633W        W99618  34.944  29.389   3.302
34634W        W99619   0.496   7.298  14.007
34635W        W99620   0.489  12.613   3.647
34636W        W99621  16.178   0.540   0.404
34637W        W99622  15.834  38.896   0.839
34638W        W99623  42.412  12.681   3.051
34639W        W99624  35.989  27.316  12.571
34640W        W99625  11.164  19.861  11.609
34641W        W99626  19.731  24.962   2.238
34642W        W99627  21.065  44.262   1.236
34643W        W99628  24.171  12.537  11.195
34644W        W99629  16.575  15.212   2.607
34645W        W99630  32.062  19.842  12.017
34646W        W99631  22.584  28.661  11.584
34647W        W99632  44.749  44.604  11.605
34648W        W99633   5.374  33.621  13.281
34649W        W99634  43.066  15.582   1.041
34650W        W99635  36.795  19.730   2.955
34651W        W99636  10.404  37.174  14.248
34652W        W99637  40.102   3.145  12.066
34653W        W99638   7.188  18.525   0.715
34654W        W99639  23.235  14.875   1.386
34655W        W99640  44.286  38.461   2.233
34656W        W99641   2.312  36.567   4.726
34657W        W99642   1.859  38.328  12.404
34658W        W99643   0.337  33.021  11.206
34659W        W99644   7.503  12.479   4.484
34660W        W99645  17.930  11.589  12.039
34661W        W99646  22.793  18.617  14.875
34662W        W99647  35.919  43.223   0.847
34663W        W99648  17.683  25.400  13.890
34664W        W99649  26.471   8.339   3.673
34665W        W99650  14.778  37.812   3.526
34666W        W99651  25.416  43.004  12.861
34667W        W99652  21.702  38.359   0.871
34668W        W99653  18.719  42.653   2.466
34669W        W99654   9.418  36.519   2.312
34670W        W99655  39.982  31.135   3.266
34671W        W99656  17.294  37.037   3.185
34672W        W99657  16.225  35.583   3.287
34673W        W99658  13.559   7.835   0.057
34674W        W99659  24.474   7.996   1.210
34675W        W99660  36.559  42.981   1.327
34676W        W99661  13.405  22.583   1.793
34677W        W99662   3.114  18.314  13.108
34678W        W99663   1.830   2.323   3.917
34679W        W99664  34.080  43.982   0.529
34680W        W99665   3.359  26.501   2.435
34681W        W99666  16.330  41.420  11.640
34682W        W99667  33.047  14.220   4.090
34683W        W99668  14.384  26.456   1.035
34684W        W99669  19.487   8.333   3.334
34685W        W99670  23.761  10.605  12.661
34686W        W99671  10.082   3.850  11.470
34687W        W99672  44.417  20.078   0.764
34688W        W99673   9.187  43.384   5.108
34689W        W99674  21.158  28.649  12.497
34690W        W99675  26.058  23.215  13.802
34691W        W99676  14.809  22.074  10.638
34692W        W99677  21.217   8.927  10.855
34693W        W99678  31.555  17.950  12.914
34694W        W99679  30.699  33.923  11.613
34695W        W99680   4.213   7.462  14.430
34696W        W99681  21.234  23.457   1.838
34697W        W99682  40.567  42.945  13.581
34698W        W99683   3.607  16.024   2.632
34699W        W99684  42.129  41.812  12.191
34700W        W99685  18.852   7.715   0.880
34701W        W99686   1.446  20.086  13.294
34702W        W99687  39.466  43.386  12.569
34703W        W99688  22.108  37.506  13.706
34704W        W99689  35.787  37.386  12.534
34705W        W99690  37.526  24.495   3.118
34706W        W99691  29.951  32.306  12.078
34707W        W99692   3.469  37.026  11.850
34708W        W99693   6.273  19.378  11.739
34709W        W99694   6.838  43.399  11.905
34710W        W99695  39.529  40.004   4.127
34711W        W99696  42.051  40.667  13.935
34712W        W99697   5.294  14.523  10.704
34713W        W99698   0.495   8.921  12.446
34714W        W99699  36.488   4.762   4.147
34715W        W99700   5.291  41.491   2.644
34716W        W99701  39.826  20.141  12.935
34717W        W99702  15.702  23.097  10.631
34718W        W99703   9.947  32.866   1.461
34719W        W99704   1.427  16.334   4.303
34720W        W99705  37.868  27.118   3.198
34721W        W99706  30.115  19.100   0.456
34722W        W99707  23.191  15.649  13.456
34723W        W99708   7.719  23.939  12.603
34724W        W99709   2.288  10.212  10.887
34725W        W99710   7.314   6.271   3.138
34726W        W99711  32.901  10.372  13.446
34727W        W99712   3.701   8.331  12.765
34728W        W99713  21.892  18.702   0.767
34729W        W99714   7.194  42.935  11.990
34730W        W99715  36.946  20.462   1.214
34731W        W99716  39.807  29.502   2.499
34732W        W99717  40.753   4.738   1.910
34733W        W99718   9.125  13.093   0.881
34734W        W99719   3.059  29.092  14.357
34735W        W99720  38.538  16.105  10.674
34736W        W99721  32.377  28.755   2.619
34737W        W99722  29.203  17.587  11.507
34738W        W99723  38.821  15.021   1.216
34739W        W99724  20.464   2.336   3.285
34740W        W99725  25.975  35.300  13.130
34741W        W99726  23.364  19.649  11.084
34742W        W99727  11.984  10.849  12.434
34743W        W99728   5.340  15.421  12.428
34744W        W99729  42.998  24.188   2.632
34745W        W99730   1.966  25.655   1.277
34746W        W99731  38.965  11.755   4.766
34747W        W99732  44.536   0.051  10.686
34748W        W99733  25.913  32.499  12.072
34749W        W99734  20.411  16.770   2.906
34750W        W99735  30.163  28.728  12.563
34751W        W99736  43.724  40.513  13.339
34752W        W99737  23.750   8.296   1.892
34753W        W99738   9.321  33.418   0.458
34754W        W99739  43.368   1.029   2.788
34755W        W99740  16.089  28.157   2.538
34756W        W99741  14.113  44.472  11.513
34757W        W99742  14.723  41.680  12.084
34758W        W99743   0.979  17.553   4.372
34759W        W99744  44.274  36.590   0.788
34760W        W99745   2.916  41.456   0.722
34761W        W99746   9.270  38.374  12.140
34762W        W99747   2.485  24.532   3.737
34763W        W99748  38.469  32.652  11.936
34764W        W99749  29.913  32.671   3.180
34765W        W99750  17.311  41.389  14.879
34766W        W99751  19.203  29.498   0.372
34767W        W99752  25.931   6.403  10.651
34768W        W99753  26.789  42.935  12.542
34769W        W99754  29.638  30.652  12.900
34770W        W99755  43.641  29.158  11.069
34771W        W99756  23.271  29.505   2.769
34772W        W99757  22.533  32.539  12.410
34773W        W99758  28.104  15.123  14.924
34774W        W99759  16.457  41.974   0.593
34775W        W99760  19.065  44.703   2.517
34776W        W99761  20.728  32.910  12.631
34777W        W99762  41.560  15.272   1.166
34778W        W99763  43.272  10.537   0.049
34779W        W99764  36.084  35.855  10.718
34780W        W99765  20.250  13.801  12.980
34781W        W99766  21.526   2.696  13.008
34782W        W99767  36.126  17.077  12.418
34783W        W99768  36.129  26.452   1.220
34784W        W99769  33.522  13.208  13.513
34785W        W99770  27.910   1.520  11.996
34786W        W99771  13.765  19.548  14.410
34787W        W99772  23.237  35.865  12.192
34788W        W99773   7.946  37.101   2.645
34789W        W99774   8.379  18.460   3.666
34790W        W99775  20.110  42.773  10.765
34791W        W99776  28.705   2.683  14.785
34792W        W99777  18.356  26.972  14.395
34793W        W99778  21.229  30.825   1.850
34794W        W99779  11.655   8.825  12.418
34795W        W99780  36.806  40.742   2.664
34796W        W99781   9.585  36.191  12.436
34797W        W99782  18.174  31.505  10.343
34798W        W99783   1.408  42.193   3.669
34799W        W99784  41.010  30.601   1.014
34800W        W99785  29.523  33.929  14.662
34801W        W99786  43.515  44.218  13.112
34802W        W99787   9.249   6.115   1.273
34803W        W99788  20.305  37.912  14.965
34804W        W99789  36.580  13.848  14.937
34805W        W99790  32.342  36.086   4.962
34806W        W99791  44.193   2.223   2.800
34807W        W99792  21.266  44.308   4.595
34808W        W99793   0.337  13.637   3.730
34809W        W99794   3.322  15.109   4.883
34810W        W99795  40.307  39.841  13.000
34811W        W99796  15.146  37.228   4.590
34812W        W99797  44.373   0.319  11.239
34813W        W99798   2.339  17.487  12.573
34814W        W99799  35.375  34.919   4.493
34815W        W99800  27.018  31.163  14.442
34816W        W99801  41.386  19.652  14.716
34817W        W99802  24.777  44.950   0.846
34818W        W99803  33.430  21.072  11.593
34819W        W99804  34.416   7.610   1.161
34820W        W99805   7.856  11.973  12.860
34821W        W99806  23.257  35.536   0.814
34822W        W99807  11.279  38.011  10.658
34823W        W99808  32.328   6.619   2.231
34824W        W99809  16.976  21.565   0.746
34825W        W99810  38.525  39.346   4.256
34826W        W99811  30.902   1.767  14.845
34827W        W99812   9.412   2.158  13.822
34828W        W99813   2.413  10.181   2.861
34829W        W99814   4.878  33.267   4.138
34830W        W99815  13.637  15.095  12.610
34831W        W99816  14.955   8.411   1.827
34832W        W99817  27.808  27.095   1.725
34833W        W99818   7.784  26.111   2.845
34834W        W99819  42.126   6.138   1.726
34835W        W99820  26.092  42.350  12.891
34836W        W99821   9.349  44.500   0.278
34837W        W99822  37.470  41.230   1.162
34838W        W99823  17.231  42.352  11.178
34839W        W99824  20.997   3.134   0.608
34840W        W99825  31.824  27.747  10.586
34841W        W99826   0.749   7.727  13.850
34842W        W99827  23.652  11.240  10.560
34843W        W99828  23.609  22.674  11.980
34844W        W99829   6.893   3.969  12.124
34845W        W99830  14.261  35.481   3.182
34846W        W99831   5.805   7.195  14.010
34847W        W99832  17.671  10.602  11.912
34848W        W99833   7.158  10.635  12.280
34849W        W99834  36.835  30.945  14.465
34850W        W99835  33.122  34.450   1.372
34851W        W99836  28.156  42.397  12.568
34852W        W99837  41.588  33.653  11.983
34853W        W99838  22.738   9.732   4.558
34854W        W99839  19.294  28.876  10.675
34855W        W99840  33.182   0.516  13.697
34856W        W99841   6.637  31.149  13.258
34857W        W99842  39.285  27.925   2.146
34858W        W99843  12.507  34.161   3.705
34859W        W99844  20.306  18.241   4.064
34860W        W99845  32.493   2.180   0.506
34861W        W99846  33.173  34.128  11.792
34862W        W99847  13.398  41.530   4.603
34863W        W99848  15.674   3.999  14.877
34864W        W99849   9.541  19.801  10.733
34865W        W99850   9.604  31.071  10.714
34866W        W99851   8.584  41.242  12.915
34867W        W99852  32.294  12.709   1.239
34868W        W99853   7.346  31.415  13.019
34869W        W99854   7.467  39.381   4.176
34870W        W99855  23.150  13.533   3.939
34871W        W99856  16.268  40.545  11.209
34872W        W99857  30.005  35.032   2.019
34873W        W99858  20.579   7.034  13.636
34874W        W99859   2.741  43.020  13.001
34875W        W99860   3.951  30.128   3.249
34876W        W99861   5.718  25.120  11.438
34877W        W99862  30.418  31.024   0.263
34878W        W99863  14.182  29.010   0.404
34879W        W99864   1.556  15.805  11.942
34880W        W99865  26.698  32.977  12.058
34881W        W99866  36.956  19.451   3.346
34882W        W99867   4.450  15.356  12.898
34883W        W99868   4.269  26.780  12.163
34884W        W99869  21.074  14.460   4.100
34885W        W99870  36.286   1.891   4.863
34886W        W99871  27.502  17.332   4.498
34887W        W99872  18.701  29.374   0.240
34888W        W99873  14.237  12.191   1.710
34889W        W99874   6.106  35.651  12.915
34890W        W99875  34.891   4.135   2.630
34891W        W99876   4.805   4.904  10.743
34892W        W99877   7.179  29.556  12.022
34893W        W99878  36.219  10.214  13.650
34894W        W99879  38.185  38.809  11.545
34895W        W99880  44.259  22.755   1.934
34896W        W99881  38.455   1.479  12.359
34897W        W99882  16.804  30.246  13.448
34898W        W99883   0.899   3.650  11.071
34899W        W99884   7.753  16.732  13.940
34900W        W99885  44.697   9.156   3.284
34901W        W99886  17.686  26.373   3.984
34902W        W99887   2.894  14.785  10.699
34903W        W99888  40.634   0.371   0.710
34904W        W99889   7.778  10.081  13.512
34905W        W99890  17.783  17.312   3.922
34906W        W99891  40.405  20.705  12.808
34907W        W99892  26.452  40.999  11.226
34908W        W99893  41.364  38.286   4.571
34909W        W99894  40.158  18.740   4.004
34910W        W99895  13.620  20.708  12.997
34911W        W99896  38.234  41.830  11.582
34912W        W99897  31.003   7.698   3.870
34913W        W99898  39.663  12.714   4.207
34914W        W99899  43.806  39.305   0.242
34915W        W99900  33.443  16.101  14.968
34916W        W99901  40.461   3.325  11.167
34917W        W99902   2.788  23.820   3.258
34918W        W99903  24.598  10.876  14.917
34919W        W99904  31.363   7.238  14.059
34920W        W99905   8.996  14.266  11.409
34921W        W99906  14.813  18.136  11.658
34922W        W99907   9.308  37.563   2.336
34923W        W99908  29.558  44.712   3.225
34924W        W99909  39.276  17.206   5.165
34925W        W99910  35.670  22.735   2.389
34926W        W99911  41.912  38.831   0.756
34927W        W99912  18.837  39.034  12.559
34928W        W99913   4.408  39.294  11.119
34929W        W99914  35.094  31.584   1.888
34930W        W99915  21.447  39.143  13.957
34931W        W99916  13.855  22.462   3.942
34932W        W99917  39.825  16.127  14.370
34933W        W99918  28.541  41.403   0.732
34934W        W99919  38.945  34.791   9.839
34935W        W99920  44.210   2.774  11.935
34936W        W99921  33.976  27.097  13.158
34937W        W99922  14.293  15.079   2.316
34938W        W99923  33.593  26.137   2.914
34939W        W99924  31.154   4.461   0.916
34940W        W99925  29.431  10.859  13.999
34941W        W99926  44.709   8.931  14.753
34942W        W99927  33.915   1.829   0.947
34943W        W99928  16.181  12.810   0.527
34944W        W99929   6.546   8.812  13.745
34945W        W99930  30.197  34.818  12.049
34946W        W99931  36.425   6.401  12.494
34947W        W99932   7.245  41.203  13.680
34948W        W99933  43.315  13.894   1.269
34949W        W99934  14.708   7.411   0.852
34950W        W99935  43.521  24.917   4.536
34951W        W99936   4.784  28.477  13.897
34952W        W99937  13.692  41.896  11.937
34953W        W99938  22.993  28.689  14.755
34954W        W99939  14.565  17.131   4.089
34955W        W99940  36.053  37.634   4.947
34956W        W99941  43.079  43.301   4.976
34957W        W99942  44.002  15.108   1.277
34958W        W99943  40.397   8.293   3.606
34959W        W99944  26.257  43.115   2.528
34960W        W99945  43.828   4.432  11.143
34961W        W99946  19.648  10.797   0.061
34962W        W99947   2.206   1.810  10.742
34963W        W99948  38.323  40.329  11.778
34964W        W99949  16.927   9.248   0.910
34965W        W99950  32.164  18.599  11.201
34966W        W99951  23.392  28.632   4.836
34967W        W99952  17.029  13.828   1.408
34968W        W99953  11.399  14.674   1.302
34969W        W99954   6.718  28.257  14.528
34970W        W99955   5.393  43.046  11.102
34971W        W99956  22.784  40.034   2.291
34972W        W99957   8.440  25.907  12.883
34973W        W99958  44.542  14.750   4.453
34974W        W99959  10.857  24.564  13.135
34975W        W99960  10.867  16.652   3.713
34976W        W99961  12.399  31.062  10.670
34977W        W99962  35.607  36.000  14.051
34978W        W99963  27.009   7.470   3.764
34979W        W99964   9.359   5.113  11.226
34980W        W99965  31.800  40.421   4.091
34981W        W99966  30.426  18.621  10.651
34982W        W99967  37.373  41.232  12.484
34983W        W99968  18.022  42.904  12.885
34984W        W99969  39.470  32.822  13.401
34985W        W99970  38.979   9.809  11.426
34986W        W99971  42.502   6.575   3.741
34987W        W99972  37.293   6.541   4.723
34988W        W99973  43.246  20.929   2.177
34989W        W99974  31.643  37.292   2.336
34990W        W99975  18.564   7.284   0.730
34991W        W99976  40.001  21.564   0.870
34992W        W99977  33.127  41.061  13.905
34993W        W99978  26.686  30.122   0.368
34994W        W99979  24.147  38.815   4.407
34995W        W99980  26.977  41.987  11.627
34996W        W99981  43.780  10.814   0.354
34997W        W99982  18.850  33.026   1.948
34998W        W99983  10.838   4.733  12.296
34999W        W99984  14.180  42.820   0.241
35000W        W99985  19.724  28.148   0.361
35001W        W99986  32.100   3.764  14.831
35002W        W99987  43.013  23.188  13.976
35003W        W99988  11.856  19.051   0.766
35004W        W99989  20.116  33.505  14.502
35005W        W99990   1.454  25.045   4.395
35006W        W99991   9.794  13.423  12.066
35007W        W99992  16.214  15.319   1.834
35008W        W99993  26.538  11.905   4.829
35009W        W99994  36.902  13.130  14.346
35010W        W99995  32.899   0.289  11.590
35011W        W99996  36.775   9.974   3.622
35012W        W99997  19.169  33.921  13.448
35013W        W99998  43.588  32.873   1.845
35014W        W99999  28.545  22.881  13.140
35015W        W    0  29.529  32.092  13.768
35016W        W    1  15.662  13.716  14.800
35017W        W    2  32.106  23.282   0.609
35018W        W    3  32.832  25.060   4.798
35019W        W    4   1.376   6.773  13.084
35020W        W    5   2.920  36.084   4.169
35021W        W    6  12.211  11.635  14.371
35022W        W    7  31.034   8.802  10.747
35023W        W    8  38.135   5.257  10.584
35024W        W    9   0.329  22.764  10.724
35025W        W   10  29.027  21.729   4.545
35026W        W   11  40.824  19.511  13.387
35027W        W   12  21.094   2.290   0.301
35028W        W   13  34.008  38.555  12.219
35029W        W   14   0.594  17.769   3.657
35030W        W   15  11.631  29.297   4.181
35031W        W   16  33.294  27.106   0.409
35032W        W   17  43.953  14.160  12.056
35033W        W   18   4.210  18.101   3.374
35034W        W   19  42.196  38.859  14.884
35035W        W   20  44.246  31.374  10.794
35036W        W   21  23.235   2.998  12.215
35037W        W   22  26.517  38.548  12.561
35038W        W   23  24.857  38.066  12.927
35039W        W   24  29.985  38.609   1.467
35040W        W   25   5.996  40.978   1.472
35041W        W   26  42.269   1.410  12.371
35042W        W   27  11.656  21.242  10.570
35043W        W   28  28.444   1.252   1.814
35044W        W   29  12.220  24.442  12.622
35045W        W   30  23.566  28.059  13.264
35046W        W   31   2.672  37.080   0.849
35047W        W   32  32.911  42.853  13.992
35048W        W   33  23.691  29.249  13.514
35049W        W   34   9.168   0.321   3.153
35050W        W   35   4.630  42.877  13.050
35051W        W   36  34.937  27.933  11.666
35052W        W   37  41.457  32.241   1.223
35053W        W   38  25.421  37.452  13.876
35054W        W   39  40.239  24.755   1.249
35055W        W   40  44.431  10.238   2.619
35056W        W   41  40.684  39.409  14.159
35057W        W   42  10.369  11.248  13.032
35058W        W   43  40.911  26.594   1.138
35059W        W   44   7.892   7.235   1.896
35060W        W   45  26.672  32.076   1.418
35061W        W   46  28.970  19.717   1.715
35062W        W   47   1.190   5.926  11.586
35063W        W   48  28.909   4.858  14.841
35064W        W   49  36.302   3.787   3.295
35065W        W   50  25.885   0.190   3.426
35066W        W   51  35.185  18.269   2.312
35067W        W   52  39.418  35.098   2.269
35068W        W   53  30.939  19.596   3.600
35069W        W   54   1.376  27.113  13.991
35070W        W   55  18.576  29.715   2.237
35071W        W   56  32.859  23.925   0.329
35072W        W   57   8.475   2.752   2.682
35073W        W   58   8.324  37.853   4.985
35074W        W   59  20.030  42.024  14.380
35075W        W   60  17.669   9.551   4.918
35076W        W   61  12.815  35.911  10.774
35077W        W   62  30.696  22.572  10.747
35078W        W   63  40.071  20.473   3.305
35079W        W   64  34.836   5.316   4.144
35080W        W   65  17.858  35.482  14.930
35081W        W   66   7.351  31.542  14.363
35082W        W   67  32.154  29.189   2.910
35083W        W   68  12.837  11.595   4.188
35084W        W   69  22.750  29.464   1.850
35085W        W   70  25.243   2.857  14.376
35086W        W   71  22.117   1.945   2.871
35087W        W   72   2.311  19.342   2.226
35088W        W   73  38.120  36.238   0.026
35089W        W   74   1.379  35.933  13.667
35090W        W   75   9.805  19.660  11.179
35091W        W   76  38.863  37.381  11.230
35092W        W   77   0.027   7.285   2.671
35093W        W   78  38.764  18.056  11.364
35094W        W   79  43.232   0.440  11.629
35095W        W   80  13.279  11.492  13.012
35096W        W   81  34.402  21.659   0.023
35097W        W   82  22.257  40.911   3.603
35098W        W   83   4.485  18.080  12.211
35099W        W   84  44.464  26.495   1.185
35100W        W   85  37.881  37.908   1.226
35101W        W   86  11.584   4.119  14.544
35102W        W   87  14.038  17.246  11.154
35103W        W   88  31.109  10.679   4.318
35104W        W   89  29.450  29.890  14.873
35105W        W   90  19.829  41.523  14.425
35106W        W   91  20.611  38.852   3.634
35107W        W   92  20.336  37.535   1.275
35108W        W   93  23.453   1.673  12.489
35109W        W   94  43.881  29.338  10.652
35110W        W   95  11.210  24.465   4.011
35111W        W   96  16.406   0.202   2.328
35112W        W   97  27.228  15.595   3.182
35113W        W   98  44.292  34.956   2.218
35114W        W   99   3.409  35.879  10.412
35115W        W  100  28.788  20.405   0.416
35116W        W  101  43.542   8.809  11.018
35117W        W  102   5.456   7.191   0.364
35118W        W  103   9.651  13.901  12.018
35119W        W  104  23.762  42.341   4.612
35120W        W  105  15.142  36.006   0.970
35121W        W  106   5.975  11.058   2.482
35122W        W  107  37.357  25.586   3.988
35123W        W  108   3.628  12.619  11.185
35124W        W  109  15.569   8.814  12.982
35125W        W  110  28.161  10.851  12.105
35126W        W  111  20.299  24.409   3.326
35127W        W  112  13.187  26.335   1.899
35128W        W  113   4.373  35.330  12.447
35129W        W  114  34.102   0.953   0.360
35130W        W  115  27.005  35.620  13.303
35131W        W  116  34.152  33.095   0.894
35132W        W  117  39.893  28.658   3.214
35133W        W  118   5.668  26.567  13.968
35134W        W  119  12.156  21.128  12.735
35135W        W  120  15.196   1.529   1.033
35136W        W  121  21.615   2.901  12.199
35137W        W  122   8.334  17.624   4.032
35138W        W  123  20.248  41.473   0.267
35139W        W  124  31.438  21.800  11.601
35140W        W  125  22.805  25.695  13.326
35141W        W  126  35.540  13.608  13.029
35142W        W  127   2.638   6.713  11.129
35143W        W  128   3.331  26.944   2.150
35144W        W  129  16.120  39.435  12.928
35145W        W  130   1.172   6.867  11.918
35146W        W  131  33.654   8.898  11.807
35147W        W  132  35.672  31.933   1.809
35148W        W  133   4.687  21.463   9.953
35149W        W  134  30.323  26.403   2.300
35150W        W  135  34.881  28.481  12.150
35151W        W  136  25.091  41.119  13.613
35152W        W  137  18.805  19.766   3.132
35153W        W  138  33.577   2.974   3.623
35154W        W  139   1.480  13.671   2.175
35155W        W  140  28.500  38.525  12.534
35156W        W  141  17.330  25.710   2.705
35157W        W  142  23.614  19.866  14.060
35158W        W  143   2.207  36.328   2.242
35159W        W  144  36.122   4.811   3.143
35160W        W  145  40.513   0.523  14.197
35161W        W  146   4.487  39.881   2.384
35162W        W  147  33.461  26.080  14.488
35163W        W  148  33.401  43.758   2.700
35164W        W  149   2.221  15.600   0.383
35165W        W  150  21.591  41.362  14.033
35166W        W  151  26.435  18.645   0.691
35167W        W  152  25.454   4.510  13.454
35168W        W  153  40.938   4.123  12.037
35169W        W  154  11.305  36.493  11.677
35170W        W  155  16.286   1.229   3.282
35171W        W  156  20.552  26.004  11.052
35172W        W  157   6.931  34.108  10.826
35173W        W  158  26.710   9.326   1.473
35174W        W  159  21.033  12.680  12.794
35175W        W  160  37.581  38.433   0.062
35176W        W  161   9.697  23.693   3.519
35177W        W  162  31.097  22.951   1.699
35178W        W  163  37.572   7.775  11.387
35179W        W  164  34.537   1.020   4.514
35180W        W  165   0.434  43.569   2.364
35181W        W  166  20.039  40.933   2.333
35182W        W  167  20.306  23.195   3.150
35183W        W  168  22.051  41.088  12.437
35184W        W  169  18.430   6.508  11.345
35185W        W  170  23.128   1.426  14.119
35186W        W  171   8.810   5.701  11.653
35187W        W  172  44.401  15.539   4.116
35188W        W  173  19.949  16.205  12.436
35189W        W  174  43.681  41.195   1.706
35190W        W  175  31.159  14.863   0.286
35191W        W  176  26.068  17.902  10.609
35192W        W  177  39.557   2.666   0.754
35193W        W  178  40.991   0.831  12.099
35194W        W  179  28.415  28.018   4.431
35195W        W  180   4.283  36.988   2.371
35196W        W  181   5.203  44.967  13.601
35197W        W  182   0.191  22.639   3.118
35198W        W  183   4.908  35.993   0.695
35199W        W  184   3.727  36.101  11.571
35200W        W  185   6.693  42.954  12.109
35201W        W  186  33.495   4.350   3.612
35202W        W  187  38.759  44.478  14.972
35203W        W  188  31.968  40.352  11.025
35204W        W  189  29.097  20.989   2.293
35205W        W  190  44.246  39.309   4.072
35206W        W  191  33.553  35.023  12.994
35207W        W  192  13.723  41.460  14.699
35208W        W  193  24.510  30.122   0.417
35209W        W  194  42.030  38.346   0.608
35210W        W  195  17.452  27.200   0.889
35211W        W  196  38.961   5.709   2.445
35212W        W  197  19.057  35.877   0.613
35213W        W  198  40.984  29.102   2.176
35214W        W  199   0.180  36.042  11.129
35215W        W  200  30.795   4.779   0.004
35216W        W  201  31.105  43.995  14.269
35217W        W  202   8.214  40.795  13.773
35218W        W  203  40.557  42.089  13.961
35219W        W  204  15.219  19.309   0.761
35220W        W  205  29.330   6.086   0.934
35221W        W  206   1.103   4.768   3.635
35222W        W  207  32.922  30.677   3.284
35223W        W  208  11.390   4.552   1.325
35224W        W  209  27.074  11.338   0.896
35225W        W  210  36.099  44.517  11.429
35226W        W  211  18.691   5.703  13.418
35227W        W  212   4.191  20.529   4.615
35228W        W  213   3.518  17.339  14.971
35229W        W  214  20.094   1.167  12.220
35230W        W  215  12.261  35.069  14.478
35231W        W  216   2.907   3.107   0.024
35232W        W  217   8.933   3.543   4.174
35233W        W  218  21.648  28.439  12.481
35234W        W  219   1.736  10.762  11.780
35235W        W  220  35.314  31.288  13.878
35236W        W  221   4.338  10.205   1.750
35237W        W  222  10.879  30.167  11.453
35238W        W  223  28.136  23.439  11.926
35239W        W  224  25.070   5.727   3.258
35240W        W  225  27.448  11.658   3.794
35241W        W  226  31.946  23.178  12.599
35242W        W  227   4.216   8.395   1.956
35243W        W  228  41.297  33.530  12.428
35244W        W  229   9.660  25.661  12.528
35245W        W  230  21.093  11.208  13.838
35246W        W  231  24.704  22.536   4.327
35247W        W  232   5.309  40.943  12.383
35248W        W  233  28.977  44.987  14.404
35249W        W  234  11.281  15.526  13.022
35250W        W  235  17.550  15.336   3.829
35251W        W  236   1.505   8.267   1.467
35252W        W  237  25.038  12.284  10.617
35253W        W  238  15.972  44.532  12.584
35254W        W  239  27.156  23.955   4.208
35255W        W  240   8.421  34.951   4.791
35256W        W  241  36.065  16.598  11.521
35257W        W  242  23.729  27.060   4.393
35258W        W  243  17.768  23.051   0.889
35259W        W  244  19.956  16.542  10.254
35260W        W  245  28.814  18.101   1.924
35261W        W  246  18.408  25.423  14.224
35262W        W  247  20.208  18.591  12.232
35263W        W  248   0.202   1.373  12.458
35264W        W  249  21.188  26.683   3.429
35265W        W  250  39.674  32.698   0.305
35266W        W  251  23.406   9.865   4.500
35267W        W  252  16.542  34.356   3.699
35268W        W  253  43.356  15.199  14.566
35269W        W  254  13.278  29.543   3.273
35270W        W  255  22.629   0.017   4.057
35271W        W  256  24.971  39.520   2.842
35272W        W  257   5.281  43.573  12.535
35273W        W  258  13.309   0.573  13.162
35274W        W  259  10.736  18.381   4.353
35275W        W  260  38.543  26.853   0.261
35276W        W  261   5.760  29.885  12.825
35277W        W  262   5.241  25.539   2.585
35278W        W  263  41.900  23.082  10.591
35279W        W  264  12.890  36.121   1.870
35280W        W  265  22.583  12.369  11.762
35281W        W  266  29.060  40.939  13.094
35282W        W  267   6.969   2.147   3.633
35283W        W  268  17.569  42.787   0.660
35284W        W  269  28.020   1.603   0.166
35285W        W  270  10.567   3.721  11.368
35286W        W  271  44.274  32.604  12.180
35287W        W  272  23.302  19.475  11.555
35288W        W  273  31.114   8.780   4.910
35289W        W  274  11.893  10.077   0.840
35290W        W  275  34.006  24.166  14.013
35291W        W  276   7.753  36.973  14.790
35292W        W  277  15.965  11.745  12.286
35293W        W  278  41.831  32.975  12.875
35294W        W  279  40.426  13.350  11.189
35295W        W  280   5.025  14.561   1.729
35296W        W  281  14.425  44.089  12.453
35297W        W  282   5.783  11.629  13.477
35298W        W  283   1.900  17.296  13.214
35299W        W  284  20.654  14.142   3.397
35300W        W  285   2.917  39.861   3.421
35301W        W  286  38.024  30.631  10.189
35302W        W  287  15.907  22.767  11.490
35303W        W  288   7.185  21.606   4.187
35304W        W  289  14.749   4.705  11.674
35305W        W  290  39.758  18.252   3.729
35306W        W  291  40.778  21.618  11.989
35307W        W  292  12.168  28.946  11.765
35308W        W  293  35.377  21.162   2.762
35309W        W  294  18.616  41.551  14.765
35310W        W  295  11.997  34.577  11.712
35311W        W  296  37.755  21.553   3.705
35312W        W  297   4.198  28.104   0.308
35313W        W  298  28.985  42.874   4.515
35314W        W  299  41.295  29.154  14.906
35315W        W  300  33.842  36.489   1.191
35316W        W  301  42.259  15.745   4.125
35317W        W  302   4.232  36.573  13.227
35318W        W  303  26.672   3.779  11.565
35319W        W  304   8.739   6.399  12.934
35320W        W  305  44.011   6.626   1.474
35321W        W  306   5.807  32.941  13.302
35322W        W  307  16.813  32.384  14.883
35323W        W  308  28.624  42.579   2.730
35324W        W  309   3.239  23.938  11.668
35325W        W  310   3.161  28.469  13.921
35326W        W  311  31.373  42.548  14.359
35327W        W  312  40.862   3.008  11.071
35328W        W  313  34.885  32.680  13.146
35329W        W  314  26.702  18.826  13.265
35330W        W  315   5.388  20.561  12.946
35331W        W  316  19.769  13.318  10.961
35332W        W  317   1.030   7.824  14.901
35333W        W  318   8.671   4.295   3.669
35334W        W  319   7.757  29.880  11.385
35335W        W  320  22.713  37.170   3.279
35336W        W  321  25.019   1.950   1.677
35337W        W  322   4.997  38.491  11.226
35338W        W  323   1.249  30.465  13.439
35339W        W  324  43.998  30.289   0.272
35340W        W  325  31.174   2.997   3.358
35341W        W  326  14.084   6.063   0.093
35342W        W  327  41.318  31.116  14.072
35343W        W  328  33.444  30.432  10.217
35344W        W  329  28.680  38.275  11.972
35345W        W  330  41.855  15.853  13.534
35346W        W  331   2.220  31.084  13.849
35347W        W  332  39.556   4.003  12.948
35348W        W  333  20.773   8.612  10.724
35349W        W  334  34.574  10.441  14.369
35350W        W  335  22.098  15.186  11.960
35351W        W  336  20.439   5.825  10.625
35352W        W  337   5.946  32.129  13.035
35353W        W  338  37.807  38.461   2.748
35354W        W  339   5.081  30.771   1.155
35355W        W  340  32.153   3.266  12.578
35356W        W  341   1.328  18.573  14.704
35357W        W  342  31.715  12.153   3.705
35358W        W  343  40.848   9.409  14.905
35359W        W  344  11.614   2.843  14.343
35360W        W  345   8.427  40.057   2.006
35361W        W  346  28.315   8.774   5.241
35362W        W  347  13.325   5.993   4.287
35363W        W  348  13.807  14.272  12.955
35364W        W  349  41.713  33.333  11.085
35365W        W  350  24.095  15.374  11.613
35366W        W  351  40.451  12.426   0.421
35367W        W  352  16.828  42.963  11.659
35368W        W  353  20.211  44.541  11.511
35369W        W  354  42.928   4.395  14.405
35370W        W  355  33.586  33.005   2.927
35371W        W  356  32.820  23.634   1.015
35372W        W  357  26.907  34.235   1.030
35373W        W  358  10.102  42.454  13.103
35374W        W  359   7.747   7.663   2.129
35375W        W  360  35.652  32.190  11.217
35376W        W  361  32.515   7.876  11.562
35377W        W  362  33.914  37.812  13.325
35378W        W  363  21.959   2.195   0.855
35379W        W  364  29.221  43.499   1.344
35380W        W  365  22.016  44.634  11.293
35381W        W  366  44.500  43.059   4.196
35382W        W  367  20.274  20.678   3.033
35383W        W  368  37.572  22.776   2.258
35384W        W  369  23.347  18.783   3.135
35385W        W  370  40.974  36.450   0.827
35386W        W  371  44.108  42.454  14.888
35387W        W  372  33.091  29.109   2.842
35388W        W  373  32.949  36.368   3.890
35389W        W  374  35.949  22.436   4.524
35390W        W  375  44.426  35.668  14.568
35391W        W  376   4.281  42.413  14.661
35392W        W  377  39.666  42.670  13.151
35393W        W  378   2.281  21.079   3.886
35394W        W  379   1.259  42.328  13.553
35395W        W  380  24.491  43.305   4.843
35396W        W  381  43.903  10.804  12.082
35397W        W  382  40.314  30.009  13.939
35398W        W  383  35.399  32.230  10.771
35399W        W  384  17.556  38.074  14.995
35400W        W  385  20.320  29.131   4.147
35401W        W  386  36.092  34.580   4.084
35402W        W  387  20.029   4.032  10.885
35403W        W  388  19.490  21.270  14.313
35404W        W  389   6.387  17.043   3.191
35405W        W  390  40.556   8.617  12.042
35406W        W  391  15.689  11.395   3.616
35407W        W  392  25.310  21.814   2.418
35408W        W  393  35.357  23.578  14.772
35409W        W  394   3.393  40.092   1.067
35410W        W  395  34.077   2.478  13.048
35411W        W  396  35.931  34.183  12.615
35412W        W  397   7.292  27.526   1.866
35413W        W  398  15.249   4.792   2.062
35414W        W  399  34.501  35.624   3.129
35415W        W  400  25.749  21.514  13.410
35416W        W  401   6.884  22.787   4.775
35417W        W  402  44.567   8.330  10.379
35418W        W  403  13.691  23.312  11.645
35419W        W  404  14.141   3.389  12.582
35420W        W  405   4.643  36.003   1.561
35421W        W  406  11.983  15.781   0.892
35422W        W  407   9.083  40.922  10.567
35423W        W  408  15.403  30.034   1.888
35424W        W  409  33.132  29.950   2.269
35425W        W  410  41.818  33.512   5.197
35426W        W  411  36.497  19.182   1.276
35427W        W  412  20.513  30.505  14.504
35428W        W  413  40.881  27.635  12.407
35429W        W  414  31.055  10.848   1.819
35430W        W  415  24.789  19.985   2.367
35431W        W  416   0.313  21.984   0.905
35432W        W  417   5.652   0.916  12.950
35433W        W  418  17.059   0.825  12.424
35434W        W  419  43.489  20.032  11.585
35435W        W  420  28.931  20.373  10.795
35436W        W  421  33.880  13.788  13.749
35437W        W  422  13.136  19.819  10.514
35438W        W  423   2.332   7.814   0.313
35439W        W  424   3.978  18.131   5.173
35440W        W  425  42.377  10.571  14.701
35441W        W  426  18.742   2.000   2.351
35442W        W  427  11.555  35.254  11.695
35443W        W  428  25.588  22.324   4.149
35444W        W  429  21.109   6.401   1.737
35445W        W  430   7.824  31.202  11.541
35446W        W  431  15.289  35.368   4.269
35447W        W  432  44.442  36.487   4.105
35448W        W  433  17.613  16.313   4.717
35449W        W  434  19.683  25.463  11.110
35450W        W  435   7.807  40.503  10.393
35451W        W  436  27.698  13.317  10.261
35452W        W  437  16.606  40.053  11.966
35453W        W  438  34.010  21.264  12.849
35454W        W  439  26.482  14.181   0.960
35455W        W  440  27.501  43.084  14.510
35456W        W  441  13.902   0.407   1.198
35457W        W  442  41.945   5.844   0.741
35458W        W  443  14.938  37.466  11.913
35459W        W  444  38.140  28.913  11.777
35460W        W  445   5.747  16.533   2.852
35461W        W  446  14.099   3.718  12.185
35462W        W  447  43.848   9.939   2.004
35463W        W  448  12.409  20.719   1.899
35464W        W  449  34.516  34.331   0.518
35465W        W  450  44.663  16.003   1.896
35466W        W  451  16.506  40.111  11.088
35467W        W  452  35.201  13.288  13.929
35468W        W  453  15.713  43.954  12.825
35469W        W  454  40.867  19.696   2.198
35470W        W  455  44.761   1.248   2.662
35471W        W  456  29.070  24.641   1.685
35472W        W  457  24.125   5.182   0.721
35473W        W  458  40.864   1.926  12.475
35474W        W  459  16.329  34.674  12.473
35475W        W  460  42.665   9.035   0.282
35476W        W  461  30.433  31.552   1.992
35477W        W  462  38.793   1.200   0.087
35478W        W  463  39.115   4.454  11.703
35479W        W  464  43.048   9.713  11.268
35480W        W  465  14.292  13.577  13.846
35481W        W  466  13.781  37.507  12.056
35482W        W  467  32.830   5.451   4.980
35483W        W  468  26.941  37.108  11.099
35484W        W  469  19.120  41.397  12.062
35485W        W  470   0.858  23.648  10.223
35486W        W  471  41.100  23.692   0.215
35487W        W  472  34.054  38.224   4.514
35488W        W  473  38.406  43.641   1.317
35489W        W  474   0.532  10.207  14.332
35490W        W  475   1.761  29.303  12.537
35491W        W  476   6.957  30.556  12.483
35492W        W  477  18.663  15.227   1.106
35493W        W  478   6.232  18.511   1.736
35494W        W  479  31.886  32.655  14.980
35495W        W  480  25.057  42.447   1.898
35496W        W  481  14.263  34.547   2.908
35497W        W  482   3.673   4.711  14.659
35498W        W  483  42.882  26.943  13.969
35499W        W  484  42.705  24.527   2.250
35500W        W  485  15.159  17.762  14.088
35501W        W  486  14.023   7.363  14.623
35502W        W  487   2.207   9.211  12.991
35503W        W  488  36.068  20.973   1.281
35504W        W  489  22.742  11.358  12.810
35505W        W  490  10.159   5.175  13.418
35506W        W  491  32.083  35.448  11.896
35507W        W  492   2.979  43.284  12.422
35508W        W  493  11.055  35.441  12.540
35509W        W  494  33.889  22.637  11.630
35510W        W  495  16.735  16.056  13.546
35511W        W  496   8.657  38.063   4.008
35512W        W  497  10.114   4.425  12.205
35513W        W  498   7.781   3.292   4.473
35514W        W  499  15.188  14.045   4.659
35515W        W  500   6.850  34.569  12.452
35516W        W  501  29.055  27.277  12.123
35517W        W  502   2.738  15.700  13.989
35518W        W  503  44.297  23.219  13.185
35519W        W  504  23.918  40.715   4.345
35520W        W  505  22.842   5.322  11.166
35521W        W  506   4.002   8.339   0.669
35522W        W  507   5.903  12.325  10.492
35523W        W  508  20.789   2.767  12.533
35524W        W  509   2.314  37.629   1.662
35525W        W  510  39.822  34.347  11.968
35526W        W  511  26.687  41.613   2.857
35527W        W  512  16.355  39.447   0.292
35528W        W  513  41.866  36.981  13.901
35529W        W  514  15.763  11.981  13.932
35530W        W  515  41.105  10.499  14.474
35531W        W  516  25.976   9.409   0.880
35532W        W  517  40.450  16.625  12.131
35533W        W  518  13.290  36.590   1.346
35534W        W  519  25.727  39.425  11.301
35535W        W  520  43.249  33.986   2.332
35536W        W  521  28.212  39.428  12.507
35537W        W  522   0.243  31.606  13.683
35538W        W  523  30.766  10.800   0.242
35539W        W  524  10.771  27.650  11.098
35540W        W  525  11.630  36.624  12.050
35541W        W  526   6.243  32.143   0.048
35542W        W  527   2.925   9.451  12.581
35543W        W  528  43.988  28.941   2.290
35544W        W  529  11.812  37.023  13.541
35545W        W  530  14.201  17.677  11.712
35546W        W  531  30.882  33.896   3.266
35547W        W  532  11.227   9.148  12.681
35548W        W  533   8.489  31.382   3.333
35549W        W  534  18.634  10.895  13.751
35550W        W  535   6.866  18.712  12.616
35551W        W  536   6.445  33.792   3.735
35552W        W  537  38.014  28.799  11.132
35553W        W  538  19.130   9.347  14.442
35554W        W  539  21.732  35.535   3.672
35555W        W  540  27.756  12.452   1.308
35556W        W  541  28.762  43.057   2.943
35557W        W  542  42.871   4.116  13.049
35558W        W  543   3.435  18.402   5.215
35559W        W  544   7.954   7.970  11.510
35560W        W  545  14.632   2.635  12.114
35561W        W  546   4.870   0.339  13.630
35562W        W  547   9.450  12.655   0.781
35563W        W  548  11.813   4.428  13.582
35564W        W  549   9.116  41.671  13.506
35565W        W  550   6.338  12.663  14.965
35566W        W  551  15.193   2.785   1.296
35567W        W  552  31.091  40.399   1.981
35568W        W  553   0.448  44.406   1.800
35569W        W  554  44.954  34.637  13.885
35570W        W  555  22.123  43.578  11.166
35571W        W  556   4.749   6.780   4.937
35572W        W  557  14.630  18.025  12.545
35573W        W  558   5.906  44.472  14.905
35574W        W  559  44.257  17.394  11.662
35575W        W  560  24.632   5.136   1.248
35576W        W  561  31.698  20.783   2.192
35577W        W  562  21.570  28.446   1.324
35578W        W  563  24.244   3.436   3.872
35579W        W  564  26.421  31.633  10.726
35580W        W  565  35.369  22.117  10.808
35581W        W  566  37.443   2.870  12.633
35582W        W  567  16.516   0.900  12.421
35583W        W  568  32.709  13.303  14.962
35584W        W  569  14.231  11.177  14.951
35585W        W  570  25.272  16.550   4.148
35586W        W  571  41.879   5.430  13.783
35587W        W  572  15.352  16.494  14.846
35588W        W  573  33.553   2.473  14.882
35589W        W  574  32.562   5.641   4.561
35590W        W  575  26.192  36.755  14.824
35591W        W  576   6.265  30.114   3.999
35592W        W  577  25.842   8.201   0.404
35593W        W  578  28.026  16.088   4.120
35594W        W  579  24.679  39.109  14.007
35595W        W  580  22.522   9.388  12.349
35596W        W  581  41.904  42.081  11.334
35597W        W  582  43.932  41.029   4.957
35598W        W  583  20.285  17.462  11.121
35599W        W  584  32.627   5.452   3.664
35600W        W  585  19.218  41.316  13.559
35601W        W  586  14.269  13.726  10.803
35602W        W  587  37.346  43.488  10.608
35603W        W  588  21.666  28.009   9.950
35604W        W  589  33.276  44.775  13.990
35605W        W  590  43.344  22.045  11.138
35606W        W  591  33.383  35.135  13.461
35607W        W  592  18.894  25.500  14.019
35608W        W  593  33.378   4.438  14.844
35609W        W  594  39.975   4.623  14.367
35610W        W  595  39.312  44.947  10.725
35611W        W  596   9.154  12.640  12.949
35612W        W  597  21.284  43.008   0.397
35613W        W  598  19.237  34.020   1.237
35614W        W  599  43.912  31.479  14.852
35615W        W  600  39.946  13.245   0.294
35616W        W  601   6.378  31.581  11.691
35617W        W  602   7.207  24.591  13.047
35618W        W  603  12.135  39.095   2.692
35619W        W  604   3.664  24.058  13.392
35620W        W  605  39.650   0.495  14.394
35621W        W  606   8.638  19.623  14.930
35622W        W  607  18.285  22.725  11.966
35623W        W  608  42.586  20.449  12.623
35624W        W  609  38.905  31.442   0.311
35625W        W  610  32.921   5.660  11.780
35626W        W  611  18.160  31.926  11.583
35627W        W  612   1.305  37.486   3.418
35628W        W  613  11.018  37.568   2.731
35629W        W  614  29.085  17.699  14.093
35630W        W  615   8.065  27.523   0.358
35631W        W  616  28.016  19.311  12.562
35632W        W  617  35.994  29.949   0.152
35633W        W  618  15.711  19.083   3.186
35634W        W  619  37.892  25.004   4.193
35635W        W  620  39.637  34.344   0.836
35636W        W  621  17.260  40.854  13.087
35637W        W  622   9.930   0.927   4.819
35638W        W  623  39.459  41.148  11.987
35639W        W  624  24.647  15.830  11.314
35640W        W  625  39.840  40.344  11.195
35641W        W  626  29.116  14.214   0.752
35642W        W  627  19.715  25.130  12.854
35643W        W  628  42.023  15.509  11.151
35644W        W  629  39.461  15.421   4.887
35645W        W  630  24.742  26.674  11.632
35646W        W  631  17.665  27.171   2.253
35647W        W  632  40.082  28.643  14.329
35648W        W  633  34.987  12.741  12.846
35649W        W  634  32.854  19.612  11.615
35650W        W  635  12.829  13.126   0.482
35651W        W  636  32.339  17.607   2.326
35652W        W  637  10.307  21.428   1.474
35653W        W  638  41.963   7.331   0.215
35654W        W  639  42.935   4.119   0.228
35655W        W  640  41.427  31.199   4.447
35656W        W  641  18.610   9.625   3.935
35657W        W  642  16.127  43.762   2.486
35658W        W  643  44.015  34.093  13.823
35659W        W  644  28.666   5.049  13.471
35660W        W  645  27.535  19.987  12.679
35661W        W  646  39.101  27.729  12.354
35662W        W  647  21.100   5.773   2.563
35663W        W  648   5.528   6.797   3.263
35664W        W  649  27.939  44.063  14.449
35665W        W  650  29.702   3.548  12.458
35666W        W  651  21.639  36.806   0.472
35667W        W  652  36.450  18.519   4.919
35668W        W  653  44.823  32.041  12.915
35669W        W  654  42.331  11.084   4.803
35670W        W  655   4.962   6.121   5.415
35671W        W  656  28.143  40.873   3.285
35672W        W  657  13.674  37.571   2.416
35673W        W  658  22.668  10.327   4.610
35674W        W  659  24.549  32.035  11.694
35675W        W  660  27.198  36.864  13.811
35676W        W  661  36.374  38.868  13.224
35677W        W  662  20.722   4.883  12.148
35678W        W  663   3.616  35.073   4.553
35679W        W  664  31.889  28.522   1.771
35680W        W  665  19.990  31.359  12.045
35681W        W  666  39.730   5.803  11.422
35682W        W  667  42.236  43.019   2.339
35683W        W  668  34.596  20.062   4.401
35684W        W  669  32.892  34.764   2.202
35685W        W  670   1.422  15.832   2.825
35686W        W  671  14.057  36.371   3.078
35687W        W  672  36.627   6.904  13.167
35688W        W  673  17.725   5.159  13.569
35689W        W  674  35.077  27.307  12.452
35690W        W  675   0.680  27.555   3.777
35691W        W  676  42.323   4.173   1.197
35692W        W  677  43.410  18.837   0.226
35693W        W  678   4.173   0.708   1.236
35694W        W  679  37.234  33.094  14.555
35695W        W  680   4.500  31.750   3.374
35696W        W  681  30.238  35.097   4.209
35697W        W  682  18.335  30.923   0.081
35698W        W  683  23.467  36.034  12.621
35699W        W  684  10.331   6.203   1.761
35700W        W  685  27.173  29.159   1.094
35701W        W  686  39.999  39.070   2.976
35702W        W  687  33.973  16.737  14.831
35703W        W  688  30.449  25.095   3.597
35704W        W  689  26.506  22.941  13.821
35705W        W  690   6.746  16.304  14.346
35706W        W  691  37.755  33.606   2.570
35707W        W  692  13.053  15.653   3.282
35708W        W  693  36.496  38.575  12.038
35709W        W  694   0.394  43.059   2.197
35710W        W  695  41.035  28.510   2.698
35711W        W  696  41.862  17.249  13.389
35712W        W  697  15.098  39.593  10.712
35713W        W  698  40.365  40.946   0.368
35714W        W  699  36.573  26.043   3.842
35715W        W  700   1.529  10.669   0.312
35716W        W  701   7.669  12.477  12.708
35717W        W  702  24.005  35.448   3.680
35718W        W  703  12.312  19.274  10.676
35719W        W  704  28.497  27.472   1.451
35720W        W  705  37.364   2.144  14.942
35721W        W  706   1.781   2.157  11.584
35722W        W  707  13.753  41.134  14.286
35723W        W  708  31.539  40.279   1.189
35724W        W  709  16.988  41.869   0.704
35725W        W  710  10.252   9.988  14.409
35726W        W  711  15.727  28.047   3.792
35727W        W  712  24.528   1.851   0.232
35728W        W  713  11.672  35.613  10.214
35729W        W  714  20.202  20.760  14.651
35730W        W  715  12.520  32.935  14.994
35731W        W  716  30.859   7.722  11.499
35732W        W  717   4.343   4.682  10.607
35733W        W  718   5.136  42.072   4.168
35734W        W  719  41.266   0.006  12.981
35735W        W  720  22.497  15.879  11.563
35736W        W  721  38.078  29.079  10.681
35737W        W  722  38.559  35.814  14.127
35738W        W  723  18.831  22.239   0.925
35739W        W  724  39.245  42.514   2.009
35740W        W  725   6.230  32.586   1.396
35741W        W  726  10.843  44.197   4.588
35742W        W  727  35.016  30.901  13.706
35743W        W  728  35.585  44.488  10.466
35744W        W  729  31.571  14.330  12.926
35745W        W  730   6.044  32.369   3.181
35746W        W  731  26.584  25.273  10.653
35747W        W  732  25.602  25.622  10.628
35748W        W  733  27.469  27.524   1.566
35749W        W  734  35.341  34.928   3.644
35750W        W  735  21.458  27.037  10.522
35751W        W  736  34.916  14.699  11.614
35752W        W  737  12.547  41.002  12.011
35753W        W  738  18.131   6.705  13.878
35754W        W  739  18.741  17.105  14.091
35755W        W  740  31.974   2.524  11.777
35756W        W  741  30.654   7.526   1.167
35757W        W  742  40.132  31.048  11.083
35758W        W  743  10.550  11.556  10.592
35759W        W  744  28.921  11.931   1.859
35760W        W  745  14.836  33.564   1.306
35761W        W  746  38.344  22.121   1.836
35762W        W  747  20.694  24.807   3.268
35763W        W  748  10.411  39.198   4.223
35764W        W  749  23.190   8.407  12.952
35765W        W  750  18.621  17.191   0.518
35766W        W  751  36.312  18.224  13.903
35767W        W  752  30.181   8.141  12.959
35768W        W  753  28.153   0.026  12.067
35769W        W  754   4.970  25.070  11.969
35770W        W  755  17.783   6.391  13.595
35771W        W  756   6.915  16.329   3.609
35772W        W  757  34.754  29.419  13.510
35773W        W  758  39.333  12.265   2.813
35774W        W  759  30.001  33.706   4.315
35775W        W  760  30.124   0.559  11.116
35776W        W  761  10.435  13.138   0.454
35777W        W  762   0.945  15.657  10.523
35778W        W  763  19.696  38.971  12.180
35779W        W  764  41.878   7.173  13.021
35780W        W  765  27.526  20.008  11.416
35781W        W  766   3.440  21.002  12.068
35782W        W  767  32.401   6.591  13.743
35783W        W  768  12.928  16.212   1.756
35784W        W  769  40.427  42.409  13.507
35785W        W  770  19.564  37.274   2.298
35786W        W  771  39.765  44.627   0.639
35787W        W  772  20.820  25.632   1.482
35788W        W  773  17.293   1.439  10.709
35789W        W  774  38.954  13.842  11.905
35790W        W  775  42.889  29.557   5.045
35791W        W  776  20.413  25.908   4.136
35792W        W  777  22.149  43.958   3.261
35793W        W  778  41.758  32.209   1.704
35794W        W  779  13.772  16.236  13.265
35795W        W  780   7.660   8.466   4.175
35796W        W  781  40.919  35.949  12.179
35797W        W  782  37.077   2.660   3.110
35798W        W  783  26.879  32.979   0.282
35799W        W  784  32.018  43.313  10.534
35800W        W  785   0.324  29.183  11.709
35801W        W  786  27.032  43.782  11.642
35802W        W  787  26.485  38.069  10.565
35803W        W  788  40.235  33.096  14.481
35804W        W  789  23.490   3.725   1.368
35805W        W  790  23.066  25.637   2.510
35806W        W  791  25.904  36.775   3.728
35807W        W  792  32.617  29.984  11.041
35808W        W  793  34.062  41.987  14.727
35809W        W  794  27.379  17.698   1.956
35810W        W  795  21.042  32.840   3.171
35811W        W  796  24.169  26.406  10.000
35812W        W  797  37.967  42.461  13.257
35813W        W  798  21.147  34.706  13.016
35814W        W  799   9.859   8.384   3.692
35815W        W  800  41.314  29.626  11.118
35816W        W  801  12.188  17.479  12.315
35817W        W  802  22.577   1.542   5.058
35818W        W  803  23.610  38.281   0.450
35819W        W  804  34.193  38.939  10.457
35820W        W  805  36.814  31.537  12.096
35821W        W  806  10.691  16.258  14.343
35822W        W  807  12.335   2.426   4.700
35823W        W  808  18.773  28.653  11.813
35824W        W  809  33.547  14.835  11.459
35825W        W  810   8.816  32.443  13.701
35826W        W  811   5.447   5.015  13.419
35827W        W  812  15.956  33.435  14.743
35828W        W  813   1.330  14.337  13.012
35829W        W  814   7.384  28.972   2.418
35830W        W  815  44.004  24.662  10.222
35831W        W  816  22.639   1.335  12.503
35832W        W  817   6.950   9.595   3.619
35833W        W  818  29.612  33.328   4.266
35834W        W  819  43.578  37.117   3.232
35835W        W  820  37.804  25.354   4.659
35836W        W  821  43.344   2.494  11.678
35837W        W  822   4.493   2.848  14.426
35838W        W  823  25.433  42.321  11.571
35839W        W  824  30.339  42.897  10.636
35840W        W  825  24.980  34.502   4.878
35841W        W  826   4.374   3.560  13.939
35842W        W  827   6.309   9.849  11.214
35843W        W  828  25.260  21.477   2.797
35844W        W  829   6.351  11.048  14.883
35845W        W  830  22.180  18.889   4.947
35846W        W  831  24.528   7.659  12.955
35847W        W  832  34.585   9.337   3.162
35848W        W  833  42.820  22.013  11.052
35849W        W  834  16.041  36.020  12.414
35850W        W  835  41.476  37.315  13.961
35851W        W  836   2.809  13.139   1.369
35852W        W  837  20.585  37.959   2.168
35853W        W  838  17.375  24.181   0.826
35854W        W  839  15.154   3.290   0.479
35855W        W  840  28.060  21.722   4.621
35856W        W  841  40.813  35.863  11.686
35857W        W  842  25.132  29.991   5.377
35858W        W  843   9.853  39.674   1.604
35859W        W  844   7.647  38.275   2.241
35860W        W  845  40.046  39.059  12.541
35861W        W  846   5.981  44.464   3.127
35862W        W  847  30.331  33.095  13.029
35863W        W  848  26.757  43.002  13.347
35864W        W  849   6.381  18.727  14.051
35865W        W  850  35.670  28.499   3.690
35866W        W  851  41.921  38.013   5.090
35867W        W  852  10.136  42.956   1.923
35868W        W  853  25.914  16.291  14.321
35869W        W  854  38.362  41.342  14.447
35870W        W  855  40.839  30.929  14.828
35871W        W  856  35.953  32.593   0.743
35872W        W  857  23.306   3.311  12.831
35873W        W  858  20.759   9.691  12.523
35874W        W  859  11.884   1.308  12.847
35875W        W  860  40.366   8.682  14.002
35876W        W  861  14.279  13.411  12.087
35877W        W  862  26.727   2.586   1.354
35878W        W  863  28.874  14.720   2.931
35879W        W  864  31.409  14.617   2.889
35880W        W  865  29.329   7.403  14.254
35881W        W  866  12.280  27.681  11.981
35882W        W  867  29.542  26.695   0.921
35883W        W  868  25.633  25.412   3.913
35884W        W  869  33.503  16.929   2.156
35885W        W  870  13.938   4.471   0.097
35886W        W  871  35.887   2.966  12.521
35887W        W  872  30.031  10.603  14.723
35888W        W  873   8.231  36.616   3.256
35889W        W  874  11.284  31.068  14.074
35890W        W  875   7.746   7.586   4.131
35891W        W  876  23.607  40.332  13.944
35892W        W  877  19.063  34.409   3.799
35893W        W  878  19.989  39.492   1.948
35894W        W  879  43.036  23.586  13.477
35895W        W  880  11.293  39.152  11.073
35896W        W  881   7.235  33.316   3.798
35897W        W  882  15.151   8.631   2.237
35898W        W  883  18.507   4.152  14.170
35899W        W  884  34.274  38.545   1.482
35900W        W  885  37.552  15.167  10.731
35901W        W  886  20.307  12.101  13.959
35902W        W  887  37.552  27.422   4.115
35903W        W  888  18.967  17.549  12.025
35904W        W  889  10.902  39.786   4.068
35905W        W  890  39.532   3.490  12.900
35906W        W  891   9.648  16.095   4.653
35907W        W  892  19.523   3.654   1.461
35908W        W  893  21.820  29.940  11.262
35909W        W  894  35.982  33.968   2.668
35910W        W  895   6.703  20.091   4.627
35911W        W  896  29.951  13.190   3.159
35912W        W  897  31.629  24.965   4.314
35913W        W  898  30.316  32.546   2.308
35914W        W  899  28.113  29.022  13.929
35915W        W  900  31.786  19.108  12.048
35916W        W  901  16.683  44.729  11.024
35917W        W  902   1.684  12.881  14.548
35918W        W  903  24.922  31.987   0.107
35919W        W  904  35.619  35.886   2.649
35920W        W  905   6.248   6.208   3.177
35921W        W  906   2.453   2.832  11.654
35922W        W  907   7.501  22.396   1.471
35923W        W  908  30.781  12.623  10.060
35924W        W  909  20.005   9.147  11.085
35925W        W  910  43.973  38.710   4.596
35926W        W  911   8.666  41.360   0.104
35927W        W  912   4.347  20.809  12.928
35928W        W  913   5.527  30.459  13.374
35929W        W  914  11.705  44.789  12.615
35930W        W  915   6.156  38.089   4.562
35931W        W  916  38.291  36.544   4.725
35932W        W  917   6.485  16.031  13.129
35933W        W  918  24.579  20.751   4.137
35934W        W  919  19.309  28.034  11.246
35935W        W  920  12.024  42.252  10.932
35936W        W  921  13.284   6.545   3.417
35937W        W  922   4.492  37.480   0.389
35938W        W  923  12.513  37.661  13.125
35939W        W  924  40.813  38.755   0.282
35940W        W  925  12.757  22.771  11.267
35941W        W  926  20.994  38.382   5.000
35942W        W  927  15.642  16.152  14.529
35943W        W  928  26.502  24.042   1.333
35944W        W  929  12.464  23.730   0.691
35945W        W  930   2.442  41.924  10.715
35946W        W  931  12.017  18.215  12.157
35947W        W  932  42.729   4.235  10.894
35948W        W  933  20.239   0.891  11.175
35949W        W  934  35.129   5.780   4.179
35950W        W  935  43.555   4.736  10.519
35951W        W  936  29.704  28.902  12.362
35952W        W  937   0.058  19.374  12.816
35953W        W  938  19.484  44.412   0.228
35954W        W  939  23.596  20.708  11.952
35955W        W  940  18.653  41.634  10.385
35956W        W  941  24.950  13.395   1.905
35957W        W  942   1.495  36.454  10.785
35958W        W  943  10.841  29.478   4.210
35959W        W  944  41.974  18.562  13.897
35960W        W  945  15.413  24.417   0.854
35961W        W  946  16.788   3.862   4.044
35962W        W  947  36.782  30.187   3.290
35963W        W  948   4.282   4.904   2.840
35964W        W  949  36.523  31.719  11.134
35965W        W  950  11.764   1.728   1.007
35966W        W  951  43.929  22.132  14.339
35967W        W  952  10.292  36.562   3.872
35968W        W  953  15.319  41.877   1.190
35969W        W  954  42.769  11.267  13.369
35970W        W  955  24.218  10.698   1.149
35971W        W  956  44.250   4.722  14.077
35972W        W  957  33.192  33.641  12.644
35973W        W  958  44.530  28.350   0.244
35974W        W  959  13.369  13.540  13.682
35975W        W  960  43.351  28.158  12.944
35976W        W  961  23.756  20.071   0.486
35977W        W  962  16.279   5.127   3.520
35978W        W  963  25.314   8.789   0.759
35979W        W  964  32.560  33.484   4.306
35980W        W  965  13.872  10.124   0.393
35981W        W  966  44.767  18.382   2.096
35982W        W  967  28.605  11.181   2.128
35983W        W  968  29.833  31.396   2.651
35984W        W  969  35.895  39.021  13.350
35985W        W  970  20.061  27.082   5.093
35986W        W  971  24.094  19.510  13.349
35987W        W  972  37.588  26.510   2.526
35988W        W  973  32.856  19.182  14.720
35989W        W  974  41.209  24.357   3.220
35990W        W  975  10.012  25.689  10.652
35991W        W  976  18.666  12.091  14.494
35992W        W  977  14.151   4.104   4.377
35993W        W  978  23.768  15.703  11.232
35994W        W  979  20.246   6.807  10.229
35995W        W  980   8.928  35.976   0.971
35996W        W  981  16.381  24.284   1.820
35997W        W  982   2.254  22.807   4.969
35998W        W  983  36.069  17.850  11.062
35999W        W  984  35.397  32.911  11.755
36000W        W  985  43.691   3.209  13.430
36001W        W  986  21.496  15.705  10.763
36002W        W  987  10.950  43.997   4.095
36003W        W  988  31.175  31.976  13.949
36004W        W  989  22.483   7.030  13.763
36005W        W  990   3.422  40.935   1.243
36006W        W  991  14.839  15.660  11.476
36007W        W  992   1.975  37.393  12.953
36008W        W  993  22.083   6.223  10.541
36009W        W  994  28.257  20.601   2.302
36010W        W  995   9.659  16.516   1.995
36011W        W  996   7.207  37.317  14.017
36012W        W  997  32.289  27.834   3.094
36013W        W  998  25.002  29.486   3.272
36014W        W  999   3.382  20.532   1.210
36015W        W 1000  44.686  13.694  14.997
36016W        W 1001  26.740  27.345  13.948
36017W        W 1002   2.316  10.164   3.388
36018W        W 1003  33.375  33.069   0.280
36019W        W 1004  23.048  41.281   1.864
36020W        W 1005   3.653  36.040   2.764
36021W        W 1006   5.864  19.475   1.795
36022W        W 1007  32.410  11.382   1.143
36023W        W 1008   4.714  19.749  12.346
36024W        W 1009  38.803  27.159  13.088
36025W        W 1010  41.502   5.241  11.636
36026W        W 1011   4.622   4.848   2.448
36027W        W 1012  12.047  27.293   3.200
36028W        W 1013  42.741  30.430   3.137
36029W        W 1014  20.181  26.185   2.851
36030W        W 1015  35.368  14.766   1.333
36031W        W 1016   4.918  35.690   2.868
36032W        W 1017  27.034  39.351  11.384
36033W        W 1018  21.595  42.927   3.624
36034W        W 1019  27.032  37.048   2.164
36035W        W 1020  36.619  24.155   3.674
36036W        W 1021  22.112  28.771  14.777
36037W        W 1022  41.169  30.188   5.076
36038W        W 1023  36.603  23.524  13.443
36039W        W 1024  39.356  31.935  12.587
36040W        W 1025  33.523  32.018   5.013
36041W        W 1026  31.957  41.755   4.873
36042W        W 1027   0.447   2.357  14.649
36043W        W 1028  33.586  19.030  14.033
36044W        W 1029  29.229  15.539   3.270
36045W        W 1030  12.818   5.212  11.993
36046W        W 1031  14.598  43.770   4.523
36047W        W 1032   6.653  21.678  14.559
36048W        W 1033  43.388  42.319  13.535
36049W        W 1034  30.576  42.996   2.215
36050W        W 1035   2.252  30.508   0.271
36051W        W 1036  29.319  13.927  10.448
36052W        W 1037  28.378   7.001   3.283
36053W        W 1038   7.888  28.459   1.319
36054W        W 1039  32.334  19.339   4.398
36055W        W 1040  38.482  30.727   1.887
36056W        W 1041   6.962   5.781  12.096
36057W        W 1042   2.473   1.403  13.850
36058W        W 1043  16.296  44.680   2.103
36059W        W 1044   5.442  42.332   1.558
36060W        W 1045  43.791  28.585   4.763
36061W        W 1046   2.064  38.484   1.078
36062W        W 1047   5.952   2.334   2.085
36063W        W 1048  17.963  42.757  11.204
36064W        W 1049   1.658  37.397  14.998
36065W        W 1050  16.590   8.725   4.521
36066W        W 1051  35.075  12.702  12.357
36067W        W 1052   0.521  39.208  12.923
36068W        W 1053   6.633  11.391   4.554
36069W        W 1054  23.106  15.693   4.289
36070W        W 1055  21.914  14.176   0.012
36071W        W 1056  31.102  39.479   3.687
36072W        W 1057  25.195  39.003  13.296
36073W        W 1058  29.376  20.107   4.273
36074W        W 1059  22.757  23.261  11.027
36075W        W 1060  25.192   8.034   3.605
36076W        W 1061  43.020  28.579   3.436
36077W        W 1062  39.454  13.350   2.814
36078W        W 1063  37.848  18.584  14.496
36079W        W 1064   7.611  17.947   3.759
36080W        W 1065   3.315  21.895   1.851
36081W        W 1066   2.077  44.404   4.781
36082W        W 1067  38.386  38.917   2.231
36083W        W 1068   6.680  36.957  12.327
36084W        W 1069  37.932  14.739   2.348
36085W        W 1070  34.360  22.251   0.903
36086W        W 1071  21.077  18.889   0.378
36087W        W 1072   2.373   1.579   4.305
36088W        W 1073   2.459   6.943  10.577
36089W        W 1074   3.324   1.764   1.819
36090W        W 1075  33.063  12.418   3.701
36091W        W 1076  32.451  28.716  14.322
36092W        W 1077   7.853  39.914  11.182
36093W        W 1078  14.525  17.494  10.437
36094W        W 1079  41.441   9.358   2.389
36095W        W 1080  43.936   2.246  10.567
36096W        W 1081  29.457  18.972  14.300
36097W        W 1082  21.965  16.095  14.883
36098W        W 1083   2.748  38.806  12.787
36099W        W 1084  42.317  29.004   0.590
36100W        W 1085  24.717  13.391  10.921
36101W        W 1086  10.775  26.093  12.935
36102W        W 1087  23.095  38.128   0.543
36103W        W 1088  22.681  19.618  13.053
36104W        W 1089   8.922  40.489  13.957
36105W        W 1090  27.187  35.918  10.753
36106W        W 1091  19.667  22.789  14.455
36107W        W 1092  38.372  10.794   1.773
36108W        W 1093   3.501   4.927  13.445
36109W        W 1094  27.751  17.610  12.354
36110W        W 1095  18.676  16.235  10.896
36111W        W 1096  39.658  43.754  11.679
36112W        W 1097  24.649  26.009   2.778
36113W        W 1098  18.982  11.958  12.804
36114W        W 1099  24.746  28.215   2.297
36115W        W 1100  38.267   0.300   1.325
36116W        W 1101  30.174  14.339   3.916
36117W        W 1102  15.024   6.393  12.099
36118W        W 1103  33.622   1.864   0.448
36119W        W 1104  33.387  25.564   4.060
36120W        W 1105  34.593   2.969   3.845
36121W        W 1106  11.948  18.988   4.585
36122W        W 1107  17.367   2.003  13.797
36123W        W 1108   9.433  18.537  13.835
36124W        W 1109   4.536  38.493  12.142
36125W        W 1110  44.758  20.065   2.156
36126W        W 1111  33.764  24.119  10.670
36127W        W 1112  42.335  43.865   3.684
36128W        W 1113  26.015  14.637  10.871
36129W        W 1114  43.329  30.156  14.350
36130W        W 1115  32.386  37.073   2.962
36131W        W 1116   0.692  22.320   2.457
36132W        W 1117   2.671   6.417  12.878
36133W        W 1118   1.644  44.994  10.445
36134W        W 1119  37.667  42.840   4.103
36135W        W 1120  44.348  14.691  12.611
36136W        W 1121  13.790  39.036  10.457
36137W        W 1122   3.246  42.603   3.512
36138W        W 1123  23.751  33.882  13.107
36139W        W 1124  33.030  28.687   3.304
36140W        W 1125  28.075  19.112  13.595
36141W        W 1126  22.061  35.455   2.404
36142W        W 1127  15.227  14.745  11.535
36143W        W 1128  41.030  39.538   3.734
36144W        W 1129  19.524  20.741  11.581
36145W        W 1130  31.499  30.680  12.440
36146W        W 1131   8.918   2.040  12.009
36147W        W 1132  26.572   5.449  11.452
36148W        W 1133  13.800  24.960   4.450
36149W        W 1134  34.173  41.991  12.821
36150W        W 1135  33.400   1.208   1.990
36151W        W 1136  17.491  41.947  11.670
36152W        W 1137  37.374  35.299  12.992
36153W        W 1138  36.412  30.842  12.697
36154W        W 1139  20.145  28.650   4.288
36155W        W 1140  17.030   7.906   3.666
36156W        W 1141  10.669  26.777  14.350
36157W        W 1142  44.812  26.312  14.494
36158W        W 1143  35.508  40.366   2.607
36159W        W 1144   3.163   9.775  13.939
36160W        W 1145  31.491  14.066   0.683
36161W        W 1146  17.836  43.353   1.272
36162W        W 1147  12.701  30.153   2.168
36163W        W 1148  15.157  36.541   3.596
36164W        W 1149   9.705  33.748   0.429
36165W        W 1150  21.310   9.880  12.081
36166W        W 1151  28.099  11.119   4.770
36167W        W 1152  31.505  14.064   0.156
36168W        W 1153  38.568  19.216   0.072
36169W        W 1154  39.570  29.553  13.388
36170W        W 1155  22.043  30.971  12.574
36171W        W 1156  19.785  33.112  14.324
36172W        W 1157  15.075  29.628  13.850
36173W        W 1158   8.202  41.321  12.043
36174W        W 1159  13.059   3.934   5.028
36175W        W 1160  37.439  16.729   1.766
36176W        W 1161   9.199  15.862   1.326
36177W        W 1162  43.094  25.461   3.176
36178W        W 1163  43.288   6.773   4.087
36179W        W 1164  39.855   2.851  11.752
36180W        W 1165  22.409   4.233  11.939
36181W        W 1166  14.167   0.736   1.472
36182W        W 1167  20.077   4.577   3.299
36183W        W 1168  36.176  37.882  11.952
36184W        W 1169   4.975  17.081  13.016
36185W        W 1170  12.674   1.265   3.054
36186W        W 1171  38.059  15.803   3.240
36187W        W 1172  18.315  13.858   2.261
36188W        W 1173   1.817  11.710   4.195
36189W        W 1174   1.295   6.913   3.309
36190W        W 1175  32.417   5.389   0.386
36191W        W 1176  25.749  20.205  11.639
36192W        W 1177   0.995  22.013   2.871
36193W        W 1178  17.243  31.180   4.771
36194W        W 1179   8.676  44.554  13.879
36195W        W 1180  36.078  42.877   1.566
36196W        W 1181  43.831  16.660   0.367
36197W        W 1182   2.333  11.820  12.997
36198W        W 1183  32.458   6.159   4.407
36199W        W 1184  20.690  34.642   0.570
36200W        W 1185  22.267  39.490  14.747
36201W        W 1186   9.310  20.623  14.039
36202W        W 1187  16.708  17.749  12.740
36203W        W 1188   7.493  30.901  11.191
36204W        W 1189  13.759  28.104  14.575
36205W        W 1190  12.917  35.576   2.650
36206W        W 1191   3.382   6.801  10.641
36207W        W 1192   6.230  15.173   4.527
36208W        W 1193  37.882  28.999   2.301
36209W        W 1194   0.884  11.149   1.333
36210W        W 1195  42.178   4.963  10.360
36211W        W 1196   7.219  32.119   0.940
36212W        W 1197  32.972   2.907   4.600
36213W        W 1198  25.853  39.790  14.617
36214W        W 1199  31.827  28.059  11.962
36215W        W 1200  44.390  26.974  12.509
36216W        W 1201   4.155  10.809   0.048
36217W        W 1202  34.152  29.218   2.763
36218W        W 1203  42.585  14.737  13.854
36219W        W 1204  26.206  41.371   0.883
36220W        W 1205  38.107   6.000   2.230
36221W        W 1206  34.735  39.042  11.225
36222W        W 1207  32.018  30.152  11.686
36223W        W 1208  38.440   1.801  11.912
36224W        W 1209  22.068  12.349   4.075
36225W        W 1210  21.655  12.235   2.905
36226W        W 1211   6.975  33.040   2.902
36227W        W 1212  38.153  14.675   1.884
36228W        W 1213   8.982  26.941  13.411
36229W        W 1214  19.475  29.871   1.800
36230W        W 1215  43.319  25.400  10.183
36231W        W 1216  19.662  34.048  13.364
36232W        W 1217  40.250   5.094  13.472
36233W        W 1218  13.396  20.109  11.787
36234W        W 1219  12.836  10.219  13.509
36235W        W 1220  38.333  19.050  12.421
36236W        W 1221  10.899  23.237   1.721
36237W        W 1222  39.530  22.092   1.214
36238W        W 1223   7.173   7.430   2.373
36239W        W 1224  23.193  14.679   1.888
36240W        W 1225  36.388  21.524   0.829
36241W        W 1226   7.239  23.640   2.364
36242W        W 1227  35.980  25.089  10.766
36243W        W 1228  18.568  24.540  13.511
36244W        W 1229  43.546  17.650   0.114
36245W        W 1230  26.638  25.941  11.906
36246W        W 1231  10.408  29.632   3.967
36247W        W 1232  11.649  22.285   1.366
36248W        W 1233  40.940  32.036   1.286
36249W        W 1234  26.450  15.211   1.605
36250W        W 1235  34.794   8.633  11.266
36251W        W 1236  28.724  30.417  12.574
36252W        W 1237   6.831  40.807   4.186
36253W        W 1238  12.608  13.570   3.716
36254W        W 1239  32.575  29.862  14.720
36255W        W 1240  44.605   2.571  13.509
36256W        W 1241  38.986  21.860  13.069
36257W        W 1242  11.370   5.739   3.191
36258W        W 1243  19.682  37.793  14.570
36259W        W 1244  39.601  40.593  13.184
36260W        W 1245  28.731  26.446   3.047
36261W        W 1246  34.998  26.564  11.940
36262W        W 1247  38.918  25.931   1.270
36263W        W 1248  44.022  18.819  11.408
36264W        W 1249  21.619   3.416  13.957
36265W        W 1250  23.558  34.906  14.420
36266W        W 1251  32.058  29.744   4.656
36267W        W 1252   4.708  13.268  12.832
36268W        W 1253   7.571  15.167   0.097
36269W        W 1254  17.030   8.156   0.993
36270W        W 1255  22.096  33.754  12.891
36271W        W 1256  12.047  14.132  11.058
36272W        W 1257  27.576  19.620   4.384
36273W        W 1258  33.627  17.976  14.092
36274W        W 1259  18.861  30.729   0.094
36275W        W 1260  37.993  37.835  11.485
36276W        W 1261  10.746   4.477  14.968
36277W        W 1262  13.547  39.950   0.514
36278W        W 1263  29.616  16.435   0.820
36279W        W 1264  10.753  21.555   4.377
36280W        W 1265  26.746  25.240  14.410
36281W        W 1266  29.649  42.966  14.911
36282W        W 1267  42.022  35.661   3.656
36283W        W 1268  19.282  44.891   0.526
36284W        W 1269  39.896  11.624   3.235
36285W        W 1270   8.720  23.160   1.534
36286W        W 1271   7.036  33.790  10.368
36287W        W 1272  44.301  31.614   3.661
36288W        W 1273  19.537  22.726  12.539
36289W        W 1274  43.814  11.566   2.256
36290W        W 1275   7.996  12.676   4.497
36291W        W 1276  31.386  28.765  14.871
36292W        W 1277  42.236  34.101   2.312
36293W        W 1278  32.568  36.330  10.766
36294W        W 1279   7.351   0.611  12.488
36295W        W 1280   0.668  20.757  10.931
36296W        W 1281   9.212  27.954   4.142
36297W        W 1282  33.612  35.882  12.932
36298W        W 1283  43.876  28.611   0.807
36299W        W 1284  28.423  12.203  13.899
36300W        W 1285   3.051  22.627  12.841
36301W        W 1286  31.014  23.793   4.770
36302W        W 1287  31.473  23.554   2.507
36303W        W 1288  13.593  10.418   3.196
36304W        W 1289   4.815   9.810   1.262
36305W        W 1290   0.039  35.736   3.303
36306W        W 1291   8.200  21.398  11.972
36307W        W 1292  17.173  17.520   3.303
36308W        W 1293  43.817  32.609  11.080
36309W        W 1294  10.281  32.472   1.263
36310W        W 1295  10.097  30.689   1.810
36311W        W 1296   3.816  17.141   2.269
36312W        W 1297  37.288  23.570   0.790
36313W        W 1298   0.743  22.069   4.668
36314W        W 1299  41.817  18.207   3.081
36315W        W 1300  16.634  30.029  11.870
36316W        W 1301  20.769  39.989   2.307
36317W        W 1302  18.572   0.388  12.146
36318W        W 1303   3.947   9.301  12.439
36319W        W 1304   5.722  25.881   4.347
36320W        W 1305   1.291  20.528  14.708
36321W        W 1306   6.834  24.954   3.095
36322W        W 1307   6.356  44.638   2.709
36323W        W 1308  31.344  18.157   4.786
36324W        W 1309  37.339  43.180   2.214
36325W        W 1310  21.262  23.590   3.910
36326W        W 1311  22.944  31.928   2.751
36327W        W 1312  25.362   7.377  13.479
36328W        W 1313  25.281  36.960   4.309
36329W        W 1314  44.236   4.106  11.305
36330W        W 1315   3.202  40.011  14.712
36331W        W 1316  20.496  22.252   3.105
36332W        W 1317  11.553  32.883  13.625
36333W        W 1318  19.788  44.896  13.071
36334W        W 1319  37.020  10.960  10.911
36335W        W 1320  24.659  25.277   2.133
36336W        W 1321  34.884  18.334   1.859
36337W        W 1322  10.112  19.719   1.809
36338W        W 1323  38.503  31.112   0.499
36339W        W 1324  23.089  43.809   2.317
36340W        W 1325  37.965   3.323  10.647
36341W        W 1326   6.841  37.798   4.594
36342W        W 1327  37.431   8.696   0.996
36343W        W 1328  42.142  21.718   5.454
36344W        W 1329  17.313  11.868   0.510
36345W        W 1330  18.806   3.870   2.838
36346W        W 1331  13.380  13.985   2.781
36347W        W 1332  38.629   5.974  13.520
36348W        W 1333  31.589  13.772   1.920
36349W        W 1334   8.690   8.860  10.947
36350W        W 1335  44.336   2.736   1.494
36351W        W 1336  19.185   9.717  14.841
36352W        W 1337   5.593  38.059  10.766
36353W        W 1338  10.122  16.843  10.353
36354W        W 1339   7.007  43.005   2.783
36355W        W 1340  25.255  42.399  11.098
36356W        W 1341  24.804   4.962   3.692
36357W        W 1342  30.059  44.488   2.644
36358W        W 1343   2.777  30.545   4.520
36359W        W 1344  20.058  29.016  11.941
36360W        W 1345  35.942  25.207  12.569
36361W        W 1346  10.712   8.945  13.443
36362W        W 1347  30.765  42.864   1.374
36363W        W 1348  42.294  39.805  10.778
36364W        W 1349   1.375   2.115   0.684
36365W        W 1350  29.116  15.303  10.492
36366W        W 1351   9.851  23.217  13.961
36367W        W 1352  35.013  26.011  11.192
36368W        W 1353  14.092  41.420   2.430
36369W        W 1354  18.823  25.433  11.089
36370W        W 1355  10.952  35.000   4.468
36371W        W 1356  41.698  12.335  11.055
36372W        W 1357   0.183  18.983   3.156
36373W        W 1358  35.604   2.995   0.878
36374W        W 1359  26.523  42.878  13.828
36375W        W 1360  25.041  12.438  13.856
36376W        W 1361   6.328  10.270   0.462
36377W        W 1362  27.422   6.830  14.321
36378W        W 1363  16.633  11.748  12.380
36379W        W 1364  32.467  16.185   3.788
36380W        W 1365  27.011  19.279   4.961
36381W        W 1366  26.299   8.918   2.633
36382W        W 1367  27.999  33.013  12.890
36383W        W 1368  24.058  27.593  14.383
36384W        W 1369  24.441   1.018   4.130
36385W        W 1370   7.547  12.816  11.997
36386W        W 1371  11.219   6.629  10.585
36387W        W 1372  10.074  12.558  11.202
36388W        W 1373  11.394  34.120   3.015
36389W        W 1374   2.834   9.141  14.376
36390W        W 1375  22.608  29.239   1.062
36391W        W 1376  27.067   9.663  12.555
36392W        W 1377   7.256   7.976   2.774
36393W        W 1378   4.611  34.372  12.303
36394W        W 1379   7.583  23.077   2.990
36395W        W 1380  30.486   7.561   2.783
36396W        W 1381  22.263   2.976   0.452
36397W        W 1382  23.169  27.110   0.193
36398W        W 1383  37.110  17.311  11.598
36399W        W 1384  44.987  35.974  10.173
36400W        W 1385  11.671  33.496   1.880
36401W        W 1386   0.021  36.321   1.991
36402W        W 1387   1.507  22.011   1.834
36403W        W 1388  29.152  35.501   4.592
36404W        W 1389  22.002  29.508  13.410
36405W        W 1390  44.723  30.102  12.958
36406W        W 1391  40.038  23.701   2.872
36407W        W 1392  31.826  27.100   4.131
36408W        W 1393  31.977   3.678  14.304
36409W        W 1394   9.908  40.202   0.833
36410W        W 1395   0.483  31.154  13.473
36411W        W 1396  12.781  41.529  12.952
36412W        W 1397  38.610   3.885  13.348
36413W        W 1398  16.363  39.618  11.215
36414W        W 1399  26.262  41.194   4.062
36415W        W 1400   3.958  18.097   4.654
36416W        W 1401  11.100  25.572   3.930
36417W        W 1402  36.080  22.002  13.849
36418W        W 1403   0.287  26.739   3.144
36419W        W 1404  34.913  27.034   5.031
36420W        W 1405  31.856   1.342  12.581
36421W        W 1406  35.832  24.204   2.303
36422W        W 1407  38.293  28.667   2.792
36423W        W 1408  27.671   9.350  12.149
36424W        W 1409  10.691  17.723  14.432
36425W        W 1410  14.034   9.235  12.354
36426W        W 1411  11.106  14.848   1.697
36427W        W 1412   0.172  30.464   1.869
36428W        W 1413  30.393  41.007  13.563
36429W        W 1414  33.501  22.001   4.575
36430W        W 1415  38.969  42.613   1.585
36431W        W 1416   9.608   2.392  13.028
36432W        W 1417  38.484  26.893   4.028
36433W        W 1418  17.824   2.379   3.312
36434W        W 1419  34.471  30.432   1.715
36435W        W 1420   0.038   6.937   4.531
36436W        W 1421   2.069  10.679   4.342
36437W        W 1422  23.730  10.086  12.579
36438W        W 1423  12.661   6.402  12.017
36439W        W 1424  14.150  34.794   2.469
36440W        W 1425   9.187  44.931   4.739
36441W        W 1426  14.306  29.573  12.517
36442W        W 1427  15.654  18.310   3.833
36443W        W 1428   0.220  26.176   4.276
36444W        W 1429   1.287   5.072   2.671
36445W        W 1430   7.704  33.506  13.524
36446W        W 1431  19.436  21.914  14.891
36447W        W 1432  42.632  34.248  10.829
36448W        W 1433  44.856   8.336   1.595
36449W        W 1434  18.607  28.834   3.171
36450W        W 1435  32.030  18.961   4.629
36451W        W 1436  25.145   0.288  11.425
36452W        W 1437  21.481   6.897   0.434
36453W        W 1438  33.560  29.111   3.583
36454W        W 1439  33.204  16.750   2.882
36455W        W 1440  38.329  43.826   4.553
36456W        W 1441  13.298  30.671  10.603
36457W        W 1442  34.799   0.339   2.786
36458W        W 1443  44.588  11.573  12.946
36459W        W 1444  23.560  32.059   4.571
36460W        W 1445  12.788  11.787   3.202
36461W        W 1446  42.455  26.685  13.778
36462W        W 1447   6.113  11.361   2.881
36463W        W 1448   5.579  34.088  13.804
36464W        W 1449  43.332   3.774  11.729
36465W        W 1450  18.470  29.459   4.012
36466W        W 1451   5.252  29.980  14.097
36467W        W 1452  33.968  33.730   3.258
36468W        W 1453  23.626   2.490  11.717
36469W        W 1454  18.136  29.755   1.877
36470W        W 1455  41.303  39.174  12.022
36471W        W 1456   1.840  26.110  11.673
36472W        W 1457  21.003  28.626   2.154
36473W        W 1458  20.711  36.349   3.723
36474W        W 1459  43.419  25.465  12.542
36475W        W 1460  22.260   0.301   2.530
36476W        W 1461  32.506  13.667   2.936
36477W        W 1462  17.515  20.130  14.047
36478W        W 1463  18.765  31.976  13.272
36479W        W 1464   8.229  37.152  14.885
36480W        W 1465  29.378  27.225   3.747
36481W        W 1466  37.807   9.190  11.511
36482W        W 1467  27.242  18.830   0.296
36483W        W 1468  19.558  26.586  13.404
36484W        W 1469   1.313  22.751   3.617
36485W        W 1470  32.124  38.644   4.053
36486W        W 1471  44.498  36.628   2.753
36487W        W 1472  21.073  15.367   2.181
36488W        W 1473   0.389  20.553  14.873
36489W        W 1474  35.031  24.600   1.219
36490W        W 1475  44.109   9.878  10.284
36491W        W 1476  26.128  24.573   1.433
36492W        W 1477   7.651  42.839   4.360
36493W        W 1478  18.827  11.486   3.321
36494W        W 1479  41.926  22.957   1.781
36495W        W 1480  27.528   7.681   3.719
36496W        W 1481   5.728  44.758  13.460
36497W        W 1482  41.546   3.165   1.300
36498W        W 1483  10.076   6.100   1.314
36499W        W 1484  27.957  37.845  10.279
36500W        W 1485  42.742  29.404  12.834
36501W        W 1486  39.936  38.374   2.728
36502W        W 1487  15.924  37.994  10.548
36503W        W 1488  18.532  34.777   2.942
36504W        W 1489   6.035  17.274  13.523
36505W        W 1490  33.573  42.905   0.745
36506W        W 1491  10.350  38.509  10.758
36507W        W 1492  33.527  10.894  13.268
36508W        W 1493  21.465  44.481  11.860
36509W        W 1494  26.139  11.061  12.970
36510W        W 1495  20.056  14.714  12.514
36511W        W 1496  10.145  22.531  10.635
36512W        W 1497  36.442  36.804   0.671
36513W        W 1498  16.788  40.745  12.496
36514W        W 1499  36.983  44.138   2.535
36515W        W 1500  12.197  27.211   5.521
36516W        W 1501  42.022  29.439   2.838
36517W        W 1502  16.689  18.717  14.486
36518W        W 1503   3.903  30.432   3.709
36519W        W 1504  28.734   2.625   2.115
36520W        W 1505  18.562  22.420   2.608
36521W        W 1506  41.571  22.125  12.878
36522W        W 1507   3.819  30.231  12.503
36523W        W 1508  44.725  26.918   4.249
36524W        W 1509  12.685  21.153  14.773
36525W        W 1510   8.183  16.332   3.333
36526W        W 1511  11.599  17.988   3.871
36527W        W 1512  43.482  23.657   1.231
36528W        W 1513  23.453  26.508  12.124
36529W        W 1514  32.340   6.669   4.226
36530W        W 1515  34.766  24.526   3.956
36531W        W 1516   9.277  40.028   3.186
36532W        W 1517   3.355  13.182   1.943
36533W        W 1518  16.638   7.139   4.530
36534W        W 1519  10.914   1.427  10.232
36535W        W 1520  33.949  44.019  14.111
36536W        W 1521  10.581  44.227  12.690
36537W        W 1522   7.389   9.361  12.016
36538W        W 1523  43.015  22.242   3.288
36539W        W 1524  33.877  15.828  14.927
36540W        W 1525   5.677  39.583  11.645
36541W        W 1526  42.294   9.674   0.195
36542W        W 1527  39.387  33.099   2.601
36543W        W 1528  36.758  13.846  12.554
36544W        W 1529   2.159  30.518   1.680
36545W        W 1530  28.452  18.791  13.433
36546W        W 1531  21.194  35.563   4.890
36547W        W 1532  32.094  36.760   3.290
36548W        W 1533  17.858   6.927  14.314
36549W        W 1534  25.848  31.126   1.323
36550W        W 1535   6.387  32.324   3.658
36551W        W 1536  31.608   4.816  10.649
36552W        W 1537   2.125  19.886   1.616
36553W        W 1538  10.807  41.220   2.116
36554W        W 1539  10.742   4.480  11.015
36555W        W 1540  22.185  39.859  12.082
36556W        W 1541  20.118  32.456  13.749
36557W        W 1542  15.613  13.220  13.386
36558W        W 1543  44.208   7.242   4.082
36559W        W 1544  41.570  23.995   3.519
36560W        W 1545  33.591  38.431   4.578
36561W        W 1546  31.379   0.864  12.967
36562W        W 1547  34.418   2.374  10.469
36563W        W 1548  23.106  39.142  13.076
36564W        W 1549  31.375  10.190   2.714
36565W        W 1550   2.892  37.602  11.135
36566W        W 1551   0.725  38.628  10.804
36567W        W 1552  18.098   3.250   1.635
36568W        W 1553  25.620  43.957  12.466
36569W        W 1554  38.774  35.980   0.891
36570W        W 1555  12.293  43.714   3.591
36571W        W 1556  32.054  38.417  14.801
36572W        W 1557   2.149  27.087  12.557
36573W        W 1558  18.839  24.166  10.631
36574W        W 1559  35.487  39.601  12.068
36575W        W 1560  28.458   9.716  12.977
36576W        W 1561  32.727   0.338   0.148
36577W        W 1562  38.507  35.419  14.755
36578W        W 1563  11.436  24.281  13.910
36579W        W 1564  36.452  41.590   2.624
36580W        W 1565  42.328  31.020  13.341
36581W        W 1566  13.614  22.481   0.165
36582W        W 1567  34.413  34.959  13.415
36583W        W 1568  30.609  42.471   2.312
36584W        W 1569   3.462  29.307  11.640
36585W        W 1570  44.454  24.272   3.690
36586W        W 1571  30.053  25.727  14.923
36587W        W 1572  39.038  40.515   3.578
36588W        W 1573  12.527  25.495   3.340
36589W        W 1574  33.550  42.806  11.613
36590W        W 1575  29.035  33.474   0.651
36591W        W 1576  21.495  25.474   4.710
36592W        W 1577  14.542   3.301   1.242
36593W        W 1578   1.496   2.799  12.454
36594W        W 1579  44.004   4.362  14.890
36595W        W 1580   0.977   1.208   0.498
36596W        W 1581  17.838  15.671   4.606
36597W        W 1582  34.036  21.065   3.050
36598W        W 1583  35.858  28.939  10.752
36599W        W 1584   4.962  11.896   4.035
36600W        W 1585  21.812   6.471   0.398
36601W        W 1586   0.327  44.056  10.580
36602W        W 1587  13.592  23.666   1.365
36603W        W 1588   9.606  28.810  12.955
36604W        W 1589  35.010   9.596   3.365
36605W        W 1590  38.215   7.707  12.509
36606W        W 1591  35.846  34.495  13.859
36607W        W 1592  18.555  26.563   3.888
36608W        W 1593  33.731  12.844  10.285
36609W        W 1594   9.834  38.217  13.879
36610W        W 1595  33.022  20.852  12.041
36611W        W 1596  19.929  44.226  13.566
36612W        W 1597   4.330   3.777   0.941
36613W        W 1598  20.603  29.692   1.244
36614W        W 1599   6.505  19.140   3.642
36615W        W 1600  36.701   9.322   9.855
36616W        W 1601  20.605  20.889   5.549
36617W        W 1602  10.264  16.629   4.209
36618W        W 1603  23.895  40.214   4.338
36619W        W 1604  39.245  20.060  10.762
36620W        W 1605  40.991   7.441  11.206
36621W        W 1606   3.491  18.033   4.847
36622W        W 1607  22.742  20.121   9.796
36623W        W 1608  39.288  18.281  12.621
36624W        W 1609  37.458  42.045  12.968
36625W        W 1610  42.932  29.084   1.652
36626W        W 1611  16.131  25.611  13.414
36627W        W 1612  37.267  32.088   3.213
36628W        W 1613   9.854   1.709   3.172
36629W        W 1614   1.612   7.452  13.963
36630W        W 1615  22.888  36.260   0.815
36631W        W 1616  24.141  42.471   1.916
36632W        W 1617  30.555  25.920   3.195
36633W        W 1618   2.005   7.025   2.918
36634W        W 1619  19.851  10.803   1.539
36635W        W 1620  11.434   2.758   2.589
36636W        W 1621  32.113  41.887  13.051
36637W        W 1622  35.730  16.609   3.586
36638W        W 1623   9.834  13.831  11.093
36639W        W 1624  17.561  37.614  14.757
36640W        W 1625  39.388  21.953  12.447
36641W        W 1626  38.351  23.417   3.323
36642W        W 1627  27.923  12.651   0.275
36643W        W 1628  33.337  34.682   3.637
36644W        W 1629  27.513  11.627  14.010
36645W        W 1630  22.693  27.546   0.794
36646W        W 1631  19.041  14.938   0.281
36647W        W 1632  22.299  30.706   3.231
36648W        W 1633  43.494  26.098   0.312
36649W        W 1634  26.358  32.132   3.706
36650W        W 1635  29.195  30.172  12.580
36651W        W 1636   7.889  32.953   1.059
36652W        W 1637  25.019   5.437   2.266
36653W        W 1638  12.764  12.210  13.572
36654W        W 1639  12.340  20.469  11.981
36655W        W 1640  11.925  11.688   3.814
36656W        W 1641  17.578  11.181   4.166
36657W        W 1642  32.457   0.341   0.654
36658W        W 1643  27.503  43.862   4.841
36659W        W 1644   2.611  11.257   0.759
36660W        W 1645  13.046   5.696  12.989
36661W        W 1646  42.482   7.589   0.850
36662W        W 1647  27.822  29.448  12.074
36663W        W 1648  27.202  11.042  12.885
36664W        W 1649  18.227  26.116   3.824
36665W        W 1650  16.764   7.918   3.196
36666W        W 1651  16.358  21.922  12.480
36667W        W 1652   3.367  19.529  13.462
36668W        W 1653  22.012  18.070  12.419
36669W        W 1654  38.621   2.109  10.983
36670W        W 1655  29.601   5.066  13.707
36671W        W 1656  29.730  25.408  11.131
36672W        W 1657  33.039  42.298  10.907
36673W        W 1658  36.899   4.279  11.744
36674W        W 1659  32.275  16.915  10.990
36675W        W 1660  33.476  28.884   0.767
36676W        W 1661   1.253   4.214  13.464
36677W        W 1662  43.425  24.333   3.796
36678W        W 1663  16.234  33.088   3.778
36679W        W 1664  24.190  14.584   2.299
36680W        W 1665   1.720  25.156  11.895
36681W        W 1666  34.078  11.826   0.316
36682W        W 1667  30.377  19.517   0.331
36683W        W 1668  23.194  16.363  12.432
36684W        W 1669   5.263  21.777   1.975
36685W        W 1670  23.670  10.201  13.067
36686W        W 1671  43.239  12.576  12.999
36687W        W 1672  42.386  22.045  13.534
36688W        W 1673   1.391  19.653  12.956
36689W        W 1674  18.665  36.793  12.829
36690W        W 1675  18.463   4.424   4.899
36691W        W 1676  11.382  32.766   3.417
36692W        W 1677  14.624   8.307  13.470
36693W        W 1678  19.303  30.592   3.174
36694W        W 1679   1.992  36.040  12.467
36695W        W 1680  23.143  36.456  13.378
36696W        W 1681  22.177  24.652   3.022
36697W        W 1682   1.551  42.725  12.645
36698W        W 1683  11.365  13.599   0.315
36699W        W 1684  38.795  13.045   5.115
36700W        W 1685  32.886   1.541  11.989
36701W        W 1686   1.889   4.705  11.609
36702W        W 1687  18.030  12.965   3.795
36703W        W 1688  18.187  40.958  11.729
36704W        W 1689  20.173  22.773   1.386
36705W        W 1690  39.317  32.673  11.163
36706W        W 1691  42.921   5.440  12.519
36707W        W 1692  40.779  40.155   0.111
36708W        W 1693  41.438  23.035  13.126
36709W        W 1694  20.067   6.584   4.147
36710W        W 1695   2.988   7.945  13.554
36711W        W 1696  25.159  13.372   0.364
36712W        W 1697  25.985   3.035  14.976
36713W        W 1698  14.164  42.442   2.849
36714W        W 1699   3.987   2.559  14.890
36715W        W 1700  31.608  44.697   1.282
36716W        W 1701  29.569   0.541  14.849
36717W        W 1702  19.754  41.386  13.559
36718W        W 1703  11.804  22.285  10.841
36719W        W 1704   0.089  44.766   1.640
36720W        W 1705  13.347   7.290  10.790
36721W        W 1706  35.062  27.872   0.421
36722W        W 1707   6.366  14.814  11.164
36723W        W 1708  16.340   7.467   1.211
36724W        W 1709  31.544  38.034   0.895
36725W        W 1710   4.687  16.539  10.157
36726W        W 1711  37.927  23.070  10.451
36727W        W 1712  33.331  14.976   3.748
36728W        W 1713  10.436  39.249  13.076
36729W        W 1714  25.751  22.589   4.597
36730W        W 1715   1.308  30.165   0.441
36731W        W 1716   4.808  12.831   3.932
36732W        W 1717  35.646  10.052  14.997
36733W        W 1718  17.500  24.691   3.299
36734W        W 1719  29.088  10.237  10.651
36735W        W 1720  10.439  23.953   5.111
36736W        W 1721  40.364  43.081  11.627
36737W        W 1722  18.607   3.547   2.485
36738W        W 1723  25.543  43.092  14.547
36739W        W 1724  11.265   8.864   0.904
36740W        W 1725  19.739  24.760  13.793
36741W        W 1726  25.226  33.991   3.250
36742W        W 1727  30.454  32.964  14.352
36743W        W 1728  41.945  28.138  11.688
36744W        W 1729   3.028  14.345  11.542
36745W        W 1730  31.127  18.681   3.677
36746W        W 1731  41.943  35.739  10.544
36747W        W 1732   5.311  16.615   0.808
36748W        W 1733  23.549  22.120  14.032
36749W        W 1734  18.739   2.738  10.631
36750W        W 1735  40.889   2.941  14.395
36751W        W 1736  27.045  34.338   3.204
36752W        W 1737  22.751   1.404   9.607
36753W        W 1738  15.115  15.496  14.868
36754W        W 1739  10.605  28.609  14.763
36755W        W 1740   5.736  37.329   1.054
36756W        W 1741  32.352  26.660  13.924
36757W        W 1742  20.605  38.535  14.368
36758W        W 1743   8.793  29.931  14.879
36759W        W 1744   1.917  18.061  13.896
36760W        W 1745   1.337  20.295  11.267
36761W        W 1746  34.818  21.181  11.600
36762W        W 1747   3.394   4.303  12.354
36763W        W 1748  18.770  43.434   2.831
36764W        W 1749   9.361  19.244   0.272
36765W        W 1750  28.350  26.629   1.602
36766W        W 1751  26.604  17.083   0.455
36767W        W 1752  14.134   0.391  10.495
36768W        W 1753  15.598  25.982   5.461
36769W        W 1754  32.531   4.592   1.527
36770W        W 1755  27.434   2.163  14.039
36771W        W 1756  43.129  37.116   0.401
36772W        W 1757   0.349  16.680   2.370
36773W        W 1758  26.249  31.148  12.038
36774W        W 1759  33.415  14.657   3.335
36775W        W 1760  33.447  39.412   4.336
36776W        W 1761  20.246  10.171  13.859
36777W        W 1762  13.813  21.017  14.633
36778W        W 1763  37.888  35.545  13.920
36779W        W 1764   4.977  37.039   4.513
36780W        W 1765   5.180  28.667  12.439
36781W        W 1766  27.235  11.279   1.858
36782W        W 1767  20.113   9.611  13.051
36783W        W 1768  11.470  15.564  10.911
36784W        W 1769   1.992   2.779  11.892
36785W        W 1770   8.393   7.141   0.715
36786W        W 1771   3.426  17.097   1.260
36787W        W 1772   9.281  20.098   1.935
36788W        W 1773  43.892  27.347  13.788
36789W        W 1774  27.110  34.401   0.332
36790W        W 1775  19.269   2.237   1.135
36791W        W 1776  36.858  15.296  13.874
36792W        W 1777  18.248  34.267  10.840
36793W        W 1778  33.932   8.415   1.153
36794W        W 1779  42.831  42.998  10.567
36795W        W 1780  27.204   7.635  12.035
36796W        W 1781  40.378  23.007  12.111
36797W        W 1782   7.964  41.756  14.432
36798W        W 1783  40.487  21.026  14.331
36799W        W 1784   4.647   1.984  14.777
36800W        W 1785  44.390   9.341   2.739
36801W        W 1786   2.946   2.383  10.837
36802W        W 1787  38.947   3.888   3.722
36803W        W 1788  31.555  18.787   1.466
36804W        W 1789   3.828  19.964  10.725
36805W        W 1790  29.993   9.730   4.705
36806W        W 1791   8.238  44.003  14.764
36807W        W 1792  37.111  35.648   0.277
36808W        W 1793  13.748  27.706   0.254
36809W        W 1794  29.637  14.496  11.971
36810W        W 1795  31.903   4.181   3.743
36811W        W 1796  14.093  35.002   0.937
36812W        W 1797  36.976  31.979   3.656
36813W        W 1798  44.340   5.417  10.709
36814W        W 1799  29.139  10.194   0.507
36815W        W 1800  44.762  24.968  14.493
36816W        W 1801  20.239  17.938   4.840
36817W        W 1802   2.862  31.565   4.064
36818W        W 1803  32.339  31.679   2.289
36819W        W 1804  21.070  42.202  12.946
36820W        W 1805  21.147   4.924  10.859
36821W        W 1806  20.947  37.885   4.206
36822W        W 1807  30.041  35.484   4.512
36823W        W 1808  32.424  15.228  11.112
36824W        W 1809  37.283  13.820   3.653
36825W        W 1810  33.141   1.314   0.916
36826W        W 1811  14.884   8.830  11.211
36827W        W 1812   4.287  18.305   1.355
36828W        W 1813  31.935   5.377   2.695
36829W        W 1814  26.593  20.033  11.225
36830W        W 1815  41.896   3.974   2.374
36831W        W 1816  30.495   6.243   0.971
36832W        W 1817   5.895  39.490  14.508
36833W        W 1818   1.947   8.318   2.837
36834W        W 1819  31.641  22.218  13.650
36835W        W 1820  26.968   4.911  14.672
36836W        W 1821  36.580  15.213  14.769
36837W        W 1822   2.414  25.185  13.825
36838W        W 1823   1.576  26.761   3.417
36839W        W 1824  34.039   9.825   4.475
36840W        W 1825  25.347  31.631   3.050
36841W        W 1826   7.624  18.663   4.222
36842W        W 1827  32.825  44.369   3.284
36843W        W 1828  28.446  36.863   2.657
36844W        W 1829  38.398  24.788  10.228
36845W        W 1830  20.109  14.634  14.530
36846W        W 1831  43.412   6.112  10.733
36847W        W 1832  30.503  14.534   0.930
36848W        W 1833  39.496  19.079   2.963
36849W        W 1834  40.814  22.032  12.335
36850W        W 1835  42.344  32.883   2.715
36851W        W 1836  28.593  34.554   4.227
36852W        W 1837  36.525  19.776  13.065
36853W        W 1838  22.207  32.564  10.572
36854W        W 1839  20.946   9.550  13.446
36855W        W 1840  29.458  23.110   0.959
36856W        W 1841  14.482  29.295   3.183
36857W        W 1842  43.897   7.905  14.314
36858W        W 1843  27.196   3.838   3.665
36859W        W 1844   5.275  28.634  11.597
36860W        W 1845   6.757  15.804   1.540
36861W        W 1846  31.389  43.003  11.624
36862W        W 1847  10.856  11.087  12.900
36863W        W 1848  44.361  41.777  10.997
36864W        W 1849  34.506   5.290  12.486
36865W        W 1850  15.910  30.328   5.462
36866W        W 1851   8.653   2.526  12.913
36867W        W 1852  26.126  31.351  12.516
36868W        W 1853  14.609  15.997   1.570
36869W        W 1854  25.300  30.191   1.417
36870W        W 1855  43.423  18.963  13.081
36871W        W 1856   7.420  32.987  10.574
36872W        W 1857  30.529  11.953  11.217
36873W        W 1858  13.684  38.657  11.689
36874W        W 1859  15.821  17.784  13.529
36875W        W 1860  12.534   0.914   3.587
36876W        W 1861   0.035  28.004  14.428
36877W        W 1862  37.645  34.995  14.896
36878W        W 1863   9.210  41.410  11.703
36879W        W 1864  25.238  11.364   3.222
36880W        W 1865   7.428   6.796   3.098
36881W        W 1866  24.145  23.439  11.241
36882W        W 1867  12.733   0.830  10.607
36883W        W 1868  39.020  14.739   4.464
36884W        W 1869  33.552  34.210   2.039
36885W        W 1870  25.572  22.769   0.339
36886W        W 1871  12.360  17.137  13.472
36887W        W 1872  28.144  14.252  11.089
36888W        W 1873  16.518  29.996   0.826
36889W        W 1874  11.597  19.283   4.378
36890W        W 1875   6.676  26.033   2.890
36891W        W 1876  23.719  26.018   2.388
36892W        W 1877  31.105  32.979  13.322
36893W        W 1878  19.218  27.562  11.497
36894W        W 1879  30.563   8.315   5.081
36895W        W 1880  30.078  25.576   4.093
36896W        W 1881  43.849  43.187   1.697
36897W        W 1882  17.366  28.744  14.588
36898W        W 1883   1.703  41.802  14.806
36899W        W 1884  12.740   9.175   4.632
36900W        W 1885  42.377   4.397  14.361
36901W        W 1886  15.765  24.816   4.146
36902W        W 1887   1.902  20.447  11.475
36903W        W 1888   3.731  25.430  11.343
36904W        W 1889  38.965  25.930  13.753
36905W        W 1890  34.447  33.682  13.831
36906W        W 1891  20.643  33.809   0.949
36907W        W 1892   0.721  16.707  12.495
36908W        W 1893  34.100   5.045   0.014
36909W        W 1894   7.128  27.437   4.900
36910W        W 1895  10.556  12.691  11.114
36911W        W 1896  38.471  31.488   2.850
36912W        W 1897  27.679  18.279   4.166
36913W        W 1898  37.902  15.773   2.291
36914W        W 1899  22.297   7.427   4.185
36915W        W 1900  30.054  44.058  12.569
36916W        W 1901   9.212  22.444   1.867
36917W        W 1902  29.730   8.255   2.749
36918W        W 1903  32.639  43.487   3.641
36919W        W 1904  34.560   5.189   3.707
36920W        W 1905   4.142  14.029  10.835
36921W        W 1906  38.884  26.754  12.073
36922W        W 1907   1.923   4.497   1.488
36923W        W 1908  44.386  21.170   4.100
36924W        W 1909  43.429  41.308   1.260
36925W        W 1910  11.778  32.693   4.580
36926W        W 1911   1.533  10.726   4.449
36927W        W 1912  10.775   8.856  12.854
36928W        W 1913   8.467  31.922   1.237
36929W        W 1914   7.242   4.241   2.252
36930W        W 1915   6.682  40.543  13.051
36931W        W 1916  38.123   7.634  10.230
36932W        W 1917   0.672  36.154   4.531
36933W        W 1918   8.305  16.064   1.403
36934W        W 1919  40.930  11.639  12.366
36935W        W 1920  40.949   2.761   1.879
36936W        W 1921  36.957  17.139  14.412
36937W        W 1922  25.010  21.004   0.766
36938W        W 1923  32.138  43.814   3.275
36939W        W 1924  18.314  11.460   1.593
36940W        W 1925  41.054  33.941  13.844
36941W        W 1926  32.977  17.367  12.016
36942W        W 1927  33.773  31.460   0.999
36943W        W 1928  41.324  16.356   1.883
36944W        W 1929  37.647   5.294   2.704
36945W        W 1930   6.838   1.848  13.791
36946W        W 1931   3.251  31.008  11.130
36947W        W 1932  33.428  20.209   4.048
36948W        W 1933  32.660  14.839  12.952
36949W        W 1934  26.034  33.187  10.964
36950W        W 1935  39.447  16.162   1.057
36951W        W 1936  43.535  38.528  13.787
36952W        W 1937  35.873  23.169  13.410
36953W        W 1938  18.112   9.277   2.442
36954W        W 1939  42.019  13.119  14.362
36955W        W 1940  43.309  18.876  13.799
36956W        W 1941  21.595  41.033  13.365
36957W        W 1942  15.126   4.718   3.088
36958W        W 1943  19.084   4.394   1.164
36959W        W 1944  34.809  43.049  12.441
36960W        W 1945  23.189  33.534   0.220
36961W        W 1946  26.620   3.736  13.723
36962W        W 1947   9.822   8.207   1.014
36963W        W 1948  10.774   0.921  13.859
36964W        W 1949  43.893  40.824  10.866
36965W        W 1950  41.730  15.795   1.349
36966W        W 1951  44.633  16.341   0.763
36967W        W 1952   3.945  28.155  13.963
36968W        W 1953  29.974   8.607  12.579
36969W        W 1954   1.369   9.136   3.661
36970W        W 1955  18.634  12.927   2.890
36971W        W 1956  20.011  34.643  11.522
36972W        W 1957  34.953  40.885  12.935
36973W        W 1958  22.443   0.950  13.547
36974W        W 1959  20.029   1.209   1.264
36975W        W 1960  35.007  30.668  13.234
36976W        W 1961   2.401  10.223  13.911
36977W        W 1962  13.615  44.892  14.892
36978W        W 1963   8.457  22.791  11.561
36979W        W 1964  14.791  25.990  12.475
36980W        W 1965  36.032  38.598  10.435
36981W        W 1966  15.781   5.239   2.309
36982W        W 1967  25.233  36.557   1.537
36983W        W 1968   6.939  42.396  10.888
36984W        W 1969  43.520  25.299   4.903
36985W        W 1970  43.390  23.300   4.854
36986W        W 1971   4.189  32.494   0.744
36987W        W 1972  29.262  35.356   4.095
36988W        W 1973  40.591  32.404  11.624
36989W        W 1974  35.454  38.925  14.284
36990W        W 1975  22.865   1.497   2.679
36991W        W 1976  36.572   9.503  11.598
36992W        W 1977   0.261  37.151  12.430
36993W        W 1978  12.342  34.450   0.368
36994W        W 1979  37.129  11.813  14.711
36995W        W 1980  17.966  38.318  12.041
36996W        W 1981  13.551  29.492   2.845
36997W        W 1982   1.989  12.666  11.748
36998W        W 1983  16.962  32.997   0.024
36999W        W 1984  11.443  33.106   1.285
37000W        W 1985  20.672  33.643   3.680
37001W        W 1986   7.968  37.930   3.406
37002W        W 1987  14.057  12.201  14.780
37003W        W 1988   1.023  31.952   3.638
37004W        W 1989  33.495  33.553  13.545
37005W        W 1990  25.669   2.385  13.364
37006W        W 1991  25.587  27.628   4.099
37007W        W 1992  12.364  15.560   2.650
37008W        W 1993  17.711  33.638   2.668
37009W        W 1994  33.697  16.971  13.859
37010W        W 1995  11.411  26.515  11.892
37011W        W 1996  41.805  21.576  13.908
37012W        W 1997  26.043  27.735   4.255
37013W        W 1998  22.917  21.903   0.665
37014W        W 1999  36.484  42.343  12.859
37015W        W 2000  13.413   5.832  11.147
37016W        W 2001   1.988  26.487   4.164
37017W        W 2002   5.919  35.413  10.927
37018W        W 2003  24.795  31.108  13.049
37019W        W 2004  24.777   6.885   1.896
37020W        W 2005  43.725  43.037   2.619
37021W        W 2006  26.549  40.948   3.676
37022W        W 2007  14.143   0.018  14.410
37023W        W 2008  22.208  27.440  13.845
37024W        W 2009  43.337  12.161   4.261
37025W        W 2010  32.929  25.981   0.984
37026W        W 2011  39.008   4.689   4.357
37027W        W 2012  12.327   8.303  11.882
37028W        W 2013  37.611   0.755   5.001
37029W        W 2014  27.164   6.272  11.755
37030W        W 2015   2.597  20.717  14.563
37031W        W 2016   3.655   3.354   0.454
37032W        W 2017   0.051   2.466  12.002
37033W        W 2018  30.211  38.028   4.224
37034W        W 2019  32.927  36.872   3.738
37035W        W 2020  39.941  27.890   4.382
37036W        W 2021  29.781  39.561   2.704
37037W        W 2022  15.756  26.236  10.368
37038W        W 2023  39.383  40.595  11.101
37039W        W 2024  39.007  27.969   2.753
37040W        W 2025  39.957  30.364   1.472
37041W        W 2026  43.485  18.513   0.807
37042W        W 2027  32.007  19.479   4.763
37043W        W 2028  11.907  28.463   2.234
37044W        W 2029  43.182   3.131  13.469
37045W        W 2030  12.793  11.763  12.094
37046W        W 2031   1.699  17.122   4.551
37047W        W 2032  38.792  23.649  13.820
37048W        W 2033  16.006  31.987   3.270
37049W        W 2034  15.584  37.455   4.701
37050W        W 2035  33.303   5.065  11.001
37051W        W 2036  37.572   6.345  14.862
37052W        W 2037  40.694  18.196  12.039
37053W        W 2038  31.675  24.435  14.003
37054W        W 2039   4.922  23.892  11.458
37055W        W 2040  16.910  38.554   2.864
37056W        W 2041  36.921   0.712  10.728
37057W        W 2042  34.560   7.177   4.049
37058W        W 2043  22.531   3.680   1.204
37059W        W 2044  24.919   0.389   0.325
37060W        W 2045  28.458  37.586   3.156
37061W        W 2046  18.788  14.863  13.928
37062W        W 2047  39.364  28.213   0.384
37063W        W 2048  38.988  30.833   1.759
37064W        W 2049   5.225  23.884   3.276
37065W        W 2050   7.842  30.110   4.090
37066W        W 2051  25.196  43.768   1.309
37067W        W 2052  38.446  35.695  10.769
37068W        W 2053  29.820  31.042  14.440
37069W        W 2054  21.307  27.862   2.142
37070W        W 2055  34.485  42.098  13.864
37071W        W 2056  13.042  28.190  13.937
37072W        W 2057  40.918   9.797   1.469
37073W        W 2058   8.933  23.457  12.167
37074W        W 2059  40.346  31.939  10.036
37075W        W 2060  21.568  30.693   0.681
37076W        W 2061   0.904  32.467   3.616
37077W        W 2062   4.153   5.914  10.696
37078W        W 2063  29.667   0.368  13.836
37079W        W 2064   0.369  19.717  10.414
37080W        W 2065   2.333  31.943  12.088
37081W        W 2066  22.737  25.614   1.237
37082W        W 2067  34.593   5.979   4.665
37083W        W 2068  30.889  10.105  14.391
37084W        W 2069  15.823  35.497   0.795
37085W        W 2070  21.844  34.934  14.983
37086W        W 2071  23.075   6.786  14.410
37087W        W 2072  22.740  14.794   2.171
37088W        W 2073  42.857  42.043  11.649
37089W        W 2074  13.574  44.443   1.341
37090W        W 2075  43.845  42.915   2.133
37091W        W 2076  20.251  37.293   3.824
37092W        W 2077   9.681  36.870  14.015
37093W        W 2078  44.842  20.437  13.498
37094W        W 2079  16.454  35.146  11.525
37095W        W 2080   4.934  24.726  11.597
37096W        W 2081  18.045  28.952  12.016
37097W        W 2082  13.875  15.761   2.900
37098W        W 2083  22.126  22.720  10.042
37099W        W 2084  37.638   0.635  14.404
37100W        W 2085   9.082  20.674  13.581
37101W        W 2086  33.678   7.148  11.755
37102W        W 2087  40.778  18.313  12.990
37103W        W 2088  17.299  29.329   2.711
37104W        W 2089  10.177  34.553  11.258
37105W        W 2090  23.194  43.780  10.523
37106W        W 2091  27.154   2.781   1.108
37107W        W 2092  44.865  27.450  11.392
37108W        W 2093  14.833  32.929  14.361
37109W        W 2094  35.849  43.724  10.885
37110W        W 2095  31.897  25.505  13.086
37111W        W 2096  40.913  25.107   2.522
37112W        W 2097  14.142  15.404  11.084
37113W        W 2098  41.492  40.281   1.557
37114W        W 2099  18.649  17.210   2.264
37115W        W 2100  33.640   2.717  10.978
37116W        W 2101  17.070  35.030  10.651
37117W        W 2102   1.975   8.508  14.148
37118W        W 2103  34.849  24.903   2.019
37119W        W 2104  14.825   6.842  13.774
37120W        W 2105   2.472  20.949   1.832
37121W        W 2106  40.218  15.995  10.709
37122W        W 2107  37.934   0.757  12.854
37123W        W 2108  18.133  14.274  13.801
37124W        W 2109   6.973  28.511  13.127
37125W        W 2110  15.759  20.126   4.479
37126W        W 2111  31.552  34.034  10.507
37127W        W 2112  39.934  44.472  13.089
37128W        W 2113  43.958  27.008   4.788
37129W        W 2114  26.441  36.552  11.678
37130W        W 2115   4.491   1.134   1.322
37131W        W 2116  22.629  19.539   2.371
37132W        W 2117  10.823  20.170   0.406
37133W        W 2118   9.749  14.475   4.516
37134W        W 2119  23.853  39.015  13.284
37135W        W 2120  22.196   1.386   2.635
37136W        W 2121  44.638  17.732  11.118
37137W        W 2122   5.915   2.993  13.390
37138W        W 2123   4.824  39.055   1.981
37139W        W 2124  12.523  28.143  13.900
37140W        W 2125  43.432  42.712  14.501
37141W        W 2126   9.802  26.257   4.223
37142W        W 2127  44.056   1.697   0.232
37143W        W 2128  23.203  12.770  12.624
37144W        W 2129  12.798  30.200   4.136
37145W        W 2130  10.483  15.835  11.122
37146W        W 2131  34.243  28.552  14.681
37147W        W 2132  40.790  28.489   3.553
37148W        W 2133  26.631  41.299  12.167
37149W        W 2134  37.523   3.486  10.403
37150W        W 2135  25.021  42.340  14.853
37151W        W 2136  15.178  15.075   0.193
37152W        W 2137   6.618  37.967   3.758
37153W        W 2138  21.101  41.300   1.130
37154W        W 2139  39.291   5.859   1.381
37155W        W 2140  26.263  33.988  10.173
37156W        W 2141   5.498  32.877   1.719
37157W        W 2142  13.146   2.277  13.839
37158W        W 2143   4.468  37.168   2.883
37159W        W 2144  19.541   0.988   1.352
37160W        W 2145  21.708  26.249   0.924
37161W        W 2146  10.807   3.974  11.001
37162W        W 2147   4.760  16.724  13.479
37163W        W 2148  16.704  24.600   3.861
37164W        W 2149  33.781  10.719  13.922
37165W        W 2150  10.309   0.964   2.898
37166W        W 2151  26.097  21.063   4.156
37167W        W 2152  43.946   6.163  12.781
37168W        W 2153  13.831  35.519  12.385
37169W        W 2154  26.148  42.894   0.710
37170W        W 2155   6.834  13.434   3.091
37171W        W 2156  41.192   6.430   2.586
37172W        W 2157  40.171   2.669  14.000
37173W        W 2158  41.811   4.753   4.204
37174W        W 2159  30.606  31.232   1.298
37175W        W 2160  10.507   8.247  10.286
37176W        W 2161  13.805   0.675  13.930
37177W        W 2162   6.839  13.957   3.113
37178W        W 2163  29.774  39.894  13.054
37179W        W 2164   2.513  30.222   1.440
37180W        W 2165   6.254  26.688   2.867
37181W        W 2166   0.161   4.193   4.162
37182W        W 2167  34.420  38.666   4.936
37183W        W 2168  13.600  21.249  13.102
37184W        W 2169  32.600  29.410  13.256
37185W        W 2170  16.258  23.983   1.430
37186W        W 2171   1.305  13.350  11.913
37187W        W 2172   1.602  31.176   1.264
37188W        W 2173  34.132  23.042   3.980
37189W        W 2174  26.648  43.095   1.894
37190W        W 2175  22.604  17.665   1.820
37191W        W 2176  11.298   4.923   2.901
37192W        W 2177  23.551  41.284   1.743
37193W        W 2178   0.695  31.883   1.953
37194W        W 2179  28.513   1.463   0.364
37195W        W 2180  21.188   6.168  10.662
37196W        W 2181   5.297   1.934   0.572
37197W        W 2182  36.297  41.420   5.102
37198W        W 2183  42.680  25.904   5.207
37199W        W 2184  21.623  24.052  12.479
37200W        W 2185  37.512  39.414   0.841
37201W        W 2186  44.235   3.493  10.300
37202W        W 2187  24.370   3.943  12.829
37203W        W 2188  22.437  27.141   4.071
37204W        W 2189  16.202   8.143  11.218
37205W        W 2190  19.566  39.556  12.974
37206W        W 2191  44.511  28.752   3.456
37207W        W 2192  44.741  23.780  11.134
37208W        W 2193  16.354  44.976  12.610
37209W        W 2194  35.157  12.092   1.881
37210W        W 2195  29.823   6.998   4.595
37211W        W 2196  16.108  21.749   0.801
37212W        W 2197   5.280  32.596  11.567
37213W        W 2198   3.594  23.162   2.284
37214W        W 2199  12.708   8.197   4.263
37215W        W 2200  14.554  15.679   3.200
37216W        W 2201  39.039  41.433   0.181
37217W        W 2202  11.353  14.033   1.870
37218W        W 2203  35.984  42.187  13.548
37219W        W 2204  34.645  31.480   2.152
37220W        W 2205  34.834  36.934   3.722
37221W        W 2206   1.545   9.655   1.678
37222W        W 2207   0.523  29.427   3.273
37223W        W 2208  14.932  10.816  13.531
37224W        W 2209  30.410  20.991   4.090
37225W        W 2210  18.854  18.884  14.044
37226W        W 2211  38.025  28.187   4.202
37227W        W 2212  18.046  38.324   4.853
37228W        W 2213  17.575  15.420   2.046
37229W        W 2214  12.625  38.792  11.591
37230W        W 2215   5.159  18.956  10.274
37231W        W 2216   2.894   3.415   1.779
37232W        W 2217  32.275   4.560   2.771
37233W        W 2218  22.798   1.106  10.030
37234W        W 2219  15.653   8.798   2.973
37235W        W 2220  14.562   4.451   4.268
37236W        W 2221   1.875  14.315   3.389
37237W        W 2222  18.589  39.486  12.588
37238W        W 2223   7.207   9.817   0.086
37239W        W 2224   0.697  34.857  11.160
37240W        W 2225  32.142  11.302   2.291
37241W        W 2226  36.574  37.321   3.689
37242W        W 2227  32.584  16.150   4.820
37243W        W 2228   5.759   0.396   1.041
37244W        W 2229   7.258  37.915   2.805
37245W        W 2230  11.840  19.203   1.665
37246W        W 2231  33.045  35.512  10.684
37247W        W 2232  35.787  23.326   0.754
37248W        W 2233  29.917  30.245   9.833
37249W        W 2234  36.336  42.510  13.837
37250W        W 2235  19.476  26.651   0.405
37251W        W 2236   2.888  14.633  12.427
37252W        W 2237   2.500  30.497   4.967
37253W        W 2238  36.670  26.685  10.582
37254W        W 2239  22.941  11.332   4.458
37255W        W 2240  26.537  26.402  13.896
37256W        W 2241   1.482   3.452   5.006
37257W        W 2242  35.758  17.739  13.216
37258W        W 2243   5.311  11.160  14.751
37259W        W 2244  36.412  18.687   1.181
37260W        W 2245  12.054   1.216   1.894
37261W        W 2246  11.655  29.550   2.477
37262W        W 2247   6.645   2.431  11.310
37263W        W 2248  29.947  41.259   2.797
37264W        W 2249   7.129   9.755   4.454
37265W        W 2250  24.029  33.350  11.595
37266W        W 2251  31.528  32.475   3.285
37267W        W 2252  18.459  33.094   0.820
37268W        W 2253  40.886   6.876  11.596
37269W        W 2254  27.815  41.716  11.578
37270W        W 2255  35.458  40.910   4.247
37271W        W 2256  34.108   3.490  14.992
37272W        W 2257  22.059  36.594  13.172
37273W        W 2258  40.013  29.566  13.062
37274W        W 2259   6.381   7.784   1.796
37275W        W 2260   4.247  34.358  10.986
37276W        W 2261  33.393  18.716   1.759
37277W        W 2262  14.331   9.192   4.110
37278W        W 2263  12.711  16.144   0.222
37279W        W 2264   5.604  44.406  14.482
37280W        W 2265  24.594   5.112   2.354
37281W        W 2266  31.140  13.354  12.210
37282W        W 2267  13.584  25.485   4.470
37283W        W 2268   2.574  29.381  11.522
37284W        W 2269  32.345  22.007  13.146
37285W        W 2270   7.668   6.171   2.308
37286W        W 2271  37.551  17.263  13.253
37287W        W 2272  25.009  15.749   4.543
37288W        W 2273  40.374  24.485   3.465
37289W        W 2274  32.789  38.774   2.777
37290W        W 2275  23.493   9.176   3.799
37291W        W 2276  15.146  31.124  11.420
37292W        W 2277  14.347  40.084   1.732
37293W        W 2278  41.855  42.969   1.056
37294W        W 2279  18.822  23.178   1.769
37295W        W 2280  25.909  12.390  13.588
37296W        W 2281  22.037  44.889  12.576
37297W        W 2282  44.261   0.459   1.754
37298W        W 2283  12.352  39.291  13.625
37299W        W 2284  29.490  17.635  14.479
37300W        W 2285   6.289   8.870   3.114
37301W        W 2286   4.794   5.637   3.608
37302W        W 2287  13.385   2.803  12.446
37303W        W 2288  10.162  42.515   0.003
37304W        W 2289  44.026  44.953  12.538
37305W        W 2290  41.416  42.418  10.618
37306W        W 2291  33.667  24.584  11.959
37307W        W 2292   8.187  14.086  12.451
37308W        W 2293  24.107  40.943   3.771
37309W        W 2294  32.317  17.311   0.285
37310W        W 2295  30.694  39.379  14.421
37311W        W 2296   3.297  31.708   3.840
37312W        W 2297   7.886  35.890   4.112
37313W        W 2298  32.474   2.751  11.435
37314W        W 2299  30.211   6.742   0.030
37315W        W 2300  29.484   9.652  11.145
37316W        W 2301  26.441  16.147  13.249
37317W        W 2302  38.931  35.981  11.886
37318W        W 2303  33.207   1.179  14.333
37319W        W 2304  26.000  34.110   1.177
37320W        W 2305   5.513  27.906  12.064
37321W        W 2306  24.679   3.584  12.613
37322W        W 2307   1.332   2.250   3.602
37323W        W 2308  32.980  30.178  12.486
37324W        W 2309  43.406   6.255   0.433
37325W        W 2310  44.879  11.764   1.420
37326W        W 2311   2.236  14.158   3.719
37327W        W 2312  22.587  17.569  13.071
37328W        W 2313   5.393  41.856   0.903
37329W        W 2314  37.427  40.869   3.354
37330W        W 2315  18.706  13.559   0.361
37331W        W 2316   3.276  31.584  14.370
37332W        W 2317  16.798   0.632  14.339
37333W        W 2318  43.017   5.790  10.740
37334W        W 2319  26.777  38.932   1.491
37335W        W 2320  15.251  20.509   4.403
37336W        W 2321   0.358  14.150  13.895
37337W        W 2322   9.618  12.867   0.326
37338W        W 2323   4.568  16.760  12.996
37339W        W 2324  30.806  21.654  13.881
37340W        W 2325   3.705  18.801   0.861
37341W        W 2326  31.396   5.183   2.760
37342W        W 2327  20.781  21.068  13.035
37343W        W 2328  17.703  16.586   5.853
37344W        W 2329  37.042   8.771  11.447
37345W        W 2330  33.997  14.038  11.390
37346W        W 2331  31.862  28.012   1.902
37347W        W 2332   0.781  31.072  13.032
37348W        W 2333  31.088  15.941   2.718
37349W        W 2334  23.411   5.428   2.892
37350W        W 2335  32.737  29.589   4.222
37351W        W 2336  12.359   8.817  13.794
37352W        W 2337  13.666   6.366   4.951
37353W        W 2338  13.107  10.660   0.365
37354W        W 2339  30.590  30.076   1.951
37355W        W 2340  32.477  24.959  11.084
37356W        W 2341  14.686  43.404  14.117
37357W        W 2342   9.799  38.832   2.805
37358W        W 2343  40.521  10.907   1.846
37359W        W 2344  34.504  37.320  12.730
37360W        W 2345  29.629  21.558   1.746
37361W        W 2346   5.247  25.213  12.402
37362W        W 2347  15.403  25.072  14.865
37363W        W 2348  44.701  26.630   1.899
37364W        W 2349  40.943  33.819   2.779
37365W        W 2350  26.930  22.202   0.701
37366W        W 2351  38.497  20.754   0.890
37367W        W 2352  24.713   2.979   0.805
37368W        W 2353  43.019  22.109  11.551
37369W        W 2354   4.713  41.391  14.482
37370W        W 2355  26.151  25.120   4.072
37371W        W 2356  39.259  38.302   2.179
37372W        W 2357  21.297  40.848  14.830
37373W        W 2358  18.984  27.823  12.718
37374W        W 2359  27.201  10.773   1.754
37375W        W 2360   5.540   8.574  12.817
37376W        W 2361  38.548  28.565   0.411
37377W        W 2362   1.492  37.051  13.850
37378W        W 2363  42.030  35.322  13.431
37379W        W 2364  14.618  22.782   3.344
37380W        W 2365  44.276  37.485  14.263
37381W        W 2366   9.548   9.978   3.736
37382W        W 2367  34.959  43.040  14.459
37383W        W 2368   3.469  25.982  13.488
37384W        W 2369   6.647  21.627   3.341
37385W        W 2370  37.444  10.262   0.443
37386W        W 2371  20.963   6.716   5.130
37387W        W 2372   7.181  35.824   2.765
37388W        W 2373  36.751   2.731  12.127
37389W        W 2374   0.990  18.245   3.220
37390W        W 2375  32.562  17.651   3.634
37391W        W 2376  40.714   1.306  14.644
37392W        W 2377  42.539  31.453  13.086
37393W        W 2378  17.260  27.625   0.662
37394W        W 2379  32.948  10.162   1.048
37395W        W 2380   1.523  22.243  13.453
37396W        W 2381  24.854  32.203  10.423
37397W        W 2382  27.990  40.873  11.493
37398W        W 2383  36.988  11.306  12.583
37399W        W 2384   4.871  10.461   3.804
37400W        W 2385  20.771  13.562   2.145
37401W        W 2386   6.901  10.136  14.789
37402W        W 2387  42.814   7.434  14.655
37403W        W 2388   7.155  25.677  14.023
37404W        W 2389   5.715   9.928   1.193
37405W        W 2390  36.470  14.273  12.388
37406W        W 2391  23.664  18.019  11.921
37407W        W 2392  25.381  18.793   4.930
37408W        W 2393  28.129   6.439   2.768
37409W        W 2394  17.507  29.819  12.097
37410W        W 2395  40.093  42.890   4.922
37411W        W 2396  23.125  19.692   3.143
37412W        W 2397  42.510  15.495   3.727
37413W        W 2398  34.504  27.160   0.782
37414W        W 2399  39.926  29.510  14.960
37415W        W 2400   9.403  34.382   2.916
37416W        W 2401  12.103   1.560  14.785
37417W        W 2402  13.951   6.874   0.946
37418W        W 2403   9.328  26.372   3.098
37419W        W 2404   9.841  44.152  14.436
37420W        W 2405  37.268  25.564  13.572
37421W        W 2406   2.264  11.227  14.766
37422W        W 2407  40.056   5.961   2.945
37423W        W 2408  23.851   1.451   3.695
37424W        W 2409  21.980  24.238   0.728
37425W        W 2410  41.772  37.440  13.538
37426W        W 2411  29.370   9.140  11.026
37427W        W 2412  27.346  40.001   1.853
37428W        W 2413  44.911  15.763  11.180
37429W        W 2414  41.296   7.878  12.087
37430W        W 2415  35.785  30.305   2.819
37431W        W 2416  14.763  35.874  12.571
37432W        W 2417  20.975   0.491  13.144
37433W        W 2418  19.240  43.990   3.280
37434W        W 2419  39.488   5.315  11.913
37435W        W 2420  28.196  16.323   3.629
37436W        W 2421  29.322  11.299  12.538
37437W        W 2422  30.147   3.896  12.546
37438W        W 2423  16.236  25.282   1.982
37439W        W 2424  16.012   2.832  13.572
37440W        W 2425   6.386  21.065  12.043
37441W        W 2426  17.613  18.095   0.525
37442W        W 2427  37.080  40.532  14.454
37443W        W 2428  24.715  12.258  14.759
37444W        W 2429  32.686   2.573  13.465
37445W        W 2430  27.064  19.063  10.712
37446W        W 2431   5.818  29.649  10.601
37447W        W 2432   6.952  42.379  11.423
37448W        W 2433  34.239  20.200   1.390
37449W        W 2434  24.255  15.557  11.144
37450W        W 2435  21.035  40.433   0.109
37451W        W 2436  43.671   3.796   1.631
37452W        W 2437  18.664  27.616   4.864
37453W        W 2438  28.771   7.117  11.877
37454W        W 2439  36.693   7.839   2.747
37455W        W 2440  37.239   8.812  10.117
37456W        W 2441  23.736  12.692  12.870
37457W        W 2442  36.538  39.807   4.231
37458W        W 2443  13.647  24.950   3.584
37459W        W 2444  38.006   1.936  13.541
37460W        W 2445  42.952  28.481  13.966
37461W        W 2446  38.573  40.666  12.074
37462W        W 2447   2.896  35.325   0.954
37463W        W 2448  32.191  33.967   0.325
37464W        W 2449  39.551  34.409   2.669
37465W        W 2450   2.961  32.061   4.218
37466W        W 2451  34.111   0.369   1.659
37467W        W 2452  20.978  12.797  12.280
37468W        W 2453  11.837  43.053  13.079
37469W        W 2454   6.407  31.926  13.078
37470W        W 2455  34.555  28.873  14.975
37471W        W 2456  21.117  39.048   1.408
37472W        W 2457  12.615  20.938   1.243
37473W        W 2458  14.825  18.702  13.097
37474W        W 2459  24.474  35.307   4.138
37475W        W 2460   3.365  43.651  12.509
37476W        W 2461  39.091   6.761  13.917
37477W        W 2462  10.771   7.898  10.558
37478W        W 2463  30.916  15.077  12.891
37479W        W 2464  35.952  24.454   4.650
37480W        W 2465   7.401  27.597   2.819
37481W        W 2466   0.652  42.059  11.090
37482W        W 2467  21.557  24.612   3.386
37483W        W 2468   4.663  26.193   0.807
37484W        W 2469   8.223   8.808  12.543
37485W        W 2470  37.838   3.439  12.467
37486W        W 2471   5.955  43.214   1.400
37487W        W 2472  18.084   2.442   2.692
37488W        W 2473  13.915  10.606  13.562
37489W        W 2474  14.201   2.834   0.473
37490W        W 2475  10.359  30.872  13.574
37491W        W 2476  38.106  10.919   2.588
37492W        W 2477  36.758  18.140   0.170
37493W        W 2478   0.410  32.598  14.082
37494W        W 2479   7.774  34.050  11.399
37495W        W 2480   1.856  43.678  12.113
37496W        W 2481  36.616  11.817  11.937
37497W        W 2482  40.945  31.830   2.795
37498W        W 2483  16.299  39.110  11.161
37499W        W 2484  30.567  39.519   0.769
37500W        W 2485  12.367  36.245   1.419
37501W        W 2486  44.380  36.372  13.434
37502W        W 2487  16.302   1.737   2.417
37503W        W 2488  29.748  18.280  13.538
37504W        W 2489   2.274  29.479   0.282
37505W        W 2490  43.009  26.823  10.288
37506W        W 2491  29.355   1.689  13.984
37507W        W 2492  38.385  36.179  13.222
37508W        W 2493  11.721  23.571   0.854
37509W        W 2494  39.336   5.766   0.248
37510W        W 2495  22.192  33.781  14.299
37511W        W 2496  36.335   1.011   4.144
37512W        W 2497  22.933  34.420   3.298
37513W        W 2498   0.226  19.518   4.052
37514W        W 2499  39.621  34.385   3.551
37515W        W 2500  41.063  11.328   4.290
37516W        W 2501  22.125  31.951  10.816
37517W        W 2502  38.469   0.916   0.405
37518W        W 2503   0.331  10.969   0.733
37519W        W 2504  25.185  37.779   3.730
37520W        W 2505  32.985  22.015  12.416
37521W        W 2506  20.748  39.564  11.215
37522W        W 2507  26.064  17.640   4.749
37523W        W 2508  30.956  26.501   3.645
37524W        W 2509  31.426  18.729  13.119
37525W        W 2510  32.874  26.537  13.108
37526W        W 2511  18.582  15.474  12.043
37527W        W 2512  20.826  30.055  13.389
37528W        W 2513  43.023  21.708   4.521
37529W        W 2514  36.788  13.757   3.664
37530W        W 2515  34.336  32.273   0.801
37531W        W 2516  30.093  31.975  10.807
37532W        W 2517  14.252  17.108  10.694
37533W        W 2518   0.275   2.917  12.944
37534W        W 2519  30.580  38.506   4.423
37535W        W 2520  21.679  10.191   3.702
37536W        W 2521   7.705  34.833   5.517
37537W        W 2522  17.707  18.696  14.023
37538W        W 2523  34.574  16.528  14.593
37539W        W 2524   5.191  26.009   2.792
37540W        W 2525  41.892  25.591  13.767
37541W        W 2526  17.081  12.312   0.724
37542W        W 2527  27.546  25.428   0.088
37543W        W 2528  22.160   2.968   3.620
37544W        W 2529  26.789   9.401   5.097
37545W        W 2530  27.460   7.139   1.405
37546W        W 2531   4.890  34.974  13.855
37547W        W 2532   3.352  37.047  10.423
37548W        W 2533   8.881   0.239  11.402
37549W        W 2534  28.981  39.042   0.120
37550W        W 2535  35.629   3.009  13.978
37551W        W 2536  29.383   1.828   4.640
37552W        W 2537  39.058  33.016  14.881
37553W        W 2538  28.911  31.825   1.708
37554W        W 2539  12.168  24.198  10.389
37555W        W 2540  10.838  29.922  10.978
37556W        W 2541   7.331  22.629  12.472
37557W        W 2542   9.744   0.207   4.186
37558W        W 2543  37.347  38.934  11.941
37559W        W 2544  17.680  43.706   3.646
37560W        W 2545  43.401  26.192  14.357
37561W        W 2546  18.762  24.907   2.643
37562W        W 2547   8.397  19.264   0.242
37563W        W 2548  35.099  33.829  11.596
37564W        W 2549   3.733  21.648  12.380
37565W        W 2550  23.686  14.780  14.817
37566W        W 2551   3.910   0.514   0.779
37567W        W 2552  42.320  22.567  13.438
37568W        W 2553  16.074  13.561  12.538
37569W        W 2554   1.772  25.203  12.401
37570W        W 2555  22.690  36.687  14.598
37571W        W 2556  38.721  41.375   3.269
37572W        W 2557   0.203   2.167   2.610
37573W        W 2558  23.123  18.257  14.328
37574W        W 2559   2.882  22.568   1.240
37575W        W 2560   6.860  11.872   4.563
37576W        W 2561  32.361  16.176  11.641
37577W        W 2562  19.130  34.570   4.894
37578W        W 2563   7.229  19.593   4.464
37579W        W 2564   0.428  16.181  14.459
37580W        W 2565  35.532   6.058  12.818
37581W        W 2566  30.034  18.535  12.414
37582W        W 2567  29.492  34.046  10.359
37583W        W 2568  42.814  34.159  14.773
37584W        W 2569   8.920  37.026   0.454
37585W        W 2570  39.778  30.019  13.256
37586W        W 2571   8.173   7.714   1.821
37587W        W 2572  15.161  13.125   0.280
37588W        W 2573   0.264  28.264  13.902
37589W        W 2574   2.830   6.160   2.368
37590W        W 2575  36.551  37.251   1.407
37591W        W 2576   4.310  23.241  13.119
37592W        W 2577  38.380  16.344  13.348
37593W        W 2578  30.453   7.425  12.769
37594W        W 2579  27.568  37.781   2.259
37595W        W 2580  33.931  37.647   2.808
37596W        W 2581   8.906  22.159   4.194
37597W        W 2582   2.875  26.848   3.811
37598W        W 2583  42.523   2.116   2.305
37599W        W 2584  24.408   4.414  13.083
37600W        W 2585  18.693  17.222  11.734
37601W        W 2586  35.453  43.274  14.103
37602W        W 2587  42.390  24.233   1.808
37603W        W 2588  23.993  17.666   1.719
37604W        W 2589  34.495  29.975   1.932
37605W        W 2590   1.256  43.834   1.879
37606W        W 2591  40.562  23.924  13.910
37607W        W 2592  12.192  42.692   3.785
37608W        W 2593   2.297  36.270  14.398
37609W        W 2594  12.058   6.724   0.471
37610W        W 2595   3.711   0.694   1.499
37611W        W 2596   5.515  37.987   2.008
37612W        W 2597   8.333  33.172   3.018
37613W        W 2598  25.069  10.025  12.481
37614W        W 2599   3.528   2.063   5.041
37615W        W 2600  33.485  30.623   0.392
37616W        W 2601  11.730  32.590  14.028
37617W        W 2602  35.350  23.896  14.346
37618W        W 2603  11.288  20.578   2.393
37619W        W 2604  26.066   9.014   2.196
37620W        W 2605  13.482  13.534  10.941
37621W        W 2606  15.695  16.180   0.049
37622W        W 2607  32.746  33.213   1.042
37623W        W 2608  44.142  33.191   3.015
37624W        W 2609  19.910  26.812  11.514
37625W        W 2610  37.016   8.995   0.864
37626W        W 2611  20.717  28.442   3.052
37627W        W 2612  44.376  21.685   1.951
37628W        W 2613  41.874  34.363  11.322
37629W        W 2614  38.977   8.568   0.476
37630W        W 2615  11.774  23.033   3.135
37631W        W 2616  17.793  21.165  11.010
37632W        W 2617  39.468  28.447   0.844
37633W        W 2618  29.682  33.703   5.154
37634W        W 2619  37.449   4.899   4.961
37635W        W 2620  38.831   2.989  13.585
37636W        W 2621  36.459  18.081   4.588
37637W        W 2622  27.645  34.995   4.036
37638W        W 2623  20.232   8.940   2.430
37639W        W 2624  25.461  16.258  12.593
37640W        W 2625  11.264  20.323  13.143
37641W        W 2626  40.112  26.165   2.865
37642W        W 2627  19.589  23.282  14.614
37643W        W 2628  18.563  22.625   0.712
37644W        W 2629   6.692  39.436   3.708
37645W        W 2630  23.752   0.498  13.366
37646W        W 2631  41.572  21.686   3.237
37647W        W 2632  24.276  41.429   3.766
37648W        W 2633  44.824  14.083   1.760
37649W        W 2634   2.351  31.077  11.542
37650W        W 2635   1.760   4.844   2.400
37651W        W 2636  11.257  17.253   4.785
37652W        W 2637  43.814  41.676   1.789
37653W        W 2638  32.436   8.841   3.178
37654W        W 2639  30.002  44.727  14.269
37655W        W 2640   3.373  10.861  11.556
37656W        W 2641  36.174   8.027   4.162
37657W        W 2642  43.737   2.265   2.383
37658W        W 2643  40.549  11.714  14.456
37659W        W 2644  21.795  19.802   0.359
37660W        W 2645  22.464  11.761   3.269
37661W        W 2646   8.478  38.085  11.908
37662W        W 2647  17.836  20.851  13.464
37663W        W 2648  32.936  13.411  10.716
37664W        W 2649   2.663  23.264   4.119
37665W        W 2650  36.463  11.937   1.727
37666W        W 2651  10.147   0.508  14.371
37667W        W 2652  39.028   6.749  13.396
37668W        W 2653   0.836  19.521   2.822
37669W        W 2654  14.911  35.881   0.477
37670W        W 2655  21.215  25.391   2.360
37671W        W 2656  36.266  12.675   0.670
37672W        W 2657  26.440  38.145   0.461
37673W        W 2658   8.172  37.572   4.582
37674W        W 2659  32.577  20.195   0.270
37675W        W 2660  24.003  10.820  14.200
37676W        W 2661  23.845  27.945  12.445
37677W        W 2662  21.429  26.734  12.061
37678W        W 2663  35.311   4.733   0.755
37679W        W 2664   2.946   8.394  14.875
37680W        W 2665   2.270  12.128   1.156
37681W        W 2666  42.304   8.452   1.196
37682W        W 2667  31.686   1.486  14.390
37683W        W 2668   8.945  12.140  12.917
37684W        W 2669   5.143  31.523   4.498
37685W        W 2670  42.757  30.410  10.682
37686W        W 2671  15.310  35.116  14.927
37687W        W 2672  23.737  28.075  14.833
37688W        W 2673  34.792  40.031   3.566
37689W        W 2674  43.778  18.499   2.699
37690W        W 2675  40.806  32.348   2.751
37691W        W 2676  24.704  18.109   4.820
37692W        W 2677  22.951  25.009  13.956
37693W        W 2678  32.012  15.836   0.651
37694W        W 2679  35.452  37.088  14.560
37695W        W 2680  36.480   3.998  13.893
37696W        W 2681  17.787  24.956   0.569
37697W        W 2682  41.888  37.404  11.212
37698W        W 2683  22.707  13.329  10.752
37699W        W 2684   4.318   6.098   3.339
37700W        W 2685   7.888  15.999   3.678
37701W        W 2686  21.146  30.458   3.221
37702W        W 2687  20.068  14.744   2.903
37703W        W 2688  41.680  13.853  13.897
37704W        W 2689  42.412  44.009  12.616
37705W        W 2690  19.377  42.410  13.307
37706W        W 2691  43.431   7.273   1.166
37707W        W 2692  32.653  29.884   3.575
37708W        W 2693   1.713   4.787   1.886
37709W        W 2694  20.983  15.592   0.290
37710W        W 2695   3.136  34.855  11.538
37711W        W 2696  33.870  25.781   1.880
37712W        W 2697  18.412  17.415   2.691
37713W        W 2698  41.177  29.028  11.178
37714W        W 2699  22.517  21.621  13.502
37715W        W 2700  17.701   2.495  13.044
37716W        W 2701  38.738  11.756   3.361
37717W        W 2702  41.287  30.959  14.565
37718W        W 2703  25.496  23.252  13.124
37719W        W 2704  44.219  34.956  13.809
37720W        W 2705  32.584  41.349  10.731
37721W        W 2706   9.273   0.880   0.891
37722W        W 2707  20.650  19.581   3.813
37723W        W 2708  22.218  13.568   3.738
37724W        W 2709  35.970  18.681   3.155
37725W        W 2710  38.825   2.929   1.195
37726W        W 2711  28.008   9.891   4.155
37727W        W 2712  31.506   4.172  13.729
37728W        W 2713  37.482  14.471   2.371
37729W        W 2714  11.723   2.760   1.182
37730W        W 2715  19.838  11.244   0.274
37731W        W 2716   8.087  17.730  10.809
37732W        W 2717   0.246   9.672  12.954
37733W        W 2718  33.924   9.247   0.428
37734W        W 2719  26.051   5.440  11.494
37735W        W 2720  17.417  28.222  14.569
37736W        W 2721  30.317  33.004   3.203
37737W        W 2722  34.898  29.983  10.735
37738W        W 2723   2.438  22.107   2.729
37739W        W 2724  44.049  28.845  11.140
37740W        W 2725  11.245   0.447  14.929
37741W        W 2726  29.546  40.019   2.685
37742W        W 2727  28.517  41.031  12.611
37743W        W 2728  20.841  27.012   0.010
37744W        W 2729  37.406  14.892   4.305
37745W        W 2730  43.051  24.927  13.901
37746W        W 2731   9.890   7.320   3.717
37747W        W 2732  33.428  35.127   4.456
37748W        W 2733   7.248   5.961   1.764
37749W        W 2734  32.480   8.076  13.875
37750W        W 2735   0.746  44.045  14.415
37751W        W 2736   9.098  41.236   4.526
37752W        W 2737   0.018  32.501  12.471
37753W        W 2738  14.907   6.386  14.968
37754W        W 2739  16.572   4.456   2.365
37755W        W 2740   0.595   4.387  14.953
37756W        W 2741  10.176  25.106   4.667
37757W        W 2742  24.375  40.121   4.160
37758W        W 2743   9.751   8.387  10.680
37759W        W 2744  37.353  36.916   2.675
37760W        W 2745  24.844  37.467   1.364
37761W        W 2746  14.221   2.667  12.850
37762W        W 2747  10.300  44.048  14.269
37763W        W 2748  44.976  17.230   1.166
37764W        W 2749  16.414  20.517   1.575
37765W        W 2750  18.780  38.305   3.626
37766W        W 2751  17.883  11.478   0.438
37767W        W 2752  13.179  17.824  11.227
37768W        W 2753  21.847  27.088   3.110
37769W        W 2754  39.848  41.260   2.225
37770W        W 2755  38.527  43.745   2.211
37771W        W 2756  11.988  27.118  11.066
37772W        W 2757   8.364  24.498   3.963
37773W        W 2758  14.207  28.656  14.888
37774W        W 2759  41.810  21.347  12.089
37775W        W 2760   5.596  31.228   4.287
37776W        W 2761  40.994  13.948  11.628
37777W        W 2762  38.909   1.654  12.068
37778W        W 2763   8.444  16.531  12.922
37779W        W 2764  24.543   5.619   2.425
37780W        W 2765  15.789   6.610   2.835
37781W        W 2766  15.101  24.003   0.750
37782W        W 2767  42.489  42.359   3.682
37783W        W 2768  34.878  11.082   3.117
37784W        W 2769  40.035  19.561   0.754
37785W        W 2770  35.241  28.598   2.750
37786W        W 2771  41.745  43.431   3.215
37787W        W 2772   7.404  21.189   2.409
37788W        W 2773  20.022  11.744   3.817
37789W        W 2774  31.375  17.115  12.784
37790W        W 2775   9.990  39.532  14.388
37791W        W 2776   1.673   3.284   1.280
37792W        W 2777   1.050  40.352   2.190
37793W        W 2778   2.844  20.116  11.428
37794W        W 2779  43.336   0.501   4.516
37795W        W 2780  41.052   7.483  13.358
37796W        W 2781   0.286  22.615   3.632
37797W        W 2782  28.844  32.315   4.549
37798W        W 2783  26.951  44.995   9.755
37799W        W 2784  24.085   3.264  10.713
37800W        W 2785  34.063  37.549   1.919
37801W        W 2786   6.603  33.476   2.627
37802W        W 2787  15.881  29.016  11.582
37803W        W 2788  44.306  34.824  11.118
37804W        W 2789  42.070  42.868  14.503
37805W        W 2790  43.916  26.689  13.279
37806W        W 2791  12.217  29.871  14.896
37807W        W 2792  28.199  15.483  11.466
37808W        W 2793  21.586  36.707  13.959
37809W        W 2794  34.720  16.967   1.626
37810W        W 2795  36.537   7.844  14.805
37811W        W 2796   3.876   1.411  12.610
37812W        W 2797  42.478   1.248   1.687
37813W        W 2798   5.386  26.572   0.346
37814W        W 2799  41.199  15.670  14.359
37815W        W 2800   7.402   2.827  13.359
37816W        W 2801  11.474  15.258  14.805
37817W        W 2802  11.173  17.549  14.564
37818W        W 2803  30.142  28.857  13.077
37819W        W 2804  16.746  14.659  13.255
37820W        W 2805  23.441   7.105  13.937
37821W        W 2806   5.498  11.736  13.054
37822W        W 2807  18.687  21.135  13.962
37823W        W 2808  42.349  24.522   2.648
37824W        W 2809  26.679  21.447   2.645
37825W        W 2810  34.828  10.426  13.315
37826W        W 2811  39.814  30.533  13.527
37827W        W 2812   7.152  33.410  10.697
37828W        W 2813   0.878  17.818  14.270
37829W        W 2814   1.578  39.086   3.287
37830W        W 2815  33.606  12.424   2.841
37831W        W 2816  16.594  39.905   0.524
37832W        W 2817  36.064  20.187   4.251
37833W        W 2818  34.680   1.457  14.406
37834W        W 2819  21.941  12.847  10.710
37835W        W 2820  44.419  33.772  12.712
37836W        W 2821   9.648   9.127  14.898
37837W        W 2822  17.229  23.138  12.240
37838W        W 2823  44.553  27.734   4.663
37839W        W 2824  26.761   1.467   3.551
37840W        W 2825  12.861  15.403   2.764
37841W        W 2826  23.285  30.021  14.658
37842W        W 2827  25.005  35.289  12.977
37843W        W 2828   9.809  19.084  12.190
37844W        W 2829  21.131  30.065   0.320
37845W        W 2830   5.265   5.794  12.056
37846W        W 2831  27.018  11.448  14.727
37847W        W 2832  31.079  41.974   1.243
37848W        W 2833  25.033  11.720  14.535
37849W        W 2834  11.217  11.779   2.692
37850W        W 2835  23.034  29.754   4.114
37851W        W 2836  38.974  43.176   4.035
37852W        W 2837  18.829   8.137  12.856
37853W        W 2838  11.585  44.764  11.213
37854W        W 2839  24.000  15.618   4.572
37855W        W 2840   2.882  13.185   4.196
37856W        W 2841  25.498  42.478  13.896
37857W        W 2842  29.604   1.354  13.041
37858W        W 2843  37.718  23.240   0.636
37859W        W 2844  12.678  44.791   2.740
37860W        W 2845   5.701   0.988   2.921
37861W        W 2846  33.904  43.736   2.845
37862W        W 2847  27.918  24.378  11.957
37863W        W 2848  23.416   6.615   4.573
37864W        W 2849  33.997  28.777  11.129
37865W        W 2850  38.515  19.938   1.009
37866W        W 2851  29.682  22.644  14.862
37867W        W 2852   7.772   7.784  14.282
37868W        W 2853  17.723  42.360   3.934
37869W        W 2854  19.545  33.532  14.488
37870W        W 2855  34.623  35.092  14.988
37871W        W 2856   2.010  41.457   3.138
37872W        W 2857  31.159  15.136  13.352
37873W        W 2858   8.705   4.496   0.372
37874W        W 2859  17.587  42.405  11.985
37875W        W 2860  23.034   5.747  13.372
37876W        W 2861  43.895  14.401   0.892
37877W        W 2862   3.955  18.065   4.149
37878W        W 2863  41.214  17.084   3.129
37879W        W 2864   6.683  10.081  10.500
37880W        W 2865   4.577  36.102  13.056
37881W        W 2866  24.227  14.573  11.237
37882W        W 2867  26.092  26.159   2.280
37883W        W 2868  44.717  10.447   4.122
37884W        W 2869  30.211  32.840  13.898
37885W        W 2870  37.403  17.067   1.355
37886W        W 2871  20.576  43.504  13.373
37887W        W 2872   1.337  42.594  13.985
37888W        W 2873  42.373  25.502   1.443
37889W        W 2874  36.448  37.498   4.584
37890W        W 2875  42.414  29.414  12.407
37891W        W 2876   5.001  21.699  11.043
37892W        W 2877  21.920  27.089  14.127
37893W        W 2878   0.979   6.844  14.783
37894W        W 2879  39.711  14.411  12.227
37895W        W 2880  31.617  38.488  11.399
37896W        W 2881  26.350   9.071  11.175
37897W        W 2882  13.723   1.580  13.668
37898W        W 2883  29.697  42.521   0.176
37899W        W 2884  23.969  27.646  13.451
37900W        W 2885   1.038   7.560   1.645
37901W        W 2886  19.761  15.486  14.927
37902W        W 2887  38.483  13.693   1.513
37903W        W 2888   3.161  15.563  11.041
37904W        W 2889   5.314  36.043   2.767
37905W        W 2890  16.071  33.394  10.357
37906W        W 2891  33.342  41.104  13.428
37907W        W 2892  19.049  35.431   1.417
37908W        W 2893  33.490  43.281  13.444
37909W        W 2894  33.524   0.685   3.691
37910W        W 2895  19.748  29.533  10.219
37911W        W 2896  44.880  31.268   1.759
37912W        W 2897  43.315   8.145  12.551
37913W        W 2898   9.896   9.698   1.927
37914W        W 2899  28.584   9.661   1.184
37915W        W 2900   2.624  38.703   2.493
37916W        W 2901  35.108  43.794  14.990
37917W        W 2902  31.664   1.749   0.434
37918W        W 2903   6.197   5.270  14.482
37919W        W 2904  14.700  32.667   1.088
37920W        W 2905  15.900  24.307   0.687
37921W        W 2906  24.048  21.800  12.611
37922W        W 2907   9.972  32.393   2.264
37923W        W 2908   6.026  15.978   1.745
37924W        W 2909  18.107  17.996   4.988
37925W        W 2910  22.681  44.791   4.894
37926W        W 2911  36.099  14.673  14.466
37927W        W 2912  14.749   0.844  14.184
37928W        W 2913   9.987  12.358  12.943
37929W        W 2914  28.893   7.091   1.118
37930W        W 2915   5.706  33.099  10.772
37931W        W 2916   8.862  30.618  10.157
37932W        W 2917  18.637  22.615  10.765
37933W        W 2918  14.192  28.628   0.773
37934W        W 2919  19.451  17.650  12.089
37935W        W 2920  40.603   0.014  13.581
37936W        W 2921   2.101   4.744   2.790
37937W        W 2922  11.843   6.818   1.301
37938W        W 2923   0.010  28.736  13.887
37939W        W 2924  15.072   8.960  12.916
37940W        W 2925   1.799  33.674   3.628
37941W        W 2926  22.185  12.149  13.870
37942W        W 2927  44.502  19.124  12.526
37943W        W 2928   1.816   7.363  14.825
37944W        W 2929  37.952   9.964   3.799
37945W        W 2930  12.349  15.046  12.551
37946W        W 2931  26.896   8.355   2.745
37947W        W 2932   3.335   8.768   2.151
37948W        W 2933  22.562   1.714   3.049
37949W        W 2934  33.003  26.459  11.378
37950W        W 2935  16.856   6.920  13.352
37951W        W 2936  29.697   3.693  12.960
37952W        W 2937   1.485  35.396  12.872
37953W        W 2938  30.837  34.503  13.765
37954W        W 2939  39.037  35.653   1.439
37955W        W 2940   7.240  21.845  12.892
37956W        W 2941  32.400  33.983   4.387
37957W        W 2942   8.669  19.165   2.893
37958W        W 2943  21.195  32.347   1.799
37959W        W 2944  24.650  34.522  12.403
37960W        W 2945  29.883  18.780  11.388
37961W        W 2946  31.440  10.328   4.102
37962W        W 2947  34.866  40.373   1.828
37963W        W 2948  15.148  17.793   0.123
37964W        W 2949  21.099  15.100  14.227
37965W        W 2950  11.648  21.596  13.712
37966W        W 2951  10.144  25.641  13.300
37967W        W 2952  21.230  33.048   2.240
37968W        W 2953  20.806  18.257   2.285
37969W        W 2954  33.975  35.599  11.892
37970W        W 2955  25.126  40.854  10.693
37971W        W 2956  11.413  29.619   0.517
37972W        W 2957  39.281  43.386   1.407
37973W        W 2958  29.157   4.706   4.062
37974W        W 2959   4.693  41.466  11.244
37975W        W 2960  43.492  26.207   5.278
37976W        W 2961   1.210   8.081  10.741
37977W        W 2962  19.021  40.348  14.119
37978W        W 2963  39.957  28.220  12.688
37979W        W 2964  20.189  12.166   2.825
37980W        W 2965  43.277  37.599   0.578
37981W        W 2966  10.942  42.917  14.059
37982W        W 2967   1.444   4.114   0.041
37983W        W 2968  29.117  39.682   2.348
37984W        W 2969  29.618  33.599   1.370
37985W        W 2970  11.184  28.576  12.844
37986W        W 2971   8.401  37.976  11.081
37987W        W 2972  40.778  27.157  11.523
37988W        W 2973  42.244  39.808   2.904
37989W        W 2974  38.246  32.640   3.584
37990W        W 2975  44.771  13.025   0.367
37991W        W 2976   0.982  38.345  11.164
37992W        W 2977  34.490  20.453   4.046
37993W        W 2978  35.371  40.183   0.241
37994W        W 2979  25.906   1.369   0.917
37995W        W 2980   6.787  27.963   0.532
37996W        W 2981  27.028  38.217  11.954
37997W        W 2982  23.318  37.430   2.684
37998W        W 2983  31.780   3.011   4.187
37999W        W 2984   6.777  11.097   3.581
38000W        W 2985   1.318   9.143   4.575
38001W        W 2986   6.980   6.077  11.636
38002W        W 2987  13.885  25.267   4.842
38003W        W 2988  13.304  26.047  13.276
38004W        W 2989  24.069   9.396   2.454
38005W        W 2990  36.958  42.643  10.604
38006W        W 2991   3.936  24.998   5.083
38007W        W 2992  17.709  32.876   1.372
38008W        W 2993  22.576  36.458   3.888
38009W        W 2994  28.477  19.825  14.283
38010W        W 2995  12.171   5.726  10.834
38011W        W 2996  20.063  39.265  10.723
38012W        W 2997  15.582  15.629   1.411
38013W        W 2998  13.804  22.126  14.137
38014W        W 2999   0.374  43.203   3.699
38015W        W 3000  38.848   4.515  14.315
38016W        W 3001  35.497  35.376   4.148
38017W        W 3002  18.728  14.234  10.682
38018W        W 3003  30.493  23.716   1.738
38019W        W 3004  12.203  16.840   4.118
38020W        W 3005  15.570   3.626   3.849
38021W        W 3006  14.586   6.113  14.471
38022W        W 3007   2.750   2.809  12.987
38023W        W 3008  27.799  42.157  14.465
38024W        W 3009  43.136  41.847  14.230
38025W        W 3010   3.399  27.803  11.565
38026W        W 3011  11.877   5.617   3.262
38027W        W 3012  30.065  29.342  13.919
38028W        W 3013  44.351  22.747   3.712
38029W        W 3014  19.964   6.402  14.705
38030W        W 3015  25.897   4.211  12.398
38031W        W 3016  19.751   2.682   2.844
38032W        W 3017   3.680   3.876   4.208
38033W        W 3018  11.607   9.781   2.694
38034W        W 3019   0.516  19.908   4.601
38035W        W 3020  40.293  15.137   4.076
38036W        W 3021   2.820  44.174  13.103
38037W        W 3022  25.571  30.085  14.302
38038W        W 3023  18.433   0.498   3.288
38039W        W 3024   9.692  21.507   0.736
38040W        W 3025  33.256   9.374  12.624
38041W        W 3026  17.144  44.033   4.056
38042W        W 3027  12.848  37.985  12.892
38043W        W 3028  30.643  36.194   2.742
38044W        W 3029   6.134  39.537   3.318
38045W        W 3030  40.691  11.229  13.265
38046W        W 3031  36.779   8.384  14.284
38047W        W 3032  30.476  30.564  13.423
38048W        W 3033  27.025  21.283  11.176
38049W        W 3034  32.238  37.942   4.814
38050W        W 3035  20.817  19.202  14.843
38051W        W 3036  21.087  15.377  10.881
38052W        W 3037   2.886  14.175   0.312
38053W        W 3038  22.166  17.514  14.892
38054W        W 3039   6.696  16.743   3.880
38055W        W 3040  18.664   9.688   3.401
38056W        W 3041  19.219   3.191   3.603
38057W        W 3042  30.140  15.681  10.455
38058W        W 3043   1.534   0.832  11.408
38059W        W 3044  20.715  20.505   2.793
38060W        W 3045  39.572   5.474   0.785
38061W        W 3046  16.935  11.722  11.977
38062W        W 3047  37.910  33.021  12.381
38063W        W 3048  25.560  43.520  12.753
38064W        W 3049   8.516   4.306   1.454
38065W        W 3050   1.501  18.479  12.541
38066W        W 3051  29.218   4.976   2.218
38067W        W 3052  13.543  44.145  11.074
38068W        W 3053  44.454  32.907  14.044
38069W        W 3054   3.260  42.104  14.159
38070W        W 3055  20.253  11.111   0.006
38071W        W 3056  27.798  27.596  11.554
38072W        W 3057  25.474  30.270  13.014
38073W        W 3058  14.824   9.720   3.346
38074W        W 3059  33.652   9.927   0.989
38075W        W 3060  38.882   9.737   2.777
38076W        W 3061  33.952   4.788   0.823
38077W        W 3062   6.275   3.863   2.768
38078W        W 3063  35.505  23.541  11.214
38079W        W 3064  38.923  21.727   4.743
38080W        W 3065  24.000   2.914   1.631
38081W        W 3066  42.242  28.136  11.207
38082W        W 3067  13.997  15.236   1.904
38083W        W 3068  10.905  10.710   1.347
38084W        W 3069  17.507  41.283  13.995
38085W        W 3070  28.015   0.280  12.502
38086W        W 3071  14.162  22.158  14.544
38087W        W 3072  37.569  17.401  14.958
38088W        W 3073  38.893  34.548  13.843
38089W        W 3074  36.001  43.003   3.732
38090W        W 3075   7.446  32.826   3.074
38091W        W 3076   5.845  18.955   2.663
38092W        W 3077  43.246  41.580   4.969
38093W        W 3078   8.834  34.028   4.602
38094W        W 3079  16.939  25.186   1.341
38095W        W 3080   0.401  27.155   5.360
38096W        W 3081  20.564  23.317  13.465
38097W        W 3082  22.805  11.215   3.641
38098W        W 3083   0.452  25.022   3.718
38099W        W 3084   9.717   4.445  11.892
38100W        W 3085   6.588  30.876   4.144
38101W        W 3086  27.577  27.433  13.777
38102W        W 3087   0.742  23.757   0.394
38103W        W 3088   4.286  33.048   0.756
38104W        W 3089  26.474  37.997   1.351
38105W        W 3090  37.880  43.041  11.196
38106W        W 3091  36.929  41.899  14.831
38107W        W 3092   3.689   0.244   2.716
38108W        W 3093  38.097   3.326  14.267
38109W        W 3094  41.113  26.079  13.972
38110W        W 3095  13.410  28.691  14.317
38111W        W 3096  44.466  43.908   2.234
38112W        W 3097   5.284  24.729   1.580
38113W        W 3098  11.773  34.998   0.187
38114W        W 3099  43.966  43.343  10.397
38115W        W 3100   5.165  12.859   2.006
38116W        W 3101  37.309  20.552   0.471
38117W        W 3102   4.860  15.154   3.236
38118W        W 3103  18.798   6.474   3.610
38119W        W 3104  39.587  17.911   4.172
38120W        W 3105  43.420  44.370  10.574
38121W        W 3106  35.420  14.295  13.830
38122W        W 3107  23.284  40.442  14.335
38123W        W 3108  34.565  40.863  11.610
38124W        W 3109  22.771  27.932   1.376
38125W        W 3110  44.426  22.691  14.951
38126W        W 3111  24.504   9.870  11.181
38127W        W 3112  20.034  40.751  12.094
38128W        W 3113   5.677   6.220   0.409
38129W        W 3114  41.938  37.236   2.693
38130W        W 3115  11.553  21.652  14.209
38131W        W 3116  29.867  43.807  13.999
38132W        W 3117  27.843  23.232   1.536
38133W        W 3118  35.981  20.722  10.974
38134W        W 3119  13.261  38.002   0.039
38135W        W 3120  34.654  10.748   0.364
38136W        W 3121  26.640  17.619   4.051
38137W        W 3122  40.983  24.599   2.374
38138W        W 3123  43.227  35.029   0.711
38139W        W 3124   4.198   7.169   0.971
38140W        W 3125  32.612  25.452  10.998
38141W        W 3126  36.976  11.312  13.463
38142W        W 3127   1.410  21.784  13.996
38143W        W 3128   8.514   3.824   4.115
38144W        W 3129   5.052  22.128   4.659
38145W        W 3130  10.339  23.546   4.803
38146W        W 3131  24.665  43.051  14.516
38147W        W 3132  20.265   4.468   2.826
38148W        W 3133  24.994  29.453   1.808
38149W        W 3134  22.792   3.588   3.893
38150W        W 3135   2.191  32.365  14.077
38151W        W 3136  43.955  35.479   0.466
38152W        W 3137  39.773  33.552  13.316
38153W        W 3138  16.111  39.474  12.417
38154W        W 3139   1.136  35.923  14.596
38155W        W 3140  34.451  10.346  11.477
38156W        W 3141  27.038  15.819  12.878
38157W        W 3142   4.724  24.637  12.115
38158W        W 3143   3.057  11.568   0.779
38159W        W 3144  33.716  18.217   3.112
38160W        W 3145   9.195  25.835  11.232
38161W        W 3146  29.389  25.234   3.745
38162W        W 3147   0.108  27.692  11.019
38163W        W 3148  29.074  30.513   4.728
38164W        W 3149   1.427   8.873   2.178
38165W        W 3150  40.469   7.267  14.496
38166W        W 3151   8.398  33.218  10.719
38167W        W 3152  31.955  44.854   4.892
38168W        W 3153  23.732  27.726   2.661
38169W        W 3154  17.998  22.757  12.447
38170W        W 3155  25.760  36.904   0.070
38171W        W 3156  43.627  28.036   0.372
38172W        W 3157  41.729  14.209  12.894
38173W        W 3158   6.434   2.093   3.675
38174W        W 3159  20.087  27.825  13.744
38175W        W 3160   6.913  16.210   1.151
38176W        W 3161  43.270  25.594   9.692
38177W        W 3162  25.371   1.921  13.510
38178W        W 3163  43.830  44.880  13.277
38179W        W 3164  22.781  18.783   3.372
38180W        W 3165  25.203  33.898  14.383
38181W        W 3166  44.467  27.160  12.022
38182W        W 3167  23.424   7.916  13.462
38183W        W 3168   7.592  37.671   3.648
38184W        W 3169  20.541   0.449   0.226
38185W        W 3170  26.155  30.061  12.587
38186W        W 3171  11.727  31.458  14.625
38187W        W 3172   0.123  40.359  14.465
38188W        W 3173  40.886  41.501   3.802
38189W        W 3174   0.410  13.200   1.921
38190W        W 3175  21.379  29.497   5.031
38191W        W 3176  15.708  21.628   4.269
38192W        W 3177  10.407  23.352   0.897
38193W        W 3178  43.247  18.329  12.032
38194W        W 3179   1.223  41.056   3.192
38195W        W 3180  20.230  26.310  12.092
38196W        W 3181  21.677  36.936   1.493
38197W        W 3182   5.762  33.943  12.127
38198W        W 3183  19.689   5.900   3.084
38199W        W 3184  16.530  10.289   3.263
38200W        W 3185  21.592  21.043   1.999
38201W        W 3186  34.367  34.398  12.981
38202W        W 3187  18.090  27.707  14.117
38203W        W 3188  12.258  18.038   0.881
38204W        W 3189   1.945  35.420  12.113
38205W        W 3190  33.961  27.720  11.127
38206W        W 3191  28.030   8.950   2.217
38207W        W 3192  42.888   7.135  11.911
38208W        W 3193  33.024  18.165   1.864
38209W        W 3194  32.697  31.065  13.123
38210W        W 3195  16.634  37.404   2.843
38211W        W 3196   6.849  42.845  11.109
38212W        W 3197  11.255   3.342   0.364
38213W        W 3198  37.581  29.994  12.531
38214W        W 3199  44.274   3.895   0.441
38215W        W 3200   0.784   1.361   1.454
38216W        W 3201  29.464  25.963  14.869
38217W        W 3202  18.107  43.417   3.450
38218W        W 3203  11.791   3.652  14.421
38219W        W 3204   9.457  36.235   1.859
38220W        W 3205  40.641  37.956   2.935
38221W        W 3206   5.756   8.774   1.858
38222W        W 3207   9.909  22.570  14.927
38223W        W 3208   0.275  42.376   2.758
38224W        W 3209  24.575  23.761  14.494
38225W        W 3210  29.446  26.533   2.249
38226W        W 3211  27.278  26.797   4.247
38227W        W 3212  20.701   6.271   2.846
38228W        W 3213  31.847  34.647   0.740
38229W        W 3214  26.898  26.534  13.396
38230W        W 3215  20.470  23.269   1.178
38231W        W 3216   0.838   1.983   4.865
38232W        W 3217  37.566  15.590   3.175
38233W        W 3218  20.718  42.244   4.307
38234W        W 3219  15.437  21.468  10.533
38235W        W 3220  25.168  11.604   3.714
38236W        W 3221   1.365   4.195  11.231
38237W        W 3222   3.858   7.889  12.955
38238W        W 3223  28.666  10.976  11.990
38239W        W 3224   6.214  43.012  12.386
38240W        W 3225  18.567  13.873   3.568
38241W        W 3226  14.638  15.721   0.558
38242W        W 3227  30.174  18.043  13.897
38243W        W 3228  17.767  34.424   2.317
38244W        W 3229  27.286  21.732   2.001
38245W        W 3230  19.429   1.466   3.993
38246W        W 3231   1.244  32.217   4.549
38247W        W 3232  38.117  30.384  14.380
38248W        W 3233  41.578  39.361   2.871
38249W        W 3234  42.171  29.524  10.302
38250W        W 3235  44.575  10.830   3.810
38251W        W 3236  11.927  38.469   1.328
38252W        W 3237  35.724  26.534  12.561
38253W        W 3238  34.860  34.893   4.658
38254W        W 3239  24.649  36.550   1.750
38255W        W 3240   2.255  10.408   0.266
38256W        W 3241  16.582   8.708  12.770
38257W        W 3242   8.406  36.196  12.018
38258W        W 3243   2.981   6.820   2.465
38259W        W 3244  14.048  20.549   3.108
38260W        W 3245  18.214  34.672  12.279
38261W        W 3246  28.074   3.409   4.611
38262W        W 3247   7.922  38.799   4.994
38263W        W 3248  14.134  33.031  14.032
38264W        W 3249  32.884  35.963  11.568
38265W        W 3250  18.574  28.543   0.844
38266W        W 3251  16.876  27.965  11.468
38267W        W 3252  36.132   7.842   3.645
38268W        W 3253  13.316  31.301  11.825
38269W        W 3254  27.538  22.236  12.152
38270W        W 3255  31.175  31.448  13.125
38271W        W 3256  19.317  13.849   1.465
38272W        W 3257  18.629  32.883   3.270
38273W        W 3258  15.917  36.435  12.895
38274W        W 3259  33.329  27.747  14.734
38275W        W 3260  37.635  20.044  11.450
38276W        W 3261  13.335  38.518   0.321
38277W        W 3262  17.214  31.568  12.574
38278W        W 3263  34.547  17.860  14.817
38279W        W 3264  20.096  16.272   2.148
38280W        W 3265  36.471  41.349  10.418
38281W        W 3266  28.123   1.094   0.269
38282W        W 3267  42.876   9.642   2.599
38283W        W 3268  17.218  39.825   3.237
38284W        W 3269  38.999  36.419   0.690
38285W        W 3270  15.059   7.427  13.530
38286W        W 3271  31.816  41.112   2.478
38287W        W 3272  40.844  16.180  13.507
38288W        W 3273  17.567  24.780   4.197
38289W        W 3274   7.569  27.981   0.005
38290W        W 3275  14.599  29.700   1.054
38291W        W 3276   2.003  34.087  13.522
38292W        W 3277  22.187  11.409  12.077
38293W        W 3278  28.558   6.185   4.684
38294W        W 3279   1.225  43.006  11.062
38295W        W 3280  23.690   4.904   0.881
38296W        W 3281  30.868  15.563   1.450
38297W        W 3282  27.879  32.431  13.068
38298W        W 3283  21.129  12.123   0.596
38299W        W 3284  17.594  32.113   3.340
38300W        W 3285   8.914  35.579   0.629
38301W        W 3286  32.429  28.965   4.629
38302W        W 3287  31.037  39.688  13.485
38303W        W 3288  24.959  41.149  11.654
38304W        W 3289  42.401  20.688  14.086
38305W        W 3290   6.801  16.931  13.580
38306W        W 3291   4.556  42.289  12.602
38307W        W 3292  32.845  30.535   2.815
38308W        W 3293   6.820  18.037   1.750
38309W        W 3294  32.363  19.564   3.729
38310W        W 3295  26.869  11.660   1.843
38311W        W 3296  41.761   8.197   3.341
38312W        W 3297  33.506  30.691  14.323
38313W        W 3298  29.901   9.081   0.984
38314W        W 3299   1.351   3.498  12.005
38315W        W 3300   4.405  24.182   2.725
38316W        W 3301   7.305  22.070   2.378
38317W        W 3302  30.037  10.387  11.449
38318W        W 3303  37.901  34.755   5.527
38319W        W 3304  10.597   9.201   3.242
38320W        W 3305  37.033  40.346   2.418
38321W        W 3306   5.837   0.306  11.638
38322W        W 3307  43.594  21.745   0.221
38323W        W 3308  18.879  15.096   1.972
38324W        W 3309   0.427  41.737  14.761
38325W        W 3310   4.994  39.557  12.926
38326W        W 3311   6.330  28.529   1.920
38327W        W 3312  11.661  15.114   1.449
38328W        W 3313   7.916  18.257   1.273
38329W        W 3314   6.178  14.162  14.749
38330W        W 3315  17.656  36.461  10.751
38331W        W 3316  22.932   4.835  10.979
38332W        W 3317   6.178  26.083   3.638
38333W        W 3318  20.057  40.289   0.694
38334W        W 3319   2.304  10.741   0.980
38335W        W 3320  25.758  35.428  10.995
38336W        W 3321   4.464   4.878   1.334
38337W        W 3322   4.322  34.578   4.695
38338W        W 3323   0.483  40.854  10.665
38339W        W 3324   3.778  33.039   4.898
38340W        W 3325  21.140  42.084   0.671
38341W        W 3326  18.582  19.862  14.981
38342W        W 3327  31.579  42.585   4.818
38343W        W 3328  34.988  10.656   2.025
38344W        W 3329  42.900  43.972  11.598
38345W        W 3330   1.472   2.329   4.279
38346W        W 3331  16.231   7.203   0.243
38347W        W 3332  18.062  11.342  13.360
38348W        W 3333  20.068  25.013   2.660
38349W        W 3334  25.195   6.222   1.944
38350W        W 3335  27.972   5.434  12.608
38351W        W 3336   0.426  34.995   4.306
38352W        W 3337   2.477  18.192  12.215
38353W        W 3338  42.501  29.655  14.487
38354W        W 3339  21.586  25.144   1.615
38355W        W 3340   8.834  24.372  12.183
38356W        W 3341   4.244  34.610  13.965
38357W        W 3342  25.884   7.185  12.033
38358W        W 3343  35.074  18.954   0.364
38359W        W 3344  14.834  29.516  12.320
38360W        W 3345  27.078  12.135   3.260
38361W        W 3346  25.015  33.579  11.047
38362W        W 3347  27.865  44.032   0.409
38363W        W 3348  14.667  43.009   4.566
38364W        W 3349  34.181  13.117   2.294
38365W        W 3350  23.781  43.946  12.981
38366W        W 3351  34.990  20.637   1.784
38367W        W 3352  30.438  28.425  14.929
38368W        W 3353  28.808  35.679  13.122
38369W        W 3354  27.620  35.857   4.592
38370W        W 3355   8.173  43.925   3.918
38371W        W 3356  36.996  19.973   3.361
38372W        W 3357  44.073  40.061   3.653
38373W        W 3358  38.666  29.468   0.591
38374W        W 3359  28.210  26.706  10.660
38375W        W 3360   2.710  21.265  14.659
38376W        W 3361   3.855   5.866   4.110
38377W        W 3362  26.172   0.146  13.092
38378W        W 3363  15.611  32.549  12.186
38379W        W 3364  26.134   1.379   3.122
38380W        W 3365   7.686  15.336   9.909
38381W        W 3366  24.034   0.569   2.324
38382W        W 3367  32.831  26.487  13.945
38383W        W 3368  14.482  42.273   3.223
38384W        W 3369  18.461  31.359  12.027
38385W        W 3370   0.512  37.661   2.917
38386W        W 3371  40.486   6.180   2.197
38387W        W 3372  18.034  31.507   3.555
38388W        W 3373  40.667  44.543  13.378
38389W        W 3374  41.616  34.941   3.879
38390W        W 3375  44.865  21.033   0.785
38391W        W 3376  12.771   7.856   2.379
38392W        W 3377  44.379  35.973  10.094
38393W        W 3378  21.700  29.943  13.478
38394W        W 3379  18.299   3.226   3.704
38395W        W 3380  10.882   1.911   2.499
38396W        W 3381  25.322  28.749  10.366
38397W        W 3382  30.981   0.299   2.207
38398W        W 3383   1.415   0.317  14.986
38399W        W 3384  18.736   8.270   2.629
38400W        W 3385  18.705  30.217  14.936
38401W        W 3386  20.544  44.170   4.139
38402W        W 3387  34.186   6.728   4.041
38403W        W 3388   8.050  15.922   2.087
38404W        W 3389  11.048  21.622  14.362
38405W        W 3390  40.905  30.032  11.742
38406W        W 3391  39.884  18.107   0.210
38407W        W 3392  30.328  39.498   2.587
38408W        W 3393  17.363  23.581  11.113
38409W        W 3394  17.778  37.613  12.890
38410W        W 3395  37.633   0.235   2.610
38411W        W 3396  20.490  25.667   3.685
38412W        W 3397  31.599  42.329  10.676
38413W        W 3398   9.618   7.392   1.272
38414W        W 3399  41.602   3.689  11.375
38415W        W 3400   6.156   1.278   2.640
38416W        W 3401  17.234  26.401  14.345
38417W        W 3402  34.984  35.926  11.644
38418W        W 3403  42.697   4.491   1.943
38419W        W 3404  31.728  20.186  11.091
38420W        W 3405  25.029  23.033   4.600
38421W        W 3406   7.412   8.489   1.277
38422W        W 3407  20.025  22.292  13.976
38423W        W 3408   8.860  32.314   4.104
38424W        W 3409  44.893  31.651   1.351
38425W        W 3410  33.612  38.926  12.124
38426W        W 3411  17.635  28.710   0.945
38427W        W 3412   9.810  32.620  11.359
38428W        W 3413  32.111   1.864  11.503
38429W        W 3414  19.003  17.784   0.037
38430W        W 3415  34.404  33.027   1.329
38431W        W 3416  29.355  36.688   1.813
38432W        W 3417   8.403  37.358  12.529
38433W        W 3418  39.230   7.570  11.627
38434W        W 3419   8.852   0.489  12.959
38435W        W 3420  27.047  17.049  13.445
38436W        W 3421  17.566   6.544   0.555
38437W        W 3422   6.985  31.530   3.399
38438W        W 3423   1.515  26.435   4.385
38439W        W 3424  26.713  27.630   2.732
38440W        W 3425  32.865  21.976  13.080
38441W        W 3426   1.669  14.748   3.589
38442W        W 3427   2.454  37.968   3.753
38443W        W 3428   5.008  25.665  11.659
38444W        W 3429   9.910  16.018   5.086
38445W        W 3430  12.240  21.745   3.998
38446W        W 3431  30.802  25.030   9.732
38447W        W 3432   4.369  12.607  14.866
38448W        W 3433  16.585   5.941   2.180
38449W        W 3434   2.926  27.086   2.670
38450W        W 3435  30.492  15.824  13.840
38451W        W 3436  19.713   2.859  12.014
38452W        W 3437  42.995  15.065  13.010
38453W        W 3438  35.173  23.716   1.444
38454W        W 3439   2.379  38.826  11.058
38455W        W 3440  44.507   9.225  11.916
38456W        W 3441  18.705   0.883  12.161
38457W        W 3442   5.783  42.895   3.146
38458W        W 3443  12.335  21.981  14.302
38459W        W 3444   2.299  37.362   3.539
38460W        W 3445  22.703  41.276   4.740
38461W        W 3446  15.776  31.619  13.600
38462W        W 3447  13.575  26.055  14.480
38463W        W 3448   6.838  20.218  14.964
38464W        W 3449  42.230  23.663  13.905
38465W        W 3450  15.584  19.240  10.757
38466W        W 3451  24.495   8.861  11.976
38467W        W 3452  12.678  23.716  11.638
38468W        W 3453  26.685  24.080   4.417
38469W        W 3454  26.677  42.789  10.760
38470W        W 3455  44.876  30.407  11.616
38471W        W 3456  44.263   0.187  14.331
38472W        W 3457  14.118  22.691  13.918
38473W        W 3458   1.292   3.642  14.903
38474W        W 3459  18.622  36.403  11.987
38475W        W 3460   4.752  23.916  14.547
38476W        W 3461  34.706   2.459   4.912
38477W        W 3462  43.078   0.845   4.160
38478W        W 3463  42.566  22.669  11.970
38479W        W 3464  42.860  28.230   4.230
38480W        W 3465   2.525  23.597   0.447
38481W        W 3466  11.230  13.542  14.373
38482W        W 3467   6.515  28.067  13.716
38483W        W 3468  43.493  21.176   1.770
38484W        W 3469  25.973  32.898  13.513
38485W        W 3470   3.408  20.626  11.552
38486W        W 3471  39.834  22.151  14.324
38487W        W 3472  29.168  11.630  13.374
38488W        W 3473  42.427  14.418  10.685
38489W        W 3474  15.063   1.954   0.777
38490W        W 3475  40.817  15.753   0.331
38491W        W 3476  33.628  33.803   1.732
38492W        W 3477  25.449  17.071  10.699
38493W        W 3478  41.937   6.110   4.962
38494W        W 3479   3.637  30.408  14.835
38495W        W 3480   7.055   1.189   4.570
38496W        W 3481  16.252  30.863   3.560
38497W        W 3482  39.667  23.389   3.075
38498W        W 3483  41.298   0.706   3.633
38499W        W 3484  26.356  25.004  10.226
38500W        W 3485  32.446  44.539   3.609
38501W        W 3486  20.017  16.750  12.423
38502W        W 3487  21.932  23.697   2.690
38503W        W 3488  42.929  14.539   0.200
38504W        W 3489  31.910  24.676  14.873
38505W        W 3490  27.220  40.393  12.529
38506W        W 3491  20.777   2.738   0.289
38507W        W 3492  20.212  21.709   4.148
38508W        W 3493  41.927  40.307   2.229
38509W        W 3494  43.722  10.257   4.412
38510W        W 3495  27.166  40.015   0.981
38511W        W 3496  18.289  33.632  12.489
38512W        W 3497  25.053  41.290  14.121
38513W        W 3498  14.687   3.933   1.800
38514W        W 3499   7.243   3.239  12.117
38515W        W 3500  26.930  33.163  10.478
38516W        W 3501  21.098  41.327   4.138
38517W        W 3502  43.115   6.519  13.629
38518W        W 3503  30.538  22.220   1.468
38519W        W 3504  42.866  32.731   2.775
38520W        W 3505  26.993  42.887  11.176
38521W        W 3506  20.101   8.370  12.608
38522W        W 3507   2.050  20.931  13.956
38523W        W 3508  13.394  43.365  14.455
38524W        W 3509   8.325  15.310   3.344
38525W        W 3510   5.742  13.779   4.432
38526W        W 3511  31.136  27.608  11.983
38527W        W 3512  31.968  20.660  14.434
38528W        W 3513   5.994  34.533   2.444
38529W        W 3514   9.806  34.634  10.385
38530W        W 3515  19.341  24.922  11.397
38531W        W 3516  24.548  17.376   0.777
38532W        W 3517  29.378  22.832   4.163
38533W        W 3518  25.426  32.649  10.810
38534W        W 3519  17.990  16.403   0.470
38535W        W 3520  41.832   2.491  13.388
38536W        W 3521  15.538  33.793   1.973
38537W        W 3522  25.761  35.128  13.980
38538W        W 3523  38.103  33.561  13.934
38539W        W 3524  35.404  26.964   3.883
38540W        W 3525  21.228  41.947  14.215
38541W        W 3526  15.661   4.022   4.152
38542W        W 3527  19.533  40.789   2.259
38543W        W 3528  24.539  27.813  14.305
38544W        W 3529  21.467  23.178  13.944
38545W        W 3530  29.558  35.417   0.937
38546W        W 3531  30.541   7.559  12.237
38547W        W 3532   3.007  43.772   4.074
38548W        W 3533  33.714  32.374   2.164
38549W        W 3534  10.375  24.694   2.745
38550W        W 3535   8.942  25.506  13.659
38551W        W 3536  18.275   8.293  14.183
38552W        W 3537  29.908  25.301   3.693
38553W        W 3538  33.173  11.845  11.913
38554W        W 3539  22.113  20.241   0.383
38555W        W 3540  40.990   9.303  13.956
38556W        W 3541  42.489  18.594  13.817
38557W        W 3542  37.619  36.467   2.805
38558W        W 3543  28.479  22.207  11.873
38559W        W 3544  13.703  42.040  11.095
38560W        W 3545  29.900  40.389   1.233
38561W        W 3546   2.191  22.890  10.684
38562W        W 3547  35.462  42.254  14.305
38563W        W 3548  42.080   4.344   1.682
38564W        W 3549  23.442  22.411   0.867
38565W        W 3550  44.726  24.882  13.245
38566W        W 3551   7.163  22.829  13.179
38567W        W 3552  11.456   7.082   4.573
38568W        W 3553  37.758  18.444   4.452
38569W        W 3554   2.351  17.977  12.662
38570W        W 3555  39.402  42.008   1.399
38571W        W 3556  31.061  16.855   2.650
38572W        W 3557   5.360   3.693  12.520
38573W        W 3558  33.839  40.398  13.496
38574W        W 3559   8.790  21.724   1.201
38575W        W 3560  42.508  28.559   0.345
38576W        W 3561  32.539   8.162  11.115
38577W        W 3562   9.843  22.140   1.211
38578W        W 3563  38.501   5.809   0.214
38579W        W 3564   7.778  21.786  12.844
38580W        W 3565  39.030  35.486   0.920
38581W        W 3566  32.028   4.370  11.157
38582W        W 3567  22.583   7.008   4.238
38583W        W 3568   2.925  43.681   0.352
38584W        W 3569  43.411  15.132  11.676
38585W        W 3570  30.196  39.127  13.362
38586W        W 3571  10.836  15.727  12.869
38587W        W 3572  24.778  34.428  10.975
38588W        W 3573  33.102  10.159  14.978
38589W        W 3574  32.044   8.377  14.980
38590W        W 3575   0.713  40.781   4.065
38591W        W 3576  30.567  14.663   3.792
38592W        W 3577  38.018  18.638  10.546
38593W        W 3578  19.621   3.384  12.040
38594W        W 3579  29.232   3.432   3.358
38595W        W 3580   6.320   2.065  14.377
38596W        W 3581  40.455  42.793  12.091
38597W        W 3582   2.315  28.156  14.848
38598W        W 3583  42.262  37.623  13.437
38599W        W 3584  21.676  32.728  10.698
38600W        W 3585  17.271  13.881   3.721
38601W        W 3586  44.562  40.041   4.441
38602W        W 3587   7.300   3.769  10.832
38603W        W 3588  36.308  43.711  14.150
38604W        W 3589  21.484  42.264   2.003
38605W        W 3590   2.023  34.893   0.435
38606W        W 3591  20.948  39.387  10.465
38607W        W 3592  39.549  26.074   2.827
38608W        W 3593  34.444  10.646  11.048
38609W        W 3594  27.898  19.728  12.961
38610W        W 3595   2.380  42.860   4.741
38611W        W 3596  34.091  12.387   4.699
38612W        W 3597   1.022  17.166  11.178
38613W        W 3598  32.187  21.743   3.409
38614W        W 3599   3.864  18.311  13.633
38615W        W 3600  20.720  16.236   3.553
38616W        W 3601  15.295   0.176  11.687
38617W        W 3602  28.621   8.273   4.089
38618W        W 3603   3.931  15.316  10.602
38619W        W 3604   7.668  26.974  14.771
38620W        W 3605  25.470  26.686  14.782
38621W        W 3606  35.903  13.878   4.888
38622W        W 3607   0.348  16.047  11.077
38623W        W 3608  43.840  18.031   0.389
38624W        W 3609  25.104  29.948   1.000
38625W        W 3610   5.488   6.299  13.847
38626W        W 3611  42.935  34.196   2.797
38627W        W 3612  25.627  38.465  12.591
38628W        W 3613  15.725  41.420   1.947
38629W        W 3614  40.471  14.354  11.718
38630W        W 3615  24.093   1.435   3.228
38631W        W 3616  16.619   6.059   3.512
38632W        W 3617   5.382   5.619  14.549
38633W        W 3618  11.864   0.056   4.823
38634W        W 3619  29.094  30.389  13.050
38635W        W 3620  42.938  43.748  14.754
38636W        W 3621   0.184  39.533  12.145
38637W        W 3622  43.499  44.341   1.370
38638W        W 3623   6.828  42.358  13.374
38639W        W 3624  15.735  42.093   3.678
38640W        W 3625   9.374  39.536   1.906
38641W        W 3626  25.146  25.472   0.433
38642W        W 3627   8.567   1.705  14.854
38643W        W 3628  37.255  14.179   3.301
38644W        W 3629  34.286  42.473   2.785
38645W        W 3630  34.522  17.070  14.467
38646W        W 3631   9.201   4.856   2.916
38647W        W 3632   0.781  43.264  13.304
38648W        W 3633  18.147   2.250   4.149
38649W        W 3634  10.624  24.923   2.201
38650W        W 3635   2.669  36.411   0.182
38651W        W 3636  20.002  27.958   3.059
38652W        W 3637  32.116  38.075   2.234
38653W        W 3638   1.417  28.647   2.196
38654W        W 3639   3.861  28.689  12.384
38655W        W 3640   1.230   0.417  14.466
38656W        W 3641  11.412  16.082   3.150
38657W        W 3642  16.473  32.932   3.320
38658W        W 3643  12.301   5.826  14.868
38659W        W 3644   2.511  11.177  10.618
38660W        W 3645  44.709  43.074  10.996
38661W        W 3646  19.607  37.118   0.854
38662W        W 3647  24.771  12.631  11.725
38663W        W 3648   0.033   1.019   4.092
38664W        W 3649  19.675   6.236   4.248
38665W        W 3650  40.995  31.102   0.839
38666W        W 3651  42.670   9.778   3.601
38667W        W 3652   5.235  29.485   2.683
38668W        W 3653   1.030  39.261   4.090
38669W        W 3654   2.707   1.463  12.028
38670W        W 3655  26.953  26.420   1.657
38671W        W 3656  30.422  24.786   0.867
38672W        W 3657  33.745  10.142  10.714
38673W        W 3658  16.209   0.220   4.179
38674W        W 3659  23.539  30.152  11.245
38675W        W 3660  44.922  23.146   1.892
38676W        W 3661  28.621  39.031   0.874
38677W        W 3662  25.208  26.376  12.913
38678W        W 3663  33.236  35.464  13.014
38679W        W 3664  31.976  11.623  12.823
38680W        W 3665  30.013  14.694   2.685
38681W        W 3666  39.872  41.234   0.374
38682W        W 3667   9.585  43.410   2.616
38683W        W 3668  13.580  13.416   2.908
38684W        W 3669  22.235  23.735  11.697
38685W        W 3670   3.411  17.578   3.411
38686W        W 3671   7.210  34.937   0.515
38687W        W 3672   0.473   6.000   1.225
38688W        W 3673  38.844  39.648   4.003
38689W        W 3674  26.834  27.769  10.773
38690W        W 3675  24.874  29.651   5.079
38691W        W 3676  42.242  31.970  11.223
38692W        W 3677   7.432   9.447   0.366
38693W        W 3678  17.058  22.796  10.017
38694W        W 3679  39.890  41.169  12.658
38695W        W 3680   7.663   4.308   4.887
38696W        W 3681  23.434  35.332  12.194
38697W        W 3682  22.606   7.177   2.361
38698W        W 3683   6.399   0.570   0.507
38699W        W 3684  30.855  33.040   1.300
38700W        W 3685   9.569  18.735   0.063
38701W        W 3686  22.309  19.040  13.430
38702W        W 3687  31.913   0.534   1.964
38703W        W 3688  19.089  33.103   1.502
38704W        W 3689   2.290  22.964  12.575
38705W        W 3690   3.234  12.621  12.110
38706W        W 3691  16.529  24.271  13.909
38707W        W 3692   5.156  29.065   0.877
38708W        W 3693  16.169  33.484  10.872
38709W        W 3694  37.954  38.757  12.442
38710W        W 3695  41.258  20.556   0.733
38711W        W 3696  18.177  22.195  11.793
38712W        W 3697  14.153  24.520   0.575
38713W        W 3698  38.317  22.501   2.732
38714W        W 3699  42.808  27.202  12.438
38715W        W 3700  15.558   7.241  11.974
38716W        W 3701   8.641   3.082   4.365
38717W        W 3702  26.210  33.058  13.973
38718W        W 3703  26.617  20.656   1.692
38719W        W 3704  10.362  42.244  12.422
38720W        W 3705   8.785  10.255  14.743
38721W        W 3706  32.640  24.020  14.848
38722W        W 3707   2.035   4.959  14.014
38723W        W 3708  21.763  30.050   3.407
38724W        W 3709   2.803  34.641   4.597
38725W        W 3710  22.021  35.005  13.437
38726W        W 3711   6.179  39.228  12.732
38727W        W 3712   3.630  27.758  13.875
38728W        W 3713  21.235  17.836   0.264
38729W        W 3714  44.454  30.577   0.670
38730W        W 3715  30.604  37.055  10.725
38731W        W 3716  13.897  32.518  11.951
38732W        W 3717  19.058  31.129  11.616
38733W        W 3718  18.654  15.578  14.433
38734W        W 3719  25.156  20.039   0.099
38735W        W 3720  41.503  22.566   5.399
38736W        W 3721   9.283  33.538  12.945
38737W        W 3722  11.803  35.921   5.112
38738W        W 3723  14.690  20.964  13.467
38739W        W 3724   0.772  14.459  13.689
38740W        W 3725  34.331  21.401   4.329
38741W        W 3726   3.897  11.237   0.944
38742W        W 3727  31.529   4.673   1.885
38743W        W 3728  26.041   7.409  12.488
38744W        W 3729  24.078  37.275  13.050
38745W        W 3730  40.083  10.323   2.824
38746W        W 3731  41.409  20.981  14.214
38747W        W 3732  20.182  34.926  14.309
38748W        W 3733  28.647  23.566   2.337
38749W        W 3734  29.348  28.019  11.905
38750W        W 3735  14.128  24.133  10.746
38751W        W 3736  14.151   8.794   2.676
38752W        W 3737  24.629   4.927   1.728
38753W        W 3738   7.919  18.737   3.311
38754W        W 3739   3.142  40.112  13.830
38755W        W 3740  28.420  42.699   3.192
38756W        W 3741  10.967   8.294  11.235
38757W        W 3742  23.306   9.265  11.316
38758W        W 3743  16.565  22.573   0.682
38759W        W 3744  17.612  31.217   0.910
38760W        W 3745  10.898  21.084   4.102
38761W        W 3746  10.853  16.502  13.906
38762W        W 3747  19.509  43.486   0.383
38763W        W 3748  18.448  37.928   3.772
38764W        W 3749   2.836  19.411   3.688
38765W        W 3750  14.552  19.488  10.706
38766W        W 3751  15.704  31.160   0.948
38767W        W 3752  15.278  24.064   1.227
38768W        W 3753  22.230  39.777  10.541
38769W        W 3754  25.025  11.798  12.012
38770W        W 3755  20.092   0.163  10.692
38771W        W 3756  44.121  27.966   0.272
38772W        W 3757  33.682  32.811   4.252
38773W        W 3758  13.257  33.819  12.055
38774W        W 3759  35.776   9.777   3.639
38775W        W 3760   5.894  37.657   3.203
38776W        W 3761  42.843  32.686   3.633
38777W        W 3762  24.560  11.775  13.604
38778W        W 3763  17.335  35.385   3.808
38779W        W 3764   2.883  18.744   2.319
38780W        W 3765  44.431  29.118  13.129
38781W        W 3766  14.073   0.982   4.004
38782W        W 3767  23.144  42.952   4.560
38783W        W 3768  11.422  33.579  12.941
38784W        W 3769  32.130  29.462  10.551
38785W        W 3770  15.079  36.558  13.870
38786W        W 3771  23.728  32.183   2.761
38787W        W 3772  10.161  17.039   0.820
38788W        W 3773  18.673  32.600  13.999
38789W        W 3774  13.307   4.372   3.787
38790W        W 3775  28.052  25.418  13.028
38791W        W 3776  12.786   0.532   3.955
38792W        W 3777  38.111   7.535   0.222
38793W        W 3778  39.310  40.366  14.149
38794W        W 3779  26.445  16.147   1.338
38795W        W 3780  18.466  37.041  14.433
38796W        W 3781  39.405  31.092   0.242
38797W        W 3782  23.679  25.182  12.414
38798W        W 3783  31.548   6.303  14.001
38799W        W 3784  17.087   5.785  12.792
38800W        W 3785  28.135  29.977  10.633
38801W        W 3786  28.227  19.703   2.263
38802W        W 3787   1.721  16.603  10.754
38803W        W 3788  36.297  21.227   2.273
38804W        W 3789   7.207  26.652   4.834
38805W        W 3790  12.166  24.701  10.511
38806W        W 3791  11.861   7.762  10.437
38807W        W 3792   8.251   6.225  12.781
38808W        W 3793   3.212  19.092   2.118
38809W        W 3794  25.637  40.371  11.233
38810W        W 3795   2.833  12.260   3.506
38811W        W 3796   0.178  32.357   0.059
38812W        W 3797  33.101  40.103  13.844
38813W        W 3798  41.890  38.640  13.392
38814W        W 3799  37.496  39.950   4.131
38815W        W 3800  29.281  26.077   4.217
38816W        W 3801  35.591  27.844   3.745
38817W        W 3802  36.634  30.618   1.310
38818W        W 3803  30.403  19.673  12.447
38819W        W 3804   6.679  26.554  14.000
38820W        W 3805  13.326  19.286   5.043
38821W        W 3806  11.730   0.242  14.957
38822W        W 3807  14.385  25.079  12.082
38823W        W 3808  16.718  36.430  11.696
38824W        W 3809  22.210  17.513   1.287
38825W        W 3810  20.624  13.044   0.893
38826W        W 3811  20.508  14.527  12.373
38827W        W 3812  40.288  38.971  11.138
38828W        W 3813   9.293  22.597  14.339
38829W        W 3814  36.992   9.308   4.651
38830W        W 3815  17.550  37.785   5.067
38831W        W 3816   0.311  18.016   2.636
38832W        W 3817   6.633  19.161   0.395
38833W        W 3818  15.606   0.753  13.572
38834W        W 3819  24.914  19.889   4.216
38835W        W 3820   7.721  22.145  11.650
38836W        W 3821  17.974  38.062   0.467
38837W        W 3822  27.631  44.995  12.064
38838W        W 3823  20.859  40.237   5.044
38839W        W 3824   7.262  41.394  11.629
38840W        W 3825  32.415  17.103   3.837
38841W        W 3826  33.165  44.536   2.353
38842W        W 3827   0.537  16.105  13.104
38843W        W 3828  10.222  28.588   1.332
38844W        W 3829   7.564  18.054   4.532
38845W        W 3830   7.597  27.607   4.702
38846W        W 3831  14.506  30.511  11.369
38847W        W 3832  31.920  34.568  11.492
38848W        W 3833   7.875  26.498  14.932
38849W        W 3834  40.055  25.010  13.971
38850W        W 3835   9.761   3.296   3.227
38851W        W 3836  20.533   1.429   0.613
38852W        W 3837  14.869  25.080  11.646
38853W        W 3838   9.866  35.367  12.092
38854W        W 3839  21.356  43.251   4.547
38855W        W 3840  19.225  12.072   2.421
38856W        W 3841  18.352  22.218  13.268
38857W        W 3842  25.909  18.566   2.870
38858W        W 3843   1.229  42.312  11.756
38859W        W 3844  16.113  15.049  14.921
38860W        W 3845  28.062  27.669  12.549
38861W        W 3846  44.941  28.379  12.269
38862W        W 3847  18.171  41.293  14.723
38863W        W 3848  40.919  42.589   3.728
38864W        W 3849  35.857  43.994  12.969
38865W        W 3850  20.896   0.987  11.768
38866W        W 3851  22.930  43.455   0.523
38867W        W 3852  20.618  13.858  14.428
38868W        W 3853  36.454  16.100   0.264
38869W        W 3854  11.300  11.972  14.605
38870W        W 3855  32.880  12.873   2.386
38871W        W 3856  14.852  33.914   1.712
38872W        W 3857  10.308   9.884   2.167
38873W        W 3858  16.332  26.570  12.979
38874W        W 3859   4.425  44.450  13.361
38875W        W 3860   1.483  15.180  13.091
38876W        W 3861  35.454  15.264   4.567
38877W        W 3862   4.688  33.480   4.954
38878W        W 3863  17.972  33.218  12.420
38879W        W 3864  33.695  44.367  14.891
38880W        W 3865   2.638  16.643   1.458
38881W        W 3866  26.671   3.214  12.478
38882W        W 3867   7.101  25.150   3.487
38883W        W 3868  12.182   2.906   3.760
38884W        W 3869  22.708  22.225  12.143
38885W        W 3870   1.839  20.983  11.465
38886W        W 3871  21.736  40.969   3.708
38887W        W 3872  16.293  36.418   0.504
38888W        W 3873  43.660   6.698  11.530
38889W        W 3874  29.002  14.559   4.605
38890W        W 3875  28.978  20.575   1.394
38891W        W 3876   4.731  24.137   3.673
38892W        W 3877  12.033   6.313  14.293
38893W        W 3878  13.747  18.237  14.981
38894W        W 3879   3.269   0.914   2.262
38895W        W 3880  15.513  25.073   2.400
38896W        W 3881  42.523  31.414  14.524
38897W        W 3882  29.179  38.147  11.996
38898W        W 3883  13.122   7.592   4.171
38899W        W 3884   3.511  11.662  14.793
38900W        W 3885  43.974  40.244  11.111
38901W        W 3886  13.839  11.631   2.333
38902W        W 3887  23.764  24.539  12.040
38903W        W 3888  37.553  18.357  14.029
38904W        W 3889  22.729   7.241   1.400
38905W        W 3890  19.851  16.789   4.543
38906W        W 3891  12.194  33.409  14.242
38907W        W 3892  40.621  38.496  14.304
38908W        W 3893  19.033  38.087   1.977
38909W        W 3894  39.013  30.625  14.832
38910W        W 3895  18.852  37.574   4.577
38911W        W 3896  10.406  36.997  14.751
38912W        W 3897   3.368  21.728  13.204
38913W        W 3898  42.433  41.559   1.436
38914W        W 3899   8.299   9.839   2.425
38915W        W 3900  12.807  17.110  13.777
38916W        W 3901  44.386  26.249  14.821
38917W        W 3902  22.550  12.004  12.652
38918W        W 3903   7.578  39.956  13.578
38919W        W 3904  44.458  42.549   2.163
38920W        W 3905   1.177  27.743   2.627
38921W        W 3906  34.550  16.741  11.782
38922W        W 3907   4.270  39.960   4.200
38923W        W 3908  37.084  33.190   3.170
38924W        W 3909   3.862  33.538  11.445
38925W        W 3910  14.176   4.920  12.480
38926W        W 3911  14.098  29.066   2.180
38927W        W 3912  15.257  15.981  14.858
38928W        W 3913  24.101  43.692  14.545
38929W        W 3914   5.123   0.761   4.794
38930W        W 3915  20.614  22.269   0.856
38931W        W 3916  29.435  40.028  11.644
38932W        W 3917  35.483   5.627  12.012
38933W        W 3918  29.714   8.506   5.067
38934W        W 3919  26.991  34.336   2.688
38935W        W 3920  17.787  35.583   3.690
38936W        W 3921   6.142   6.500   2.454
38937W        W 3922  37.195  44.297  11.479
38938W        W 3923  35.466  17.420  12.926
38939W        W 3924  10.391   7.240   3.621
38940W        W 3925  31.127  38.976  12.882
38941W        W 3926   0.978  39.359  13.842
38942W        W 3927  43.801   7.911  12.424
38943W        W 3928  12.834  16.313   2.316
38944W        W 3929  31.369  32.195   1.322
38945W        W 3930  37.648  29.973  13.408
38946W        W 3931   2.178  17.631   1.990
38947W        W 3932  20.471  40.809  12.500
38948W        W 3933  17.451   1.839  10.998
38949W        W 3934  32.265  23.164  10.402
38950W        W 3935  15.277  14.818  13.419
38951W        W 3936  26.150  32.677  12.834
38952W        W 3937  35.754  32.672  12.544
38953W        W 3938  11.534  37.610  10.344
38954W        W 3939  32.395  17.408  11.158
38955W        W 3940  16.798   2.366   0.576
38956W        W 3941  12.652  44.385   5.028
38957W        W 3942  16.390  11.186   0.463
38958W        W 3943   5.446  36.256   1.468
38959W        W 3944   3.259  10.958  13.498
38960W        W 3945  10.819  15.733  14.399
38961W        W 3946  26.996  37.351   0.265
38962W        W 3947  11.382  35.826   1.683
38963W        W 3948  35.139  29.693  14.305
38964W        W 3949  35.743   5.158   3.148
38965W        W 3950  22.157  34.785   1.698
38966W        W 3951  34.373  42.803   0.550
38967W        W 3952  21.177   3.746   1.287
38968W        W 3953   0.775  22.769  11.513
38969W        W 3954  25.567  15.515  14.089
38970W        W 3955  30.349   8.617  12.982
38971W        W 3956  20.971  44.471  13.349
38972W        W 3957  39.433   1.197   2.681
38973W        W 3958  43.284  14.662   2.419
38974W        W 3959  16.280  11.360  13.072
38975W        W 3960   9.345  20.841   0.331
38976W        W 3961  27.054  39.856  14.989
38977W        W 3962  38.926   8.165  10.705
38978W        W 3963  10.275  21.346   5.118
38979W        W 3964  35.056  33.205   3.306
38980W        W 3965   6.762  23.467   0.367
38981W        W 3966   4.663  35.425   0.304
38982W        W 3967  22.655  11.946  14.056
38983W        W 3968   0.356  11.323  12.617
38984W        W 3969  25.660  20.626  14.727
38985W        W 3970  31.038   6.024  12.628
38986W        W 3971  10.409  41.514   2.306
38987W        W 3972  35.456  26.619  11.654
38988W        W 3973  38.890  38.390   0.839
38989W        W 3974  25.585  40.032   3.365
38990W        W 3975  25.249  41.587   3.703
38991W        W 3976   3.389  13.745  12.284
38992W        W 3977   7.467  11.587   2.848
38993W        W 3978  23.006  16.219   1.309
38994W        W 3979  13.364  12.909   4.547
38995W        W 3980  20.098  16.452  11.129
38996W        W 3981  33.604  44.258   2.519
38997W        W 3982  28.663  13.749   3.216
38998W        W 3983   3.732  35.109  12.682
38999W        W 3984  33.041   6.843  11.037
39000W        W 3985  38.046  21.525   1.255
39001W        W 3986  33.835  21.248   2.614
39002W        W 3987  23.303  44.820  10.730
39003W        W 3988  30.609  13.614   0.443
39004W        W 3989  33.125  25.369   1.869
39005W        W 3990  24.053   6.708  11.229
39006W        W 3991  37.889  39.609   4.108
39007W        W 3992  35.347  25.572   2.652
39008W        W 3993  11.919  31.661   1.340
39009W        W 3994  27.677   5.007  11.604
39010W        W 3995  36.568  18.825  11.533
39011W        W 3996   0.799  43.978   4.031
39012W        W 3997  41.483  11.568  13.452
39013W        W 3998  28.709  21.695   1.221
39014W        W 3999  25.673  15.585  11.678
39015W        W 4000   1.542  23.139  13.542
39016W        W 4001  27.046  19.677   3.052
39017W        W 4002  25.267  31.259  13.018
39018W        W 4003   7.305  21.555  11.067
39019W        W 4004  22.801   1.839   1.537
39020W        W 4005   9.745  40.307   2.205
39021W        W 4006   2.764  33.700  13.787
39022W        W 4007  22.344  37.507  10.717
39023W        W 4008  17.559  25.723   1.480
39024W        W 4009  29.097  16.883  11.953
39025W        W 4010  23.206   6.648   3.654
39026W        W 4011   7.115  22.006   0.044
39027W        W 4012  36.431  42.970   9.864
39028W        W 4013  31.677  40.515   3.166
39029W        W 4014  26.107  30.898  14.358
39030W        W 4015  19.407  30.638   0.138
39031W        W 4016  28.742  21.580  13.012
39032W        W 4017  18.286   9.226   3.780
39033W        W 4018  40.449  35.154  13.029
39034W        W 4019   9.853  14.151   0.798
39035W        W 4020  14.072   4.231  13.582
39036W        W 4021  35.967   9.306   3.599
39037W        W 4022  14.163  23.989  14.315
39038W        W 4023   7.412  20.280  14.431
39039W        W 4024  31.760  22.662  12.652
39040W        W 4025  30.366  36.852   1.523
39041W        W 4026  25.037  33.675   1.977
39042W        W 4027  25.376  17.626   4.228
39043W        W 4028  15.260  30.870   0.920
39044W        W 4029  19.126  25.860   2.150
39045W        W 4030  26.119  24.668  14.257
39046W        W 4031  34.402  22.342  10.534
39047W        W 4032   9.175  33.820   0.772
39048W        W 4033  20.382   7.370   2.706
39049W        W 4034   2.701   6.291   3.270
39050W        W 4035  32.861   1.811   0.894
39051W        W 4036  12.214  25.658   0.540
39052W        W 4037  25.958  43.998   0.239
39053W        W 4038   9.117  39.403  13.200
39054W        W 4039   1.949  26.614  11.647
39055W        W 4040  36.532  20.446   1.766
39056W        W 4041  31.069  23.643  10.481
39057W        W 4042  11.148  29.189  13.566
39058W        W 4043  13.222   3.206  12.090
39059W        W 4044  31.873  19.614  10.659
39060W        W 4045  23.649  31.199   2.699
39061W        W 4046  21.475  18.490   4.472
39062W        W 4047  26.062  18.148  14.822
39063W        W 4048  10.819  35.463   2.706
39064W        W 4049  44.824  23.057  12.346
39065W        W 4050   0.428   4.423  12.963
39066W        W 4051  39.866  22.158  12.549
39067W        W 4052  10.882  17.703   0.984
39068W        W 4053  40.698  23.041  13.780
39069W        W 4054   4.379  21.164  10.528
39070W        W 4055  21.999  20.850   1.751
39071W        W 4056  38.096  40.886  12.934
39072W        W 4057  26.056  21.248   4.778
39073W        W 4058  44.512  35.165  14.580
39074W        W 4059  38.855  36.396   3.192
39075W        W 4060   7.311   8.161   0.878
39076W        W 4061  39.009  20.668   4.680
39077W        W 4062   4.302  20.036   4.491
39078W        W 4063  40.839  32.075  10.253
39079W        W 4064  26.595   8.594  11.159
39080W        W 4065  30.064   6.075  14.265
39081W        W 4066  36.781  33.146   1.162
39082W        W 4067  19.230  44.890   1.058
39083W        W 4068   9.289  13.537   2.656
39084W        W 4069   9.360  32.551  11.123
39085W        W 4070   0.227  27.999  12.494
39086W        W 4071  22.083  21.609  11.299
39087W        W 4072   3.841  44.076  11.191
39088W        W 4073  28.617   3.926   1.811
39089W        W 4074   0.275  27.104   2.261
39090W        W 4075  41.757   8.800   3.808
39091W        W 4076  19.771   8.294   0.520
39092W        W 4077  17.305  26.681  14.779
39093W        W 4078  10.799  29.746   2.871
39094W        W 4079  35.776  32.975  13.818
39095W        W 4080  44.963  35.174  13.857
39096W        W 4081   8.081  42.875  13.933
39097W        W 4082   7.542   9.581   4.707
39098W        W 4083  40.863  20.650  13.590
39099W        W 4084  20.483   4.124  12.816
39100W        W 4085  27.986  19.837  12.472
39101W        W 4086  32.849  28.633   2.800
39102W        W 4087   3.320   5.872  14.436
39103W        W 4088   1.965  14.507  11.567
39104W        W 4089  29.934  14.079  11.078
39105W        W 4090   1.796  21.151   4.069
39106W        W 4091  43.446  11.073   3.260
39107W        W 4092  10.624  40.200  14.223
39108W        W 4093  10.433  11.569  11.109
39109W        W 4094  20.533   1.808  14.356
39110W        W 4095  43.018  36.080   3.109
39111W        W 4096  14.002   1.248   3.576
39112W        W 4097   1.919  20.698   3.859
39113W        W 4098  42.464  37.341   1.319
39114W        W 4099  43.371  12.837   3.630
39115W        W 4100  22.459  10.714   1.550
39116W        W 4101  39.061   8.804   0.042
39117W        W 4102   1.992  29.720   1.030
39118W        W 4103  38.591  42.016  14.284
39119W        W 4104  27.761  15.778  11.522
39120W        W 4105  24.794  32.468  11.584
39121W        W 4106  44.994   9.196   4.188
39122W        W 4107  34.857  25.170  10.667
39123W        W 4108   5.618  39.952  14.515
39124W        W 4109   5.287   6.915  13.180
39125W        W 4110  14.125   5.433   3.276
39126W        W 4111   6.840   4.164  10.793
39127W        W 4112  17.339   4.951   3.481
39128W        W 4113  43.542  41.214  10.762
39129W        W 4114  25.084  25.327   1.287
39130W        W 4115  29.393  23.456   3.670
39131W        W 4116  13.086   5.931  12.524
39132W        W 4117  31.697  16.591  11.110
39133W        W 4118  26.633  12.797  12.755
39134W        W 4119  15.086  43.357  13.353
39135W        W 4120  20.073  14.302  12.166
39136W        W 4121   6.432  16.750  14.446
39137W        W 4122  44.431  10.716   0.277
39138W        W 4123  40.677   7.835  11.332
39139W        W 4124  17.988  41.951   2.224
39140W        W 4125  25.600  12.869   1.163
39141W        W 4126  36.307  18.968  12.136
39142W        W 4127  25.245  36.036   0.024
39143W        W 4128  36.252  44.086  11.643
39144W        W 4129   4.438  22.082   0.893
39145W        W 4130   3.434  24.688  14.671
39146W        W 4131  13.640  27.197   0.412
39147W        W 4132   4.837  29.926   2.274
39148W        W 4133   8.979  42.774   4.652
39149W        W 4134  14.595  42.594  10.633
39150W        W 4135  17.120  19.517   2.409
39151W        W 4136  20.161  16.021  13.369
39152W        W 4137   9.857  37.655  11.997
39153W        W 4138  23.737  43.791  11.686
39154W        W 4139  38.591   2.172  12.835
39155W        W 4140  33.986  28.959  13.877
39156W        W 4141  37.580   8.755  14.993
39157W        W 4142  36.924  36.014  11.186
39158W        W 4143   9.420   6.131   9.786
39159W        W 4144  43.311  12.959  10.798
39160W        W 4145  26.953  21.006   0.309
39161W        W 4146   5.133   9.091   3.696
39162W        W 4147  31.933  21.510   1.487
39163W        W 4148  10.059   7.817  13.026
39164W        W 4149  12.152  14.676   0.391
39165W        W 4150   0.425  43.746   3.738
39166W        W 4151  39.879  44.119   2.113
39167W        W 4152   7.420   8.391  12.122
39168W        W 4153   9.307  11.323  14.215
39169W        W 4154  38.415  18.273  14.554
39170W        W 4155  38.231  38.807   0.828
39171W        W 4156   8.474   2.298   4.636
39172W        W 4157  25.619  42.173   4.487
39173W        W 4158   2.759  32.062   4.698
39174W        W 4159   9.731  37.865   1.217
39175W        W 4160   8.397  34.804  11.617
39176W        W 4161   2.787  26.591   0.941
39177W        W 4162  21.510  25.593  12.855
39178W        W 4163  28.172  24.983   0.781
39179W        W 4164  37.423  42.162   3.369
39180W        W 4165  10.406  30.641   1.370
39181W        W 4166   5.516   9.183   0.467
39182W        W 4167   0.293  43.321  12.547
39183W        W 4168  38.337  21.979   2.729
39184W        W 4169   0.009  21.679   0.284
39185W        W 4170  33.412   9.367   2.678
39186W        W 4171  36.831  12.183  11.655
39187W        W 4172  34.986  44.828   0.628
39188W        W 4173  29.670  32.081   1.069
39189W        W 4174  18.839  26.220   0.362
39190W        W 4175  33.046  29.727  13.356
39191W        W 4176   6.040   8.884  13.958
39192W        W 4177  38.877  35.159  12.965
39193W        W 4178  24.204   2.875  14.893
39194W        W 4179  20.133  26.128   0.785
39195W        W 4180  41.506  35.316  14.332
39196W        W 4181  14.560  25.731  13.925
39197W        W 4182  34.347  12.531   4.264
39198W        W 4183  36.802  14.801  10.783
39199W        W 4184  41.936  14.849   2.684
39200W        W 4185  12.620   8.904  14.931
39201W        W 4186  33.924  16.976  11.745
39202W        W 4187  12.384  19.245   3.570
39203W        W 4188  16.351  26.093  14.089
39204W        W 4189  42.052   9.834  11.245
39205W        W 4190   4.443  11.605  14.863
39206W        W 4191  11.316  44.998   4.122
39207W        W 4192   8.398   9.137  14.312
39208W        W 4193   2.437  35.589   2.719
39209W        W 4194  26.709  12.290   1.300
39210W        W 4195  28.359  42.075  11.418
39211W        W 4196  14.122  27.544   5.308
39212W        W 4197  39.837  26.761  10.341
39213W        W 4198  15.448  43.212  12.984
39214W        W 4199  39.741  44.838  12.802
39215W        W 4200  19.162  13.179   4.818
39216W        W 4201  26.476  12.583   1.724
39217W        W 4202   8.793   0.174   0.339
39218W        W 4203  34.254  34.474   3.615
39219W        W 4204   8.173  26.461   2.769
39220W        W 4205  32.005  24.205  13.428
39221W        W 4206   0.919  16.708  11.435
39222W        W 4207  31.383  15.686   4.601
39223W        W 4208   1.356  22.666   0.744
39224W        W 4209   0.143  31.547   3.794
39225W        W 4210   1.078  15.542   3.095
39226W        W 4211  25.785   3.483   0.220
39227W        W 4212  29.927  14.412   4.372
39228W        W 4213  27.685   6.497   5.026
39229W        W 4214  30.222  34.789  14.524
39230W        W 4215   4.235  23.194  12.177
39231W        W 4216  26.053  20.540   4.210
39232W        W 4217  33.457  13.137  11.440
39233W        W 4218  21.633   3.911   0.792
39234W        W 4219  15.141  38.356   2.443
39235W        W 4220  14.076   5.784   9.603
39236W        W 4221  14.699  19.924   2.724
39237W        W 4222  38.760   3.596   4.590
39238W        W 4223  14.562  25.584   2.863
39239W        W 4224  40.059  17.623   0.438
39240W        W 4225  27.170  17.037   4.250
39241W        W 4226   9.820  29.656   2.957
39242W        W 4227  17.347  18.550   0.490
39243W        W 4228   0.813   8.191   2.281
39244W        W 4229  42.028  32.572   0.791
39245W        W 4230   7.520  42.791  12.565
39246W        W 4231  20.605   4.528   1.866
39247W        W 4232  10.918  37.523   3.993
39248W        W 4233  11.281   4.978  12.973
39249W        W 4234  38.810   4.364   3.521
39250W        W 4235  33.675  20.107  14.279
39251W        W 4236  36.368   8.603   2.134
39252W        W 4237  37.076  25.125  10.515
39253W        W 4238  20.804  26.732  11.294
39254W        W 4239  40.055   5.654   0.867
39255W        W 4240  38.212  39.559   1.204
39256W        W 4241  40.334  29.661   2.342
39257W        W 4242  39.465  23.849   4.700
39258W        W 4243  34.001   0.992  14.047
39259W        W 4244  33.098  11.542   0.359
39260W        W 4245  33.198   0.580  11.935
39261W        W 4246   5.891   0.361   2.653
39262W        W 4247  19.224  43.407   2.583
39263W        W 4248  10.892  27.421   0.041
39264W        W 4249   1.057  36.430  14.050
39265W        W 4250  37.469  11.704  14.321
39266W        W 4251  12.861  22.226   2.545
39267W        W 4252  29.964  41.890   0.399
39268W        W 4253  25.005  19.580   1.385
39269W        W 4254  21.359   7.950   4.472
39270W        W 4255  14.329  27.516  12.128
39271W        W 4256  26.326  35.464  12.770
39272W        W 4257  11.241  41.899  10.766
39273W        W 4258  19.649   2.040   1.444
39274W        W 4259  12.562  33.053  13.475
39275W        W 4260   8.783  41.386   1.410
39276W        W 4261   4.681  34.178   3.845
39277W        W 4262   8.195  24.961  14.350
39278W        W 4263  35.066  42.061   3.637
39279W        W 4264  20.157  31.904   3.568
39280W        W 4265  22.939   0.446  12.795
39281W        W 4266  42.602  20.731   3.088
39282W        W 4267   7.661  15.787  14.420
39283W        W 4268   7.592   7.294  14.358
39284W        W 4269  43.523  11.732   1.520
39285W        W 4270  11.339  11.250   4.046
39286W        W 4271   1.648  44.804   1.682
39287W        W 4272  30.616  44.775   4.587
39288W        W 4273  23.598  40.830  13.441
39289W        W 4274   8.781  26.435   0.676
39290W        W 4275  21.606  40.566   4.076
39291W        W 4276  34.539  38.145   0.090
39292W        W 4277  32.086  11.662  11.422
39293W        W 4278  29.196  16.252   0.527
39294W        W 4279   1.453  22.952   2.710
39295W        W 4280   0.193  26.976   1.308
39296W        W 4281  27.270  17.562  14.293
39297W        W 4282  15.616  23.888   0.799
39298W        W 4283  41.545  15.258  11.210
39299W        W 4284  11.565  14.898   4.797
39300W        W 4285   1.771  42.289  13.402
39301W        W 4286   7.627  32.218  13.912
39302W        W 4287  18.865  38.531   1.320
39303W        W 4288  35.636  31.400  14.264
39304W        W 4289  20.659   5.200   4.375
39305W        W 4290  17.312   2.958   3.757
39306W        W 4291  18.309  24.809   5.137
39307W        W 4292  29.085  22.749   1.855
39308W        W 4293  42.041  32.368  13.583
39309W        W 4294  38.855  10.086   4.235
39310W        W 4295  16.712   8.948   4.067
39311W        W 4296   6.949  32.276  12.065
39312W        W 4297  29.082  11.659   0.318
39313W        W 4298  25.210  28.443   1.768
39314W        W 4299  17.792   6.321   1.945
39315W        W 4300   8.199   6.253  12.264
39316W        W 4301   0.776   4.909   4.139
39317W        W 4302   2.443  41.894   4.467
39318W        W 4303  31.871  44.394   2.992
39319W        W 4304  11.506  13.906   5.082
39320W        W 4305   3.667   0.717  14.333
39321W        W 4306  31.945   1.236   3.871
39322W        W 4307  35.305  24.645  11.390
39323W        W 4308  27.023   2.419  14.743
39324W        W 4309  18.187  12.677   4.651
39325W        W 4310  34.364  27.669  10.739
39326W        W 4311  24.562  30.985  12.604
39327W        W 4312   4.208  18.586  11.658
39328W        W 4313  43.909  28.954  14.567
39329W        W 4314  11.130  44.510   4.243
39330W        W 4315  27.998  16.605  14.881
39331W        W 4316   0.216  25.482   3.744
39332W        W 4317  26.626   8.286   2.298
39333W        W 4318  36.154  30.809   4.617
39334W        W 4319   3.878   6.346   1.889
39335W        W 4320  16.244  16.594   3.698
39336W        W 4321  31.460  18.182  12.453
39337W        W 4322  15.428  37.595   1.840
39338W        W 4323   3.031   4.447  10.438
39339W        W 4324   6.138  33.428   1.194
39340W        W 4325  33.062  23.761   4.749
39341W        W 4326   5.198  10.784   1.747
39342W        W 4327  27.049   8.747  13.389
39343W        W 4328  14.041  44.061   5.055
39344W        W 4329  23.712  12.686   3.094
39345W        W 4330  40.906  24.588  12.685
39346W        W 4331  16.471   8.991  11.534
39347W        W 4332  18.910   3.074  10.276
39348W        W 4333   3.324   3.200  14.362
39349W        W 4334  41.294  30.941   3.265
39350W        W 4335  11.302   8.659   2.015
39351W        W 4336  13.911   6.583  10.676
39352W        W 4337  31.050  27.531   2.659
39353W        W 4338  42.656  19.063   2.440
39354W        W 4339  14.458  38.162   5.052
39355W        W 4340  33.773  43.074  12.441
39356W        W 4341  42.043   9.393  11.504
39357W        W 4342  15.265  24.949  12.021
39358W        W 4343  24.134  12.742  13.584
39359W        W 4344   7.957  30.424   4.956
39360W        W 4345  41.031  20.125   3.417
39361W        W 4346  44.327  22.077  13.385
39362W        W 4347   5.477  24.096  13.813
39363W        W 4348   6.163  14.793  10.188
39364W        W 4349  10.821   0.513  11.984
39365W        W 4350  30.199   1.000   1.171
39366W        W 4351  27.692  14.418  12.453
39367W        W 4352  37.285  37.908   4.960
39368W        W 4353  28.145  30.648   0.158
39369W        W 4354  16.835  39.475   1.262
39370W        W 4355  10.278  32.450   0.370
39371W        W 4356  41.942  20.055   4.206
39372W        W 4357   7.286  44.208   0.742
39373W        W 4358  27.334  33.503  11.632
39374W        W 4359  44.883  12.077   1.833
39375W        W 4360  11.363  23.036   2.774
39376W        W 4361  23.014  24.003  14.835
39377W        W 4362   8.721   3.200   2.820
39378W        W 4363   9.587  42.475  13.867
39379W        W 4364  38.442  29.598   2.780
39380W        W 4365  16.945  33.066   1.943
39381W        W 4366  27.538  13.693  13.237
39382W        W 4367  37.019  38.469  12.053
39383W        W 4368  35.648  17.109   3.703
39384W        W 4369  24.471  16.789  13.437
39385W        W 4370  17.556   5.176   0.880
39386W        W 4371   8.861  14.128   0.730
39387W        W 4372  23.164  38.566   0.268
39388W        W 4373   2.277  35.030  14.960
39389W        W 4374  28.903  38.946  11.699
39390W        W 4375  38.423  35.568   3.580
39391W        W 4376  19.310  24.550   0.734
39392W        W 4377  11.584  19.116   3.252
39393W        W 4378  31.557  21.158  11.985
39394W        W 4379  26.172  34.824   1.744
39395W        W 4380  29.137  36.959  12.778
39396W        W 4381   3.157  21.078  11.615
39397W        W 4382   6.129  28.750  12.395
39398W        W 4383  33.681  34.516  14.435
39399W        W 4384  37.791   4.464   0.017
39400W        W 4385   4.834  27.683   0.483
39401W        W 4386  22.972   2.463   4.093
39402W        W 4387   5.336  37.072  11.968
39403W        W 4388  43.529  13.376  13.504
39404W        W 4389   7.626  33.453   4.636
39405W        W 4390  26.201  37.364   1.647
39406W        W 4391  14.614  16.954   1.736
39407W        W 4392  12.802  10.199  11.704
39408W        W 4393   9.488  10.182   4.229
39409W        W 4394  18.708  36.685   1.208
39410W        W 4395   9.150  44.471  14.328
39411W        W 4396   9.816  21.473   2.241
39412W        W 4397  22.849  34.820  10.970
39413W        W 4398   4.361  42.124   0.484
39414W        W 4399   4.272  13.459  12.678
39415W        W 4400  21.719  15.647  14.866
39416W        W 4401  28.684  42.824   0.756
39417W        W 4402   1.854  29.532  13.002
39418W        W 4403  19.747  32.099  12.656
39419W        W 4404  10.470   3.352  10.225
39420W        W 4405  25.376   3.081   3.727
39421W        W 4406  15.347   8.176  12.853
39422W        W 4407  12.731  32.856  10.711
39423W        W 4408   2.518  32.513   4.869
39424W        W 4409  10.243  17.300  11.216
39425W        W 4410  30.910  10.595   2.255
39426W        W 4411  26.601  41.454  14.901
39427W        W 4412  31.137  20.269  10.513
39428W        W 4413   8.145  37.989   3.899
39429W        W 4414   5.444  37.976   2.893
39430W        W 4415  29.360  44.920   3.640
39431W        W 4416   8.448  30.719  14.908
39432W        W 4417  14.791  30.552  10.935
39433W        W 4418  23.724  22.770   1.708
39434W        W 4419   2.469  19.760  10.676
39435W        W 4420  17.101   1.807  14.220
39436W        W 4421  28.659  28.605  14.629
39437W        W 4422   3.296   6.435  13.420
39438W        W 4423  13.274  29.984   0.207
39439W        W 4424  28.474   8.725   4.367
39440W        W 4425  21.590  33.843   2.453
39441W        W 4426  23.462  27.009  11.934
39442W        W 4427  24.673  44.247   4.312
39443W        W 4428  31.496  19.110   3.985
39444W        W 4429  21.104  33.569   3.395
39445W        W 4430  23.499  40.548   1.373
39446W        W 4431  20.962  16.870  12.970
39447W        W 4432  36.132  20.274  10.791
39448W        W 4433  10.938  21.304   0.994
39449W        W 4434   5.370  37.789  13.077
39450W        W 4435  14.991  27.944   1.823
39451W        W 4436  11.228  17.923  11.577
39452W        W 4437  23.521   6.934   0.331
39453W        W 4438  44.521   4.922   1.506
39454W        W 4439  22.215  30.012  12.554
39455W        W 4440  40.094  11.917  12.078
39456W        W 4441  22.285   3.076  12.915
39457W        W 4442  39.418  25.027  13.395
39458W        W 4443  19.590  42.986  14.728
39459W        W 4444  16.713  28.029  14.852
39460W        W 4445  22.091  18.992  12.095
39461W        W 4446  23.999  25.824   4.305
39462W        W 4447   0.856  32.532   4.521
39463W        W 4448  26.728  16.219  14.929
39464W        W 4449  21.041  33.516   4.934
39465W        W 4450  43.271  25.120  14.459
39466W        W 4451  40.204  27.705   2.254
39467W        W 4452  12.303   6.932   1.508
39468W        W 4453  33.028  38.457   0.112
39469W        W 4454  11.259   8.828  14.006
39470W        W 4455  22.299  21.057   0.180
39471W        W 4456   8.980  36.392   2.107
39472W        W 4457   0.835  23.695  14.886
39473W        W 4458   6.200  23.965   2.307
39474W        W 4459  31.019  12.385  11.837
39475W        W 4460  13.641  36.032   4.242
39476W        W 4461  14.837  31.159   3.633
39477W        W 4462  24.101   6.676   4.060
39478W        W 4463  24.642  23.490   1.767
39479W        W 4464   0.023   2.484   0.401
39480W        W 4465   9.361   5.122   5.615
39481W        W 4466  29.165  38.103  10.946
39482W        W 4467  43.344   1.211  14.329
39483W        W 4468  33.920  43.402  14.817
39484W        W 4469  23.894  43.121  13.528
39485W        W 4470  12.591   0.378  11.621
39486W        W 4471  44.122   2.934  13.393
39487W        W 4472  29.721  36.301   1.957
39488W        W 4473  40.860  12.638   2.038
39489W        W 4474  27.506  16.969   1.461
39490W        W 4475  25.312  18.565  12.420
39491W        W 4476   7.869   7.584   5.488
39492W        W 4477   1.833  18.721   3.758
39493W        W 4478  24.971  30.938   1.806
39494W        W 4479  23.972  10.100   9.927
39495W        W 4480  28.036   6.654  10.747
39496W        W 4481  40.307  13.221  10.708
39497W        W 4482  20.022  20.489  14.270
39498W        W 4483   1.206   3.236  12.447
39499W        W 4484  44.361  13.362   4.706
39500W        W 4485   2.811  10.653   0.949
39501W        W 4486  30.952   8.405   4.087
39502W        W 4487  26.437  16.669  10.619
39503W        W 4488  12.771  18.939  14.063
39504W        W 4489  36.446   3.373   2.658
39505W        W 4490  13.241  15.884  13.549
39506W        W 4491  28.767  24.440   3.252
39507W        W 4492  32.108  30.499  14.564
39508W        W 4493  30.196  29.073   3.673
39509W        W 4494  10.811  22.959  11.901
39510W        W 4495  23.795  16.645   1.481
39511W        W 4496  11.696   8.131  10.765
39512W        W 4497  41.877   4.643  14.347
39513W        W 4498  26.309  42.008   2.711
39514W        W 4499   7.397  32.379  13.036
39515W        W 4500  15.556   3.723   2.003
39516W        W 4501  30.961  38.523   2.070
39517W        W 4502   2.813  19.071   4.206
39518W        W 4503  27.733  35.569  14.364
39519W        W 4504  27.675  11.029   2.295
39520W        W 4505   6.346   8.424   2.864
39521W        W 4506  37.957   5.697  12.417
39522W        W 4507  10.780  31.946   0.731
39523W        W 4508  42.052  38.819   2.454
39524W        W 4509   1.890  23.190   1.904
39525W        W 4510   0.245  40.117   1.411
39526W        W 4511  23.037  21.204   4.865
39527W        W 4512  23.901  33.587   2.201
39528W        W 4513  10.216  19.335  11.073
39529W        W 4514  13.560  33.139   4.492
39530W        W 4515  34.546  38.092  13.367
39531W        W 4516  13.597  32.727  12.383
39532W        W 4517  19.512  32.464  13.478
39533W        W 4518  24.675  17.073  11.869
39534W        W 4519  40.918  20.413   3.825
39535W        W 4520  25.427  15.684   3.069
39536W        W 4521   0.800  43.787  10.565
39537W        W 4522   4.424  25.447  14.350
39538W        W 4523   2.283   4.865  13.531
39539W        W 4524  19.721  31.536   2.358
39540W        W 4525   4.619   1.658   4.203
39541W        W 4526   7.869  29.528   1.301
39542W        W 4527  23.003  10.297   2.279
39543W        W 4528  27.498   4.356   5.050
39544W        W 4529  23.426  38.082  11.169
39545W        W 4530  27.486  28.884   0.771
39546W        W 4531  13.191  17.775   2.960
39547W        W 4532  13.267  28.028  13.447
39548W        W 4533  24.686  29.385  12.562
39549W        W 4534  39.099  42.534   2.514
39550W        W 4535  30.623  35.411   1.067
39551W        W 4536  13.121  36.761   1.818
39552W        W 4537  26.451  22.317   0.529
39553W        W 4538  13.738  40.739   3.486
39554W        W 4539  34.958   6.973   0.489
39555W        W 4540  14.755  16.253   0.725
39556W        W 4541   3.055  19.293   3.156
39557W        W 4542  15.321  42.876   1.737
39558W        W 4543   6.602  14.060   0.730
39559W        W 4544  12.203   6.577   2.862
39560W        W 4545  25.223   2.308  14.348
39561W        W 4546  21.536  17.820  11.174
39562W        W 4547  32.690  43.364  12.796
39563W        W 4548  22.705  38.890  10.864
39564W        W 4549  25.850  24.618  14.822
39565W        W 4550  33.622  24.632   5.030
39566W        W 4551  44.394  20.041   3.850
39567W        W 4552  26.506  12.318   5.173
39568W        W 4553   1.063  25.120   0.308
39569W        W 4554  39.785  10.843  11.684
39570W        W 4555  35.483  16.391  12.983
39571W        W 4556  41.929  40.122   3.196
39572W        W 4557  17.805  21.648  11.738
39573W        W 4558  19.601  17.834  12.941
39574W        W 4559  11.466  19.140  14.335
39575W        W 4560  28.910   2.329  13.514
39576W        W 4561  41.675  21.602   4.184
39577W        W 4562  43.353  40.561  12.517
39578W        W 4563  27.705  43.508   2.115
39579W        W 4564   8.805  28.184   4.888
39580W        W 4565  38.614  21.300   4.698
39581W        W 4566   2.523  41.880  14.622
39582W        W 4567  27.057  40.390   2.995
39583W        W 4568  28.889   2.091   5.316
39584W        W 4569  28.845   8.893   1.599
39585W        W 4570   9.635   2.915  13.308
39586W        W 4571   8.562  18.765   1.833
39587W        W 4572  16.928  36.103  11.355
39588W        W 4573   8.712  13.901  11.160
39589W        W 4574  32.910  21.949   3.892
39590W        W 4575  11.870   6.710   1.828
39591W        W 4576  16.656  11.288  11.886
39592W        W 4577  41.748  28.207  10.690
39593W        W 4578  17.677   3.229   2.944
39594W        W 4579  27.219  44.397  11.841
39595W        W 4580  24.038  24.192  13.325
39596W        W 4581  23.592  33.040   2.334
39597W        W 4582   8.709  26.441  10.735
39598W        W 4583  36.474  18.690   3.305
39599W        W 4584   1.449   9.389   0.940
39600W        W 4585  39.495  28.570   2.885
39601W        W 4586  15.581  32.792   2.094
39602W        W 4587  11.588  30.039   0.274
39603W        W 4588   8.798  27.212  12.110
39604W        W 4589  13.221  26.555   1.426
39605W        W 4590  25.534  14.072   3.334
39606W        W 4591  20.253   2.845  13.558
39607W        W 4592  26.602  16.318   2.732
39608W        W 4593  41.125  19.165   3.709
39609W        W 4594   8.535  35.584   0.260
39610W        W 4595  19.059   1.640  11.168
39611W        W 4596   1.659  12.787   3.211
39612W        W 4597  40.154   3.223   2.238
39613W        W 4598  33.063  33.479   4.127
39614W        W 4599   4.549  11.633  12.225
39615W        W 4600  19.190  34.920   1.005
39616W        W 4601   7.609  44.345  14.477
39617W        W 4602  36.211   6.183  11.695
39618W        W 4603   1.870  39.510   0.400
39619W        W 4604  19.327   3.530  11.436
39620W        W 4605   9.831   1.934  10.742
39621W        W 4606  18.357   7.392  14.692
39622W        W 4607  37.140   9.237   0.413
39623W        W 4608  18.542  36.346  10.769
39624W        W 4609  16.790  32.441  13.394
39625W        W 4610  19.278  36.698  12.095
39626W        W 4611  37.724  37.532   9.564
39627W        W 4612  37.463  20.631  12.442
39628W        W 4613   3.928  11.461   1.977
39629W        W 4614  29.534  21.423   2.693
39630W        W 4615  31.582  25.666  11.799
39631W        W 4616  10.307  24.081  10.699
39632W        W 4617  16.580  10.713  10.660
39633W        W 4618  12.165  44.012   2.725
39634W        W 4619  22.149  34.771  12.915
39635W        W 4620  24.754  36.035   2.326
39636W        W 4621   4.956  39.442  12.065
39637W        W 4622  12.795  17.904   4.460
39638W        W 4623  24.127  12.157  10.439
39639W        W 4624  41.595  36.965   0.346
39640W        W 4625  33.006   0.811   3.582
39641W        W 4626  38.460  36.665  13.406
39642W        W 4627  25.481   9.461   3.589
39643W        W 4628   0.793   8.536   1.874
39644W        W 4629  21.032  24.028   3.681
39645W        W 4630  11.421  38.533   1.421
39646W        W 4631  23.300  11.229   3.584
39647W        W 4632  21.618   3.929  14.034
39648W        W 4633  34.358  21.803  10.748
39649W        W 4634  22.606   1.753  14.781
39650W        W 4635  26.957  29.835   0.766
39651W        W 4636  26.102  13.612   1.250
39652W        W 4637  20.461  27.594  12.396
39653W        W 4638   9.171  22.528   2.693
39654W        W 4639  11.773  29.448  10.800
39655W        W 4640   1.082  34.449   4.263
39656W        W 4641  44.942  32.965  11.575
39657W        W 4642  14.590   5.581  14.318
39658W        W 4643  14.586  10.550   2.725
39659W        W 4644  39.967  40.747   2.191
39660W        W 4645  27.241  20.101  14.853
39661W        W 4646  11.211  10.694  11.924
39662W        W 4647   8.467  12.225  10.729
39663W        W 4648  27.972  33.354   3.339
39664W        W 4649  30.184  20.701  12.955
39665W        W 4650  29.345  29.347   0.039
39666W        W 4651  30.391  43.808   1.270
39667W        W 4652  25.771   0.054   0.792
39668W        W 4653   6.955  16.272   4.111
39669W        W 4654  30.360  16.288   3.050
39670W        W 4655  20.614  25.228  10.621
39671W        W 4656  42.047  39.990  14.408
39672W        W 4657   3.714   2.303   3.314
39673W        W 4658  30.857  32.931  11.588
39674W        W 4659  31.196  21.572   3.297
39675W        W 4660  12.226  25.600   2.201
39676W        W 4661   2.359   9.711  11.008
39677W        W 4662  36.140  26.826  12.564
39678W        W 4663  14.322  19.403   2.685
39679W        W 4664   1.205  26.730  11.317
39680W        W 4665   7.181  40.002  12.063
39681W        W 4666  25.196  28.332   0.420
39682W        W 4667   0.574  15.409  10.284
39683W        W 4668   6.902  38.531  10.677
39684W        W 4669  34.439  25.032   1.704
39685W        W 4670  41.298  32.683  12.110
39686W        W 4671  40.235  23.956   2.452
39687W        W 4672   3.793   6.134  14.323
39688W        W 4673  18.756  27.536   1.763
39689W        W 4674  37.003  14.306  13.274
39690W        W 4675  44.514   1.985  10.705
39691W        W 4676  19.879  39.394   1.423
39692W        W 4677   7.752  15.596   4.475
39693W        W 4678  37.996  37.383   3.849
39694W        W 4679   8.516  20.849   4.340
39695W        W 4680   0.725  20.086   1.693
39696W        W 4681  20.033  31.173   2.167
39697W        W 4682  13.916  17.702  13.828
39698W        W 4683  43.560  39.777   3.662
39699W        W 4684   4.880  43.864  12.702
39700W        W 4685  11.000   7.168   4.304
39701W        W 4686  21.144   2.644   0.681
39702W        W 4687  29.175  32.358   3.683
39703W        W 4688  28.891  25.329  11.547
39704W        W 4689  30.199  43.397  13.288
39705W        W 4690  42.659   8.339  10.805
39706W        W 4691  15.353   6.929   3.434
39707W        W 4692  36.599  37.406  11.475
39708W        W 4693   9.594  30.408   4.050
39709W        W 4694  35.427  15.220  14.730
39710W        W 4695   0.842   1.888  11.465
39711W        W 4696  35.320   8.836  12.906
39712W        W 4697  14.642   4.297  11.095
39713W        W 4698   9.483  25.656   1.878
39714W        W 4699  38.532  42.600   3.640
39715W        W 4700  38.600  25.545  13.817
39716W        W 4701  31.669  28.368   0.080
39717W        W 4702   0.718  34.046  11.548
39718W        W 4703  14.604   9.668  11.538
39719W        W 4704  43.379  42.882  12.089
39720W        W 4705  44.528  19.024  10.692
39721W        W 4706  15.274  27.479   1.837
39722W        W 4707  19.215  21.788   1.678
39723W        W 4708  28.631  19.827  11.149
39724W        W 4709   7.629  23.160   2.409
39725W        W 4710   5.416  14.190  14.485
39726W        W 4711  17.360  23.060   2.791
39727W        W 4712  40.617  18.558   3.576
39728W        W 4713   5.868   8.453   2.228
39729W        W 4714  15.438   1.980  10.987
39730W        W 4715  31.359  33.966   1.186
39731W        W 4716  32.399  34.594   0.779
39732W        W 4717  22.745   7.780   1.367
39733W        W 4718  11.846  33.043  11.651
39734W        W 4719  34.208  19.810   4.157
39735W        W 4720  25.505  38.881   2.385
39736W        W 4721  31.128   5.871  12.144
39737W        W 4722  15.636  30.882  14.280
39738W        W 4723  18.540  13.077  13.557
39739W        W 4724  34.561  31.337  12.129
39740W        W 4725   3.325  26.008   3.232
39741W        W 4726  28.390  32.751  13.119
39742W        W 4727  35.830  14.873  10.803
39743W        W 4728  26.127  17.060  13.546
39744W        W 4729  23.723  35.419  14.543
39745W        W 4730  42.396  37.666  10.337
39746W        W 4731  22.125  29.891  12.036
39747W        W 4732   8.402   0.363  11.554
39748W        W 4733  42.086  39.611  12.703
39749W        W 4734  21.238  15.499   5.272
39750W        W 4735  39.312  22.001   3.019
39751W        W 4736  38.503  17.310  13.124
39752W        W 4737  18.785  25.068  10.713
39753W        W 4738  10.013  18.335  12.059
39754W        W 4739  33.492  42.065   1.775
39755W        W 4740  23.225  24.517   3.049
39756W        W 4741  23.433  37.687   1.264
39757W        W 4742  11.394  15.633   1.401
39758W        W 4743  43.736   5.238   1.192
39759W        W 4744  14.300  19.157  12.511
39760W        W 4745  30.074  36.876  12.012
39761W        W 4746  20.773  35.123  11.809
39762W        W 4747  11.800   5.898   1.127
39763W        W 4748  15.273  21.790   1.076
39764W        W 4749  35.355  38.939   3.522
39765W        W 4750   6.266  15.729  14.330
39766W        W 4751  37.247  24.609   0.509
39767W        W 4752   0.474  20.997  11.349
39768W        W 4753  35.011   4.710   4.791
39769W        W 4754  17.261  24.058   4.587
39770W        W 4755  44.048  26.504  10.709
39771W        W 4756   9.112  27.965   1.938
39772W        W 4757  20.187  23.361   0.753
39773W        W 4758  32.926   6.598  13.807
39774W        W 4759  25.508  23.652   2.377
39775W        W 4760  43.855  34.702  12.077
39776W        W 4761   5.489  44.035  10.467
39777W        W 4762   0.892  43.222   3.652
39778W        W 4763  26.275  13.685  13.860
39779W        W 4764  27.158  35.916  14.941
39780W        W 4765  28.265  21.280   3.419
39781W        W 4766   8.367  37.603   3.264
39782W        W 4767  17.418  43.094   4.789
39783W        W 4768  40.755   4.368  11.620
39784W        W 4769   1.625  41.644   5.022
39785W        W 4770  39.866  40.851   1.278
39786W        W 4771  19.455  15.281   0.415
39787W        W 4772   5.280  19.149   0.448
39788W        W 4773  24.191  18.624   3.488
39789W        W 4774  27.022  18.035  14.385
39790W        W 4775  35.873  15.046  13.324
39791W        W 4776   7.905  11.314   1.324
39792W        W 4777  23.554  22.541   3.565
39793W        W 4778   3.341  42.668   4.401
39794W        W 4779  27.192   9.489   1.297
39795W        W 4780  12.711  24.491   0.327
39796W        W 4781  19.806  38.604  13.214
39797W        W 4782   9.119  29.498   2.634
39798W        W 4783  18.678  11.196   1.890
39799W        W 4784  11.740   7.240  10.489
39800W        W 4785  12.085  23.932  12.612
39801W        W 4786   6.395  36.026   0.118
39802W        W 4787  42.777  41.512  11.598
39803W        W 4788   8.273   2.170  12.443
39804W        W 4789   2.240   6.851   1.391
39805W        W 4790  35.430  22.279   4.133
39806W        W 4791   2.705  28.599   2.209
39807W        W 4792  38.575  33.079   2.397
39808W        W 4793  40.822  27.765   4.117
39809W        W 4794  44.717   2.855  12.014
39810W        W 4795  23.313  10.773  12.416
39811W        W 4796  43.556   6.234  12.452
39812W        W 4797  12.789  12.767   1.847
39813W        W 4798  30.562  34.412   3.273
39814W        W 4799  23.145  15.783   0.399
39815W        W 4800  13.885  10.120  13.308
39816W        W 4801   1.435  24.244   2.622
39817W        W 4802   8.150  35.954   0.307
39818W        W 4803  25.986  38.512   1.752
39819W        W 4804  42.552  22.984   0.953
39820W        W 4805  26.508  30.965   2.558
39821W        W 4806  35.865   1.349  13.756
39822W        W 4807  30.287  11.113  13.568
39823W        W 4808  26.137  37.420   4.088
39824W        W 4809   6.816   2.982  11.898
39825W        W 4810  12.811  32.849   3.383
39826W        W 4811  13.159  10.939  11.968
39827W        W 4812  40.140  31.357   0.697
39828W        W 4813  43.801  28.053  13.892
39829W        W 4814  24.511   2.845  11.296
39830W        W 4815  39.603  44.974  11.144
39831W        W 4816  31.917  27.550  14.019
39832W        W 4817   0.045   7.822   0.362
39833W        W 4818  43.316  12.642   4.112
39834W        W 4819  28.637  12.323  11.298
39835W        W 4820  10.662  38.725   1.753
39836W        W 4821  42.262  44.559  11.702
39837W        W 4822  10.252  33.190   1.723
39838W        W 4823   0.181  25.590  13.963
39839W        W 4824  10.711  10.822  10.689
39840W        W 4825  16.072  11.631   0.889
39841W        W 4826  22.327  22.357  11.227
39842W        W 4827  11.804  30.481   4.119
39843W        W 4828  31.612  34.474  14.402
39844W        W 4829  33.933  19.100  11.218
39845W        W 4830  18.307   3.139  13.928
39846W        W 4831  35.125   6.655   1.692
39847W        W 4832  21.657  18.739   1.589
39848W        W 4833  38.930  13.143   0.425
39849W        W 4834  25.818  35.347  11.861
39850W        W 4835  37.865  14.284   1.138
39851W        W 4836  26.561  38.821   3.223
39852W        W 4837  32.013  26.565  14.924
39853W        W 4838  32.502   0.167   2.215
39854W        W 4839   2.299  31.822   1.995
39855W        W 4840  34.543  31.115  12.632
39856W        W 4841  19.836  28.411  11.359
39857W        W 4842  39.014  31.731   2.230
39858W        W 4843   1.938  21.039   0.892
39859W        W 4844   6.310   2.259  10.969
39860W        W 4845  27.952  21.209  12.137
39861W        W 4846  36.949  23.563  13.851
39862W        W 4847  16.237  23.741  11.465
39863W        W 4848  11.778   4.464  12.527
39864W        W 4849  17.405  36.206  12.613
39865W        W 4850   8.771  33.544   1.750
39866W        W 4851   1.055  22.561  14.532
39867W        W 4852  26.551  22.135  14.544
39868W        W 4853   8.653  12.781   0.184
39869W        W 4854  26.426  10.423  13.972
39870W        W 4855  12.286   9.860   1.488
39871W        W 4856   1.743  14.597  12.058
39872W        W 4857  38.533   7.453  12.883
39873W        W 4858  33.056  24.293  14.978
39874W        W 4859   1.579  40.353   2.280
39875W        W 4860   7.341  23.590  12.478
39876W        W 4861  28.591  39.983  14.512
39877W        W 4862   7.110   8.516  10.374
39878W        W 4863  29.084  44.202  14.860
39879W        W 4864  11.762  28.342   4.255
39880W        W 4865  34.277  25.565  13.997
39881W        W 4866  36.911   2.424  14.386
39882W        W 4867   3.327  38.508   1.777
39883W        W 4868  23.785  17.932  14.963
39884W        W 4869  20.410  35.876  12.047
39885W        W 4870  40.922  39.379   0.892
39886W        W 4871   9.042  42.896  12.376
39887W        W 4872  30.396   7.564   2.032
39888W        W 4873  22.178  41.926   3.669
39889W        W 4874   5.334  24.445  13.002
39890W        W 4875   3.888  36.576  14.889
39891W        W 4876  34.561  25.512   3.142
39892W        W 4877   0.954  15.207   1.351
39893W        W 4878  24.292  35.707  11.640
39894W        W 4879  13.363  31.044  10.975
39895W        W 4880  18.522   4.793   0.762
39896W        W 4881  34.909  24.895  12.490
39897W        W 4882  26.597  31.736   0.808
39898W        W 4883  29.175   8.820  11.386
39899W        W 4884  15.872  33.697  14.033
39900W        W 4885  30.259   0.987   4.197
39901W        W 4886  23.754  19.090  13.444
39902W        W 4887  18.970  21.664  14.822
39903W        W 4888   4.346  15.880  11.982
39904W        W 4889  21.015  38.746   2.272
39905W        W 4890  14.417  27.166   3.550
39906W        W 4891  43.011  20.699   3.384
39907W        W 4892  38.509  16.267   1.990
39908W        W 4893  39.892  15.229   3.183
39909W        W 4894   9.180  10.765  14.388
39910W        W 4895  41.965  41.396   2.945
39911W        W 4896  39.106  36.400  12.101
39912W        W 4897   9.404  41.128  13.994
39913W        W 4898  43.320  24.151   4.275
39914W        W 4899  23.924  33.947  14.061
39915W        W 4900   1.932  12.225  11.508
39916W        W 4901  22.785  17.792   0.902
39917W        W 4902   8.879  28.618   2.290
39918W        W 4903  19.866  10.210   3.601
39919W        W 4904  41.338  43.425   4.979
39920W        W 4905  13.594  37.397   2.900
39921W        W 4906  16.658  30.858   3.213
39922W        W 4907   4.893  19.131  11.561
39923W        W 4908  13.590   3.301  14.097
39924W        W 4909  18.680  10.230   2.006
39925W        W 4910  33.986  43.130  13.264
39926W        W 4911  36.110  42.829  10.731
39927W        W 4912  42.782   2.297  13.799
39928W        W 4913  43.371  39.589   2.331
39929W        W 4914  36.160  25.214   1.642
39930W        W 4915  41.433  20.685   1.199
39931W        W 4916  14.718  39.392  11.961
39932W        W 4917  15.866  24.060  12.672
39933W        W 4918  42.971   9.545   4.660
39934W        W 4919  33.608  44.511   2.957
39935W        W 4920  31.010  43.191   1.700
39936W        W 4921  41.524  18.466   0.772
39937W        W 4922  19.299  40.284   2.688
39938W        W 4923   3.939  20.181   0.642
39939W        W 4924  21.718  21.995  13.411
39940W        W 4925  26.210  35.990   0.385
39941W        W 4926  44.403  32.877  13.154
39942W        W 4927  38.526  33.557   3.223
39943W        W 4928  37.762  21.094   2.197
39944W        W 4929   2.960  17.110   1.481
39945W        W 4930  33.562   3.449  10.593
39946W        W 4931   7.238  17.220   4.472
39947W        W 4932  39.546  35.985  12.583
39948W        W 4933  36.443  10.649  13.920
39949W        W 4934   4.229   5.637  13.520
39950W        W 4935  26.890  29.909   3.451
39951W        W 4936  32.452  22.093  14.793
39952W        W 4937  30.008   3.176   2.725
39953W        W 4938  44.707  40.972   4.112
39954W        W 4939  25.955  41.414   2.326
39955W        W 4940   7.040  44.076   0.316
39956W        W 4941  43.510  26.512   3.075
39957W        W 4942  14.097   6.247  12.021
39958W        W 4943  30.907  15.068  14.833
39959W        W 4944  42.413  26.255   2.574
39960W        W 4945  26.940  13.658  11.984
39961W        W 4946  14.681  22.117   2.641
39962W        W 4947  41.524   6.126   0.575
39963W        W 4948  22.656  14.247  14.318
39964W        W 4949   9.652  36.788  14.905
39965W        W 4950  26.666  13.698  13.497
39966W        W 4951  29.430  34.908  10.679
39967W        W 4952  13.601  20.905  12.457
39968W        W 4953  31.090   4.986   0.857
39969W        W 4954   4.866  12.270  13.552
39970W        W 4955   2.269  21.530  13.947
39971W        W 4956  31.916   7.410   0.993
39972W        W 4957  12.360  17.857  11.995
39973W        W 4958  20.259  11.459   3.355
39974W        W 4959  29.990  17.793  14.403
39975W        W 4960  12.413  22.102  13.801
39976W        W 4961  33.559  13.233   2.732
39977W        W 4962   9.323  42.471   4.344
39978W        W 4963  14.772  15.146  12.024
39979W        W 4964  24.025   0.478   4.645
39980W        W 4965  37.523  36.491   5.005
39981W        W 4966   5.395  31.385  13.616
39982W        W 4967   6.440  15.660  10.571
39983W        W 4968  10.671  18.261   2.907
39984W        W 4969  25.238  19.663   0.924
39985W        W 4970   9.634  30.219  13.069
39986W        W 4971  22.684  39.998  12.123
39987W        W 4972  21.046  11.333   3.916
39988W        W 4973  24.971  35.717  12.185
39989W        W 4974  41.965  33.068   0.694
39990W        W 4975  33.805  11.787  12.991
39991W        W 4976  29.464  41.426  12.005
39992W        W 4977  24.631  39.895  10.862
39993W        W 4978   9.432   2.837  12.411
39994W        W 4979   4.699  31.208   2.829
39995W        W 4980  15.916  28.238  11.808
39996W        W 4981  42.000  11.804  14.676
39997W        W 4982  21.606  43.520   1.312
39998W        W 4983  28.972  14.208   3.865
39999W        W 4984  30.441  43.232  12.866
40000W        W 4985  27.165  18.142  11.833
40001W        W 4986  20.622  12.717   3.548
40002W        W 4987   1.206  13.138   0.585
40003W        W 4988  12.209  32.723   1.931
40004W        W 4989  26.368  33.586   1.834
40005W        W 4990   9.336  24.054  10.621
40006W        W 4991  43.755   8.868   4.166
40007W        W 4992  15.905  16.682  13.344
40008W        W 4993  41.702  41.774   4.320
40009W        W 4994  37.659  15.073   3.502
40010W        W 4995  20.707  25.550  11.960
40011W        W 4996   4.247  32.286  11.035
40012W        W 4997  20.114  38.771  10.466
40013W        W 4998  18.196  29.458  14.947
40014W        W 4999  32.387  17.096   4.371
40015W        W 5000  35.987  19.669   2.098
40016W        W 5001  20.982   6.847   0.455
40017W        W 5002  38.805  22.032  10.109
40018W        W 5003  10.100  29.885  10.703
40019W        W 5004  33.888  15.974  14.141
40020W        W 5005  10.791  23.455  13.467
40021W        W 5006  11.963  23.245   3.568
40022W        W 5007  34.123  34.042   0.357
40023W        W 5008  37.899  33.804  12.465
40024W        W 5009  42.972  19.290   3.893
40025W        W 5010   6.981   2.875  12.374
40026W        W 5011  35.749  33.109   2.497
40027W        W 5012  21.031   8.510  11.768
40028W        W 5013  30.934  28.354   0.246
40029W        W 5014  10.199  39.839  14.738
40030W        W 5015  40.483  43.450   1.813
40031W        W 5016  26.162  14.026  11.617
40032W        W 5017  41.393  42.037  13.151
40033W        W 5018   3.499   9.946   4.421
40034W        W 5019   0.379  27.174  12.200
40035W        W 5020  18.497  16.135  13.093
40036W        W 5021  36.449  41.835  10.616
40037W        W 5022   1.938  23.644   1.663
40038W        W 5023  38.976  35.435  11.645
40039W        W 5024   5.743  22.065  10.606
40040W        W 5025  41.997  37.865   0.780
40041W        W 5026  38.772  24.530   1.307
40042W        W 5027  23.622  24.147   2.046
40043W        W 5028   4.711   4.804  14.452
40044W        W 5029   4.206  21.195  14.237
40045W        W 5030  29.627  32.082  10.626
40046W        W 5031  22.683   8.416   4.866
40047W        W 5032  44.211  33.029   0.384
40048W        W 5033  22.770  20.803   2.222
40049W        W 5034  29.873  40.382   2.600
40050W        W 5035  12.542  23.246  11.426
40051W        W 5036  26.585  11.253  12.427
40052W        W 5037   1.808   9.854  14.714
40053W        W 5038  40.540  17.011  11.782
40054W        W 5039  25.538  43.761   0.476
40055W        W 5040  10.771  33.668  13.941
40056W        W 5041   4.194  41.862  13.841
40057W        W 5042  30.492  15.579   2.677
40058W        W 5043  24.173  35.923   3.839
40059W        W 5044  11.894   2.979  14.744
40060W        W 5045  32.952  16.381   4.062
40061W        W 5046  12.319  25.083   4.642
40062W        W 5047  37.541  35.172   3.279
40063W        W 5048   7.955  14.852   0.261
40064W        W 5049  43.820  27.453   3.534
40065W        W 5050  42.425  28.058   0.273
40066W        W 5051  17.683  12.106   1.226
40067W        W 5052   3.497  11.087   3.630
40068W        W 5053  26.339  44.518   2.681
40069W        W 5054  43.627  36.595  11.989
40070W        W 5055  11.190  15.255  13.426
40071W        W 5056   4.670  29.564   1.374
40072W        W 5057  15.080   6.380  14.444
40073W        W 5058  29.949  33.146   0.196
40074W        W 5059  21.120   2.467  13.333
40075W        W 5060  39.322   5.759  11.088
40076W        W 5061  18.811  10.929  11.018
40077W        W 5062   5.939   7.969   2.029
40078W        W 5063  40.417  27.404   3.351
40079W        W 5064  14.608  18.076  11.193
40080W        W 5065  26.679  26.120   4.231
40081W        W 5066  25.683   5.269   2.974
40082W        W 5067  44.365  24.871  11.189
40083W        W 5068  36.378  42.451  13.334
40084W        W 5069  35.025  17.302  13.152
40085W        W 5070  37.666  14.830  11.125
40086W        W 5071   4.583  32.597  14.843
40087W        W 5072  29.750   5.805  12.494
40088W        W 5073  12.627  27.454   0.206
40089W        W 5074   3.077  19.820   4.578
40090W        W 5075  27.269  25.447   4.408
40091W        W 5076  16.670   9.493  11.666
40092W        W 5077   6.346   4.753   2.296
40093W        W 5078   1.717  34.127   0.760
40094W        W 5079  39.481  25.381   3.300
40095W        W 5080   6.180  44.903  12.547
40096W        W 5081  23.970  29.548  10.239
40097W        W 5082  37.112  38.543   0.241
40098W        W 5083  44.187  35.358   1.473
40099W        W 5084  12.098  22.501  13.958
40100W        W 5085  26.885  34.107   1.541
40101W        W 5086  24.792  29.731   1.364
40102W        W 5087  31.128  37.364  12.549
40103W        W 5088  12.658  29.645  11.210
40104W        W 5089  11.665  16.182   0.787
40105W        W 5090   7.859  40.803   4.202
40106W        W 5091   1.130  16.089  10.250
40107W        W 5092  10.230  13.279   3.343
40108W        W 5093   7.760  36.307  13.062
40109W        W 5094  38.516  27.915   4.110
40110W        W 5095  16.746  44.551   1.852
40111W        W 5096  32.444  29.983   1.153
40112W        W 5097  37.924  10.349  12.052
40113W        W 5098  22.249  23.476  12.143
40114W        W 5099  43.010  20.253  14.210
40115W        W 5100  27.589  35.507  14.853
40116W        W 5101   7.298  38.519   3.942
40117W        W 5102  14.376  43.986  11.965
40118W        W 5103   7.629  11.855   4.115
40119W        W 5104   0.246   4.616   4.487
40120W        W 5105  18.517  38.438  11.193
40121W        W 5106   2.361  38.114  10.668
40122W        W 5107  12.695  34.818   4.243
40123W        W 5108   2.903  12.336  13.389
40124W        W 5109  35.510   1.421   0.007
40125W        W 5110  11.185  30.686   4.691
40126W        W 5111  13.093   2.511   4.101
40127W        W 5112  31.094  23.394   3.433
40128W        W 5113  29.583  27.974   0.373
40129W        W 5114   2.083  16.868   4.090
40130W        W 5115  37.847  33.458  11.178
40131W        W 5116  26.938   9.332   4.591
40132W        W 5117  43.894   1.196   0.166
40133W        W 5118   3.629   0.584   4.643
40134W        W 5119  24.972  30.381   0.261
40135W        W 5120  21.491  30.086  13.942
40136W        W 5121  18.158  19.421  13.535
40137W        W 5122  33.202  26.008   4.751
40138W        W 5123  29.053   8.804  12.277
40139W        W 5124  25.980  22.499   0.513
40140W        W 5125  34.596  41.020   4.466
40141W        W 5126  17.864  31.422  13.898
40142W        W 5127  14.091  16.340  11.234
40143W        W 5128   7.367  23.300  13.331
40144W        W 5129  32.069  34.192   0.784
40145W        W 5130  40.355   3.232   4.946
40146W        W 5131  22.430   8.727  12.153
40147W        W 5132   9.876  40.638  11.679
40148W        W 5133   9.349   4.816   3.410
40149W        W 5134  26.535   0.549   1.893
40150W        W 5135  25.373   2.036   3.094
40151W        W 5136  18.866  28.683  13.091
40152W        W 5137  33.539  29.548   0.156
40153W        W 5138  23.654   7.108  13.119
40154W        W 5139  32.378  12.187   0.828
40155W        W 5140  28.669  30.377  11.245
40156W        W 5141  29.311  13.595   3.141
40157W        W 5142  35.315   4.791  14.044
40158W        W 5143  14.592  23.601   1.642
40159W        W 5144  25.140  10.908   0.968
40160W        W 5145  11.088  21.697   2.900
40161W        W 5146   9.203  10.399   3.424
40162W        W 5147   8.956  33.128  13.045
40163W        W 5148  17.292  33.093   4.610
40164W        W 5149  10.930  13.802  12.501
40165W        W 5150  10.405   6.347  14.511
40166W        W 5151  38.550  41.169  12.623
40167W        W 5152  24.584  14.822  12.330
40168W        W 5153  34.206  36.523   0.348
40169W        W 5154  28.081  30.864   3.029
40170W        W 5155  10.141  40.701   4.082
40171W        W 5156  30.045   3.616  11.163
40172W        W 5157   4.381  26.762  11.018
40173W        W 5158  37.180  14.033  14.423
40174W        W 5159  18.729  40.439  11.184
40175W        W 5160  21.345  26.354   2.817
40176W        W 5161   4.098  37.216  10.743
40177W        W 5162  38.420  24.544   1.694
40178W        W 5163  17.140  40.418  14.756
40179W        W 5164   6.898  12.215  14.438
40180W        W 5165  41.284   6.442  12.993
40181W        W 5166  16.634  21.057  11.593
40182W        W 5167  19.992  40.664   0.322
40183W        W 5168  44.092  18.659  13.562
40184W        W 5169  13.302  12.203   1.206
40185W        W 5170  17.013  16.068   4.141
40186W        W 5171  15.308  25.193   1.947
40187W        W 5172  21.180  20.882  11.628
40188W        W 5173  26.130   3.336  10.780
40189W        W 5174  33.505   1.460  11.560
40190W        W 5175   0.224   2.888   4.110
40191W        W 5176  26.011  15.404   1.866
40192W        W 5177  13.270   8.920  10.616
40193W        W 5178  32.427  10.582   1.808
40194W        W 5179  35.527  34.215  14.371
40195W        W 5180  18.991  38.407   4.453
40196W        W 5181  38.960   4.420  13.833
40197W        W 5182  14.763  11.659   1.581
40198W        W 5183  35.289   9.361   2.956
40199W        W 5184  26.729  32.795   2.134
40200W        W 5185  43.138  11.215   1.472
40201W        W 5186  35.138  36.581  12.784
40202W        W 5187  14.070   0.068   0.841
40203W        W 5188  25.383   0.385  14.056
40204W        W 5189   3.193  28.354  12.609
40205W        W 5190  33.278  33.635  14.430
40206W        W 5191  34.474  19.432  11.885
40207W        W 5192  41.844  26.739   0.108
40208W        W 5193  21.911  10.325   2.824
40209W        W 5194  13.255   6.176  13.912
40210W        W 5195  33.640   3.738  13.454
40211W        W 5196  39.404  11.127   1.350
40212W        W 5197  20.157  27.117   2.759
40213W        W 5198  26.954  19.239   4.289
40214W        W 5199  31.619   2.423  12.762
40215W        W 5200  29.123  22.495  13.529
40216W        W 5201  33.761   3.043   0.830
40217W        W 5202   0.379   3.828  13.982
40218W        W 5203  20.543  40.933   3.072
40219W        W 5204   1.544  44.100  12.031
40220W        W 5205   2.478  21.661  13.355
40221W        W 5206  42.733  16.398   1.628
40222W        W 5207   1.807   7.246   2.123
40223W        W 5208  32.793   0.270  10.669
40224W        W 5209   8.923  40.828  12.431
40225W        W 5210  24.613  17.191   3.301
40226W        W 5211  25.442   9.829   2.374
40227W        W 5212   8.319   8.975   2.270
40228W        W 5213  26.288  16.647   4.003
40229W        W 5214  37.692   4.000  11.717
40230W        W 5215   0.338  42.763   1.738
40231W        W 5216   0.461   9.699  12.039
40232W        W 5217  39.358  41.671  14.662
40233W        W 5218  41.260  27.381  11.653
40234W        W 5219  30.037  41.658   1.395
40235W        W 5220  32.549  44.777  10.791
40236W        W 5221  23.247  39.514   2.430
40237W        W 5222  21.180  14.308  11.935
40238W        W 5223   3.489   2.267  10.741
40239W        W 5224  35.382  33.532  10.410
40240W        W 5225  12.886   6.761   2.113
40241W        W 5226   7.187  32.677   2.269
40242W        W 5227  25.138  44.328   4.068
40243W        W 5228  39.591  24.945  14.261
40244W        W 5229  19.304   4.296  12.593
40245W        W 5230  32.514  23.564   2.919
40246W        W 5231   9.547   7.364   2.738
40247W        W 5232   9.780   9.461   4.781
40248W        W 5233  23.927   9.952  11.460
40249W        W 5234   5.787   7.378  10.743
40250W        W 5235   0.212  13.651  14.121
40251W        W 5236  40.518  28.414   2.733
40252W        W 5237  38.842  21.477   4.275
40253W        W 5238  11.331  38.491   2.386
40254W        W 5239   6.303  26.209   2.071
40255W        W 5240  12.915  32.112   1.410
40256W        W 5241  25.058   8.577   0.363
40257W        W 5242  19.975  15.084  14.349
40258W        W 5243  35.424   7.388   2.815
40259W        W 5244  24.504  40.260   0.028
40260W        W 5245   6.178  15.963  10.180
40261W        W 5246  18.534  37.528  13.818
40262W        W 5247  22.112   0.575  12.072
40263W        W 5248   2.761  15.908  10.982
40264W        W 5249  11.985  21.676  12.200
40265W        W 5250  35.327  11.270   3.276
40266W        W 5251  36.136  25.563  14.308
40267W        W 5252  12.887  26.088  10.610
40268W        W 5253  32.707  22.473  12.442
40269W        W 5254  11.179  25.280  12.779
40270W        W 5255  26.216  44.866   1.293
40271W        W 5256  10.840  39.863   3.574
40272W        W 5257  39.598  35.047  14.344
40273W        W 5258   4.474   9.373   4.520
40274W        W 5259  19.804  30.872   1.739
40275W        W 5260  32.671   9.302   0.383
40276W        W 5261  17.323  24.384   1.761
40277W        W 5262  35.827  30.779   2.580
40278W        W 5263  15.718  16.738  10.617
40279W        W 5264  35.940  11.331  12.659
40280W        W 5265  41.905  14.890   1.257
40281W        W 5266  37.892  30.532  12.222
40282W        W 5267  30.559  34.081   2.868
40283W        W 5268  32.389  20.685  11.707
40284W        W 5269  25.755  24.310   1.737
40285W        W 5270  21.271  29.593   2.874
40286W        W 5271   6.212  38.796   2.253
40287W        W 5272   3.912  35.975  14.370
40288W        W 5273  16.182  39.805  14.772
40289W        W 5274  40.062  10.943  10.687
40290W        W 5275  15.288  21.945  10.819
40291W        W 5276  38.072  41.490   4.482
40292W        W 5277  35.485  33.562  11.378
40293W        W 5278   5.953  14.727   2.755
40294W        W 5279  43.556   9.747  12.068
40295W        W 5280  43.588  26.625   4.017
40296W        W 5281  14.559  40.599  13.372
40297W        W 5282  27.223  26.902   2.386
40298W        W 5283  30.117  36.992   4.320
40299W        W 5284  31.434  16.059  11.911
40300W        W 5285  35.800  29.950  11.980
40301W        W 5286  28.650  35.771  11.534
40302W        W 5287  35.346   8.328   0.066
40303W        W 5288  42.321   6.693  14.420
40304W        W 5289  20.577  40.881   1.120
40305W        W 5290   6.931  14.688   3.700
40306W        W 5291  39.857   2.668   1.199
40307W        W 5292  40.515  38.786  11.548
40308W        W 5293  35.343   2.636  14.522
40309W        W 5294  21.586   3.192  14.917
40310W        W 5295   8.625  31.107  13.830
40311W        W 5296  20.545  23.802  12.540
40312W        W 5297  16.297  27.729  13.686
40313W        W 5298   6.877  16.790   2.403
40314W        W 5299  25.278  39.229   3.154
40315W        W 5300  30.923   0.820  13.820
40316W        W 5301  39.559  32.476  11.587
40317W        W 5302  42.024  41.432   5.136
40318W        W 5303  41.043  16.853  14.256
40319W        W 5304  24.008  18.987  12.103
40320W        W 5305   4.718  10.567   1.830
40321W        W 5306  16.237  23.973  10.589
40322W        W 5307  27.007  31.430   0.832
40323W        W 5308  33.109  40.871   2.150
40324W        W 5309  21.528  30.377  11.138
40325W        W 5310   6.688  25.483  14.865
40326W        W 5311  41.474  30.465  14.573
40327W        W 5312  42.277  31.884  13.249
40328W        W 5313   5.835  39.372   0.855
40329W        W 5314   6.865  27.326   3.580
40330W        W 5315  22.502  18.186   2.311
40331W        W 5316  22.387  43.065   4.969
40332W        W 5317  44.084  25.656   3.343
40333W        W 5318  36.274  43.507  14.676
40334W        W 5319   3.686  28.940  11.111
40335W        W 5320  38.964   5.127  10.623
40336W        W 5321  21.527   2.151   1.448
40337W        W 5322   1.780  40.972   1.403
40338W        W 5323  15.654  14.904   0.443
40339W        W 5324  39.052   7.195   4.229
40340W        W 5325   1.228  19.068  11.639
40341W        W 5326   6.771  14.470  13.940
40342W        W 5327  27.589  44.792  14.988
40343W        W 5328  31.073  39.687  12.122
40344W        W 5329  25.929   3.367   3.694
40345W        W 5330   4.787  42.095  10.704
40346W        W 5331  33.132  34.997  13.885
40347W        W 5332  31.293  40.065   3.268
40348W        W 5333  36.088  23.353   3.686
40349W        W 5334   8.908  13.668  11.563
40350W        W 5335  42.978   4.685   5.196
40351W        W 5336  13.356  19.305  14.242
40352W        W 5337  36.143  16.912   3.615
40353W        W 5338  29.088  12.272  14.673
40354W        W 5339  18.521  13.715  12.922
40355W        W 5340   3.995   8.846   4.163
40356W        W 5341  15.490  18.459  11.916
40357W        W 5342  19.734  20.634   4.282
40358W        W 5343  14.739  33.093  11.922
40359W        W 5344  41.865  43.760  12.709
40360W        W 5345  32.706  14.633   1.775
40361W        W 5346  17.255  14.583  14.078
40362W        W 5347  13.312  13.412   4.589
40363W        W 5348  12.659  36.499   2.678
40364W        W 5349  18.117  44.313  13.962
40365W        W 5350  18.895  18.888  12.371
40366W        W 5351  40.830  38.442  10.647
40367W        W 5352  10.806  25.274  10.680
40368W        W 5353  17.031   9.756   3.964
40369W        W 5354  43.132  42.643   0.791
40370W        W 5355  33.429   5.797   0.201
40371W        W 5356   1.361  15.589  12.378
40372W        W 5357  38.470  16.792   2.827
40373W        W 5358  42.475  11.638  12.538
40374W        W 5359  36.519   0.184  11.905
40375W        W 5360  40.772  11.260   3.818
40376W        W 5361  29.584  20.093  13.386
40377W        W 5362  24.034  29.753   0.844
40378W        W 5363  43.305  42.224  14.522
40379W        W 5364   5.397  33.581   0.636
40380W        W 5365  37.911  44.554   4.851
40381W        W 5366   8.568  29.464   2.617
40382W        W 5367   9.297  36.505  12.103
40383W        W 5368   6.189  42.417   3.825
40384W        W 5369  38.557  12.072   0.777
40385W        W 5370  30.936  23.666  14.754
40386W        W 5371  38.381  12.656   4.618
40387W        W 5372  26.108  27.061  14.471
40388W        W 5373  18.428  11.371  12.058
40389W        W 5374   9.516  36.957  11.945
40390W        W 5375  38.383  11.785  14.354
40391W        W 5376   0.798  10.444   4.497
40392W        W 5377  13.274  16.122  13.099
40393W        W 5378  44.038  33.057   1.642
40394W        W 5379  10.316  29.140   0.747
40395W        W 5380   5.618  15.316   3.740
40396W        W 5381  33.857  34.088  13.322
40397W        W 5382  28.776  11.149   1.264
40398W        W 5383  10.275  29.127  11.177
40399W        W 5384   4.903  30.618   4.029
40400W        W 5385  34.860  36.433  13.927
40401W        W 5386  27.594  37.583   3.780
40402W        W 5387  29.211  44.356  14.380
40403W        W 5388  39.874  15.812   3.141
40404W        W 5389   2.075  38.629  11.921
40405W        W 5390  34.733  42.568   0.848
40406W        W 5391  26.193  34.845  13.997
40407W        W 5392  13.661  24.823   5.046
40408W        W 5393  21.459  15.654   2.364
40409W        W 5394  36.357   5.268   4.161
40410W        W 5395  19.235   0.298   1.385
40411W        W 5396  13.165  16.230  14.475
40412W        W 5397  32.490  16.863  14.302
40413W        W 5398  43.819   2.610   2.750
40414W        W 5399  31.504  42.550  13.430
40415W        W 5400  42.280  28.258  13.341
40416W        W 5401   6.737  23.083   2.904
40417W        W 5402  20.051  18.154   3.634
40418W        W 5403   7.750  33.851   4.327
40419W        W 5404  43.054  28.024   2.729
40420W        W 5405  32.401   8.342  12.474
40421W        W 5406  20.763  13.073  13.381
40422W        W 5407  32.045   0.355   4.786
40423W        W 5408  20.869  28.532  12.096
40424W        W 5409  35.191  35.899  12.136
40425W        W 5410  32.221  12.613  11.098
40426W        W 5411  28.149  25.607   2.725
40427W        W 5412  11.995  32.191   0.736
40428W        W 5413  42.635  39.476   1.729
40429W        W 5414   5.270  17.366  11.115
40430W        W 5415   3.438  38.347  14.981
40431W        W 5416  12.652  38.523  12.032
40432W        W 5417   2.935  25.052  12.984
40433W        W 5418  18.178   3.617  14.745
40434W        W 5419  42.062   9.893   4.249
40435W        W 5420  34.465  43.289  13.132
40436W        W 5421  18.849  40.794  14.321
40437W        W 5422  14.636  27.086   0.266
40438W        W 5423  38.073   0.211   3.847
40439W        W 5424   1.959  16.810  14.041
40440W        W 5425  28.452   1.696  12.330
40441W        W 5426  23.450  23.518   2.713
40442W        W 5427  24.076  30.566  13.774
40443W        W 5428  40.015   2.221  14.919
40444W        W 5429  19.225  23.063  11.501
40445W        W 5430  32.908   2.129  13.315
40446W        W 5431  14.756  44.970   3.591
40447W        W 5432   0.769  19.623  11.524
40448W        W 5433  43.951  31.925   1.049
40449W        W 5434  33.310  36.046  10.753
40450W        W 5435  35.450   6.120  13.877
40451W        W 5436   2.709   5.472   4.575
40452W        W 5437  37.857  31.720   1.417
40453W        W 5438  23.114  33.858   2.312
40454W        W 5439  32.087   3.882  10.770
40455W        W 5440  16.663   7.414   3.226
40456W        W 5441  33.599  37.135  13.374
40457W        W 5442  18.139  21.629  13.124
40458W        W 5443  26.642  44.877   3.748
40459W        W 5444   7.260   8.808   4.387
40460W        W 5445  29.620  37.018  14.775
40461W        W 5446   8.677   3.835  10.918
40462W        W 5447   6.395  37.851   2.216
40463W        W 5448  39.533  24.116   0.174
40464W        W 5449  39.341  29.081  13.656
40465W        W 5450  43.002  17.651   1.946
40466W        W 5451  28.050  18.774  10.741
40467W        W 5452  29.471  44.166   0.900
40468W        W 5453  21.654  28.254   0.361
40469W        W 5454   5.852  30.984   3.833
40470W        W 5455  35.628   3.965  11.289
40471W        W 5456  17.757   6.337  14.633
40472W        W 5457  44.208  29.719   4.568
40473W        W 5458  36.281  43.989   1.429
40474W        W 5459  37.095  31.587  14.816
40475W        W 5460  21.928   5.475   3.789
40476W        W 5461  34.908   7.251   2.818
40477W        W 5462  30.933  36.094   3.818
40478W        W 5463  23.197  18.590  10.537
40479W        W 5464  12.683  27.205  14.753
40480W        W 5465  44.619   6.657  13.105
40481W        W 5466  41.904  12.628   1.631
40482W        W 5467  26.051  21.833   1.948
40483W        W 5468  29.958   6.865   0.897
40484W        W 5469  27.589  17.635   0.705
40485W        W 5470  44.754  17.689   3.296
40486W        W 5471   4.753  30.595  14.076
40487W        W 5472  15.216  25.548  11.279
40488W        W 5473  12.726  19.623   0.753
40489W        W 5474  36.399  18.125  13.048
40490W        W 5475   6.314  37.325  12.695
40491W        W 5476   3.649  37.531   4.098
40492W        W 5477  18.555  18.510  14.969
40493W        W 5478  11.224  32.222  13.005
40494W        W 5479  19.060  18.102  13.404
40495W        W 5480  17.148  25.411  12.065
40496W        W 5481  23.443  13.255   3.557
40497W        W 5482  28.894  16.729   3.554
40498W        W 5483  17.102  39.441  11.631
40499W        W 5484  14.630  29.186  10.769
40500W        W 5485  35.368  28.971  13.955
40501W        W 5486  21.318  30.498  14.896
40502W        W 5487  41.642  16.302  13.873
40503W        W 5488  27.759   2.919   5.146
40504W        W 5489  20.619  30.133   0.191
40505W        W 5490  17.571   0.509   1.920
40506W        W 5491  10.165   6.236  12.353
40507W        W 5492   1.622  18.158  14.321
40508W        W 5493   8.242  13.139   1.997
40509W        W 5494  16.802  23.541  11.991
40510W        W 5495  29.544  44.103  12.400
40511W        W 5496  11.368  43.029  11.965
40512W        W 5497  12.324  10.356   3.657
40513W        W 5498  14.107   3.440   3.596
40514W        W 5499  22.812  37.393  11.580
40515W        W 5500  13.195   7.582   3.317
40516W        W 5501  41.927  29.360   4.591
40517W        W 5502  10.168  26.487  10.383
40518W        W 5503  43.555   8.120   0.281
40519W        W 5504   0.314  35.147   0.472
40520W        W 5505  35.398  33.064  11.254
40521W        W 5506  15.880  26.959   4.031
40522W        W 5507  29.986  28.215  14.606
40523W        W 5508  41.376  44.810   3.651
40524W        W 5509  35.542   5.421   1.247
40525W        W 5510  25.101  20.520   0.922
40526W        W 5511  17.485   8.092   3.741
40527W        W 5512  31.290   6.875   3.136
40528W        W 5513  17.090  19.221   0.320
40529W        W 5514   4.428  32.706  11.305
40530W        W 5515  29.960  11.172   4.638
40531W        W 5516  15.723  41.430  12.529
40532W        W 5517  44.950  33.619  13.866
40533W        W 5518  11.782  32.438   0.330
40534W        W 5519  12.892  26.237  14.003
40535W        W 5520  17.806  27.275  11.327
40536W        W 5521  34.006  41.879   1.619
40537W        W 5522  18.664  16.158  10.400
40538W        W 5523  21.619  41.376   1.090
40539W        W 5524  42.752  17.133  13.895
40540W        W 5525   7.709  28.154   0.880
40541W        W 5526  26.143   0.689   1.548
40542W        W 5527  13.624  35.614  11.464
40543W        W 5528  26.258  24.227  13.040
40544W        W 5529  33.612  44.798   2.205
40545W        W 5530  40.345  34.870  12.613
40546W        W 5531   5.583  21.205  12.623
40547W        W 5532  38.131  20.046  11.572
40548W        W 5533  29.621  37.885   1.281
40549W        W 5534  12.501  33.570  11.090
40550W        W 5535   7.693  27.570  12.456
40551W        W 5536   2.706  44.045  10.989
40552W        W 5537   8.691  41.131   2.729
40553W        W 5538  25.651   0.113   2.168
40554W        W 5539  29.941  12.124  10.915
40555W        W 5540  16.062  30.330   2.668
40556W        W 5541  22.686   4.439   1.455
40557W        W 5542  26.684  19.211   2.815
40558W        W 5543  11.558  18.300  11.919
40559W        W 5544  27.145  18.345   3.639
40560W        W 5545   8.658  37.449  14.901
40561W        W 5546   4.131  16.238  14.026
40562W        W 5547  38.482  12.052  14.821
40563W        W 5548   8.874  41.669   5.143
40564W        W 5549  37.034   4.300   3.093
40565W        W 5550  19.641  22.227  14.518
40566W        W 5551   0.291  41.643  11.093
40567W        W 5552  21.166  35.253  12.133
40568W        W 5553  24.287  21.530  11.733
40569W        W 5554  42.983  22.140  12.424
40570W        W 5555  35.789  18.987  12.046
40571W        W 5556  29.649  31.536  11.536
40572W        W 5557  33.344  12.088  10.690
40573W        W 5558  20.274  10.924   3.310
40574W        W 5559  16.713   9.197   2.632
40575W        W 5560  39.428  11.625   1.200
40576W        W 5561  44.177  15.820   1.895
40577W        W 5562   5.705   3.723   1.789
40578W        W 5563   9.682  33.935   0.915
40579W        W 5564  31.822  10.303   4.492
40580W        W 5565  29.104  10.620  12.233
40581W        W 5566  40.199   4.821  11.089
40582W        W 5567  37.577   5.903   2.300
40583W        W 5568   1.445  41.979   0.709
40584W        W 5569  21.638   0.226   3.241
40585W        W 5570   5.557  19.953   0.412
40586W        W 5571  35.559  40.922  11.274
40587W        W 5572   8.146   0.781   5.025
40588W        W 5573   8.738  15.621   0.906
40589W        W 5574  26.218   0.203   3.847
40590W        W 5575   0.239  21.654  12.585
40591W        W 5576   7.622  39.527   1.682
40592W        W 5577  28.529   7.547  11.676
40593W        W 5578  16.146  44.946   2.725
40594W        W 5579  34.302   1.403   1.606
40595W        W 5580  18.814  44.877   0.751
40596W        W 5581  19.581  31.422  12.330
40597W        W 5582   5.465   1.012   2.253
40598W        W 5583  26.499   4.199  14.447
40599W        W 5584   8.838   6.398  12.100
40600W        W 5585  19.606  27.963   1.679
40601W        W 5586  34.436  37.001  13.134
40602W        W 5587  19.734  18.975   1.684
40603W        W 5588  15.361  21.617  14.115
40604W        W 5589  14.535  39.262  12.428
40605W        W 5590  12.924  10.701   1.410
40606W        W 5591  24.895   2.767  13.965
40607W        W 5592  39.313  20.059  12.068
40608W        W 5593  39.099   7.947  12.054
40609W        W 5594  14.947   4.808  10.324
40610W        W 5595  11.261  44.394  10.463
40611W        W 5596  26.966   4.341   5.095
40612W        W 5597   1.766  17.537   1.652
40613W        W 5598  21.278  29.640  14.685
40614W        W 5599  40.435  39.472   0.581
40615W        W 5600  14.228  11.523   0.346
40616W        W 5601  19.715  23.199  14.120
40617W        W 5602  32.286  10.287   3.581
40618W        W 5603  26.570  40.290   3.208
40619W        W 5604  21.695  12.732   4.600
40620W        W 5605  23.911  30.365  10.185
40621W        W 5606  23.095  30.432  11.187
40622W        W 5607   4.015  34.496  11.443
40623W        W 5608  43.849   9.720  10.715
40624W        W 5609  32.744   1.883   1.800
40625W        W 5610  44.524   7.421   2.580
40626W        W 5611   1.498  20.547   4.096
40627W        W 5612  22.789  33.539   3.218
40628W        W 5613  34.519   3.720  13.089
40629W        W 5614   5.255  29.422  13.346
40630W        W 5615  40.078  29.870   0.743
40631W        W 5616  23.628  22.927  12.887
40632W        W 5617   6.156   2.037   3.223
40633W        W 5618  10.198   6.672   3.261
40634W        W 5619   4.715  38.839  10.188
40635W        W 5620  37.918  39.536  14.303
40636W        W 5621  21.593  19.510   1.672
40637W        W 5622  12.128  16.865   3.116
40638W        W 5623  39.972  16.867   1.271
40639W        W 5624   6.565   0.494   2.327
40640W        W 5625  44.792  25.395  14.918
40641W        W 5626   7.425  24.837  10.933
40642W        W 5627  25.814   7.185  11.110
40643W        W 5628   5.425  20.334  14.491
40644W        W 5629  20.987  37.449  13.060
40645W        W 5630  23.091   4.859  13.884
40646W        W 5631  28.467  28.059  14.597
40647W        W 5632   9.939  40.366   2.737
40648W        W 5633  11.807  18.177  14.472
40649W        W 5634  10.347   2.703   1.743
40650W        W 5635  37.627  20.740  13.980
40651W        W 5636  16.610  27.903   3.688
40652W        W 5637  29.572  10.000  10.769
40653W        W 5638  21.149  14.638  13.986
40654W        W 5639  15.270  27.429   0.958
40655W        W 5640  19.046  11.414  11.632
40656W        W 5641  38.514  15.464  12.717
40657W        W 5642  18.897  15.656   2.533
40658W        W 5643  30.962  42.727  11.750
40659W        W 5644  13.948  14.167   0.548
40660W        W 5645   9.363  37.280  14.027
40661W        W 5646  19.272  14.300  12.550
40662W        W 5647  40.402  27.504  11.652
40663W        W 5648  12.388   5.482  12.106
40664W        W 5649   4.404  23.907   4.547
40665W        W 5650  20.577  35.369   2.194
40666W        W 5651  12.270  11.041  12.062
40667W        W 5652  10.417  34.458  14.387
40668W        W 5653   4.593  26.987   4.197
40669W        W 5654   4.423  43.322   0.229
40670W        W 5655  37.964  16.503  10.840
40671W        W 5656   0.732   6.474  13.144
40672W        W 5657  10.332  28.269  10.750
40673W        W 5658  34.568  14.100   1.921
40674W        W 5659   7.765  22.958   1.867
40675W        W 5660   1.889  32.781  13.602
40676W        W 5661   8.848  25.182   4.153
40677W        W 5662  31.432   2.249  13.211
40678W        W 5663  35.181  23.426  14.248
40679W        W 5664  44.739  33.104   0.344
40680W        W 5665  36.063   0.562  11.263
40681W        W 5666  40.124  17.606  10.054
40682W        W 5667  18.471  40.562  12.978
40683W        W 5668  41.021   2.736  14.860
40684W        W 5669  30.374   8.451   0.283
40685W        W 5670  27.110  44.875  12.063
40686W        W 5671  27.891  25.816  10.649
40687W        W 5672   3.841  40.253  12.499
40688W        W 5673   8.400  25.484   4.176
40689W        W 5674  10.934  26.810   0.775
40690W        W 5675  26.460  33.708   3.354
40691W        W 5676  24.237  26.225   4.053
40692W        W 5677  41.042  18.673   1.854
40693W        W 5678   1.540  11.927   2.835
40694W        W 5679   8.313  19.399  13.846
40695W        W 5680   6.306  28.211   2.734
40696W        W 5681  26.645  37.375   2.209
40697W        W 5682  20.511   2.232  14.639
40698W        W 5683   2.774  21.007   3.797
40699W        W 5684  30.220  21.075  11.673
40700W        W 5685  25.154   2.365  13.388
40701W        W 5686  18.576  22.684   3.611
40702W        W 5687  14.721   3.809   2.729
40703W        W 5688  10.630  19.787   1.889
40704W        W 5689   0.694  15.655   3.416
40705W        W 5690  43.145  23.294   1.369
40706W        W 5691  20.284   7.567   0.710
40707W        W 5692  13.826  34.002   4.865
40708W        W 5693   7.704  12.802   2.640
40709W        W 5694   3.871  27.641  11.375
40710W        W 5695  43.038   3.296   4.339
40711W        W 5696  41.456  24.074   2.496
40712W        W 5697  43.134  19.635   3.285
40713W        W 5698  30.124  16.286  11.132
40714W        W 5699  35.351  10.594   4.298
40715W        W 5700   9.623  15.115   2.240
40716W        W 5701  10.661  19.221  11.282
40717W        W 5702  10.293  42.856   1.342
40718W        W 5703  20.118   7.554  11.968
40719W        W 5704  37.926  35.523   0.372
40720W        W 5705   3.883  33.769   2.242
40721W        W 5706  24.559   9.171   1.020
40722W        W 5707   2.264  35.785  13.597
40723W        W 5708  25.078  25.614   3.325
40724W        W 5709   7.164  18.904   1.084
40725W        W 5710  40.038   1.460  11.499
40726W        W 5711  12.206  40.519   1.021
40727W        W 5712  31.205  35.706  12.887
40728W        W 5713   8.972  32.931   1.153
40729W        W 5714  12.271  36.591   3.341
40730W        W 5715  30.312  27.726  13.652
40731W        W 5716   6.292  18.477   1.225
40732W        W 5717  10.304  44.780  14.822
40733W        W 5718  40.809  32.635   1.006
40734W        W 5719   0.456   3.302   4.358
40735W        W 5720  41.796  11.891  11.958
40736W        W 5721   3.447   0.320  11.978
40737W        W 5722  33.355  31.907   2.262
40738W        W 5723  36.425  27.199  12.296
40739W        W 5724  29.427  20.421   1.188
40740W        W 5725  21.783   9.611   0.896
40741W        W 5726  33.408  12.198   3.368
40742W        W 5727   0.259   9.711  14.243
40743W        W 5728  11.796   5.641  13.553
40744W        W 5729  32.128  33.529   4.595
40745W        W 5730  15.287  31.463   3.340
40746W        W 5731   1.077  22.160   3.763
40747W        W 5732  44.275   8.719   2.557
40748W        W 5733  11.618  35.980  14.818
40749W        W 5734  29.447   8.664   0.802
40750W        W 5735  25.930  31.574   2.398
40751W        W 5736  35.088   8.094  12.185
40752W        W 5737   8.876   6.921   0.717
40753W        W 5738  39.401   2.489   3.336
40754W        W 5739  23.453   1.152  13.827
40755W        W 5740  31.125  38.382  13.778
40756W        W 5741  20.642  33.697   3.153
40757W        W 5742  38.860  31.768   4.146
40758W        W 5743  16.407  35.054   0.209
40759W        W 5744  31.591  24.697   1.747
40760W        W 5745  30.859   7.167   3.239
40761W        W 5746   8.263  12.567  11.075
40762W        W 5747   3.178  31.690   0.457
40763W        W 5748   5.322  33.037   2.446
40764W        W 5749  44.426  12.204  12.207
40765W        W 5750   2.365   5.399  14.369
40766W        W 5751   0.596  17.833   4.566
40767W        W 5752  34.213   1.313   0.756
40768W        W 5753  14.191  26.421  11.459
40769W        W 5754   8.329  13.054  13.867
40770W        W 5755  17.537  31.074   1.632
40771W        W 5756  43.989  25.068  14.922
40772W        W 5757   5.426  36.352   2.353
40773W        W 5758  12.312  41.792   0.381
40774W        W 5759  40.286  44.800  12.713
40775W        W 5760   9.118  12.838   0.415
40776W        W 5761  25.137  33.655   4.404
40777W        W 5762  26.783  43.865   1.341
40778W        W 5763  41.422   9.492   1.681
40779W        W 5764  18.422  16.075   4.149
40780W        W 5765  29.365  41.146  13.458
40781W        W 5766  13.429  21.791  12.487
40782W        W 5767  44.629   8.163   0.613
40783W        W 5768  43.826  35.947   2.177
40784W        W 5769   5.390  18.463  12.074
40785W        W 5770  23.877  44.943   3.497
40786W        W 5771  20.278  28.210   4.035
40787W        W 5772  35.161  21.806  12.104
40788W        W 5773  43.320  13.118  12.116
40789W        W 5774  39.056  33.954   2.130
40790W        W 5775  41.417  12.109   2.363
40791W        W 5776  43.008   4.562  11.181
40792W        W 5777   7.932  21.726  12.289
40793W        W 5778  42.371  25.146  12.492
40794W        W 5779   4.069  22.127   2.069
40795W        W 5780  39.619   3.798   2.722
40796W        W 5781  32.411  17.836   0.467
40797W        W 5782  24.545  35.082   2.228
40798W        W 5783  44.993  41.199  12.915
40799W        W 5784  24.653  10.778   0.825
40800W        W 5785  32.488  33.674  13.968
40801W        W 5786   1.826   1.291   3.277
40802W        W 5787  29.549  19.590   1.731
40803W        W 5788  30.497  34.490  14.833
40804W        W 5789  42.839  34.115   0.341
40805W        W 5790   8.551  24.496   1.290
40806W        W 5791   3.369  39.312  14.460
40807W        W 5792  43.074   9.641  11.972
40808W        W 5793  11.376  27.014   2.339
40809W        W 5794  10.930   1.066   0.295
40810W        W 5795   4.358  16.760  11.354
40811W        W 5796  32.066  12.839   5.018
40812W        W 5797  12.217  27.440  12.441
40813W        W 5798  35.672  39.395  11.381
40814W        W 5799  26.380  29.313  11.951
40815W        W 5800  28.077  24.944  13.212
40816W        W 5801  20.036  18.322   1.599
40817W        W 5802  42.988  36.256  13.075
40818W        W 5803  11.798  37.669  11.179
40819W        W 5804  38.439  30.445  13.114
40820W        W 5805  17.902  33.221   1.749
40821W        W 5806  32.722  35.385  13.079
40822W        W 5807  29.477  17.854   1.951
40823W        W 5808   8.230   5.113   1.131
40824W        W 5809  19.830   8.247   4.627
40825W        W 5810   0.207  29.677  11.660
40826W        W 5811  12.328  33.086  12.991
40827W        W 5812   0.043  18.503  11.736
40828W        W 5813  18.084   8.339   3.518
40829W        W 5814  31.514   9.402  10.876
40830W        W 5815  24.192  42.475   2.434
40831W        W 5816  12.748  36.316   4.225
40832W        W 5817  24.247   8.194  12.000
40833W        W 5818  39.990  42.254   0.404
40834W        W 5819  23.294  21.667  11.558
40835W        W 5820   8.904  22.968   2.591
40836W        W 5821  42.110  21.245  12.923
40837W        W 5822  11.173  37.336   3.178
40838W        W 5823   0.343   0.009   2.523
40839W        W 5824   3.279   1.259   1.758
40840W        W 5825  33.125  18.568  11.121
40841W        W 5826  34.933  12.406   1.498
40842W        W 5827  15.774  13.802   2.215
40843W        W 5828  18.547  36.015   1.740
40844W        W 5829  44.058  24.084   4.747
40845W        W 5830   5.294  22.624   1.692
40846W        W 5831   5.672   1.106   3.449
40847W        W 5832  29.950  23.424  12.475
40848W        W 5833  29.219  21.712  13.146
40849W        W 5834  24.297  18.614  14.809
40850W        W 5835   0.998  34.560   4.770
40851W        W 5836  22.456  10.711  14.345
40852W        W 5837  32.047  28.995   0.833
40853W        W 5838  31.568  41.511   3.215
40854W        W 5839  21.949  32.906   4.696
40855W        W 5840  41.292  44.257  13.885
40856W        W 5841  34.758  34.018   4.364
40857W        W 5842  34.646  33.345   0.201
40858W        W 5843  30.338  36.015  14.897
40859W        W 5844  17.547   0.282   4.801
40860W        W 5845  16.596  36.038  10.967
40861W        W 5846   2.438  12.409  11.654
40862W        W 5847   2.779   2.488   0.855
40863W        W 5848   2.791  19.615   4.180
40864W        W 5849  12.509  32.541  12.999
40865W        W 5850  29.586   6.194  14.801
40866W        W 5851  20.869  37.496  11.139
40867W        W 5852   7.869  36.077  13.540
40868W        W 5853  29.113  27.949   2.623
40869W        W 5854  43.123   6.876  11.054
40870W        W 5855  11.037   6.660   0.251
40871W        W 5856  15.955  36.492   3.147
40872W        W 5857  13.646   7.793  14.040
40873W        W 5858  37.433  31.538   4.934
40874W        W 5859  26.215  22.652   2.283
40875W        W 5860   6.649  22.074   3.093
40876W        W 5861   8.810  40.520  10.730
40877W        W 5862   3.971  30.175  11.619
40878W        W 5863  40.045  23.154   2.814
40879W        W 5864   8.962   9.657  13.986
40880W        W 5865  22.391  14.772  12.059
40881W        W 5866  16.472  35.992  11.602
40882W        W 5867   5.399   3.821  13.573
40883W        W 5868  22.036  10.359   0.601
40884W        W 5869  31.964  30.063   0.894
40885W        W 5870   4.970  21.637  14.204
40886W        W 5871  15.472  31.581  13.166
40887W        W 5872  16.335   3.637  10.458
40888W        W 5873  30.488   3.749   4.589
40889W        W 5874   7.697  20.331   2.351
40890W        W 5875  31.594  37.024   4.426
40891W        W 5876  31.836  12.375   4.160
40892W        W 5877  29.941  22.522  14.400
40893W        W 5878  22.970  29.456   2.346
40894W        W 5879  20.845   2.220  14.218
40895W        W 5880  10.711  21.049  10.900
40896W        W 5881  21.299  43.287  14.852
40897W        W 5882   9.177  18.173  14.661
40898W        W 5883  27.968  41.553   0.003
40899W        W 5884  21.025   7.276  11.273
40900W        W 5885  26.469  34.808  14.835
40901W        W 5886   9.892   0.803   3.221
40902W        W 5887  44.738  25.531  13.749
40903W        W 5888  36.917  10.353   2.198
40904W        W 5889  34.999  11.195  12.431
40905W        W 5890  27.649  16.454   0.898
40906W        W 5891  26.786   4.498  11.156
40907W        W 5892  27.140  42.244   1.727
40908W        W 5893  41.470  31.869   0.864
40909W        W 5894   1.469  18.552  11.669
40910W        W 5895  20.667  15.358  11.600
40911W        W 5896   1.152  24.761  11.186
40912W        W 5897  12.599  27.546  10.678
40913W        W 5898  44.138  44.046   4.240
40914W        W 5899  25.019  12.648   0.308
40915W        W 5900  28.402  22.504  10.688
40916W        W 5901  38.275  19.217   3.243
40917W        W 5902  41.996  30.226   0.424
40918W        W 5903  33.554  27.698   2.200
40919W        W 5904  17.725  24.741   5.030
40920W        W 5905  38.350  41.437   2.893
40921W        W 5906  35.716   2.670  10.895
40922W        W 5907  42.478  31.429  12.583
40923W        W 5908   5.357  40.274  11.897
40924W        W 5909  40.036  23.420  12.005
40925W        W 5910  17.061  20.773  14.443
40926W        W 5911  20.683   3.969  11.604
40927W        W 5912  16.353   9.672  12.651
40928W        W 5913  22.004  30.014   1.763
40929W        W 5914  41.793  37.885   2.191
40930W        W 5915   3.807  32.400   3.620
40931W        W 5916  10.257  26.943  10.628
40932W        W 5917  16.105  18.063   0.405
40933W        W 5918  24.487  38.508  10.724
40934W        W 5919  39.297   1.041   3.163
40935W        W 5920  21.103  31.953   5.001
40936W        W 5921  18.165  28.080   0.266
40937W        W 5922  17.820  44.752   1.964
40938W        W 5923  30.077   0.676   3.765
40939W        W 5924  30.434   8.304  14.758
40940W        W 5925   5.189  33.489   3.174
40941W        W 5926   9.099  14.589   1.750
40942W        W 5927  29.049   2.468  14.417
40943W        W 5928  37.575   6.420  11.820
40944W        W 5929  26.618  40.541   2.750
40945W        W 5930   4.181  35.475   4.272
40946W        W 5931  29.378  42.562  13.325
40947W        W 5932   3.894   9.059   3.263
40948W        W 5933   5.275  42.956   3.146
40949W        W 5934   5.281  13.698   2.630
40950W        W 5935   5.366   2.118   3.627
40951W        W 5936  24.079  44.902   0.278
40952W        W 5937  32.029  39.585  11.664
40953W        W 5938   9.031   8.352   0.545
40954W        W 5939  19.888   4.205   3.843
40955W        W 5940  14.671   8.216  11.373
40956W        W 5941   0.245  14.057   2.415
40957W        W 5942  31.855   7.773   2.363
40958W        W 5943  29.067  39.754  14.544
40959W        W 5944   8.674  35.447  13.311
40960W        W 5945   9.872  41.475  12.872
40961W        W 5946   8.430  16.334   4.442
40962W        W 5947  32.280  39.865   3.259
40963W        W 5948  18.576  38.732   3.410
40964W        W 5949   4.455  33.111  13.906
40965W        W 5950   8.313  32.842  11.896
40966W        W 5951   9.598   5.973  14.765
40967W        W 5952  11.280  24.261  11.685
40968W        W 5953   8.402  43.806  10.615
40969W        W 5954  12.597  17.096  12.449
40970W        W 5955   3.064  26.466   3.496
40971W        W 5956   1.571  16.007  13.029
40972W        W 5957   2.774  18.549   4.155
40973W        W 5958  35.374  36.482  13.799
40974W        W 5959  14.079  13.537  12.544
40975W        W 5960  33.842   1.393   0.403
40976W        W 5961   8.309   7.912  12.075
40977W        W 5962  10.590  38.842  11.979
40978W        W 5963   1.485  14.701  14.330
40979W        W 5964   8.256  19.933  11.651
40980W        W 5965  39.756  24.230  10.594
40981W        W 5966  43.028  34.105  13.800
40982W        W 5967  16.991   7.751  13.931
40983W        W 5968  39.265  15.205   4.423
40984W        W 5969   8.421  15.890   2.439
40985W        W 5970   5.731  13.686   0.822
40986W        W 5971  11.062   3.326   1.303
40987W        W 5972  23.591   8.827  10.781
40988W        W 5973  15.890  19.894  10.208
40989W        W 5974   7.710   7.846   0.726
40990W        W 5975  28.044  28.669  12.491
40991W        W 5976  43.801  11.650   4.528
40992W        W 5977  41.325  31.962   0.379
40993W        W 5978   4.945  13.655   0.391
40994W        W 5979   0.127  34.601  11.982
40995W        W 5980  18.881  35.058   0.586
40996W        W 5981  13.601  32.424   0.787
40997W        W 5982  32.654  15.252   0.264
40998W        W 5983  23.579  32.201  14.872
40999W        W 5984  42.073  17.006  14.962
41000W        W 5985  14.317  25.237  13.945
41001W        W 5986  42.921  24.704   3.655
41002W        W 5987  42.004  27.900  12.989
41003W        W 5988  32.355   2.425   3.575
41004W        W 5989  42.047  27.544   3.607
41005W        W 5990  26.212  31.962   4.174
41006W        W 5991  38.228  23.918   3.349
41007W        W 5992  12.300  11.764   1.409
41008W        W 5993  39.127   9.138  10.229
41009W        W 5994  24.258   9.422   1.396
41010W        W 5995  29.598   5.633   0.883
41011W        W 5996   3.480  42.223   3.169
41012W        W 5997   1.748  13.039   1.423
41013W        W 5998  16.210   5.786   3.243
41014W        W 5999  40.248  13.704  12.035
41015W        W 6000  39.480  39.610  13.472
41016W        W 6001  39.387  43.894   0.995
41017W        W 6002  18.746   6.418   1.986
41018W        W 6003  34.804  26.573   2.858
41019W        W 6004  29.121  25.727  12.388
41020W        W 6005  17.527   9.910   1.271
41021W        W 6006  12.270  40.335  14.465
41022W        W 6007  23.525  44.267  11.649
41023W        W 6008  41.397  31.052   0.476
41024W        W 6009  19.748   8.307  10.870
41025W        W 6010   1.970  22.277   2.846
41026W        W 6011  43.185  22.670  12.817
41027W        W 6012  31.075   1.888  10.864
41028W        W 6013  31.835  25.994   1.991
41029W        W 6014  35.874  34.903   1.166
41030W        W 6015  35.524  18.616   2.883
41031W        W 6016  39.854  37.788  13.004
41032W        W 6017  27.195   1.252  14.109
41033W        W 6018  31.454  26.384  13.403
41034W        W 6019   1.481  12.792  12.601
41035W        W 6020  32.062  28.626   4.756
41036W        W 6021  12.823   9.160   1.801
41037W        W 6022   2.116   7.428   3.678
41038W        W 6023  20.597  37.914   3.193
41039W        W 6024  15.162  19.147   4.826
41040W        W 6025   0.927  36.012   1.280
41041W        W 6026  37.476  17.202  14.480
41042W        W 6027  28.872  43.361   4.415
41043W        W 6028   5.688  20.563  14.913
41044W        W 6029  33.630  11.153   2.711
41045W        W 6030  21.698  33.015  14.085
41046W        W 6031  25.180   4.799   2.647
41047W        W 6032  18.599  19.205  13.287
41048W        W 6033   7.771  10.914   3.871
41049W        W 6034   9.971   6.431   5.021
41050W        W 6035  37.061  20.842  13.942
41051W        W 6036  22.739  24.401   1.992
41052W        W 6037  21.120   7.197  11.816
41053W        W 6038  38.919   0.336  14.900
41054W        W 6039  40.332  41.744   1.141
41055W        W 6040  15.979   3.666   9.676
41056W        W 6041  20.586   7.024   1.467
41057W        W 6042   6.614  42.879   0.879
41058W        W 6043  19.132   4.209   3.149
41059W        W 6044  13.094  29.133  13.349
41060W        W 6045   9.006   6.484   9.801
41061W        W 6046  38.905  18.320  10.109
41062W        W 6047  28.151  27.604  11.103
41063W        W 6048  20.791  38.389   3.139
41064W        W 6049   1.297  18.480   4.546
41065W        W 6050  11.834   9.570   0.399
41066W        W 6051   5.178   7.661   0.399
41067W        W 6052  25.998  21.684  11.575
41068W        W 6053   0.829  34.280   0.688
41069W        W 6054  31.169  12.025  11.476
41070W        W 6055  30.321  30.102  11.622
41071W        W 6056  16.852  22.003  13.815
41072W        W 6057  19.775   9.052  13.405
41073W        W 6058   7.799  25.951  11.636
41074W        W 6059   6.070  19.817   0.413
41075W        W 6060  25.640  23.290   0.400
41076W        W 6061   2.238  28.012  11.094
41077W        W 6062  23.201  28.659   4.249
41078W        W 6063  26.938  17.983  10.842
41079W        W 6064  40.832  27.548   5.633
41080W        W 6065  37.538  23.044   4.070
41081W        W 6066  34.830  16.259  11.139
41082W        W 6067  20.887  15.316  12.897
41083W        W 6068  31.476  13.182   4.106
41084W        W 6069  37.739   1.001   3.568
41085W        W 6070  24.680  22.859   0.670
41086W        W 6071   6.989  26.951   3.946
41087W        W 6072  41.830   0.048   3.312
41088W        W 6073   2.572   5.011  13.996
41089W        W 6074  26.137  26.099   4.245
41090W        W 6075  33.237   2.392  14.089
41091W        W 6076  36.319  33.261  11.011
41092W        W 6077   5.725  30.216   2.041
41093W        W 6078   8.357  44.923   0.377
41094W        W 6079  37.910   9.823  14.449
41095W        W 6080  11.846  23.452  13.954
41096W        W 6081  18.536  34.539  13.073
41097W        W 6082  27.723  16.220   0.114
41098W        W 6083  15.750  13.288   4.339
41099W        W 6084  17.652  32.572  11.184
41100W        W 6085   6.376  38.344  12.983
41101W        W 6086  19.716  39.987  11.187
41102W        W 6087  26.076  28.413  14.582
41103W        W 6088  41.405   9.904   0.227
41104W        W 6089   2.380  39.419   3.617
41105W        W 6090  34.593  17.106   0.427
41106W        W 6091  20.995   1.310   1.240
41107W        W 6092   6.294  38.107   0.811
41108W        W 6093  27.614  20.622   1.381
41109W        W 6094   0.043  39.525   0.015
41110W        W 6095  12.115  36.894  11.220
41111W        W 6096  32.624  24.514   2.602
41112W        W 6097   6.336  20.151  14.819
41113W        W 6098  28.658  37.435  13.594
41114W        W 6099  19.729  34.937   4.212
41115W        W 6100  17.036  25.449   0.219
41116W        W 6101  24.074  21.085  12.438
41117W        W 6102  24.509  29.159   2.292
41118W        W 6103  38.801   7.241   0.705
41119W        W 6104  12.214  18.633  11.908
41120W        W 6105  14.750  22.561   3.786
41121W        W 6106  39.876   4.194   1.196
41122W        W 6107  35.339  16.540  11.288
41123W        W 6108   1.659   7.060  12.431
41124W        W 6109  37.908  15.731  12.140
41125W        W 6110  13.505   4.883   0.832
41126W        W 6111   0.026  36.111   5.052
41127W        W 6112  18.546  27.498   3.829
41128W        W 6113  12.722   2.722   0.036
41129W        W 6114  29.816  22.811   4.506
41130W        W 6115  16.495  40.477   4.095
41131W        W 6116  38.955  36.812  13.428
41132W        W 6117  24.507  42.089  12.452
41133W        W 6118  20.509   8.096  12.476
41134W        W 6119  36.127  18.268   3.467
41135W        W 6120  10.038  28.821   0.387
41136W        W 6121   6.134  38.086  11.581
41137W        W 6122  33.362  22.270   0.676
41138W        W 6123  44.760  33.408   2.704
41139W        W 6124  34.106  38.157   0.383
41140W        W 6125   3.802  21.203   0.472
41141W        W 6126  16.408  18.605   1.763
41142W        W 6127  36.915  42.568   5.159
41143W        W 6128  38.225  22.761  12.911
41144W        W 6129   5.507   4.127   4.516
41145W        W 6130  15.326  16.408   0.378
41146W        W 6131  41.424  13.099  14.868
41147W        W 6132  40.287  39.530  13.851
41148W        W 6133  10.139  23.537  12.621
41149W        W 6134   5.349  21.737   0.917
41150W        W 6135  14.734  21.514   0.743
41151W        W 6136   0.437   2.291   0.170
41152W        W 6137   8.203  36.100   3.264
41153W        W 6138  20.071  35.253  13.475
41154W        W 6139  32.671  40.965  14.731
41155W        W 6140  44.725  20.184   4.234
41156W        W 6141  42.580  33.147  11.243
41157W        W 6142  38.107  21.143   3.767
41158W        W 6143   0.423  41.223  14.859
41159W        W 6144   5.501  25.479  13.495
41160W        W 6145  15.559   4.434   3.250
41161W        W 6146  34.952  18.245  14.994
41162W        W 6147  33.157  19.721   2.800
41163W        W 6148   2.105  30.159  11.649
41164W        W 6149   4.510  22.234   1.824
41165W        W 6150  17.232  35.956   3.234
41166W        W 6151   9.310  30.420  14.369
41167W        W 6152  30.921  30.010  10.828
41168W        W 6153  36.877  10.130  11.622
41169W        W 6154   8.433  18.871   3.300
41170W        W 6155  27.211  17.121  10.820
41171W        W 6156  43.570   9.839   4.103
41172W        W 6157  37.330  13.731   2.758
41173W        W 6158  19.194  17.103  14.372
41174W        W 6159  26.161   6.341  11.567
41175W        W 6160  39.165  22.201   2.512
41176W        W 6161  27.896  19.863   1.824
41177W        W 6162  17.786  12.051   2.078
41178W        W 6163  34.913  18.715   5.017
41179W        W 6164  18.850  39.433   1.174
41180W        W 6165  43.047   0.875   3.604
41181W        W 6166  10.133  22.270  13.966
41182W        W 6167  20.612  35.875   4.980
41183W        W 6168  35.640   6.763   0.790
41184W        W 6169   9.000  15.713   0.465
41185W        W 6170  23.019   9.521  11.664
41186W        W 6171  35.407  26.727   0.829
41187W        W 6172  14.614  25.280   3.674
41188W        W 6173  22.242  40.779   2.193
41189W        W 6174  25.111  35.117  10.563
41190W        W 6175  30.386  30.173  14.463
41191W        W 6176  24.006  41.918   1.159
41192W        W 6177  15.090  27.747   0.049
41193W        W 6178  39.483  37.441   4.680
41194W        W 6179  39.997  26.345   0.741
41195W        W 6180  35.322  38.265  12.419
41196W        W 6181  41.852  42.098  14.008
41197W        W 6182  33.880  40.431   0.002
41198W        W 6183  14.775  23.303  12.645
41199W        W 6184   2.367  12.179   1.662
41200W        W 6185   0.847  22.519  14.059
41201W        W 6186  11.070  44.837  11.228
41202W        W 6187   4.541  41.931   2.970
41203W        W 6188  41.341  22.750   4.937
41204W        W 6189  11.184  44.364   3.747
41205W        W 6190  27.513   2.449  10.241
41206W        W 6191  28.848  29.103  14.666
41207W        W 6192   9.923   0.040  14.333
41208W        W 6193   2.431  37.085   4.724
41209W        W 6194  41.362   5.461  10.778
41210W        W 6195   9.138   5.696  14.860
41211W        W 6196  40.883  20.203   0.831
41212W        W 6197   0.474  17.837   0.340
41213W        W 6198  29.523  37.775  11.957
41214W        W 6199  11.775  24.445   2.604
41215W        W 6200   3.226   9.123   4.606
41216W        W 6201  18.996  13.977  14.005
41217W        W 6202   3.966   1.288   3.119
41218W        W 6203  30.069   2.025   3.533
41219W        W 6204  31.554  33.595  12.574
41220W        W 6205  20.537  27.227   2.414
41221W        W 6206  17.692  26.867  12.705
41222W        W 6207   1.365  44.547  12.995
41223W        W 6208  28.066  27.444   0.947
41224W        W 6209   7.398   2.431  14.568
41225W        W 6210  27.313  25.832   3.627
41226W        W 6211  11.873  44.064   2.309
41227W        W 6212   8.348  27.453   1.810
41228W        W 6213  28.591  41.728   2.187
41229W        W 6214   1.307  21.241  14.009
41230W        W 6215  34.077  42.770   3.159
41231W        W 6216  30.959  29.467  11.577
41232W        W 6217  16.308  32.945   2.570
41233W        W 6218   6.444  28.471  12.973
41234W        W 6219  16.324  27.487   3.537
41235W        W 6220   9.915  24.428  14.510
41236W        W 6221  37.904  38.846   0.022
41237W        W 6222  10.758   8.332  12.637
41238W        W 6223  17.808  31.021   2.652
41239W        W 6224  17.113  24.580   2.289
41240W        W 6225   0.778  42.730  10.329
41241W        W 6226  32.233   1.727   2.697
41242W        W 6227   7.223  21.985   1.295
41243W        W 6228   7.291   7.713  14.532
41244W        W 6229   5.487  26.425   1.207
41245W        W 6230   5.644  14.218   0.884
41246W        W 6231   4.091  17.138   4.989
41247W        W 6232   8.304  44.440   4.641
41248W        W 6233  44.306  17.715   1.689
41249W        W 6234  37.376  31.950  13.652
41250W        W 6235  32.758   6.791   3.125
41251W        W 6236  32.436  24.597   2.134
41252W        W 6237  21.028  44.540  14.354
41253W        W 6238  27.394  11.404   2.607
41254W        W 6239   6.172  23.222   4.159
41255W        W 6240  18.295  21.316   2.798
41256W        W 6241  26.461  23.739   3.603
41257W        W 6242  27.726  37.545   0.943
41258W        W 6243  36.403  14.314  14.671
41259W        W 6244   9.132  22.943  14.656
41260W        W 6245  32.104  10.938   4.069
41261W        W 6246  37.849  28.525  13.966
41262W        W 6247  40.732  14.874  12.900
41263W        W 6248   7.987  20.285  13.643
41264W        W 6249  13.563  44.268  13.348
41265W        W 6250  38.449   7.163   0.342
41266W        W 6251  32.860  14.793   1.024
41267W        W 6252  29.617   5.289   5.017
41268W        W 6253   2.893   2.303  13.098
41269W        W 6254  30.527  14.540  13.437
41270W        W 6255  18.255  36.444   1.359
41271W        W 6256   9.420  18.305  12.507
41272W        W 6257  27.912  10.351   5.086
41273W        W 6258  35.524   4.591   1.910
41274W        W 6259  13.062  24.056   3.740
41275W        W 6260  10.647  44.814  13.146
41276W        W 6261  21.267  40.473  13.505
41277W        W 6262   7.619   3.364  10.953
41278W        W 6263   6.282  10.360   4.543
41279W        W 6264  33.315   5.696  14.177
41280W        W 6265  24.113  22.479  12.015
41281W        W 6266  15.668  44.702  13.436
41282W        W 6267  22.499   4.346  12.558
41283W        W 6268  32.053  28.439  14.123
41284W        W 6269   0.760  23.049  10.727
41285W        W 6270  20.166  17.785   0.768
41286W        W 6271  11.376  25.220  13.668
41287W        W 6272   9.685  35.808   2.059
41288W        W 6273   8.748  16.022   4.156
41289W        W 6274  22.294  42.921   0.835
41290W        W 6275  12.099  30.760   0.020
41291W        W 6276  39.035  36.065  13.863
41292W        W 6277  30.414   7.416   3.289
41293W        W 6278  19.618  21.577  13.044
41294W        W 6279   3.425   5.983  11.779
41295W        W 6280  27.000  12.368  10.797
41296W        W 6281  19.662  43.369  14.392
41297W        W 6282  29.559   9.866  13.783
41298W        W 6283  29.135  24.706   3.537
41299W        W 6284  40.444  10.870   3.896
41300W        W 6285  30.576   8.870  13.981
41301W        W 6286  43.441  22.297  11.962
41302W        W 6287  14.825  43.541  11.466
41303W        W 6288  16.159  38.935  13.071
41304W        W 6289  30.450   1.458  10.187
41305W        W 6290   6.222  22.762  12.921
41306W        W 6291  32.651  16.116  13.533
41307W        W 6292  27.612  38.049   4.084
41308W        W 6293  33.851   9.387   1.872
41309W        W 6294   0.347  35.614   0.213
41310W        W 6295  23.750  28.373  14.414
41311W        W 6296  15.256  30.749  11.060
41312W        W 6297  30.084  42.934   3.414
41313W        W 6298  17.993  30.679   3.318
41314W        W 6299   7.640  20.571  14.848
41315W        W 6300  44.430  27.165   9.732
41316W        W 6301  12.667  20.002   2.381
41317W        W 6302  29.723   9.201  11.957
41318W        W 6303  18.207  20.488  14.454
41319W        W 6304   3.378   4.296   0.366
41320W        W 6305   9.277  16.859   2.331
41321W        W 6306  10.267  19.799   2.286
41322W        W 6307  40.029  25.604  13.075
41323W        W 6308  44.918   1.693  14.087
41324W        W 6309  11.304  43.072   4.158
41325W        W 6310  10.173  32.732   0.806
41326W        W 6311  12.310  29.078  13.953
41327W        W 6312  10.145  25.081   2.393
41328W        W 6313  29.682  37.457  10.719
41329W        W 6314   4.401   2.425  10.949
41330W        W 6315  14.066   8.324   2.944
41331W        W 6316  23.955  25.791  11.922
41332W        W 6317  20.087   9.979  10.368
41333W        W 6318  10.460  18.679   3.618
41334W        W 6319   3.147  15.474   1.874
41335W        W 6320   3.819  28.438  10.422
41336W        W 6321   3.759  42.475   2.232
41337W        W 6322  36.863  28.869  10.631
41338W        W 6323  24.798  37.411  11.734
41339W        W 6324  31.650  18.680   3.704
41340W        W 6325  30.601  39.936   2.705
41341W        W 6326   0.391  40.379  11.252
41342W        W 6327  18.345  20.637   1.652
41343W        W 6328  13.211  42.066  11.835
41344W        W 6329  19.810  37.366   0.406
41345W        W 6330   8.206   9.467   4.279
41346W        W 6331   6.829  16.470  13.834
41347W        W 6332  18.781  12.078  13.285
41348W        W 6333   8.277  10.418   3.265
41349W        W 6334   6.821  43.384   1.890
41350W        W 6335  42.081  26.044   2.192
41351W        W 6336  12.477   9.256  11.952
41352W        W 6337   6.857  29.398  13.262
41353W        W 6338  23.900  38.727   1.426
41354W        W 6339  37.047  11.186  14.109
41355W        W 6340  31.133  35.549  11.624
41356W        W 6341  10.212  22.545   3.630
41357W        W 6342  11.093  20.730  13.458
41358W        W 6343  34.048  34.938   1.263
41359W        W 6344  33.395  33.287  14.809
41360W        W 6345  28.447  27.714   3.139
41361W        W 6346  40.889  26.251  12.964
41362W        W 6347  27.147  33.262  12.806
41363W        W 6348   4.749  27.032  13.846
41364W        W 6349  44.901   0.457  13.346
41365W        W 6350  17.373  41.075  10.554
41366W        W 6351  42.160  15.975   0.866
41367W        W 6352  26.979  18.015  12.479
41368W        W 6353   1.502  12.576  11.629
41369W        W 6354  25.053  10.388  12.836
41370W        W 6355  39.786  25.345   0.338
41371W        W 6356   8.708  40.879   4.506
41372W        W 6357  10.118  16.139   4.232
41373W        W 6358  16.871   7.678   0.807
41374W        W 6359  12.653   8.041   1.891
41375W        W 6360  19.551   2.215  10.420
41376W        W 6361  43.457  21.957   3.186
41377W        W 6362  24.761   0.054  14.400
41378W        W 6363  17.440   9.242  14.773
41379W        W 6364  41.944  18.637   5.445
41380W        W 6365  41.053  28.048   1.481
41381W        W 6366  13.725  11.347   4.075
41382W        W 6367  11.780  41.895  12.951
41383W        W 6368  16.646  41.780   1.836
41384W        W 6369  44.804  43.283  10.504
41385W        W 6370  34.893  37.060  12.421
41386W        W 6371  23.013   7.640   3.918
41387W        W 6372  25.503  26.707  11.897
41388W        W 6373   4.985  25.523  13.519
41389W        W 6374  17.976  32.407  13.720
41390W        W 6375  37.820  38.771   4.548
41391W        W 6376   1.420  21.143   0.915
41392W        W 6377   0.177  38.491   2.380
41393W        W 6378  24.313   7.677   3.772
41394W        W 6379  26.989  36.609  14.322
41395W        W 6380  42.000  22.609   5.551
41396W        W 6381  35.800   1.779  12.088
41397W        W 6382  32.786  31.178  12.624
41398W        W 6383  43.826  36.537  10.375
41399W        W 6384  14.656  15.496   1.467
41400W        W 6385   2.021  20.409  13.910
41401W        W 6386  24.400   4.773  11.088
41402W        W 6387  19.619  38.966   1.307
41403W        W 6388  14.599   9.419   3.705
41404W        W 6389  28.033  43.123  14.432
41405W        W 6390  32.638  22.786   3.072
41406W        W 6391   9.161  10.907  11.111
41407W        W 6392  17.308  31.615   3.144
41408W        W 6393  17.016  37.065   4.646
41409W        W 6394   5.653  36.796  14.786
41410W        W 6395  19.437  22.969  14.997
41411W        W 6396   4.732  23.950  12.509
41412W        W 6397  41.296   9.283   0.826
41413W        W 6398  15.066   7.224  12.201
41414W        W 6399  17.833  21.138  14.050
41415W        W 6400  30.146  25.435  14.395
41416W        W 6401  14.778  19.007  11.137
41417W        W 6402  35.150  10.408  13.718
41418W        W 6403  16.779  36.983   3.090
41419W        W 6404  32.497   0.896   1.829
41420W        W 6405  15.486  37.393  11.181
41421W        W 6406   6.179  34.485  11.100
41422W        W 6407  15.071  43.784   4.073
41423W        W 6408  29.218  17.045   4.163
41424W        W 6409   6.724  33.335   3.625
41425W        W 6410  22.063  35.123   3.679
41426W        W 6411  12.975  30.482  14.008
41427W        W 6412  40.065  41.171   3.592
41428W        W 6413  13.294  13.608   1.726
41429W        W 6414  20.069  21.211   0.462
41430W        W 6415   1.654   7.312  12.885
41431W        W 6416   1.216  13.057   1.463
41432W        W 6417  41.408  42.810   1.275
41433W        W 6418  15.176   7.675   0.056
41434W        W 6419  20.218  30.481   3.593
41435W        W 6420  39.424  15.228  12.295
41436W        W 6421  40.916  18.818   4.010
41437W        W 6422  44.978  33.986   0.172
41438W        W 6423  33.172  19.162  13.765
41439W        W 6424  16.428   4.932  12.342
41440W        W 6425  42.845  27.116   4.101
41441W        W 6426  11.201  13.388  12.603
41442W        W 6427   4.413  15.497  10.580
41443W        W 6428  17.554  43.544  14.896
41444W        W 6429  17.826  36.070  11.890
41445W        W 6430  32.168  21.195  12.717
41446W        W 6431   1.988   8.926  10.940
41447W        W 6432  43.042  18.691   0.562
41448W        W 6433  43.833  24.532  11.505
41449W        W 6434  37.598  34.904   2.852
41450W        W 6435  44.369  28.917  10.164
41451W        W 6436  42.271  39.889   5.063
41452W        W 6437  27.974  19.252   2.313
41453W        W 6438  37.497  13.110  12.419
41454W        W 6439  10.644  27.738  10.611
41455W        W 6440  41.849  40.822  11.527
41456W        W 6441  42.037  41.287  13.867
41457W        W 6442  32.381  37.453   1.827
41458W        W 6443  39.232  22.547  14.758
41459W        W 6444  30.161   1.928   3.042
41460W        W 6445   0.314  23.466   1.971
41461W        W 6446  18.726   1.908  12.917
41462W        W 6447   5.119  12.409   4.195
41463W        W 6448  15.140  18.165   4.170
41464W        W 6449   8.219   9.838  12.616
41465W        W 6450  17.657  22.798  12.851
41466W        W 6451   1.318   0.398  10.408
41467W        W 6452  40.049   8.282   4.497
41468W        W 6453  38.648  25.296  14.942
41469W        W 6454  38.372  42.454  13.551
41470W        W 6455  21.666  17.688   4.086
41471W        W 6456  44.035  24.938   1.322
41472W        W 6457  25.144  17.298  11.979
41473W        W 6458  33.085  11.886  11.106
41474W        W 6459  20.752  33.033   2.424
41475W        W 6460  38.603  34.176   0.257
41476W        W 6461  31.021  20.636   0.923
41477W        W 6462  37.297   9.720   3.733
41478W        W 6463  28.425  14.140  13.640
41479W        W 6464  33.084  15.030   3.181
41480W        W 6465  26.608  27.082  14.411
41481W        W 6466  20.780  36.940   1.394
41482W        W 6467  21.188  38.920  11.571
41483W        W 6468  43.339  14.073   3.130
41484W        W 6469   2.744  30.975   3.292
41485W        W 6470  12.165  26.618   3.644
41486W        W 6471  41.176   8.689   2.655
41487W        W 6472   6.987   1.412  13.567
41488W        W 6473  32.939  10.618   0.129
41489W        W 6474  31.811  33.755   2.186
41490W        W 6475  36.335  22.719   4.996
41491W        W 6476  35.565   0.344   4.240
41492W        W 6477  36.375  37.097  14.321
41493W        W 6478  29.567   6.446   2.387
41494W        W 6479  43.922  15.343   4.237
41495W        W 6480  10.884  40.371  10.721
41496W        W 6481  19.788  30.452   4.884
41497W        W 6482  25.089  35.258   1.148
41498W        W 6483  23.163  16.826  10.768
41499W        W 6484  34.942  37.310  10.365
41500W        W 6485  13.810   1.967  14.039
41501W        W 6486  26.058  13.231   2.384
41502W        W 6487  24.437  14.621   3.697
41503W        W 6488   6.678  17.430   0.419
41504W        W 6489  32.194  19.054   0.505
41505W        W 6490  36.942   7.139  10.906
41506W        W 6491  23.015  22.709   0.731
41507W        W 6492   8.869   6.333   2.438
41508W        W 6493  17.588  43.469  11.057
41509W        W 6494  10.876  22.547  11.115
41510W        W 6495   8.304  26.107  10.745
41511W        W 6496  31.061   4.841   2.039
41512W        W 6497  24.260  21.132  12.931
41513W        W 6498  21.091  11.642   3.175
41514W        W 6499  44.041  20.774   4.266
41515W        W 6500  20.180  29.384   4.940
41516W        W 6501  23.695   1.208   0.317
41517W        W 6502  27.216   3.342   5.741
41518W        W 6503  26.392   7.791  10.746
41519W        W 6504   4.227  33.096   3.245
41520W        W 6505  40.779  35.677  13.868
41521W        W 6506  17.951   7.367   2.101
41522W        W 6507  22.697  12.341  14.856
41523W        W 6508   9.078  43.907  13.507
41524W        W 6509   7.466  34.676   4.566
41525W        W 6510  38.001  25.407   2.762
41526W        W 6511  19.552   5.002  12.890
41527W        W 6512  36.669  30.420   2.858
41528W        W 6513  20.259  42.157   4.058
41529W        W 6514  24.478  11.524   0.328
41530W        W 6515   6.961  24.017  13.859
41531W        W 6516  22.552  32.595   4.081
41532W        W 6517  16.183   8.382   4.599
41533W        W 6518   2.816  16.558  11.947
41534W        W 6519  35.592  17.998  11.173
41535W        W 6520  29.229  16.150   1.032
41536W        W 6521  43.301  29.896   3.726
41537W        W 6522  21.497  38.562  14.465
41538W        W 6523  43.038  29.093   2.193
41539W        W 6524  37.385  12.268  13.052
41540W        W 6525  19.089  13.760  14.484
41541W        W 6526  37.084  37.601   1.241
41542W        W 6527  25.474  14.270  11.364
41543W        W 6528  27.688   7.063   3.367
41544W        W 6529  32.966  33.256   2.904
41545W        W 6530  28.421   9.661   3.917
41546W        W 6531  37.951  27.747   2.783
41547W        W 6532  33.608   0.752  14.419
41548W        W 6533   3.406  22.849   0.417
41549W        W 6534   7.751   4.116  14.027
41550W        W 6535  39.276  23.450  13.821
41551W        W 6536  16.485  32.077   4.168
41552W        W 6537  24.436  36.354  14.677
41553W        W 6538  30.540  18.150   0.354
41554W        W 6539  16.069   1.360  13.918
41555W        W 6540  31.509   0.482   2.647
41556W        W 6541  36.974  34.381   1.732
41557W        W 6542   0.948   1.897  13.518
41558W        W 6543  34.000  30.204  11.604
41559W        W 6544  35.765  25.465   0.318
41560W        W 6545   8.298  17.482  12.551
41561W        W 6546  16.696  14.307   0.430
41562W        W 6547  29.537  31.785  11.969
41563W        W 6548  11.774  29.662  13.414
41564W        W 6549  15.224  41.279   1.869
41565W        W 6550  37.313  35.375  12.455
41566W        W 6551  42.510  32.395  13.335
41567W        W 6552  21.140  14.157  13.812
41568W        W 6553  33.964   4.929  12.977
41569W        W 6554  14.761  27.780   2.282
41570W        W 6555  25.696  37.534   1.658
41571W        W 6556  39.752  16.805  10.123
41572W        W 6557  32.965   2.022   2.247
41573W        W 6558  42.613  37.863   3.990
41574W        W 6559  14.539  26.728   0.624
41575W        W 6560  22.462   4.315  11.407
41576W        W 6561  10.352   8.991  14.374
41577W        W 6562  29.473   7.277   1.670
41578W        W 6563  44.523  13.749  14.355
41579W        W 6564  39.430  27.341   5.782
41580W        W 6565  11.900   3.637   1.325
41581W        W 6566  33.392  18.287  10.720
41582W        W 6567   7.757  33.643  11.057
41583W        W 6568  29.868  19.545   0.390
41584W        W 6569  15.593  23.532  13.317
41585W        W 6570  19.790  24.510  10.808
41586W        W 6571  41.463  41.300   2.824
41587W        W 6572  14.616  16.339  11.980
41588W        W 6573  10.732   5.615  12.025
41589W        W 6574  43.905   9.883   3.169
41590W        W 6575  26.703  37.575  10.610
41591W        W 6576  34.021  32.439   4.271
41592W        W 6577  39.848  27.017   0.250
41593W        W 6578  40.472  38.883   3.180
41594W        W 6579  15.627  32.997  10.411
41595W        W 6580   1.106  41.981  11.317
41596W        W 6581  21.188  23.127  11.417
41597W        W 6582  29.710  19.307   3.708
41598W        W 6583  31.606  27.984   3.698
41599W        W 6584  42.968  26.494  11.720
41600W        W 6585  35.072  15.886   4.024
41601W        W 6586  22.916   9.533  13.484
41602W        W 6587  22.143  14.195  14.525
41603W        W 6588  23.250  27.538   0.840
41604W        W 6589   8.659  17.605   2.253
41605W        W 6590  23.525  29.708   0.625
41606W        W 6591  14.081  27.852   1.525
41607W        W 6592  44.534  18.881  13.830
41608W        W 6593  19.990   4.433   1.303
41609W        W 6594  42.062  42.430   3.392
41610W        W 6595  24.871  10.707   3.203
41611W        W 6596  32.019  13.072  10.738
41612W        W 6597  19.577  33.298   2.443
41613W        W 6598  29.460   5.815  10.443
41614W        W 6599  24.614  20.267  11.514
41615W        W 6600  28.695  40.885   3.202
41616W        W 6601  14.192  22.061   2.779
41617W        W 6602  24.504  20.964   0.938
41618W        W 6603   4.454   9.293  10.920
41619W        W 6604  18.275  21.654   0.310
41620W        W 6605  44.980  20.482  12.594
41621W        W 6606  42.827  33.932   1.188
41622W        W 6607  27.757  31.357  12.459
41623W        W 6608   4.015  40.652   2.164
41624W        W 6609  44.750   1.416  12.196
41625W        W 6610   2.561   7.620  14.854
41626W        W 6611  44.565  44.345   2.616
41627W        W 6612  34.302   2.071   2.427
41628W        W 6613  42.455  17.078   0.912
41629W        W 6614  13.329  25.499   0.774
41630W        W 6615  24.697  24.791   2.316
41631W        W 6616   9.314   2.186   0.368
41632W        W 6617  38.488   7.314  12.346
41633W        W 6618  37.538  17.905  14.953
41634W        W 6619  20.122  34.465  10.657
41635W        W 6620  20.577   6.619   4.100
41636W        W 6621  34.016  27.028   2.546
41637W        W 6622  44.650  36.336   1.029
41638W        W 6623   5.665  12.822   2.835
41639W        W 6624  26.707  17.340  11.668
41640W        W 6625  25.439  16.800  14.782
41641W        W 6626  31.532  18.441  14.650
41642W        W 6627   3.321  14.602   5.078
41643W        W 6628   7.921   4.731   0.714
41644W        W 6629  21.078  12.117  11.591
41645W        W 6630  26.667  43.802   3.801
41646W        W 6631  13.645  29.917   2.544
41647W        W 6632  35.168   8.602   3.483
41648W        W 6633  14.855  22.134  12.105
41649W        W 6634   2.309  29.351  13.438
41650W        W 6635   5.819  15.750   4.003
41651W        W 6636  20.709  13.879  13.899
41652W        W 6637   2.984   1.390   4.562
41653W        W 6638  11.859   0.993   0.340
41654W        W 6639  34.641   8.835   3.036
41655W        W 6640   7.949  21.213  13.635
41656W        W 6641  42.942   3.978   4.203
41657W        W 6642  19.961  35.090   4.907
41658W        W 6643   0.341   4.483  14.467
41659W        W 6644  21.180   8.136  11.348
41660W        W 6645  38.449  33.433   0.440
41661W        W 6646  14.074  21.099   2.374
41662W        W 6647  18.649  41.264  14.289
41663W        W 6648  31.538   1.439   4.167
41664W        W 6649  24.371  40.925  11.205
41665W        W 6650  17.023   0.309   4.559
41666W        W 6651  24.511  24.186  14.007
41667W        W 6652  28.659  26.685  11.546
41668W        W 6653  19.391  42.394  12.252
41669W        W 6654  37.279  36.721   1.663
41670W        W 6655   4.994  27.859   1.420
41671W        W 6656  23.767  41.090  13.003
41672W        W 6657  29.518  16.957  10.751
41673W        W 6658   7.542  18.841  11.546
41674W        W 6659  11.952   1.729   1.923
41675W        W 6660   0.749  42.251  11.578
41676W        W 6661  38.459  16.759   1.806
41677W        W 6662  21.418  37.069  12.485
41678W        W 6663  35.948  39.098   3.351
41679W        W 6664  10.683  13.619   4.143
41680W        W 6665  31.207   3.984  10.973
41681W        W 6666  20.453  22.755   2.383
41682W        W 6667  37.355  36.877   5.301
41683W        W 6668   7.741  15.631  10.390
41684W        W 6669   8.404  37.003  10.970
41685W        W 6670  23.624  19.389   0.044
41686W        W 6671  38.565  11.918  11.272
41687W        W 6672  26.534  42.759  12.128
41688W        W 6673  10.922   8.425   3.782
41689W        W 6674   0.994  27.831   4.109
41690W        W 6675  28.535  18.583  10.636
41691W        W 6676  29.536  15.135   4.717
41692W        W 6677  23.809  21.828   4.024
41693W        W 6678   4.714   7.361   4.198
41694W        W 6679   5.661   5.162  12.959
41695W        W 6680  12.280  32.416  12.144
41696W        W 6681   0.891  11.589  14.417
41697W        W 6682  13.331  27.496   3.618
41698W        W 6683  28.156  44.816   1.743
41699W        W 6684   2.195  11.355  12.417
41700W        W 6685  35.284  11.058   4.042
41701W        W 6686  40.102  26.033  12.097
41702W        W 6687  15.134  39.845  13.546
41703W        W 6688  11.987  30.647  10.000
41704W        W 6689   8.510   5.897  12.049
41705W        W 6690  40.902  28.055  14.420
41706W        W 6691  27.759  15.815  13.402
41707W        W 6692  26.234  12.780  13.371
41708W        W 6693  35.964  32.055  13.929
41709W        W 6694  22.464  40.936   2.637
41710W        W 6695   8.109  27.185  14.942
41711W        W 6696  37.074  32.955   4.550
41712W        W 6697   9.280  14.770   4.799
41713W        W 6698   3.700  28.706   2.240
41714W        W 6699  22.939  21.447  12.942
41715W        W 6700  42.528  30.650  13.632
41716W        W 6701   2.272   0.987   2.415
41717W        W 6702  37.035  34.783   4.100
41718W        W 6703  15.256  23.695   4.090
41719W        W 6704  27.071  38.099   0.940
41720W        W 6705  21.975  41.416  11.460
41721W        W 6706  30.655  22.425   2.344
41722W        W 6707  22.594  32.000   1.817
41723W        W 6708   5.895  39.590  12.446
41724W        W 6709  24.921  22.123  14.472
41725W        W 6710  21.323  37.599  12.413
41726W        W 6711   8.673  23.756   1.224
41727W        W 6712  17.090  23.729   0.835
41728W        W 6713  33.940  40.991  14.324
41729W        W 6714  30.069  32.989  10.739
41730W        W 6715  24.189  43.446   2.466
41731W        W 6716  19.036  27.571  10.988
41732W        W 6717  17.059   4.247  10.501
41733W        W 6718   6.841  19.721  14.205
41734W        W 6719  22.977  10.003   3.318
41735W        W 6720  38.267  35.704   5.692
41736W        W 6721   0.319  26.257  10.956
41737W        W 6722  41.040  33.837   9.707
41738W        W 6723  42.338  37.621   0.028
41739W        W 6724  44.766  15.501   1.824
41740W        W 6725   0.405  30.525  13.988
41741W        W 6726  31.264   4.219   1.852
41742W        W 6727  18.727   3.336   3.428
41743W        W 6728  29.054   9.811   1.047
41744W        W 6729  17.822   1.276  14.364
41745W        W 6730  34.343  20.545  13.539
41746W        W 6731  17.694  23.560   2.420
41747W        W 6732  26.488   3.498   1.482
41748W        W 6733  41.378   8.836   4.719
41749W        W 6734  29.170  14.077   3.209
41750W        W 6735  29.923  17.050  14.000
41751W        W 6736  37.729   4.462  12.891
41752W        W 6737  32.198   6.387   1.772
41753W        W 6738  24.600  44.643   4.649
41754W        W 6739  40.622  26.156  13.409
41755W        W 6740  19.605  23.106  12.168
41756W        W 6741  44.624  27.559   5.137
41757W        W 6742  14.583  39.492   1.890
41758W        W 6743  40.388   8.106  13.604
41759W        W 6744   5.341  14.090  10.433
41760W        W 6745   7.179  43.015   1.825
41761W        W 6746  35.632  39.942  12.474
41762W        W 6747   3.645  32.605  13.905
41763W        W 6748  39.025  13.568   3.136
41764W        W 6749  27.276  22.139   3.754
41765W        W 6750  40.553   7.230  11.113
41766W        W 6751  34.704   7.112  11.048
41767W        W 6752  13.459  21.830  10.662
41768W        W 6753  42.388  12.637  14.924
41769W        W 6754  30.211   4.818   1.341
41770W        W 6755   2.974  38.080   4.225
41771W        W 6756  24.609  20.222  12.594
41772W        W 6757  20.107  29.204   2.528
41773W        W 6758  28.407  31.259   0.913
41774W        W 6759  28.642  11.191   4.081
41775W        W 6760  19.186   3.180  12.241
41776W        W 6761  15.071   8.096   3.131
41777W        W 6762   1.451  44.554  10.718
41778W        W 6763  12.704  12.934   0.008
41779W        W 6764  23.566  25.575  14.244
41780W        W 6765   8.259  40.447   2.367
41781W        W 6766  15.778  26.140   0.003
41782W        W 6767  38.538  11.318   3.170
41783W        W 6768  20.538  26.771   3.284
41784W        W 6769  28.670  23.167   1.962
41785W        W 6770  40.502   2.314  11.379
41786W        W 6771   3.585   3.476   3.244
41787W        W 6772  34.597   8.078   2.874
41788W        W 6773   4.083  15.203   3.547
41789W        W 6774  43.718   7.062   4.151
41790W        W 6775  39.878  25.054   0.999
41791W        W 6776  16.319  38.861  11.609
41792W        W 6777   4.613  42.567   2.458
41793W        W 6778   2.914   5.822   3.251
41794W        W 6779  37.605  14.513  14.388
41795W        W 6780   5.935  19.756  11.655
41796W        W 6781  17.333  35.956  10.162
41797W        W 6782  21.316   5.049  12.639
41798W        W 6783  16.095  19.765   2.258
41799W        W 6784  39.340   0.919   0.942
41800W        W 6785  19.128  18.057  12.077
41801W        W 6786  19.565  10.912  13.830
41802W        W 6787   9.349  27.960   3.321
41803W        W 6788  20.246  33.113  10.508
41804W        W 6789  19.501  42.079  10.762
41805W        W 6790  25.549  20.237   0.402
41806W        W 6791  16.090   2.369   1.834
41807W        W 6792   4.862  37.693   5.152
41808W        W 6793  15.132  40.291  11.048
41809W        W 6794  31.004  40.772  14.542
41810W        W 6795  20.634  21.688  14.421
41811W        W 6796  32.890  43.354   4.101
41812W        W 6797   9.043   7.179   2.722
41813W        W 6798  14.825  30.949  12.221
41814W        W 6799  31.461  12.690   4.347
41815W        W 6800  18.525   5.783  12.545
41816W        W 6801  33.319   5.594   0.942
41817W        W 6802  24.249  14.878  11.641
41818W        W 6803  39.354  31.620  11.959
41819W        W 6804   4.465  33.924  11.146
41820W        W 6805  25.564  10.514  10.661
41821W        W 6806  12.641  33.818   1.273
41822W        W 6807  29.309  29.063   2.270
41823W        W 6808  34.162  41.033  14.789
41824W        W 6809  17.600  11.548  13.288
41825W        W 6810   9.985  40.931   0.246
41826W        W 6811   0.012  15.300   2.275
41827W        W 6812  14.817  13.763  10.750
41828W        W 6813  36.889  33.048   1.654
41829W        W 6814  38.606  24.524  13.483
41830W        W 6815  18.175  15.574  11.473
41831W        W 6816  36.581  19.264  11.817
41832W        W 6817  14.867   5.497   3.644
41833W        W 6818  12.923  30.921   2.657
41834W        W 6819  27.995  43.727   1.731
41835W        W 6820  32.995  39.520  11.927
41836W        W 6821  34.438  16.763   2.450
41837W        W 6822   1.244   0.142   2.927
41838W        W 6823  11.894   1.971   1.438
41839W        W 6824  31.916  22.213   4.732
41840W        W 6825  32.995  23.294  12.831
41841W        W 6826   2.801  36.045   1.301
41842W        W 6827   3.481  34.202   0.995
41843W        W 6828  32.257  44.655  11.199
41844W        W 6829  37.591  29.073  12.284
41845W        W 6830  33.247  41.923  14.435
41846W        W 6831  10.739  40.716   2.218
41847W        W 6832  39.169  40.474   3.100
41848W        W 6833  33.063  24.595   4.892
41849W        W 6834   0.330  30.615   2.873
41850W        W 6835   8.774  38.292  11.445
41851W        W 6836   1.655   8.354   4.075
41852W        W 6837   1.409  40.579   3.119
41853W        W 6838   9.461  41.021   0.329
41854W        W 6839  32.243  38.243   0.256
41855W        W 6840  28.247  30.044   1.189
41856W        W 6841  37.423   7.011  12.596
41857W        W 6842  25.062  36.464   2.048
41858W        W 6843  31.833  38.300   1.852
41859W        W 6844  13.653   2.849   2.410
41860W        W 6845  35.588   5.409   2.689
41861W        W 6846  23.485   1.724  10.647
41862W        W 6847  33.441  20.540   4.808
41863W        W 6848   4.200  32.000  12.190
41864W        W 6849  15.760  29.962   3.366
41865W        W 6850  33.111  38.605   0.605
41866W        W 6851  22.024  30.908   1.877
41867W        W 6852  15.248  30.163  12.152
41868W        W 6853  19.180  40.125   0.543
41869W        W 6854  12.322  38.869   2.261
41870W        W 6855  24.485  29.467   1.762
41871W        W 6856  23.859  23.388  11.660
41872W        W 6857  12.196  11.356   0.429
41873W        W 6858   2.693   6.358  11.570
41874W        W 6859  10.696  35.602   3.689
41875W        W 6860   9.607   5.643  13.455
41876W        W 6861   4.008  27.394   0.802
41877W        W 6862   4.010  44.486   1.395
41878W        W 6863  17.119   6.307   0.499
41879W        W 6864  35.845   2.444   3.176
41880W        W 6865  24.381  30.925   1.897
41881W        W 6866  43.652  16.676  10.778
41882W        W 6867   8.431  14.609   1.327
41883W        W 6868   5.726   8.518  14.249
41884W        W 6869   2.315  38.395  11.523
41885W        W 6870  41.372  27.511  11.151
41886W        W 6871  36.518  37.629  11.025
41887W        W 6872  17.746  43.670   0.361
41888W        W 6873  28.489   9.227  13.437
41889W        W 6874  12.167  30.143  10.738
41890W        W 6875   0.135  37.945   3.714
41891W        W 6876   7.839  33.875   3.664
41892W        W 6877  24.738   4.343   3.093
41893W        W 6878  20.236  27.659  14.702
41894W        W 6879  41.671  27.692   0.532
41895W        W 6880  15.969  20.729   9.917
41896W        W 6881  19.636  25.014  14.216
41897W        W 6882   0.977  24.135   3.558
41898W        W 6883  24.258  21.223   4.126
41899W        W 6884  35.603  44.229   3.579
41900W        W 6885   2.111   0.060  10.721
41901W        W 6886  12.768  36.579  13.925
41902W        W 6887  27.161  31.035   0.438
41903W        W 6888  41.444  12.756  11.214
41904W        W 6889   8.338  28.215   1.425
41905W        W 6890  29.659  42.888   4.213
41906W        W 6891  33.050  35.087  10.985
41907W        W 6892  10.691  20.263   4.454
41908W        W 6893  35.268  21.090  14.285
41909W        W 6894   3.150   2.287   1.738
41910W        W 6895  17.150  17.162  14.916
41911W        W 6896  30.737  29.543   4.560
41912W        W 6897  28.524  35.020  12.409
41913W        W 6898  27.865  24.184   3.269
41914W        W 6899   2.998  34.312   0.888
41915W        W 6900  37.137  39.996  14.348
41916W        W 6901  38.912   4.946   0.844
41917W        W 6902  11.197  13.745  10.705
41918W        W 6903   1.978  13.416   1.707
41919W        W 6904  38.346  38.093   0.442
41920W        W 6905  21.895  32.821  11.470
41921W        W 6906  23.162   4.105   5.514
41922W        W 6907  16.287  30.471   0.689
41923W        W 6908  15.960   2.924  11.624
41924W        W 6909  16.882   1.460  14.544
41925W        W 6910  17.202  33.844  13.620
41926W        W 6911   4.154  26.367  13.001
41927W        W 6912  16.381  27.728   4.320
41928W        W 6913  43.419  33.606   2.671
41929W        W 6914  20.174  23.738   1.184
41930W        W 6915   6.761   2.793   0.328
41931W        W 6916  32.498  36.478  12.152
41932W        W 6917  22.598  20.230   4.145
41933W        W 6918  34.054  13.604  12.860
41934W        W 6919  17.259  20.211  12.864
41935W        W 6920  35.117   6.400  13.608
41936W        W 6921  20.397  11.691   1.752
41937W        W 6922   2.724  16.650  11.452
41938W        W 6923   0.403  23.514  14.523
41939W        W 6924  36.317  19.568   0.183
41940W        W 6925  23.917  28.482  10.271
41941W        W 6926  28.909  19.232   1.872
41942W        W 6927  19.988   3.590   3.214
41943W        W 6928  34.468  17.270   2.579
41944W        W 6929  23.720  34.453   3.622
41945W        W 6930  32.185  18.221   3.107
41946W        W 6931  28.453  30.627  13.359
41947W        W 6932  27.107   1.885   2.786
41948W        W 6933  43.504  32.997   4.528
41949W        W 6934  18.926  17.293   2.696
41950W        W 6935   9.227  32.474   0.030
41951W        W 6936  37.987  14.181   4.557
41952W        W 6937  21.017  27.591   4.676
41953W        W 6938  33.558   5.503  11.045
41954W        W 6939   4.838  29.636  11.464
41955W        W 6940  16.314  37.487  12.926
41956W        W 6941   3.905  16.758   1.876
41957W        W 6942  21.875  38.123  14.525
41958W        W 6943  39.533  24.456  11.036
41959W        W 6944   1.359  22.549   0.226
41960W        W 6945  39.934  36.365   2.918
41961W        W 6946   6.894  41.734   3.634
41962W        W 6947   4.105  28.906   4.750
41963W        W 6948  42.243  15.048   1.789
41964W        W 6949  29.215  13.801   0.431
41965W        W 6950   7.853  40.736  10.860
41966W        W 6951  28.652  11.540   0.825
41967W        W 6952  42.974   4.414   1.510
41968W        W 6953  23.440  29.187  11.748
41969W        W 6954  34.113  37.533   1.399
41970W        W 6955  17.486  15.207  12.926
41971W        W 6956  27.277  27.528  11.413
41972W        W 6957   8.672  27.938   3.503
41973W        W 6958   9.501  41.430   3.306
41974W        W 6959  22.635  21.568   3.267
41975W        W 6960  34.927  31.709  13.872
41976W        W 6961  38.870  13.820  12.911
41977W        W 6962   0.317  32.571   3.811
41978W        W 6963  44.579  21.655   1.073
41979W        W 6964   4.485  23.531   0.857
41980W        W 6965  12.703  30.830  13.757
41981W        W 6966  21.860  12.789  14.528
41982W        W 6967   8.219  40.492   0.326
41983W        W 6968  27.021  12.254   4.427
41984W        W 6969   8.853  29.130  12.114
41985W        W 6970  36.892  13.607  14.580
41986W        W 6971  41.296  44.225   0.512
41987W        W 6972  29.865  37.818  11.506
41988W        W 6973  32.574  29.042  11.139
41989W        W 6974  25.938  41.359   0.420
41990W        W 6975  33.657  27.486  13.888
41991W        W 6976   6.867   9.272   1.406
41992W        W 6977  43.993  38.905   1.042
41993W        W 6978  13.386   9.494  11.221
41994W        W 6979  36.321  23.794  13.030
41995W        W 6980   7.873  34.345   4.462
41996W        W 6981   5.674  25.046   0.938
41997W        W 6982  42.719  43.803  13.030
41998W        W 6983  10.975  43.934  11.948
41999W        W 6984  32.827  41.066   2.603
42000W        W 6985   8.658  30.483  12.242
42001W        W 6986  30.513  24.904   2.273
42002W        W 6987  33.997  34.131   0.844
42003W        W 6988  25.657  21.763   0.477
42004W        W 6989  27.888  40.902   4.270
42005W        W 6990   3.925  29.511  10.985
42006W        W 6991  34.738  32.598  12.166
42007W        W 6992   9.347  28.483   1.170
42008W        W 6993   6.621   4.937  14.450
42009W        W 6994  43.120  11.014   2.830
42010W        W 6995  14.765  40.110   2.557
42011W        W 6996  30.917  21.574  10.402
42012W        W 6997  25.149   6.652   4.673
42013W        W 6998  20.878   4.419   0.764
42014W        W 6999  27.544  34.965  11.425
42015W        W 7000  27.904  15.649   4.485
42016W        W 7001  36.354  44.428   0.520
42017W        W 7002  17.001  14.545   4.202
42018W        W 7003   3.748   9.111   4.561
42019W        W 7004   9.274   2.409  12.628
42020W        W 7005   9.224  24.561   4.591
42021W        W 7006  41.102  34.835  11.381
42022W        W 7007  10.944  42.247   2.257
42023W        W 7008  30.714   4.869   1.217
42024W        W 7009  31.986   2.541   1.405
42025W        W 7010   5.930  14.204   2.284
42026W        W 7011  40.884  16.084  14.375
42027W        W 7012  11.892  25.954   2.321
42028W        W 7013  12.099  35.813  11.981
42029W        W 7014  11.552  12.956  11.950
42030W        W 7015   0.867  14.104  10.743
42031W        W 7016  27.587  29.035   3.178
42032W        W 7017  28.173  31.942  11.125
42033W        W 7018  20.704  34.166   5.012
42034W        W 7019   3.590  43.819  12.950
42035W        W 7020  14.548  24.172   2.748
42036W        W 7021  29.528  14.609   4.650
42037W        W 7022   3.163   4.800  13.087
42038W        W 7023  44.361  26.939  13.475
42039W        W 7024  38.431   3.317  11.565
42040W        W 7025   0.345   1.381  10.947
42041W        W 7026  37.911   7.486  11.131
42042W        W 7027  42.484  37.139  14.988
42043W        W 7028  27.787  10.793   3.843
42044W        W 7029  19.515  31.075   2.123
42045W        W 7030  34.282  27.326  11.130
42046W        W 7031  39.429  21.742   4.901
42047W        W 7032  34.223  14.612   0.233
42048W        W 7033  28.545  43.264  14.480
42049W        W 7034   6.602   7.484   1.331
42050W        W 7035  18.011  15.185  11.177
42051W        W 7036   1.803   8.631   4.924
42052W        W 7037  31.671   5.765   0.246
42053W        W 7038  32.467  33.379   2.800
42054W        W 7039  11.578  33.816  11.243
42055W        W 7040  22.289  32.448  11.431
42056W        W 7041   0.776  33.303  11.015
42057W        W 7042  16.351   2.860  13.963
42058W        W 7043  32.428  28.567  12.817
42059W        W 7044  19.466   3.134   1.406
42060W        W 7045  35.776  24.709  12.578
42061W        W 7046   1.541   7.080  11.586
42062W        W 7047   7.023  38.442   1.100
42063W        W 7048  23.161   9.960  12.910
42064W        W 7049   4.358  20.880  13.843
42065W        W 7050   2.019   9.321   3.209
42066W        W 7051   3.822  22.603   2.074
42067W        W 7052   8.621  36.035   4.607
42068W        W 7053  38.781  38.114   1.256
42069W        W 7054  18.404  35.301   3.100
42070W        W 7055  10.356  35.703   2.655
42071W        W 7056  39.234  39.421  12.589
42072W        W 7057   5.877   7.209  14.915
42073W        W 7058  39.296  31.645   3.325
42074W        W 7059  38.600  33.550  13.868
42075W        W 7060  12.221  35.574  13.357
42076W        W 7061  27.149   7.839  12.493
42077W        W 7062   9.499  38.425   2.689
42078W        W 7063  14.614   3.866  11.954
42079W        W 7064  18.746  35.883  11.439
42080W        W 7065  22.310  44.743  13.837
42081W        W 7066  25.584   2.701   2.750
42082W        W 7067  13.163  25.660  10.495
42083W        W 7068  14.136   7.224  12.172
42084W        W 7069  19.741  23.867   4.986
42085W        W 7070  15.114  26.410  11.017
42086W        W 7071   2.817  42.728   3.157
42087W        W 7072  18.132  42.940  12.375
42088W        W 7073   6.684  20.725  14.489
42089W        W 7074  14.803  30.102  11.181
42090W        W 7075  36.891  11.667   4.082
42091W        W 7076  13.164  19.305  10.756
42092W        W 7077   5.944  22.502   1.193
42093W        W 7078  21.606  42.338   2.505
42094W        W 7079  19.552  38.597   1.840
42095W        W 7080  22.603  38.247   4.422
42096W        W 7081   6.843  40.708  12.522
42097W        W 7082  11.551  13.924   3.085
42098W        W 7083   9.131  23.113   4.890
42099W        W 7084   4.998  44.402   3.224
42100W        W 7085  35.469  28.109   2.880
42101W        W 7086   9.654  25.734  14.968
42102W        W 7087  10.108   0.484  12.584
42103W        W 7088  41.169   7.823   3.696
42104W        W 7089  20.810   5.639   4.123
42105W        W 7090  19.264  18.724   1.065
42106W        W 7091  16.147  26.069   0.931
42107W        W 7092  38.622  25.135  13.115
42108W        W 7093  40.550  10.646  11.667
42109W        W 7094   8.796  22.214  13.562
42110W        W 7095  43.764  33.218   2.637
42111W        W 7096  17.313  31.370   2.275
42112W        W 7097  12.087  28.735  10.240
42113W        W 7098  37.945  37.375  14.331
42114W        W 7099  33.914  44.660  12.418
42115W        W 7100   8.162  33.599   4.116
42116W        W 7101   4.008  15.853  10.688
42117W        W 7102   6.685  21.520   4.301
42118W        W 7103  28.529  40.752   0.663
42119W        W 7104  38.294  11.745   3.056
42120W        W 7105  24.450  33.378  14.376
42121W        W 7106  14.626  33.581   3.569
42122W        W 7107  18.142   4.222  11.523
42123W        W 7108  14.899  38.978  12.671
42124W        W 7109  22.140  32.527  13.441
42125W        W 7110   4.853   6.925   3.955
42126W        W 7111  33.841  10.867   0.518
42127W        W 7112  33.028  15.628  11.501
42128W        W 7113  37.629  21.775  13.295
42129W        W 7114  18.984  39.029   0.689
42130W        W 7115  40.080  24.605   0.784
42131W        W 7116  14.206  28.766  10.583
42132W        W 7117  14.702  14.256   4.046
42133W        W 7118  18.359   7.133  12.467
42134W        W 7119  17.742  41.815   1.780
42135W        W 7120  28.023  15.547   0.271
42136W        W 7121  43.532  27.712   4.206
42137W        W 7122  44.545   2.896   1.058
42138W        W 7123   3.417  16.391   0.921
42139W        W 7124  36.028  15.814   2.192
42140W        W 7125   3.860  27.131   3.114
42141W        W 7126  15.978  38.821   2.842
42142W        W 7127  12.030  20.889   0.299
42143W        W 7128  25.098  25.369  10.692
42144W        W 7129  16.250  42.372  12.099
42145W        W 7130  39.002  25.631  14.171
42146W        W 7131  43.313  32.102   4.380
42147W        W 7132  27.432  32.884  13.608
42148W        W 7133  22.041   7.291  12.029
42149W        W 7134  44.080  37.849   4.555
42150W        W 7135   0.318  42.778   4.527
42151W        W 7136  11.690  28.157  14.364
42152W        W 7137  26.656  18.521   3.596
42153W        W 7138  32.543  36.902  12.436
42154W        W 7139  25.996   9.484   3.610
42155W        W 7140  35.296  39.473   4.238
42156W        W 7141   7.619  37.940   0.367
42157W        W 7142  34.455  39.810   1.823
42158W        W 7143  23.751  10.751  10.746
42159W        W 7144  44.444   0.549  10.788
42160W        W 7145   7.654   7.927  13.776
42161W        W 7146   0.010  16.589  14.955
42162W        W 7147   8.371   7.086  12.423
42163W        W 7148  10.291  24.691   0.733
42164W        W 7149   4.372   8.696   0.728
42165W        W 7150   5.684   0.274   3.724
42166W        W 7151  16.853  37.471   9.786
42167W        W 7152  21.953  18.869   3.640
42168W        W 7153  29.932   4.507  12.118
42169W        W 7154   4.740  36.456  11.132
42170W        W 7155   2.477  32.508  11.616
42171W        W 7156  23.479  38.440  10.799
42172W        W 7157  42.465  15.123  11.015
42173W        W 7158  20.658  12.663   4.554
42174W        W 7159  28.488  36.475  13.199
42175W        W 7160  35.386  29.958  13.071
42176W        W 7161   9.567   3.927  11.552
42177W        W 7162   9.425   2.869   2.317
42178W        W 7163  16.303  34.898   1.139
42179W        W 7164  36.609  25.460   1.346
42180W        W 7165   9.677  19.694  13.347
42181W        W 7166  10.199   3.018   3.323
42182W        W 7167  44.410   2.486  10.599
42183W        W 7168  18.204  12.324   3.313
42184W        W 7169  19.180  28.520   5.500
42185W        W 7170  20.766  22.573  12.025
42186W        W 7171   9.961   6.695  12.532
42187W        W 7172  23.431  30.087   2.143
42188W        W 7173  33.345  18.006  10.217
42189W        W 7174  30.065   5.592  14.455
42190W        W 7175  22.075  26.485  10.478
42191W        W 7176  39.986  10.738  11.172
42192W        W 7177  22.546  38.936   1.943
42193W        W 7178  26.219  22.090  12.195
42194W        W 7179  40.321  11.120   1.349
42195W        W 7180  13.316  44.721   2.264
42196W        W 7181  21.316   0.023   1.875
42197W        W 7182  34.572  34.112   2.399
42198W        W 7183  28.832  15.096  13.835
42199W        W 7184  43.334  44.089  14.005
42200W        W 7185   7.664  16.966  12.990
42201W        W 7186  19.745   0.938   2.262
42202W        W 7187  28.456  30.081  14.387
42203W        W 7188  33.131  20.017   3.663
42204W        W 7189  10.668   2.050  13.680
42205W        W 7190  17.103  20.185   4.607
42206W        W 7191  18.738  16.524  12.350
42207W        W 7192   7.380  31.429   2.557
42208W        W 7193   3.700  44.159   4.140
42209W        W 7194  22.724  15.226  12.018
42210W        W 7195  30.684  16.687   4.217
42211W        W 7196   7.369  17.599  14.957
42212W        W 7197  15.597  15.756   2.330
42213W        W 7198   0.337   6.530   3.353
42214W        W 7199  18.171   2.688  12.872
42215W        W 7200  21.851   0.471   3.941
42216W        W 7201  25.177   9.408  10.704
42217W        W 7202  35.412  11.398   0.380
42218W        W 7203  15.340  19.588   2.645
42219W        W 7204  33.721  13.846  10.969
42220W        W 7205  27.018  39.526   0.981
42221W        W 7206  14.056  33.069  11.142
42222W        W 7207  12.561  27.541   1.491
42223W        W 7208  24.160  26.671  13.981
42224W        W 7209  10.278  40.233  11.886
42225W        W 7210  12.382  28.168  13.039
42226W        W 7211   2.304  26.075   4.190
42227W        W 7212  31.802  43.556   1.612
42228W        W 7213  30.793  21.996  13.473
42229W        W 7214  16.465  34.125   2.109
42230W        W 7215  15.664  25.429   4.944
42231W        W 7216   5.419  28.530   4.535
42232W        W 7217  41.023  19.423  12.552
42233W        W 7218  29.612  27.908   2.838
42234W        W 7219  22.948  15.808  10.704
42235W        W 7220  28.997  19.173  14.338
42236W        W 7221  30.346  22.170   0.982
42237W        W 7222  16.057  29.107   2.166
42238W        W 7223  27.546   9.206   1.013
42239W        W 7224  12.350  35.853  13.818
42240W        W 7225   3.965   7.837   4.091
42241W        W 7226   4.792  29.735   2.803
42242W        W 7227  29.325  31.193  14.093
42243W        W 7228  35.692  29.472   4.206
42244W        W 7229  28.649  33.421   1.252
42245W        W 7230  39.949  26.652  13.486
42246W        W 7231  30.642  19.286   1.391
42247W        W 7232  28.444  24.523  12.427
42248W        W 7233   4.922  40.991  11.419
42249W        W 7234   3.403  33.666  10.448
42250W        W 7235  19.198  39.929   1.881
42251W        W 7236  42.684  22.593  14.564
42252W        W 7237  11.817  23.231   1.428
42253W        W 7238  39.877  30.139  14.260
42254W        W 7239  33.572   9.443   0.769
42255W        W 7240  36.620   9.625   3.238
42256W        W 7241   4.428  25.035  11.938
42257W        W 7242  37.197  21.108  11.041
42258W        W 7243  29.422  42.835   5.155
42259W        W 7244  38.299   2.018  10.601
42260W        W 7245  40.400  44.132  13.962
42261W        W 7246  24.694  26.959   3.423
42262W        W 7247  21.606  37.684  13.845
42263W        W 7248  42.443  10.926   2.204
42264W        W 7249  20.284  30.576  14.942
42265W        W 7250  35.560  22.531  14.672
42266W        W 7251   1.875  15.233   1.946
42267W        W 7252  20.565  32.154  11.194
42268W        W 7253  20.942  34.091  10.624
42269W        W 7254   0.995  17.108   0.448
42270W        W 7255  44.225  30.501  10.431
42271W        W 7256  29.578  18.639  10.704
42272W        W 7257  39.740  23.467  11.129
42273W        W 7258   9.240  34.600   1.351
42274W        W 7259  19.968  31.036  11.611
42275W        W 7260  21.506   6.893  12.610
42276W        W 7261  23.034   2.964   3.916
42277W        W 7262  11.697  13.320  14.531
42278W        W 7263  34.776  18.104  10.716
42279W        W 7264   5.951  40.692  10.782
42280W        W 7265  34.403  23.635   4.237
42281W        W 7266  33.531  14.272   1.277
42282W        W 7267   4.665  23.631  13.012
42283W        W 7268  42.408  16.239  12.088
42284W        W 7269  23.220  10.051  14.531
42285W        W 7270  41.201   9.893   3.035
42286W        W 7271  41.236   0.248   3.410
42287W        W 7272   5.819  16.120  12.888
42288W        W 7273  23.217  16.249  10.709
42289W        W 7274   0.076  22.639  12.052
42290W        W 7275  44.065   8.441  11.765
42291W        W 7276  29.671  35.913  12.961
42292W        W 7277  43.335  20.542  14.520
42293W        W 7278  22.616  13.196   3.224
42294W        W 7279   3.439  43.439  13.284
42295W        W 7280  25.264  20.033   2.169
42296W        W 7281  21.771  29.602   1.991
42297W        W 7282  17.495   3.361  12.149
42298W        W 7283   3.112  35.653  11.189
42299W        W 7284  16.642  39.726  14.486
42300W        W 7285   8.686   2.415   3.184
42301W        W 7286  44.690   1.631  13.082
42302W        W 7287  24.197  23.024  10.949
42303W        W 7288  13.054   4.161   2.860
42304W        W 7289   1.400  36.527   2.697
42305W        W 7290  44.795  14.679   0.747
42306W        W 7291  16.557  22.368  12.983
42307W        W 7292  38.525   5.721   0.712
42308W        W 7293  36.840  44.987  12.255
42309W        W 7294  42.241  24.423   3.153
42310W        W 7295  25.630   5.905   1.817
42311W        W 7296  27.616  12.884  13.925
42312W        W 7297  29.161   4.042  11.622
42313W        W 7298  38.882  18.223  14.832
42314W        W 7299   1.969   9.601  14.293
42315W        W 7300   8.783  30.784   4.897
42316W        W 7301  22.622  41.335  12.573
42317W        W 7302  36.818  18.238  13.793
42318W        W 7303  18.491  38.528   4.599
42319W        W 7304  14.708  20.237   0.444
42320W        W 7305  25.887  18.170   3.768
42321W        W 7306  10.822  41.615  14.417
42322W        W 7307  13.573  26.762  13.559
42323W        W 7308   3.956   3.192  11.514
42324W        W 7309   0.472  21.547  14.012
42325W        W 7310  34.622  20.225  11.978
42326W        W 7311  34.687  35.016  13.848
42327W        W 7312  38.588  22.500   1.214
42328W        W 7313  11.864  35.672  13.848
42329W        W 7314  18.029   8.300  12.482
42330W        W 7315  22.473  16.167   1.351
42331W        W 7316  42.855  24.186  14.402
42332W        W 7317  32.299  11.963  13.019
42333W        W 7318  23.515  24.777   2.715
42334W        W 7319  11.822  13.350   0.432
42335W        W 7320  11.324  32.947   4.510
42336W        W 7321  43.706  28.051   1.480
42337W        W 7322   3.420  39.431  12.271
42338W        W 7323  38.267  13.940   2.444
42339W        W 7324  39.865   2.679   3.273
42340W        W 7325  35.404  25.149   1.336
42341W        W 7326  40.474  10.125  10.501
42342W        W 7327   0.192  36.377  10.431
42343W        W 7328   6.834   0.204   2.017
42344W        W 7329   3.699  31.555  13.844
42345W        W 7330  22.805  10.105   2.756
42346W        W 7331  23.672  44.336   0.707
42347W        W 7332   5.751  41.290   2.864
42348W        W 7333  26.637   9.987  10.806
42349W        W 7334  21.644   3.955   2.950
42350W        W 7335  39.762  42.125  10.627
42351W        W 7336  34.874  23.151   4.912
42352W        W 7337  44.311   5.681   0.787
42353W        W 7338  27.642  21.703   3.745
42354W        W 7339  10.093  41.927   0.821
42355W        W 7340  43.433   4.203  14.246
42356W        W 7341  43.789   4.171   2.641
42357W        W 7342  16.995  39.990   3.688
42358W        W 7343  23.137  25.434  11.454
42359W        W 7344  38.835   0.822  14.711
42360W        W 7345  28.212  13.868  14.389
42361W        W 7346   0.793  18.374   1.343
42362W        W 7347  40.580  34.676   2.739
42363W        W 7348  39.821  39.909   0.743
42364W        W 7349   7.348  17.053  14.268
42365W        W 7350  13.227  33.362   0.316
42366W        W 7351  31.127   0.881   0.932
42367W        W 7352  21.418  17.307   0.292
42368W        W 7353   3.351   7.312  12.264
42369W        W 7354   8.383  40.619   3.402
42370W        W 7355  24.799  36.367  13.777
42371W        W 7356  23.057  27.163   1.684
42372W        W 7357  21.121   2.638  11.543
42373W        W 7358  29.397  43.197   1.746
42374W        W 7359   4.439  39.373  12.078
42375W        W 7360   2.817  41.155   2.393
42376W        W 7361  17.692   8.195  13.491
42377W        W 7362   7.292   2.360  10.769
42378W        W 7363  40.432  11.284   0.862
42379W        W 7364  13.686  38.848  14.013
42380W        W 7365   5.197  28.495   4.077
42381W        W 7366  20.928   2.505  14.789
42382W        W 7367  35.157   5.811  14.898
42383W        W 7368  38.383   3.414  13.456
42384W        W 7369   2.745  20.248  12.859
42385W        W 7370   5.855  22.363  14.381
42386W        W 7371  40.446  38.519  11.992
42387W        W 7372  10.861  24.333   4.382
42388W        W 7373  20.288  18.379  13.925
42389W        W 7374   7.379   7.266  10.491
42390W        W 7375  26.422  12.569   3.114
42391W        W 7376  34.455  27.922   2.705
42392W        W 7377   1.408  27.621  14.074
42393W        W 7378  14.562  25.894  13.029
42394W        W 7379  23.112   1.113  14.568
42395W        W 7380  11.587  25.177  14.814
42396W        W 7381  36.356  27.484   0.271
42397W        W 7382  25.558  17.961  10.530
42398W        W 7383  40.894  19.508  11.251
42399W        W 7384  10.060  26.171  14.983
42400W        W 7385  34.184   0.020  14.014
42401W        W 7386   7.189   9.831   5.001
42402W        W 7387  14.027  44.923   3.239
42403W        W 7388   3.259   8.495   4.063
42404W        W 7389  44.132  39.031   3.658
42405W        W 7390   7.726  25.514  13.095
42406W        W 7391  35.405  22.588   4.559
42407W        W 7392  39.541  20.264   3.805
42408W        W 7393   4.614  12.258   4.199
42409W        W 7394  39.310  17.659   0.852
42410W        W 7395  43.350  27.443  11.592
42411W        W 7396  10.430  13.249   1.293
42412W        W 7397  29.139  42.879  13.701
42413W        W 7398  30.636  43.664   2.897
42414W        W 7399  13.351  29.286  11.955
42415W        W 7400  25.659  21.134  14.847
42416W        W 7401  10.366   5.930   0.903
42417W        W 7402  12.366  32.853   1.448
42418W        W 7403   3.957   6.950  13.929
42419W        W 7404  34.193  41.505  12.992
42420W        W 7405   1.766  15.219   2.861
42421W        W 7406   9.595  12.281  11.568
42422W        W 7407   6.501  38.078   1.759
42423W        W 7408  23.042  32.385   4.082
42424W        W 7409  43.921   8.584  13.042
42425W        W 7410   5.783  24.030  11.485
42426W        W 7411  33.257  29.596   2.682
42427W        W 7412  40.707  30.525  11.659
42428W        W 7413  20.400  16.916   9.811
42429W        W 7414  16.848  27.120  12.556
42430W        W 7415  34.001  11.187   4.200
42431W        W 7416   0.226   0.755   0.181
42432W        W 7417  10.830  40.437   2.847
42433W        W 7418  26.635  15.260  11.124
42434W        W 7419  14.449   0.981   1.809
42435W        W 7420   6.261   1.360  12.497
42436W        W 7421  27.514  11.171   3.589
42437W        W 7422  28.662   9.950  10.612
42438W        W 7423  40.863  17.578  12.464
42439W        W 7424  16.094   0.350   0.999
42440W        W 7425  22.962  21.474  13.860
42441W        W 7426   9.054  14.336   1.282
42442W        W 7427  29.047  35.673  14.509
42443W        W 7428   9.769  42.715  13.434
42444W        W 7429   5.337  30.963  14.699
42445W        W 7430  14.933  11.604  11.130
42446W        W 7431  13.085   9.772   0.297
42447W        W 7432  40.781  39.533   1.384
42448W        W 7433  27.762  21.207  13.369
42449W        W 7434  25.992  24.089   1.301
42450W        W 7435   7.374  22.112   1.875
42451W        W 7436   3.558  39.349  12.757
42452W        W 7437   8.425   9.686  13.967
42453W        W 7438  43.039  25.532   2.390
42454W        W 7439  25.087  16.250   2.009
42455W        W 7440  23.909   0.505   1.462
42456W        W 7441   6.952  33.982   2.217
42457W        W 7442  26.544  33.442  12.240
42458W        W 7443  37.222   3.559   4.154
42459W        W 7444   6.639   3.103  11.124
42460W        W 7445  24.573  33.388   2.762
42461W        W 7446  24.592  40.852   1.748
42462W        W 7447  33.358  28.398   0.830
42463W        W 7448   3.764   9.257  12.930
42464W        W 7449  28.009  28.693  13.531
42465W        W 7450   9.848  22.295   1.728
42466W        W 7451  37.069   7.130   2.262
42467W        W 7452  24.231  35.440  14.720
42468W        W 7453  27.864  25.885   3.709
42469W        W 7454  15.376  42.793  13.276
42470W        W 7455  12.645  22.948   0.141
42471W        W 7456  34.425  28.475  11.022
42472W        W 7457  42.523  15.002   3.801
42473W        W 7458  44.263  41.028  14.047
42474W        W 7459   3.516  20.107   2.044
42475W        W 7460  31.079  36.944  13.885
42476W        W 7461   2.472  42.999   1.030
42477W        W 7462  38.619   2.919  10.316
42478W        W 7463  14.556  39.364  11.468
42479W        W 7464  43.767  36.294   1.716
42480W        W 7465  42.823   9.844  14.969
42481W        W 7466  43.770  20.129   0.376
42482W        W 7467  19.124  37.813  10.615
42483W        W 7468  41.727  24.411   3.249
42484W        W 7469  31.069   2.515  14.443
42485W        W 7470  16.152  39.764  14.263
42486W        W 7471  14.716   6.442  14.076
42487W        W 7472  34.092  24.188  13.321
42488W        W 7473  31.617  22.583   2.214
42489W        W 7474  39.360  13.947   4.227
42490W        W 7475  34.877  38.627   4.661
42491W        W 7476  13.859  25.919  13.493
42492W        W 7477  17.985   1.985   0.929
42493W        W 7478  43.807  19.284   2.780
42494W        W 7479  12.968  30.061  10.983
42495W        W 7480  19.411  22.164   4.878
42496W        W 7481  41.268  23.549   4.613
42497W        W 7482  18.962  23.158   1.213
42498W        W 7483  23.550  10.194  11.739
42499W        W 7484  38.796  36.252  14.293
42500W        W 7485  19.764  35.317  13.049
42501W        W 7486   4.804  36.965  12.093
42502W        W 7487  29.385  43.366  12.942
42503W        W 7488  28.604  42.523   4.570
42504W        W 7489  35.966  23.241  11.133
42505W        W 7490  42.996  36.362   2.123
42506W        W 7491  23.647   7.420   0.237
42507W        W 7492   3.465  40.048   1.568
42508W        W 7493  27.178  31.919  13.448
42509W        W 7494  21.671  22.121  12.914
42510W        W 7495  40.493  42.895   3.081
42511W        W 7496  24.765  11.631   1.233
42512W        W 7497   4.369  37.644   4.984
42513W        W 7498  31.609  23.366  12.947
42514W        W 7499  26.517  14.362   4.390
42515W        W 7500  25.997  32.701   2.672
42516W        W 7501   3.409  14.637  10.716
42517W        W 7502   8.679  21.256  12.146
42518W        W 7503  37.332  28.008  13.937
42519W        W 7504  23.265  18.153   0.732
42520W        W 7505  43.441   3.862   2.879
42521W        W 7506  28.664  36.376  12.098
42522W        W 7507  37.556  42.046  12.091
42523W        W 7508   0.543  22.809   1.177
42524W        W 7509  43.447  14.366  14.967
42525W        W 7510  37.524   1.266   4.816
42526W        W 7511  36.597  44.159   2.862
42527W        W 7512  22.493  34.411   0.520
42528W        W 7513  43.870  21.158  12.624
42529W        W 7514   5.566   5.199   3.119
42530W        W 7515  38.679  32.022   4.630
42531W        W 7516  23.224  30.659  12.098
42532W        W 7517   3.872   8.922  13.969
42533W        W 7518  21.335  34.878  11.139
42534W        W 7519  27.022  13.770  13.125
42535W        W 7520  43.006  11.743  12.581
42536W        W 7521   8.698  35.428  10.902
42537W        W 7522  41.599   0.741   2.765
42538W        W 7523  15.249  18.826  12.840
42539W        W 7524  22.393  12.853  11.622
42540W        W 7525   9.269  30.945   0.274
42541W        W 7526  15.138   8.420  13.423
42542W        W 7527  22.507  28.528   3.739
42543W        W 7528   3.633  40.534   0.281
42544W        W 7529  34.939   6.905   3.280
42545W        W 7530  36.412  39.535   1.408
42546W        W 7531  38.416  27.972  14.019
42547W        W 7532  17.302  38.376  10.571
42548W        W 7533   0.912  34.958   4.165
42549W        W 7534  11.632  14.206  13.514
42550W        W 7535  14.571  11.084   0.925
42551W        W 7536   0.704  43.285  13.952
42552W        W 7537  15.149  40.275   2.229
42553W        W 7538  25.985  32.833  14.409
42554W        W 7539  34.385  20.774  12.647
42555W        W 7540   8.478  15.652   2.905
42556W        W 7541  35.074  27.443  11.560
42557W        W 7542  23.128  23.937  12.952
42558W        W 7543   6.797  33.146  13.358
42559W        W 7544  23.525  12.100  13.568
42560W        W 7545  22.624  20.501   3.176
42561W        W 7546  25.008  24.278   2.961
42562W        W 7547  24.757  12.782  14.786
42563W        W 7548  37.965  10.800  10.276
42564W        W 7549  39.394  13.600   3.741
42565W        W 7550   9.716   0.731   4.189
42566W        W 7551  22.622  40.279  11.582
42567W        W 7552   5.466  22.252   0.793
42568W        W 7553  36.408  16.007   3.732
42569W        W 7554  18.475  23.524   1.968
42570W        W 7555  42.975   8.681  12.975
42571W        W 7556  44.221  28.257  14.836
42572W        W 7557  28.478   4.404   0.641
42573W        W 7558  43.837   9.822  11.647
42574W        W 7559   2.563  10.431  12.570
42575W        W 7560  27.628   3.963   0.247
42576W        W 7561   3.707  28.146   1.213
42577W        W 7562  16.111  17.826   3.356
42578W        W 7563  26.857  44.690  13.117
42579W        W 7564  38.475  22.195   3.686
42580W        W 7565  30.487   7.146  14.870
42581W        W 7566  18.244  12.869   1.099
42582W        W 7567  10.472  37.909  14.722
42583W        W 7568  10.300  27.938   3.121
42584W        W 7569  44.841  16.775   3.270
42585W        W 7570   6.228  31.980   4.976
42586W        W 7571  35.519  28.655   4.489
42587W        W 7572   7.703   2.228   2.920
42588W        W 7573  11.306  28.126   0.678
42589W        W 7574  37.538   3.038  13.132
42590W        W 7575  26.282  40.790  12.072
42591W        W 7576   0.861   8.477  10.693
42592W        W 7577  19.637  42.328  11.236
42593W        W 7578  23.987  33.427  13.486
42594W        W 7579  27.399   9.630  12.950
42595W        W 7580  11.757  25.591  11.021
42596W        W 7581  16.165  24.922  12.564
42597W        W 7582   1.956  40.078   1.875
42598W        W 7583  39.455  30.378  14.654
42599W        W 7584  44.974   1.760  10.892
42600W        W 7585  18.266  17.493  11.551
42601W        W 7586   3.938  16.407   3.340
42602W        W 7587  37.564  22.774   0.502
42603W        W 7588  43.755   3.139  14.387
42604W        W 7589  28.439   2.479  13.494
42605W        W 7590  17.667  28.644  13.375
42606W        W 7591  35.327   2.725   2.921
42607W        W 7592  13.633  29.049   0.444
42608W        W 7593  38.387  27.674  14.492
42609W        W 7594  41.497   7.217   0.376
42610W        W 7595  44.964  12.809   3.636
42611W        W 7596   3.892  13.606  11.534
42612W        W 7597  34.987  26.997   0.660
42613W        W 7598  13.179  29.264  10.698
42614W        W 7599  27.270  16.304  12.054
42615W        W 7600  30.854  19.077   2.761
42616W        W 7601  13.253  22.327   0.507
42617W        W 7602   0.680  12.920  14.485
42618W        W 7603  16.663  26.031   0.902
42619W        W 7604  17.049   2.519  10.543
42620W        W 7605  23.760  25.755   2.815
42621W        W 7606  12.791  10.304  12.585
42622W        W 7607  37.249  43.011   4.910
42623W        W 7608   9.479   2.875   0.884
42624W        W 7609  16.984  11.975  11.139
42625W        W 7610  29.957  43.852  14.556
42626W        W 7611  24.031  32.928  13.395
42627W        W 7612  33.624  16.285  11.774
42628W        W 7613  26.620  37.793   0.877
42629W        W 7614  22.617  35.531   3.668
42630W        W 7615  23.835  26.422   3.310
42631W        W 7616   8.324   8.137  12.571
42632W        W 7617  20.237  10.655  14.021
42633W        W 7618  23.259  35.878   3.405
42634W        W 7619  33.380   3.947  13.859
42635W        W 7620  34.415  39.818   1.088
42636W        W 7621  24.730  26.202   4.300
42637W        W 7622  19.695   9.834   0.740
42638W        W 7623  25.487  27.691  14.321
42639W        W 7624  17.707  30.139  11.329
42640W        W 7625   0.730  26.454   0.753
42641W        W 7626  33.844  25.110   2.353
42642W        W 7627  32.536  29.900  13.348
42643W        W 7628  11.901  34.200   5.025
42644W        W 7629  34.821   4.484  12.522
42645W        W 7630  22.520  32.847   0.264
42646W        W 7631  25.970  33.624  11.210
42647W        W 7632   6.098  40.841   2.778
42648W        W 7633  23.500   8.208  14.782
42649W        W 7634  14.350  13.859  14.848
42650W        W 7635   5.050  20.788  12.021
42651W        W 7636  22.054   2.569  13.033
42652W        W 7637  30.621  11.447  11.058
42653W        W 7638  38.112  31.495  12.655
42654W        W 7639   2.266  22.255   0.839
42655W        W 7640  44.464  15.762  12.562
42656W        W 7641  13.227  27.400   4.109
42657W        W 7642  34.382  44.411  12.434
42658W        W 7643  41.880   8.316   1.527
42659W        W 7644  13.725  21.196  12.036
42660W        W 7645   9.853  22.011   4.055
42661W        W 7646   4.867  11.392  10.047
42662W        W 7647  15.511  22.263  14.808
42663W        W 7648  43.471  39.294   1.620
42664W        W 7649  13.892  40.468   4.791
42665W        W 7650  20.260  15.889  14.821
42666W        W 7651  32.695  16.343  12.023
42667W        W 7652  34.618  22.794  14.345
42668W        W 7653   7.938  34.800  14.760
42669W        W 7654  41.090   9.479  12.044
42670W        W 7655  23.120  40.439  12.722
42671W        W 7656  28.396   8.870   1.839
42672W        W 7657  44.908  17.454   4.158
42673W        W 7658   9.222  15.867  12.431
42674W        W 7659   2.173  10.323  13.403
42675W        W 7660  30.620  24.384   3.085
42676W        W 7661  39.919  34.614  12.436
42677W        W 7662  37.620   2.028  13.158
42678W        W 7663  14.608  14.226  12.665
42679W        W 7664   8.490  14.209   5.114
42680W        W 7665  35.554   5.071  12.440
42681W        W 7666  36.672  12.411   1.696
42682W        W 7667  17.068  38.984   0.292
42683W        W 7668  24.482  38.889   3.353
42684W        W 7669  43.827   4.464   3.067
42685W        W 7670  22.233  21.425  12.148
42686W        W 7671   6.645  30.407  12.093
42687W        W 7672  11.933   1.746  13.108
42688W        W 7673  30.337  16.331  13.077
42689W        W 7674  17.192  40.937   1.037
42690W        W 7675   2.716  34.469   1.271
42691W        W 7676  24.959  42.451  13.925
42692W        W 7677   4.489  25.083  13.975
42693W        W 7678  19.293  41.914   4.156
42694W        W 7679  21.369  44.900  14.503
42695W        W 7680  34.698  11.806   2.199
42696W        W 7681   6.250  37.712  12.384
42697W        W 7682   7.988  25.189  13.921
42698W        W 7683  41.318  23.102   2.278
42699W        W 7684  22.777  16.603  11.048
42700W        W 7685  24.402  34.433  10.573
42701W        W 7686  26.949   0.887  14.763
42702W        W 7687  12.175  34.078   2.714
42703W        W 7688   9.348  34.285   3.723
42704W        W 7689   4.754  14.611   2.201
42705W        W 7690   3.182  36.612   2.211
42706W        W 7691  24.196  20.544  12.539
42707W        W 7692  38.346  34.363   1.838
42708W        W 7693   8.711  27.211  12.636
42709W        W 7694  18.949  15.833   3.519
42710W        W 7695   6.887  26.345  14.464
42711W        W 7696   5.257  38.288  13.394
42712W        W 7697   4.732  24.094   0.942
42713W        W 7698  39.223  29.082   0.206
42714W        W 7699   6.712  20.200  11.455
42715W        W 7700  14.445  31.065   0.650
42716W        W 7701   9.462   6.423  10.751
42717W        W 7702  13.187   2.723   0.258
42718W        W 7703  33.901  25.623  11.958
42719W        W 7704  30.679   8.577  12.101
42720W        W 7705  38.430   5.324   0.398
42721W        W 7706  21.131  21.798   1.204
42722W        W 7707  25.128  23.112   2.815
42723W        W 7708  31.167  22.569   3.133
42724W        W 7709  26.084  12.135   4.932
42725W        W 7710  35.784  18.928   5.299
42726W        W 7711  14.470  33.561   2.246
42727W        W 7712  35.714  37.584  11.989
42728W        W 7713  44.704  19.794  10.303
42729W        W 7714  14.788  34.359   2.848
42730W        W 7715  29.634   9.589  11.627
42731W        W 7716  35.557  41.737   2.800
42732W        W 7717  20.683   6.175   0.879
42733W        W 7718  26.005  33.131  13.056
42734W        W 7719  23.706   2.246  12.440
42735W        W 7720  32.443  42.524   4.609
42736W        W 7721  19.810  25.226   5.047
42737W        W 7722  28.753  30.007  13.463
42738W        W 7723  10.249  16.590  12.612
42739W        W 7724  14.303  25.635  13.455
42740W        W 7725   4.690  37.100   2.044
42741W        W 7726  43.681   4.196  13.349
42742W        W 7727  42.086  16.712   0.922
42743W        W 7728  11.639  38.131  10.293
42744W        W 7729   7.969   6.826   3.648
42745W        W 7730  22.728  10.095   1.803
42746W        W 7731  22.333  35.740  11.895
42747W        W 7732  23.772  34.901   1.257
42748W        W 7733  25.404   7.292  12.954
42749W        W 7734  16.047   3.240  10.637
42750W        W 7735   4.870  10.376  11.151
42751W        W 7736  37.460  34.862   0.821
42752W        W 7737  10.780  16.923   2.760
42753W        W 7738  25.841   0.735   3.205
42754W        W 7739  16.591  36.090  14.805
42755W        W 7740  23.514   5.172  14.527
42756W        W 7741   6.428  15.272   3.301
42757W        W 7742  37.096  41.917   2.698
42758W        W 7743  11.872  22.068   1.868
42759W        W 7744  41.617  31.080  11.148
42760W        W 7745  41.682  34.945   2.200
42761W        W 7746  39.359  14.530  14.024
42762W        W 7747  15.964  18.339  14.343
42763W        W 7748  29.443   9.807  12.052
42764W        W 7749   2.185  35.539   3.197
42765W        W 7750  27.265  41.492   4.151
42766W        W 7751  35.516  38.061  13.450
42767W        W 7752  34.218  11.253  12.382
42768W        W 7753  33.093  43.365   2.791
42769W        W 7754  19.100   4.996   0.449
42770W        W 7755  22.022   4.353  13.541
42771W        W 7756  31.200  11.338  14.433
42772W        W 7757   7.548  20.293   4.150
42773W        W 7758  26.266  41.477   1.389
42774W        W 7759  11.254  11.121   4.874
42775W        W 7760  38.317  22.508  11.613
42776W        W 7761  40.483  12.093  10.503
42777W        W 7762   6.374  40.906   4.582
42778W        W 7763   3.549  18.775  12.384
42779W        W 7764   7.118  44.238  14.338
42780W        W 7765   4.233  41.458  11.516
42781W        W 7766   5.236  32.872   4.121
42782W        W 7767  11.769  15.705  11.310
42783W        W 7768  18.699  14.883   2.874
42784W        W 7769   7.174   3.190   2.233
42785W        W 7770  33.407  28.741  11.257
42786W        W 7771  13.827  13.219   4.652
42787W        W 7772  15.109  23.707  13.457
42788W        W 7773  29.602   5.286  10.649
42789W        W 7774  44.794  32.321  13.339
42790W        W 7775  16.262  37.996   1.196
42791W        W 7776   9.206  15.154  13.675
42792W        W 7777  11.353  17.277   1.942
42793W        W 7778   5.351  40.098   1.235
42794W        W 7779  43.399  40.886  13.507
42795W        W 7780   9.584   9.269  13.961
42796W        W 7781  13.600  35.675   0.349
42797W        W 7782  14.094   4.908  14.302
42798W        W 7783   1.988  35.686  11.678
42799W        W 7784  23.102  32.357   3.036
42800W        W 7785  14.400  35.865  11.629
42801W        W 7786  23.210  34.489  11.877
42802W        W 7787  23.456  37.483  12.450
42803W        W 7788  41.929  39.299  14.717
42804W        W 7789  37.592   6.890   3.115
42805W        W 7790  25.172   1.251   3.478
42806W        W 7791  39.468  14.150   3.770
42807W        W 7792  25.499  30.907   1.842
42808W        W 7793  26.663  39.342  11.053
42809W        W 7794  43.970  26.749   2.952
42810W        W 7795  32.439  25.150   3.315
42811W        W 7796  31.068   1.969   1.189
42812W        W 7797   5.681  43.884   0.739
42813W        W 7798  23.793  12.692  11.544
42814W        W 7799  12.501  39.827   3.025
42815W        W 7800  39.393  16.025   3.235
42816W        W 7801   0.772  10.213   4.947
42817W        W 7802  31.325  38.968  14.926
42818W        W 7803  25.667  38.954  11.122
42819W        W 7804  41.985   6.236  14.365
42820W        W 7805  10.409  39.003  10.977
42821W        W 7806  32.688  37.792  12.894
42822W        W 7807   7.388   9.843   3.464
42823W        W 7808  18.264  37.285   3.071
42824W        W 7809  14.917  11.449  12.548
42825W        W 7810  40.823  40.914   0.679
42826W        W 7811  29.077  14.190  12.128
42827W        W 7812  28.436   1.677   3.612
42828W        W 7813  32.003   7.875   0.851
42829W        W 7814  34.174   5.952  10.211
42830W        W 7815  43.834  44.321   0.720
42831W        W 7816   7.866  10.285   1.943
42832W        W 7817  22.234   8.652  14.933
42833W        W 7818  18.353   7.009  14.250
42834W        W 7819  20.076  25.073  11.903
42835W        W 7820  40.982  13.692   3.375
42836W        W 7821   2.888   3.262  12.071
42837W        W 7822  37.104  38.844   4.310
42838W        W 7823   0.269  33.335   4.193
42839W        W 7824  39.067  22.232  12.071
42840W        W 7825  17.299  34.617  12.441
42841W        W 7826  21.132  33.528   3.917
42842W        W 7827   8.475  31.053   0.765
42843W        W 7828   6.362   1.760  11.066
42844W        W 7829   5.064  41.004   2.729
42845W        W 7830  28.108  22.707   1.698
42846W        W 7831  12.318  42.016   0.833
42847W        W 7832  35.548  14.609   1.862
42848W        W 7833  33.088  28.030  14.276
42849W        W 7834   2.561   5.119   1.696
42850W        W 7835   8.174   2.153  12.963
42851W        W 7836   6.062  24.803   0.389
42852W        W 7837  43.554  44.489   2.725
42853W        W 7838  43.017  27.090   1.765
42854W        W 7839  43.488  18.337   4.744
42855W        W 7840  21.699   6.736  14.014
42856W        W 7841  41.821  24.227  12.585
42857W        W 7842  23.048   5.083  14.826
42858W        W 7843  21.077  24.277  12.748
42859W        W 7844  31.639  34.489   2.447
42860W        W 7845  25.948  18.146   3.230
42861W        W 7846  27.088  41.110  11.619
42862W        W 7847   2.697   1.845  11.669
42863W        W 7848  12.820  14.052  12.843
42864W        W 7849   3.201  24.956   4.358
42865W        W 7850  29.047  44.500  12.085
42866W        W 7851  34.986  29.512  11.636
42867W        W 7852   8.530  35.475   4.626
42868W        W 7853  23.912  13.103  13.884
42869W        W 7854   8.924  44.872   3.212
42870W        W 7855  37.451  12.181   1.419
42871W        W 7856  32.513   2.281  10.404
42872W        W 7857  30.429  39.331  13.794
42873W        W 7858  22.626  25.037  10.703
42874W        W 7859  29.479  23.675  13.381
42875W        W 7860   9.816  31.057   4.665
42876W        W 7861  34.830  17.985   1.454
42877W        W 7862   0.429  39.937  11.593
42878W        W 7863   0.275  21.607  12.005
42879W        W 7864   3.271  11.865  10.822
42880W        W 7865  22.718  21.425   0.885
42881W        W 7866  12.294  22.359  11.087
42882W        W 7867  33.619  41.912  13.954
42883W        W 7868  24.089  13.062   2.955
42884W        W 7869  19.549   4.130   0.400
42885W        W 7870  15.078  14.265   1.104
42886W        W 7871  20.811   0.600  14.433
42887W        W 7872  24.267  27.693   0.965
42888W        W 7873  30.598  32.934  13.432
42889W        W 7874  27.509  25.517  10.417
42890W        W 7875  19.444  11.201  14.304
42891W        W 7876   5.772  15.812   0.057
42892W        W 7877  30.553  39.835  12.104
42893W        W 7878  30.573  12.457  10.529
42894W        W 7879  33.072  18.255  11.526
42895W        W 7880  26.479  38.624  14.009
42896W        W 7881  19.669  25.461   0.587
42897W        W 7882  37.566   6.829  13.586
42898W        W 7883  32.179  44.187  11.419
42899W        W 7884  36.400  28.258  11.626
42900W        W 7885  14.516  38.591  11.721
42901W        W 7886  38.394  31.103  13.586
42902W        W 7887  35.538  41.505   0.040
42903W        W 7888  42.521  13.730  11.965
42904W        W 7889   0.948   0.647  13.979
42905W        W 7890  33.394   7.288  13.262
42906W        W 7891  22.247   3.825  12.296
42907W        W 7892  20.688  27.934  11.443
42908W        W 7893  41.957  34.025   1.882
42909W        W 7894  26.955  30.530  13.351
42910W        W 7895   6.341   0.045  14.268
42911W        W 7896  27.138   2.924  14.666
42912W        W 7897  35.572  24.455  10.984
42913W        W 7898  29.669  26.987   4.092
42914W        W 7899  36.125   0.278   2.460
42915W        W 7900   8.304  24.763  13.863
42916W        W 7901  30.024  15.254   4.013
42917W        W 7902  13.221  19.024  13.853
42918W        W 7903  16.130   4.843   2.253
42919W        W 7904  40.430  22.661  14.030
42920W        W 7905   8.703  25.264  14.900
42921W        W 7906  21.450  32.101  14.388
42922W        W 7907   3.648   6.240   0.317
42923W        W 7908  32.320  23.107   4.680
42924W        W 7909  17.719   4.216   1.803
42925W        W 7910  19.869  26.151   1.736
42926W        W 7911  28.684  15.482   2.428
42927W        W 7912  17.340  28.118   1.438
42928W        W 7913  13.177  21.978  12.919
42929W        W 7914  36.909  16.035   3.857
42930W        W 7915  31.442  33.574  14.428
42931W        W 7916  26.093  42.370   0.831
42932W        W 7917  25.450  42.315   2.710
42933W        W 7918  42.670  10.033  11.145
42934W        W 7919  38.759   7.470  11.431
42935W        W 7920  24.150  23.050  12.979
42936W        W 7921  36.419  30.272  14.994
42937W        W 7922  28.863  39.582  14.998
42938W        W 7923  30.576  30.918   4.629
42939W        W 7924   5.682  10.967   1.657
42940W        W 7925  12.101  25.093   2.273
42941W        W 7926   5.809  42.792  11.616
42942W        W 7927  17.213   1.078   3.042
42943W        W 7928  37.013   5.523  11.855
42944W        W 7929   7.185   7.973  13.029
42945W        W 7930  40.535   5.876   2.614
42946W        W 7931  21.510   7.640   4.062
42947W        W 7932  20.931  16.647   3.788
42948W        W 7933  31.648  30.497   1.350
42949W        W 7934  19.615   9.567   2.656
42950W        W 7935  11.326  13.307   1.223
42951W        W 7936   9.743   3.367  13.548
42952W        W 7937  35.919   6.167   1.770
42953W        W 7938  42.798  33.309   1.928
42954W        W 7939  31.640   0.325  12.129
42955W        W 7940  22.509  13.861   4.536
42956W        W 7941   9.915  41.074   1.637
42957W        W 7942  25.687  43.080   0.959
42958W        W 7943  33.336  36.992  12.960
42959W        W 7944  25.567  18.169  13.092
42960W        W 7945  29.436  42.692   1.924
42961W        W 7946  23.900  16.654  11.938
42962W        W 7947   2.008   0.426  12.095
42963W        W 7948  44.316  37.387   4.636
42964W        W 7949  23.886  42.413  13.713
42965W        W 7950  27.060  29.639   2.250
42966W        W 7951  22.644  32.312   0.260
42967W        W 7952   8.856  17.574  14.859
42968W        W 7953  28.902  10.199   2.793
42969W        W 7954  21.867  44.769   3.269
42970W        W 7955  20.288  43.423   0.851
42971W        W 7956  19.583  14.807   3.610
42972W        W 7957  43.777   0.866  13.444
42973W        W 7958  13.319  15.189  14.748
42974W        W 7959   6.754  37.532  13.089
42975W        W 7960  17.995  42.096  12.593
42976W        W 7961  42.437  18.672   0.206
42977W        W 7962  26.691   4.215  13.965
42978W        W 7963  15.071   1.850   0.274
42979W        W 7964  35.817  13.243   4.118
42980W        W 7965  41.725  16.329  13.351
42981W        W 7966  31.655  44.841   3.126
42982W        W 7967  42.882  21.153  12.523
42983W        W 7968  33.854  16.720  10.637
42984W        W 7969   3.888  24.476   3.842
42985W        W 7970  12.557  26.411  13.498
42986W        W 7971  10.439  28.377   0.320
42987W        W 7972  32.089  30.792   2.334
42988W        W 7973   7.157   7.691  10.712
42989W        W 7974  38.942   6.341   0.860
42990W        W 7975  10.636  43.010   1.916
42991W        W 7976   4.390  25.748  14.772
42992W        W 7977  15.842  35.499   1.418
42993W        W 7978  29.300  38.962  10.839
42994W        W 7979  34.837  17.684  11.146
42995W        W 7980  20.557   6.762   2.769
42996W        W 7981  44.260  27.726  14.837
42997W        W 7982  12.853   5.907   4.120
42998W        W 7983  12.636  35.337   4.269
42999W        W 7984  23.144  14.609  12.932
43000W        W 7985  29.633  35.127   2.856
43001W        W 7986   4.399  13.309  14.530
43002W        W 7987   1.768  19.962   1.221
43003W        W 7988   5.717   4.849  14.257
43004W        W 7989   9.330  31.002   0.900
43005W        W 7990  44.468   1.791   2.710
43006W        W 7991  35.907  12.726   1.378
43007W        W 7992  20.489  21.193  14.522
43008W        W 7993   2.463  42.307   4.141
43009W        W 7994  34.291  23.805   3.765
43010W        W 7995  42.889   8.631  12.124
43011W        W 7996   9.058  23.715   1.582
43012W        W 7997  13.187  43.401  13.006
43013W        W 7998  36.890  10.879   0.734
43014W        W 7999   3.439  44.351   4.570
43015W        W 8000   6.365  23.114   1.683
43016W        W 8001   1.984   3.419   2.388
43017W        W 8002  25.206   3.886   0.036
43018W        W 8003   1.279  33.837   3.822
43019W        W 8004  30.468   5.219  12.238
43020W        W 8005  20.151   1.499  13.783
43021W        W 8006  10.748   8.905   3.662
43022W        W 8007  29.668   0.301  12.860
43023W        W 8008  13.740  42.838  12.387
43024W        W 8009  26.634   4.663  11.632
43025W        W 8010   0.415  38.975  11.130
43026W        W 8011  17.077  38.504  12.160
43027W        W 8012  10.214  30.821  12.455
43028W        W 8013  40.055   1.648  12.029
43029W        W 8014   3.433  10.264  12.346
43030W        W 8015  26.079  16.311  12.020
43031W        W 8016  33.478  16.604  14.934
43032W        W 8017  15.326  27.607   0.474
43033W        W 8018  10.360   3.971  13.541
43034W        W 8019  23.685  11.416   2.602
43035W        W 8020  25.658  25.456  11.530
43036W        W 8021  26.985  27.510   3.585
43037W        W 8022  29.501  15.399   2.837
43038W        W 8023  14.847  31.176   1.462
43039W        W 8024  19.826  38.093   0.004
43040W        W 8025  15.267  44.696   1.095
43041W        W 8026  31.400  14.273   1.143
43042W        W 8027  26.936  22.962   4.325
43043W        W 8028  29.927  20.178   4.776
43044W        W 8029   6.686   6.842   1.920
43045W        W 8030   2.001   0.408   0.610
43046W        W 8031  41.434  20.981   9.942
43047W        W 8032  31.767  14.819  12.831
43048W        W 8033   2.334  37.606  10.592
43049W        W 8034  13.543   6.351   2.585
43050W        W 8035  33.016  43.530   2.312
43051W        W 8036   1.800  18.611  14.535
43052W        W 8037  11.241  13.770  11.209
43053W        W 8038   1.264   5.395  11.998
43054W        W 8039  30.546  11.310  13.969
43055W        W 8040  29.757  38.581  14.286
43056W        W 8041  21.198   5.329   2.181
43057W        W 8042  29.391  23.225  13.133
43058W        W 8043   4.005  35.068  14.921
43059W        W 8044  18.226  13.756   0.358
43060W        W 8045  41.290  42.476  13.468
43061W        W 8046   8.721  26.332   4.917
43062W        W 8047   6.084   2.985   0.938
43063W        W 8048  17.183  13.802  13.599
43064W        W 8049  25.005  28.169   2.734
43065W        W 8050  38.101  42.746  11.597
43066W        W 8051  19.599  17.859  14.475
43067W        W 8052  10.348  11.501   4.494
43068W        W 8053  33.474  32.485   3.122
43069W        W 8054  11.898   8.296  14.064
43070W        W 8055  16.267  17.932  11.865
43071W        W 8056  24.599  42.843   5.077
43072W        W 8057  29.650  16.617  14.417
43073W        W 8058  36.198  40.021  14.502
43074W        W 8059   1.901  19.473   1.369
43075W        W 8060  40.099  44.905  11.147
43076W        W 8061  44.366  26.947   2.676
43077W        W 8062  42.371  10.867   2.730
43078W        W 8063  21.539  39.083  12.511
43079W        W 8064  36.637  13.301   3.841
43080W        W 8065  32.396  21.564  14.803
43081W        W 8066  43.843  14.622  11.123
43082W        W 8067  37.459   9.945   0.857
43083W        W 8068  23.288   3.890  13.969
43084W        W 8069  33.492  35.431  12.004
43085W        W 8070  31.778  10.598  14.608
43086W        W 8071  12.992  19.252   4.627
43087W        W 8072  30.557  21.059   5.244
43088W        W 8073  19.782  17.481   2.734
43089W        W 8074  17.660  37.109   0.686
43090W        W 8075  25.235  16.567   1.206
43091W        W 8076  44.300  19.416  11.743
43092W        W 8077  17.621  22.677  14.237
43093W        W 8078  29.483  41.808   2.357
43094W        W 8079   9.842   6.617   2.865
43095W        W 8080  34.949  11.713   9.936
43096W        W 8081  40.568  29.576  13.801
43097W        W 8082  34.444  41.820   1.897
43098W        W 8083   1.560  26.860   0.939
43099W        W 8084   5.809  14.669   1.334
43100W        W 8085  33.217  17.933   2.316
43101W        W 8086   4.525  41.430   0.810
43102W        W 8087   8.626  32.986  12.675
43103W        W 8088  25.989  23.708  13.890
43104W        W 8089  30.982  27.757   3.140
43105W        W 8090   5.662  12.797  14.705
43106W        W 8091  34.036  19.318  13.879
43107W        W 8092  14.178  11.432  12.948
43108W        W 8093  12.577  19.330   4.101
43109W        W 8094   7.785   7.796   1.238
43110W        W 8095  42.715  16.572  13.036
43111W        W 8096  25.920  17.202  11.202
43112W        W 8097  15.498   4.270   3.734
43113W        W 8098  26.705  18.697  10.659
43114W        W 8099  41.500  12.939  13.155
43115W        W 8100   1.309  24.078   2.143
43116W        W 8101  41.580  25.400   2.267
43117W        W 8102  10.157  10.266  12.949
43118W        W 8103   7.346   0.276   4.493
43119W        W 8104  32.601  23.537  10.571
43120W        W 8105  14.233   6.029  12.505
43121W        W 8106  40.804  17.633   1.897
43122W        W 8107   4.980  17.983   2.345
43123W        W 8108   9.930  21.807   1.872
43124W        W 8109  37.783  33.971   1.828
43125W        W 8110  37.352   1.519  13.135
43126W        W 8111  36.549  34.064   2.212
43127W        W 8112  10.756  43.114   0.085
43128W        W 8113  36.266   0.951   1.702
43129W        W 8114  39.866  19.371  12.102
43130W        W 8115  43.927  25.161   3.393
43131W        W 8116   7.163  18.570   3.654
43132W        W 8117  18.117   1.207  13.404
43133W        W 8118  23.110  35.666  10.347
43134W        W 8119  24.974  27.052   1.712
43135W        W 8120   3.674  21.543   2.994
43136W        W 8121  39.545  14.249  11.762
43137W        W 8122   7.587  22.594   4.977
43138W        W 8123  41.396  19.560   0.237
43139W        W 8124  29.004  39.125  12.180
43140W        W 8125   9.066  38.786   1.424
43141W        W 8126  39.751  36.968   3.734
43142W        W 8127  43.956  43.414  13.250
43143W        W 8128  29.165  36.053  12.986
43144W        W 8129  35.776  21.089  14.206
43145W        W 8130  37.082  39.963  12.395
43146W        W 8131  34.220  16.884  10.968
43147W        W 8132  19.587  24.498  14.243
43148W        W 8133  25.539  15.717   4.509
43149W        W 8134  13.508  41.395   4.121
43150W        W 8135  31.531  20.883   2.721
43151W        W 8136  32.552  40.932   0.270
43152W        W 8137  11.635  44.049   0.348
43153W        W 8138  34.652   6.763  12.721
43154W        W 8139  13.751   6.100   4.043
43155W        W 8140  44.079  37.009   2.826
43156W        W 8141  25.391  36.554  11.588
43157W        W 8142  18.337  32.009   4.710
43158W        W 8143  43.653  23.199  11.542
43159W        W 8144  20.875  30.353  11.912
43160W        W 8145  12.627  32.482   4.756
43161W        W 8146  12.037  29.914   1.202
43162W        W 8147   9.090  26.015   0.906
43163W        W 8148  42.305  23.146   2.370
43164W        W 8149  44.929   4.206   2.602
43165W        W 8150  33.607  11.613  14.544
43166W        W 8151  23.725   0.018  13.539
43167W        W 8152  40.860  39.896   5.419
43168W        W 8153  32.049  14.123   4.253
43169W        W 8154   2.951   6.807  13.052
43170W        W 8155  40.788  37.385  13.801
43171W        W 8156   4.878   3.284  13.103
43172W        W 8157  26.975  36.649  11.553
43173W        W 8158   6.282  41.238   3.046
43174W        W 8159  13.404   4.989  10.298
43175W        W 8160  12.643  20.150   4.633
43176W        W 8161  15.134  36.625   1.800
43177W        W 8162  19.175   9.595  13.954
43178W        W 8163  36.265  34.358   2.892
43179W        W 8164  40.321  30.099   4.110
43180W        W 8165  38.252   8.390  11.866
43181W        W 8166  40.049  14.837   3.695
43182W        W 8167  13.857  43.008   4.885
43183W        W 8168  28.775  38.424  11.096
43184W        W 8169  14.838   1.303   4.590
43185W        W 8170  23.473  19.117   1.957
43186W        W 8171  17.841   3.337   4.943
43187W        W 8172  13.603  16.162  14.813
43188W        W 8173   2.949  41.965   4.611
43189W        W 8174  41.979   8.827  14.796
43190W        W 8175   2.823  26.158   2.285
43191W        W 8176   5.317  39.863   2.165
43192W        W 8177  43.526  40.504  11.104
43193W        W 8178  43.407  20.581   2.673
43194W        W 8179   3.774  10.157  11.970
43195W        W 8180  14.686  21.160  12.084
43196W        W 8181  22.733   8.642  13.030
43197W        W 8182  27.050  27.987  10.312
43198W        W 8183  36.383  24.186   4.679
43199W        W 8184  39.080  31.867   1.523
43200W        W 8185  37.480   8.408   3.274
43201W        W 8186  18.172   0.990   2.619
43202W        W 8187  38.833  11.465   2.399
43203W        W 8188  18.215  13.386  14.492
43204W        W 8189  43.567   0.926   4.350
43205W        W 8190   6.712  41.268  14.733
43206W        W 8191  25.232  27.082   4.081
43207W        W 8192  40.552  15.024   3.652
43208W        W 8193  26.554  29.501  11.497
43209W        W 8194  18.857  34.076   4.955
43210W        W 8195  19.031  14.682   1.737
43211W        W 8196  23.154  30.562   1.295
43212W        W 8197  14.869  10.727  14.039
43213W        W 8198  14.085  39.626   1.858
43214W        W 8199   2.546  34.902  14.545
43215W        W 8200  19.648  14.232   1.373
43216W        W 8201  42.260  37.783   3.596
43217W        W 8202   9.544  24.986   3.796
43218W        W 8203  27.999  29.020   4.479
43219W        W 8204  33.911  43.001   4.564
43220W        W 8205  28.054  28.682   2.781
43221W        W 8206   3.357   0.884  13.674
43222W        W 8207  13.822  34.561  14.363
43223W        W 8208  12.471   4.647  13.880
43224W        W 8209  22.561  35.489   2.620
43225W        W 8210   4.381  24.480  10.789
43226W        W 8211   0.322   1.372   3.751
43227W        W 8212  20.978  23.402  12.626
43228W        W 8213  44.476  23.440   1.949
43229W        W 8214  30.466  18.684   2.091
43230W        W 8215  21.257  33.545  13.026
43231W        W 8216  40.561   2.453   2.476
43232W        W 8217   3.650  19.249  13.830
43233W        W 8218  39.602  25.843   0.409
43234W        W 8219  42.879  31.671   3.658
43235W        W 8220  24.723  42.691  12.056
43236W        W 8221   6.892  25.065  11.260
43237W        W 8222  29.207  12.080   1.455
43238W        W 8223   9.730  41.137  11.556
43239W        W 8224  10.812  30.937  11.923
43240W        W 8225  20.790  27.499  13.361
43241W        W 8226  19.638   0.989  13.149
43242W        W 8227  11.871  20.002   0.300
43243W        W 8228   2.354  24.661   4.284
43244W        W 8229  11.019  33.873  14.346
43245W        W 8230   2.459   8.307   1.268
43246W        W 8231  20.117  43.557  14.548
43247W        W 8232  28.140  11.670   0.168
43248W        W 8233   4.466  21.103   2.990
43249W        W 8234  36.513  15.165   3.175
43250W        W 8235   8.549  27.717  13.471
43251W        W 8236  31.256  15.439  11.584
43252W        W 8237   2.970  44.991  14.951
43253W        W 8238   1.710  42.271  10.515
43254W        W 8239  29.017  29.375  14.238
43255W        W 8240  43.144  17.279   0.287
43256W        W 8241  13.604  39.365  13.967
43257W        W 8242  29.032  26.855   2.223
43258W        W 8243  15.301  17.155  10.568
43259W        W 8244   7.720  12.826   3.627
43260W        W 8245  39.454  16.372   2.088
43261W        W 8246  33.752  28.585  14.850
43262W        W 8247  42.064  39.338  10.682
43263W        W 8248  22.433  13.155  11.194
43264W        W 8249  11.237   4.952   2.385
43265W        W 8250  31.366   9.256  12.567
43266W        W 8251  21.646  35.063   3.382
43267W        W 8252  19.060   7.269  11.596
43268W        W 8253  24.616  18.364   0.886
43269W        W 8254  23.962  24.958  13.614
43270W        W 8255  42.053   0.020   0.322
43271W        W 8256   3.042  38.639  11.151
43272W        W 8257  11.364  41.849   2.221
43273W        W 8258  37.454   1.897   0.413
43274W        W 8259  31.444  11.869  13.996
43275W        W 8260  38.598  22.237   2.344
43276W        W 8261   7.360  27.465  12.101
43277W        W 8262   6.746  42.348   2.777
43278W        W 8263  30.521  28.692   0.382
43279W        W 8264  34.918  40.981   3.635
43280W        W 8265  31.363  37.824   3.567
43281W        W 8266  15.824  10.072  14.851
43282W        W 8267  37.719  28.675  10.697
43283W        W 8268  22.180  37.886   0.984
43284W        W 8269  41.794   4.816   1.830
43285W        W 8270  21.276  35.537   1.808
43286W        W 8271  42.848  15.910  11.239
43287W        W 8272   5.824  41.342  10.603
43288W        W 8273  10.342  33.095   4.721
43289W        W 8274  31.036   0.792  13.332
43290W        W 8275   8.733  20.671   2.426
43291W        W 8276  22.321   6.317   0.373
43292W        W 8277   6.301  29.007   1.706
43293W        W 8278  22.692  18.588   1.918
43294W        W 8279  37.084  29.780   4.413
43295W        W 8280  15.552  34.605   1.301
43296W        W 8281   8.121  22.131  12.575
43297W        W 8282  35.910  29.157   1.401
43298W        W 8283   3.386  32.643  14.430
43299W        W 8284  13.376   0.746   3.239
43300W        W 8285  19.651  31.475   1.820
43301W        W 8286  43.048  19.750  12.868
43302W        W 8287  11.218  14.659  11.429
43303W        W 8288  38.136  39.948   4.835
43304W        W 8289   4.159  21.580   2.788
43305W        W 8290   5.895  17.663  12.357
43306W        W 8291  44.706  20.460   3.792
43307W        W 8292  20.229   0.468   3.167
43308W        W 8293  20.734  28.607  10.726
43309W        W 8294  39.786  33.400  14.784
43310W        W 8295  18.025  35.540   2.804
43311W        W 8296   3.836  20.091  11.743
43312W        W 8297  11.554  29.994   1.305
43313W        W 8298  15.681   3.925   1.535
43314W        W 8299   2.075  19.597   4.740
43315W        W 8300  30.136  20.232   0.371
43316W        W 8301  35.373   1.589   1.367
43317W        W 8302  32.523   8.661  12.059
43318W        W 8303  44.558  18.646  13.362
43319W        W 8304  39.980  17.097   2.615
43320W        W 8305  41.816  18.658   2.831
43321W        W 8306  35.596   8.874   3.683
43322W        W 8307   6.330  42.796   1.333
43323W        W 8308  10.147  14.334  10.745
43324W        W 8309  33.679  33.678   4.488
43325W        W 8310  30.253   2.965   2.309
43326W        W 8311  18.238  38.300  10.769
43327W        W 8312  38.594  36.092   1.364
43328W        W 8313  23.070   2.977   1.456
43329W        W 8314  11.941  35.859   2.787
43330W        W 8315  34.633  21.152   1.149
43331W        W 8316   8.281   8.391  11.070
43332W        W 8317  42.580  21.397   3.209
43333W        W 8318  44.066  36.117  13.019
43334W        W 8319  34.654  12.959  11.521
43335W        W 8320  14.644   0.465   2.291
43336W        W 8321  20.758  10.313   0.419
43337W        W 8322  33.173   6.471   3.252
43338W        W 8323   3.965  19.291  11.276
43339W        W 8324  24.117  38.107   0.793
43340W        W 8325  10.288  38.472  11.748
43341W        W 8326  21.939  40.186  10.692
43342W        W 8327  30.883  12.302  14.663
43343W        W 8328   2.573  29.455  10.687
43344W        W 8329  44.671  28.194  12.667
43345W        W 8330  42.201   0.966   0.505
43346W        W 8331   6.226  12.574   1.287
43347W        W 8332  42.365   9.706  10.873
43348W        W 8333  43.740   8.178   3.278
43349W        W 8334   4.692   4.277  13.567
43350W        W 8335  20.879  14.176  11.547
43351W        W 8336  28.221  30.105  11.132
43352W        W 8337  11.407  19.623  10.814
43353W        W 8338  33.436  38.575  14.810
43354W        W 8339  35.419  28.429  12.058
43355W        W 8340  24.551  21.886  11.453
43356W        W 8341  38.012  12.260  13.976
43357W        W 8342  19.034  16.082   5.146
43358W        W 8343  40.359   7.889  11.722
43359W        W 8344  32.428   4.151  13.633
43360W        W 8345   1.915  15.103   3.903
43361W        W 8346  30.988  23.903   1.956
43362W        W 8347  16.499  12.921   4.822
43363W        W 8348  14.527  32.187   0.817
43364W        W 8349   5.331  41.408  10.594
43365W        W 8350   7.214  11.223   2.586
43366W        W 8351  13.612  18.262   3.284
43367W        W 8352  23.839  18.970  14.782
43368W        W 8353  23.600  28.226   4.586
43369W        W 8354  41.470  41.757   1.816
43370W        W 8355  19.587  19.194  13.676
43371W        W 8356  25.460  13.248   4.225
43372W        W 8357  22.938  24.423  12.925
43373W        W 8358  12.624   2.919  12.620
43374W        W 8359  29.817  29.138   2.336
43375W        W 8360  16.178   0.700   3.245
43376W        W 8361  27.232   1.954   1.728
43377W        W 8362  24.589   9.896  12.147
43378W        W 8363  11.379  23.426   1.216
43379W        W 8364   6.922  21.150   2.635
43380W        W 8365   4.835  10.285   0.340
43381W        W 8366  16.916  44.697   1.034
43382W        W 8367  17.336   7.733  13.305
43383W        W 8368  15.155  25.444   4.534
43384W        W 8369  30.486  12.145   3.753
43385W        W 8370  18.245  19.444  14.927
43386W        W 8371   2.314   2.892   5.028
43387W        W 8372  13.394  16.081   1.924
43388W        W 8373  39.371  31.465   1.304
43389W        W 8374  36.450  23.943  11.154
43390W        W 8375  19.051  34.475  14.935
43391W        W 8376  17.506  11.990   2.515
43392W        W 8377  14.238   5.324  10.298
43393W        W 8378  39.337  19.205  12.437
43394W        W 8379  20.405   2.415  13.349
43395W        W 8380  36.029   2.877  11.692
43396W        W 8381  24.635   6.961  14.025
43397W        W 8382  15.091  10.242  12.403
43398W        W 8383  44.002   9.076  12.968
43399W        W 8384  38.700  42.762   3.111
43400W        W 8385  14.101  10.410   1.651
43401W        W 8386  36.608   8.179   1.908
43402W        W 8387  13.184  21.848  14.749
43403W        W 8388  44.308  14.283   1.220
43404W        W 8389   2.452   2.239   2.818
43405W        W 8390   0.755  18.474  12.922
43406W        W 8391  23.660  42.813   4.426
43407W        W 8392   1.683  18.984  13.275
43408W        W 8393  17.741  31.665  14.361
43409W        W 8394  10.280  34.596  12.153
43410W        W 8395  20.527  23.824  11.640
43411W        W 8396   1.524   2.658   3.337
43412W        W 8397  20.275   8.261   2.836
43413W        W 8398  30.139  11.889  14.330
43414W        W 8399   1.897  13.358   2.220
43415W        W 8400  37.484  35.883  12.441
43416W        W 8401   7.670  44.710  14.903
43417W        W 8402   5.703   2.876  13.850
43418W        W 8403  32.985  16.329   3.544
43419W        W 8404  24.149  42.017   1.660
43420W        W 8405  37.171  26.722   1.436
43421W        W 8406   6.793  18.208   0.748
43422W        W 8407  30.420  24.141  14.234
43423W        W 8408   7.479   5.473   3.598
43424W        W 8409   2.301  25.619  13.571
43425W        W 8410  12.642  27.964   0.275
43426W        W 8411  42.039  19.089   4.154
43427W        W 8412   0.927  21.833   0.233
43428W        W 8413  24.274  19.542   3.658
43429W        W 8414   4.078  29.502  14.952
43430W        W 8415   0.320  35.041  12.674
43431W        W 8416  18.756  44.299  11.158
43432W        W 8417  18.117  33.501   0.992
43433W        W 8418  39.414  22.502  13.321
43434W        W 8419  20.106  41.521   1.816
43435W        W 8420  16.499  16.817  11.613
43436W        W 8421  29.218  17.692  13.580
43437W        W 8422  36.271  34.922   2.101
43438W        W 8423  31.946   9.841   1.886
43439W        W 8424   7.777  29.225  13.191
43440W        W 8425  10.790   3.751  13.770
43441W        W 8426  34.544  42.091  12.474
43442W        W 8427  23.516  21.144  12.227
43443W        W 8428  27.539  13.068  12.099
43444W        W 8429  13.566   0.032   1.909
43445W        W 8430  41.410  11.979   3.815
43446W        W 8431  28.284  41.734  10.426
43447W        W 8432  31.516   6.628  11.964
43448W        W 8433   3.232  36.147   2.417
43449W        W 8434  12.168  28.826   1.146
43450W        W 8435  23.573  41.687   2.912
43451W        W 8436  33.972  27.264   4.133
43452W        W 8437  24.082  43.502   4.023
43453W        W 8438  27.930   6.150  13.890
43454W        W 8439   6.040  18.845  13.137
43455W        W 8440   2.813  12.187   1.411
43456W        W 8441  34.112  38.222  13.599
43457W        W 8442   4.370  36.833  12.802
43458W        W 8443  25.528  44.077   2.517
43459W        W 8444   6.727   9.236   3.258
43460W        W 8445  24.632  41.324  13.488
43461W        W 8446  12.816  24.977   0.184
43462W        W 8447  40.884  40.920   0.174
43463W        W 8448  25.284  26.494   0.231
43464W        W 8449  23.546  18.297   3.256
43465W        W 8450  15.817  28.419  13.967
43466W        W 8451  13.717  11.151   4.571
43467W        W 8452  31.290  37.177  13.476
43468W        W 8453  21.497  34.955  13.864
43469W        W 8454  17.529  14.447  10.264
43470W        W 8455  22.357   5.879   2.117
43471W        W 8456  28.637  24.264  12.894
43472W        W 8457  24.452  25.411  11.218
43473W        W 8458   1.901  38.303   0.152
43474W        W 8459  41.500  39.264   3.750
43475W        W 8460  32.928  22.036  10.726
43476W        W 8461  26.668   3.208   4.463
43477W        W 8462  34.777  15.858   1.319
43478W        W 8463  32.827  13.798   4.670
43479W        W 8464  39.631  33.209   0.245
43480W        W 8465  14.529  22.619  12.088
43481W        W 8466  32.533   5.620  13.417
43482W        W 8467  31.411  30.624  11.192
43483W        W 8468   2.694  12.796  14.047
43484W        W 8469  28.203  23.119   4.649
43485W        W 8470  14.052   8.706   4.038
43486W        W 8471   6.562  43.531  13.887
43487W        W 8472  19.144  25.489   4.665
43488W        W 8473  35.202  32.903   2.423
43489W        W 8474   9.940  42.994  11.434
43490W        W 8475  11.775  12.567   3.531
43491W        W 8476  38.605  28.197   3.638
43492W        W 8477  34.578  36.009  14.050
43493W        W 8478  40.098  31.025   2.265
43494W        W 8479  43.499   1.412   1.364
43495W        W 8480  14.111  27.969   0.522
43496W        W 8481  16.584  13.259   1.302
43497W        W 8482  35.264  13.169  13.022
43498W        W 8483   5.416  26.988  14.277
43499W        W 8484   8.348  15.587   3.780
43500W        W 8485  24.032   8.360  12.617
43501W        W 8486  29.833  33.622   2.071
43502W        W 8487  40.991   5.405  11.569
43503W        W 8488  18.682  35.841  12.964
43504W        W 8489  32.673  14.371   1.305
43505W        W 8490   4.467   9.952  14.493
43506W        W 8491  26.955   5.749  14.478
43507W        W 8492  10.106   5.256  12.487
43508W        W 8493  12.529  11.573  11.672
43509W        W 8494  19.327  18.177   3.261
43510W        W 8495   5.409  24.713  12.475
43511W        W 8496  23.665  30.698   0.364
43512W        W 8497  33.839  28.527  12.072
43513W        W 8498  19.713   4.693   3.627
43514W        W 8499   3.017   3.359   3.986
43515W        W 8500  21.603  26.905  14.524
43516W        W 8501  38.916   9.154  13.945
43517W        W 8502  35.888   4.457   5.079
43518W        W 8503  22.174  10.803   2.100
43519W        W 8504  24.456  43.511  11.564
43520W        W 8505   9.876   8.842   0.277
43521W        W 8506  18.221  39.245  14.628
43522W        W 8507  43.431  28.386   3.660
43523W        W 8508   8.686  31.077   1.636
43524W        W 8509  18.224   7.488   2.546
43525W        W 8510  34.922  24.106  13.598
43526W        W 8511  22.099  30.750  11.955
43527W        W 8512   8.279   6.310   0.348
43528W        W 8513  39.414   2.296   1.187
43529W        W 8514  29.247   5.766  12.348
43530W        W 8515  10.922   6.002  10.679
43531W        W 8516  39.092  36.381   1.775
43532W        W 8517  34.842  41.797  10.756
43533W        W 8518  41.919  44.838  10.823
43534W        W 8519   0.858  29.420   1.252
43535W        W 8520  33.481  28.935  13.545
43536W        W 8521   5.478   1.870   1.283
43537W        W 8522  12.864  29.189  11.098
43538W        W 8523  43.282  11.820  11.235
43539W        W 8524  27.913  20.454   0.954
43540W        W 8525  39.444  12.343  11.614
43541W        W 8526  33.439  32.007   1.329
43542W        W 8527  27.488  23.052  14.507
43543W        W 8528  19.046  38.188  12.565
43544W        W 8529  20.241   5.448  14.980
43545W        W 8530  11.794  30.279  11.692
43546W        W 8531   3.237  20.704   3.829
43547W        W 8532  33.041  41.609   0.610
43548W        W 8533   8.715  33.982   0.964
43549W        W 8534  16.481  43.327  12.020
43550W        W 8535  33.215  31.226   3.777
43551W        W 8536  31.175  13.702   4.153
43552W        W 8537  30.719  35.570  11.973
43553W        W 8538   6.309   1.739   4.041
43554W        W 8539  24.983  42.512   3.346
43555W        W 8540  37.989  37.954   2.684
43556W        W 8541  31.955  38.913  10.501
43557W        W 8542  40.564  22.683  14.955
43558W        W 8543  18.055  34.464  11.280
43559W        W 8544  44.931  44.352  12.824
43560W        W 8545  34.576  26.446  14.098
43561W        W 8546  26.879  31.648  14.323
43562W        W 8547  33.959  29.489  13.877
43563W        W 8548  14.587  20.185  14.920
43564W        W 8549   1.293   1.062  12.073
43565W        W 8550  20.549  15.621  13.490
43566W        W 8551  25.597  14.744  11.164
43567W        W 8552  15.184   1.374   0.550
43568W        W 8553  18.921  23.557   3.983
43569W        W 8554  37.847  12.821  11.271
43570W        W 8555  18.003  13.429   4.004
43571W        W 8556  11.910  42.313   1.755
43572W        W 8557   7.005  21.978  11.129
43573W        W 8558   0.215  34.578   0.187
43574W        W 8559  44.324  24.590  11.625
43575W        W 8560   6.252  44.123   2.838
43576W        W 8561  20.693  41.349   2.352
43577W        W 8562  22.405  36.424   1.494
43578W        W 8563  14.526  37.532   1.445
43579W        W 8564  43.472  38.886  11.612
43580W        W 8565  10.764  30.445   1.021
43581W        W 8566  22.110   9.664  11.487
43582W        W 8567  42.061  17.558   2.368
43583W        W 8568  41.345  44.198   3.476
43584W        W 8569   1.873   0.650   2.263
43585W        W 8570  11.756  35.986   4.128
43586W        W 8571  30.608  12.977  10.453
43587W        W 8572  44.592   3.725  12.339
43588W        W 8573  33.539  33.304   1.728
43589W        W 8574  39.038  11.707  11.203
43590W        W 8575  35.125  27.994   4.119
43591W        W 8576   8.668  23.409   2.397
43592W        W 8577   0.943  32.195   4.090
43593W        W 8578   8.755  20.020  11.783
43594W        W 8579  31.634  41.547   1.751
43595W        W 8580  39.910   1.803   0.983
43596W        W 8581  18.698  39.343  14.454
43597W        W 8582  23.612   7.004  11.179
43598W        W 8583  25.955  40.759  13.921
43599W        W 8584  44.340   4.314   4.266
43600W        W 8585  22.193  12.388  10.740
43601W        W 8586   9.791   3.721  12.357
43602W        W 8587  31.073   4.479  13.597
43603W        W 8588  34.423  19.970  13.315
43604W        W 8589  36.823  36.051  12.714
43605W        W 8590  44.468  16.076  13.004
43606W        W 8591  29.729   5.302   3.075
43607W        W 8592   6.471  29.449   5.039
43608W        W 8593  43.418  31.230  13.964
43609W        W 8594   2.317  24.279  10.825
43610W        W 8595  15.085  24.531   4.212
43611W        W 8596   6.159  20.207  13.890
43612W        W 8597  34.014  24.620   2.358
43613W        W 8598  17.765  24.735   1.741
43614W        W 8599  26.955   1.897  12.122
43615W        W 8600  13.505  35.218   3.804
43616W        W 8601   4.185  16.401  12.945
43617W        W 8602  20.360  37.529  11.204
43618W        W 8603  32.593  39.044  11.192
43619W        W 8604   7.178  15.284   2.811
43620W        W 8605  31.455  11.700  13.008
43621W        W 8606  33.147  34.062   1.728
43622W        W 8607   5.249  36.092  11.927
43623W        W 8608  30.437  43.362  13.947
43624W        W 8609  32.232  35.328   3.135
43625W        W 8610  11.745   8.321  12.567
43626W        W 8611  35.208  35.061  13.826
43627W        W 8612   7.440  28.357  12.052
43628W        W 8613   0.982  37.105   3.658
43629W        W 8614  12.077  34.927  13.251
43630W        W 8615   9.171  44.421   3.490
43631W        W 8616  23.316  24.431  14.909
43632W        W 8617   3.455  10.240  13.942
43633W        W 8618  38.991  20.926  10.414
43634W        W 8619  22.830  18.503  13.980
43635W        W 8620  41.046  44.744   2.258
43636W        W 8621   6.254  19.812   1.796
43637W        W 8622  37.046   4.010  14.763
43638W        W 8623  40.342  34.153   4.849
43639W        W 8624  21.193   2.837   3.552
43640W        W 8625  33.037   5.860   4.519
43641W        W 8626  30.171  31.534  14.292
43642W        W 8627  24.805  43.873   3.690
43643W        W 8628   3.011  42.400   0.314
43644W        W 8629  42.562  42.875   1.307
43645W        W 8630  22.124   2.929   2.567
43646W        W 8631  14.702  14.228   4.553
43647W        W 8632   5.507  40.404   0.839
43648W        W 8633  40.308  36.689   3.157
43649W        W 8634  42.655   8.361   2.376
43650W        W 8635  40.047  35.830   3.095
43651W        W 8636  39.392  12.779   0.893
43652W        W 8637  29.145  26.924  14.027
43653W        W 8638  18.775  15.696  13.047
43654W        W 8639  24.427   1.592  10.147
43655W        W 8640  16.094  19.179  10.724
43656W        W 8641  33.647  32.484   1.226
43657W        W 8642  31.382  44.989  14.489
43658W        W 8643  19.836  14.758   4.544
43659W        W 8644  43.914  40.834   4.499
43660W        W 8645  33.321  39.836  14.268
43661W        W 8646  11.308  27.755  14.294
43662W        W 8647   3.856   5.898   0.979
43663W        W 8648  36.167  44.419   4.188
43664W        W 8649   7.235  32.410  11.394
43665W        W 8650  28.728  17.558  13.724
43666W        W 8651  32.890  28.673  12.474
43667W        W 8652  11.077  15.607  11.877
43668W        W 8653   9.461  36.988   1.254
43669W        W 8654  35.711   3.722  11.716
43670W        W 8655  14.601   3.507  13.771
43671W        W 8656  13.791  42.452  13.473
43672W        W 8657  17.705  32.927  12.087
43673W        W 8658  18.949   2.408  13.451
43674W        W 8659  12.894   2.255   4.640
43675W        W 8660  37.509  34.082  10.039
43676W        W 8661  42.879   0.429  11.170
43677W        W 8662  13.785  24.178   3.188
43678W        W 8663   7.439  31.816   2.237
43679W        W 8664  14.641  38.423   1.748
43680W        W 8665  29.627  11.724  13.080
43681W        W 8666  23.638   2.212   1.699
43682W        W 8667   7.962  25.715  12.085
43683W        W 8668   1.003  31.856  11.671
43684W        W 8669   8.586  10.676  12.822
43685W        W 8670  13.352  36.955  14.364
43686W        W 8671  44.342  11.304  12.554
43687W        W 8672   8.826  34.331  10.668
43688W        W 8673  11.326  16.868  14.774
43689W        W 8674  36.018   6.169  14.413
43690W        W 8675  16.519  44.331   0.979
43691W        W 8676  17.859   7.873   0.883
43692W        W 8677  10.834   8.792   4.538
43693W        W 8678  44.764  39.025  11.651
43694W        W 8679  30.794   9.194   4.835
43695W        W 8680  33.740  29.076   0.378
43696W        W 8681  30.016  28.996   4.639
43697W        W 8682  26.026  12.007  14.478
43698W        W 8683  20.726  27.158  12.563
43699W        W 8684  23.794  39.987   2.149
43700W        W 8685  11.560  32.637   2.234
43701W        W 8686  33.490   2.970   1.682
43702W        W 8687  42.828  41.888   4.973
43703W        W 8688  33.676  28.978   1.780
43704W        W 8689  26.245   9.735  14.367
43705W        W 8690   3.973  10.170  12.441
43706W        W 8691  31.643  43.654   4.560
43707W        W 8692  15.106  25.981   2.646
43708W        W 8693  29.852  39.496   1.378
43709W        W 8694  23.790  44.237   0.212
43710W        W 8695  25.981  36.469   0.297
43711W        W 8696  12.377  20.970  11.855
43712W        W 8697  42.901  28.683  12.467
43713W        W 8698  10.190  19.577  11.553
43714W        W 8699  30.180  44.707  13.361
43715W        W 8700  37.118  35.676  13.261
43716W        W 8701   6.366  42.804  10.912
43717W        W 8702  29.332  28.347   2.874
43718W        W 8703  42.029  38.365   2.124
43719W        W 8704  37.735  43.082   5.072
43720W        W 8705  24.222  11.210   1.355
43721W        W 8706  21.032  24.764   4.234
43722W        W 8707  15.238   1.477   1.916
43723W        W 8708  38.754  26.844  14.463
43724W        W 8709  24.733  21.543  12.067
43725W        W 8710  30.099  36.817   3.844
43726W        W 8711   0.851  41.088  14.576
43727W        W 8712   5.675   9.687  12.393
43728W        W 8713  25.145  33.169  12.019
43729W        W 8714  22.986  21.741  10.287
43730W        W 8715  25.457  35.869   4.761
43731W        W 8716  36.966  39.090  10.900
43732W        W 8717  11.313   2.915   3.457
43733W        W 8718   1.127  12.652   3.276
43734W        W 8719   1.444  21.969   4.173
43735W        W 8720  43.228  33.852   4.597
43736W        W 8721   1.636  11.448   1.765
43737W        W 8722  30.035   7.816  12.077
43738W        W 8723  42.856  37.373   0.756
43739W        W 8724  26.739  18.455  11.117
43740W        W 8725  31.492  10.414   3.177
43741W        W 8726  32.531  17.616  13.411
43742W        W 8727  19.334  37.118   0.373
43743W        W 8728  19.073  40.681  12.417
43744W        W 8729  27.969  28.914   2.316
43745W        W 8730  12.778  29.055   3.811
43746W        W 8731  16.298  23.290   0.845
43747W        W 8732  36.933  29.251   3.657
43748W        W 8733  26.058  33.636  14.824
43749W        W 8734   0.437  17.963  13.993
43750W        W 8735  13.237  15.552   0.588
43751W        W 8736  14.359  19.520  14.943
43752W        W 8737  43.329  12.917  12.625
43753W        W 8738  10.552  22.025  11.457
43754W        W 8739  15.139   9.575  10.011
43755W        W 8740   4.654  39.180  14.852
43756W        W 8741  43.342  41.035  13.994
43757W        W 8742   1.773  25.978  14.339
43758W        W 8743  22.805   9.339   1.124
43759W        W 8744   0.001  29.118   1.310
43760W        W 8745  13.622   8.395   3.225
43761W        W 8746  13.858  25.609  14.530
43762W        W 8747  14.876  24.547  10.709
43763W        W 8748  21.622   5.422  12.842
43764W        W 8749  17.893  21.462   3.078
43765W        W 8750   3.607  26.068   1.640
43766W        W 8751  11.356  29.376   1.394
43767W        W 8752  17.160  43.705  13.419
43768W        W 8753  15.259  30.879   0.034
43769W        W 8754  44.473   6.481  14.012
43770W        W 8755   5.155  41.980   1.329
43771W        W 8756  37.524  11.483   1.006
43772W        W 8757  26.536  34.468  13.926
43773W        W 8758  31.556   3.690  12.461
43774W        W 8759  32.465  14.253  14.323
43775W        W 8760   7.662   8.592   4.668
43776W        W 8761   3.975  12.430   2.285
43777W        W 8762  41.773  31.517  11.998
43778W        W 8763  26.159  39.711  11.251
43779W        W 8764  26.697  21.942  11.995
43780W        W 8765  33.017   1.273  11.552
43781W        W 8766  13.238  16.658   3.672
43782W        W 8767  42.806  11.587  11.194
43783W        W 8768   9.347  10.739  11.585
43784W        W 8769  24.259   3.635  13.607
43785W        W 8770   8.073  32.187  14.183
43786W        W 8771  15.231  22.760   3.769
43787W        W 8772  38.440   6.232  11.683
43788W        W 8773  34.438  11.772   3.647
43789W        W 8774  43.794  41.703  12.393
43790W        W 8775   3.958  23.567   0.758
43791W        W 8776   1.488  35.998  14.971
43792W        W 8777  41.522   0.640  11.243
43793W        W 8778  44.842  33.907  12.454
43794W        W 8779  34.797  14.390   2.564
43795W        W 8780   3.746  41.346  13.499
43796W        W 8781  32.084   6.402  11.175
43797W        W 8782   9.144   5.428  13.572
43798W        W 8783  25.002  38.779  14.249
43799W        W 8784  11.451  34.880  10.930
43800W        W 8785  21.119   8.186   2.149
43801W        W 8786  39.744   5.878   0.510
43802W        W 8787  32.588  31.210   4.533
43803W        W 8788  12.316   9.415   0.314
43804W        W 8789   8.766  25.133  10.792
43805W        W 8790  44.373  36.483  11.096
43806W        W 8791  38.326   9.760   1.680
43807W        W 8792  34.133  22.269   0.214
43808W        W 8793   6.269  22.211  10.718
43809W        W 8794  33.975   1.661  11.493
43810W        W 8795  30.676  10.242  13.134
43811W        W 8796  28.146  39.965   0.791
43812W        W 8797  34.014  35.825  14.766
43813W        W 8798  35.318  40.582  13.464
43814W        W 8799  31.118  25.295   2.331
43815W        W 8800  24.556  43.935   1.813
43816W        W 8801   6.290  23.226   2.663
43817W        W 8802  17.769  27.633   0.842
43818W        W 8803  17.821  10.803   4.911
43819W        W 8804  18.545  21.612  11.107
43820W        W 8805  14.366   3.856  10.942
43821W        W 8806  42.836  35.099   1.424
43822W        W 8807  27.185  16.720  11.161
43823W        W 8808  14.702  19.794   1.396
43824W        W 8809  38.666  35.744   4.891
43825W        W 8810  28.542  24.286  14.492
43826W        W 8811  20.740  30.179   1.335
43827W        W 8812  19.178  39.945  12.896
43828W        W 8813  30.899  20.543  14.925
43829W        W 8814  44.157  23.598  14.970
43830W        W 8815  21.118   1.904  12.686
43831W        W 8816  25.740  22.025   3.734
43832W        W 8817  17.317   1.235  14.363
43833W        W 8818  29.251   4.935  10.751
43834W        W 8819  44.282  28.898  11.753
43835W        W 8820   8.168  15.550   1.420
43836W        W 8821  21.954  14.406  11.498
43837W        W 8822  44.039  11.395   3.112
43838W        W 8823   2.980  39.519  14.716
43839W        W 8824  19.652   3.000   2.304
43840W        W 8825  22.771   6.713   1.648
43841W        W 8826  22.754  33.602   4.124
43842W        W 8827  33.261   4.808   3.641
43843W        W 8828  30.454   2.789   0.620
43844W        W 8829  42.217  22.661   0.777
43845W        W 8830  11.717  18.787  11.702
43846W        W 8831  36.719  28.800   3.464
43847W        W 8832  43.381  10.018   3.167
43848W        W 8833  30.484  30.354   0.969
43849W        W 8834  16.721  15.261   4.686
43850W        W 8835  23.358  18.194   3.728
43851W        W 8836  40.994   5.775   3.308
43852W        W 8837   3.316  37.961   4.893
43853W        W 8838  21.007  12.349   1.442
43854W        W 8839  34.954  44.393   1.335
43855W        W 8840  15.088  30.362   1.651
43856W        W 8841  44.842  36.762   2.238
43857W        W 8842  11.964  35.908   0.219
43858W        W 8843  27.262  34.062   0.701
43859W        W 8844  21.925  27.826  13.636
43860W        W 8845  30.757  17.932   3.412
43861W        W 8846  11.871  33.846  10.352
43862W        W 8847  18.692   6.953   2.082
43863W        W 8848  27.087  37.177  10.608
43864W        W 8849  44.434   4.843   0.580
43865W        W 8850  20.709  39.400  11.692
43866W        W 8851  44.981   8.937  12.041
43867W        W 8852  17.595  20.313   0.845
43868W        W 8853  40.233  22.744  14.530
43869W        W 8854  31.578  41.460  12.548
43870W        W 8855   7.815  19.013   0.737
43871W        W 8856  39.407   8.802   1.212
43872W        W 8857  23.224  34.631   1.677
43873W        W 8858  15.784  34.374  11.595
43874W        W 8859   7.134  32.340  13.489
43875W        W 8860  17.586  38.940   0.358
43876W        W 8861  42.457  18.441   3.663
43877W        W 8862  22.003  26.189  11.129
43878W        W 8863  11.584  26.996   4.230
43879W        W 8864  38.124  37.496  13.858
43880W        W 8865   5.305  15.784  12.811
43881W        W 8866  38.582  36.473   3.870
43882W        W 8867  18.228  41.626   1.088
43883W        W 8868  32.416  16.654   3.568
43884W        W 8869  40.309  11.396   0.368
43885W        W 8870  25.700   5.422  13.892
43886W        W 8871  20.216  25.034  13.704
43887W        W 8872   5.034  16.734   4.366
43888W        W 8873  21.013  26.240   3.258
43889W        W 8874  36.946  35.461   4.325
43890W        W 8875  33.158  40.492  10.752
43891W        W 8876   7.476  25.236  13.912
43892W        W 8877  39.432  15.615  11.977
43893W        W 8878  10.144  25.678   0.147
43894W        W 8879  34.066  26.882  10.908
43895W        W 8880  32.005   9.108   5.306
43896W        W 8881   7.174  44.806  14.860
43897W        W 8882  24.435   9.046   2.655
43898W        W 8883  14.092  26.902  13.425
43899W        W 8884  35.086  19.933  12.027
43900W        W 8885   0.339  24.313  14.305
43901W        W 8886  17.664  41.014   1.295
43902W        W 8887  14.767  33.724  13.248
43903W        W 8888  44.799  44.702  10.342
43904W        W 8889  34.680   2.989   4.756
43905W        W 8890  10.597  25.886  13.389
43906W        W 8891  36.960  16.813   1.256
43907W        W 8892  43.859  43.552  11.916
43908W        W 8893  35.394  21.638   4.850
43909W        W 8894  19.280  29.094  13.519
43910W        W 8895  37.200   4.505  14.805
43911W        W 8896  13.574  21.236   1.375
43912W        W 8897  37.258  42.560  12.945
43913W        W 8898  40.411  28.842  11.692
43914W        W 8899  12.656  32.162  13.918
43915W        W 8900  27.742  17.049   0.029
43916W        W 8901  29.385  43.454   4.027
43917W        W 8902  35.391  34.591   2.389
43918W        W 8903  29.151  38.823   3.246
43919W        W 8904  15.602  38.416  14.800
43920W        W 8905  41.237  15.514   3.204
43921W        W 8906   0.446  40.085  13.414
43922W        W 8907  19.496  11.183  11.636
43923W        W 8908   3.938  30.706  11.589
43924W        W 8909  41.963  29.201   0.262
43925W        W 8910  34.076  33.796   4.858
43926W        W 8911  44.072  38.021  10.245
43927W        W 8912  27.765   0.216   0.280
43928W        W 8913  38.919  21.974   4.283
43929W        W 8914  41.862  35.983   2.453
43930W        W 8915  31.266  13.234   0.296
43931W        W 8916  11.295  10.746   3.572
43932W        W 8917   3.868  38.569  14.783
43933W        W 8918  41.865   5.312   0.731
43934W        W 8919  31.590  18.199  13.340
43935W        W 8920  43.501  11.965   1.973
43936W        W 8921  27.414   1.518   0.083
43937W        W 8922  10.963  33.339  14.849
43938W        W 8923   1.889  41.754  11.928
43939W        W 8924  28.098   4.744   0.376
43940W        W 8925  19.692  23.627  12.926
43941W        W 8926  10.800  34.592   1.782
43942W        W 8927  18.139  22.475  14.391
43943W        W 8928  30.017  34.614   0.125
43944W        W 8929  20.572  15.742   1.443
43945W        W 8930  30.628  16.634  11.201
43946W        W 8931  16.301  27.183   2.262
43947W        W 8932  22.958  24.285   0.277
43948W        W 8933   6.349  40.480  14.517
43949W        W 8934  35.745  19.366  12.950
43950W        W 8935  41.831   3.898   4.367
43951W        W 8936  41.151  23.320   3.352
43952W        W 8937   4.341  20.031  10.588
43953W        W 8938  22.920   8.361   3.514
43954W        W 8939  13.125  32.363  11.108
43955W        W 8940   8.626  38.860   4.238
43956W        W 8941   7.092  18.763   2.135
43957W        W 8942  24.731  38.109   3.786
43958W        W 8943  20.285   1.984  12.552
43959W        W 8944   2.421  38.313  13.457
43960W        W 8945  43.829  38.440  13.001
43961W        W 8946  32.132   5.374   3.814
43962W        W 8947  21.548  12.256   1.547
43963W        W 8948  30.053  27.564   2.767
43964W        W 8949  10.261   8.128  11.661
43965W        W 8950  15.540   0.510   2.606
43966W        W 8951   1.313  27.669  12.022
43967W        W 8952  20.652  27.101   2.913
43968W        W 8953  19.531  21.255  11.625
43969W        W 8954   5.420  11.285  11.836
43970W        W 8955   0.209  30.370   4.876
43971W        W 8956   0.775  16.663   0.613
43972W        W 8957  21.782  16.048  10.498
43973W        W 8958  31.871  34.417  12.891
43974W        W 8959   0.137  21.266  14.335
43975W        W 8960  23.981  34.893   3.688
43976W        W 8961   5.126  14.033   9.811
43977W        W 8962  18.311  34.842   0.870
43978W        W 8963   5.422  15.369   4.222
43979W        W 8964   8.742  28.990  11.629
43980W        W 8965   9.973  24.024   2.220
43981W        W 8966   7.859  14.398  14.383
43982W        W 8967  15.690  12.635   3.111
43983W        W 8968  30.525  29.964   0.603
43984W        W 8969  36.982  33.680   3.981
43985W        W 8970  43.965  18.269   0.842
43986W        W 8971   7.456  24.350  11.876
43987W        W 8972  42.761   4.287  12.169
43988W        W 8973  37.080  19.118  14.100
43989W        W 8974   0.580  24.257  13.853
43990W        W 8975  40.558  14.436   0.533
43991W        W 8976  35.438  31.998   2.263
43992W        W 8977  16.038  38.787  10.843
43993W        W 8978  32.366  21.337   4.164
43994W        W 8979  36.149  21.519  11.971
43995W        W 8980   0.947   0.774  14.754
43996W        W 8981   8.321  33.883   2.437
43997W        W 8982  22.199  27.396   2.878
43998W        W 8983  26.170  21.914  14.248
43999W        W 8984  29.934   7.761   0.908
44000W        W 8985  31.151  42.718   4.505
44001W        W 8986   0.827   2.743  11.064
44002W        W 8987  20.285  32.011  13.494
44003W        W 8988  41.027  14.478   2.886
44004W        W 8989  22.932   1.070  12.111
44005W        W 8990   6.465  10.036   0.924
44006W        W 8991  15.692  37.050   0.042
44007W        W 8992  11.681   3.399  11.833
44008W        W 8993  28.694   7.964   0.252
44009W        W 8994   7.994  22.186  11.171
44010W        W 8995  43.982  43.548   4.728
44011W        W 8996  31.111  24.174   1.000
44012W        W 8997   6.426  20.739  14.037
44013W        W 8998  24.703  23.071  12.874
44014W        W 8999  32.971  41.757   3.128
44015W        W 9000  38.828  43.676  13.829
44016W        W 9001  27.598  22.048  13.755
44017W        W 9002  35.454  23.830   3.167
44018W        W 9003  28.649   6.780   4.142
44019W        W 9004  26.119  20.104  14.014
44020W        W 9005   5.334   8.268   3.860
44021W        W 9006  13.845  39.276   0.436
44022W        W 9007  27.723   3.711  12.405
44023W        W 9008  14.226   5.146   1.726
44024W        W 9009  18.837  15.246   3.311
44025W        W 9010  26.150  16.529  11.173
44026W        W 9011   0.279  40.308   1.894
44027W        W 9012  19.692  23.191  12.676
44028W        W 9013   4.968   4.031   4.510
44029W        W 9014  34.077  13.110  12.602
44030W        W 9015  38.119   7.849  14.811
44031W        W 9016   4.385  11.077   3.651
44032W        W 9017  13.374   7.854   4.607
44033W        W 9018  13.877  32.703  11.466
44034W        W 9019   8.035  40.025  10.465
44035W        W 9020  19.663  29.665   1.340
44036W        W 9021  23.021  37.599  11.982
44037W        W 9022  29.145  37.266   2.910
44038W        W 9023   2.323  18.814  10.702
44039W        W 9024  26.788  13.843   2.330
44040W        W 9025   7.368  42.834   1.381
44041W        W 9026  10.749   3.473   1.710
44042W        W 9027  35.969  12.201  12.604
44043W        W 9028  42.340  44.677   4.828
44044W        W 9029  30.535   4.910  10.181
44045W        W 9030  39.118  21.751  14.417
44046W        W 9031  40.389  16.026  12.170
44047W        W 9032  39.000  26.024   3.912
44048W        W 9033   8.846  41.884   3.617
44049W        W 9034  29.468   4.993   2.694
44050W        W 9035   6.748  32.953  14.357
44051W        W 9036  20.851  17.662  13.614
44052W        W 9037  42.820   1.300   2.132
44053W        W 9038   4.890   9.132  10.680
44054W        W 9039  10.791  38.631  11.578
44055W        W 9040  39.550  22.082  14.763
44056W        W 9041  38.848  20.007  14.548
44057W        W 9042  24.485   9.409   4.572
44058W        W 9043  27.599   7.173  14.850
44059W        W 9044  18.003  26.986   3.239
44060W        W 9045  17.413  43.628  11.498
44061W        W 9046  25.512  12.571   3.371
44062W        W 9047   9.739  33.356  14.644
44063W        W 9048  36.100   8.067   2.156
44064W        W 9049  28.758  27.842  13.714
44065W        W 9050  23.706  16.545  14.356
44066W        W 9051  35.643  20.795  10.587
44067W        W 9052  14.534  19.077  11.593
44068W        W 9053  30.889  36.056   4.736
44069W        W 9054  18.537  18.520  12.553
44070W        W 9055   8.361   3.249  11.526
44071W        W 9056  40.472  34.709   1.801
44072W        W 9057  20.497  38.911   0.864
44073W        W 9058  31.482  29.117  14.458
44074W        W 9059  11.767  44.196  13.567
44075W        W 9060  23.308  40.377   1.861
44076W        W 9061  16.171  11.295  12.075
44077W        W 9062  37.099   7.997  14.417
44078W        W 9063  20.259  34.471  11.941
44079W        W 9064  38.013  33.458   3.280
44080W        W 9065   4.662  36.472   3.199
44081W        W 9066  24.702  43.905  10.704
44082W        W 9067  19.220  12.393  11.633
44083W        W 9068   9.327  25.332  14.520
44084W        W 9069  32.308   7.261   3.059
44085W        W 9070  42.891  16.627  13.912
44086W        W 9071  32.669  29.958   0.243
44087W        W 9072  39.427  38.007  14.113
44088W        W 9073  38.094  28.476   2.355
44089W        W 9074   5.144  43.737   0.688
44090W        W 9075  12.124  15.357  10.209
44091W        W 9076  20.225   3.742   1.004
44092W        W 9077  41.868   7.170  10.826
44093W        W 9078  19.993  20.281   5.022
44094W        W 9079  16.238   0.908  10.985
44095W        W 9080   6.426  31.006   3.673
44096W        W 9081  16.590  36.970   2.063
44097W        W 9082  40.217   4.410  12.560
44098W        W 9083  32.485   0.854   0.868
44099W        W 9084  16.639  13.203   4.403
44100W        W 9085  27.894  15.061  11.492
44101W        W 9086   8.744  31.694  13.139
44102W        W 9087   1.588  42.490   4.546
44103W        W 9088  26.634   7.887  12.302
44104W        W 9089  40.007  12.202   0.015
44105W        W 9090  28.155  25.457   3.658
44106W        W 9091   0.822  14.621  10.748
44107W        W 9092  42.738  24.539   4.857
44108W        W 9093  13.311  33.698   0.807
44109W        W 9094  18.128  38.749  14.710
44110W        W 9095  24.215  12.625   0.981
44111W        W 9096  37.103  32.669   3.209
44112W        W 9097  25.085  11.357   1.554
44113W        W 9098  26.263  31.272   2.135
44114W        W 9099  11.911   8.624  10.658
44115W        W 9100  39.332   1.842  14.462
44116W        W 9101  13.762  35.071   1.745
44117W        W 9102  12.176  17.589  11.177
44118W        W 9103  38.354  35.258   0.246
44119W        W 9104  21.531   7.613  11.165
44120W        W 9105  41.829  22.951   0.543
44121W        W 9106   3.699  16.041  13.818
44122W        W 9107   1.172  27.395  12.599
44123W        W 9108  21.229  12.551   1.852
44124W        W 9109  27.730  41.514   4.889
44125W        W 9110  27.153   9.256   1.757
44126W        W 9111  10.201  33.242  14.894
44127W        W 9112  42.752   6.933  11.447
44128W        W 9113  42.151   9.799   3.737
44129W        W 9114  23.348  13.258  10.701
44130W        W 9115  10.749  41.233  10.687
44131W        W 9116   9.520  13.008   2.272
44132W        W 9117  33.287  32.069   4.551
44133W        W 9118   2.224  15.202  14.791
44134W        W 9119  37.933  21.203   2.786
44135W        W 9120  22.680  40.881   0.306
44136W        W 9121  26.086   4.899  12.881
44137W        W 9122  23.675  12.781   3.608
44138W        W 9123  19.247  22.789   4.586
44139W        W 9124  12.291  23.727  13.992
44140W        W 9125  33.463   0.193   0.465
44141W        W 9126  43.855  13.120   1.829
44142W        W 9127  29.034   9.681   4.727
44143W        W 9128  16.271  21.849   2.491
44144W        W 9129   3.242  31.336  13.900
44145W        W 9130  44.221  21.837  14.062
44146W        W 9131   3.692  22.702   4.743
44147W        W 9132  41.102  42.891   2.310
44148W        W 9133  13.619  23.719   4.304
44149W        W 9134  26.382  43.300   0.982
44150W        W 9135  18.013  33.826  12.112
44151W        W 9136  14.264  19.117  13.479
44152W        W 9137  10.242  38.723   4.366
44153W        W 9138  12.778  24.755   4.159
44154W        W 9139  12.261  44.736   4.928
44155W        W 9140  15.366  24.182   3.966
44156W        W 9141  23.987  30.468   3.630
44157W        W 9142  32.085  14.755  13.243
44158W        W 9143  44.068   6.149   4.144
44159W        W 9144   0.251  14.556  13.560
44160W        W 9145  26.131  13.209  10.659
44161W        W 9146  14.929  20.053  11.817
44162W        W 9147  33.080  15.881  10.609
44163W        W 9148   7.808   3.344   0.703
44164W        W 9149  42.561  36.270  10.563
44165W        W 9150  13.209  14.357  12.472
44166W        W 9151  26.772  25.938  11.027
44167W        W 9152  10.195  41.072  12.988
44168W        W 9153  11.739   8.266   4.663
44169W        W 9154  11.832   8.737   0.779
44170W        W 9155  31.043  30.614  12.155
44171W        W 9156  39.260  22.120   0.763
44172W        W 9157  34.417  40.608  12.479
44173W        W 9158  10.258  42.574  13.612
44174W        W 9159   0.916  41.892   2.759
44175W        W 9160  41.404  42.273   0.941
44176W        W 9161   2.253  43.334  12.103
44177W        W 9162  18.032  40.117  14.852
44178W        W 9163   2.156   4.647  14.867
44179W        W 9164  33.553  37.177  12.498
44180W        W 9165  23.226  10.912   0.397
44181W        W 9166  11.260  14.269   0.729
44182W        W 9167  38.623  17.557   0.319
44183W        W 9168  11.781  21.083   3.104
44184W        W 9169   7.476  35.902  14.483
44185W        W 9170  18.594  10.553   4.196
44186W        W 9171  31.470  25.151   1.971
44187W        W 9172   3.300  32.943  11.181
44188W        W 9173  20.770   2.372   4.092
44189W        W 9174  39.096  18.779   0.749
44190W        W 9175  18.729  34.139  13.312
44191W        W 9176  19.567  12.442   2.597
44192W        W 9177  39.894  34.170   4.036
44193W        W 9178  14.414  19.621   1.788
44194W        W 9179  21.637  10.329   0.281
44195W        W 9180  11.895   1.859   2.790
44196W        W 9181  19.168   9.778   4.214
44197W        W 9182  44.891  24.678   0.786
44198W        W 9183  27.615   5.755   5.308
44199W        W 9184  10.590  12.083  10.690
44200W        W 9185   1.310  25.742   3.232
44201W        W 9186  29.395  12.314  12.223
44202W        W 9187  33.478  25.637   1.592
44203W        W 9188  31.399  28.484   2.798
44204W        W 9189   6.450  33.983  14.999
44205W        W 9190  20.155   8.659  11.197
44206W        W 9191   9.997  21.050   0.706
44207W        W 9192   9.780  30.565  12.278
44208W        W 9193  42.555  19.990  12.860
44209W        W 9194  22.081  40.532   4.855
44210W        W 9195  40.798  15.169   4.933
44211W        W 9196  16.117  13.459   3.219
44212W        W 9197  35.470  30.003   0.927
44213W        W 9198  33.129  42.694   1.039
44214W        W 9199  11.150   2.546  11.895
44215W        W 9200  30.838  39.128  14.847
44216W        W 9201  15.824  23.617   4.749
44217W        W 9202  12.618   5.972  10.783
44218W        W 9203   3.646   5.555  12.981
44219W        W 9204  15.634   5.917  12.177
44220W        W 9205   9.416   3.347   4.103
44221W        W 9206  16.931  34.400   0.731
44222W        W 9207   0.142  38.541  12.233
44223W        W 9208  17.561   1.432   2.032
44224W        W 9209  42.482  36.534  12.358
44225W        W 9210  31.120  35.886   2.730
44226W        W 9211   6.869  18.099   1.240
44227W        W 9212  42.385  31.753   0.480
44228W        W 9213  27.180  13.862  12.409
44229W        W 9214  44.527   6.690   1.447
44230W        W 9215   3.212  17.738  14.224
44231W        W 9216  23.951  28.981  13.914
44232W        W 9217  41.503   7.738  12.557
44233W        W 9218  27.083  24.437  14.405
44234W        W 9219  39.440  12.876  12.535
44235W        W 9220  17.648   3.623  14.503
44236W        W 9221  18.164  41.589   2.640
44237W        W 9222  40.405  24.999  14.363
44238W        W 9223  26.039  39.461   1.345
44239W        W 9224  43.548  13.587   3.160
44240W        W 9225  11.466   5.452  12.799
44241W        W 9226  26.741  18.996  11.101
44242W        W 9227  39.379  40.127   0.915
44243W        W 9228   8.967  21.455  10.829
44244W        W 9229   7.416  18.528   2.563
44245W        W 9230  34.231  29.677   1.260
44246W        W 9231  21.928  15.266  11.479
44247W        W 9232   9.414   8.575   0.255
44248W        W 9233  12.163  44.817   2.467
44249W        W 9234  11.948  40.746   3.701
44250W        W 9235  16.236  31.870   4.574
44251W        W 9236  13.939   7.729  11.059
44252W        W 9237  42.326   0.627   4.521
44253W        W 9238  12.916  40.349   3.623
44254W        W 9239  11.258  16.724   4.058
44255W        W 9240  12.916  41.728  11.592
44256W        W 9241  22.456  25.580  10.711
44257W        W 9242  27.128  42.703   3.567
44258W        W 9243  15.584   9.598   3.823
44259W        W 9244  38.889  41.782   1.264
44260W        W 9245  24.562  16.323  14.978
44261W        W 9246  43.209  10.875   4.123
44262W        W 9247  13.071  44.328   1.350
44263W        W 9248  37.944  30.645  10.698
44264W        W 9249  38.525  40.849  11.583
44265W        W 9250   7.651  16.642  14.924
44266W        W 9251  19.114  14.618   3.727
44267W        W 9252  37.842  41.021   0.857
44268W        W 9253  35.632   4.350   0.915
44269W        W 9254  41.815   7.329  12.467
44270W        W 9255  36.393  26.228   2.305
44271W        W 9256  31.636  28.733   4.069
44272W        W 9257  31.171  39.891  13.958
44273W        W 9258   5.235   3.237  11.157
44274W        W 9259  10.548   5.525  14.833
44275W        W 9260  36.073  36.326  11.864
44276W        W 9261  37.495  16.693  10.767
44277W        W 9262  10.723   2.801   0.390
44278W        W 9263  22.448  33.844   3.794
44279W        W 9264  42.593  27.041  10.514
44280W        W 9265  14.893  31.968   0.499
44281W        W 9266  13.750  11.260  10.796
44282W        W 9267   1.960  42.935   1.693
44283W        W 9268   4.717  20.256   4.691
44284W        W 9269  38.859  13.811  13.765
44285W        W 9270  17.573   9.110   1.622
44286W        W 9271  11.755   9.424  11.631
44287W        W 9272  34.183  38.059  12.902
44288W        W 9273  11.243  10.047   4.593
44289W        W 9274  14.742  35.384  12.402
44290W        W 9275   6.904  29.025  11.026
44291W        W 9276  41.988  16.089  10.313
44292W        W 9277  22.029  11.660   3.592
44293W        W 9278   4.783  16.604  11.095
44294W        W 9279   9.149  38.556   3.597
44295W        W 9280  14.666   7.437  10.921
44296W        W 9281  36.598  29.559   5.090
44297W        W 9282  42.470  26.327   5.452
44298W        W 9283  14.644  37.052  12.071
44299W        W 9284  19.506  41.382  14.029
44300W        W 9285   5.251  13.550  12.167
44301W        W 9286  44.532  19.591   2.292
44302W        W 9287  34.427  12.800   4.710
44303W        W 9288  31.673  25.813   1.250
44304W        W 9289  16.539  35.100   3.263
44305W        W 9290  41.543  31.387   2.294
44306W        W 9291   6.304   0.903   4.152
44307W        W 9292   4.278   4.771  12.014
44308W        W 9293   4.083  21.817  14.025
44309W        W 9294  36.549  42.727   2.922
44310W        W 9295   4.977  30.374  12.642
44311W        W 9296  21.973  10.832  14.257
44312W        W 9297  37.148  37.857  13.886
44313W        W 9298  13.424  18.086  12.121
44314W        W 9299  14.752  26.901  12.889
44315W        W 9300  41.733  35.517  11.992
44316W        W 9301  23.618   4.647  10.597
44317W        W 9302  36.351  42.289   4.179
44318W        W 9303  16.213  38.201  11.941
44319W        W 9304  10.866  11.455   0.272
44320W        W 9305  21.555  42.420  12.880
44321W        W 9306  12.677  12.066   4.019
44322W        W 9307   8.681  42.255  11.116
44323W        W 9308  31.012  32.906  14.360
44324W        W 9309  16.129  20.978   4.493
44325W        W 9310  17.103   7.337  13.580
44326W        W 9311  28.486  29.699  13.051
44327W        W 9312  17.152  23.037   4.559
44328W        W 9313   9.223   0.562   1.382
44329W        W 9314  13.862   5.228   3.653
44330W        W 9315  19.033  17.196   4.947
44331W        W 9316  41.796  35.404   4.088
44332W        W 9317  32.998  16.353  14.930
44333W        W 9318   4.786   5.300   0.676
44334W        W 9319  25.065  24.223  13.517
44335W        W 9320  27.460   0.291   1.256
44336W        W 9321   9.654  17.263  13.982
44337W        W 9322  15.123  43.305   0.407
44338W        W 9323  24.177  25.566  10.425
44339W        W 9324  17.775  27.500   3.246
44340W        W 9325  22.792  38.925   0.249
44341W        W 9326  37.405  37.238   1.759
44342W        W 9327  13.798  16.625  14.870
44343W        W 9328  25.028  17.670   4.629
44344W        W 9329  38.395  20.651  14.863
44345W        W 9330  18.685  30.901  11.895
44346W        W 9331  32.724  35.656   2.272
44347W        W 9332  30.377  28.064   4.780
44348W        W 9333  17.184  10.194  12.683
44349W        W 9334  31.830  20.176  12.929
44350W        W 9335  25.534  38.077   0.448
44351W        W 9336  15.294  18.000   1.257
44352W        W 9337  16.671   2.430  14.069
44353W        W 9338   6.934  37.365   1.675
44354W        W 9339  16.326   8.545   1.890
44355W        W 9340  43.995  43.052   4.575
44356W        W 9341  15.943  35.003   1.589
44357W        W 9342  24.656  44.197  11.122
44358W        W 9343   9.328  25.217  13.509
44359W        W 9344  30.665  10.137   2.181
44360W        W 9345  16.115  39.292  14.824
44361W        W 9346  32.410  11.688   2.810
44362W        W 9347  36.025  16.721  13.993
44363W        W 9348  36.933  24.887  13.317
44364W        W 9349  15.270   9.667   4.475
44365W        W 9350  28.404  26.663   1.097
44366W        W 9351  36.014  36.560   3.288
44367W        W 9352  19.200   1.557   0.934
44368W        W 9353   0.344   2.199   4.672
44369W        W 9354   2.491  34.015  12.912
44370W        W 9355  18.555   5.166  14.298
44371W        W 9356  29.968  32.476  10.725
44372W        W 9357   7.670  24.530   1.939
44373W        W 9358  44.788  44.410   2.166
44374W        W 9359  35.555  41.831  12.039
44375W        W 9360  12.803  33.029   0.953
44376W        W 9361  40.489  35.366   1.374
44377W        W 9362   8.166  35.423   1.960
44378W        W 9363  22.603  16.703  13.302
44379W        W 9364   8.810   9.079   3.357
44380W        W 9365  31.508  12.162   4.505
44381W        W 9366  17.950  41.495   4.263
44382W        W 9367   0.451   4.971  10.667
44383W        W 9368   7.254  14.791  11.575
44384W        W 9369  29.907  29.695  13.002
44385W        W 9370  21.755  22.612  12.132
44386W        W 9371  14.549   7.360  14.640
44387W        W 9372  31.131  33.666  14.848
44388W        W 9373  14.319  29.121   3.636
44389W        W 9374  36.136  28.164  11.194
44390W        W 9375  17.354  44.954  13.869
44391W        W 9376  25.293  19.696   3.917
44392W        W 9377  18.720  12.250  12.417
44393W        W 9378  16.721  25.865   4.965
44394W        W 9379  30.924  19.777  13.756
44395W        W 9380  36.674  39.408   3.864
44396W        W 9381   8.572  15.646  11.434
44397W        W 9382  34.573  37.613   3.125
44398W        W 9383  31.519  36.304   0.914
44399W        W 9384   8.198   5.717   3.612
44400W        W 9385   2.568  39.887   1.612
44401W        W 9386  36.944  29.879  10.728
44402W        W 9387  16.327  14.675   3.594
44403W        W 9388  43.029  37.600   3.779
44404W        W 9389   2.181  29.120  11.735
44405W        W 9390  33.565  31.413  13.596
44406W        W 9391  44.065  15.105  12.928
44407W        W 9392  18.501   6.790   3.262
44408W        W 9393  22.981  11.575   1.624
44409W        W 9394  17.035  13.532   4.048
44410W        W 9395  40.260  23.996  10.691
44411W        W 9396   3.106  22.420  10.637
44412W        W 9397  25.678  29.114  14.050
44413W        W 9398  20.102  32.013   2.201
44414W        W 9399  33.984  21.781  13.625
44415W        W 9400   0.889   9.106   2.649
44416W        W 9401  32.233   3.356  13.948
44417W        W 9402  42.972  40.770   1.256
44418W        W 9403  25.618   2.688  14.889
44419W        W 9404  26.741  28.120   2.881
44420W        W 9405  33.127   8.889   1.929
44421W        W 9406  24.977  14.353  13.975
44422W        W 9407  12.687  21.260  12.722
44423W        W 9408  42.923  26.412  14.535
44424W        W 9409  36.910  35.447   2.357
44425W        W 9410  20.983  10.830   2.096
44426W        W 9411  42.048  13.657   3.244
44427W        W 9412   1.610  29.473   2.799
44428W        W 9413  32.210  15.340   2.270
44429W        W 9414  32.674  20.012   0.956
44430W        W 9415   3.686   3.528  10.990
44431W        W 9416  14.899  19.092   4.007
44432W        W 9417   4.455  27.666  11.269
44433W        W 9418  14.021  39.646  14.079
44434W        W 9419  24.492  44.945  10.674
44435W        W 9420  20.240  20.304  13.006
44436W        W 9421  33.579   5.900  11.919
44437W        W 9422   1.318  42.619   1.288
44438W        W 9423  33.131  32.158  13.475
44439W        W 9424  15.333  36.102  11.753
44440W        W 9425  42.412  22.172   2.481
44441W        W 9426  32.156  35.906   2.686
44442W        W 9427  37.742  33.087  14.473
44443W        W 9428  31.669  34.685  12.500
44444W        W 9429  26.172  39.460  12.130
44445W        W 9430   0.161  34.006  10.104
44446W        W 9431   8.192  39.003  14.523
44447W        W 9432  23.569  30.770   9.684
44448W        W 9433  18.282  36.669   4.494
44449W        W 9434  17.376  13.834   0.021
44450W        W 9435  26.396   5.151  14.790
44451W        W 9436   7.388  39.794   1.279
44452W        W 9437  44.267  41.937  12.430
44453W        W 9438   2.879  24.583  13.267
44454W        W 9439   6.840  15.209   0.323
44455W        W 9440  42.065  16.450  10.839
44456W        W 9441  25.577  40.314   1.321
44457W        W 9442  44.556  16.269  12.378
44458W        W 9443  32.280  25.971  10.546
44459W        W 9444   0.521  35.053   3.805
44460W        W 9445  24.513  37.122   3.792
44461W        W 9446  14.780  28.792   2.555
44462W        W 9447  34.328  17.100  11.439
44463W        W 9448  42.388  10.624  12.493
44464W        W 9449   3.169  20.495   2.149
44465W        W 9450  24.519  17.119   1.284
44466W        W 9451  35.834  17.450  14.385
44467W        W 9452   2.804  29.077   1.991
44468W        W 9453  37.018  15.091   3.080
44469W        W 9454   4.665   3.882  10.688
44470W        W 9455  31.370  41.041   0.873
44471W        W 9456  30.876  11.656  14.815
44472W        W 9457  19.192  44.019  13.361
44473W        W 9458  29.953  16.804  10.460
44474W        W 9459  43.357  26.168  11.884
44475W        W 9460  16.079   8.731   2.289
44476W        W 9461   5.603   8.807   0.847
44477W        W 9462  36.430  15.702  14.438
44478W        W 9463  27.692  34.298  13.506
44479W        W 9464  31.432   3.443  14.883
44480W        W 9465  39.518  25.601  12.912
44481W        W 9466  31.913   9.785   4.592
44482W        W 9467  25.536  16.561  10.738
44483W        W 9468  11.725  32.343  10.450
44484W        W 9469  19.648  38.879   3.386
44485W        W 9470  29.537  37.747  11.117
44486W        W 9471  22.601  21.533  11.176
44487W        W 9472  35.993  14.348   1.684
44488W        W 9473  38.282  27.308  12.448
44489W        W 9474  15.176  13.744  12.242
44490W        W 9475   8.955  28.153   1.065
44491W        W 9476   2.787   2.280   3.351
44492W        W 9477  43.025  13.272   3.628
44493W        W 9478  38.596  32.462  12.561
44494W        W 9479  16.548  43.299   0.851
44495W        W 9480  14.107  23.287   0.934
44496W        W 9481  31.767  21.301   4.657
44497W        W 9482  12.336   7.694   0.269
44498W        W 9483  20.547  30.022   1.801
44499W        W 9484  23.906  28.590   2.106
44500W        W 9485  20.593   9.410  13.793
44501W        W 9486   8.837  38.930   0.565
44502W        W 9487  20.499  12.616  12.074
44503W        W 9488  42.343  26.219  14.376
44504W        W 9489   1.968  31.252   4.283
44505W        W 9490  12.286  31.896  14.171
44506W        W 9491  36.353  10.884  11.663
44507W        W 9492  29.994  41.294  14.708
44508W        W 9493  24.485  17.672  11.228
44509W        W 9494   1.995  37.678   2.812
44510W        W 9495   0.736  14.261  14.216
44511W        W 9496  40.966  44.222   1.423
44512W        W 9497  41.734  28.190  11.207
44513W        W 9498   6.437  44.694   1.283
44514W        W 9499  43.770  38.902  14.725
44515W        W 9500   1.935   6.209  10.577
44516W        W 9501   4.058  39.166  13.874
44517W        W 9502  27.758  13.060  11.601
44518W        W 9503  40.000  40.893  12.176
44519W        W 9504   4.391  39.503  12.579
44520W        W 9505  34.606  15.688  14.400
44521W        W 9506  29.573  32.454   0.618
44522W        W 9507  44.065  16.428  10.580
44523W        W 9508   6.439  38.440  11.355
44524W        W 9509   0.094  33.016  12.512
44525W        W 9510   3.776  12.132  11.099
44526W        W 9511  36.775  23.289  11.165
44527W        W 9512  32.916   5.685  13.080
44528W        W 9513   8.905  37.867  14.746
44529W        W 9514   5.708  28.491   1.022
44530W        W 9515  21.186  43.041  13.244
44531W        W 9516  14.950   1.914   5.014
44532W        W 9517  12.581   2.673   1.356
44533W        W 9518  13.394  35.162  11.496
44534W        W 9519  16.065   0.389   4.798
44535W        W 9520  18.824   0.556   2.279
44536W        W 9521  39.683  35.558  14.293
44537W        W 9522  19.257  33.650   2.233
44538W        W 9523  24.434  23.231   3.507
44539W        W 9524  12.299   4.270  13.586
44540W        W 9525  14.201  20.264  12.143
44541W        W 9526   2.798   2.770  12.071
44542W        W 9527  33.919  44.599   1.258
44543W        W 9528  31.104   2.713  13.950
44544W        W 9529   1.891  27.542  12.443
44545W        W 9530  17.699   7.855   1.393
44546W        W 9531  33.980  36.838  10.625
44547W        W 9532   9.106  27.165   0.127
44548W        W 9533  19.670  21.039   2.228
44549W        W 9534  15.559   8.347  14.496
44550W        W 9535   8.807  18.310  11.221
44551W        W 9536  14.461  36.412   3.380
44552W        W 9537  14.118  42.540   1.912
44553W        W 9538   1.991  44.410   3.142
44554W        W 9539  17.510  20.806  10.728
44555W        W 9540   9.323  21.848   4.004
44556W        W 9541  31.407  15.808  13.984
44557W        W 9542   3.727   1.031   1.905
44558W        W 9543   2.262  19.465  13.042
44559W        W 9544  17.664  41.179   3.256
44560W        W 9545  27.876  23.034   0.130
44561W        W 9546  23.127  33.941   3.251
44562W        W 9547   1.250  38.053  11.892
44563W        W 9548   5.540  33.314  14.138
44564W        W 9549  33.939  32.029   1.175
44565W        W 9550   0.341  42.832  11.609
44566W        W 9551  13.049  35.880  13.349
44567W        W 9552   3.625   5.604   4.519
44568W        W 9553  30.938  40.938  12.146
44569W        W 9554  36.293  34.840   0.261
44570W        W 9555  32.171  24.690  13.513
44571W        W 9556  29.527  19.118  10.905
44572W        W 9557  36.419  43.903   0.513
44573W        W 9558  43.442  24.985   0.447
44574W        W 9559  22.159   9.436   2.647
44575W        W 9560   4.147  14.398   1.705
44576W        W 9561  35.561  12.846   0.515
44577W        W 9562  15.287  44.397   2.933
44578W        W 9563  29.464  35.146  11.577
44579W        W 9564  28.155  25.466  12.517
44580W        W 9565  44.757  13.614  13.006
44581W        W 9566  30.204  19.672  13.464
44582W        W 9567  37.022  44.882   2.040
44583W        W 9568  23.529  30.672   0.902
44584W        W 9569  16.044  18.076   4.387
44585W        W 9570  17.881  18.526   0.398
44586W        W 9571  39.489  34.412   1.848
44587W        W 9572   1.409  20.765  10.432
44588W        W 9573  42.443  24.126  11.041
44589W        W 9574   7.492  36.917  14.348
44590W        W 9575  30.258  17.345  13.077
44591W        W 9576   8.867  29.332   4.047
44592W        W 9577  28.039   7.944   4.413
44593W        W 9578  21.704  18.570   2.112
44594W        W 9579  32.828  24.281  11.999
44595W        W 9580  12.356  39.391   1.335
44596W        W 9581  11.871  32.313  13.564
44597W        W 9582   1.198   9.957   2.609
44598W        W 9583  25.966  44.011   4.487
44599W        W 9584  37.819  31.748  12.974
44600W        W 9585  30.688   1.919  13.505
44601W        W 9586  30.991   1.383   0.880
44602W        W 9587  35.562   7.425   1.850
44603W        W 9588  11.202   0.497   0.821
44604W        W 9589  29.440  22.318   4.163
44605W        W 9590   6.868   2.760   4.490
44606W        W 9591  18.849  12.849  10.173
44607W        W 9592  37.960  27.568  11.560
44608W        W 9593  18.718   8.636  11.140
44609W        W 9594  40.541  17.948  12.660
44610W        W 9595   1.837  27.904   0.572
44611W        W 9596  44.186  20.115  13.522
44612W        W 9597  42.973  33.157   0.012
44613W        W 9598  23.442  15.716  14.518
44614W        W 9599  20.695   7.922   2.142
44615W        W 9600  42.892  42.468   1.273
44616W        W 9601   0.288  16.252   5.075
44617W        W 9602  38.037  39.467  10.498
44618W        W 9603  16.180  33.975  11.621
44619W        W 9604   4.894  33.412  11.672
44620W        W 9605  21.626  13.268  10.694
44621W        W 9606  33.897  25.049  11.619
44622W        W 9607   9.836  24.596   3.616
44623W        W 9608  43.417  30.150  13.844
44624W        W 9609  13.644  20.615   4.084
44625W        W 9610  20.838  39.844   1.790
44626W        W 9611  17.605   2.397   2.402
44627W        W 9612  28.710  40.492  14.695
44628W        W 9613   2.390  24.055   1.248
44629W        W 9614  13.201  29.952  14.705
44630W        W 9615  20.790  37.871  13.436
44631W        W 9616  35.915  26.023   1.457
44632W        W 9617   7.773  14.894  11.487
44633W        W 9618   8.350  13.712  14.218
44634W        W 9619  22.439  41.580  11.652
44635W        W 9620  31.413  17.128   1.755
44636W        W 9621   0.971  20.650   4.283
44637W        W 9622  20.246  13.719  14.042
44638W        W 9623  34.868  44.017   4.273
44639W        W 9624   8.723  40.582   2.604
44640W        W 9625  34.829   9.306   9.959
44641W        W 9626   6.882  41.936  11.178
44642W        W 9627  29.522  37.489  13.526
44643W        W 9628  20.255  31.566   2.444
44644W        W 9629  22.236  33.503   0.032
44645W        W 9630  37.100  42.905   1.856
44646W        W 9631   4.179  14.900   2.626
44647W        W 9632  41.505  39.291   4.625
44648W        W 9633  22.183  21.536  14.010
44649W        W 9634   3.571   7.884   4.433
44650W        W 9635  20.050  30.615  12.487
44651W        W 9636   7.632   3.414   2.250
44652W        W 9637   7.406  36.630  10.725
44653W        W 9638  16.777  12.683   2.330
44654W        W 9639  24.746  18.096   3.770
44655W        W 9640  38.127  24.454  14.472
44656W        W 9641  15.134   2.746  12.818
44657W        W 9642  39.361  21.569  13.794
44658W        W 9643  39.355  11.743   0.203
44659W        W 9644  15.765  25.898   9.990
44660W        W 9645  31.164  20.037   2.342
44661W        W 9646   9.585  19.202   4.688
44662W        W 9647  21.242  25.955   3.689
44663W        W 9648  32.678   2.912  13.070
44664W        W 9649  14.802  32.179   1.271
44665W        W 9650  12.284   3.680  14.212
44666W        W 9651   5.293   1.497  13.467
44667W        W 9652  13.661  15.841  13.857
44668W        W 9653  34.279  40.041   2.283
44669W        W 9654   3.380   8.719  13.963
44670W        W 9655  20.109  40.369   1.625
44671W        W 9656  10.748   4.219  14.494
44672W        W 9657  24.703  44.389   2.059
44673W        W 9658  35.918  42.364   1.370
44674W        W 9659  40.509   5.240  11.671
44675W        W 9660  26.743  13.320  14.381
44676W        W 9661  42.929  20.205   4.021
44677W        W 9662  12.354  33.441  11.981
44678W        W 9663  36.668  17.522  10.797
44679W        W 9664  30.963   3.229   4.194
44680W        W 9665  10.228  32.361   2.714
44681W        W 9666  25.233   9.253   3.180
44682W        W 9667  41.836  33.805  13.506
44683W        W 9668   3.436  29.169  12.960
44684W        W 9669   1.795  24.570  13.052
44685W        W 9670  17.378   9.047   1.114
44686W        W 9671  32.984  28.162  12.462
44687W        W 9672   1.258  33.022  11.132
44688W        W 9673  31.851  22.544  13.263
44689W        W 9674  12.870  36.945   1.408
44690W        W 9675  24.292  25.040  14.900
44691W        W 9676  39.047  24.097   1.219
44692W        W 9677   4.821  16.096  11.161
44693W        W 9678  34.566  40.866  11.105
44694W        W 9679  43.500  24.881  10.154
44695W        W 9680  20.012  43.059  12.243
44696W        W 9681  35.925  15.266   2.387
44697W        W 9682   1.837  30.121  12.099
44698W        W 9683  24.093  12.287  13.862
44699W        W 9684   7.104   7.441  11.175
44700W        W 9685  18.031  39.283   4.460
44701W        W 9686  24.637   4.419   0.820
44702W        W 9687  24.288  10.981   1.838
44703W        W 9688  17.634  17.173   2.224
44704W        W 9689  10.709  18.879   4.195
44705W        W 9690   2.848   4.035   2.710
44706W        W 9691  29.297   4.695   0.923
44707W        W 9692  34.607  20.082  10.785
44708W        W 9693  38.276  28.918   1.501
44709W        W 9694  19.794  14.309   0.837
44710W        W 9695  39.325  42.598  12.148
44711W        W 9696   9.682  27.751   1.418
44712W        W 9697  11.779   4.939   4.101
44713W        W 9698  39.642  10.174   2.630
44714W        W 9699  35.960  30.036   0.687
44715W        W 9700  31.782   4.362   2.887
44716W        W 9701  15.187  32.738   4.379
44717W        W 9702   9.809  29.124  13.334
44718W        W 9703  36.015  23.607   2.389
44719W        W 9704  28.468  14.234  14.137
44720W        W 9705  36.408   2.463   2.118
44721W        W 9706  15.113   4.668  14.123
44722W        W 9707   1.071  30.761  12.616
44723W        W 9708  38.571  23.030  10.714
44724W        W 9709   5.735  44.817  11.493
44725W        W 9710  14.627  27.880   3.150
44726W        W 9711  38.869  31.374  11.926
44727W        W 9712  38.078  43.511  11.107
44728W        W 9713  40.368  37.303  14.718
44729W        W 9714  21.533   4.808   9.901
44730W        W 9715  43.018  13.338  12.902
44731W        W 9716   4.227   8.009   1.590
44732W        W 9717   8.888  15.369  13.299
44733W        W 9718  11.852  22.578   0.209
44734W        W 9719  27.408  40.460   1.650
44735W        W 9720  20.552  13.278  11.501
44736W        W 9721  33.849  27.031  13.667
44737W        W 9722  16.726  11.042   4.785
44738W        W 9723  26.920   2.358   1.785
44739W        W 9724  37.966  17.056   0.923
44740W        W 9725  11.449  17.374  13.899
44741W        W 9726  15.330  30.234  11.174
44742W        W 9727  21.329   2.336   2.303
44743W        W 9728   3.950   7.611   4.659
44744W        W 9729  33.468   1.985   1.336
44745W        W 9730  19.184  30.825   1.811
44746W        W 9731  23.274  14.569   0.925
44747W        W 9732  37.810   7.561   4.007
44748W        W 9733  32.618  12.479   5.585
44749W        W 9734  41.268   9.700   3.527
44750W        W 9735  31.180   9.932  12.971
44751W        W 9736  21.994  37.922  14.062
44752W        W 9737  16.491  21.483   2.805
44753W        W 9738  23.485  26.854  14.386
44754W        W 9739  25.149   3.738  11.526
44755W        W 9740  17.140  18.093   0.771
44756W        W 9741  10.691  29.972  12.912
44757W        W 9742  20.566   2.209  11.169
44758W        W 9743   6.090   5.738   1.358
44759W        W 9744   4.750  32.061  10.794
44760W        W 9745  34.103  42.911  10.564
44761W        W 9746  37.498  32.879   3.811
44762W        W 9747  42.972  29.432  10.668
44763W        W 9748  27.220  35.917  11.606
44764W        W 9749  10.733  21.672   1.319
44765W        W 9750  20.201   6.070  13.785
44766W        W 9751   2.819  42.789   4.476
44767W        W 9752  10.619  44.395   4.169
44768W        W 9753  43.883  17.789   1.966
44769W        W 9754  25.268  11.776  11.151
44770W        W 9755   6.909   1.559  13.063
44771W        W 9756   8.187  33.052  12.383
44772W        W 9757  25.239   5.800  13.529
44773W        W 9758  12.044   2.708   0.793
44774W        W 9759  19.340  12.051   0.817
44775W        W 9760  12.594  40.041  11.116
44776W        W 9761  42.411  10.638   4.526
44777W        W 9762   4.208   1.795   3.180
44778W        W 9763  36.046  21.582   0.383
44779W        W 9764   2.828  16.321  13.288
44780W        W 9765   1.461  26.218   1.812
44781W        W 9766   5.433  33.588  11.887
44782W        W 9767   5.257   9.351   0.018
44783W        W 9768  42.854  21.543  10.826
44784W        W 9769  42.857  41.702  13.449
44785W        W 9770  17.749   5.908  14.948
44786W        W 9771   4.874   9.691  13.519
44787W        W 9772   4.801  18.311  13.570
44788W        W 9773  41.512   2.701  10.601
44789W        W 9774  36.855  36.983   1.862
44790W        W 9775  44.282   7.792  12.635
44791W        W 9776   3.272  28.520  12.123
44792W        W 9777  27.204  28.788  14.812
44793W        W 9778   6.452  34.016  13.477
44794W        W 9779   6.777   9.499  11.741
44795W        W 9780  15.586  24.233  11.118
44796W        W 9781  24.912   9.792   2.375
44797W        W 9782  28.610  40.292  12.852
44798W        W 9783  38.091  13.650  10.967
44799W        W 9784  30.405  33.928   2.197
44800W        W 9785  14.528  10.848   4.554
44801W        W 9786   9.868  27.644  12.555
44802W        W 9787  17.825  39.930   2.079
44803W        W 9788  16.184  34.528  10.757
44804W        W 9789  33.331  24.650   4.050
44805W        W 9790   6.895  43.940  14.704
44806W        W 9791  17.756   2.617   4.761
44807W        W 9792  25.619  27.692  12.920
44808W        W 9793  38.284  27.973   2.404
44809W        W 9794  32.407  40.166   4.111
44810W        W 9795  16.691  42.826  12.715
44811W        W 9796   9.353  31.619   1.469
44812W        W 9797  34.102   2.913   3.725
44813W        W 9798   6.362  14.137   1.957
44814W        W 9799  30.865   9.113  12.434
44815W        W 9800  23.095   1.591   5.150
44816W        W 9801   0.943  44.139  13.885
44817W        W 9802  32.203  29.138  12.892
44818W        W 9803   3.870  14.361   0.241
44819W        W 9804  16.616  16.598   0.333
44820W        W 9805  26.729  25.785   0.880
44821W        W 9806  11.551  32.873   2.927
44822W        W 9807  11.700  22.431   4.927
44823W        W 9808  39.277   2.040  13.400
44824W        W 9809   3.918  12.735  11.605
44825W        W 9810   8.655   1.217   4.556
44826W        W 9811  20.642  23.531   4.534
44827W        W 9812  22.321  29.667   0.907
44828W        W 9813  16.015  11.286   0.092
44829W        W 9814  16.443   1.422   2.811
44830W        W 9815   9.973  37.363   0.367
44831W        W 9816  35.595  18.553   2.365
44832W        W 9817  24.003   3.837   3.661
44833W        W 9818  24.525   7.880   3.347
44834W        W 9819   2.000  40.224  12.535
44835W        W 9820  11.657  24.205   4.053
44836W        W 9821  18.901   8.634   1.772
44837W        W 9822  31.597  11.688  12.128
44838W        W 9823  29.887  11.414  11.393
44839W        W 9824  19.260  39.370   3.599
44840W        W 9825  23.263  24.830   1.306
44841W        W 9826  27.893  19.232   4.514
44842W        W 9827  37.631  41.352   1.671
44843W        W 9828  11.212  40.326   3.272
44844W        W 9829  24.545  17.357  14.842
44845W        W 9830  22.947  22.577  12.557
44846W        W 9831  14.330  21.584  12.507
44847W        W 9832  36.555   0.470  12.902
44848W        W 9833  41.774  37.892  13.799
44849W        W 9834  15.998  32.626   3.694
44850W        W 9835  15.209  43.905  13.398
44851W        W 9836   8.822  22.763  11.130
44852W        W 9837  41.004  15.202  14.423
44853W        W 9838   9.901  16.902  12.912
44854W        W 9839   3.512  17.369  11.371
44855W        W 9840  27.512  15.642   1.989
44856W        W 9841  10.386   3.491   5.057
44857W        W 9842   8.713   6.958  12.782
44858W        W 9843  11.879   6.762  14.965
44859W        W 9844   2.901   8.619   9.727
44860W        W 9845  16.148  18.145   0.931
44861W        W 9846  29.838  37.567   0.958
44862W        W 9847  12.188  10.760   4.046
44863W        W 9848  27.480  39.729   3.197
44864W        W 9849  14.145   9.422  11.586
44865W        W 9850  16.245  26.154   2.453
44866W        W 9851  24.067   7.669   1.271
44867W        W 9852  37.636   7.086   3.912
44868W        W 9853  13.809  11.923   1.911
44869W        W 9854  11.765   8.769  12.929
44870W        W 9855  28.681  14.464   2.531
44871W        W 9856  30.473  39.148   3.365
44872W        W 9857   6.392  18.707  12.444
44873W        W 9858  27.038   0.370  11.021
44874W        W 9859   0.371  11.103   1.235
44875W        W 9860   7.429  34.357  13.491
44876W        W 9861  13.639  15.632  14.738
44877W        W 9862  15.362  38.065   4.622
44878W        W 9863  34.472  35.826  12.602
44879W        W 9864  44.270  26.052  11.611
44880W        W 9865  10.837   4.666   2.245
44881W        W 9866  41.883  23.025  14.457
44882W        W 9867  44.221  17.793  10.296
44883W        W 9868  30.144  27.226  14.935
44884W        W 9869  26.740  32.833  13.968
44885W        W 9870  35.969  32.166   1.102
44886W        W 9871  42.884  12.820   3.865
44887W        W 9872  23.761   5.260   4.180
44888W        W 9873  22.384  24.560   1.573
44889W        W 9874  30.671  42.449  12.472
44890W        W 9875  43.438  33.181  14.300
44891W        W 9876  44.086  17.172   3.548
44892W        W 9877  44.058  21.027  13.525
44893W        W 9878  21.957  28.496   3.727
44894W        W 9879   0.249  42.315  11.630
44895W        W 9880  17.212   0.560  11.431
44896W        W 9881   7.705  17.945  14.747
44897W        W 9882  28.876   9.171  13.922
44898W        W 9883   6.853  33.088   0.952
44899W        W 9884  29.156   8.775   1.207
44900W        W 9885  18.598   5.212   2.679
44901W        W 9886  37.356  33.653   2.255
44902W        W 9887   8.629  12.091  11.439
44903W        W 9888   3.099  32.882  12.365
44904W        W 9889  14.854  16.294  14.831
44905W        W 9890  12.684  43.457  13.888
44906W        W 9891  43.469  42.823   0.397
44907W        W 9892  25.705  22.099  12.434
44908W        W 9893  19.542   8.751   1.279
44909W        W 9894  41.953  19.566   1.464
44910W        W 9895  36.236   2.702  12.141
44911W        W 9896  30.994   4.032   3.154
44912W        W 9897  15.319  24.987   4.705
44913W        W 9898   3.337  29.200  13.459
44914W        W 9899  34.889  41.874  13.619
44915W        W 9900  26.241  44.019  13.394
44916W        W 9901  14.595  43.031   2.880
44917W        W 9902  20.749  36.099  13.943
44918W        W 9903  28.118  37.660   3.575
44919W        W 9904  30.537  28.981  14.935
44920W        W 9905  41.262  38.492   0.066
44921W        W 9906   2.923  36.846  14.997
44922W        W 9907  15.344  22.192  10.366
44923W        W 9908  37.484  38.784   1.685
44924W        W 9909  25.162  26.142   3.991
44925W        W 9910  29.249  24.763  13.933
44926W        W 9911  38.302   4.230   3.673
44927W        W 9912  42.035   7.289   4.136
44928W        W 9913  19.254   1.405  13.908
44929W        W 9914  16.721  21.340  14.990
44930W        W 9915  23.269  16.627   1.481
44931W        W 9916  16.296  10.903  13.329
44932W        W 9917  31.943  17.332   2.573
44933W        W 9918  27.332  23.178  11.336
44934W        W 9919   8.668  42.346   3.772
44935W        W 9920  24.197   2.289  12.495
44936W        W 9921  34.053  26.613   3.645
44937W        W 9922  23.816  23.323   1.700
44938W        W 9923  38.437   0.537  13.440
44939W        W 9924  13.657  14.865  12.146
44940W        W 9925   4.022  44.427   3.217
44941W        W 9926   6.257   4.728  12.026
44942W        W 9927  11.216  33.633   3.776
44943W        W 9928  16.100   5.663  14.045
44944W        W 9929   3.690  37.880   0.661
44945W        W 9930  33.480   6.878   9.630
44946W        W 9931  17.285  33.373   4.173
44947W        W 9932  22.065   7.938  13.523
44948W        W 9933  39.749   7.431  13.794
44949W        W 9934  31.142  13.771   0.436
44950W        W 9935  29.100  27.760  12.291
44951W        W 9936  14.358   8.925   3.683
44952W        W 9937  14.081   8.932  10.708
44953W        W 9938  41.373  21.531  13.518
44954W        W 9939  31.832   3.891   2.683
44955W        W 9940  35.645   5.751   4.199
44956W        W 9941  40.420   2.679  13.551
44957W        W 9942   0.095  24.510  14.722
44958W        W 9943   0.446  31.526   2.779
44959W        W 9944  35.589  36.398   2.626
44960W        W 9945  29.671  38.265  12.007
44961W        W 9946   2.881  39.540   0.966
44962W        W 9947   2.778  42.483  11.284
44963W        W 9948  42.696  29.796  13.138
44964W        W 9949  17.183  24.618   0.033
44965W        W 9950  35.189  11.632   1.285
44966W        W 9951  10.343   6.967  14.811
44967W        W 9952  10.314  40.790   1.495
44968W        W 9953   0.573   2.528   4.344
44969W        W 9954  37.279  28.076   3.323
44970W        W 9955  13.903  32.835   2.127
44971W        W 9956  27.405   9.259  12.587
44972W        W 9957   7.313  24.065   4.656
44973W        W 9958  10.483   4.204   1.316
44974W        W 9959   0.582  30.560  11.013
44975W        W 9960  39.543   1.805   1.942
44976W        W 9961  27.576  24.647  14.468
44977W        W 9962  31.646  16.388  10.639
44978W        W 9963  41.851   9.873  14.951
44979W        W 9964  19.631  11.643   0.538
44980W        W 9965   6.206  41.759  12.789
44981W        W 9966   9.374  43.705   1.744
44982W        W 9967   9.316  28.186  10.674
44983W        W 9968  43.898  39.287  11.652
44984W        W 9969  36.204  43.197  14.262
44985W        W 9970  29.310  32.018   0.286
44986W        W 9971   6.938  21.685  10.689
44987W        W 9972  39.041  33.876   0.289
44988W        W 9973  42.262  35.605   0.704
44989W        W 9974  36.592  43.908  14.541
44990W        W 9975  25.401  38.542   4.122
44991W        W 9976   2.218   2.996   0.216
44992W        W 9977  29.950   8.688   4.574
44993W        W 9978  31.049   2.272  14.924
44994W        W 9979  43.462   0.982   0.391
44995W        W 9980  18.849  25.464  13.226
44996W        W 9981  12.212  44.567   1.024
44997W        W 9982  25.250  35.337  11.003
44998W        W 9983  18.640  23.134   4.181
44999W        W 9984  23.999  29.921  12.916
45000W        W 9985   3.606  20.403  14.359
45001W        W 9986  37.526  36.600  14.437
45002W        W 9987  27.168  35.100  14.083
45003W        W 9988  13.044   1.039  11.731
45004W        W 9989  32.703  27.245   1.257
45005W        W 9990   1.217   1.977  13.071
45006W        W 9991   6.336  12.207   2.645
45007W        W 9992   5.804   3.174  12.914
45008W        W 9993  23.961  34.385   1.228
45009W        W 9994  29.362  41.910  11.100
45010W        W 9995  19.971   7.780   3.686
45011W        W 9996  10.650  41.791  13.954
45012W        W 9997   4.771  33.850  13.013
45013W        W 9998  42.913  41.514  12.969
45014W        W 9999   4.861   7.185   1.658
45015W        W10000  25.524  24.706  12.560
45016W        W10001  31.117   9.760   9.994
45017W        W10002  12.250  40.422  12.683
45018W        W10003   8.954  27.541   2.746
45019W        W10004  25.042   3.980  12.004
45020W        W10005  11.636  28.442  13.943
45021W        W10006  10.888  11.703   3.776
45022W        W10007  42.535   8.935   1.085
45023W        W10008   8.885  34.410   0.703
45024W        W10009  36.528   7.975   4.581
45025W        W10010  16.015   6.275  12.123
45026W        W10011  36.418  32.907   1.509
45027W        W10012   0.103  30.939   2.076
45028W        W10013  19.765  15.079   3.217
45029W        W10014   5.385  41.943   2.345
45030W        W10015  44.543  18.396   4.007
45031W        W10016  14.274  39.983   0.732
45032W        W10017  39.952   7.190   0.417
45033W        W10018   9.300  25.608  12.946
45034W        W10019   0.908   7.979   0.407
45035W        W10020  22.227  38.568  12.899
45036W        W10021   3.196  11.771   4.188
45037W        W10022  38.769   7.236   1.237
45038W        W10023   7.729  21.223  14.088
45039W        W10024  25.646  26.181  11.607
45040W        W10025  38.329  25.285   4.151
45041W        W10026  15.746   9.623   1.376
45042W        W10027  38.478   0.786  12.972
45043W        W10028  19.677  44.478  12.765
45044W        W10029   3.296  17.216   2.431
45045W        W10030  36.478  20.251   0.400
45046W        W10031  29.047  17.531   4.021
45047W        W10032  11.615  39.136  14.864
45048W        W10033  39.414  38.028   3.451
45049W        W10034  14.624   7.274  11.930
45050W        W10035  38.321   0.849  11.664
45051W        W10036   5.435  26.486   5.187
45052W        W10037   0.824  14.195   1.710
45053W        W10038   3.912   4.691   2.535
45054W        W10039  28.517  41.925   0.782
45055W        W10040  26.475  34.291  14.881
45056W        W10041  11.105  41.623  11.907
45057W        W10042  13.967  40.517   2.947
45058W        W10043  32.249  22.725  12.471
45059W        W10044  35.069  26.788   1.475
45060W        W10045   2.020  16.468   3.296
45061W        W10046  25.956  19.819   2.699
45062W        W10047  19.103  16.093  13.131
45063W        W10048  31.553  23.675  10.835
45064W        W10049  12.975  43.976   0.205
45065W        W10050   6.450  38.794  14.471
45066W        W10051  21.064   5.295  13.018
45067W        W10052   7.133  34.669   0.967
45068W        W10053  35.461  43.038  10.677
45069W        W10054   8.343  35.634   4.174
45070W        W10055  16.163  31.392   1.265
45071W        W10056  37.425   6.833   4.314
45072W        W10057  27.880  35.622   1.774
45073W        W10058  34.889  41.486  13.267
45074W        W10059  11.252  11.963   2.215
45075W        W10060  38.360   9.670   2.694
45076W        W10061   1.581  33.961  14.544
45077W        W10062  22.098  17.279  13.280
45078W        W10063  18.273  25.569   0.411
45079W        W10064  21.390  30.797  13.488
45080W        W10065  40.427  40.584  14.991
45081W        W10066  16.901  13.716   0.151
45082W        W10067  21.977   0.544   3.447
45083W        W10068   4.397  41.495  14.882
45084W        W10069  39.881  35.938  11.844
45085W        W10070  41.957  10.224  11.561
45086W        W10071  36.960  37.817   4.224
45087W        W10072  30.233   8.917   0.439
45088W        W10073  12.090   5.479   0.898
45089W        W10074   4.377   2.694   4.212
45090W        W10075  44.311  26.496   0.258
45091W        W10076  35.971  17.773   2.657
45092W        W10077  37.724  41.270   3.554
45093W        W10078  41.863  38.871  14.430
45094W        W10079  16.767  12.263  12.103
45095W        W10080  38.319   7.215   0.932
45096W        W10081  23.451  44.076  13.381
45097W        W10082   6.637   0.420  13.979
45098W        W10083  39.664   6.220   0.132
45099W        W10084  39.247  15.162  11.814
45100W        W10085  39.714   5.828  11.943
45101W        W10086   3.997  17.149   0.920
45102W        W10087  31.548  36.899   3.939
45103W        W10088  18.514  36.903   0.328
45104W        W10089  23.423   1.734   3.653
45105W        W10090  23.520  20.620   2.713
45106W        W10091  19.040  21.785   2.697
45107W        W10092  38.902  40.094   0.652
45108W        W10093  18.729   3.732   4.339
45109W        W10094  40.841   3.927  13.801
45110W        W10095  38.048  28.455   0.361
45111W        W10096  12.661  13.671  13.164
45112W        W10097   8.590  16.759   1.796
45113W        W10098   2.370  16.684  10.207
45114W        W10099  27.121  32.564   4.729
45115W        W10100  36.375  16.734  11.112
45116W        W10101  30.655   9.213  14.395
45117W        W10102   7.978  36.359   2.365
45118W        W10103   8.260  20.087  12.472
45119W        W10104  31.591  18.666   1.959
45120W        W10105  43.596  16.920   3.631
45121W        W10106   2.276  22.613   3.107
45122W        W10107  13.181  19.919  12.214
45123W        W10108   4.362  28.416  11.612
45124W        W10109  17.597  38.986   3.715
45125W        W10110  35.835  28.639   0.796
45126W        W10111  44.132  29.340  11.139
45127W        W10112  28.847  11.254   3.248
45128W        W10113  40.832  20.707   2.850
45129W        W10114  22.280   3.310  11.920
45130W        W10115  11.691  33.517  10.821
45131W        W10116  43.081  10.819  11.278
45132W        W10117  22.230  15.592  14.781
45133W        W10118  15.594  15.223  12.395
45134W        W10119  29.108  41.025  12.078
45135W        W10120  34.264  38.972  14.559
45136W        W10121  24.920  18.608   4.678
45137W        W10122   0.543   0.300   0.232
45138W        W10123  38.282  18.307   0.450
45139W        W10124  13.566  15.663   3.330
45140W        W10125   6.247  40.270  10.644
45141W        W10126  11.395  31.529   3.620
45142W        W10127  12.322  43.371   3.213
45143W        W10128  26.119  31.648   3.724
45144W        W10129  34.898  30.348  11.977
45145W        W10130  40.288  17.011   2.224
45146W        W10131   3.870   4.927  10.693
45147W        W10132  17.028  28.396  11.173
45148W        W10133  21.807  13.377   2.773
45149W        W10134   0.884  28.340   3.290
45150W        W10135  37.416   1.813   3.407
45151W        W10136  35.115   4.841   4.177
45152W        W10137   3.352  42.381   3.974
45153W        W10138  20.199  15.416  14.025
45154W        W10139   9.888   0.270   2.068
45155W        W10140  33.971  22.237  13.869
45156W        W10141  24.631  33.622   1.435
45157W        W10142  36.394   6.883   0.308
45158W        W10143   3.367  14.295   0.101
45159W        W10144  25.497  29.433   1.858
45160W        W10145   8.874  42.720  11.289
45161W        W10146  10.855  40.776  13.776
45162W        W10147   2.665  42.065   0.100
45163W        W10148  36.580   0.962  13.060
45164W        W10149   5.950  16.356   2.125
45165W        W10150   4.708  44.749  14.592
45166W        W10151  15.519  32.744   3.524
45167W        W10152   2.036  44.329  12.116
45168W        W10153  40.346  12.734   3.453
45169W        W10154   6.079  12.213  14.023
45170W        W10155  14.504  44.264   2.208
45171W        W10156  41.027  10.864  12.081
45172W        W10157   3.236  32.521   4.272
45173W        W10158   2.271  29.374   2.725
45174W        W10159  25.782  36.452  14.784
45175W        W10160  23.732  28.508  13.920
45176W        W10161  15.592  21.132   3.633
45177W        W10162  43.300  21.090   9.718
45178W        W10163  14.199  14.765   1.882
45179W        W10164  15.804   7.521   0.337
45180W        W10165  28.645  35.269  12.834
45181W        W10166  22.068  43.447   3.249
45182W        W10167  29.627  33.461   3.361
45183W        W10168   7.738   2.522   5.104
45184W        W10169   9.494  41.293  13.521
45185W        W10170  19.305  32.633  11.587
45186W        W10171  30.687   7.700  10.273
45187W        W10172  44.452  25.744   1.360
45188W        W10173  31.760  41.879   4.397
45189W        W10174  18.059  40.808   3.717
45190W        W10175  16.231  30.266  12.059
45191W        W10176  30.962  14.505  14.966
45192W        W10177  24.739  44.443  12.397
45193W        W10178   7.457  26.207  14.795
45194W        W10179  38.960  40.657  10.358
45195W        W10180  44.723  11.827  14.817
45196W        W10181  41.392  40.253   1.041
45197W        W10182  26.910  36.995   3.671
45198W        W10183  32.831  31.080  12.084
45199W        W10184   2.383  31.665  13.350
45200W        W10185  11.199  21.359  13.022
45201W        W10186  33.716   6.650  10.552
45202W        W10187  15.575  22.163  12.975
45203W        W10188  18.804  25.716  11.978
45204W        W10189  10.400  12.871   1.675
45205W        W10190  22.236  33.333  14.558
45206W        W10191  10.444  28.129   1.273
45207W        W10192  28.351  42.420   0.772
45208W        W10193  21.838   7.040  14.404
45209W        W10194  36.026  31.876   4.592
45210W        W10195  10.914   2.525  14.892
45211W        W10196  10.234  34.036  13.041
45212W        W10197  22.170  40.169  12.487
45213W        W10198  19.276  11.643  10.892
45214W        W10199  13.908  35.159  10.680
45215W        W10200   4.243  15.276   0.508
45216W        W10201   7.628  30.658   0.808
45217W        W10202   9.302   0.771  12.844
45218W        W10203  15.694   9.583  14.816
45219W        W10204   1.898  42.200  12.910
45220W        W10205  40.145  19.954   3.337
45221W        W10206  17.025  17.865   4.279
45222W        W10207  22.424  43.566   0.480
45223W        W10208  37.801  12.252   2.855
45224W        W10209   4.609  11.995   2.175
45225W        W10210  21.171   8.793   0.857
45226W        W10211  13.188  17.559   0.993
45227W        W10212  28.690  24.973  10.607
45228W        W10213   9.243  17.637  11.995
45229W        W10214  32.026  22.032   2.138
45230W        W10215  26.167  12.762   2.658
45231W        W10216  44.549  19.486   4.573
45232W        W10217  18.427  40.375  13.457
45233W        W10218  37.587  26.962   2.253
45234W        W10219  31.983  31.726   4.278
45235W        W10220  33.383  23.044   0.492
45236W        W10221  44.931  32.773  12.053
45237W        W10222  23.056  39.406   1.423
45238W        W10223  22.519  21.184  13.850
45239W        W10224   2.536  17.596  14.955
45240W        W10225  29.995  12.178   0.969
45241W        W10226  15.780  32.140   9.982
45242W        W10227  21.466  31.490   4.970
45243W        W10228   5.601  27.739   1.130
45244W        W10229  39.840   7.114  10.501
45245W        W10230   7.307   4.147  13.129
45246W        W10231   6.788  28.447  14.015
45247W        W10232  10.196   4.706   1.883
45248W        W10233  24.005  10.162   0.789
45249W        W10234  44.292   5.790   4.478
45250W        W10235  26.396  23.314  11.366
45251W        W10236  41.868   5.196  14.356
45252W        W10237   3.953  16.626   2.388
45253W        W10238  25.623  24.477  14.352
45254W        W10239  34.602   4.161  13.925
45255W        W10240  37.993  32.040  11.921
45256W        W10241  30.514   4.737   3.095
45257W        W10242  27.962  23.214   0.603
45258W        W10243  38.885   6.779  12.908
45259W        W10244  36.586   9.986  13.293
45260W        W10245  26.275  23.926   0.862
45261W        W10246  40.246   6.596  10.412
45262W        W10247  37.871  14.020  14.849
45263W        W10248   6.877  30.883  10.728
45264W        W10249  36.482  40.395   3.272
45265W        W10250  38.556  34.128  11.647
45266W        W10251  25.668  28.017   4.461
45267W        W10252  17.227  12.095  14.200
45268W        W10253   4.236  36.948   1.807
45269W        W10254   4.870  29.155  14.552
45270W        W10255  43.478  22.171  12.462
45271W        W10256  38.386  26.957  10.400
45272W        W10257  26.132  22.171  13.194
45273W        W10258  16.774   6.871  10.404
45274W        W10259  29.225   2.541   9.777
45275W        W10260  18.181  41.448  14.232
45276W        W10261  25.509   5.415   1.973
45277W        W10262  36.403  29.803   0.921
45278W        W10263  30.571   6.025  11.187
45279W        W10264  12.439  35.709   0.127
45280W        W10265  43.254  39.920   0.937
45281W        W10266  34.669  21.248  13.347
45282W        W10267  44.874   0.770  10.614
45283W        W10268  41.027  12.870  14.522
45284W        W10269  43.493  12.085   4.748
45285W        W10270  30.579   0.041  13.353
45286W        W10271  19.214  39.697   0.269
45287W        W10272   1.430  38.244   2.986
45288W        W10273   8.240   0.195  12.845
45289W        W10274  11.744  29.686  14.486
45290W        W10275  20.538  12.729  13.066
45291W        W10276  21.667  29.705  13.003
45292W        W10277  18.294  10.957   4.107
45293W        W10278  32.431   7.371  12.449
45294W        W10279  14.417  43.177  14.886
45295W        W10280  21.178  39.203   2.111
45296W        W10281  38.993  30.505   3.755
45297W        W10282   2.929  16.376  11.055
45298W        W10283  12.462  10.762   1.055
45299W        W10284  38.108  19.154   1.218
45300W        W10285  35.995  26.144  10.986
45301W        W10286  23.627  21.989   1.781
45302W        W10287  42.211  21.391  14.767
45303W        W10288  24.160  22.749   0.554
45304W        W10289  34.020  44.785  14.954
45305W        W10290  17.807  27.313  11.848
45306W        W10291  36.525  16.063   2.259
45307W        W10292  17.214  37.667   4.001
45308W        W10293  40.546  40.273   3.624
45309W        W10294   4.232  11.439   3.264
45310W        W10295   8.616   7.249   4.659
45311W        W10296   5.606  36.699   3.452
45312W        W10297  41.473  13.581  13.514
45313W        W10298  10.202  42.375   1.467
45314W        W10299   7.741  11.166   2.776
45315W        W10300  31.556  31.961   4.043
45316W        W10301  21.274  41.514  10.887
45317W        W10302  42.410  26.892  12.563
45318W        W10303  44.852   5.884   4.516
45319W        W10304  43.278  20.236  12.059
45320W        W10305  24.730  33.978  11.254
45321W        W10306  13.993  25.161  11.177
45322W        W10307  30.664  21.784   1.742
45323W        W10308  16.095  16.562  13.820
45324W        W10309   1.343  15.923  10.700
45325W        W10310   5.194   4.171   0.716
45326W        W10311  34.519  36.161   3.639
45327W        W10312  28.613  16.697  11.940
45328W        W10313  44.847   4.791   4.834
45329W        W10314  42.819  25.732   2.829
45330W        W10315  29.494  25.757   1.064
45331W        W10316  30.349  27.050  14.483
45332W        W10317  23.613   5.157  10.489
45333W        W10318  25.701  34.224  13.081
45334W        W10319  32.664   8.072  14.814
45335W        W10320   9.584  44.383  10.677
45336W        W10321  17.427  36.282  13.115
45337W        W10322  38.492  12.499   5.139
45338W        W10323  18.187  22.626   4.605
45339W        W10324   9.161  17.331   0.175
45340W        W10325  28.181  37.607   4.514
45341W        W10326  38.060   0.645   3.365
45342W        W10327  16.655  37.770  12.657
45343W        W10328  16.276  30.982   1.576
45344W        W10329  33.102  44.858  10.721
45345W        W10330  38.008  40.087   4.340
45346W        W10331  13.335  21.577   3.135
45347W        W10332  35.851  26.035  13.890
45348W        W10333   2.531  16.651   2.218
45349W        W10334  15.268  30.024   4.515
45350W        W10335   9.710  34.611  11.641
45351W        W10336  38.177  24.890  12.984
45352W        W10337  30.906  33.675   0.732
45353W        W10338  21.906   1.031  12.004
45354W        W10339  40.774  22.513   4.587
45355W        W10340  18.442   1.408   4.585
45356W        W10341  43.832  37.368  11.623
45357W        W10342  19.001  37.887   3.296
45358W        W10343   4.936  28.609  14.380
45359W        W10344  15.173   9.583  14.794
45360W        W10345   0.256   1.329   2.725
45361W        W10346  15.197  20.366  12.989
45362W        W10347  19.440  28.983   3.119
45363W        W10348  38.706  13.513   4.091
45364W        W10349   8.192  10.362  12.503
45365W        W10350  23.424  35.538  10.726
45366W        W10351  20.727  44.964   1.148
45367W        W10352  39.244   9.693  13.966
45368W        W10353  14.356  20.714  10.679
45369W        W10354  36.112  41.419   1.844
45370W        W10355  39.782   6.828   1.651
45371W        W10356  28.634   5.493  10.367
45372W        W10357  37.801  16.855  11.191
45373W        W10358  35.166  12.361   3.755
45374W        W10359  23.531  32.903  14.425
45375W        W10360   8.003  14.384   5.238
45376W        W10361   7.701  18.242  10.754
45377W        W10362  35.890  22.675  10.454
45378W        W10363  15.035  20.634   1.242
45379W        W10364  34.940  40.507   1.327
45380W        W10365  37.036  34.375  14.392
45381W        W10366  40.812  19.139   1.918
45382W        W10367  23.537  18.819  10.970
45383W        W10368  37.806  22.087   4.338
45384W        W10369  22.074   5.746   4.573
45385W        W10370  36.515   2.934   3.901
45386W        W10371  39.000  28.469  14.344
45387W        W10372  29.519  24.604  13.220
45388W        W10373   6.926  35.863  13.114
45389W        W10374  43.559  13.340   3.647
45390W        W10375   8.459  43.824  14.318
45391W        W10376   9.898  43.034   2.824
45392W        W10377  17.584  11.717   0.058
45393W        W10378  29.051   6.476   0.086
45394W        W10379  31.616  43.799  10.639
45395W        W10380  29.023  27.086   0.117
45396W        W10381  40.649  25.590   1.391
45397W        W10382  36.446  17.120  14.227
45398W        W10383  19.229  17.240   3.108
45399W        W10384  24.040  39.533   0.506
45400W        W10385  20.109  39.111  11.923
45401W        W10386  11.248  41.480   0.606
45402W        W10387  37.421  41.671  14.665
45403W        W10388  30.592  26.586  14.462
45404W        W10389  15.109  26.217   3.096
45405W        W10390   9.911  16.672  11.305
45406W        W10391   4.948  18.197  13.088
45407W        W10392  18.600  20.003   2.347
45408W        W10393   9.741  43.913   2.773
45409W        W10394  32.111  35.006  12.151
45410W        W10395  24.904   5.951   2.312
45411W        W10396  31.484  22.086   2.141
45412W        W10397  21.075  29.458   4.372
45413W        W10398  16.687  10.237   1.030
45414W        W10399  29.054  15.646   0.126
45415W        W10400   6.162  26.387   4.759
45416W        W10401  31.646  37.392  11.633
45417W        W10402   8.608   6.217   0.968
45418W        W10403  12.782   9.754   4.616
45419W        W10404  21.614  26.556  13.355
45420W        W10405  10.918  36.269   4.232
45421W        W10406  15.326  13.764  13.470
45422W        W10407  34.054  13.437   5.289
45423W        W10408   0.322   6.920  12.474
45424W        W10409  17.727  10.337  12.837
45425W        W10410  12.991  12.206  12.589
45426W        W10411  19.455  24.476   2.306
45427W        W10412  36.512  22.522  12.595
45428W        W10413  21.063  15.535  13.501
45429W        W10414  22.061   2.237  13.504
45430W        W10415  10.669  10.303  10.776
45431W        W10416  16.244  35.387  13.056
45432W        W10417   4.625  42.432  11.133
45433W        W10418   2.805  16.126   2.410
45434W        W10419  34.072  14.787   1.753
45435W        W10420  20.573  16.354  11.715
45436W        W10421  31.351  44.056   2.918
45437W        W10422  24.872  32.588  10.783
45438W        W10423  36.744  11.248  13.020
45439W        W10424  17.093   3.450  13.811
45440W        W10425  44.998  15.412  12.579
45441W        W10426  37.428  40.655   1.337
45442W        W10427  10.617  10.780   0.886
45443W        W10428  12.679   4.904  14.705
45444W        W10429   5.867  11.322  13.055
45445W        W10430  24.576  42.583  12.564
45446W        W10431  21.188  12.144  12.730
45447W        W10432  16.304   5.174  14.082
45448W        W10433   2.466  42.532   2.356
45449W        W10434  35.101   6.694  14.942
45450W        W10435  15.594   2.132   0.951
45451W        W10436  25.927   3.991   1.967
45452W        W10437  39.466  43.041   4.160
45453W        W10438  21.708   4.087  11.032
45454W        W10439  23.561  11.044   2.252
45455W        W10440  14.837  28.293   2.242
45456W        W10441  42.140  28.061   4.191
45457W        W10442  23.919  28.126   1.889
45458W        W10443  32.351   7.582   0.624
45459W        W10444   6.153  17.563   1.331
45460W        W10445  34.943   8.134  14.783
45461W        W10446   2.958  22.670   1.746
45462W        W10447   0.125   0.194  14.440
45463W        W10448  22.322  20.655  12.915
45464W        W10449  44.730   3.671   3.718
45465W        W10450  40.290  23.219  14.327
45466W        W10451  14.073  27.338   2.717
45467W        W10452  26.520  42.739   2.265
45468W        W10453  37.107  31.145   2.195
45469W        W10454  36.031  21.175  12.443
45470W        W10455  13.661  17.590   2.776
45471W        W10456  17.813  34.557  10.480
45472W        W10457  32.176  16.421  12.054
45473W        W10458  18.204  21.277  11.293
45474W        W10459  10.009  28.227  11.150
45475W        W10460   3.308  28.166  10.718
45476W        W10461  26.980  13.691   1.092
45477W        W10462  43.480  20.144  11.083
45478W        W10463   8.896  36.377  11.816
45479W        W10464   8.150  34.935   2.156
45480W        W10465   2.588  23.526   2.246
45481W        W10466   2.890  43.242  14.416
45482W        W10467   3.452   5.127  13.914
45483W        W10468  24.657  25.072  10.854
45484W        W10469  19.781  39.312   3.620
45485W        W10470  42.427  37.621   0.913
45486W        W10471  25.100  43.434  13.671
45487W        W10472   2.238   1.171   2.939
45488W        W10473  34.525  10.847  13.296
45489W        W10474  30.559  21.143   3.622
45490W        W10475  31.941  37.273   3.253
45491W        W10476   2.842  13.057  12.028
45492W        W10477  12.859  30.567  12.081
45493W        W10478  42.346  13.825  12.442
45494W        W10479  20.502  43.911  13.699
45495W        W10480  18.558  24.456  14.051
45496W        W10481  23.740  27.146  13.370
45497W        W10482  24.584  24.190   0.399
45498W        W10483  25.205  13.583  12.604
45499W        W10484   0.700  13.641   0.848
45500W        W10485  30.682  10.825  12.807
45501W        W10486  37.517   2.290  12.461
45502W        W10487  42.511  12.290  13.957
45503W        W10488  27.321   6.324  10.079
45504W        W10489  24.167  20.364   0.779
45505W        W10490  11.840  27.386  12.030
45506W        W10491  23.492  14.181   2.177
45507W        W10492   5.643  13.271  13.947
45508W        W10493  42.463   7.358  11.628
45509W        W10494  18.546  19.205  14.303
45510W        W10495  10.750   3.699  14.289
45511W        W10496  36.527  38.006   2.569
45512W        W10497  17.948  10.669  11.223
45513W        W10498  41.997   4.632   2.694
45514W        W10499  39.295  29.025   1.601
45515W        W10500   0.887  40.331  14.016
45516W        W10501   3.517  25.426  10.643
45517W        W10502  26.768  13.587  11.172
45518W        W10503  30.874   1.359  12.386
45519W        W10504  36.885  43.167  13.271
45520W        W10505  35.245  27.642  14.937
45521W        W10506  44.797   6.145   0.273
45522W        W10507   6.110  14.344  11.121
45523W        W10508  18.127  38.353   0.881
45524W        W10509  21.012  34.623   1.004
45525W        W10510  38.908  29.429  14.988
45526W        W10511  20.634  22.995  13.032
45527W        W10512  36.646  10.905   1.673
45528W        W10513  17.569   3.631   3.791
45529W        W10514  32.894  17.658   0.426
45530W        W10515  25.563  19.740   3.364
45531W        W10516  44.762  18.808   4.648
45532W        W10517  39.988  36.148   1.309
45533W        W10518  44.807  44.340  14.820
45534W        W10519  25.589  30.488  13.480
45535W        W10520  21.751   8.746   3.726
45536W        W10521   3.516   8.331   3.585
45537W        W10522   6.000  44.071  14.455
45538W        W10523  38.303  30.600  12.576
45539W        W10524  25.712  29.051  12.524
45540W        W10525  39.575   8.444   4.198
45541W        W10526   1.719  39.823   2.271
45542W        W10527  17.292  18.720   2.692
45543W        W10528  30.253   5.521  13.175
45544W        W10529  42.545  23.176   2.816
45545W        W10530   3.252  21.239  13.036
45546W        W10531  30.011  18.939   2.176
45547W        W10532  13.258  10.521   1.801
45548W        W10533  20.656   6.484   1.409
45549W        W10534  40.925  27.710  10.877
45550W        W10535  15.604  33.469  10.145
45551W        W10536  39.940  10.179   0.391
45552W        W10537  19.110  36.208  11.296
45553W        W10538  15.324  15.617   2.765
45554W        W10539  33.089   1.967   0.441
45555W        W10540   0.862  38.126   2.321
45556W        W10541  17.694   4.205  11.731
45557W        W10542   2.537  37.055  13.815
45558W        W10543   0.153  13.683   0.976
45559W        W10544  41.770  41.576  14.190
45560W        W10545  10.777  10.868   3.464
45561W        W10546   7.897  21.266   3.235
45562W        W10547  14.210  44.709   2.205
45563W        W10548  30.580   2.449  12.982
45564W        W10549  30.694  21.865  12.085
45565W        W10550  28.485  31.910   2.255
45566W        W10551  27.378  37.980  11.449
45567W        W10552  44.289  18.833   0.513
45568W        W10553  33.098  28.468   4.677
45569W        W10554  16.832  11.014   0.712
45570W        W10555  21.682  27.922  14.572
45571W        W10556   3.410  23.117   0.919
45572W        W10557   8.870  29.470  12.989
45573W        W10558   3.970  36.573  11.572
45574W        W10559  15.264  41.607   2.672
45575W        W10560  24.119   8.592  14.050
45576W        W10561  38.999  30.363  14.362
45577W        W10562  17.071  14.337   1.402
45578W        W10563   7.353  42.416   0.060
45579W        W10564   9.886  24.699   1.868
45580W        W10565  39.035  24.806  11.944
45581W        W10566  26.532  34.867  13.448
45582W        W10567   9.443  31.395  13.531
45583W        W10568   9.325  32.920  14.722
45584W        W10569  30.401  31.462  14.983
45585W        W10570  10.342  27.955   3.753
45586W        W10571  20.587  16.285  11.123
45587W        W10572  35.027  15.052   2.428
45588W        W10573  44.248  18.563  14.133
45589W        W10574  14.575  41.079  12.866
45590W        W10575  43.762   4.777  12.746
45591W        W10576  43.407   1.504  10.656
45592W        W10577   2.259  39.537  12.051
45593W        W10578  10.927  35.101   1.619
45594W        W10579  36.366   4.720   4.667
45595W        W10580   7.575   6.795  14.835
45596W        W10581   7.211  40.885   0.347
45597W        W10582  12.334  14.048  12.602
45598W        W10583   6.903  37.249  11.965
45599W        W10584  35.822  30.463   4.211
45600W        W10585  33.015  14.300  11.022
45601W        W10586   6.424  10.802   2.291
45602W        W10587  24.878  26.043   1.789
45603W        W10588  29.709   2.756   4.816
45604W        W10589  23.986  44.505  11.749
45605W        W10590   4.629  12.576  11.133
45606W        W10591  21.520  15.390  12.589
45607W        W10592   7.045  26.549   1.129
45608W        W10593  35.937  15.802  10.569
45609W        W10594  29.483  40.659   4.296
45610W        W10595  12.102  25.491   1.379
45611W        W10596   4.765  32.624   1.442
45612W        W10597  10.450  17.638   2.489
45613W        W10598  13.280   4.626  12.102
45614W        W10599  27.653  41.292  10.651
45615W        W10600   9.575  44.083  13.465
45616W        W10601  31.539  42.895   0.445
45617W        W10602   5.634  13.763   1.753
45618W        W10603   3.220   7.920   4.829
45619W        W10604  26.347  41.944  11.640
45620W        W10605  21.121  44.118  11.778
45621W        W10606  29.129  19.381  11.707
45622W        W10607  30.189  19.918   2.340
45623W        W10608  16.607  28.226   2.615
45624W        W10609  21.776  27.955  12.671
45625W        W10610  18.315  24.187   4.493
45626W        W10611  25.056  24.705   0.882
45627W        W10612   2.674  38.982  14.447
45628W        W10613  23.139  41.559  14.893
45629W        W10614  25.550  10.375  13.903
45630W        W10615  39.895   2.158   3.309
45631W        W10616  15.510   5.345   1.876
45632W        W10617  32.189  29.216   1.758
45633W        W10618  28.099  44.450   2.372
45634W        W10619   4.470   1.970   4.600
45635W        W10620  16.683  11.447   2.516
45636W        W10621  41.904  15.067  10.303
45637W        W10622  20.124  37.343  12.928
45638W        W10623  43.786  19.547   1.306
45639W        W10624  30.655   8.501   2.925
45640W        W10625   3.750  39.108  14.757
45641W        W10626   5.171  41.771   0.423
45642W        W10627  43.824  10.796  11.580
45643W        W10628  44.959  37.122   4.489
45644W        W10629  25.238  34.666   1.790
45645W        W10630  28.069  33.017   0.863
45646W        W10631  16.995  28.526  14.941
45647W        W10632  25.049   3.738  11.014
45648W        W10633  19.083  11.094  13.932
45649W        W10634   2.026  27.244   1.813
45650W        W10635  36.636  18.758  13.866
45651W        W10636  20.790   4.324   2.797
45652W        W10637  13.615  17.432  12.659
45653W        W10638  22.780   5.485   1.773
45654W        W10639   1.781  29.456  13.519
45655W        W10640  44.303   4.684   5.103
45656W        W10641  36.818  30.549  13.111
45657W        W10642  28.642  16.984   0.508
45658W        W10643  34.144   7.420  12.565
45659W        W10644  41.613  18.926  10.318
45660W        W10645  13.100   9.838  11.481
45661W        W10646   2.936   3.788  13.822
45662W        W10647  37.100  18.155  14.785
45663W        W10648  24.220   9.149  11.673
45664W        W10649  44.552   1.983   0.862
45665W        W10650  17.237  23.018   3.662
45666W        W10651  15.367  32.437  14.764
45667W        W10652  40.233  19.030  14.505
45668W        W10653  36.086   3.732  12.058
45669W        W10654  42.301  28.206   5.140
45670W        W10655  16.609   5.763  12.995
45671W        W10656  18.621   4.647   4.056
45672W        W10657  19.433   3.384   3.144
45673W        W10658  43.913  35.023   3.223
45674W        W10659  11.727  30.174   3.673
45675W        W10660   1.726  19.061  11.791
45676W        W10661  40.210  42.461  13.997
45677W        W10662   4.454   4.928  14.943
45678W        W10663  28.644  40.057   0.007
45679W        W10664  14.154  17.761   1.129
45680W        W10665  21.597   9.456  12.974
45681W        W10666  30.462   8.890   3.217
45682W        W10667  24.587   3.552   4.227
45683W        W10668  21.436  17.044  12.972
45684W        W10669  28.088   0.944  14.565
45685W        W10670  26.429  20.776  11.662
45686W        W10671  16.030   9.758   2.335
45687W        W10672  44.859   1.350  11.182
45688W        W10673  21.226   3.752  13.389
45689W        W10674  31.084  33.025   2.738
45690W        W10675  11.877  37.750   2.721
45691W        W10676  41.737  11.346   1.827
45692W        W10677  16.026   4.197   0.229
45693W        W10678  34.645  29.019   1.828
45694W        W10679   7.897  14.767  11.001
45695W        W10680   1.387   2.933  14.327
45696W        W10681   1.854  25.707   4.840
45697W        W10682   7.116   7.462   2.890
45698W        W10683  18.431  44.499  10.784
45699W        W10684  12.194  14.681   2.998
45700W        W10685   0.120  24.124  10.811
45701W        W10686  26.276  35.528  10.967
45702W        W10687  30.447   6.355   3.303
45703W        W10688   7.180  14.135   1.769
45704W        W10689  13.098   8.039  12.565
45705W        W10690  38.531   6.771   0.760
45706W        W10691  41.488  44.961   4.631
45707W        W10692   0.234   5.830  14.036
45708W        W10693  40.225  30.032  12.938
45709W        W10694   5.024  29.724  14.623
45710W        W10695   4.452   3.820  11.161
45711W        W10696  41.842  43.735   2.795
45712W        W10697   6.824  35.936  11.168
45713W        W10698   4.168  11.646   0.374
45714W        W10699  19.249   2.041  13.982
45715W        W10700  30.590  32.286   4.972
45716W        W10701  35.816  15.552  13.240
45717W        W10702  16.688  27.418  13.875
45718W        W10703   6.704  12.602   4.941
45719W        W10704  22.610  25.965   0.863
45720W        W10705  19.771  24.366   0.611
45721W        W10706  25.664  29.368   2.771
45722W        W10707  17.943  16.145   4.336
45723W        W10708  29.058   2.276  13.005
45724W        W10709  11.298   3.751  10.989
45725W        W10710  37.625  42.538   1.131
45726W        W10711  13.922  36.997   4.162
45727W        W10712  30.224  25.078   4.048
45728W        W10713  25.765  15.178  10.324
45729W        W10714   4.289  13.285  13.155
45730W        W10715   7.726  28.726   4.142
45731W        W10716  42.929  36.531  10.855
45732W        W10717  20.664   6.150   1.872
45733W        W10718   7.355   9.174  14.330
45734W        W10719  40.490  13.824   1.838
45735W        W10720   0.103  21.666   1.240
45736W        W10721  16.276  14.938   2.198
45737W        W10722  44.237  26.309  12.042
45738W        W10723  35.549  25.639   1.279
45739W        W10724  40.767  33.933  12.217
45740W        W10725  26.460  14.345   1.473
45741W        W10726   5.893   1.756  12.839
45742W        W10727   1.385  12.161   3.380
45743W        W10728  30.111  40.804   3.757
45744W        W10729  13.871  38.017  12.082
45745W        W10730   4.479  15.724   0.425
45746W        W10731  23.020  18.717  11.011
45747W        W10732  29.001  13.114  11.163
45748W        W10733  30.970   9.324  10.719
45749W        W10734  21.891  10.288  13.342
45750W        W10735  30.387   3.874   2.759
45751W        W10736   4.660  35.038   1.115
45752W        W10737   4.419  12.815  11.557
45753W        W10738  26.665   1.890  13.970
45754W        W10739  18.747  42.258   0.925
45755W        W10740  19.413  26.384   3.415
45756W        W10741  35.426  21.315   3.252
45757W        W10742   1.544  44.065  14.813
45758W        W10743  33.329  30.463   3.055
45759W        W10744  26.597   0.032  12.854
45760W        W10745  22.523  42.913  13.631
45761W        W10746   2.641   0.357  10.719
45762W        W10747  26.715  13.201  12.428
45763W        W10748  32.508  23.148   1.800
45764W        W10749   5.956  26.990  13.015
45765W        W10750  18.025   9.608   0.407
45766W        W10751   6.949   3.696   4.949
45767W        W10752  42.393  14.656   4.734
45768W        W10753  20.329   0.899   4.450
45769W        W10754  12.410  23.851  11.128
45770W        W10755  12.644  44.878  14.713
45771W        W10756  10.165  44.966  12.597
45772W        W10757  18.671  38.821  14.488
45773W        W10758   6.960  34.630  10.737
45774W        W10759  31.545  40.860  13.878
45775W        W10760   1.315  14.815  10.726
45776W        W10761   6.421  16.210   4.741
45777W        W10762  25.019  33.017   2.089
45778W        W10763  40.752  35.612  12.975
45779W        W10764  28.888   9.535   2.023
45780W        W10765  14.411   4.773  11.226
45781W        W10766  13.899  25.053  10.690
45782W        W10767  35.643  18.764   0.669
45783W        W10768   7.411  14.331  12.959
45784W        W10769  27.992   8.442   1.263
45785W        W10770  22.241  39.536   0.265
45786W        W10771  38.745  41.870  11.520
45787W        W10772  39.074   9.085   1.511
45788W        W10773  26.686  42.896   3.738
45789W        W10774  33.877  17.220   1.923
45790W        W10775  35.021  36.767   0.233
45791W        W10776   7.766  16.059   1.666
45792W        W10777  38.770  10.892   3.346
45793W        W10778  31.373  24.952   3.389
45794W        W10779  42.292   1.885   1.519
45795W        W10780  32.685  35.966   2.695
45796W        W10781   8.845  39.751   3.242
45797W        W10782  38.256  18.647   4.521
45798W        W10783  34.613   6.916  11.546
45799W        W10784   1.475  33.637  13.804
45800W        W10785  12.558   0.555   2.385
45801W        W10786  35.895  15.368   0.922
45802W        W10787   4.509  18.610  11.231
45803W        W10788   7.182  32.392   4.893
45804W        W10789  42.766  26.634   1.840
45805W        W10790  38.662  27.972  11.302
45806W        W10791  35.050   6.876  11.842
45807W        W10792  27.788  43.540  12.052
45808W        W10793  19.061  24.238  12.595
45809W        W10794  21.539  32.893   2.613
45810W        W10795  21.692   1.479   2.818
45811W        W10796  35.919  17.617   4.313
45812W        W10797   7.586  13.774   4.119
45813W        W10798  12.185   7.166  12.319
45814W        W10799  31.915  15.358   2.716
45815W        W10800  24.031  17.445  12.413
45816W        W10801  28.989  20.587   0.876
45817W        W10802   4.667  13.549  14.937
45818W        W10803  18.529  18.635   2.324
45819W        W10804  14.607  30.206   4.151
45820W        W10805   0.907  11.661   1.427
45821W        W10806  22.046  20.114  12.553
45822W        W10807  10.664  37.992   1.329
45823W        W10808  28.814  34.980   2.989
45824W        W10809  37.780  29.511   2.266
45825W        W10810  29.812   6.807   0.406
45826W        W10811  12.541  38.473  10.744
45827W        W10812  21.798  27.363  14.681
45828W        W10813  42.482  24.995  11.121
45829W        W10814  15.305   8.985  12.214
45830W        W10815   3.234  30.398   0.923
45831W        W10816  29.153  13.374   0.119
45832W        W10817  23.158   4.518   3.842
45833W        W10818  31.407  30.819   0.175
45834W        W10819   1.708  29.736   1.471
45835W        W10820  14.766  16.660   3.197
45836W        W10821  11.096  26.623  14.588
45837W        W10822   5.998   8.249   1.270
45838W        W10823  42.582  44.344   1.074
45839W        W10824  41.201  29.207   3.097
45840W        W10825   3.353  27.171  11.333
45841W        W10826   1.820  28.950  10.943
45842W        W10827   3.502  34.471  11.511
45843W        W10828  39.077  44.547   1.993
45844W        W10829  15.731  35.012  14.339
45845W        W10830  28.474  12.643   0.315
45846W        W10831  19.058  32.945   0.490
45847W        W10832  18.740  40.061  10.860
45848W        W10833  21.636   2.765   4.790
45849W        W10834  11.789  37.867   0.919
45850W        W10835  26.586  16.995   0.978
45851W        W10836  15.138  43.715   4.583
45852W        W10837  32.588  18.088  12.612
45853W        W10838  25.727   8.372   4.235
45854W        W10839  23.414  42.841   3.585
45855W        W10840  39.261  34.778  13.510
45856W        W10841  39.494  33.502   3.304
45857W        W10842  25.760  20.274   4.598
45858W        W10843  42.017  39.820  11.615
45859W        W10844  16.830  18.986  11.118
45860W        W10845  12.204   8.165  12.374
45861W        W10846  32.597  39.640  11.582
45862W        W10847  20.784  38.547   4.035
45863W        W10848  43.396  18.587  14.241
45864W        W10849  10.283  41.850  12.069
45865W        W10850  18.332   0.705   0.310
45866W        W10851  22.678  34.974  12.340
45867W        W10852  21.731   0.289   2.198
45868W        W10853   5.610  16.288   1.708
45869W        W10854   3.173   8.465   4.984
45870W        W10855  27.915  25.084  13.669
45871W        W10856  17.191  42.298   4.104
45872W        W10857   6.793   4.053  14.470
45873W        W10858  24.793  10.064   2.827
45874W        W10859   8.204  17.392   3.049
45875W        W10860  21.163   7.942   3.843
45876W        W10861   9.361  40.107  12.014
45877W        W10862  33.181  24.135  12.338
45878W        W10863  14.285   3.881  13.952
45879W        W10864  43.604   1.784   4.247
45880W        W10865   3.419  28.797  11.601
45881W        W10866  43.988  28.522  12.020
45882W        W10867  34.981  35.927  14.430
45883W        W10868   3.133  29.442  12.050
45884W        W10869  11.657  17.163   2.378
45885W        W10870  32.638  29.437   3.299
45886W        W10871  22.148  12.876   2.354
45887W        W10872  31.972  25.464   2.897
45888W        W10873  17.687  31.994   0.259
45889W        W10874  35.967  28.042  14.987
45890W        W10875  42.256  39.019   0.404
45891W        W10876  32.000  24.742  10.711
45892W        W10877  37.936   3.538   0.965
45893W        W10878  44.708  21.217   0.271
45894W        W10879  25.848   0.621  11.968
45895W        W10880  24.036  31.076  12.594
45896W        W10881  26.292  17.010  11.522
45897W        W10882  32.918  32.176   2.185
45898W        W10883  25.509  24.389   4.093
45899W        W10884  17.358   2.954  13.871
45900W        W10885   8.784  23.176  11.428
45901W        W10886  33.604  37.406  12.021
45902W        W10887  18.030  11.043  12.010
45903W        W10888  24.885  43.850  13.962
45904W        W10889  28.613  26.264  14.816
45905W        W10890  24.710  10.128   0.037
45906W        W10891  19.286  17.512   9.708
45907W        W10892   1.121   5.942   4.174
45908W        W10893  26.193  22.502   0.055
45909W        W10894  10.773  34.686   0.875
45910W        W10895   3.726  32.458   4.469
45911W        W10896  42.596  21.615  14.470
45912W        W10897   7.247   0.548   1.834
45913W        W10898  16.601  43.848  11.685
45914W        W10899  42.287  11.138  12.434
45915W        W10900   8.543  22.593   3.249
45916W        W10901   0.438  39.345   1.574
45917W        W10902  34.727  14.658   0.067
45918W        W10903   4.933  35.022   0.091
45919W        W10904  21.214  17.242   2.799
45920W        W10905   3.867  31.097   0.292
45921W        W10906   4.316  37.385  14.906
45922W        W10907   4.436  36.453  10.636
45923W        W10908  41.436  34.892  12.929
45924W        W10909  43.012  11.096   3.635
45925W        W10910  13.304  42.259  13.410
45926W        W10911  12.067  15.948  12.602
45927W        W10912  28.070  29.307  14.829
45928W        W10913  26.509  14.189  14.870
45929W        W10914   9.280   2.717   0.372
45930W        W10915  18.496  38.071   0.633
45931W        W10916  22.116   3.002  12.306
45932W        W10917  17.306  31.587  10.895
45933W        W10918  21.851  42.067   0.783
45934W        W10919   9.206  32.952   0.252
45935W        W10920  42.754  40.963   0.761
45936W        W10921  21.788   7.195  11.017
45937W        W10922  18.484  21.178   0.226
45938W        W10923  29.519  15.415   0.658
45939W        W10924  18.003  37.875  12.459
45940W        W10925   1.036   5.942   3.283
45941W        W10926  29.929  36.719   0.992
45942W        W10927  40.492  20.957   1.930
45943W        W10928   9.029  24.210  11.198
45944W        W10929  13.756   3.752  12.612
45945W        W10930  25.122  33.435   3.950
45946W        W10931  21.552  36.427  13.084
45947W        W10932  25.154  17.769   3.774
45948W        W10933  24.114   6.334  12.953
45949W        W10934   4.090  40.243   0.309
45950W        W10935   0.176  37.665  12.554
45951W        W10936  16.786  17.001   3.937
45952W        W10937  12.336  10.217   2.732
45953W        W10938   1.970   3.845  13.615
45954W        W10939  24.648  16.638   0.391
45955W        W10940  18.672   2.475   3.723
45956W        W10941   3.968  23.281  13.795
45957W        W10942  11.431   7.579   4.657
45958W        W10943  28.059  14.141   1.862
45959W        W10944  25.682  43.294  13.195
45960W        W10945  33.806  13.185  13.071
45961W        W10946  19.538  41.754  11.664
45962W        W10947   2.380   6.553   0.859
45963W        W10948  42.421  44.823  13.108
45964W        W10949  11.641   5.237   0.762
45965W        W10950  44.286  28.746  14.988
45966W        W10951  19.912   5.285   4.993
45967W        W10952   1.033  38.510   2.633
45968W        W10953  36.657   8.481   9.473
45969W        W10954  37.588   9.654  11.330
45970W        W10955  13.057  16.039   3.654
45971W        W10956  12.670  16.830  11.199
45972W        W10957  25.072  44.849  12.315
45973W        W10958   5.730  26.254   3.415
45974W        W10959  33.831  32.019  11.731
45975W        W10960  16.753   2.657  12.992
45976W        W10961  36.898   6.299   1.675
45977W        W10962  42.355   2.385  12.905
45978W        W10963  35.845  24.196   3.175
45979W        W10964  38.888  24.800   1.748
45980W        W10965  28.457  25.061   3.580
45981W        W10966   9.933  37.013  14.485
45982W        W10967  17.353  25.712   4.214
45983W        W10968  16.646  38.847  14.361
45984W        W10969   5.751  28.417  11.550
45985W        W10970  26.201  44.360  14.948
45986W        W10971  11.287  19.152  10.539
45987W        W10972  32.663  18.824   0.276
45988W        W10973  19.830  22.953   4.540
45989W        W10974  37.883  26.151   1.375
45990W        W10975   0.974  27.414  13.862
45991W        W10976  29.583  30.320   1.243
45992W        W10977   3.881  30.831   2.623
45993W        W10978  24.306  19.146  14.907
45994W        W10979  34.327  20.941  11.563
45995W        W10980   3.548  33.994   1.912
45996W        W10981   5.767  14.285  10.721
45997W        W10982  11.237  31.712   0.814
45998W        W10983  19.040  11.980   3.251
45999W        W10984   8.613  18.310   4.597
46000W        W10985  39.353  41.290   2.082
46001W        W10986  37.493  27.681  12.173
46002W        W10987  36.931  12.774   3.326
46003W        W10988  38.053  15.010  12.000
46004W        W10989  21.288  38.556   1.202
46005W        W10990  20.662   5.447  11.559
46006W        W10991  23.044  29.475  11.953
46007W        W10992  12.058  44.874  13.001
46008W        W10993  25.383   8.920  11.403
46009W        W10994  38.376  34.800  13.067
46010W        W10995   0.230  43.423  14.120
46011W        W10996  26.834  14.199  13.398
46012W        W10997  35.082  16.108   0.684
46013W        W10998  39.732  41.770  11.454
46014W        W10999  18.755  26.456  10.781
46015W        W11000   1.038  28.615   2.875
46016W        W11001  26.030   7.490  10.516
46017W        W11002   3.445  19.251  11.526
46018W        W11003   2.333  18.577   1.660
46019W        W11004  27.934   4.278   4.176
46020W        W11005  36.882  32.124  13.480
46021W        W11006  25.469  35.499  10.569
46022W        W11007  41.283  43.855   1.588
46023W        W11008  37.353  19.651  11.598
46024W        W11009  18.602  41.391  12.160
46025W        W11010  41.282  43.186  14.414
46026W        W11011  11.083  11.663   1.377
46027W        W11012  35.699  30.591   4.839
46028W        W11013  10.490  32.792  12.925
46029W        W11014  24.790  25.052  11.366
46030W        W11015  29.661   1.936  13.657
46031W        W11016  32.174  33.692   0.791
46032W        W11017  39.392  34.293  13.598
46033W        W11018  24.858  25.200   0.830
46034W        W11019  22.029  12.595  14.081
46035W        W11020  19.178  20.910  13.959
46036W        W11021  27.115  34.019  13.375
46037W        W11022  13.008  11.784   2.608
46038W        W11023  20.638  12.229  12.936
46039W        W11024   6.345  33.889  14.507
46040W        W11025  40.505  27.280   2.289
46041W        W11026  41.415  37.964   5.191
46042W        W11027  36.040  39.567   1.782
46043W        W11028  17.141  42.521  12.216
46044W        W11029  43.977  39.264  10.699
46045W        W11030  18.370   7.103   1.197
46046W        W11031  38.171  37.804   9.612
46047W        W11032  12.733  28.662   4.159
46048W        W11033  39.294   1.795   3.789
46049W        W11034  17.741  32.306  13.225
46050W        W11035  42.276  23.999  13.494
46051W        W11036  39.441   8.875   2.217
46052W        W11037  19.764  25.569   3.316
46053W        W11038  27.924  44.368   2.848
46054W        W11039  25.135  31.689  13.363
46055W        W11040  22.207  41.869  13.773
46056W        W11041  21.805  25.109   4.056
46057W        W11042  22.231  16.527   4.644
46058W        W11043  21.123  34.104   2.645
46059W        W11044  12.316   5.767   1.878
46060W        W11045   0.904  30.686  10.429
46061W        W11046  38.403  28.885   2.325
46062W        W11047   2.659  32.928   0.813
46063W        W11048  28.055  43.240  10.706
46064W        W11049   0.490  41.584  14.235
46065W        W11050  17.676  27.698  13.337
46066W        W11051   1.103  14.730  11.181
46067W        W11052   9.719  44.595  13.476
46068W        W11053  11.913  27.993  13.055
46069W        W11054  28.924   7.708  11.050
46070W        W11055  25.319  24.941  14.035
46071W        W11056  20.126  33.547   3.207
46072W        W11057  22.676   4.884  14.471
46073W        W11058  40.838   0.915  11.618
46074W        W11059  27.547  30.775  13.928
46075W        W11060   8.207  18.255  10.883
46076W        W11061  14.213  19.775  14.500
46077W        W11062  29.248  15.756  13.392
46078W        W11063   1.755  43.731   4.226
46079W        W11064   0.901  26.956   3.046
46080W        W11065   3.201  26.950   0.444
46081W        W11066  33.985  35.194   9.832
46082W        W11067   9.858  31.915   2.143
46083W        W11068  27.083   5.152  12.530
46084W        W11069  18.701   2.905   1.150
46085W        W11070   1.962  34.667   2.707
46086W        W11071  33.653  36.913   0.933
46087W        W11072  15.337  38.433  13.391
46088W        W11073   0.966  42.094   0.529
46089W        W11074  26.025  40.717  11.204
46090W        W11075  24.227  18.722  11.303
46091W        W11076  15.832   1.581  11.601
46092W        W11077  44.897  11.460  13.530
46093W        W11078   3.376  16.217   1.408
46094W        W11079  20.263  32.057  10.746
46095W        W11080  24.489  33.119   1.427
46096W        W11081  15.603  28.737  11.906
46097W        W11082   6.934  39.096  11.616
46098W        W11083  36.598  24.623   2.278
46099W        W11084  11.438  24.160  11.182
46100W        W11085   1.443  37.891   0.009
46101W        W11086   9.933  11.241  10.544
46102W        W11087   7.077  29.504  11.044
46103W        W11088  23.267  18.793  10.051
46104W        W11089  41.492  29.731   4.941
46105W        W11090  43.519  12.315  13.884
46106W        W11091  21.052  44.764  12.504
46107W        W11092   6.406  28.802   4.261
46108W        W11093  27.580  43.799   4.245
46109W        W11094  22.087  13.251   3.251
46110W        W11095   4.792  13.758   2.368
46111W        W11096  24.553   4.432  14.900
46112W        W11097  29.005  19.486   0.048
46113W        W11098  23.631  30.369  10.620
46114W        W11099  31.378  19.816  14.654
46115W        W11100   4.833  18.596   0.286
46116W        W11101  30.391   7.761   3.688
46117W        W11102   1.503  10.338   0.959
46118W        W11103  21.759   4.798   0.878
46119W        W11104  15.533  20.274  13.864
46120W        W11105  42.087  11.320   4.208
46121W        W11106  30.244  26.418  11.680
46122W        W11107  18.108  41.306  12.097
46123W        W11108  22.530  27.641   4.840
46124W        W11109  24.391  36.165   5.215
46125W        W11110  33.108  42.244   3.289
46126W        W11111  29.056  13.269  12.481
46127W        W11112  37.218   0.841   1.860
46128W        W11113  43.490  28.511   0.269
46129W        W11114  40.527  42.044   4.554
46130W        W11115  24.486  28.475   1.255
46131W        W11116  12.055  35.371   1.844
46132W        W11117  42.958   4.438   4.457
46133W        W11118  33.547  43.919  10.329
46134W        W11119  34.602   1.642  13.917
46135W        W11120  29.699  23.230   4.803
46136W        W11121  14.715  27.863  14.701
46137W        W11122   7.454  21.161   0.389
46138W        W11123   1.780  19.062  14.280
46139W        W11124  30.618  32.053   2.660
46140W        W11125  36.011   7.368   4.982
46141W        W11126  33.939  35.421  10.958
46142W        W11127   3.426  40.063  13.403
46143W        W11128   6.402  11.881  12.076
46144W        W11129  25.129  33.414   1.359
46145W        W11130  27.498  35.993   1.691
46146W        W11131   3.663   0.710  11.461
46147W        W11132  30.691  13.556  12.083
46148W        W11133  19.275  44.022   0.502
46149W        W11134  27.065   2.275   3.729
46150W        W11135  33.103  12.887   3.911
46151W        W11136   2.373  43.701   1.854
46152W        W11137  19.147  40.402   1.694
46153W        W11138  19.191  12.325   1.311
46154W        W11139   4.038   1.161  14.985
46155W        W11140  24.663   4.663   2.609
46156W        W11141   9.182  40.500   2.959
46157W        W11142  21.225  39.511  11.390
46158W        W11143  42.903  14.724   4.677
46159W        W11144  41.540  25.280   1.749
46160W        W11145  40.124  39.781  11.582
46161W        W11146  41.960  12.559  11.463
46162W        W11147  22.003   1.878  10.993
46163W        W11148   9.627  27.244   2.760
46164W        W11149  18.156  30.937  11.789
46165W        W11150   1.345   3.322  13.384
46166W        W11151   8.933  10.862  12.492
46167W        W11152  31.890  24.417  11.099
46168W        W11153  34.086   7.776   1.674
46169W        W11154  18.236  37.524   2.192
46170W        W11155  31.923   6.927   2.333
46171W        W11156  42.786  24.569  11.151
46172W        W11157   3.445  13.378   3.327
46173W        W11158  11.218  30.644   0.784
46174W        W11159  43.003   5.717   0.884
46175W        W11160  19.304  11.311   0.302
46176W        W11161  43.990  13.598   0.197
46177W        W11162  27.041  40.602   0.361
46178W        W11163  20.314  39.284   3.769
46179W        W11164  19.788  31.405  14.985
46180W        W11165  41.289  38.651  12.206
46181W        W11166  38.561   6.482  12.135
46182W        W11167  20.758  28.562  14.331
46183W        W11168  37.512  14.571   1.396
46184W        W11169  22.774  26.091   3.649
46185W        W11170  37.007  36.197  13.159
46186W        W11171  29.864  42.429   3.117
46187W        W11172  32.676   9.743  12.900
46188W        W11173  15.569  24.510  11.559
46189W        W11174  25.265  28.071  11.583
46190W        W11175   3.490   8.709   3.235
46191W        W11176  28.021  21.234   2.961
46192W        W11177  12.547  12.772   4.732
46193W        W11178  34.992  25.280   2.919
46194W        W11179  23.739  42.004  14.492
46195W        W11180  21.280  18.011  13.827
46196W        W11181  14.724  14.729   0.283
46197W        W11182   9.635  23.595  14.228
46198W        W11183   5.384   4.497   1.558
46199W        W11184  14.249  10.808  11.619
46200W        W11185  18.339  24.016  14.264
46201W        W11186  11.887  29.754  11.702
46202W        W11187  40.979  25.786  13.541
46203W        W11188  17.287  40.917   4.860
46204W        W11189  12.606  14.633   2.347
46205W        W11190  10.431  17.589   1.910
46206W        W11191  41.130  17.025  14.752
46207W        W11192  41.742  32.015  11.092
46208W        W11193  41.293  17.254   0.211
46209W        W11194  30.424  29.136  10.101
46210W        W11195   5.186  14.378  14.931
46211W        W11196   9.183  35.559   0.194
46212W        W11197  33.161   7.348   0.820
46213W        W11198  12.907   5.263   1.182
46214W        W11199  38.874  32.157   1.918
46215W        W11200  44.369  34.404   1.391
46216W        W11201  16.552  12.724   3.728
46217W        W11202  42.325   0.495  12.707
46218W        W11203  16.525   4.242   1.905
46219W        W11204  14.886  26.614   0.986
46220W        W11205  31.194  31.878  12.627
46221W        W11206  12.704  16.462   1.348
46222W        W11207  14.432  20.097  11.696
46223W        W11208  17.870  43.939   1.737
46224W        W11209  15.939  34.353  10.317
46225W        W11210  43.964   2.963   1.803
46226W        W11211  22.773  19.112  11.384
46227W        W11212  13.770  10.368  12.490
46228W        W11213  17.826  44.730  12.542
46229W        W11214  20.666  22.463  12.948
46230W        W11215  22.603  24.078   3.746
46231W        W11216  19.291   9.024   3.556
46232W        W11217   1.552  43.498   3.313
46233W        W11218  36.513  22.832   0.559
46234W        W11219  36.343   4.635   3.590
46235W        W11220  29.689   4.923  10.172
46236W        W11221   9.849  36.497  14.329
46237W        W11222  22.678   7.901   3.625
46238W        W11223  40.193  32.935  11.001
46239W        W11224   2.000  39.736  12.431
46240W        W11225   6.648  41.563   2.366
46241W        W11226   6.048   2.713  14.206
46242W        W11227  24.266  42.921  11.943
46243W        W11228   9.585  34.896  14.607
46244W        W11229   2.516   3.289   4.176
46245W        W11230  34.625   7.275   0.805
46246W        W11231  20.953  44.568  12.010
46247W        W11232  34.078  43.719   1.962
46248W        W11233  32.040  41.347  10.785
46249W        W11234  30.546   6.609   4.310
46250W        W11235  39.253   7.620  12.517
46251W        W11236  42.410  38.151   4.946
46252W        W11237  35.361  23.733  12.984
46253W        W11238  20.783  35.623   1.793
46254W        W11239   0.941  22.972   0.894
46255W        W11240  41.281  39.081  10.991
46256W        W11241  39.035  16.298   0.702
46257W        W11242  44.045  36.421   2.127
46258W        W11243   4.423   3.839  13.476
46259W        W11244  13.288  14.781  11.408
46260W        W11245  30.153  40.580   4.712
46261W        W11246  24.940   5.121  12.000
46262W        W11247  28.896   5.215  13.019
46263W        W11248  10.663  30.446  13.599
46264W        W11249  10.825  24.953  12.476
46265W        W11250  31.489   8.678  13.534
46266W        W11251  35.045  12.890   1.379
46267W        W11252  27.892  32.839  13.363
46268W        W11253  43.259  23.088  10.707
46269W        W11254  33.491  22.475  11.959
46270W        W11255  31.907  33.078   1.233
46271W        W11256   9.850  43.904   3.291
46272W        W11257  23.114  17.366  11.901
46273W        W11258  43.816   4.693   0.275
46274W        W11259  30.095  30.749  13.123
46275W        W11260  44.456  15.088   3.207
46276W        W11261  15.915   2.137  10.150
46277W        W11262  32.400  23.572   2.380
46278W        W11263  18.001  19.064  11.773
46279W        W11264   7.766  24.971  12.562
46280W        W11265  15.130  22.676   0.479
46281W        W11266  24.437  26.528  13.424
46282W        W11267  26.174  35.095   4.652
46283W        W11268  28.158  11.139  12.951
46284W        W11269   2.411  33.507  11.701
46285W        W11270  35.513  18.833  13.403
46286W        W11271  15.419   2.251  12.067
46287W        W11272  22.165  29.551  12.906
46288W        W11273  23.074  30.306   4.203
46289W        W11274  18.395   8.754   3.639
46290W        W11275  33.764  30.389  13.443
46291W        W11276  43.476  30.933  10.922
46292W        W11277   1.882  30.629  14.923
46293W        W11278  38.804  16.800  14.878
46294W        W11279  14.874  41.911  13.880
46295W        W11280  23.980  21.132   4.561
46296W        W11281  11.589  36.280   1.862
46297W        W11282  15.354  22.279   1.275
46298W        W11283   9.346  20.564  11.474
46299W        W11284  19.372  29.078  12.470
46300W        W11285  43.271  11.683   4.525
46301W        W11286  19.704  17.540   4.005
46302W        W11287   9.904  11.702  13.831
46303W        W11288  40.738   3.882   4.582
46304W        W11289  29.601  43.031  13.451
46305W        W11290  40.735   7.812  14.536
46306W        W11291  16.287   3.756  10.963
46307W        W11292  43.870  22.837   0.665
46308W        W11293  23.177  11.193  11.558
46309W        W11294  11.929  20.152  11.252
46310W        W11295  18.283  34.436  14.459
46311W        W11296  17.617  35.207   2.750
46312W        W11297   1.392  33.354   3.652
46313W        W11298  31.522  28.436  11.078
46314W        W11299  44.025  36.633  12.292
46315W        W11300  20.767  43.597   1.536
46316W        W11301  40.473  39.787   4.562
46317W        W11302  33.987  27.183   0.863
46318W        W11303  36.284  43.175   4.652
46319W        W11304  14.499  39.349   0.899
46320W        W11305  14.354  26.025   2.292
46321W        W11306   8.786  29.791   3.662
46322W        W11307  43.475   8.014   4.209
46323W        W11308  18.225  18.103   4.508
46324W        W11309  38.139  39.618  13.424
46325W        W11310  30.874   1.589  13.136
46326W        W11311  14.240  26.521   2.926
46327W        W11312  29.993  41.544   3.209
46328W        W11313   8.594   3.082   1.700
46329W        W11314  41.031  11.370  10.635
46330W        W11315  30.394  24.597  14.477
46331W        W11316  28.017   0.202   3.314
46332W        W11317  30.918  25.601   4.417
46333W        W11318  13.395  38.742   4.253
46334W        W11319  30.618  10.900   3.392
46335W        W11320  37.134   4.935  13.468
46336W        W11321  44.861  17.270  14.743
46337W        W11322   9.175  19.413   4.397
46338W        W11323  36.000   0.328   1.031
46339W        W11324  42.084  20.733   2.266
46340W        W11325  41.038  37.614   1.103
46341W        W11326  20.581  19.879  11.721
46342W        W11327   0.773  43.324  12.763
46343W        W11328  44.501  32.152   2.281
46344W        W11329  14.237  17.221   2.636
46345W        W11330  39.225  38.896  11.133
46346W        W11331  38.578  16.982   9.614
46347W        W11332  16.883  38.368  13.449
46348W        W11333  26.505  23.092   0.028
46349W        W11334   2.889  21.247   4.643
46350W        W11335  35.690  23.970   1.741
46351W        W11336  11.253  28.593   3.358
46352W        W11337   5.394   3.792  14.100
46353W        W11338   8.814   7.374  12.431
46354W        W11339  43.844   9.157   3.336
46355W        W11340   8.937  25.078  12.626
46356W        W11341  29.450  40.432   0.749
46357W        W11342  18.774   9.112   4.649
46358W        W11343  22.164  35.523  10.650
46359W        W11344  29.998  24.962   2.301
46360W        W11345  43.417  25.542   0.259
46361W        W11346  44.998  35.373  10.676
46362W        W11347  43.860  13.746  11.676
46363W        W11348  16.765  40.239  12.437
46364W        W11349  20.835  18.187   3.162
46365W        W11350  44.017  15.541   3.767
46366W        W11351  42.418  25.358  14.965
46367W        W11352   0.400   2.931   1.295
46368W        W11353  31.815  15.743  12.478
46369W        W11354  15.282   7.547   1.853
46370W        W11355  22.087  10.914  12.118
46371W        W11356  20.116  25.951   1.289
46372W        W11357  36.593   6.800   3.305
46373W        W11358  32.861  40.319  13.446
46374W        W11359   9.131  33.108   4.126
46375W        W11360  11.146  26.079  11.068
46376W        W11361  14.576  10.112  11.025
46377W        W11362  21.145   8.483   1.746
46378W        W11363  11.146   0.518   2.875
46379W        W11364  20.870  44.017   2.393
46380W        W11365  24.923  28.413  12.097
46381W        W11366  19.558  43.745  14.058
46382W        W11367   7.563   8.120   0.274
46383W        W11368  26.974  36.398  13.810
46384W        W11369  12.334   7.661   2.142
46385W        W11370  23.498  28.940   0.904
46386W        W11371  19.354  21.201   1.218
46387W        W11372  12.766   1.053   4.029
46388W        W11373  35.667  23.657   0.189
46389W        W11374  16.362  19.431  10.332
46390W        W11375   8.605   5.258   0.774
46391W        W11376   4.863   9.660   5.111
46392W        W11377  43.684   0.498   4.091
46393W        W11378   1.899  20.266  13.018
46394W        W11379   4.684  31.644   0.468
46395W        W11380  32.041  17.770   3.334
46396W        W11381  13.745   4.950   1.855
46397W        W11382  38.013  41.986   4.652
46398W        W11383  27.479   6.632   3.134
46399W        W11384  24.579   7.429   4.163
46400W        W11385  24.334  40.845  12.307
46401W        W11386  19.131  27.218   5.467
46402W        W11387  41.766  28.832   5.421
46403W        W11388   7.925   9.771  10.384
46404W        W11389  17.674  23.020  10.787
46405W        W11390  12.454  11.148  12.556
46406W        W11391  26.024  34.133  14.709
46407W        W11392   8.992  44.201   1.378
46408W        W11393   2.423  24.444   4.764
46409W        W11394   1.577   2.879  11.625
46410W        W11395  27.116  17.904   4.625
46411W        W11396   3.670  21.054  11.606
46412W        W11397  11.274  34.541  12.153
46413W        W11398  43.013  25.907  14.593
46414W        W11399   1.281  28.249   2.574
46415W        W11400   4.383  26.779  10.487
46416W        W11401  23.824  29.033  10.306
46417W        W11402  44.024   9.426  11.942
46418W        W11403   2.748  37.124  11.204
46419W        W11404  10.111  38.424   0.379
46420W        W11405  36.904  17.293   2.287
46421W        W11406  26.484  44.400   2.187
46422W        W11407  31.561  21.994   1.623
46423W        W11408  41.821   1.265  12.148
46424W        W11409  22.033  22.436  13.040
46425W        W11410  16.806  44.467   2.697
46426W        W11411  29.704  43.338   0.291
46427W        W11412  13.401  39.806  10.787
46428W        W11413  24.240   6.364   4.500
46429W        W11414   8.601  15.688  14.511
46430W        W11415  18.175  20.870   4.969
46431W        W11416  36.830  36.005   1.065
46432W        W11417  15.719  34.897   0.335
46433W        W11418  40.065  30.336   0.970
46434W        W11419   6.262  27.512   4.516
46435W        W11420  34.081  20.470   2.905
46436W        W11421   6.438  37.910   1.282
46437W        W11422   8.943   0.030  12.024
46438W        W11423  10.630   3.491   3.630
46439W        W11424  26.560   0.450   0.361
46440W        W11425  36.564  43.119  14.922
46441W        W11426  13.723  23.703  12.032
46442W        W11427  40.800  22.724   4.134
46443W        W11428  41.994  14.872  12.383
46444W        W11429  33.645  12.671  12.372
46445W        W11430  28.358   6.662   2.343
46446W        W11431  28.129  18.728   5.182
46447W        W11432  38.181  30.333   1.728
46448W        W11433   1.767   5.603   2.818
46449W        W11434  27.494  43.487  13.151
46450W        W11435  23.336  13.045   4.032
46451W        W11436  32.003  22.133   4.156
46452W        W11437  25.663  14.188   0.454
46453W        W11438  12.532  29.505   5.045
46454W        W11439   4.409  36.450   1.726
46455W        W11440   8.037  18.905  12.128
46456W        W11441  17.827  31.613  10.749
46457W        W11442   3.385  33.049   0.402
46458W        W11443  20.451  32.124  14.477
46459W        W11444  21.060  26.469   1.460
46460W        W11445  25.185  31.446   1.751
46461W        W11446  11.363  36.943   4.646
46462W        W11447  43.403  13.831   2.680
46463W        W11448  39.545  32.776   2.232
46464W        W11449  38.231  28.049  12.949
46465W        W11450  36.907  30.879  12.480
46466W        W11451  39.044   1.250   1.417
46467W        W11452   2.493  43.286   3.058
46468W        W11453  30.950  41.445  11.996
46469W        W11454  38.533  11.155  14.018
46470W        W11455  43.934  14.204  14.851
46471W        W11456  22.034   2.768  10.680
46472W        W11457  29.090  43.757   1.759
46473W        W11458  43.725   1.331  12.511
46474W        W11459  40.539   3.037  13.987
46475W        W11460   2.421  30.126   3.663
46476W        W11461  38.694  36.422   4.369
46477W        W11462  18.222   0.469  14.831
46478W        W11463  13.583  26.967  14.849
46479W        W11464  40.603  14.223   9.728
46480W        W11465  22.747   8.813   3.690
46481W        W11466   9.936  13.754  12.436
46482W        W11467  10.215   4.792  13.817
46483W        W11468   0.322  40.426   0.533
46484W        W11469  36.273  38.637   1.424
46485W        W11470  43.390  14.419  12.562
46486W        W11471  33.379  41.754   2.280
46487W        W11472  18.685   9.444  11.527
46488W        W11473  42.204  22.141   4.638
46489W        W11474   2.182  23.427  11.224
46490W        W11475  24.482  22.592  10.829
46491W        W11476  30.127   0.169   0.451
46492W        W11477  37.390   1.543  10.786
46493W        W11478  21.127  25.965  11.526
46494W        W11479  31.294  17.181  10.195
46495W        W11480  12.922  28.179  14.889
46496W        W11481   5.245   8.002  11.168
46497W        W11482  43.345  39.085   2.160
46498W        W11483  21.242  15.688   9.942
46499W        W11484  39.509  44.699  14.765
46500W        W11485  11.275  25.470  10.862
46501W        W11486   5.169  14.012   0.736
46502W        W11487  10.853  44.816  14.648
46503W        W11488   2.300  26.381   0.337
46504W        W11489  33.059  36.499  10.703
46505W        W11490  41.287  36.278   3.063
46506W        W11491   4.550   5.538  10.794
46507W        W11492  28.485  25.164   2.712
46508W        W11493  30.862  37.037   1.341
46509W        W11494  17.710  21.629   4.010
46510W        W11495  31.433  29.073   2.286
46511W        W11496  15.235  28.486   3.225
46512W        W11497  32.416  15.238   3.724
46513W        W11498  34.101  30.574   2.296
46514W        W11499   2.350  26.277   0.836
46515W        W11500  38.128  29.892   2.406
46516W        W11501  38.038  27.661   4.123
46517W        W11502  21.542  41.329  12.903
46518W        W11503  36.284  28.032  13.968
46519W        W11504  34.092  19.074  10.716
46520W        W11505   8.634  33.808   3.274
46521W        W11506  37.451  38.836   2.203
46522W        W11507  42.770  24.919  11.538
46523W        W11508  10.821  14.319   0.425
46524W        W11509  39.551  18.985  14.880
46525W        W11510   2.830  34.191  11.126
46526W        W11511  41.806   6.087  13.015
46527W        W11512  40.793  30.463  11.166
46528W        W11513   7.404   9.406   3.773
46529W        W11514  30.458  25.661  13.736
46530W        W11515  31.916  42.531   1.883
46531W        W11516  34.952  23.648  12.070
46532W        W11517   0.384  32.603   4.709
46533W        W11518   3.530  26.937   4.987
46534W        W11519  19.078  13.772  11.605
46535W        W11520  27.052  43.936  11.148
46536W        W11521  23.682  10.432  12.182
46537W        W11522  15.790  21.619   1.224
46538W        W11523  28.187  31.937  13.398
46539W        W11524  27.929  24.436   2.464
46540W        W11525  23.962  20.030  12.539
46541W        W11526  15.690  31.191   3.703
46542W        W11527  40.799  28.622  11.028
46543W        W11528  31.389  33.630  13.920
46544W        W11529  38.180  43.107   4.728
46545W        W11530  42.106   7.407   1.277
46546W        W11531  42.767  23.274  12.482
46547W        W11532  17.087  27.141   0.503
46548W        W11533   1.980  28.681  14.434
46549W        W11534  44.124  34.407  10.840
46550W        W11535  12.583  38.397   0.977
46551W        W11536   3.175   1.765   4.200
46552W        W11537  42.567   7.838  12.953
46553W        W11538  17.027  10.594  10.879
46554W        W11539  13.130  41.974  12.963
46555W        W11540   8.971  14.598  13.001
46556W        W11541  30.535  18.759   4.517
46557W        W11542   9.013  23.215   3.799
46558W        W11543  39.874  26.622  14.887
46559W        W11544  17.178  27.157   2.427
46560W        W11545  12.704   0.987  12.931
46561W        W11546  24.701  28.246   0.257
46562W        W11547  18.843  37.361  11.530
46563W        W11548  41.878  18.126  10.659
46564W        W11549  21.242   0.830   4.596
46565W        W11550  18.676  24.769  10.112
46566W        W11551  18.017  14.157   0.096
46567W        W11552  16.080  17.675  14.961
46568W        W11553  25.013  34.903   4.520
46569W        W11554  27.384  11.767   1.797
46570W        W11555  31.904  37.292   1.667
46571W        W11556  41.733  44.520   3.316
46572W        W11557  44.011  36.057  10.454
46573W        W11558  42.003  36.973   1.809
46574W        W11559   7.132  15.666  13.576
46575W        W11560  19.268  31.608  11.569
46576W        W11561   9.905   8.813   1.641
46577W        W11562  27.285  41.054   0.281
46578W        W11563  39.807  20.128  14.414
46579W        W11564  18.142  36.798  12.676
46580W        W11565  37.993  15.056  11.455
46581W        W11566  20.616  36.870  12.584
46582W        W11567  10.265  29.426  11.620
46583W        W11568   2.716  22.263  13.021
46584W        W11569   9.081   2.282  13.078
46585W        W11570  19.667   1.321  11.461
46586W        W11571  37.805   6.849   2.636
46587W        W11572  16.813  27.091  13.481
46588W        W11573  40.498  28.930  14.541
46589W        W11574  44.344  37.136   0.066
46590W        W11575   9.900  39.397  11.216
46591W        W11576  43.921  16.784  14.017
46592W        W11577  35.171  12.872   3.667
46593W        W11578  20.129  30.156  14.524
46594W        W11579  39.830  36.936   4.927
46595W        W11580  16.400  25.274   1.486
46596W        W11581  42.754  22.186   2.105
46597W        W11582  41.849   9.346  12.441
46598W        W11583   5.357  20.971   0.417
46599W        W11584  10.294  39.985   2.880
46600W        W11585  34.655  30.784  11.831
46601W        W11586   4.311  10.807   0.548
46602W        W11587  10.134  30.983   2.814
46603W        W11588  41.857   0.571   3.207
46604W        W11589  22.766  13.325   0.824
46605W        W11590  21.650   7.522  14.332
46606W        W11591  17.153  17.156   4.750
46607W        W11592  13.234  44.887  12.498
46608W        W11593  38.840  41.076  14.275
46609W        W11594  28.508   2.356  12.917
46610W        W11595   1.494   1.762   3.593
46611W        W11596  38.569  20.033   2.373
46612W        W11597  14.197  12.450   2.655
46613W        W11598  40.927   6.539  10.735
46614W        W11599  24.168  13.559   3.017
46615W        W11600  40.075  43.823   4.057
46616W        W11601   7.868  40.530   2.744
46617W        W11602  41.766  18.035  14.291
46618W        W11603  33.907  27.564   1.795
46619W        W11604  41.149  39.513  11.260
46620W        W11605  15.625   3.127   9.903
46621W        W11606  14.135  37.347  10.764
46622W        W11607   0.867  23.115   3.751
46623W        W11608  27.662  27.358  11.121
46624W        W11609  32.767  33.611  14.399
46625W        W11610   7.756  24.304  10.685
46626W        W11611  11.973  28.478   3.734
46627W        W11612  32.966  37.252  14.183
46628W        W11613  32.652  43.484   3.083
46629W        W11614  36.458  18.984  12.627
46630W        W11615  29.066  40.498  12.081
46631W        W11616  39.480   4.723   0.394
46632W        W11617   8.939   4.469   4.967
46633W        W11618  25.101  26.173   0.716
46634W        W11619  35.837   4.312  14.381
46635W        W11620  35.913   1.539  11.282
46636W        W11621  39.700  23.752  13.862
46637W        W11622  11.156  39.959  14.914
46638W        W11623   6.151  44.495  12.901
46639W        W11624  22.576  37.383  11.144
46640W        W11625  20.415  27.950   2.334
46641W        W11626  40.064  35.827   0.456
46642W        W11627  36.796  11.842  12.552
46643W        W11628  26.639  11.721  11.269
46644W        W11629  32.826   4.710   3.917
46645W        W11630  20.122   0.655   0.520
46646W        W11631  17.085  24.033   1.276
46647W        W11632  14.284  18.981   1.400
46648W        W11633  18.304  11.660   1.081
46649W        W11634  28.002  37.650   1.370
46650W        W11635   8.170  34.057   3.280
46651W        W11636  38.206  23.012   0.457
46652W        W11637  17.019   5.842  14.239
46653W        W11638  25.571  12.829  14.297
46654W        W11639  43.895  26.721  10.213
46655W        W11640  38.527  36.610   1.323
46656W        W11641  32.788  18.943  11.142
46657W        W11642  25.995  32.819   1.758
46658W        W11643  35.178  24.074  10.773
46659W        W11644   7.640  27.120  11.183
46660W        W11645   2.048  43.050   3.757
46661W        W11646  31.129  13.382  13.121
46662W        W11647  26.495  27.358  10.712
46663W        W11648  14.020  40.427   2.455
46664W        W11649  29.478  25.893   4.671
46665W        W11650  29.877  26.862   4.566
46666W        W11651  34.861  34.505  10.522
46667W        W11652  20.773  11.237  11.677
46668W        W11653   6.703  13.188  11.248
46669W        W11654  22.182   6.257  13.441
46670W        W11655  25.546  28.626   2.207
46671W        W11656  35.070   9.717  13.087
46672W        W11657  27.535  31.506   2.703
46673W        W11658  28.627   3.307   0.775
46674W        W11659  25.575  42.986   2.302
46675W        W11660  23.449  30.432  14.945
46676W        W11661   2.673  26.130   1.451
46677W        W11662  15.573   6.656  13.219
46678W        W11663  37.540  38.429   4.251
46679W        W11664  40.324   1.943  14.636
46680W        W11665  17.076  13.839   2.732
46681W        W11666   8.902  12.651  14.273
46682W        W11667  22.095  14.368   0.459
46683W        W11668  19.616  34.883  14.272
46684W        W11669  44.241  17.607   3.327
46685W        W11670  12.693  42.485   0.232
46686W        W11671  20.258  38.407   0.157
46687W        W11672  13.249  13.005  11.577
46688W        W11673  18.068  22.133   0.423
46689W        W11674  14.299  12.396   0.615
46690W        W11675  14.766  24.255   0.322
46691W        W11676  43.804  13.101   0.898
46692W        W11677  32.514  32.840   3.661
46693W        W11678  40.916  36.989  13.068
46694W        W11679  24.190  36.059  11.189
46695W        W11680  39.360  38.176   0.859
46696W        W11681  33.679  20.104  14.794
46697W        W11682   9.639  22.691  10.679
46698W        W11683  30.880  11.261   4.407
46699W        W11684  21.068  26.200   4.351
46700W        W11685  33.566  41.904  14.863
46701W        W11686  16.097  18.218   2.486
46702W        W11687  16.001  32.284   4.150
46703W        W11688  11.456  12.438   0.992
46704W        W11689  33.907  36.140   3.285
46705W        W11690  30.574  22.351  12.120
46706W        W11691  14.711  39.031  10.188
46707W        W11692  37.682  44.318   5.241
46708W        W11693   6.979  36.414  11.598
46709W        W11694  16.669   2.416  11.096
46710W        W11695   5.191  22.214  14.835
46711W        W11696  41.328  22.072  13.347
46712W        W11697   0.222   3.979  14.458
46713W        W11698  43.533  21.714   4.480
46714W        W11699  18.662  42.253   4.789
46715W        W11700  24.494  21.144   4.591
46716W        W11701  28.177  27.403   4.898
46717W        W11702   9.142  36.115  12.907
46718W        W11703   7.728  39.609   4.616
46719W        W11704  11.213  29.553   3.254
46720W        W11705   4.438   4.282  10.941
46721W        W11706  16.746  37.377  14.393
46722W        W11707  43.959   4.998  13.758
46723W        W11708  37.975  13.119   0.321
46724W        W11709  15.239   1.851  14.774
46725W        W11710   6.514  23.731   3.693
46726W        W11711  38.565  32.107   0.518
46727W        W11712  24.171   1.846   4.401
46728W        W11713  23.660  35.676   0.005
46729W        W11714  11.919  21.757  14.576
46730W        W11715  13.548   6.912  10.512
46731W        W11716  26.561  30.145  14.842
46732W        W11717  21.050  18.173  14.287
46733W        W11718   1.364  38.942   2.474
46734W        W11719   5.027  37.410  14.325
46735W        W11720  10.276  28.177   2.622
46736W        W11721  23.657   0.092  12.109
46737W        W11722  19.840  25.876   0.018
46738W        W11723  13.536  32.615   4.312
46739W        W11724  24.637  43.577  14.523
46740W        W11725  32.864  13.135   1.925
46741W        W11726   1.778  27.050   0.486
46742W        W11727  41.503   9.794  11.198
46743W        W11728  37.241  19.425  11.148
46744W        W11729  36.250  43.337  10.589
46745W        W11730   6.516  18.587  14.529
46746W        W11731  27.095  36.367   1.785
46747W        W11732  37.510  38.087   2.926
46748W        W11733   0.879   5.704   4.567
46749W        W11734   6.195  24.649  13.078
46750W        W11735   3.849  11.974  12.372
46751W        W11736   0.330  35.024  12.155
46752W        W11737  24.439   6.349  12.382
46753W        W11738   6.162  32.918   1.012
46754W        W11739  39.044   9.808   3.330
46755W        W11740  19.745  35.578  14.956
46756W        W11741  25.270   7.693  10.894
46757W        W11742  20.824   8.276   2.899
46758W        W11743  10.851  26.067   3.752
46759W        W11744   0.077  20.227   4.626
46760W        W11745   5.749   0.329  14.158
46761W        W11746  14.662   7.516  10.413
46762W        W11747  13.262  10.753   4.546
46763W        W11748  31.202  32.498  12.478
46764W        W11749  32.583  21.908   0.842
46765W        W11750  21.710  40.471   1.252
46766W        W11751  19.034  38.871  14.917
46767W        W11752  10.465   9.891  14.864
46768W        W11753  14.994  37.788  14.403
46769W        W11754  33.832  27.582  14.887
46770W        W11755  26.046  20.565   0.515
46771W        W11756  44.904  24.563  14.202
46772W        W11757  29.487  33.916   1.769
46773W        W11758  15.873  12.133  11.623
46774W        W11759  27.402  44.401  10.818
46775W        W11760   8.299   0.494  12.408
46776W        W11761  25.026  29.187   3.694
46777W        W11762  29.080  41.554   1.452
46778W        W11763   6.563  23.955   3.161
46779W        W11764   3.037  40.702   2.314
46780W        W11765   5.708  41.458  14.763
46781W        W11766  10.435  13.742  12.466
46782W        W11767  33.062  32.667  12.552
46783W        W11768  40.046  20.337   1.362
46784W        W11769  10.724   6.403  10.396
46785W        W11770  27.266  15.641  13.360
46786W        W11771   4.542  14.748   1.756
46787W        W11772  13.697  37.130  14.722
46788W        W11773  13.845  25.623   0.800
46789W        W11774  38.963  35.869   3.127
46790W        W11775   7.377   1.822   1.292
46791W        W11776  38.772  21.765  11.145
46792W        W11777   1.167   4.436   1.862
46793W        W11778  36.097   2.238   4.507
46794W        W11779  13.777  30.084  13.812
46795W        W11780  33.946  12.240   3.309
46796W        W11781  28.015  37.326   3.154
46797W        W11782   6.209   7.250  12.402
46798W        W11783  43.039  10.169  14.586
46799W        W11784  31.017  34.052  10.739
46800W        W11785  30.572  38.021  11.136
46801W        W11786  15.666  19.911  13.494
46802W        W11787  37.162  30.061   1.955
46803W        W11788   9.219   4.426   1.757
46804W        W11789  40.966  11.648  13.415
46805W        W11790  14.197   7.735   0.444
46806W        W11791   7.387  41.064   4.195
46807W        W11792  36.088   6.853  12.362
46808W        W11793  42.943   9.335  11.588
46809W        W11794  17.618  36.426  12.215
46810W        W11795  34.009   2.984  11.198
46811W        W11796  37.329  22.482  12.553
46812W        W11797  15.567  29.142  14.450
46813W        W11798  12.504   4.261   3.273
46814W        W11799   3.015  11.760   2.806
46815W        W11800  36.598  10.251  14.288
46816W        W11801  43.727  23.937  14.906
46817W        W11802  14.778  19.007   0.763
46818W        W11803  33.481  28.919   3.127
46819W        W11804  35.968  37.434   0.221
46820W        W11805  40.629  12.299   3.448
46821W        W11806  34.976  36.445  14.832
46822W        W11807  29.570  30.964  12.370
46823W        W11808  14.852   7.264   1.321
46824W        W11809  33.151  12.167  13.526
46825W        W11810  15.599  13.742   4.528
46826W        W11811  23.426  18.676   0.667
46827W        W11812  17.650  17.264  12.660
46828W        W11813  18.684  35.467  10.663
46829W        W11814  23.630  25.509   4.166
46830W        W11815  16.286  19.276   3.924
46831W        W11816  21.005  13.496  11.604
46832W        W11817  27.654  34.573   4.349
46833W        W11818   0.232   8.771   4.021
46834W        W11819  26.556  28.146  12.886
46835W        W11820  35.607  38.100   2.575
46836W        W11821   0.726   8.925   4.660
46837W        W11822  33.438  38.538   4.095
46838W        W11823  21.705  37.851  12.124
46839W        W11824  23.918   4.366  12.227
46840W        W11825  28.695  27.001  13.408
46841W        W11826  10.324  21.764   4.110
46842W        W11827  36.492  29.752   0.088
46843W        W11828  19.856   1.669  12.501
46844W        W11829  23.953  18.628   2.556
46845W        W11830   1.055  26.962   0.035
46846W        W11831  25.785   5.958   5.052
46847W        W11832  12.784  26.805   2.804
46848W        W11833  17.171  39.005   2.839
46849W        W11834  30.258  25.398  11.073
46850W        W11835   4.835   1.524  11.193
46851W        W11836  31.925  29.586   3.816
46852W        W11837  19.067  15.660  12.296
46853W        W11838  24.958  27.646  11.666
46854W        W11839  25.658  29.085   3.209
46855W        W11840  31.359  21.990   1.157
46856W        W11841  24.769   7.727  14.870
46857W        W11842  22.018   7.232  13.963
46858W        W11843  36.873  22.368   4.095
46859W        W11844  28.707  12.698  12.647
46860W        W11845   1.368  27.270   4.501
46861W        W11846   7.499  29.702   4.073
46862W        W11847  35.044  12.229  12.574
46863W        W11848  19.097   2.681   3.517
46864W        W11849  23.941   2.765   0.339
46865W        W11850  43.468  33.446  11.488
46866W        W11851   5.957   6.139  14.012
46867W        W11852  25.236  29.301  12.541
46868W        W11853  19.465  39.540   2.719
46869W        W11854  44.305  16.253   4.541
46870W        W11855  33.169  12.053   0.325
46871W        W11856  23.972   7.747  11.992
46872W        W11857  27.829  43.229   1.668
46873W        W11858  20.160  23.087   3.928
46874W        W11859  44.468  21.612  10.657
46875W        W11860  33.405  23.153   2.839
46876W        W11861   5.381  27.864  14.849
46877W        W11862  38.173  24.984   4.616
46878W        W11863   2.152   7.275  12.950
46879W        W11864   0.464   9.179  12.005
46880W        W11865   3.024   8.272   3.641
46881W        W11866  33.912  27.372  11.505
46882W        W11867  16.990  34.633  11.014
46883W        W11868  26.980  37.611  12.589
46884W        W11869  18.581  19.098   0.645
46885W        W11870  36.365  28.183   2.320
46886W        W11871  38.181   9.749  10.661
46887W        W11872   1.301  33.650  12.558
46888W        W11873  12.864  23.670  12.648
46889W        W11874  17.983   1.286   3.422
46890W        W11875  21.053  19.268   1.739
46891W        W11876  39.477  19.592   2.782
46892W        W11877  29.650  29.992   0.807
46893W        W11878  22.535  26.738   4.348
46894W        W11879   0.739  17.113   4.338
46895W        W11880  26.256   2.397   3.091
46896W        W11881  20.421  13.016   1.363
46897W        W11882  31.926  44.433  13.268
46898W        W11883  25.039  18.885  14.306
46899W        W11884  24.564  30.382  14.475
46900W        W11885   7.862  16.222  11.577
46901W        W11886  24.662  32.598   1.408
46902W        W11887  42.758  39.787   4.211
46903W        W11888  36.490   7.354  10.746
46904W        W11889  30.929  38.509  12.867
46905W        W11890  29.858  22.448  11.973
46906W        W11891  28.345  22.271   1.942
46907W        W11892  42.293  12.830   4.539
46908W        W11893  14.619   4.533   3.756
46909W        W11894  39.363   7.811   4.716
46910W        W11895   0.668  31.856   5.042
46911W        W11896   1.771  16.609   0.083
46912W        W11897  34.273  23.161   0.804
46913W        W11898  39.873  19.689  13.145
46914W        W11899  39.070  16.969   1.220
46915W        W11900   4.489  40.947  13.435
46916W        W11901  36.587  25.761   2.211
46917W        W11902  37.353  23.361   4.433
46918W        W11903  25.448  26.684  12.420
46919W        W11904   7.305   5.682  13.430
46920W        W11905   4.128   3.756  10.772
46921W        W11906  11.221  19.015   2.900
46922W        W11907  27.544   2.763   0.762
46923W        W11908   0.994  41.373   2.838
46924W        W11909  41.978   1.384  11.158
46925W        W11910  34.106  10.301  13.955
46926W        W11911  12.763  20.201  12.104
46927W        W11912  17.052  31.568   4.476
46928W        W11913  37.232  14.365  14.035
46929W        W11914  32.593  12.987   4.140
46930W        W11915  27.604  23.795  13.359
46931W        W11916  28.117  40.079  10.237
46932W        W11917  32.893   4.359   1.206
46933W        W11918   7.706   6.250  13.015
46934W        W11919  10.239   6.354   4.592
46935W        W11920  11.913   4.151   1.450
46936W        W11921  13.023  42.602  13.896
46937W        W11922  41.452  11.780   0.969
46938W        W11923  31.061  20.619  10.872
46939W        W11924   3.688   8.853   1.300
46940W        W11925  25.064  40.344  13.842
46941W        W11926  16.385   9.898  10.645
46942W        W11927   4.677  30.034  14.037
46943W        W11928  36.804  33.918  13.777
46944W        W11929  41.933  38.424  11.124
46945W        W11930   0.734  36.510  10.676
46946W        W11931  34.482  14.427  13.899
46947W        W11932   4.660   5.697   4.536
46948W        W11933  43.075  25.217  12.888
46949W        W11934  11.991  34.584  12.449
46950W        W11935  39.518   6.640  12.479
46951W        W11936   7.372  40.740  12.442
46952W        W11937  20.425  31.403   4.462
46953W        W11938  27.224  28.433   0.728
46954W        W11939   4.843  32.808  12.945
46955W        W11940   3.386  35.664   0.989
46956W        W11941  38.053  33.123   2.436
46957W        W11942   4.729  29.958   4.672
46958W        W11943  44.003  15.887  13.972
46959W        W11944  25.980   9.176  12.031
46960W        W11945  29.540   3.679  10.903
46961W        W11946  23.621  37.949   0.839
46962W        W11947  41.240  39.780   0.897
46963W        W11948   8.802  17.277   0.817
46964W        W11949  33.370  32.184  13.979
46965W        W11950  42.984  24.192  12.989
46966W        W11951  18.292  37.984  11.173
46967W        W11952   2.887  26.703   2.301
46968W        W11953  11.571  30.422   2.795
46969W        W11954  41.782  27.507  12.324
46970W        W11955  22.776  25.794  11.509
46971W        W11956   2.355  40.358   4.084
46972W        W11957  40.993  13.761  10.316
46973W        W11958  36.669  17.383  13.427
46974W        W11959  44.351  39.011  12.489
46975W        W11960  10.950   4.701  10.592
46976W        W11961  14.181   5.194   0.100
46977W        W11962   0.452  42.026  12.943
46978W        W11963  38.455   2.814  11.649
46979W        W11964  36.893  27.171   2.338
46980W        W11965  42.235  25.109  14.548
46981W        W11966   6.270  18.928   3.223
46982W        W11967  30.398  33.375   5.225
46983W        W11968  23.155   1.789  12.970
46984W        W11969  21.309  32.610   3.556
46985W        W11970  34.875  41.368   1.391
46986W        W11971   4.922   3.795  13.362
46987W        W11972  30.170   1.217   3.753
46988W        W11973  31.503  42.796  12.950
46989W        W11974  37.912  24.193  11.887
46990W        W11975  16.691   6.592   3.580
46991W        W11976  44.514  10.219  14.294
46992W        W11977  43.412   0.412   3.627
46993W        W11978  37.824  32.407   2.211
46994W        W11979  20.050  15.184  10.795
46995W        W11980   2.867   3.925   1.825
46996W        W11981  35.520  38.537  11.214
46997W        W11982  37.527  30.505   1.325
46998W        W11983  19.320  40.052   3.159
46999W        W11984  40.036  18.652   1.699
47000W        W11985   0.552   1.836   1.261
47001W        W11986  14.097  18.876   4.008
47002W        W11987   7.794   4.171   1.315
47003W        W11988  22.218  28.025   4.330
47004W        W11989  23.574  38.433  13.098
47005W        W11990  36.825  16.366  12.687
47006W        W11991  38.655  24.517  11.018
47007W        W11992  13.644  13.163   4.178
47008W        W11993   7.689  44.431   0.989
47009W        W11994  32.858  25.575  13.048
47010W        W11995  19.617  42.232   4.618
47011W        W11996  30.982   1.260  14.780
47012W        W11997  34.583  13.674  13.038
47013W        W11998   6.171   2.658  11.259
47014W        W11999  44.835  37.850   0.894
47015W        W12000  23.950  32.996   1.369
47016W        W12001   4.594  15.247   3.681
47017W        W12002  32.069  29.700   0.276
47018W        W12003  19.121  30.888  14.099
47019W        W12004  35.786  27.123  10.457
47020W        W12005  40.267  33.140   2.655
47021W        W12006  34.307   6.713  14.571
47022W        W12007  38.210  42.768   3.271
47023W        W12008  21.180  32.205   4.573
47024W        W12009   9.445   7.497  14.150
47025W        W12010  14.241  38.913  14.729
47026W        W12011  18.511  15.206  12.917
47027W        W12012  15.260  44.250   3.958
47028W        W12013  41.231   5.384  13.517
47029W        W12014  37.985  17.954  12.853
47030W        W12015  10.559  16.050   4.501
47031W        W12016  28.544  44.981   2.788
47032W        W12017  30.437  15.744   4.638
47033W        W12018   6.720  20.150   2.713
47034W        W12019  20.285  20.123  10.587
47035W        W12020  30.984  39.942   1.802
47036W        W12021  21.929   1.535  12.082
47037W        W12022  12.661   7.815   1.137
47038W        W12023  24.998  43.271   1.346
47039W        W12024  38.935  21.234  12.411
47040W        W12025  43.300  40.568   4.849
47041W        W12026  22.040  32.651   0.359
47042W        W12027  25.436  34.908  14.390
47043W        W12028  14.745  23.067  13.490
47044W        W12029  31.853   7.384   1.879
47045W        W12030  28.903  27.751   1.317
47046W        W12031   6.390   5.155  13.407
47047W        W12032  33.219  26.545   1.804
47048W        W12033  37.940  10.488   3.850
47049W        W12034   9.712  17.027   2.110
47050W        W12035   4.232  24.295   0.256
47051W        W12036  16.820  26.996  14.122
47052W        W12037  38.800  34.461  10.806
47053W        W12038  22.989   8.157  14.776
47054W        W12039  32.869   6.463   0.420
47055W        W12040  11.272  33.922   0.652
47056W        W12041  16.077  25.533   3.583
47057W        W12042  43.264  12.745  14.053
47058W        W12043  38.147  18.245   3.207
47059W        W12044  35.014  17.253   2.656
47060W        W12045  10.724   3.119  10.606
47061W        W12046  23.430  38.819  14.012
47062W        W12047  29.313  22.152   1.009
47063W        W12048  15.113  26.726   2.295
47064W        W12049   1.647  36.956  12.894
47065W        W12050   9.631   5.131  13.465
47066W        W12051  31.799  33.675  11.708
47067W        W12052  18.591  28.785  11.156
47068W        W12053  17.023  42.437   3.631
47069W        W12054  28.578  27.204   0.345
47070W        W12055  25.640   4.884  13.114
47071W        W12056  19.458   1.461  13.426
47072W        W12057   6.994  39.278  12.105
47073W        W12058   1.560   5.190  12.421
47074W        W12059   5.795  18.031  13.356
47075W        W12060  12.706   1.904   2.323
47076W        W12061  16.942  32.343   1.577
47077W        W12062  42.937  14.319  10.640
47078W        W12063  21.060  39.537  12.874
47079W        W12064  31.996  39.974   4.338
47080W        W12065  26.232   7.148   0.165
47081W        W12066  36.803  14.735  13.074
47082W        W12067  18.644  27.479  12.911
47083W        W12068  30.473  34.867   4.619
47084W        W12069  35.079  19.191   4.869
47085W        W12070   1.442  17.502  13.634
47086W        W12071   4.174  29.606   1.426
47087W        W12072  31.068  17.188   1.267
47088W        W12073  20.024  17.661   3.469
47089W        W12074   1.315  28.185  11.989
47090W        W12075  32.857   6.312   4.694
47091W        W12076   0.981  16.309  14.817
47092W        W12077  15.572  38.441   0.888
47093W        W12078   0.406  44.811  11.791
47094W        W12079  13.578   9.700   0.397
47095W        W12080  40.523  23.533  12.028
47096W        W12081  37.973  32.577  10.695
47097W        W12082  27.722  14.559   0.466
47098W        W12083  11.328  28.181   4.905
47099W        W12084   2.263  14.685  14.841
47100W        W12085  30.248   3.159   0.344
47101W        W12086   3.969  20.899  12.021
47102W        W12087  41.635  42.684   1.733
47103W        W12088  16.136  25.466  11.738
47104W        W12089  16.218   8.235   2.325
47105W        W12090   0.970  18.663  12.460
47106W        W12091  33.957  11.680  12.509
47107W        W12092  36.535  24.712  13.587
47108W        W12093  12.780  41.555  11.125
47109W        W12094  22.040  26.937  12.099
47110W        W12095   0.294  37.368  13.467
47111W        W12096  12.980  39.241  11.556
47112W        W12097  33.830  14.841   3.628
47113W        W12098   1.687  11.281  11.822
47114W        W12099  15.080   3.657  12.911
47115W        W12100   3.944   5.161   4.479
47116W        W12101  43.302   1.184  11.050
47117W        W12102  19.174   1.930  13.485
47118W        W12103  28.946  19.272   0.704
47119W        W12104   3.455   1.304  10.659
47120W        W12105  32.504  42.725  12.020
47121W        W12106  20.174   5.185   4.125
47122W        W12107  32.353  24.064  10.527
47123W        W12108   6.754   7.980   0.574
47124W        W12109  18.582  32.114  14.783
47125W        W12110  24.498  41.349  14.394
47126W        W12111   8.778  44.064   2.244
47127W        W12112   7.444  17.251   4.985
47128W        W12113   7.408  31.122   1.069
47129W        W12114  44.076   1.801   4.460
47130W        W12115   9.078  19.954  12.938
47131W        W12116  40.265  14.098   1.438
47132W        W12117  24.533  25.459  13.999
47133W        W12118   5.321   1.181  13.880
47134W        W12119  20.192  33.551   0.881
47135W        W12120  26.689  27.689   5.064
47136W        W12121  21.278   8.988   1.721
47137W        W12122   3.681  34.875  11.272
47138W        W12123  44.417  11.108   3.381
47139W        W12124   7.169  38.906   2.695
47140W        W12125  19.598   3.844  13.875
47141W        W12126  40.432   4.990   0.801
47142W        W12127  16.258  27.242  11.240
47143W        W12128  35.168  40.014   1.299
47144W        W12129  42.022  34.884   1.730
47145W        W12130   4.913  28.143   2.358
47146W        W12131   1.877  37.830  12.603
47147W        W12132  37.556  26.447  13.830
47148W        W12133  32.676   7.875  12.442
47149W        W12134  23.937   5.991  14.648
47150W        W12135   7.329  23.941   1.243
47151W        W12136  43.242  24.691   2.329
47152W        W12137   8.716   0.279   3.493
47153W        W12138  13.763  16.320   1.121
47154W        W12139   9.219  44.153  10.317
47155W        W12140  17.761  12.218  13.307
47156W        W12141  36.119  21.626  14.259
47157W        W12142  21.068  20.273   0.336
47158W        W12143  36.811  38.112  14.435
47159W        W12144  26.263   6.206  12.067
47160W        W12145  18.134   7.328  13.343
47161W        W12146  32.393   1.993  12.967
47162W        W12147  33.863  17.720  14.478
47163W        W12148  29.184  11.412  14.462
47164W        W12149  36.053  23.108  14.355
47165W        W12150  22.513  21.652   0.469
47166W        W12151  40.161  38.468   1.812
47167W        W12152  28.140   9.984   1.308
47168W        W12153  25.206   5.475  14.276
47169W        W12154  33.063  35.759   1.854
47170W        W12155  12.572  23.452   3.250
47171W        W12156  34.395   2.292  10.974
47172W        W12157   1.699  21.469  11.496
47173W        W12158  18.237  13.864  14.735
47174W        W12159  29.054  14.665  14.036
47175W        W12160  39.268  26.331   4.274
47176W        W12161   1.966   2.715   3.621
47177W        W12162  28.789  11.856  14.497
47178W        W12163   5.165   2.732  11.115
47179W        W12164  36.626  35.092   4.205
47180W        W12165  28.213  31.082   0.449
47181W        W12166  25.483   3.509  14.789
47182W        W12167  43.971  15.030  12.429
47183W        W12168  25.243  18.664  13.864
47184W        W12169  25.289  28.724  11.200
47185W        W12170  33.610   6.007  13.838
47186W        W12171  31.073   2.484   4.683
47187W        W12172  17.786  29.383  12.027
47188W        W12173  18.779   7.580   4.008
47189W        W12174  27.431  18.883   0.808
47190W        W12175  43.045  23.905  11.663
47191W        W12176   5.352  37.046   3.181
47192W        W12177  32.880  41.828  11.609
47193W        W12178  34.293  28.009   0.145
47194W        W12179  10.236  37.088   2.203
47195W        W12180  15.677  36.391   3.592
47196W        W12181  34.139   3.790  13.521
47197W        W12182  35.642  44.976  13.885
47198W        W12183  26.866   4.443   4.234
47199W        W12184  28.252  11.375   1.783
47200W        W12185  25.530  14.770   4.517
47201W        W12186   6.177  28.602   1.421
47202W        W12187  20.815   9.810  12.034
47203W        W12188  39.730   5.840   4.265
47204W        W12189   4.917  26.185  11.547
47205W        W12190  13.062  37.053   2.252
47206W        W12191  39.092  28.977  14.250
47207W        W12192   1.864  18.165  11.483
47208W        W12193   7.340   9.312   1.681
47209W        W12194   0.113  42.441  14.617
47210W        W12195  16.067   3.527  12.162
47211W        W12196   8.089   0.543   1.777
47212W        W12197  42.467  22.887  13.854
47213W        W12198   2.432  21.134  14.243
47214W        W12199   9.900  21.530  12.538
47215W        W12200   4.950  34.534   4.133
47216W        W12201  35.031  24.071   3.334
47217W        W12202   3.240  16.890   0.824
47218W        W12203  35.083  39.252  12.169
47219W        W12204  37.321   3.382  12.528
47220W        W12205  15.046  11.842  13.410
47221W        W12206  16.314  41.500  14.766
47222W        W12207  15.710  13.646   2.713
47223W        W12208  30.682   9.301   1.768
47224W        W12209  15.119  43.337   1.665
47225W        W12210  33.979  15.096  11.523
47226W        W12211  21.447   0.790  11.912
47227W        W12212   7.467  30.388  13.802
47228W        W12213  36.205  28.923   1.007
47229W        W12214   2.770   1.664   0.439
47230W        W12215  26.193   8.260  13.686
47231W        W12216  13.315  36.400   0.869
47232W        W12217  29.454  40.621  12.433
47233W        W12218  24.668  33.115  13.022
47234W        W12219   4.228   2.565   2.357
47235W        W12220  38.952   1.592   0.407
47236W        W12221  18.208   6.926   4.141
47237W        W12222   0.461  20.720  12.397
47238W        W12223   1.703  39.028  13.523
47239W        W12224  25.105  17.961  11.138
47240W        W12225  11.362   0.727   0.354
47241W        W12226  36.236  21.507  10.444
47242W        W12227  34.998  23.596   3.144
47243W        W12228  42.923  31.907   3.170
47244W        W12229   3.346  30.412   3.842
47245W        W12230  29.546  42.175   1.848
47246W        W12231   9.298   7.209  12.207
47247W        W12232  29.566  26.906   1.902
47248W        W12233  15.332  19.293  13.421
47249W        W12234   2.766  42.980  14.833
47250W        W12235  12.177  24.228   4.252
47251W        W12236   9.402  35.840   2.778
47252W        W12237   8.245  33.787  13.138
47253W        W12238  31.069  34.310  14.172
47254W        W12239  10.434  30.361  11.589
47255W        W12240  38.918  44.913  12.502
47256W        W12241  19.332  26.136   1.729
47257W        W12242  24.510  25.073  13.606
47258W        W12243   5.133   6.184   0.317
47259W        W12244  35.862  28.963   2.966
47260W        W12245  26.184  19.758  11.967
47261W        W12246  20.196  21.162  14.974
47262W        W12247  44.448  43.208   3.267
47263W        W12248   9.852  23.192   3.559
47264W        W12249  27.786  28.023   1.290
47265W        W12250   3.141   5.752  12.122
47266W        W12251  40.284  42.448   2.908
47267W        W12252  14.810   4.529   0.734
47268W        W12253  34.572  36.625   3.381
47269W        W12254   9.233  26.033   2.708
47270W        W12255  11.314  27.959   1.171
47271W        W12256  42.951  28.453   2.447
47272W        W12257  22.925  27.439   1.255
47273W        W12258   3.369  26.526   1.857
47274W        W12259  17.994   7.752  13.829
47275W        W12260  39.883  18.345  11.051
47276W        W12261  30.026  20.777   3.701
47277W        W12262  43.917  24.124  10.227
47278W        W12263  14.054  21.802   1.850
47279W        W12264  29.938  36.462   4.388
47280W        W12265  18.283  35.950  12.655
47281W        W12266  44.508  39.690   3.646
47282W        W12267  35.511  10.639  12.192
47283W        W12268  13.207  12.135  10.777
47284W        W12269  36.396   6.523  14.461
47285W        W12270  28.186   4.978  12.447
47286W        W12271  12.197  24.553   0.252
47287W        W12272  12.679  21.726  13.001
47288W        W12273   3.917  39.718  12.585
47289W        W12274  39.110  13.264  10.307
47290W        W12275  37.678  26.710   4.990
47291W        W12276   3.262  24.271   0.649
47292W        W12277  43.260  13.887  10.684
47293W        W12278  40.147  15.641  13.104
47294W        W12279  15.526  32.503   2.679
47295W        W12280  15.298  15.616   3.693
47296W        W12281  28.383  39.566  11.495
47297W        W12282  15.868  37.483   4.196
47298W        W12283  32.494   2.335  11.743
47299W        W12284  15.825   8.713   3.455
47300W        W12285  39.887  11.903   1.025
47301W        W12286  16.831   4.314  13.844
47302W        W12287   9.732  12.582  14.090
47303W        W12288  35.660  33.338   1.770
47304W        W12289  25.095  16.256  12.944
47305W        W12290   4.810  32.241   2.567
47306W        W12291   0.550   4.839   2.771
47307W        W12292  14.430  11.694  10.953
47308W        W12293  41.597  33.902   4.927
47309W        W12294   6.612  22.091  14.892
47310W        W12295   9.164  30.342   1.862
47311W        W12296  37.987  39.546  12.143
47312W        W12297   8.187   8.344   3.399
47313W        W12298   1.297  20.977   3.884
47314W        W12299  39.334  34.853  10.198
47315W        W12300  33.276  31.072  12.447
47316W        W12301   9.420  19.685  10.251
47317W        W12302  25.842  25.495  13.606
47318W        W12303  10.202   3.742  10.446
47319W        W12304  23.636  30.686   3.309
47320W        W12305  18.651   7.236  12.013
47321W        W12306  36.873  16.566  11.005
47322W        W12307  12.498   1.480   2.069
47323W        W12308  42.264  17.891  14.381
47324W        W12309  33.608  29.173  11.064
47325W        W12310   6.329  38.293   2.579
47326W        W12311  21.216  11.226   1.850
47327W        W12312  17.247  32.405  10.614
47328W        W12313  44.344  18.484   3.563
47329W        W12314  26.805  30.027   2.911
47330W        W12315  35.244  14.674   3.784
47331W        W12316  29.441  36.438  10.836
47332W        W12317  20.992   2.153   0.812
47333W        W12318  25.636   0.244   1.663
47334W        W12319   4.332  21.183   2.490
47335W        W12320   6.721  20.281   3.224
47336W        W12321  31.695   2.692  13.255
47337W        W12322  37.958  12.268  14.840
47338W        W12323  43.996  36.736   4.123
47339W        W12324  13.067  43.028   1.416
47340W        W12325  10.232  14.212   0.047
47341W        W12326  16.268  39.659  11.935
47342W        W12327   3.154  31.121   1.290
47343W        W12328  14.563  42.452  13.236
47344W        W12329   4.356   3.851  12.156
47345W        W12330  11.840  31.363  14.133
47346W        W12331   3.456  30.714   4.269
47347W        W12332  20.781  16.688  14.337
47348W        W12333  27.580  11.756  10.624
47349W        W12334  27.257  38.976  12.738
47350W        W12335  25.328  34.475  11.049
47351W        W12336   7.701   0.520  14.463
47352W        W12337  26.809  13.760  14.744
47353W        W12338  24.846  17.518   1.258
47354W        W12339  22.639  43.844  10.200
47355W        W12340  18.189   5.165  13.886
47356W        W12341  24.881  20.319   3.445
47357W        W12342   3.268  44.275   1.919
47358W        W12343  43.345  27.277   3.328
47359W        W12344  36.044  35.884  13.525
47360W        W12345  32.432  16.218   1.795
47361W        W12346   8.780  24.413   2.225
47362W        W12347   3.837  32.610  12.108
47363W        W12348  17.774  44.101   4.666
47364W        W12349  11.276  33.548   4.640
47365W        W12350  20.080  23.138  11.411
47366W        W12351   7.275  37.596  11.796
47367W        W12352  14.979  40.566   2.687
47368W        W12353  42.240  38.837  11.161
47369W        W12354  44.269   6.166  11.148
47370W        W12355   2.293   8.637  13.287
47371W        W12356  36.429  34.810   1.117
47372W        W12357  19.602  11.450   3.657
47373W        W12358  23.053  16.707  11.609
47374W        W12359  39.058  23.615  13.390
47375W        W12360  29.211  36.193   1.859
47376W        W12361   1.458  21.736  13.481
47377W        W12362  11.769  27.167  14.748
47378W        W12363  11.322  21.209  13.554
47379W        W12364  25.694  19.570   4.296
47380W        W12365  28.758   9.122  11.378
47381W        W12366  18.610  26.479  14.847
47382W        W12367  44.683   0.451  14.521
47383W        W12368  37.358  18.299   4.876
47384W        W12369  31.026  18.724  11.356
47385W        W12370  29.965  38.123  14.426
47386W        W12371  21.276  22.528   2.201
47387W        W12372  20.564  28.135  10.444
47388W        W12373  34.432  33.146   2.739
47389W        W12374  17.354  31.527  10.385
47390W        W12375  12.403  27.697   3.201
47391W        W12376  36.717  32.626   0.460
47392W        W12377  41.531  19.805  10.665
47393W        W12378  31.484  13.629   4.895
47394W        W12379  23.574  18.111  14.520
47395W        W12380  27.971  32.218   4.991
47396W        W12381  24.771   6.441   2.199
47397W        W12382  35.319   0.986   0.887
47398W        W12383  41.368  38.210  11.470
47399W        W12384  30.460  20.702   2.299
47400W        W12385  28.617   0.762  11.744
47401W        W12386  36.250  44.364   3.270
47402W        W12387  24.472   2.510   4.187
47403W        W12388  24.181  32.556   1.261
47404W        W12389  22.889  19.490  10.260
47405W        W12390  14.244  25.734  14.882
47406W        W12391  30.127  37.270   4.771
47407W        W12392  41.266  19.170  13.889
47408W        W12393  18.546  15.876  11.699
47409W        W12394  22.435   2.186  12.963
47410W        W12395  29.903  37.393   0.001
47411W        W12396  19.641  43.083  12.599
47412W        W12397   4.012  11.500  12.154
47413W        W12398  35.377  21.033   1.706
47414W        W12399   3.972  38.805  12.666
47415W        W12400  40.997   5.851   3.830
47416W        W12401  32.899  39.889  14.601
47417W        W12402   8.121  27.437  13.566
47418W        W12403   7.180  38.454   2.401
47419W        W12404  37.876   5.830   3.649
47420W        W12405  30.526   4.120   2.312
47421W        W12406   6.202  44.891   1.858
47422W        W12407  14.594  33.303  13.511
47423W        W12408  42.891  21.089   0.701
47424W        W12409  41.504  18.191  12.382
47425W        W12410  17.764  43.323  12.434
47426W        W12411  37.918  42.131   2.897
47427W        W12412   0.879  13.282   4.676
47428W        W12413  12.848  13.783   3.293
47429W        W12414  13.056  39.668  12.407
47430W        W12415  21.527  23.540   0.239
47431W        W12416  32.797  36.366   1.396
47432W        W12417   0.576  12.363   1.157
47433W        W12418   6.067  23.400  14.577
47434W        W12419   9.684  33.579   2.781
47435W        W12420   6.661  15.762   1.029
47436W        W12421   3.667  12.886   0.470
47437W        W12422   4.001  44.925  12.082
47438W        W12423  20.640  24.816  13.468
47439W        W12424  21.437   9.315  13.481
47440W        W12425  39.965   0.996  12.390
47441W        W12426  35.579  21.658  13.027
47442W        W12427  36.601  39.834  12.360
47443W        W12428  13.856  17.744  14.919
47444W        W12429  22.881   2.027   2.761
47445W        W12430   2.289   5.975   2.297
47446W        W12431   5.782  26.948   1.728
47447W        W12432  33.936  13.994  12.546
47448W        W12433  36.036  38.592   3.248
47449W        W12434  10.803   4.939   2.699
47450W        W12435  15.260  40.949  14.812
47451W        W12436  25.039   7.272  14.920
47452W        W12437  36.034   8.680   0.726
47453W        W12438  13.298  33.348  11.806
47454W        W12439  19.156   9.418   3.837
47455W        W12440  26.724  16.794   1.446
47456W        W12441  33.503   6.463   4.007
47457W        W12442  18.142  18.459  12.176
47458W        W12443  16.173  17.746   1.870
47459W        W12444  12.680  13.122  13.602
47460W        W12445  38.512  39.763   1.882
47461W        W12446  11.637  15.619   3.225
47462W        W12447  15.493  24.047  14.771
47463W        W12448   2.759   0.812   2.339
47464W        W12449  31.566  16.696  13.911
47465W        W12450   7.875  44.270   0.049
47466W        W12451  26.184   0.407   0.736
47467W        W12452  23.552  20.844   3.745
47468W        W12453  12.474  25.978   0.913
47469W        W12454   2.295  40.186  13.012
47470W        W12455  39.821   7.077  12.634
47471W        W12456  44.792  29.002  14.338
47472W        W12457   4.190  10.273   2.236
47473W        W12458  19.318   5.229  13.911
47474W        W12459   4.875  17.991   5.068
47475W        W12460   9.287  42.373  11.231
47476W        W12461  13.671  40.614  13.344
47477W        W12462  18.072  30.406  13.804
47478W        W12463  31.759  27.038  12.496
47479W        W12464  20.965  22.951  14.111
47480W        W12465  21.776   1.216   2.391
47481W        W12466   6.890  42.876   2.291
47482W        W12467   9.775  15.866  12.883
47483W        W12468  13.030  18.112   1.170
47484W        W12469  19.699  11.617  14.471
47485W        W12470   0.228  42.245   0.950
47486W        W12471  39.723  31.453   3.596
47487W        W12472  20.830   3.888   3.113
47488W        W12473  21.700  22.960   4.981
47489W        W12474   0.778  35.379  11.186
47490W        W12475  42.330   8.661  11.819
47491W        W12476  32.123   5.789   0.477
47492W        W12477  24.282  16.839  11.595
47493W        W12478  29.417  25.512   4.323
47494W        W12479  17.310  13.848   2.281
47495W        W12480  33.022  40.843  14.368
47496W        W12481   7.311  34.197  13.985
47497W        W12482  11.376  26.123   0.254
47498W        W12483  16.272  20.754  13.372
47499W        W12484  24.332   2.896   2.028
47500W        W12485  17.144  16.688   0.264
47501W        W12486  22.977   0.806  14.996
47502W        W12487  34.026   8.447   1.643
47503W        W12488  27.806  41.009  12.057
47504W        W12489  32.868  38.227   1.557
47505W        W12490  18.814  26.016  12.593
47506W        W12491   0.494  21.308   2.790
47507W        W12492  40.348  43.316  10.754
47508W        W12493  43.357  28.183   4.109
47509W        W12494  12.884   7.760  12.166
47510W        W12495  41.514   6.179  11.493
47511W        W12496  17.616  42.335   4.428
47512W        W12497  32.937  14.663   3.826
47513W        W12498  29.537  28.106   3.844
47514W        W12499  30.901  28.635  14.811
47515W        W12500   6.806   5.203  12.636
47516W        W12501   9.752  23.189  12.502
47517W        W12502  25.025  20.384   4.287
47518W        W12503  16.345  44.093   0.556
47519W        W12504   4.384   2.906  10.735
47520W        W12505  28.646   8.057   0.772
47521W        W12506  19.268  38.210   2.925
47522W        W12507   1.355  29.511  13.811
47523W        W12508  10.707  37.802  12.853
47524W        W12509  15.134  23.126   1.257
47525W        W12510  16.660  20.411  10.312
47526W        W12511  37.023  27.677   2.992
47527W        W12512  13.534  13.396  11.437
47528W        W12513  16.365   3.023   1.924
47529W        W12514  25.028  42.870  11.138
47530W        W12515  30.454  17.634  11.160
47531W        W12516   5.446  27.667   3.926
47532W        W12517   6.852   7.138   4.576
47533W        W12518   9.025  28.924   1.645
47534W        W12519  13.832  30.906  11.728
47535W        W12520  24.234  17.048   2.390
47536W        W12521  20.496   6.943  14.127
47537W        W12522   2.730   9.232   4.584
47538W        W12523  17.559  18.652  13.010
47539W        W12524  13.140  24.686   2.624
47540W        W12525  12.953  31.627  12.002
47541W        W12526  16.785   1.899   2.196
47542W        W12527  40.966  13.842   4.250
47543W        W12528  23.623   7.001   3.648
47544W        W12529  20.096   7.597  12.964
47545W        W12530  26.248  16.806   3.110
47546W        W12531   6.489   1.293   3.272
47547W        W12532  27.798  29.893   4.499
47548W        W12533  19.730  15.717   0.401
47549W        W12534  27.734   6.591   4.155
47550W        W12535   0.511  36.822   3.658
47551W        W12536  20.541  10.061   4.242
47552W        W12537  44.307  29.612  10.742
47553W        W12538  30.889  29.589  12.104
47554W        W12539  35.446   5.687  13.568
47555W        W12540  20.198  43.237  14.964
47556W        W12541  44.410  21.902  11.124
47557W        W12542  27.618  23.159  10.718
47558W        W12543  15.076  22.429   4.637
47559W        W12544  10.252   4.415   0.836
47560W        W12545   0.200   3.225  12.552
47561W        W12546   3.174  15.749   1.436
47562W        W12547   1.512  39.343  13.163
47563W        W12548  37.000  41.895  13.925
47564W        W12549  23.695  17.936  10.980
47565W        W12550  27.167  29.494  12.815
47566W        W12551  31.406  21.895   2.898
47567W        W12552  33.033  39.134   0.388
47568W        W12553  41.260  36.514   1.671
47569W        W12554  28.449  41.475   1.727
47570W        W12555   4.649  32.564  10.858
47571W        W12556  13.226   0.746   4.112
47572W        W12557  17.837  17.269  14.468
47573W        W12558  26.058  31.291  14.695
47574W        W12559  17.817   0.029  12.965
47575W        W12560   8.395  40.557  13.348
47576W        W12561   8.707   3.191  14.861
47577W        W12562  35.421  11.701  14.497
47578W        W12563  42.950  41.010  14.844
47579W        W12564  39.002  43.792  11.036
47580W        W12565  10.081  16.563   0.191
47581W        W12566  43.786  32.072   4.585
47582W        W12567  28.574  40.052  10.564
47583W        W12568   6.321  29.558   0.424
47584W        W12569  17.596   1.402   3.112
47585W        W12570   1.184  40.320   3.551
47586W        W12571   3.031   8.316  13.981
47587W        W12572  41.842  19.067   1.732
47588W        W12573  20.142   3.941   2.339
47589W        W12574  32.357   9.044  14.060
47590W        W12575  21.442  20.729  11.200
47591W        W12576  12.851  19.950  11.170
47592W        W12577  12.097  26.870  11.516
47593W        W12578  42.382  33.819   0.355
47594W        W12579  39.349  21.027   2.782
47595W        W12580  42.410  12.216   2.778
47596W        W12581   9.177  19.080  13.346
47597W        W12582  29.907  32.944  14.319
47598W        W12583  15.202  42.026   0.686
47599W        W12584  24.751   0.413  10.627
47600W        W12585   1.721  10.680   1.305
47601W        W12586   0.871  25.033   0.792
47602W        W12587  23.586  43.332   4.203
47603W        W12588  25.015   3.227   1.624
47604W        W12589  36.400  39.600  11.093
47605W        W12590   3.345   9.215   3.249
47606W        W12591  21.580  36.227  12.107
47607W        W12592  10.592   9.387  14.859
47608W        W12593   8.839   1.455   0.196
47609W        W12594  28.222  44.559  14.392
47610W        W12595   1.958  24.293  13.680
47611W        W12596  12.630  30.504   2.879
47612W        W12597   0.065  37.813  13.458
47613W        W12598  28.649   3.060   5.136
47614W        W12599  29.450  19.488   2.597
47615W        W12600  12.127  44.985   1.909
47616W        W12601  15.553  26.028   4.131
47617W        W12602   2.270  24.864   1.926
47618W        W12603  11.637  34.370  11.197
47619W        W12604  36.595   2.928   0.812
47620W        W12605  16.359  35.298  13.896
47621W        W12606  14.503  14.162  10.655
47622W        W12607  28.019   7.058   1.130
47623W        W12608  10.221   0.882   4.326
47624W        W12609  44.243  23.054   1.156
47625W        W12610   1.914  24.638  14.403
47626W        W12611  18.650  39.627  10.567
47627W        W12612   7.259  33.538  13.102
47628W        W12613  29.598  16.205   4.654
47629W        W12614  16.060  11.262  14.575
47630W        W12615   4.707  33.308   0.251
47631W        W12616  44.389   1.392   1.377
47632W        W12617  28.948  42.588  14.120
47633W        W12618  41.705  15.572  14.476
47634W        W12619  37.654  26.553  10.491
47635W        W12620  40.379  30.244  14.965
47636W        W12621  21.519  14.585  12.406
47637W        W12622  24.540  19.189   1.242
47638W        W12623  15.569  33.111  12.942
47639W        W12624   4.838   1.924   1.318
47640W        W12625  22.539  18.688  11.179
47641W        W12626  33.675   4.035  14.730
47642W        W12627   6.091  39.140  14.885
47643W        W12628  40.330  12.341   0.916
47644W        W12629  31.038  42.031  13.995
47645W        W12630  10.571  27.273  14.341
47646W        W12631  22.956  16.681   2.701
47647W        W12632   2.753  17.414  10.561
47648W        W12633   3.951  15.183   2.251
47649W        W12634  36.999  17.288  10.442
47650W        W12635  38.383   3.300   0.075
47651W        W12636   1.338  18.356   0.637
47652W        W12637  40.426  13.339  12.535
47653W        W12638  20.267  25.146  12.741
47654W        W12639   1.049   8.186   2.816
47655W        W12640  28.567  42.208   0.330
47656W        W12641  17.253  27.954  12.092
47657W        W12642   8.631   9.263  10.601
47658W        W12643  18.661  44.280  10.354
47659W        W12644  10.257  24.068  14.360
47660W        W12645  33.378  16.826   1.280
47661W        W12646   6.095  20.983  14.365
47662W        W12647  42.416  17.633   3.157
47663W        W12648   1.093   9.344  12.816
47664W        W12649  20.590  36.472   2.139
47665W        W12650  22.529   1.132   2.908
47666W        W12651  37.900  23.711  13.781
47667W        W12652  34.084  25.688   3.270
47668W        W12653  36.922  35.836  11.683
47669W        W12654  10.451   4.688  10.534
47670W        W12655   1.455  29.197  12.138
47671W        W12656  36.517  20.721   1.291
47672W        W12657  11.271  21.069  12.594
47673W        W12658  19.230  10.136  12.917
47674W        W12659  11.072  36.551  12.483
47675W        W12660  17.230  36.918  14.924
47676W        W12661  16.874  21.016   2.716
47677W        W12662  11.207  13.040  12.981
47678W        W12663  17.334  15.170   3.254
47679W        W12664   8.626  26.635  12.583
47680W        W12665   3.432  22.672   1.198
47681W        W12666  25.560  25.518   2.634
47682W        W12667  29.738  10.215   5.277
47683W        W12668  28.830   7.440   3.951
47684W        W12669  23.511   3.354   0.670
47685W        W12670   9.776   5.310   4.921
47686W        W12671  40.663  26.080   2.788
47687W        W12672   1.194  29.819   1.365
47688W        W12673  17.134  27.440  14.309
47689W        W12674  19.972  11.963   1.639
47690W        W12675  12.432  12.668  11.482
47691W        W12676  39.335  20.558  10.878
47692W        W12677  14.794  15.221   0.548
47693W        W12678  25.962  41.311  13.893
47694W        W12679  21.831  31.976   3.800
47695W        W12680  28.404  37.874   0.279
47696W        W12681  25.132  27.540   3.912
47697W        W12682  30.534  41.900   0.763
47698W        W12683   8.800  39.218  11.902
47699W        W12684  43.815  26.515  14.170
47700W        W12685  30.126  17.779   0.751
47701W        W12686  23.970  42.923   2.177
47702W        W12687   5.631   6.972  11.919
47703W        W12688   7.386  37.490  10.825
47704W        W12689  33.185  18.699   4.407
47705W        W12690   6.935  28.595  12.094
47706W        W12691  16.267  33.575  14.364
47707W        W12692  19.662  36.936   1.379
47708W        W12693  31.432   6.759   2.207
47709W        W12694  13.861  20.038   3.051
47710W        W12695  23.009  18.329  12.381
47711W        W12696  11.407  33.595   2.312
47712W        W12697   0.413  16.567  12.077
47713W        W12698  44.587  43.687   0.358
47714W        W12699  37.530  41.805   2.952
47715W        W12700  10.498  24.914   5.035
47716W        W12701  17.583  25.197   0.983
47717W        W12702  18.284  42.950   2.339
47718W        W12703  32.852  17.846  14.486
47719W        W12704  11.659  37.360  10.770
47720W        W12705  34.530   7.305  11.897
47721W        W12706  29.816  13.089  10.910
47722W        W12707  42.774   9.382   0.938
47723W        W12708   6.721   9.126  14.101
47724W        W12709  23.176   8.922  12.891
47725W        W12710  25.139  11.278   4.555
47726W        W12711  43.829   2.258  14.816
47727W        W12712  21.009  26.190   2.369
47728W        W12713  14.276  19.666  13.504
47729W        W12714   3.013  15.681   4.041
47730W        W12715  11.390  36.692   1.347
47731W        W12716   3.238   9.822   3.038
47732W        W12717  17.572  38.380  11.014
47733W        W12718  30.075   5.140   4.267
47734W        W12719  26.526   4.261   3.649
47735W        W12720   4.378  32.032   2.694
47736W        W12721  39.920   6.796   0.801
47737W        W12722   6.243  40.769  12.905
47738W        W12723  27.526  29.407  11.583
47739W        W12724  34.994   5.472  11.847
47740W        W12725  18.499  42.921  13.888
47741W        W12726  28.138   2.748  10.753
47742W        W12727  11.178  14.133  13.795
47743W        W12728  39.266  33.576   4.323
47744W        W12729  23.976  34.398   0.308
47745W        W12730   2.853  27.039  13.225
47746W        W12731   4.944  36.371   1.342
47747W        W12732  16.632  15.619  11.148
47748W        W12733  33.485  34.105  13.721
47749W        W12734   6.194  41.497  11.521
47750W        W12735  31.226  44.301   2.348
47751W        W12736   7.496   1.927   2.558
47752W        W12737   2.939   8.260   2.712
47753W        W12738  44.005   8.945   3.746
47754W        W12739   8.797  15.530   4.040
47755W        W12740  11.392  15.394   3.622
47756W        W12741  17.769  36.421  14.357
47757W        W12742  38.372  30.182   0.051
47758W        W12743  20.183  36.751  11.591
47759W        W12744   3.869   0.009   0.567
47760W        W12745   6.219  19.756   3.640
47761W        W12746  32.892   1.000   1.231
47762W        W12747  38.908  40.250  14.681
47763W        W12748  43.096   3.502  12.097
47764W        W12749   8.265  23.537   4.141
47765W        W12750  28.113  17.970  11.970
47766W        W12751   8.104  17.418   2.523
47767W        W12752  25.060  12.361   3.214
47768W        W12753  21.788   1.028  11.503
47769W        W12754  43.866  36.815  10.821
47770W        W12755  15.253  31.810   2.195
47771W        W12756  10.442  38.501  11.249
47772W        W12757  39.189  10.838  12.287
47773W        W12758  25.748  38.442   2.245
47774W        W12759  11.396   6.755  11.999
47775W        W12760  42.805  15.407  11.271
47776W        W12761  21.961  42.687  11.512
47777W        W12762  34.012  29.119   3.820
47778W        W12763   5.217  28.524   0.777
47779W        W12764  19.769  13.797   4.633
47780W        W12765  24.681  19.788   0.068
47781W        W12766  38.818   9.882  14.241
47782W        W12767  29.612  39.758   2.245
47783W        W12768   0.524  43.825  10.986
47784W        W12769  17.710  29.396  13.866
47785W        W12770  40.297  14.180  10.714
47786W        W12771  15.347  31.065   2.917
47787W        W12772  42.900  40.801  12.447
47788W        W12773   1.425  32.502  10.594
47789W        W12774  25.754  21.731   4.769
47790W        W12775   7.621  29.231   1.653
47791W        W12776   6.440  35.797  12.548
47792W        W12777  26.680  35.066   3.562
47793W        W12778  14.058  38.091  14.319
47794W        W12779  39.408   7.728  11.152
47795W        W12780   1.820   9.174  12.058
47796W        W12781  38.433  11.325  12.744
47797W        W12782  16.724  37.676  12.158
47798W        W12783   8.257  10.368   4.519
47799W        W12784  36.898  39.810  11.918
47800W        W12785  22.254   3.906  13.306
47801W        W12786  42.303   5.677  11.866
47802W        W12787   7.877  22.273  13.012
47803W        W12788  33.222   0.520   0.063
47804W        W12789  24.668  19.831  11.914
47805W        W12790  33.937  19.524   3.763
47806W        W12791   7.821  27.193   0.705
47807W        W12792  43.759   5.874  13.920
47808W        W12793  35.571   6.897   1.790
47809W        W12794  17.229  12.946   2.180
47810W        W12795  41.246  16.474  13.411
47811W        W12796  25.466  11.153  14.912
47812W        W12797  33.621   4.736  10.656
47813W        W12798  21.381   8.160  11.921
47814W        W12799  34.008  25.017   5.044
47815W        W12800  42.917  38.942   4.470
47816W        W12801  32.950   9.496   3.358
47817W        W12802  15.822  26.407   9.894
47818W        W12803  16.879  20.157   0.329
47819W        W12804  33.495  26.882  13.236
47820W        W12805  17.680  29.058   1.943
47821W        W12806  31.069  10.865   0.775
47822W        W12807  30.508   4.423  11.943
47823W        W12808  22.109  13.932   2.237
47824W        W12809  17.295   0.958   3.845
47825W        W12810   0.486  36.656   0.990
47826W        W12811  43.069  17.929  11.709
47827W        W12812  30.611   6.102   4.266
47828W        W12813  37.513  17.617  10.901
47829W        W12814  36.832  36.560   0.379
47830W        W12815  42.269  24.542  11.303
47831W        W12816   4.915   6.918   2.105
47832W        W12817  21.952  21.135  14.267
47833W        W12818  13.582  17.297  12.129
47834W        W12819   4.341  43.673  13.881
47835W        W12820  16.557   1.418  13.651
47836W        W12821  26.488  22.692  14.285
47837W        W12822  13.285  39.636  11.684
47838W        W12823  21.559   6.628   2.994
47839W        W12824  21.781  41.169   4.655
47840W        W12825  16.364  12.308  13.140
47841W        W12826  29.410  10.285   1.869
47842W        W12827  13.666  38.937   1.966
47843W        W12828  30.690  31.893   4.641
47844W        W12829   7.963  17.576   0.019
47845W        W12830   2.393  26.501   2.254
47846W        W12831  16.651   6.377  11.210
47847W        W12832  29.898  31.145   3.085
47848W        W12833   3.158  25.974  12.873
47849W        W12834  13.611  15.677   2.448
47850W        W12835  20.094  10.381  14.447
47851W        W12836  29.056  22.691   3.318
47852W        W12837  10.657  42.926  13.596
47853W        W12838  44.220  22.181  10.740
47854W        W12839  19.331   1.148  14.394
47855W        W12840  27.397  14.716  11.072
47856W        W12841   6.201  43.925  12.212
47857W        W12842  28.014  37.982   0.953
47858W        W12843  33.883   2.743   4.628
47859W        W12844   3.607  11.757   0.889
47860W        W12845  35.534  27.592   1.301
47861W        W12846  10.681  13.296   3.102
47862W        W12847  12.211   2.115  12.793
47863W        W12848   2.976  32.132   0.238
47864W        W12849  26.169  38.870  10.265
47865W        W12850  38.992  19.988  10.309
47866W        W12851  11.100  13.249   2.325
47867W        W12852  17.676  12.808   1.859
47868W        W12853   0.945  40.082  13.558
47869W        W12854  29.641  39.010   1.519
47870W        W12855  17.673  11.721   0.860
47871W        W12856  16.320  21.660  14.962
47872W        W12857  16.010   6.075  14.382
47873W        W12858  22.695  27.557   1.721
47874W        W12859  13.823  42.984  11.899
47875W        W12860  10.150  15.122  12.482
47876W        W12861  18.203  11.876   4.241
47877W        W12862  14.498  41.755  12.544
47878W        W12863  27.317   2.914   5.459
47879W        W12864  37.954  16.593   1.849
47880W        W12865  26.912  19.612   2.574
47881W        W12866   9.652   3.273   0.491
47882W        W12867  33.099  39.160   4.617
47883W        W12868  18.069  16.847  14.254
47884W        W12869   7.409   6.818   3.629
47885W        W12870  40.750  23.716  11.178
47886W        W12871  23.066  33.678  14.322
47887W        W12872  21.015  33.622   1.254
47888W        W12873  23.765  33.886   0.389
47889W        W12874   0.597  21.576  10.728
47890W        W12875  32.559  35.522  12.114
47891W        W12876  21.261  13.432   0.887
47892W        W12877  21.574  11.476  13.820
47893W        W12878  13.942  20.357   2.655
47894W        W12879  37.888  44.788  13.402
47895W        W12880  22.130  35.088   3.172
47896W        W12881  30.452  40.662   4.268
47897W        W12882  24.823  25.636  13.608
47898W        W12883  39.437   1.794   4.696
47899W        W12884  20.298  35.958  14.171
47900W        W12885  33.420   3.775  12.600
47901W        W12886   9.656  30.168   0.345
47902W        W12887  44.408   5.249   4.390
47903W        W12888  40.449  11.729   4.453
47904W        W12889  33.912   5.635  10.539
47905W        W12890  22.054  36.602  10.978
47906W        W12891  29.463  24.144   2.573
47907W        W12892  40.641  38.494   1.493
47908W        W12893  31.109  16.292   0.907
47909W        W12894  44.525  19.738  12.050
47910W        W12895   5.707  21.321  14.424
47911W        W12896  32.405  18.374  12.209
47912W        W12897   7.386  31.614   0.328
47913W        W12898  40.512  26.949  11.077
47914W        W12899  12.489  12.448   2.146
47915W        W12900  17.662  18.214   5.167
47916W        W12901  44.800  22.513   4.020
47917W        W12902  31.203  21.167  10.180
47918W        W12903   7.475  41.297  14.115
47919W        W12904   9.260  39.245   3.294
47920W        W12905   7.223  30.191   1.237
47921W        W12906  10.077  43.788   2.359
47922W        W12907  19.099  42.386   2.774
47923W        W12908  19.097  32.126  14.958
47924W        W12909  17.117   5.834   2.251
47925W        W12910  22.739  34.215  13.523
47926W        W12911  21.565  24.286  12.951
47927W        W12912  35.606   7.823  14.300
47928W        W12913   0.593  29.697   2.828
47929W        W12914  17.109   1.418  13.531
47930W        W12915   4.899  18.769   3.562
47931W        W12916  36.999   8.377  12.461
47932W        W12917   1.801  10.698  14.854
47933W        W12918   0.876  28.570   0.934
47934W        W12919  29.834  30.354   1.993
47935W        W12920  28.528  26.082  11.407
47936W        W12921  11.998  42.986  13.968
47937W        W12922  25.530   6.180  13.338
47938W        W12923  43.266  24.562   0.184
47939W        W12924   3.923  40.981   0.337
47940W        W12925  23.130  39.507   0.334
47941W        W12926   2.372  12.198   3.166
47942W        W12927  25.417  17.728   0.471
47943W        W12928  17.720  18.708  12.516
47944W        W12929  15.068  42.935   0.763
47945W        W12930  28.840  19.213   4.607
47946W        W12931  15.507  27.572  12.575
47947W        W12932  21.819  31.168  11.081
47948W        W12933  18.695  39.360  13.512
47949W        W12934   4.196  25.636  11.331
47950W        W12935  43.506  31.819  10.680
47951W        W12936  12.367  24.853   3.147
47952W        W12937  14.064  20.083  14.926
47953W        W12938   0.962  38.537   3.636
47954W        W12939  32.512  20.199  13.446
47955W        W12940  20.870   0.079  12.150
47956W        W12941  10.664  31.861  14.529
47957W        W12942  14.944  14.363  10.507
47958W        W12943  10.177  28.372   1.822
47959W        W12944   8.275  13.551  13.740
47960W        W12945  27.911  24.596  12.429
47961W        W12946  44.515  32.613   4.594
47962W        W12947  17.845  19.448   3.208
47963W        W12948  13.712   5.116   3.169
47964W        W12949   9.380  20.772  12.525
47965W        W12950  34.070  33.434   1.343
47966W        W12951  43.518  31.931  12.204
47967W        W12952   2.320   2.408   1.526
47968W        W12953  30.819  23.616  12.664
47969W        W12954   6.039  13.778   2.585
47970W        W12955  25.578  17.155  11.594
47971W        W12956  41.277  14.261  11.904
47972W        W12957  30.869  27.029  11.360
47973W        W12958  24.377  43.536   0.396
47974W        W12959  33.905  20.701   2.023
47975W        W12960   8.847  27.151  14.437
47976W        W12961   5.786  30.044   1.026
47977W        W12962  29.464  18.681  10.187
47978W        W12963  34.401  20.746   3.635
47979W        W12964   4.795  31.115   2.298
47980W        W12965   8.614  21.311  12.957
47981W        W12966  33.302  18.375  13.497
47982W        W12967  29.035  35.133   0.875
47983W        W12968   6.897   7.662   4.624
47984W        W12969  39.581  31.488  12.406
47985W        W12970  25.740  38.905  11.633
47986W        W12971   3.769  35.505  14.209
47987W        W12972  43.648   8.295  12.099
47988W        W12973  30.222   7.777  13.501
47989W        W12974  39.979  14.144  12.599
47990W        W12975  21.635  39.189  11.627
47991W        W12976   5.705  44.708   1.773
47992W        W12977  14.050  40.226  10.339
47993W        W12978  29.721  41.660  11.603
47994W        W12979  43.720  23.628   1.713
47995W        W12980  12.893  17.550  14.042
47996W        W12981  38.543   2.365  14.727
47997W        W12982   4.849   1.927   0.259
47998W        W12983  39.368  44.039   4.252
47999W        W12984  34.056  18.104  14.891
48000W        W12985  39.021  41.770  13.956
48001W        W12986  44.959  15.208   3.298
48002W        W12987  36.456   0.946  11.513
48003W        W12988  38.398  31.248   1.931
48004W        W12989  18.276   9.196  13.276
48005W        W12990  22.240  19.079  14.857
48006W        W12991   0.240  31.480  11.290
48007W        W12992  28.185  16.269  13.130
48008W        W12993  35.894  24.423   3.798
48009W        W12994   6.082  42.479   2.170
48010W        W12995   0.103  25.141  13.502
48011W        W12996   4.166  35.295  12.961
48012W        W12997  43.841  30.959  14.073
48013W        W12998  22.767  21.018  11.173
48014W        W12999  22.513  29.193  12.227
48015W        W13000  24.778  27.725   4.220
48016W        W13001   0.879   3.378  13.608
48017W        W13002   6.448   6.060  13.829
48018W        W13003  43.818  34.575   0.510
48019W        W13004  39.214  24.491  14.947
48020W        W13005  36.026   8.872   3.357
48021W        W13006  24.952  40.992   1.279
48022W        W13007  39.586  28.706   0.411
48023W        W13008   8.266   6.754  12.928
48024W        W13009  13.660   8.614   2.747
48025W        W13010  27.567   0.731   0.964
48026W        W13011  43.818   2.163  12.827
48027W        W13012  27.076  28.223  14.850
48028W        W13013  19.465   9.893  12.063
48029W        W13014  31.043  41.079   2.344
48030W        W13015   9.622  27.458   2.290
48031W        W13016  18.135  39.506  11.437
48032W        W13017  19.163  31.401  14.058
48033W        W13018  31.838  16.305   1.693
48034W        W13019  13.676  35.514   4.220
48035W        W13020  44.048  39.174  10.096
48036W        W13021  38.613  41.403   3.797
48037W        W13022   0.988   1.424  11.205
48038W        W13023  10.292   4.978   0.993
48039W        W13024  12.275  29.624  14.456
48040W        W13025  37.087  13.284   1.973
48041W        W13026   6.198  11.648  14.013
48042W        W13027  34.055  29.016  14.959
48043W        W13028   9.588  13.775   3.677
48044W        W13029  27.064   3.467   4.244
48045W        W13030  36.493  43.176   2.656
48046W        W13031  23.457  10.067   1.364
48047W        W13032  36.009  11.551   9.885
48048W        W13033  13.798  30.509  14.413
48049W        W13034  13.397   6.221   1.041
48050W        W13035  12.822  38.976  12.832
48051W        W13036  30.183  32.709   5.027
48052W        W13037  38.745  22.065   0.874
48053W        W13038  34.642  11.686   1.352
48054W        W13039  10.829   2.594  10.678
48055W        W13040  35.008  16.798  10.486
48056W        W13041  30.380  29.198   3.171
48057W        W13042   2.306  19.026  11.802
48058W        W13043  19.694  22.458   4.560
48059W        W13044  17.246  40.810  13.963
48060W        W13045   8.913  34.593   3.758
48061W        W13046  23.627  17.201  10.649
48062W        W13047   6.314  21.966  13.585
48063W        W13048  21.126   8.318   4.206
48064W        W13049  19.749  34.885  10.039
48065W        W13050  22.052  42.294  14.043
48066W        W13051   6.309  30.266  14.336
48067W        W13052  35.949  38.366   3.739
48068W        W13053  11.019  28.983  12.536
48069W        W13054  29.510  44.508   1.376
48070W        W13055  24.170  13.598  14.732
48071W        W13056   5.757  25.140  12.332
48072W        W13057  20.539   1.312  13.017
48073W        W13058  23.231  42.577   1.771
48074W        W13059  29.378  18.238  10.975
48075W        W13060  17.172  28.470   3.296
48076W        W13061  42.093   8.822   2.830
48077W        W13062  38.023  13.045  14.434
48078W        W13063  16.666   7.912  11.232
48079W        W13064   6.676   1.987   4.295
48080W        W13065  29.051  43.051   2.107
48081W        W13066  44.276  15.528  11.214
48082W        W13067   8.419   8.347   2.749
48083W        W13068  32.056   2.694   5.091
48084W        W13069   4.981   2.089  13.063
48085W        W13070  24.009  29.578  14.849
48086W        W13071  43.923   3.921   3.093
48087W        W13072   6.281  28.600   3.760
48088W        W13073  23.832  20.156   4.901
48089W        W13074  29.171  44.989  12.121
48090W        W13075   1.067   4.528   0.761
48091W        W13076   8.183  31.014   3.111
48092W        W13077  25.031   3.735  14.051
48093W        W13078   0.113  34.907   0.893
48094W        W13079  33.535  29.051  14.906
48095W        W13080   4.204   8.976   0.310
48096W        W13081  33.417  26.082  12.626
48097W        W13082  17.097  20.116   2.891
48098W        W13083   7.185  39.969  14.482
48099W        W13084  30.035  20.398   2.237
48100W        W13085   6.646  12.298  11.211
48101W        W13086  13.326  15.249   4.626
48102W        W13087  28.467  32.390  14.386
48103W        W13088   2.310   9.649  14.869
48104W        W13089   2.992   2.276  14.897
48105W        W13090  31.095  23.238  12.961
48106W        W13091  19.096   2.776   2.379
48107W        W13092  36.810  19.531  13.424
48108W        W13093   4.754  28.728   0.956
48109W        W13094  44.230  37.825  10.756
48110W        W13095  19.024  38.351  11.200
48111W        W13096   4.676  18.557   1.075
48112W        W13097   4.485  17.826   2.270
48113W        W13098  29.919  44.132   4.920
48114W        W13099   8.379  16.823  12.041
48115W        W13100  15.754  40.292  13.511
48116W        W13101   3.257  21.657  12.697
48117W        W13102  33.853  14.321   2.976
48118W        W13103   8.782  41.253  11.451
48119W        W13104  32.408  29.086   1.319
48120W        W13105  39.812  32.493  11.145
48121W        W13106  17.831  24.055   2.564
48122W        W13107  13.771   2.906   1.909
48123W        W13108   9.335  40.469   1.910
48124W        W13109  26.939  32.611  13.509
48125W        W13110   8.214   3.443   1.522
48126W        W13111  34.062  40.443   3.813
48127W        W13112   0.290  36.372  14.501
48128W        W13113   1.482  16.993  12.428
48129W        W13114  21.632  26.479  12.502
48130W        W13115  37.035  22.288   0.104
48131W        W13116   5.379  38.450   0.361
48132W        W13117  13.781  15.419  12.963
48133W        W13118   5.934  44.972  12.043
48134W        W13119  10.703  18.321   1.742
48135W        W13120  15.782  30.670  11.078
48136W        W13121  35.046  16.280  10.662
48137W        W13122  31.867   1.775  12.919
48138W        W13123   5.037  23.975  11.982
48139W        W13124  40.216  30.196  13.451
48140W        W13125  12.866  13.844   1.882
48141W        W13126  35.499  24.523   4.407
48142W        W13127  17.830   9.835  12.939
48143W        W13128  20.067  17.547   2.151
48144W        W13129  18.594  34.403   3.576
48145W        W13130  44.006  36.516   0.342
48146W        W13131   7.973  20.480   4.464
48147W        W13132   1.713   3.324  13.785
48148W        W13133  18.474  28.966   4.187
48149W        W13134   5.574  20.762  11.957
48150W        W13135  18.546  26.674  12.509
48151W        W13136   6.306  11.613   4.184
48152W        W13137  12.358  29.901  11.573
48153W        W13138   5.022   6.755   3.160
48154W        W13139  31.023  11.577  13.826
48155W        W13140  27.911  19.487  12.070
48156W        W13141  36.806  26.162  11.386
48157W        W13142  20.497   5.964   3.830
48158W        W13143  28.216   9.179  13.012
48159W        W13144  15.175   6.806  14.804
48160W        W13145  20.099  10.405   1.235
48161W        W13146   0.170  17.728   1.275
48162W        W13147  10.817  41.999   4.057
48163W        W13148  33.681   3.841   0.211
48164W        W13149  38.897  21.044  11.573
48165W        W13150  23.686  15.734   0.519
48166W        W13151   5.192  30.360  10.358
48167W        W13152   1.906   0.444   4.636
48168W        W13153  19.014  18.475   2.346
48169W        W13154  14.030  34.077  13.075
48170W        W13155  31.562  39.736   3.614
48171W        W13156  10.969  37.839  11.033
48172W        W13157   6.880  32.124  13.007
48173W        W13158  29.458  12.875  11.183
48174W        W13159  30.966  10.569   5.183
48175W        W13160  39.033  37.106   3.179
48176W        W13161  19.035  19.774   1.799
48177W        W13162  24.490  31.597  13.882
48178W        W13163  23.494   8.219   0.940
48179W        W13164   8.722  29.407  14.855
48180W        W13165  19.470  26.183  13.734
48181W        W13166  33.515  22.256   1.185
48182W        W13167  24.142   8.422   3.280
48183W        W13168  20.428   3.499   2.333
48184W        W13169  27.566   5.181   2.760
48185W        W13170  15.040  37.035  11.686
48186W        W13171  27.534  34.487   3.356
48187W        W13172  30.907  43.833  14.751
48188W        W13173   0.930  38.390  14.948
48189W        W13174  10.908  11.761  10.929
48190W        W13175  16.565  18.629   0.002
48191W        W13176   4.163  44.045  14.668
48192W        W13177  28.289  29.995   4.664
48193W        W13178   0.787  13.677  13.292
48194W        W13179  42.951  44.277  14.823
48195W        W13180   1.880   3.220   1.887
48196W        W13181  20.129  24.474  14.959
48197W        W13182   7.313   3.002   4.633
48198W        W13183  35.566   6.172  11.251
48199W        W13184  44.617  28.225   2.146
48200W        W13185  39.347   2.825   1.206
48201W        W13186  26.855  16.365  11.324
48202W        W13187   2.977  31.471   0.042
48203W        W13188  40.463  32.145  13.586
48204W        W13189  23.662  24.943  10.764
48205W        W13190  18.373  13.372   4.372
48206W        W13191  22.572   1.379   1.703
48207W        W13192  29.804  17.625   3.319
48208W        W13193   6.666  13.654   0.349
48209W        W13194   6.456  25.614   1.571
48210W        W13195  44.842  16.801   2.388
48211W        W13196   8.419  15.500  12.105
48212W        W13197  16.049   4.719   3.161
48213W        W13198  36.558   1.342  14.508
48214W        W13199   0.902  36.363   4.113
48215W        W13200   1.964  15.142   3.361
48216W        W13201  22.964   7.590  10.802
48217W        W13202  35.153  28.001  12.145
48218W        W13203  33.929  22.715  14.051
48219W        W13204   8.410  13.089  13.000
48220W        W13205   2.524  39.655   4.555
48221W        W13206  39.435  18.469  13.613
48222W        W13207  30.821  34.222  12.931
48223W        W13208   6.963   1.435   3.092
48224W        W13209   2.177  17.718  11.398
48225W        W13210  30.151  40.638  14.936
48226W        W13211  11.028  33.837   2.055
48227W        W13212   0.853   1.697  10.474
48228W        W13213   6.958  35.841   4.167
48229W        W13214  27.377  33.956  12.539
48230W        W13215  27.998  22.011  11.765
48231W        W13216  43.737  40.302   1.851
48232W        W13217  35.008  19.062  12.550
48233W        W13218  18.016  13.093  13.621
48234W        W13219   0.034  16.202  13.106
48235W        W13220  24.142  33.095   1.844
48236W        W13221   8.389  39.496   0.464
48237W        W13222  24.112  36.835   4.714
48238W        W13223  18.771  31.135  12.370
48239W        W13224   8.468  12.279   0.247
48240W        W13225  12.889  27.177   3.791
48241W        W13226  25.085  15.174   3.570
48242W        W13227  12.115  21.620   2.662
48243W        W13228  23.566  16.659   1.945
48244W        W13229  35.791  44.943   4.008
48245W        W13230  39.474  15.780  13.696
48246W        W13231  13.158  20.268   4.647
48247W        W13232   7.355  22.565   4.507
48248W        W13233  39.006   2.508   1.447
48249W        W13234  13.892   6.048  11.574
48250W        W13235  44.051  18.458   3.142
48251W        W13236  21.627  34.100  11.123
48252W        W13237  16.561   6.449   1.293
48253W        W13238   0.315  31.767  12.199
48254W        W13239  27.003  13.216  10.943
48255W        W13240  28.156  21.170  14.378
48256W        W13241   0.967  25.141  13.890
48257W        W13242  19.674   4.499  12.911
48258W        W13243   1.091  21.733  10.799
48259W        W13244  24.089  15.136   0.451
48260W        W13245  17.532  37.065   4.619
48261W        W13246   6.837  33.909   0.343
48262W        W13247  21.916  10.115   1.471
48263W        W13248  42.608  20.043   5.006
48264W        W13249  33.603  10.930   4.037
48265W        W13250  26.271  43.799  10.335
48266W        W13251  35.671  38.621   4.254
48267W        W13252  12.045  41.031  12.153
48268W        W13253  38.001  39.339   3.658
48269W        W13254  20.342  41.543  14.390
48270W        W13255  29.723   1.851   1.760
48271W        W13256  15.095  38.383  14.983
48272W        W13257  31.557  19.730   4.654
48273W        W13258  29.928  11.659   0.875
48274W        W13259  30.736  22.563  14.754
48275W        W13260  40.377  33.831  11.263
48276W        W13261  37.084  23.020   1.298
48277W        W13262   9.347  29.171   4.673
48278W        W13263  32.496  30.377   3.230
48279W        W13264  20.885   0.143   2.165
48280W        W13265  44.097  27.930   3.567
48281W        W13266  43.512  31.628   3.215
48282W        W13267  32.438  17.360  11.967
48283W        W13268  36.865  23.288   2.625
48284W        W13269  22.575  30.171   0.899
48285W        W13270  14.242  35.281  13.560
48286W        W13271  23.247  34.696   4.549
48287W        W13272  16.285  24.006   4.858
48288W        W13273  33.358  38.363  12.961
48289W        W13274   4.266  31.140   1.030
48290W        W13275   2.700   7.769   1.435
48291W        W13276  10.567  39.432  10.566
48292W        W13277  29.037  36.072   3.687
48293W        W13278  18.539   0.286   1.894
48294W        W13279  42.474  23.042   1.891
48295W        W13280  36.161   5.672  12.949
48296W        W13281  42.987  15.694   2.820
48297W        W13282  15.760  38.968  14.017
48298W        W13283  44.778  30.989  12.857
48299W        W13284   4.517  39.374  13.089
48300W        W13285   2.934  36.489   3.591
48301W        W13286   3.487  43.168  12.337
48302W        W13287  28.090  32.926  11.875
48303W        W13288   4.311  29.028  12.345
48304W        W13289  26.565  36.060  12.006
48305W        W13290   3.711  25.008   4.562
48306W        W13291   7.716   9.699   4.213
48307W        W13292   2.455   6.146  10.287
48308W        W13293  44.400  31.330   0.062
48309W        W13294  19.456   7.894   3.640
48310W        W13295  37.504  44.076  12.787
48311W        W13296  37.463  16.875  14.909
48312W        W13297  25.603   6.613   2.190
48313W        W13298   9.771  15.646   4.320
48314W        W13299   6.407  21.813   4.657
48315W        W13300  23.229  19.854   3.656
48316W        W13301  32.060  32.621  11.212
48317W        W13302  36.139  36.824  11.064
48318W        W13303  37.431  29.708   2.685
48319W        W13304  36.329  29.925  14.621
48320W        W13305   2.498  35.316   2.250
48321W        W13306   5.349  43.435  13.048
48322W        W13307  41.927   2.197   4.259
48323W        W13308  31.287  19.151  11.962
48324W        W13309  28.706   2.699   2.624
48325W        W13310  33.286  39.829   3.211
48326W        W13311  42.952   1.903  10.359
48327W        W13312  39.604   2.492  13.481
48328W        W13313  43.485  39.561   0.614
48329W        W13314   6.863   8.191   2.318
48330W        W13315  28.456   9.358  12.600
48331W        W13316  21.667  26.633  10.738
48332W        W13317  37.659  10.545   0.812
48333W        W13318  29.934   5.157   0.407
48334W        W13319   5.482  32.674   2.814
48335W        W13320  20.516  15.292  14.415
48336W        W13321   4.831   4.896   4.597
48337W        W13322  10.934  20.758  10.514
48338W        W13323  31.382  28.073  14.352
48339W        W13324  36.069  27.613   3.852
48340W        W13325  30.879  22.161  11.645
48341W        W13326  34.161  31.583  10.733
48342W        W13327  35.763  26.218   4.350
48343W        W13328  19.577  17.890   3.632
48344W        W13329   1.837  41.362   0.091
48345W        W13330  44.955  16.871  13.550
48346W        W13331  14.922   7.248   0.435
48347W        W13332  29.783  25.961   4.270
48348W        W13333  21.828  11.731  11.131
48349W        W13334  40.991  26.491   2.726
48350W        W13335  41.020  29.819  13.548
48351W        W13336  35.689  37.468  14.790
48352W        W13337  27.743  20.622   2.302
48353W        W13338   5.736  14.804  11.889
48354W        W13339  25.239  16.017   2.722
48355W        W13340  27.682  17.274  11.737
48356W        W13341  37.597  40.824  13.045
48357W        W13342  10.454  23.834   0.670
48358W        W13343  29.567   8.894  12.841
48359W        W13344  34.931  13.239  11.079
48360W        W13345   6.651   4.317  13.475
48361W        W13346  26.232  37.552   4.599
48362W        W13347  26.633  23.860   3.088
48363W        W13348  44.736   3.965  14.624
48364W        W13349  12.038  41.566   1.821
48365W        W13350   0.383  36.304   2.879
48366W        W13351  13.359  19.364   1.067
48367W        W13352  40.799  34.344   1.922
48368W        W13353  39.773  12.148   1.456
48369W        W13354  30.262  30.093  13.585
48370W        W13355   9.749  21.231   4.514
48371W        W13356  13.725  17.089   4.003
48372W        W13357  13.853  40.311   0.672
48373W        W13358   4.020  31.562  11.941
48374W        W13359  32.160   0.828   4.553
48375W        W13360  27.052  32.804   1.163
48376W        W13361   7.337  40.536   4.877
48377W        W13362  42.911  42.020  13.051
48378W        W13363  21.633  38.908   1.403
48379W        W13364   4.375  15.407   3.181
48380W        W13365  28.955   4.984  11.749
48381W        W13366   4.426   1.423  10.903
48382W        W13367  31.119  19.630  11.964
48383W        W13368  22.191  19.316  14.389
48384W        W13369  42.997   9.467   5.194
48385W        W13370  22.287  43.189  14.511
48386W        W13371  16.741  21.478  13.952
48387W        W13372  26.625   4.743  10.304
48388W        W13373  17.583  18.008   2.777
48389W        W13374  31.608   3.979  12.883
48390W        W13375  19.235   8.199  13.163
48391W        W13376  28.480  28.296   4.003
48392W        W13377  33.567  42.340  13.029
48393W        W13378  40.281  36.862  11.209
48394W        W13379  21.983   4.662   1.832
48395W        W13380  18.742  34.052  11.486
48396W        W13381  36.823  44.918   3.894
48397W        W13382  17.887  40.059   0.736
48398W        W13383  17.176   8.228  13.439
48399W        W13384  43.034  35.656  12.672
48400W        W13385  29.568  41.711   1.609
48401W        W13386  22.857  34.153   2.854
48402W        W13387  17.025  10.666   2.579
48403W        W13388  37.119  39.517   3.614
48404W        W13389  35.398  43.744   3.318
48405W        W13390  27.131  17.421   3.230
48406W        W13391  44.454  34.087  11.702
48407W        W13392  27.428  22.551   2.906
48408W        W13393  10.206  15.301  11.983
48409W        W13394  44.453  15.052   0.462
48410W        W13395  12.181  29.416   2.197
48411W        W13396  37.853   3.436   0.165
48412W        W13397   2.479   6.900   2.658
48413W        W13398   8.317  30.509   2.204
48414W        W13399  42.594   9.912  12.169
48415W        W13400  23.905  20.304  12.100
48416W        W13401  21.831  22.980  14.367
48417W        W13402  42.846  10.807  14.707
48418W        W13403  16.600  17.731  14.741
48419W        W13404  28.181  11.277  14.348
48420W        W13405  37.541  31.501  13.367
48421W        W13406  41.228  11.947   0.531
48422W        W13407  22.507   3.839  11.620
48423W        W13408  24.757  18.064   2.872
48424W        W13409  28.888   0.063   4.835
48425W        W13410  43.846   2.791   4.121
48426W        W13411   4.837  21.199   2.612
48427W        W13412  24.168   7.178   4.325
48428W        W13413  20.296  22.703  14.898
48429W        W13414   8.356  32.867   2.601
48430W        W13415  17.206  24.274  10.760
48431W        W13416  14.216  14.642   0.380
48432W        W13417  36.425   7.599  13.345
48433W        W13418  26.016  40.258   3.151
48434W        W13419   1.802   1.267  14.918
48435W        W13420  19.599  14.225   2.330
48436W        W13421  37.474  20.150  11.906
48437W        W13422  12.657  27.363  13.375
48438W        W13423  28.072  29.939   3.228
48439W        W13424  43.836  20.241  12.458
48440W        W13425  37.886  15.895  10.055
48441W        W13426  39.516  33.867   1.246
48442W        W13427  38.725  16.848  11.147
48443W        W13428  28.526   2.003   1.326
48444W        W13429  23.154  25.246  14.357
48445W        W13430   8.135  13.859  13.349
48446W        W13431  39.655   8.153  11.996
48447W        W13432   8.431   6.633  10.489
48448W        W13433  36.560  21.228   1.292
48449W        W13434  42.259  20.139  11.877
48450W        W13435  31.430  10.628   2.183
48451W        W13436  39.545   0.848  11.206
48452W        W13437   5.256   3.581   3.694
48453W        W13438  43.010   3.379   4.879
48454W        W13439  15.835  42.870   1.736
48455W        W13440  44.910  37.457   3.544
48456W        W13441  21.921  27.507   1.480
48457W        W13442  38.913  10.940   2.352
48458W        W13443  24.387  33.209  12.532
48459W        W13444   1.714  42.285  11.945
48460W        W13445   4.318   7.666   0.785
48461W        W13446  41.419  36.563   3.499
48462W        W13447  30.184  34.308  10.842
48463W        W13448  43.150  22.545   0.480
48464W        W13449  15.064  42.415  13.119
48465W        W13450   6.788  30.312   0.952
48466W        W13451  33.874   8.799  11.327
48467W        W13452  39.877  23.845  11.456
48468W        W13453  22.753  11.195   1.935
48469W        W13454  13.556  39.899  13.909
48470W        W13455  30.800  11.633  11.521
48471W        W13456  44.675  36.622  14.429
48472W        W13457  10.974  15.262  12.594
48473W        W13458   1.038  29.260  13.482
48474W        W13459  17.115  42.767   0.404
48475W        W13460  14.729   1.266   0.311
48476W        W13461  32.931  28.174   0.296
48477W        W13462   6.959  40.904  10.726
48478W        W13463  15.963  14.305  12.070
48479W        W13464  19.678  22.262   4.069
48480W        W13465  21.016  20.696   0.680
48481W        W13466  37.365   1.353   3.669
48482W        W13467  32.040  42.839   0.631
48483W        W13468  21.047  29.440   3.837
48484W        W13469  24.008  27.746  11.991
48485W        W13470  31.538  14.774  12.298
48486W        W13471  41.854   8.798   1.322
48487W        W13472   7.831  19.990  10.295
48488W        W13473  17.085  16.273   0.558
48489W        W13474  18.535  40.875  13.422
48490W        W13475  29.231  18.524   0.489
48491W        W13476  27.216  12.668  12.129
48492W        W13477  43.881  20.661  13.881
48493W        W13478  38.765  25.656  13.348
48494W        W13479   1.333  37.341  10.743
48495W        W13480  26.901  33.644   1.810
48496W        W13481  26.466  44.113   4.605
48497W        W13482  39.627   3.047  14.819
48498W        W13483   6.828  31.944   3.725
48499W        W13484  33.420  43.075   4.983
48500W        W13485   6.469  28.657  14.935
48501W        W13486   7.361  15.219  12.436
48502W        W13487  42.839   3.887  11.807
48503W        W13488   9.750  31.837   0.732
48504W        W13489  12.206  32.431   4.454
48505W        W13490  30.432  14.320  10.783
48506W        W13491  40.118  22.232   1.247
48507W        W13492  23.312  12.553  11.418
48508W        W13493  31.448  39.398   4.053
48509W        W13494  38.546  13.333  14.416
48510W        W13495   2.654  24.054   0.225
48511W        W13496  38.076  39.956  10.717
48512W        W13497  29.537  12.362  12.997
48513W        W13498   4.435  33.956  12.616
48514W        W13499  40.039   4.136  14.808
48515W        W13500  19.218  15.212  12.506
48516W        W13501  18.192  37.091   4.233
48517W        W13502  10.385  24.545  14.722
48518W        W13503  44.716  21.774  13.936
48519W        W13504  24.409  44.833   3.656
48520W        W13505  13.174  17.171   1.819
48521W        W13506  44.810   7.008  14.773
48522W        W13507  27.020  20.024  14.370
48523W        W13508  36.872   7.868  13.315
48524W        W13509   6.646   2.263  14.034
48525W        W13510   5.741  23.250   0.260
48526W        W13511  34.395  39.912  13.013
48527W        W13512   0.301   7.181  12.913
48528W        W13513  37.985  30.204  10.962
48529W        W13514  31.608  14.864  10.789
48530W        W13515  23.593   0.219   1.850
48531W        W13516  36.385   4.370  13.551
48532W        W13517   4.744  32.918   3.765
48533W        W13518  19.231  14.354   4.158
48534W        W13519  17.924  28.253   2.884
48535W        W13520  15.678   3.185   4.099
48536W        W13521   3.940  13.282  13.563
48537W        W13522  34.195  40.923   3.601
48538W        W13523  18.814  27.055   9.519
48539W        W13524   7.482  44.454   4.555
48540W        W13525  43.310  34.567  14.766
48541W        W13526  36.593  30.815   4.054
48542W        W13527  25.285  43.798   2.164
48543W        W13528  21.690   9.255   2.766
48544W        W13529  23.591   0.190   0.577
48545W        W13530  39.285  38.738   1.910
48546W        W13531  34.890  42.980  13.141
48547W        W13532  40.009  43.846   3.052
48548W        W13533   2.364   0.467   2.362
48549W        W13534  44.349  16.768   1.623
48550W        W13535  36.780  13.789  10.786
48551W        W13536  39.755   1.710   1.461
48552W        W13537   9.866  22.275   4.500
48553W        W13538   5.009  21.563  13.678
48554W        W13539   8.621  27.625  14.331
48555W        W13540  16.125  21.530  11.120
48556W        W13541  34.775  23.542  11.611
48557W        W13542  18.984  24.707   0.379
48558W        W13543  25.873  17.570   1.429
48559W        W13544  14.629  10.146  12.990
48560W        W13545  42.298  29.238  13.738
48561W        W13546   0.214  11.474   0.688
48562W        W13547   0.524  18.973   0.699
48563W        W13548  32.608  38.870   2.310
48564W        W13549   8.931  31.393  14.412
48565W        W13550  31.534  21.005   1.709
48566W        W13551  25.197  23.620   1.143
48567W        W13552  29.427   0.466   1.182
48568W        W13553  20.753  43.522  13.909
48569W        W13554  22.832  18.123  14.721
48570W        W13555   7.226  43.334   2.242
48571W        W13556  38.583  26.068  13.079
48572W        W13557  21.251  35.523   3.907
48573W        W13558   4.820  39.989   1.907
48574W        W13559  44.531  44.249   4.986
48575W        W13560  26.583  21.143   1.902
48576W        W13561  42.846  22.487   0.883
48577W        W13562  27.706   1.786   0.780
48578W        W13563  11.958  30.962  10.435
48579W        W13564   5.786  14.779  10.998
48580W        W13565  22.183  35.542   3.946
48581W        W13566  17.290   5.001  12.165
48582W        W13567  23.819   5.703   3.175
48583W        W13568   6.636   8.822   1.658
48584W        W13569  37.479  43.286  12.516
48585W        W13570  35.061  31.608   2.873
48586W        W13571  26.087  12.854  14.348
48587W        W13572  10.988   3.510  10.182
48588W        W13573  37.422  25.662   4.990
48589W        W13574   4.713   5.777  10.310
48590W        W13575  39.887  11.621  13.709
48591W        W13576  10.834  37.996  13.330
48592W        W13577  24.350   2.228   3.758
48593W        W13578  21.506   3.481   2.752
48594W        W13579  13.938  21.649  10.678
48595W        W13580  28.878  32.458  13.202
48596W        W13581  25.006   8.590  11.206
48597W        W13582  32.432  15.105   0.915
48598W        W13583  20.898  25.252  11.345
48599W        W13584  43.409  17.021   0.714
48600W        W13585  30.686  32.507  14.356
48601W        W13586   3.182  15.105  14.020
48602W        W13587  34.551  27.202  12.445
48603W        W13588  44.897   2.655   1.371
48604W        W13589  17.713  39.733   3.113
48605W        W13590  19.636  16.464   0.905
48606W        W13591   2.680  21.274   2.387
48607W        W13592   1.408  17.512   0.392
48608W        W13593  31.535  22.531  14.553
48609W        W13594   8.690   8.492   2.192
48610W        W13595  22.091  39.876  13.340
48611W        W13596  23.050   8.604  12.477
48612W        W13597   6.280  16.825  11.693
48613W        W13598  37.802  34.815   9.471
48614W        W13599  34.678  23.555   0.471
48615W        W13600  40.225  37.027   4.611
48616W        W13601  11.293  38.659   1.900
48617W        W13602  20.767  33.319  13.907
48618W        W13603   4.872  38.068   2.392
48619W        W13604  21.478  20.640   2.548
48620W        W13605  43.358   5.198   4.831
48621W        W13606  19.798  19.706   3.360
48622W        W13607  10.134   2.428  12.967
48623W        W13608  15.199  28.300  12.449
48624W        W13609  15.245  31.175  10.313
48625W        W13610  39.826  43.374   4.036
48626W        W13611  26.155  37.474   0.777
48627W        W13612  29.778  16.303   0.346
48628W        W13613  18.603  39.699  11.691
48629W        W13614   6.641  27.748  14.468
48630W        W13615  32.636  28.557   4.853
48631W        W13616  18.575  25.446  14.997
48632W        W13617  43.717  31.554   0.790
48633W        W13618  38.321  25.868  11.611
48634W        W13619   1.689  15.705   0.286
48635W        W13620   6.248  39.481  10.243
48636W        W13621  44.208  40.428  10.690
48637W        W13622   7.199  37.007   0.238
48638W        W13623  28.532  36.215   2.234
48639W        W13624  30.033  30.612  12.149
48640W        W13625  28.857  24.123  11.220
48641W        W13626  24.692  14.218   3.395
48642W        W13627   3.970  14.060   1.325
48643W        W13628  40.694   2.840   2.795
48644W        W13629  11.441  32.206   0.687
48645W        W13630  36.343  12.806   1.678
48646W        W13631  23.451  14.233   1.306
48647W        W13632   0.250  30.446   3.854
48648W        W13633  21.535  22.163  11.991
48649W        W13634  40.456  26.763   2.295
48650W        W13635   7.216  40.016   0.812
48651W        W13636  29.096  28.855   4.031
48652W        W13637  14.167  17.803  11.206
48653W        W13638  39.812  43.275  10.769
48654W        W13639  12.743  18.627  14.487
48655W        W13640  38.497  21.580  10.725
48656W        W13641  15.885  44.527  11.369
48657W        W13642   9.311  24.708  11.917
48658W        W13643  27.062  34.448   1.901
48659W        W13644  41.136   2.243   3.310
48660W        W13645  42.484  18.286   0.835
48661W        W13646  12.269  36.781  14.839
48662W        W13647  34.909  31.424   4.194
48663W        W13648  34.042   5.945   4.685
48664W        W13649   4.797  17.742  11.791
48665W        W13650  43.516  33.772   1.933
48666W        W13651  37.907   2.212   4.189
48667W        W13652  24.972  16.846   3.416
48668W        W13653  28.980  38.001  14.252
48669W        W13654   7.117  22.067  12.447
48670W        W13655  38.911  13.355  14.008
48671W        W13656  41.110   1.425  14.305
48672W        W13657   6.363  32.838  12.496
48673W        W13658  11.673  13.123   2.220
48674W        W13659   7.261  33.632  11.185
48675W        W13660  41.092  33.369  14.384
48676W        W13661   2.315  40.606  13.916
48677W        W13662  10.277  28.797   3.592
48678W        W13663   8.578  29.052  13.084
48679W        W13664  28.330  33.374  11.679
48680W        W13665  22.739  28.680   2.750
48681W        W13666  23.379  21.722  10.646
48682W        W13667   5.728  32.601   1.281
48683W        W13668  21.736   4.436  14.009
48684W        W13669  31.195  35.472   2.411
48685W        W13670   3.174  43.163   4.322
48686W        W13671  34.009  11.280  12.869
48687W        W13672  33.938  28.631   0.828
48688W        W13673   5.563  18.938  12.042
48689W        W13674  13.186  38.552  14.405
48690W        W13675   3.270   7.306  10.826
48691W        W13676  40.514  28.264   9.474
48692W        W13677  32.479  33.163   2.334
48693W        W13678   1.425  30.916  14.968
48694W        W13679  36.343  11.217   2.566
48695W        W13680   4.066   8.108   4.530
48696W        W13681  38.543  30.638  14.529
48697W        W13682  41.803   5.971  13.945
48698W        W13683  20.030  15.287  12.734
48699W        W13684   1.213   1.639   0.692
48700W        W13685   3.514  34.001  14.354
48701W        W13686  21.269   0.403  12.292
48702W        W13687   2.673  39.218  13.799
48703W        W13688  20.181  24.316   0.997
48704W        W13689  29.993  36.497   1.458
48705W        W13690  20.759  30.619  11.457
48706W        W13691  29.532   5.829   3.095
48707W        W13692  29.510  30.967   0.374
48708W        W13693  31.964  11.693   1.303
48709W        W13694  15.554  13.712  11.290
48710W        W13695  24.578  36.869  14.525
48711W        W13696  40.372  26.551   4.520
48712W        W13697   2.945  25.878  14.931
48713W        W13698  42.499   5.366   2.454
48714W        W13699  28.103  30.197  10.153
48715W        W13700  12.034  16.794   0.367
48716W        W13701  37.576  28.713  13.020
48717W        W13702  19.739  44.274  11.522
48718W        W13703  34.316  12.644  13.236
48719W        W13704  31.517  10.346  14.129
48720W        W13705  28.603  12.097  14.931
48721W        W13706  26.033  20.804   2.832
48722W        W13707   3.407  43.081   3.297
48723W        W13708  39.000  19.351   3.648
48724W        W13709  42.242  43.306   3.182
48725W        W13710  35.173   7.583   2.389
48726W        W13711   9.829   3.694   0.769
48727W        W13712  18.646   9.823   1.196
48728W        W13713  34.077  37.719   4.279
48729W        W13714   6.681  16.657   3.309
48730W        W13715  29.223   1.786   1.707
48731W        W13716  32.367  42.440   4.117
48732W        W13717   0.734   6.915  12.188
48733W        W13718  26.591  25.086  13.918
48734W        W13719  39.988  42.807  12.786
48735W        W13720  19.126   6.815   4.013
48736W        W13721  19.554  10.153  12.517
48737W        W13722  16.071  31.632   2.724
48738W        W13723   0.145  14.517   2.703
48739W        W13724  30.079   1.179  13.187
48740W        W13725  35.586   9.669  11.794
48741W        W13726  20.210   6.899  13.327
48742W        W13727  26.711  40.000   3.620
48743W        W13728  35.943  39.771  11.636
48744W        W13729   8.300  12.944   3.014
48745W        W13730   6.797  44.381   1.434
48746W        W13731  23.073  32.393  14.972
48747W        W13732   3.757  15.030   1.371
48748W        W13733  26.041  10.022   0.367
48749W        W13734  41.964  35.101  14.312
48750W        W13735   7.674  13.028  12.634
48751W        W13736  42.938   2.490   4.631
48752W        W13737  31.993  36.285   3.110
48753W        W13738  34.350  23.967   0.662
48754W        W13739  26.169  20.917  14.743
48755W        W13740   3.966  32.188  11.490
48756W        W13741  26.717  15.861  14.233
48757W        W13742  12.026   7.623  13.036
48758W        W13743  28.969  23.150  10.404
48759W        W13744   6.144  27.603   2.215
48760W        W13745   6.531  25.461  11.526
48761W        W13746  32.373   4.799  12.889
48762W        W13747  27.189  24.128   1.608
48763W        W13748   6.201  29.558   4.565
48764W        W13749   4.156  35.957  11.818
48765W        W13750  13.196   2.123  10.601
48766W        W13751  42.882  21.216  14.204
48767W        W13752  21.238  23.680   2.912
48768W        W13753  27.144  21.996  14.383
48769W        W13754  23.035  43.324   4.142
48770W        W13755  24.955  18.652   1.766
48771W        W13756  11.130   4.237   1.818
48772W        W13757   9.153  23.992  13.805
48773W        W13758  19.502  33.972  14.829
48774W        W13759  26.182  17.480   2.777
48775W        W13760   9.040  28.098  12.073
48776W        W13761   9.910  30.141  13.509
48777W        W13762  33.942  29.598  14.820
48778W        W13763  43.828  44.435  14.667
48779W        W13764  40.301  29.094   3.990
48780W        W13765  18.054  10.433   3.246
48781W        W13766  13.214  23.469   4.062
48782W        W13767  29.775  31.970  12.452
48783W        W13768  28.101  12.801  10.168
48784W        W13769  19.108   7.290   4.276
48785W        W13770  37.936  38.374  11.536
48786W        W13771  42.438   3.661   2.634
48787W        W13772  23.144  10.894  14.829
48788W        W13773  28.559  25.554  11.180
48789W        W13774   4.416  20.092   1.671
48790W        W13775  44.187  44.701  12.952
48791W        W13776   3.287  37.121   4.296
48792W        W13777  44.034  23.704   3.684
48793W        W13778  18.531  21.578   0.778
48794W        W13779  33.743   0.219   4.939
48795W        W13780   8.125  10.218   0.500
48796W        W13781  34.645   3.365  11.407
48797W        W13782   6.819  33.859  14.300
48798W        W13783   6.567  35.497  13.080
48799W        W13784  24.595  39.496   1.209
48800W        W13785  31.431  19.300  12.445
48801W        W13786  20.710  36.101  13.014
48802W        W13787  37.101  13.832  12.166
48803W        W13788  29.931   9.716  13.462
48804W        W13789  29.319  43.311   3.150
48805W        W13790  10.683  29.868   2.379
48806W        W13791  26.992  10.673  10.632
48807W        W13792  20.060   8.847  11.692
48808W        W13793  16.056   9.289  14.402
48809W        W13794  18.317  43.419  14.578
48810W        W13795  23.268  11.386  12.065
48811W        W13796   6.826  38.540  13.145
48812W        W13797  35.983   8.459  11.380
48813W        W13798   4.094  38.876  10.965
48814W        W13799  20.939  42.454  10.708
48815W        W13800  32.855  34.489  14.836
48816W        W13801   6.877   7.498   0.772
48817W        W13802   3.295  17.810  12.230
48818W        W13803  29.116  21.334  12.091
48819W        W13804  24.970   3.437   0.711
48820W        W13805  34.602  44.259  11.969
48821W        W13806  14.107  38.380  13.475
48822W        W13807  30.482  23.427  14.914
48823W        W13808  12.604  36.408  10.777
48824W        W13809  20.132   2.909  12.331
48825W        W13810  23.115  37.407  14.724
48826W        W13811  37.047  26.547   4.172
48827W        W13812  34.926  40.534  11.215
48828W        W13813   4.449  30.572   2.906
48829W        W13814   5.995  18.090   0.468
48830W        W13815   1.342  31.454  11.533
48831W        W13816  15.594  22.620  12.078
48832W        W13817   3.946  14.126   3.304
48833W        W13818  30.211  43.929  11.854
48834W        W13819  41.924  28.505   0.872
48835W        W13820  27.939   9.459   2.224
48836W        W13821  44.841  35.523   4.691
48837W        W13822  34.317  35.410  14.658
48838W        W13823   0.820  27.377   0.243
48839W        W13824  34.172  30.085  13.493
48840W        W13825  36.660  14.097  11.175
48841W        W13826  34.399   0.674  13.931
48842W        W13827  16.798  13.029   2.724
48843W        W13828  26.993   9.933  12.097
48844W        W13829  22.052  25.670  12.630
48845W        W13830   8.170   0.719  11.961
48846W        W13831  43.924  13.669   3.905
48847W        W13832  14.414  15.421  14.219
48848W        W13833   4.411  22.537   4.153
48849W        W13834  38.970   6.345  10.189
48850W        W13835  29.876   5.606   4.259
48851W        W13836  26.084  20.472   1.014
48852W        W13837  40.034  31.637   3.195
48853W        W13838  32.416  22.080   4.624
48854W        W13839   7.589  43.834  13.918
48855W        W13840  37.138   9.523   0.882
48856W        W13841   0.521  27.950   2.256
48857W        W13842  42.683  21.776   2.817
48858W        W13843  34.932  22.466  14.021
48859W        W13844   1.232  43.759  11.533
48860W        W13845  35.680   2.503   0.700
48861W        W13846  18.364   4.117  14.725
48862W        W13847   4.910  15.345  11.974
48863W        W13848   1.985  16.327   1.256
48864W        W13849  44.481  41.376   0.411
48865W        W13850  17.174   5.850   0.222
48866W        W13851   3.430   3.480  13.345
48867W        W13852  21.188  38.926  13.529
48868W        W13853  41.313  44.315  10.795
48869W        W13854  33.248   6.863   4.232
48870W        W13855   9.443  25.104  11.625
48871W        W13856  44.044   7.859   1.609
48872W        W13857  32.181  33.668   5.100
48873W        W13858   9.759   7.835   0.223
48874W        W13859  28.393   7.500  12.572
48875W        W13860   0.547  40.313   4.255
48876W        W13861   3.969  17.514  10.222
48877W        W13862  11.720   2.181   3.150
48878W        W13863   4.548  27.397   0.808
48879W        W13864  25.704  15.117  12.068
48880W        W13865  30.590   5.448  11.190
48881W        W13866  38.185  21.163  12.109
48882W        W13867  38.287   8.106   0.825
48883W        W13868  38.908  29.202   4.341
48884W        W13869  32.695   9.284  14.416
48885W        W13870  12.770  10.722  12.893
48886W        W13871  14.105  35.803  14.402
48887W        W13872  23.666   2.881  14.889
48888W        W13873   6.732  18.816  10.824
48889W        W13874  28.423  26.510  14.079
48890W        W13875  26.252  29.364   9.675
48891W        W13876   6.904  37.362  13.563
48892W        W13877  16.665  40.222  14.637
48893W        W13878  42.085  37.101   5.116
48894W        W13879   3.442   0.765   3.598
48895W        W13880  43.746  18.481   1.268
48896W        W13881  29.660  10.861  11.020
48897W        W13882  12.961  24.096   0.047
48898W        W13883  24.928   9.128   2.745
48899W        W13884  44.668  39.132  14.925
48900W        W13885  21.190   4.861  14.340
48901W        W13886  18.016  38.475  11.221
48902W        W13887  18.005   3.333  14.302
48903W        W13888  11.459   5.949   2.381
48904W        W13889   4.259   0.322  10.624
48905W        W13890  32.344  22.676  13.386
48906W        W13891  32.943  13.385  13.820
48907W        W13892  39.439  11.761   2.684
48908W        W13893  12.661  14.419  14.864
48909W        W13894  35.963  10.863  12.456
48910W        W13895   7.863  21.569   3.666
48911W        W13896  21.179  10.565  12.656
48912W        W13897  42.437  31.931   3.758
48913W        W13898   4.859   7.849  13.229
48914W        W13899  28.455  36.839  11.130
48915W        W13900  29.555  15.816  13.853
48916W        W13901   1.688  33.124   1.196
48917W        W13902  43.732   6.540   4.172
48918W        W13903  21.218  23.325  12.165
48919W        W13904   8.726   8.637  14.933
48920W        W13905  36.977  43.439  14.824
48921W        W13906  19.554  42.122   0.395
48922W        W13907  43.867  41.140   2.786
48923W        W13908  25.208  12.398  11.896
48924W        W13909  22.211  16.823   3.685
48925W        W13910  19.639  33.609   1.875
48926W        W13911   3.264  37.069   2.512
48927W        W13912  22.761  44.478  13.694
48928W        W13913  15.640  18.922  12.131
48929W        W13914  31.942  17.097   1.622
48930W        W13915   9.529  11.145  11.828
48931W        W13916  14.969  35.515   3.822
48932W        W13917  39.713  30.366   0.562
48933W        W13918  20.844   6.981   4.325
48934W        W13919   0.967  15.179  13.122
48935W        W13920  27.458  11.125  13.332
48936W        W13921   0.759  41.391   4.712
48937W        W13922  38.809   9.190  13.032
48938W        W13923  27.088  31.022  13.954
48939W        W13924  24.500  35.704   1.091
48940W        W13925  13.186  32.528   3.952
48941W        W13926   9.466  19.271   3.581
48942W        W13927  20.634  18.164  10.243
48943W        W13928  36.627  15.139  10.424
48944W        W13929  22.977  12.191  11.312
48945W        W13930  24.507  22.065   4.615
48946W        W13931  30.853  28.121  12.032
48947W        W13932  10.425  42.837  14.061
48948W        W13933  24.043  15.946   3.182
48949W        W13934   2.801  23.695   4.729
48950W        W13935  31.947   4.988   1.813
48951W        W13936   2.336   4.175   4.041
48952W        W13937  30.362  23.948   2.994
48953W        W13938   3.019  29.108  11.458
48954W        W13939   6.068  21.996  12.556
48955W        W13940  38.818   5.696   1.541
48956W        W13941   8.427  40.099   3.364
48957W        W13942  32.663  43.820  13.548
48958W        W13943  28.077  13.443  13.421
48959W        W13944  32.907  18.507  12.993
48960W        W13945  25.056  24.619   1.840
48961W        W13946  20.095  19.311   2.710
48962W        W13947  16.363  37.314   4.148
48963W        W13948  42.089  13.328  12.453
48964W        W13949  43.798  18.493  12.599
48965W        W13950  31.879  32.024  14.510
48966W        W13951  35.636  41.242   2.562
48967W        W13952   0.666  27.185   9.616
48968W        W13953  15.551   0.969   4.223
48969W        W13954   7.678  37.897  14.496
48970W        W13955   7.810  25.602  11.221
48971W        W13956   9.745  19.303   2.741
48972W        W13957  30.676  14.363  13.897
48973W        W13958   1.989  18.629  13.508
48974W        W13959  30.150  22.784   3.666
48975W        W13960  41.746  39.865   2.777
48976W        W13961   7.271  14.626   1.610
48977W        W13962  30.633  15.367   0.707
48978W        W13963  14.496  35.385   3.617
48979W        W13964  26.090   8.246  12.918
48980W        W13965  17.055  14.152  11.144
48981W        W13966  41.865  31.968   0.363
48982W        W13967  29.512   0.507   2.088
48983W        W13968  33.504   5.915   4.707
48984W        W13969  21.019   6.977  13.390
48985W        W13970  13.874   1.407   0.476
48986W        W13971   7.981   9.125   3.085
48987W        W13972  41.624  19.512   3.642
48988W        W13973  44.933  18.604  11.251
48989W        W13974  10.377  21.318  11.791
48990W        W13975   9.726  33.157   1.910
48991W        W13976  21.164   5.967  13.453
48992W        W13977  14.639  39.104   1.363
48993W        W13978  15.028   9.115  14.564
48994W        W13979  25.982  24.961   3.626
48995W        W13980  41.456  27.934  12.456
48996W        W13981  14.248  11.295   4.678
48997W        W13982  22.607  31.481   3.759
48998W        W13983  39.239   2.947   4.038
48999W        W13984  18.803   1.710  10.719
49000W        W13985  42.528  26.198   2.041
49001W        W13986  22.305  28.875   1.863
49002W        W13987  15.859  38.887  12.225
49003W        W13988   7.259  33.674  14.041
49004W        W13989  44.847   0.165   3.388
49005W        W13990   2.459  27.040   2.401
49006W        W13991  23.982  21.009  11.030
49007W        W13992  23.945  44.783   1.875
49008W        W13993   0.215  29.189  14.625
49009W        W13994  39.797  20.483  12.106
49010W        W13995  23.460  11.837   1.731
49011W        W13996  40.848  39.111   2.801
49012W        W13997   9.117  18.671  14.785
49013W        W13998   9.660  38.935  13.311
49014W        W13999   7.302  42.405  13.124
49015W        W14000  40.065   9.866   0.008
49016W        W14001  18.881  22.689   2.266
49017W        W14002  32.307  20.285  14.358
49018W        W14003  31.395  36.296  14.401
49019W        W14004  10.277  24.442   1.259
49020W        W14005  36.592  35.977   4.623
49021W        W14006  19.883  29.243   3.010
49022W        W14007  22.719  41.662   4.391
49023W        W14008   9.652  21.258   3.100
49024W        W14009  15.810  21.138   2.283
49025W        W14010  28.404   4.128  14.879
49026W        W14011  21.317  13.262   1.379
49027W        W14012  41.529  28.931  12.309
49028W        W14013  40.080  44.149  14.396
49029W        W14014   0.311  42.385  12.503
49030W        W14015  14.367   3.583   4.452
49031W        W14016   6.436   7.775   0.924
49032W        W14017  15.330   0.241  12.575
49033W        W14018   6.831  28.212  12.731
49034W        W14019  11.496   7.727   3.248
49035W        W14020  16.527   4.286   1.018
49036W        W14021  32.729  31.012   2.698
49037W        W14022  20.708  18.596  11.520
49038W        W14023   3.253  42.317   2.636
49039W        W14024  18.888  36.064   4.828
49040W        W14025  40.704   0.319   0.199
49041W        W14026  13.208  41.755   2.767
49042W        W14027   4.559  32.093   0.747
49043W        W14028  30.069  22.922  12.477
49044W        W14029  12.723  27.908   4.353
49045W        W14030  27.011   5.913   1.225
49046W        W14031  12.680  27.489   4.823
49047W        W14032  44.780  40.070  14.778
49048W        W14033  36.017  43.539   1.842
49049W        W14034  41.418  32.215   3.455
49050W        W14035  25.282  25.117  11.449
49051W        W14036  36.055  10.149   2.372
49052W        W14037  16.484   7.896   9.865
49053W        W14038  30.043   0.012  11.116
49054W        W14039  37.561  30.645  14.826
49055W        W14040  21.079  25.827  13.769
49056W        W14041   7.738  13.298   3.852
49057W        W14042   0.887   2.172   0.412
49058W        W14043  11.225  32.247   3.410
49059W        W14044   5.312  22.623  11.171
49060W        W14045  17.813  24.478   0.824
49061W        W14046  19.493   6.316   0.910
49062W        W14047  31.104  14.081  13.866
49063W        W14048  19.324   0.623   2.227
49064W        W14049  39.173  21.184  11.152
49065W        W14050  35.790  15.657   4.556
49066W        W14051  10.853   4.193  13.508
49067W        W14052  25.978  12.836   3.179
49068W        W14053  34.302  19.079  12.211
49069W        W14054  12.274   4.315  10.684
49070W        W14055  41.264  14.052   2.381
49071W        W14056  13.347  13.349  14.302
49072W        W14057  31.430  21.503  10.555
49073W        W14058  26.439  34.635   4.605
49074W        W14059   3.897  43.020  11.055
49075W        W14060  35.245  39.340  11.688
49076W        W14061  13.518   2.517   1.667
49077W        W14062   9.421  35.853   0.958
49078W        W14063   1.368  42.256   0.268
49079W        W14064  44.800  37.559  11.588
49080W        W14065  23.065  42.989   0.322
49081W        W14066  14.578  33.847  12.523
49082W        W14067   9.688  38.206  14.716
49083W        W14068  25.589   7.148  12.454
49084W        W14069  30.006   2.845   1.309
49085W        W14070  14.341   8.327  13.922
49086W        W14071  29.711  33.522  11.739
49087W        W14072  42.952  44.677   1.299
49088W        W14073  23.624  43.744   4.532
49089W        W14074  32.393  13.236  11.890
49090W        W14075  41.467   0.839  14.871
49091W        W14076  35.076  18.060   4.654
49092W        W14077  18.500  15.888   2.748
49093W        W14078  39.468  42.506   1.273
49094W        W14079  14.762   5.886  12.633
49095W        W14080  28.926  41.923  13.216
49096W        W14081  31.406   3.790   4.582
49097W        W14082  38.499  28.788  10.748
49098W        W14083  31.018  11.520   2.550
49099W        W14084  14.634  34.039  14.566
49100W        W14085  41.083  44.060  12.117
49101W        W14086  27.701  38.492   1.508
49102W        W14087  28.976  28.610   5.016
49103W        W14088  18.092  36.265  10.531
49104W        W14089  34.423  40.320  11.226
49105W        W14090  36.047  23.126   4.142
49106W        W14091  16.460  37.028   3.714
49107W        W14092   0.028  39.441   1.935
49108W        W14093  21.011  25.019  10.894
49109W        W14094  31.864  29.910   2.357
49110W        W14095  13.956  27.120   4.559
49111W        W14096  39.311  24.179   2.540
49112W        W14097  44.731   8.937  13.285
49113W        W14098  37.595  36.548  11.661
49114W        W14099   9.971   0.711   0.260
49115W        W14100  41.938  36.877  11.870
49116W        W14101  12.176  21.163  14.842
49117W        W14102  16.886  42.803   4.047
49118W        W14103  35.523  11.086  11.889
49119W        W14104  43.811  23.270   0.305
49120W        W14105  19.708  20.458  12.007
49121W        W14106   5.366   9.029  12.995
49122W        W14107   3.800  19.667  13.036
49123W        W14108  19.583   5.168  11.935
49124W        W14109   7.960  42.266  14.356
49125W        W14110  21.251  33.569  13.922
49126W        W14111  24.978   4.750   1.062
49127W        W14112  26.634  17.101  12.670
49128W        W14113  32.806  16.713   3.215
49129W        W14114  19.307  17.658   2.704
49130W        W14115  39.040  38.983  14.059
49131W        W14116  11.227  42.021  12.219
49132W        W14117  38.229   9.320   3.774
49133W        W14118  13.594  24.056  10.588
49134W        W14119  42.414  16.135   2.254
49135W        W14120  38.146   7.124  11.566
49136W        W14121  33.481  28.654  13.989
49137W        W14122   3.109  26.083  12.015
49138W        W14123   6.174  43.350  14.679
49139W        W14124  24.258  34.463   3.591
49140W        W14125   1.853  22.318   4.171
49141W        W14126  33.900  32.374  12.635
49142W        W14127  11.350  39.555  14.541
49143W        W14128  36.081  39.682   2.662
49144W        W14129  16.150  36.405  11.476
49145W        W14130  17.528  35.623  11.750
49146W        W14131  43.569  42.450  14.948
49147W        W14132   6.440  37.406   0.370
49148W        W14133  24.489  39.590   0.280
49149W        W14134  38.270  23.717  14.928
49150W        W14135  17.053  31.559  14.897
49151W        W14136  43.013   8.760   2.279
49152W        W14137  15.818  39.265  13.331
49153W        W14138  29.481  35.848   2.146
49154W        W14139  33.225  25.107   0.094
49155W        W14140  16.165  36.861  10.746
49156W        W14141  42.300   1.415   0.786
49157W        W14142  38.942  38.540  13.071
49158W        W14143  40.536   8.016   5.133
49159W        W14144  21.101   1.835   1.349
49160W        W14145   9.753  20.735  11.735
49161W        W14146   3.462  27.370  12.480
49162W        W14147  32.504   6.639  14.745
49163W        W14148  30.617  39.995  13.555
49164W        W14149  28.577  30.152   4.043
49165W        W14150   0.517  25.541  11.133
49166W        W14151  25.625  38.898  13.591
49167W        W14152  13.801  29.116   3.702
49168W        W14153  41.261   0.393  12.166
49169W        W14154  27.724  24.106  12.380
49170W        W14155  25.377   8.799  10.308
49171W        W14156   7.960  25.603  13.558
49172W        W14157  17.625  30.917   4.450
49173W        W14158  18.012  40.384  13.125
49174W        W14159  12.777  31.575  14.663
49175W        W14160   5.005  29.098   4.220
49176W        W14161  16.963   1.333  14.011
49177W        W14162  44.122  44.971   1.895
49178W        W14163  12.802  25.096   3.045
49179W        W14164  43.894  25.782   1.001
49180W        W14165  43.186  15.297   0.045
49181W        W14166   0.373   6.250   2.891
49182W        W14167  18.242  32.369   0.237
49183W        W14168  41.328   3.261  12.491
49184W        W14169  26.520  39.323  14.418
49185W        W14170  12.165  20.683   1.422
49186W        W14171  33.571   2.517   2.869
49187W        W14172  23.517  27.135  10.479
49188W        W14173  11.611  42.455  13.859
49189W        W14174  37.027  41.811  11.168
49190W        W14175  44.900   8.929  11.166
49191W        W14176  18.248   1.616  12.146
49192W        W14177  16.759  24.204  14.414
49193W        W14178   7.757  41.284  14.558
49194W        W14179  42.021  16.078   2.609
49195W        W14180  12.113  33.814   3.701
49196W        W14181  37.272  28.761   4.036
49197W        W14182  20.306  21.192   1.479
49198W        W14183  36.413  34.610  11.657
49199W        W14184  17.723  21.136   4.867
49200W        W14185   2.921  10.637   0.283
49201W        W14186  13.566  35.071   3.304
49202W        W14187  18.746  21.581   1.288
49203W        W14188  40.563   7.474   1.274
49204W        W14189  44.753   7.636  12.967
49205W        W14190  24.573  20.040   0.514
49206W        W14191  41.475  43.549   4.492
49207W        W14192  29.632  14.309  10.290
49208W        W14193   4.078  44.548  12.999
49209W        W14194  37.892  18.703   1.375
49210W        W14195  27.718  23.576   1.159
49211W        W14196  15.805   9.207   2.231
49212W        W14197  40.508   2.581   3.377
49213W        W14198  35.582  18.750  10.716
49214W        W14199  34.635  19.280  14.947
49215W        W14200  16.309   4.436   1.441
49216W        W14201  31.156  10.199  11.197
49217W        W14202  11.410   9.229  12.209
49218W        W14203  26.499   4.220   2.772
49219W        W14204   0.767  42.746   2.449
49220W        W14205  32.497  33.068   0.242
49221W        W14206  19.008  25.742   2.651
49222W        W14207  23.576  21.918   0.998
49223W        W14208  31.119   8.619  10.278
49224W        W14209  21.723   1.214  12.453
49225W        W14210   2.231   1.295   3.900
49226W        W14211   5.201  28.040   0.307
49227W        W14212   2.539   6.402  13.951
49228W        W14213   5.269  30.217   0.409
49229W        W14214  30.606   6.312  11.615
49230W        W14215  17.985  22.870   4.211
49231W        W14216  29.120   6.266   2.565
49232W        W14217  19.546  24.073  12.553
49233W        W14218  39.635  13.682  11.138
49234W        W14219  18.840   7.845  13.490
49235W        W14220  27.702  12.478  14.842
49236W        W14221  42.289  30.695   3.239
49237W        W14222  26.643  24.282  13.420
49238W        W14223  35.978   3.606  11.217
49239W        W14224  40.940  22.655   2.744
49240W        W14225  30.668  13.309  12.879
49241W        W14226   2.428   1.186  12.366
49242W        W14227  23.082   8.282   2.241
49243W        W14228  42.767  38.011  12.075
49244W        W14229  14.059  41.336   1.280
49245W        W14230  41.417  22.220   2.351
49246W        W14231  31.185   9.340   1.863
49247W        W14232  12.674  12.292   3.023
49248W        W14233  15.118   7.543  10.693
49249W        W14234  15.601  19.310   1.235
49250W        W14235   6.875  30.068  14.407
49251W        W14236  29.455  12.096  10.753
49252W        W14237  10.215  34.249   2.379
49253W        W14238  27.708  43.565  14.426
49254W        W14239  11.849  42.745  12.647
49255W        W14240   5.846  28.189   1.415
49256W        W14241   4.214   7.384   4.253
49257W        W14242   8.725  14.442  14.217
49258W        W14243  10.292   8.243   1.917
49259W        W14244  30.977   9.389   3.861
49260W        W14245   2.258   4.304   0.908
49261W        W14246  16.858  18.740   5.453
49262W        W14247  15.620  40.655   0.667
49263W        W14248  23.541  33.621   4.443
49264W        W14249   0.249  16.701   1.805
49265W        W14250  22.706   0.876   3.710
49266W        W14251  32.845  29.491   0.469
49267W        W14252  25.378  39.033  14.478
49268W        W14253   1.241  43.783   2.665
49269W        W14254  44.242  31.573   0.828
49270W        W14255  11.261   9.076   3.668
49271W        W14256  28.000  40.483  14.012
49272W        W14257  43.784  38.256  12.520
49273W        W14258  44.578  17.341   0.202
49274W        W14259  21.727  25.567   3.275
49275W        W14260  27.326  13.516  12.799
49276W        W14261  39.977  34.585   1.780
49277W        W14262  35.601   8.847   0.523
49278W        W14263   7.818   6.420  13.507
49279W        W14264  35.023  30.129   0.244
49280W        W14265  24.564  37.019   1.507
49281W        W14266   3.996   7.154   2.498
49282W        W14267  20.933  12.890   1.428
49283W        W14268  44.249   0.307   2.274
49284W        W14269  10.382   8.161   4.170
49285W        W14270  38.669  37.574   1.238
49286W        W14271  24.398  19.852   4.057
49287W        W14272  18.301   5.380   9.834
49288W        W14273  10.412  24.924   1.438
49289W        W14274  44.898  35.905   1.227
49290W        W14275  18.859   2.597  11.102
49291W        W14276  12.365   2.025   1.935
49292W        W14277  35.555  42.599   2.300
49293W        W14278   1.178  26.824   4.181
49294W        W14279  17.818   3.521   4.265
49295W        W14280   9.301  20.331  14.453
49296W        W14281  28.969  42.671   4.982
49297W        W14282  21.454   8.919  11.517
49298W        W14283  31.659  30.653  14.304
49299W        W14284  38.933   8.551   1.311
49300W        W14285   1.018  23.811  12.482
49301W        W14286  36.888  30.111   0.243
49302W        W14287   9.137  22.205   4.667
49303W        W14288  17.343  35.912  14.298
49304W        W14289   2.944  12.235   2.433
49305W        W14290   4.672  21.186  11.720
49306W        W14291  40.766  40.728  11.625
49307W        W14292   9.306   0.006   1.369
49308W        W14293  39.326  42.564  10.942
49309W        W14294  14.264  43.718  14.015
49310W        W14295  14.065  20.721  11.153
49311W        W14296  44.971  32.427   4.408
49312W        W14297  12.129  43.515   1.914
49313W        W14298  25.563  36.796   4.749
49314W        W14299  39.810  13.702   2.768
49315W        W14300  23.217  33.132   2.667
49316W        W14301  38.798  24.045  13.458
49317W        W14302  11.019   7.383  12.927
49318W        W14303  23.615  14.897  12.813
49319W        W14304  11.809   4.660   4.535
49320W        W14305  28.641  29.859   3.169
49321W        W14306   3.034  30.266   2.714
49322W        W14307  44.659  16.039  13.941
49323W        W14308   6.424   9.210  14.518
49324W        W14309  35.563  36.156   2.163
49325W        W14310  13.672   0.840   1.383
49326W        W14311   0.984  20.708  12.342
49327W        W14312  38.723  27.265  13.574
49328W        W14313  43.786  34.536  14.992
49329W        W14314   6.329  44.399   1.721
49330W        W14315  22.932  31.950  13.120
49331W        W14316  16.051  35.044   4.124
49332W        W14317   9.249  36.704   1.770
49333W        W14318  32.447  20.803  12.223
49334W        W14319  11.797  44.977  11.664
49335W        W14320   4.481  35.893   4.189
49336W        W14321  18.756  35.527   1.821
49337W        W14322  19.024  39.956   1.384
49338W        W14323   4.234  37.772   4.500
49339W        W14324   2.663   7.251  13.012
49340W        W14325  43.219   3.385  10.644
49341W        W14326   7.859  21.297   4.123
49342W        W14327  38.939   4.676   2.887
49343W        W14328  21.497  41.084   3.245
49344W        W14329  44.545  13.288   1.396
49345W        W14330   3.848   2.451  13.970
49346W        W14331  16.651  37.398   3.386
49347W        W14332  42.915  27.645   3.965
49348W        W14333  20.520  34.842   1.026
49349W        W14334  43.851  34.886   4.602
49350W        W14335   5.209  26.767  13.864
49351W        W14336   0.730   6.687  11.739
49352W        W14337  35.604  20.795   4.311
49353W        W14338  36.588  30.711  10.961
49354W        W14339  27.200  19.097   1.916
49355W        W14340  16.136  36.424   4.511
49356W        W14341  20.204  37.013  14.713
49357W        W14342  38.377  22.554  10.766
49358W        W14343  19.753   7.903   3.215
49359W        W14344  30.665  27.405   0.046
49360W        W14345   6.324  19.049   2.501
49361W        W14346  30.217   9.414   2.842
49362W        W14347  22.396   8.269   3.399
49363W        W14348  24.188  21.446  10.741
49364W        W14349   1.270  23.115  10.910
49365W        W14350  26.123  11.549  14.242
49366W        W14351  24.065  34.734   1.638
49367W        W14352  36.526  34.404  14.357
49368W        W14353  12.809   4.938   1.596
49369W        W14354  12.387  28.739  14.341
49370W        W14355  43.210   1.860   1.304
49371W        W14356  34.511   2.892  13.346
49372W        W14357  43.392  36.582  10.646
49373W        W14358   9.630   6.976  12.985
49374W        W14359  23.045  31.988   0.462
49375W        W14360  34.319   4.768   1.535
49376W        W14361  16.822  43.792   3.266
49377W        W14362  22.769  16.786   0.797
49378W        W14363  23.921  26.926  10.736
49379W        W14364  10.235  27.543  12.924
49380W        W14365  37.585  15.106   0.361
49381W        W14366   7.733  20.620  12.933
49382W        W14367   6.103  26.610   3.915
49383W        W14368   2.742  32.641   1.509
49384W        W14369  11.182   8.343   1.613
49385W        W14370   0.847  24.206   0.017
49386W        W14371  31.143  19.986   3.851
49387W        W14372  21.735  35.965  12.982
49388W        W14373  39.960  17.405   2.185
49389W        W14374  23.512  24.566  11.587
49390W        W14375  20.957  31.619  12.083
49391W        W14376  24.231  33.981   1.435
49392W        W14377  31.144  12.157   3.155
49393W        W14378  24.897  28.509  12.616
49394W        W14379  29.718  12.532  12.538
49395W        W14380   3.501  18.071  13.363
49396W        W14381  24.200   2.882   0.781
49397W        W14382  30.614  44.292  10.044
49398W        W14383   3.429  37.501   2.262
49399W        W14384  31.518   7.518   2.794
49400W        W14385  34.149  29.122   1.853
49401W        W14386  11.263  12.547   3.354
49402W        W14387   9.115  17.359   3.559
49403W        W14388  10.165  37.041   4.023
49404W        W14389  30.828  19.355  10.748
49405W        W14390  12.641  14.875   1.894
49406W        W14391  21.662  11.729  11.597
49407W        W14392  29.907  13.167   0.606
49408W        W14393  37.051  24.000   1.059
49409W        W14394   8.918  25.926   2.293
49410W        W14395  32.910  44.617  11.159
49411W        W14396  19.287  25.112   3.890
49412W        W14397  39.817  10.871   4.554
49413W        W14398  39.874  12.002  13.341
49414W        W14399  40.281  33.588   4.022
49415W        W14400  16.730  23.778  11.523
49416W        W14401  32.092  43.710  11.522
49417W        W14402  23.943  43.333  10.761
49418W        W14403  14.595  26.093  14.364
49419W        W14404   6.217  15.157  10.591
49420W        W14405   4.185  22.032  11.445
49421W        W14406   2.678  36.955   4.265
49422W        W14407  29.473  35.128  14.381
49423W        W14408   5.911  20.648   1.432
49424W        W14409  36.772   8.658   1.769
49425W        W14410  33.752  30.463   3.369
49426W        W14411  26.583  22.403   3.599
49427W        W14412  37.053  16.142   3.171
49428W        W14413   3.956   1.778  12.132
49429W        W14414  20.688  37.069  14.513
49430W        W14415  17.489   2.377  11.546
49431W        W14416  22.114  21.115  12.904
49432W        W14417  30.888  33.640  12.011
49433W        W14418  13.510  29.584   3.743
49434W        W14419   2.867  37.710  14.907
49435W        W14420   1.296  14.542   1.699
49436W        W14421  26.460  40.494  10.590
49437W        W14422  38.825   1.782  12.560
49438W        W14423  39.028  13.216   3.782
49439W        W14424  43.183  29.719  12.945
49440W        W14425  13.882  37.141  13.465
49441W        W14426  42.397  40.256  13.044
49442W        W14427  37.548  30.639   2.924
49443W        W14428  27.859  25.078  11.087
49444W        W14429   7.309  33.296   3.275
49445W        W14430  22.741  44.416   1.226
49446W        W14431  26.069  36.302  13.008
49447W        W14432   1.246  26.999  13.481
49448W        W14433  19.199   8.824   4.561
49449W        W14434  13.666  39.280  10.890
49450W        W14435  10.520  10.087   4.191
49451W        W14436  44.015  35.310   1.965
49452W        W14437  38.063  32.087   0.440
49453W        W14438   3.767  39.514   3.101
49454W        W14439  16.300  17.177   0.340
49455W        W14440   4.925  24.317   2.830
49456W        W14441  31.969  44.679   3.493
49457W        W14442   1.004   0.678  12.874
49458W        W14443  36.876   0.922  14.724
49459W        W14444  30.364  23.912  13.774
49460W        W14445  20.709  36.641  11.160
49461W        W14446  30.354   9.283   2.352
49462W        W14447  24.765   4.174  14.467
49463W        W14448  42.427   3.327  14.787
49464W        W14449  27.095  23.011   1.744
49465W        W14450  32.492  24.808  13.940
49466W        W14451  20.668  11.826  13.730
49467W        W14452  35.919  24.923  11.651
49468W        W14453  31.161   2.357   4.160
49469W        W14454   7.253  26.665  14.655
49470W        W14455   6.643  21.222   1.718
49471W        W14456  24.937  14.717   0.343
49472W        W14457  36.936   0.050   1.544
49473W        W14458  15.723   9.672  13.464
49474W        W14459  10.268  13.423  10.497
49475W        W14460  43.746  35.010   2.303
49476W        W14461  43.724  14.845   2.612
49477W        W14462  34.359  28.585   1.774
49478W        W14463  19.126  43.770  13.793
49479W        W14464  14.578  24.476   4.306
49480W        W14465  26.715  20.080   2.631
49481W        W14466  10.377  35.086  14.893
49482W        W14467  29.167  31.581   1.348
49483W        W14468  24.419  43.839   0.888
49484W        W14469   1.496  23.206  12.007
49485W        W14470  28.647  12.063   2.866
49486W        W14471  10.407  16.869  14.875
49487W        W14472   3.986  12.769   4.570
49488W        W14473  17.101  41.266   4.517
49489W        W14474  14.820  25.016   1.917
49490W        W14475  11.497   2.950  11.971
49491W        W14476  25.058  21.183   1.727
49492W        W14477  42.050  39.389   2.638
49493W        W14478  30.143  31.939  14.962
49494W        W14479  38.078  12.295   3.347
49495W        W14480   3.011  44.144   2.344
49496W        W14481   3.836  37.999  11.039
49497W        W14482  31.966  33.881  12.673
49498W        W14483  39.531   8.730  14.784
49499W        W14484  23.799  42.828   9.857
49500W        W14485  31.392  24.031  10.471
49501W        W14486  10.346  12.635  14.309
49502W        W14487   6.412  21.073  14.769
49503W        W14488  41.450  33.452  14.763
49504W        W14489  39.033  44.499  12.198
49505W        W14490  35.442  15.352   2.197
49506W        W14491   6.645   6.725   2.414
49507W        W14492   3.748  36.933   0.914
49508W        W14493  28.980   4.316   3.677
49509W        W14494  23.331  14.023  13.287
49510W        W14495  42.822  10.364  13.501
49511W        W14496  12.385  17.325  14.001
49512W        W14497  22.608  33.546   1.475
49513W        W14498  26.005   7.636  13.483
49514W        W14499   2.998  28.926  11.926
49515W        W14500  35.741  11.209  14.465
49516W        W14501  17.828  10.065   2.945
49517W        W14502  36.699  27.129  11.870
49518W        W14503  16.023  32.581   2.829
49519W        W14504  21.263  30.207   1.317
49520W        W14505  27.490  23.109  13.985
49521W        W14506   2.437  14.453   2.775
49522W        W14507   1.083   3.316  14.558
49523W        W14508   0.616  14.857  13.341
49524W        W14509  38.822  14.278   1.302
49525W        W14510  12.800  34.586  12.576
49526W        W14511   2.783  35.521   1.441
49527W        W14512  40.980  40.067  11.662
49528W        W14513  17.542   3.119   0.828
49529W        W14514  13.755   5.824   1.808
49530W        W14515  36.821  35.144   3.728
49531W        W14516  21.725  14.406  10.901
49532W        W14517   6.090  19.423   2.769
49533W        W14518   9.924  16.047   1.963
49534W        W14519  40.924  28.781   3.152
49535W        W14520  11.333  44.352   4.681
49536W        W14521  26.989  35.850   3.282
49537W        W14522   4.475  12.110  14.923
49538W        W14523  35.810  19.531   1.632
49539W        W14524  35.313  19.032  14.433
49540W        W14525   1.300  44.112   3.648
49541W        W14526   5.622  40.561  12.231
49542W        W14527   3.238  29.188   0.290
49543W        W14528   3.412  39.083   2.380
49544W        W14529  22.262  44.522  12.184
49545W        W14530  29.563  42.645   2.749
49546W        W14531  38.342  38.395   2.175
49547W        W14532  30.608  17.268   0.343
49548W        W14533  38.469  22.205   4.221
49549W        W14534  38.858   1.266   4.316
49550W        W14535   7.783  35.311   3.233
49551W        W14536  29.145   5.864  11.324
49552W        W14537  39.336  22.509   1.626
49553W        W14538  22.213  24.096  12.414
49554W        W14539  32.997  17.098   1.976
49555W        W14540  27.968  27.532   1.449
49556W        W14541   5.439  19.685   4.431
49557W        W14542  26.073  25.265   0.385
49558W        W14543   0.439   8.381   3.672
49559W        W14544  18.807  36.308  12.823
49560W        W14545   2.537  20.318  11.774
49561W        W14546   1.369   4.460  10.736
49562W        W14547   6.979  43.435   3.275
49563W        W14548  26.076  22.560   3.719
49564W        W14549  13.441  44.051   0.456
49565W        W14550  16.620   1.501  12.081
49566W        W14551  41.116   6.304   1.349
49567W        W14552   0.470  36.027  11.573
49568W        W14553   6.885  25.474   4.574
49569W        W14554  11.532  33.311  11.297
49570W        W14555  29.725  11.376   1.269
49571W        W14556  24.816  44.472  11.524
49572W        W14557   5.872  13.229   0.521
49573W        W14558  23.558  16.716   4.095
49574W        W14559  10.356   7.213   1.779
49575W        W14560  16.240   3.744  13.288
49576W        W14561  44.877  13.290   3.107
49577W        W14562  42.804  14.806  12.077
49578W        W14563   7.195  22.696   4.029
49579W        W14564   2.397  34.509  12.738
49580W        W14565  44.578   9.868  14.888
49581W        W14566   7.851  38.753  14.235
49582W        W14567  15.538  17.098   1.875
49583W        W14568  19.905   8.698  10.055
49584W        W14569  35.601  12.354   4.095
49585W        W14570   3.258  23.685  14.759
49586W        W14571  42.058  24.146   3.578
49587W        W14572  35.370  40.401  14.776
49588W        W14573  40.543  41.055   1.890
49589W        W14574  28.408  19.333   1.274
49590W        W14575  15.784  14.633   0.007
49591W        W14576  14.784  19.252  13.062
49592W        W14577  38.894   2.025  11.711
49593W        W14578  28.642   5.915  13.588
49594W        W14579  26.019  29.905   4.023
49595W        W14580  15.429  16.557  12.406
49596W        W14581  34.482  22.610   4.249
49597W        W14582  20.992  11.223   0.610
49598W        W14583  39.100  20.346   0.485
49599W        W14584  25.443  44.593  14.437
49600W        W14585  18.771   4.518   1.641
49601W        W14586  43.696   4.752   1.901
49602W        W14587   0.869  22.463   0.972
49603W        W14588  44.671  20.609  10.726
49604W        W14589   2.445   8.023  13.388
49605W        W14590  35.195  40.867  13.927
49606W        W14591   4.413  20.216   2.186
49607W        W14592  20.735   0.855   1.720
49608W        W14593   4.493   3.400  10.651
49609W        W14594   3.419  25.499  14.375
49610W        W14595  38.081  28.160   1.937
49611W        W14596   7.779  27.853  10.421
49612W        W14597  12.420  20.529   0.246
49613W        W14598  35.321   0.286   4.696
49614W        W14599  26.238  31.632  11.233
49615W        W14600  44.187  32.816   1.215
49616W        W14601   3.241   0.936   4.597
49617W        W14602  35.762  16.272  11.166
49618W        W14603  41.762  11.134  12.412
49619W        W14604  21.508  19.608  13.955
49620W        W14605   3.420  32.547   0.314
49621W        W14606  10.813   3.217  14.449
49622W        W14607  13.454   2.289  11.028
49623W        W14608  27.049  30.549  12.173
49624W        W14609  29.738  19.164   4.688
49625W        W14610   1.367  36.210   0.414
49626W        W14611  39.277  36.859   0.399
49627W        W14612  15.785  27.607  14.512
49628W        W14613  37.126   4.392   0.727
49629W        W14614   0.279  16.314   3.158
49630W        W14615  10.465  13.667   0.389
49631W        W14616  32.058  22.567   3.850
49632W        W14617   4.409  15.589  14.510
49633W        W14618  36.364  41.841   3.881
49634W        W14619  20.205   8.964   0.786
49635W        W14620   6.751   1.557  12.536
49636W        W14621  17.747  36.318   1.198
49637W        W14622   7.436  14.684   3.573
49638W        W14623  13.177  18.951  12.005
49639W        W14624  31.505  13.579  14.992
49640W        W14625  29.812  28.530  11.163
49641W        W14626  12.185  33.640   1.449
49642W        W14627  28.023   2.509  13.006
49643W        W14628  10.260   9.808   0.761
49644W        W14629  43.498  35.794   0.372
49645W        W14630  15.108  33.457  11.553
49646W        W14631  30.185   4.040  12.050
49647W        W14632  20.532  18.659  14.539
49648W        W14633   4.798  16.541   1.463
49649W        W14634   9.627  36.102   3.603
49650W        W14635  41.856  12.129   1.596
49651W        W14636  20.042  27.442   2.345
49652W        W14637  10.193  11.217  14.911
49653W        W14638  13.833  25.208  14.135
49654W        W14639  20.346  33.504   0.002
49655W        W14640  40.825  22.138  11.820
49656W        W14641   0.399  42.229  14.980
49657W        W14642   2.978  13.553  11.994
49658W        W14643  12.744  41.754  12.495
49659W        W14644  43.820  42.219  12.368
49660W        W14645  33.656  34.908  14.777
49661W        W14646  34.473  10.752   1.871
49662W        W14647  16.498  35.864  12.159
49663W        W14648   3.037  29.639  13.408
49664W        W14649  37.777  10.795  13.774
49665W        W14650  44.526  24.941  14.965
49666W        W14651   6.144  12.777   4.596
49667W        W14652  13.641  27.648  13.826
49668W        W14653  35.575  44.264  14.598
49669W        W14654  22.222  32.985  13.687
49670W        W14655  19.622  16.176  13.105
49671W        W14656  23.163  17.687  12.978
49672W        W14657  23.967   1.820  13.485
49673W        W14658  43.748   0.476   1.797
49674W        W14659  40.473  11.601   4.940
49675W        W14660  25.906  36.481  11.623
49676W        W14661   1.774  42.041  12.412
49677W        W14662  41.992   1.323  11.661
49678W        W14663  28.716  28.538  11.698
49679W        W14664  25.205  19.943   2.675
49680W        W14665  31.260  36.486  14.866
49681W        W14666  39.968  44.403   1.687
49682W        W14667  20.044  36.061  11.111
49683W        W14668   9.691  29.610  11.423
49684W        W14669   3.789   3.398   4.561
49685W        W14670  19.505   5.391   2.221
49686W        W14671  20.562  18.236   4.519
49687W        W14672  42.992  31.492  13.822
49688W        W14673  28.618  28.178   1.177
49689W        W14674  16.815  34.867  12.359
49690W        W14675  14.342  17.500   3.622
49691W        W14676  17.882  25.963   0.295
49692W        W14677  22.545  38.243   1.242
49693W        W14678  42.004  44.317   4.205
49694W        W14679  29.483  39.943   0.357
49695W        W14680  20.835  42.101  11.069
49696W        W14681  24.979  29.062  10.629
49697W        W14682  19.041   0.489  12.457
49698W        W14683  15.606  10.795  12.069
49699W        W14684  44.216  40.857   4.077
49700W        W14685   1.742  44.937   0.784
49701W        W14686   0.891  34.139   1.174
49702W        W14687   0.511  35.177  13.625
49703W        W14688  38.558  37.781  13.829
49704W        W14689  10.633  27.188   2.728
49705W        W14690   7.864  18.467   2.853
49706W        W14691  23.556  21.240  11.211
49707W        W14692  30.675  13.164  12.395
49708W        W14693   8.356  10.811   4.933
49709W        W14694  41.418   5.407   2.769
49710W        W14695   5.287  44.198  14.102
49711W        W14696   1.085  33.422   0.373
49712W        W14697   7.594  37.359   1.417
49713W        W14698  22.157  15.529   3.270
49714W        W14699   1.241   7.244   0.787
49715W        W14700  25.477   7.734   1.357
49716W        W14701  22.716  18.710   4.106
49717W        W14702  21.257  38.093  13.347
49718W        W14703  34.382  25.080   2.228
49719W        W14704  18.041  15.637   3.179
49720W        W14705  11.094   5.753  14.337
49721W        W14706  14.658  10.736  11.252
49722W        W14707  34.490  38.594   3.337
49723W        W14708  17.720  28.973  11.042
49724W        W14709  17.911   1.442   1.652
49725W        W14710  26.166  38.926   4.078
49726W        W14711  32.483  11.476  13.085
49727W        W14712  43.323  38.553   2.171
49728W        W14713  21.620   5.449   4.546
49729W        W14714   1.431  13.243  10.845
49730W        W14715  10.108  44.296   1.589
49731W        W14716  11.229  30.977  11.593
49732W        W14717  41.965  36.944  12.378
49733W        W14718  24.008  23.728  12.585
49734W        W14719   0.384  33.070  12.099
49735W        W14720  23.666  20.344   0.960
49736W        W14721  18.284  42.053   3.168
49737W        W14722   3.876  27.604   4.467
49738W        W14723   4.313  25.647  13.898
49739W        W14724  13.406  35.480   0.833
49740W        W14725  14.703   3.331  11.108
49741W        W14726  35.657  41.689   3.345
49742W        W14727  23.050  20.210   1.420
49743W        W14728  32.320   5.756  11.571
49744W        W14729   3.299  43.760  14.756
49745W        W14730  35.584  33.226   3.304
49746W        W14731  30.526   8.426  14.240
49747W        W14732  21.709  35.099   2.844
49748W        W14733  30.046  40.075  11.155
49749W        W14734  13.331  18.228   2.187
49750W        W14735  42.923  40.777   1.799
49751W        W14736   4.571  24.241  11.222
49752W        W14737  38.132  35.543  12.062
49753W        W14738  23.477  38.908  14.559
49754W        W14739  17.202  25.405   1.739
49755W        W14740  34.605  20.255   1.769
49756W        W14741  15.075  17.796   2.676
49757W        W14742  13.634  37.940  14.030
49758W        W14743  18.136   4.138   1.223
49759W        W14744  15.892  13.918  12.908
49760W        W14745   7.220  13.849  11.563
49761W        W14746  26.024  23.704  10.624
49762W        W14747  22.627   4.068  12.981
49763W        W14748  35.082  23.642  13.416
49764W        W14749   8.085  14.826  13.452
49765W        W14750  26.437  44.216   0.484
49766W        W14751  43.021  36.109   9.708
49767W        W14752  28.454  35.920  11.973
49768W        W14753  32.202   9.635   4.982
49769W        W14754  21.461  35.502  12.942
49770W        W14755   8.784   1.275  12.441
49771W        W14756  30.209  31.109   4.165
49772W        W14757  26.959  24.032   0.236
49773W        W14758   2.629  44.606  13.344
49774W        W14759  41.839  24.002  13.035
49775W        W14760   2.916  15.992  12.868
49776W        W14761  38.159   9.667  14.923
49777W        W14762  43.437  11.435   1.102
49778W        W14763   5.694  13.014   3.708
49779W        W14764  41.046  12.386  13.907
49780W        W14765  22.683  16.017   0.443
49781W        W14766   6.924   2.511   1.397
49782W        W14767  25.163  18.623  11.579
49783W        W14768   5.349  18.115   4.027
49784W        W14769  17.317  32.937   2.900
49785W        W14770  42.442   0.343   1.762
49786W        W14771  36.589  32.230  10.026
49787W        W14772   7.164  40.274   1.244
49788W        W14773   5.523   0.780  11.247
49789W        W14774  24.090  18.036   4.191
49790W        W14775  13.659   7.340  14.260
49791W        W14776   9.832  42.305  12.603
49792W        W14777  12.474  39.128   4.014
49793W        W14778  40.359   4.394  13.884
49794W        W14779   9.504   7.230  14.965
49795W        W14780   4.625  24.771  14.517
49796W        W14781   2.885   6.483  12.416
49797W        W14782   3.730  15.760  13.329
49798W        W14783   6.312  18.424   0.709
49799W        W14784  32.539  39.774   3.785
49800W        W14785   8.665  38.445   1.323
49801W        W14786  15.190  40.534   1.187
49802W        W14787   7.832   3.837   3.390
49803W        W14788   7.273   0.225  14.541
49804W        W14789  29.468  43.535  13.793
49805W        W14790  22.316  18.070  14.708
49806W        W14791  39.519  34.110  14.123
49807W        W14792   6.136   9.799   2.192
49808W        W14793  43.934  40.322  13.858
49809W        W14794  25.611  21.120   2.932
49810W        W14795  19.280  10.735   4.329
49811W        W14796  13.737   1.380   4.029
49812W        W14797  25.564  44.373   3.702
49813W        W14798  34.603  41.260   1.866
49814W        W14799  32.441  34.421   4.093
49815W        W14800   5.921   0.856   2.454
49816W        W14801   0.692  10.047  10.291
49817W        W14802  13.783  38.769   0.534
49818W        W14803  29.956  35.700  13.532
49819W        W14804  25.682  22.302  12.912
49820W        W14805  11.835  15.397   4.732
49821W        W14806  19.551  32.199   0.299
49822W        W14807   6.668  26.981   2.945
49823W        W14808  24.737  18.537  13.956
49824W        W14809  25.026  14.104   2.143
49825W        W14810  38.562  22.055  13.336
49826W        W14811  39.330  13.527  13.794
49827W        W14812  39.582  16.777   2.739
49828W        W14813  36.202  35.363  13.566
49829W        W14814  23.005  40.432   4.415
49830W        W14815  11.480  28.764  12.472
49831W        W14816  39.448  39.672   5.092
49832W        W14817  40.079  42.879  13.747
49833W        W14818   9.888   2.481  13.453
49834W        W14819   8.151  37.849  11.574
49835W        W14820  36.927  13.342   0.036
49836W        W14821   6.525  20.028  12.541
49837W        W14822  32.868   1.314   3.354
49838W        W14823  36.320  31.071  10.693
49839W        W14824  22.639  41.194  14.229
49840W        W14825  38.798  20.515  11.643
49841W        W14826   3.103  16.914  14.924
49842W        W14827  38.988   6.585  10.650
49843W        W14828  31.624   6.803  13.336
49844W        W14829  35.211  13.702  12.363
49845W        W14830  22.509  39.983   3.883
49846W        W14831  34.064  25.597   2.329
49847W        W14832   1.302  10.139  13.314
49848W        W14833  44.172  15.797  11.679
49849W        W14834  27.193   9.391   0.362
49850W        W14835   5.857  18.758   0.706
49851W        W14836  26.683  42.977   2.787
49852W        W14837  35.211   2.257  11.678
49853W        W14838  27.433  28.479   1.929
49854W        W14839  20.163  39.607   3.392
49855W        W14840   4.287  33.615  12.983
49856W        W14841  22.972  13.319  13.918
49857W        W14842  38.836  17.338   4.667
49858W        W14843  33.631  42.771  13.322
49859W        W14844  43.742   7.462   2.902
49860W        W14845  18.064  37.950   4.484
49861W        W14846  40.801  25.307  14.422
49862W        W14847  39.586  12.847   2.808
49863W        W14848  21.694  43.252   1.799
49864W        W14849   8.873  36.407  10.407
49865W        W14850  12.782  44.587   2.265
49866W        W14851  17.318   4.444  14.750
49867W        W14852  40.175   0.945  13.277
49868W        W14853   2.760   0.930  12.071
49869W        W14854  44.411  41.822   3.708
49870W        W14855  24.324  44.470  10.826
49871W        W14856   2.223  25.251  12.015
49872W        W14857  25.096  27.864   5.160
49873W        W14858  28.932  12.881  13.486
49874W        W14859  36.548   2.337   4.738
49875W        W14860   6.700  38.286   3.352
49876W        W14861  44.511   9.447   4.140
49877W        W14862  14.184  35.817   2.222
49878W        W14863   5.010  19.566   2.215
49879W        W14864  37.562   7.850   1.383
49880W        W14865  19.475  31.016   1.369
49881W        W14866   8.296   1.646  11.028
49882W        W14867  24.775  20.775  10.873
49883W        W14868  36.588  24.601  13.073
49884W        W14869  24.058  11.764  12.672
49885W        W14870   8.599  16.641  13.394
49886W        W14871  18.354  14.428  12.153
49887W        W14872   1.912   8.288  13.141
49888W        W14873  21.280  13.906  12.845
49889W        W14874   1.933  44.036  13.524
49890W        W14875  30.080  44.654   0.283
49891W        W14876  37.968  33.918  11.434
49892W        W14877  28.207  33.902  11.489
49893W        W14878  17.723   6.315  12.646
49894W        W14879  21.307  11.704   0.362
49895W        W14880  22.827  23.004   4.675
49896W        W14881  41.050  43.946   3.822
49897W        W14882  16.301  13.787   0.523
49898W        W14883  28.612   3.897   2.830
49899W        W14884  36.507  27.823   3.687
49900W        W14885  25.061  16.812   4.758
49901W        W14886  30.149   4.855  12.447
49902W        W14887  40.638  18.502  12.539
49903W        W14888   2.310   8.094  11.699
49904W        W14889   6.949  34.193  13.332
49905W        W14890  17.147  42.918  10.079
49906W        W14891   9.897  41.739  10.983
49907W        W14892  27.539  19.627  11.759
49908W        W14893  29.056  12.954   1.592
49909W        W14894  35.726  41.487   1.077
49910W        W14895   4.864  27.904   3.390
49911W        W14896  40.211  17.929   2.820
49912W        W14897  12.958  28.473  10.291
49913W        W14898  42.742  36.510   1.649
49914W        W14899  32.081   4.575   4.497
49915W        W14900  34.046  35.667   3.328
49916W        W14901  37.607   7.868  14.909
49917W        W14902  11.183  40.584  12.887
49918W        W14903  35.649  17.165   4.217
49919W        W14904  40.549  40.473   0.499
49920W        W14905  15.786  42.272   3.172
49921W        W14906  11.704  34.857  12.038
49922W        W14907  44.005  18.966  12.625
49923W        W14908  15.568  22.989   0.673
49924W        W14909  10.715  34.550   4.676
49925W        W14910   9.777  38.841   0.350
49926W        W14911  40.284   7.705   2.892
49927W        W14912   2.310  33.465   3.648
49928W        W14913  13.394  28.723   1.656
49929W        W14914  19.189   0.528  13.375
49930W        W14915  18.269  19.570   1.327
49931W        W14916  19.923   3.382   1.273
49932W        W14917  30.425  31.789   9.985
49933W        W14918  14.136  26.490   2.409
49934W        W14919  36.582   9.744  14.922
49935W        W14920  14.784  29.472  11.810
49936W        W14921  34.990   3.478   0.366
49937W        W14922  37.711  33.781  11.971
49938W        W14923   4.250  40.909  13.893
49939W        W14924  26.604  38.571  10.683
49940W        W14925   1.589  13.752   1.683
49941W        W14926  34.955  12.087   3.131
49942W        W14927  18.607  37.416  11.998
49943W        W14928  10.823  20.098  12.138
49944W        W14929  40.799   1.327   0.181
49945W        W14930  28.453  37.130  12.489
49946W        W14931  32.630  11.404   0.206
49947W        W14932  21.589  11.732  12.454
49948W        W14933  25.843  32.050  14.049
49949W        W14934   9.867   9.888   0.450
49950W        W14935  18.110  44.516   2.349
49951W        W14936  10.208  20.537  11.576
49952W        W14937  17.684  26.735   0.759
49953W        W14938   5.529  30.708   4.955
49954W        W14939   3.787  28.139  11.573
49955W        W14940   2.711  40.336   3.566
49956W        W14941  43.463  26.266   2.212
49957W        W14942  30.385  18.366  11.592
49958W        W14943  23.902  36.341  12.928
49959W        W14944  43.539  14.631   1.966
49960W        W14945  39.395  31.149  11.616
49961W        W14946   9.875   8.244  11.153
49962W        W14947  44.036   9.810   4.345
49963W        W14948  12.307  27.530   4.478
49964W        W14949   3.283   6.418  14.845
49965W        W14950   5.186  43.492  13.554
49966W        W14951  25.331  17.256  12.483
49967W        W14952  20.273   2.775   3.015
49968W        W14953  26.684  32.435   4.960
49969W        W14954  20.795  16.999   2.645
49970W        W14955  33.558  19.211   1.770
49971W        W14956  22.488  10.911  12.990
49972W        W14957  40.281  35.641  12.083
49973W        W14958  22.715  25.512  14.246
49974W        W14959  28.989  30.051   3.719
49975W        W14960  19.857  16.317   3.647
49976W        W14961  17.529  10.065  14.393
49977W        W14962  36.630  24.019   1.460
49978W        W14963  20.011  37.450  12.102
49979W        W14964  44.984   7.691  11.371
49980W        W14965   9.301  14.835  12.360
49981W        W14966  16.470  30.156  14.381
49982W        W14967  29.395  26.189   3.714
49983W        W14968   9.346   8.404   3.041
49984W        W14969  41.397  41.563  12.945
49985W        W14970  38.379  24.231   0.803
49986W        W14971  27.574  40.917   1.540
49987W        W14972  11.291  39.674  11.079
49988W        W14973  34.171  37.478  10.818
49989W        W14974  44.503   5.393   1.234
49990W        W14975  11.236  38.030  12.993
49991W        W14976   4.494  35.976  14.989
49992W        W14977  31.579  35.557  11.976
49993W        W14978  38.785  24.198   3.201
49994W        W14979   9.968   7.664  11.666
49995W        W14980   8.197   4.704   1.430
49996W        W14981  30.557  36.549  14.073
49997W        W14982  30.013  33.684   0.874
49998W        W14983  29.692   0.659   2.955
49999W        W14984  29.920  20.966  14.700
50000W        W14985  37.986   8.735   3.198
50001W        W14986   8.055  19.559  14.958
50002W        W14987  11.517   9.711   0.793
50003W        W14988  23.046  10.921  11.980
50004W        W14989  10.381  35.639  12.925
50005W        W14990  31.893   8.407   4.023
50006W        W14991   8.861  10.663  11.453
50007W        W14992  19.083   6.676  14.948
50008W        W14993  41.527  20.216   2.300
50009W        W14994  31.789  44.420  11.217
50010W        W14995  16.636  31.107  14.431
50011W        W14996   0.931  12.168   3.148
50012W        W14997  28.445  10.123  14.773
50013W        W14998  36.512  40.322   0.746
50014W        W14999  20.237  38.573   3.375
50015W        W15000  34.820  25.444  13.941
50016W        W15001  40.364   8.713   3.205
50017W        W15002  19.316   9.750  10.759
50018W        W15003  30.022   5.912   3.866
50019W        W15004  33.110  42.993   1.475
50020W        W15005  22.526  15.721   2.409
50021W        W15006  14.659  44.929  14.384
50022W        W15007   6.399  36.493   3.687
50023W        W15008  19.133  37.465  11.930
50024W        W15009  33.023  39.173  10.958
50025W        W15010  32.002   9.873  10.189
50026W        W15011  40.560  23.985   3.700
50027W        W15012  19.142   4.330  11.408
50028W        W15013  39.010  15.154   0.379
50029W        W15014  27.655  43.450   1.212
50030W        W15015   9.923  12.928  12.153
50031W        W15016  23.940  25.004   4.572
50032W        W15017  26.455  39.548  13.954
50033W        W15018   5.756   2.707   0.607
50034W        W15019  19.225  40.406   1.196
50035W        W15020  30.426  11.395  14.955
50036W        W15021  33.554   7.017   5.430
50037W        W15022  23.934  44.649  14.851
50038W        W15023  42.728   9.112   4.871
50039W        W15024   0.860  20.838  14.833
50040W        W15025   7.318   3.353   5.054
50041W        W15026  25.144  24.430  13.056
50042W        W15027  30.176  39.338  10.729
50043W        W15028  39.368  24.315   2.034
50044W        W15029   1.769  10.055   1.917
50045W        W15030  40.316   8.871  11.651
50046W        W15031  37.366  43.971  10.908
50047W        W15032  18.949  28.543  10.850
50048W        W15033  13.778  14.186   5.067
50049W        W15034  40.808  32.340  12.941
50050W        W15035  30.365  10.737   3.822
50051W        W15036   9.257  18.243  13.003
50052W        W15037  11.783   8.804  13.936
50053W        W15038   5.431  23.992   4.204
50054W        W15039  31.983  41.517  14.775
50055W        W15040  37.343   0.501  13.989
50056W        W15041  35.919  37.561   3.080
50057W        W15042  29.547  30.148  13.005
50058W        W15043   7.019  41.881  11.671
50059W        W15044  31.401  11.067  11.554
50060W        W15045   4.911  40.126   4.178
50061W        W15046  26.514  35.147  11.518
50062W        W15047  32.095  29.217  11.010
50063W        W15048   4.078  32.912   2.531
50064W        W15049  14.190  16.215   1.847
50065W        W15050  34.154  36.599  13.009
50066W        W15051  33.096   5.567  12.613
50067W        W15052   8.129   8.765  14.095
50068W        W15053   7.910  42.895   4.820
50069W        W15054  13.652  19.547  11.659
50070W        W15055  36.940  16.195   0.061
50071W        W15056  42.220   5.861   0.282
50072W        W15057  24.686   1.364   3.259
50073W        W15058  19.588  32.910  13.846
50074W        W15059  11.180  27.470   1.380
50075W        W15060   4.835  39.565  13.953
50076W        W15061  40.617  15.249   3.185
50077W        W15062   8.424   2.234   0.182
50078W        W15063   1.865  27.691  14.284
50079W        W15064   0.263   0.836  13.421
50080W        W15065  37.353  35.988  14.907
50081W        W15066   1.055  22.077  13.535
50082W        W15067  16.180  19.921   4.701
50083W        W15068  44.650  43.025  14.644
50084W        W15069  28.999  26.569   0.897
50085W        W15070   5.502   9.723   0.262
50086W        W15071  37.215  40.950  11.190
50087W        W15072  37.654  25.301  11.969
50088W        W15073  26.621  30.873  11.091
50089W        W15074   7.917   9.767  10.903
50090W        W15075  21.749  43.320  13.523
50091W        W15076   8.772  34.516  13.250
50092W        W15077   6.807   5.727  14.930
50093W        W15078  42.495  44.236   4.002
50094W        W15079  38.819  18.857  11.093
50095W        W15080  43.079  39.541   3.641
50096W        W15081  43.788  24.128   1.874
50097W        W15082   1.468  40.996   4.676
50098W        W15083  22.671  34.897   0.445
50099W        W15084  44.887  20.325  14.852
50100W        W15085  27.080   9.289   2.885
50101W        W15086   0.442   6.880  13.622
50102W        W15087   7.221  27.601   3.853
50103W        W15088  11.884  32.851   3.336
50104W        W15089  20.746   4.777   3.661
50105W        W15090  24.052  43.410   4.534
50106W        W15091  27.951   2.861  11.600
50107W        W15092  35.549  24.096  14.772
50108W        W15093  20.331  14.819   1.857
50109W        W15094   9.071  12.835  11.262
50110W        W15095  36.367  11.857  10.109
50111W        W15096  36.999   2.519  14.893
50112W        W15097  21.724  33.289   0.096
50113W        W15098  34.535   1.421  12.517
50114W        W15099  34.074  15.746   4.064
50115W        W15100  15.028  42.040   4.473
50116W        W15101  38.811  27.672   3.659
50117W        W15102   9.917  36.847   0.354
50118W        W15103  37.335  35.880   0.987
50119W        W15104   6.388  13.255  12.516
50120W        W15105   8.471  22.957  14.030
50121W        W15106  44.926  14.987   4.708
50122W        W15107   3.208  17.618  12.689
50123W        W15108  22.188   5.166  12.436
50124W        W15109  23.796  13.776  11.287
50125W        W15110  14.542   0.816  11.553
50126W        W15111   0.372  12.234  13.578
50127W        W15112  17.001  20.164  11.061
50128W        W15113  33.142   6.174  14.014
50129W        W15114  27.142  14.766  13.952
50130W        W15115  11.274  43.701  14.283
50131W        W15116  34.360  31.945   4.564
50132W        W15117  42.330  30.448   0.095
50133W        W15118  30.664  11.885  14.407
50134W        W15119  17.628  42.816  12.336
50135W        W15120  30.509  23.673  14.448
50136W        W15121  36.449  25.687   0.868
50137W        W15122  10.188  32.962   0.331
50138W        W15123  18.162  17.437  12.457
50139W        W15124  43.514  11.684  13.491
50140W        W15125  26.165  19.617  10.996
50141W        W15126  15.533  34.798   1.871
50142W        W15127  38.849  24.807   4.151
50143W        W15128  33.013  36.673  14.869
50144W        W15129   2.451  16.901   2.680
50145W        W15130  21.079  34.618   0.015
50146W        W15131  28.616   4.422   2.846
50147W        W15132  34.626  16.116  13.610
50148W        W15133  15.972  12.082  14.912
50149W        W15134  38.619  40.481   0.058
50150W        W15135  44.267  42.311   3.677
50151W        W15136  39.305  30.024   0.519
50152W        W15137   6.443  37.792   4.246
50153W        W15138   4.835  21.719   3.934
50154W        W15139  16.108  19.043   0.421
50155W        W15140  19.763  14.974  14.813
50156W        W15141  20.518  14.083  12.072
50157W        W15142  19.688  18.017   4.810
50158W        W15143   9.936  11.716  11.217
50159W        W15144  18.107  20.148   0.817
50160W        W15145  37.949  40.713   1.246
50161W        W15146  30.937  14.375   2.802
50162W        W15147  37.943  44.766   1.947
50163W        W15148  22.184  14.284  10.683
50164W        W15149  31.793   4.977  14.838
50165W        W15150  25.650   1.745  13.955
50166W        W15151  36.480  16.247  14.294
50167W        W15152  17.748  38.816   4.174
50168W        W15153  29.640  10.340   1.348
50169W        W15154  43.783  23.593   4.661
50170W        W15155  31.615   0.158   4.540
50171W        W15156  39.306  14.581  14.896
50172W        W15157  21.595  34.584   1.875
50173W        W15158  38.808  11.726   1.944
50174W        W15159  22.538  38.052   1.741
50175W        W15160  39.557  36.987   1.920
50176W        W15161  27.401  40.232   3.350
50177W        W15162  33.541   7.372  13.744
50178W        W15163  21.557  15.279  11.105
50179W        W15164  42.523  39.365   2.886
50180W        W15165  20.453  10.651  12.138
50181W        W15166  10.832   1.304  12.826
50182W        W15167  11.443  26.541  14.948
50183W        W15168  34.972  44.989   3.435
50184W        W15169   8.136   2.725  14.021
50185W        W15170  43.392   2.202   2.013
50186W        W15171  41.482   8.192  14.325
50187W        W15172  39.383   5.139   2.147
50188W        W15173   7.482  32.135   4.522
50189W        W15174   9.796  35.162  14.238
50190W        W15175  14.081  39.080   2.879
50191W        W15176  14.232  30.480  12.430
50192W        W15177  33.935  11.713   4.249
50193W        W15178  38.834  36.954   4.056
50194W        W15179   4.306  11.841   4.749
50195W        W15180  30.931  15.141  10.477
50196W        W15181  28.411  33.498   0.775
50197W        W15182  28.952  39.918   0.399
50198W        W15183  20.126  25.159  14.308
50199W        W15184  13.663  41.410   0.222
50200W        W15185  44.739   3.019   3.958
50201W        W15186  20.067  37.860  12.963
50202W        W15187  15.873  17.394   2.145
50203W        W15188   0.524   7.768   0.083
50204W        W15189  10.482  25.496   3.057
50205W        W15190  38.199  18.627   1.787
50206W        W15191   4.993  27.468   3.779
50207W        W15192  20.058  25.449   1.957
50208W        W15193   5.504  41.317   4.148
50209W        W15194  36.508  44.761   3.509
50210W        W15195  41.971  41.849  13.573
50211W        W15196  19.122  27.973   1.828
50212W        W15197   8.664  11.860  14.941
50213W        W15198  38.769  36.475  12.469
50214W        W15199  37.450  26.153  14.248
50215W        W15200  36.775  23.683   0.774
50216W        W15201   2.474  41.156  13.065
50217W        W15202  41.842  35.308   1.325
50218W        W15203   0.179   9.296   3.305
50219W        W15204  14.625  13.125   4.317
50220W        W15205  44.318   3.668   2.322
50221W        W15206  16.380  33.082  12.108
50222W        W15207  26.876  43.387   0.751
50223W        W15208   4.887  12.726   0.894
50224W        W15209  17.686  11.663   2.922
50225W        W15210  43.881  19.826  12.775
50226W        W15211  37.805  20.486  11.660
50227W        W15212  26.237   0.615   3.509
50228W        W15213  36.978  17.507   4.451
50229W        W15214  30.633  43.178  12.015
50230W        W15215  26.401   0.215  13.840
50231W        W15216  20.307  33.341   4.184
50232W        W15217  29.881  37.852   3.841
50233W        W15218  37.462  20.973  11.469
50234W        W15219  32.719  44.795  14.841
50235W        W15220   5.840  22.426  12.797
50236W        W15221  12.660  44.811  12.447
50237W        W15222  26.235   4.938  13.382
50238W        W15223  32.025  10.740  10.628
50239W        W15224  10.655   1.776   1.597
50240W        W15225  36.643  16.642   4.392
50241W        W15226   6.741   6.829  14.350
50242W        W15227  38.891  32.581  13.963
50243W        W15228  31.901  42.360   0.858
50244W        W15229  30.391  10.302  14.046
50245W        W15230  35.953  29.025  14.870
50246W        W15231  44.365  30.934   2.839
50247W        W15232   2.544   3.838   3.094
50248W        W15233  44.905  39.957   1.798
50249W        W15234  39.106  12.658  10.928
50250W        W15235  25.629   1.222  13.909
50251W        W15236  44.016  42.673   1.699
50252W        W15237   0.606   5.490  11.107
50253W        W15238  13.814   3.899  13.109
50254W        W15239  41.505  34.920   1.707
50255W        W15240  26.917  19.247   3.287
50256W        W15241  18.614   3.125   1.614
50257W        W15242  21.010   2.291  11.898
50258W        W15243  26.810   7.247  13.607
50259W        W15244  28.025  14.534   3.388
50260W        W15245  44.383  39.359  13.305
50261W        W15246  28.898   6.545   4.537
50262W        W15247  20.284   8.185   2.287
50263W        W15248  42.019   5.762   3.318
50264W        W15249  11.066  14.573   3.518
50265W        W15250  19.653  11.608   1.056
50266W        W15251  34.334  18.958  14.102
50267W        W15252  43.946   3.292   4.867
50268W        W15253   0.986  26.822   9.850
50269W        W15254   5.841  30.427   0.679
50270W        W15255   1.240  31.898   0.790
50271W        W15256   7.244  11.574  13.870
50272W        W15257   2.227  44.352   3.739
50273W        W15258  24.981  27.722   2.958
50274W        W15259  41.377  14.263  12.508
50275W        W15260  23.549  14.909   2.784
50276W        W15261  20.275  13.036  11.868
50277W        W15262   3.991  33.192  11.915
50278W        W15263  44.005   6.169   3.235
50279W        W15264  34.253  36.829   2.632
50280W        W15265  20.302  28.579   0.540
50281W        W15266  15.673  32.229   3.703
50282W        W15267  39.456  17.367  10.648
50283W        W15268   1.597  44.416  13.571
50284W        W15269  35.334   6.918  14.515
50285W        W15270  20.838  37.451   1.434
50286W        W15271  32.935  42.901  14.509
50287W        W15272  27.143  16.492   4.413
50288W        W15273  31.919  20.557   3.613
50289W        W15274  12.528   7.339  11.952
50290W        W15275  41.961  17.772   3.335
50291W        W15276  15.343   4.501  11.495
50292W        W15277  13.064   3.788   2.201
50293W        W15278   1.778  21.350  13.785
50294W        W15279  35.440  31.839  12.113
50295W        W15280  42.373  11.588   0.961
50296W        W15281  32.388  34.018   1.186
50297W        W15282  29.554  24.698  14.373
50298W        W15283  23.004  14.875   0.501
50299W        W15284  30.385   7.596  13.992
50300W        W15285  15.853  28.971  10.807
50301W        W15286  37.356  42.964   3.714
50302W        W15287  29.146  43.669   4.722
50303W        W15288   8.745   4.325  10.731
50304W        W15289  17.329  18.327  14.198
50305W        W15290  30.469   1.668  12.504
50306W        W15291  38.959  13.877  14.765
50307W        W15292  31.357   6.148   1.602
50308W        W15293  28.541  21.960   4.613
50309W        W15294   5.336  39.820   4.147
50310W        W15295  11.483  12.948   0.842
50311W        W15296  13.521  44.984   2.850
50312W        W15297  23.169  39.243  13.810
50313W        W15298   6.821  10.013   2.648
50314W        W15299   6.746  18.880  13.699
50315W        W15300  10.830   5.083  14.939
50316W        W15301  23.217  27.642   1.748
50317W        W15302  20.199   9.426   1.476
50318W        W15303  37.536  30.438  10.465
50319W        W15304  11.279  42.737  11.023
50320W        W15305  35.475   8.079  12.586
50321W        W15306  28.179  15.340  14.418
50322W        W15307   9.827  13.826  14.252
50323W        W15308  32.108   2.219   4.288
50324W        W15309  30.032  13.151   4.115
50325W        W15310  15.407  40.073   1.325
50326W        W15311  40.492  37.018  10.752
50327W        W15312  40.834   7.981  13.298
50328W        W15313  21.720  27.157   1.814
50329W        W15314  40.194   9.209   3.384
50330W        W15315  39.601  38.507   1.207
50331W        W15316   4.585  16.182  13.817
50332W        W15317  13.525  42.467   3.782
50333W        W15318   0.521  21.478   0.959
50334W        W15319  40.972  27.191  11.028
50335W        W15320  44.809  26.847   2.914
50336W        W15321   6.198  40.532   1.328
50337W        W15322   3.686  17.191   3.217
50338W        W15323  41.513  37.428   2.222
50339W        W15324   0.706  43.102   2.838
50340W        W15325   0.004  33.047   3.801
50341W        W15326  23.048  10.348   0.879
50342W        W15327  31.933   1.715   3.627
50343W        W15328  35.539  30.177   3.468
50344W        W15329  39.424  28.550   3.862
50345W        W15330  42.153   3.454   4.154
50346W        W15331  32.521  20.462   0.713
50347W        W15332   4.724   0.491   0.345
50348W        W15333  36.742  40.552   3.736
50349W        W15334  43.462  25.747   2.165
50350W        W15335  26.601  30.824  12.258
50351W        W15336   1.876  23.960   3.281
50352W        W15337   2.167  27.651  12.881
50353W        W15338   0.049  41.915  13.323
50354W        W15339  40.738   5.867   0.407
50355W        W15340  28.185  16.932   0.266
50356W        W15341  16.184  13.260  14.593
50357W        W15342  44.366  41.287  10.161
50358W        W15343  15.004  27.385   1.419
50359W        W15344  21.425   4.681   4.206
50360W        W15345   5.431  29.726   3.187
50361W        W15346   5.222  26.057   3.302
50362W        W15347  26.020  33.087  14.870
50363W        W15348  17.709  33.479  14.870
50364W        W15349  14.215  37.033   0.257
50365W        W15350  24.025  39.449  14.051
50366W        W15351   5.033  31.882   4.093
50367W        W15352  36.410  37.070   4.873
50368W        W15353   1.490   0.567   4.357
50369W        W15354  21.221  43.497   1.828
50370W        W15355  35.867  14.039   1.236
50371W        W15356  19.549  34.482  12.494
50372W        W15357  32.209   7.929   4.543
50373W        W15358  36.832   5.788   1.832
50374W        W15359  19.999  26.772  13.205
50375W        W15360   6.295  14.677   4.165
50376W        W15361  27.590  18.627  11.548
50377W        W15362  12.676  29.753  12.644
50378W        W15363  11.695  28.397  10.680
50379W        W15364   6.803  25.936  12.377
50380W        W15365   8.158  44.890  14.866
50381W        W15366  42.058  19.171   5.416
50382W        W15367  19.234  16.132   1.013
50383W        W15368   5.879  38.601   0.312
50384W        W15369  10.016  43.433  11.222
50385W        W15370  20.623  10.804  13.000
50386W        W15371  34.517   6.564   1.358
50387W        W15372   6.773  21.763  11.548
50388W        W15373  30.516   3.006   5.166
50389W        W15374  37.049  31.408  14.296
50390W        W15375   9.991   2.916  13.708
50391W        W15376   3.771  44.781  10.519
50392W        W15377  37.994  29.168   1.145
50393W        W15378  20.744  30.310  12.400
50394W        W15379  25.312  42.564   0.210
50395W        W15380  11.018  41.254   0.218
50396W        W15381  29.544  42.033   0.117
50397W        W15382   2.943   1.877  14.449
50398W        W15383  25.973   5.373  13.417
50399W        W15384  20.727  35.544   2.671
50400W        W15385  20.616  32.717   4.123
50401W        W15386  18.652  10.342   2.523
50402W        W15387  40.863  13.291   0.934
50403W        W15388   7.667  43.015   3.504
50404W        W15389  18.121  25.233   3.192
50405W        W15390  21.803  19.066  13.617
50406W        W15391  22.075  30.151   5.058
50407W        W15392  13.685  31.233   2.403
50408W        W15393  30.918   6.510   3.079
50409W        W15394  39.806   3.664   2.224
50410W        W15395  18.827   6.745   4.960
50411W        W15396   5.801  37.979  12.399
50412W        W15397  31.012   3.783  11.411
50413W        W15398  22.755   9.186   0.297
50414W        W15399  12.672  30.135   0.439
50415W        W15400  25.692  44.519   0.886
50416W        W15401  27.702  27.885  11.132
50417W        W15402  30.019  15.565  13.851
50418W        W15403  15.145  38.523  12.374
50419W        W15404  39.917  22.121   2.126
50420W        W15405  24.740  31.808  14.309
50421W        W15406  30.061  30.004   3.540
50422W        W15407  32.980   1.298  13.389
50423W        W15408   6.864  16.592  10.967
50424W        W15409  17.306  39.285  13.959
50425W        W15410  14.716   9.879   5.204
50426W        W15411   8.655  35.341   3.307
50427W        W15412  28.864  17.561   0.509
50428W        W15413  16.658  30.134   1.367
50429W        W15414  18.831  40.044   3.981
50430W        W15415  27.173  44.450   0.859
50431W        W15416  20.638  40.407  14.732
50432W        W15417  17.570   2.847   2.141
50433W        W15418  38.099  19.439   1.643
50434W        W15419  20.007   9.311  10.589
50435W        W15420  32.682  36.786  14.345
50436W        W15421  18.090  32.027  10.566
50437W        W15422  18.660   7.442   3.500
50438W        W15423  22.001  19.127   1.733
50439W        W15424   8.217  12.377  11.587
50440W        W15425  13.726  37.930   1.666
50441W        W15426   3.362  43.862  11.105
50442W        W15427  21.673  44.732   3.736
50443W        W15428  42.713  19.343   4.778
50444W        W15429  17.503  37.753  12.460
50445W        W15430  32.037  29.994  13.406
50446W        W15431  18.139   2.987   4.698
50447W        W15432  44.481  40.846  11.016
50448W        W15433  23.112  30.129  10.076
50449W        W15434  35.162  26.708  14.708
50450W        W15435  24.005  34.151  10.765
50451W        W15436  32.091  27.706   3.687
50452W        W15437  15.135  33.343  14.252
50453W        W15438  35.754  40.408   3.888
50454W        W15439  28.640  39.499  14.347
50455W        W15440  14.160  15.729   0.269
50456W        W15441   1.466  19.490   4.686
50457W        W15442  16.864  43.823  14.400
50458W        W15443  25.033  36.363   3.089
50459W        W15444   5.807  31.818   5.226
50460W        W15445  13.799   6.807   3.301
50461W        W15446  21.953  14.102   3.072
50462W        W15447  28.402   4.957  13.044
50463W        W15448  23.117  17.042   4.944
50464W        W15449  30.650  15.702   0.295
50465W        W15450  23.996  22.993  11.946
50466W        W15451  42.329   4.550  13.865
50467W        W15452  23.156  12.091   4.045
50468W        W15453  41.460  28.737   3.025
50469W        W15454  30.423  32.086   3.143
50470W        W15455  39.389   0.776   3.676
50471W        W15456   9.444  11.665  14.768
50472W        W15457  40.030  30.860   0.876
50473W        W15458   6.805   3.989  13.088
50474W        W15459  32.537  32.962  14.688
50475W        W15460  42.430  38.153   0.946
50476W        W15461  15.679  40.529  11.840
50477W        W15462   8.931   8.277   1.256
50478W        W15463   4.330  38.572   0.617
50479W        W15464   5.916   9.794  10.851
50480W        W15465   6.092   5.424   0.950
50481W        W15466  35.334  16.150  12.533
50482W        W15467  37.523  34.798  13.738
50483W        W15468  34.051  29.956   2.189
50484W        W15469  30.559  25.803   4.102
50485W        W15470   3.425   9.302  12.546
50486W        W15471  16.165  27.179   0.912
50487W        W15472  28.988  34.199   3.129
50488W        W15473  33.394  35.029  11.365
50489W        W15474  34.385   8.383   0.417
50490W        W15475  13.058  37.366   4.512
50491W        W15476  36.276  32.659   4.469
50492W        W15477  10.187  35.120   1.427
50493W        W15478  10.990  31.453  13.909
50494W        W15479  33.448  25.328  10.286
50495W        W15480  29.904  28.106   4.559
50496W        W15481  25.987   1.924   1.859
50497W        W15482  44.997  34.515   5.415
50498W        W15483  33.117  39.101  12.205
50499W        W15484  11.808  12.335  14.557
50500W        W15485  26.224   0.060   0.303
50501W        W15486   8.927  16.310  10.863
50502W        W15487  13.261  22.859   2.241
50503W        W15488  32.564  25.642  14.447
50504W        W15489  23.130   7.598  11.681
50505W        W15490  14.980  29.658   3.249
50506W        W15491  14.457   4.893   5.021
50507W        W15492  40.033   1.694  12.957
50508W        W15493  39.003  16.167   1.933
50509W        W15494  26.344   9.577   3.245
50510W        W15495  19.658  30.384   1.883
50511W        W15496  19.607  40.318   0.275
50512W        W15497   1.824  35.325  14.608
50513W        W15498  36.088   0.363  12.675
50514W        W15499   0.834   6.400  12.197
50515W        W15500  42.587  22.465  11.031
50516W        W15501   0.896  11.279  11.479
50517W        W15502  40.495  31.193  13.468
50518W        W15503  41.861   7.518   4.574
50519W        W15504  41.996   8.290   3.799
50520W        W15505  12.706  21.324   1.584
50521W        W15506  12.114   9.223  14.893
50522W        W15507   3.782  14.563   2.857
50523W        W15508  10.126  19.652   0.932
50524W        W15509  40.562  10.396   1.806
50525W        W15510  14.231  12.892   4.587
50526W        W15511  39.311  37.555   3.635
50527W        W15512  39.009   6.850   0.972
50528W        W15513  43.076   9.882  12.409
50529W        W15514  38.067   3.670  11.619
50530W        W15515  35.033  40.023   3.126
50531W        W15516  36.991  21.139   4.544
50532W        W15517  30.887  21.620   0.834
50533W        W15518   2.917   2.189  13.592
50534W        W15519  20.358   3.130  14.812
50535W        W15520   9.278  42.036   0.300
50536W        W15521  39.882  23.114   1.276
50537W        W15522  15.042  22.182  12.976
50538W        W15523  21.798  10.042  12.068
50539W        W15524  44.313  19.485   0.713
50540W        W15525  35.512  41.730  14.400
50541W        W15526  42.995   0.004  11.427
50542W        W15527  15.062  28.616  12.027
50543W        W15528  41.107  23.675  14.334
50544W        W15529  43.245  44.351   2.309
50545W        W15530  42.101  17.343   4.534
50546W        W15531  26.251  13.321  14.483
50547W        W15532  27.648   0.158  12.897
50548W        W15533  24.244  39.252   2.315
50549W        W15534  16.402   5.903  11.635
50550W        W15535   3.305  40.432  11.566
50551W        W15536  13.497   5.586  13.305
50552W        W15537  16.284   0.722   4.156
50553W        W15538  28.678  20.079  11.609
50554W        W15539   7.133  44.752  11.621
50555W        W15540  20.672  36.306   4.686
50556W        W15541  18.783   9.157  13.406
50557W        W15542  23.594   9.362  12.026
50558W        W15543   1.484  39.819  12.413
50559W        W15544  10.873  13.740  13.990
50560W        W15545  11.726  30.496  11.108
50561W        W15546  43.876  14.944  13.474
50562W        W15547  23.111  30.044   0.169
50563W        W15548  12.945  17.005   4.909
50564W        W15549  43.398  30.010  12.316
50565W        W15550   7.255   1.863  10.960
50566W        W15551  16.601  26.606  13.545
50567W        W15552  39.549  16.253  12.968
50568W        W15553  40.210  14.216  12.141
50569W        W15554   8.637  37.356   4.521
50570W        W15555  44.424  16.806  14.269
50571W        W15556   3.192   9.282  11.091
50572W        W15557  29.155  15.310   1.009
50573W        W15558  20.659   5.319  10.806
50574W        W15559  15.291  21.557   3.561
50575W        W15560  10.518   9.834   3.014
50576W        W15561   2.736   9.358  12.105
50577W        W15562  40.081   0.233  12.886
50578W        W15563  17.308   8.295  12.448
50579W        W15564  41.804  39.597   3.271
50580W        W15565  33.976   7.599   0.841
50581W        W15566  40.503  31.133   1.007
50582W        W15567  25.970  19.203  10.751
50583W        W15568  39.108  40.006  11.596
50584W        W15569  25.010  39.322   0.939
50585W        W15570  24.858   1.968  12.101
50586W        W15571  15.283  28.328   1.298
50587W        W15572  43.534  11.341   2.794
50588W        W15573  24.225   3.711   1.038
50589W        W15574  36.447  25.656   4.145
50590W        W15575  42.496  29.203   5.036
50591W        W15576  34.413  27.391   3.888
50592W        W15577  14.642  34.996  14.174
50593W        W15578   4.616  41.830   3.486
50594W        W15579  32.329  19.639  11.575
50595W        W15580  36.559  31.123   0.422
50596W        W15581  34.448   8.249   1.849
50597W        W15582  34.075   8.906   1.392
50598W        W15583   0.960  44.226  12.906
50599W        W15584  34.426  29.196  14.003
50600W        W15585  20.974  37.111  11.748
50601W        W15586  13.110  28.198   0.369
50602W        W15587   8.480  20.786   0.499
50603W        W15588  10.186  36.380   0.507
50604W        W15589   9.998  23.982  11.089
50605W        W15590  27.559   0.195   3.037
50606W        W15591  15.880  19.061  14.922
50607W        W15592  36.663  15.629   1.455
50608W        W15593   8.842  24.286  13.096
50609W        W15594  30.991   6.501  12.849
50610W        W15595  43.429   2.824  11.285
50611W        W15596  43.774  26.055   1.821
50612W        W15597  41.922   6.121   2.939
50613W        W15598  42.271  39.546   4.201
50614W        W15599  12.091  12.487   1.790
50615W        W15600  36.044  11.272   0.496
50616W        W15601   1.898  37.770   0.255
50617W        W15602  37.259   7.414   0.520
50618W        W15603  11.171  16.074   2.684
50619W        W15604  20.534  16.774   0.495
50620W        W15605  10.769  42.021  11.975
50621W        W15606  32.463  17.550   3.134
50622W        W15607  21.438  33.713   0.322
50623W        W15608   9.270  14.351   0.388
50624W        W15609  10.360  21.156   1.922
50625W        W15610  19.550  15.247  11.001
50626W        W15611  24.111  11.483   1.817
50627W        W15612  25.502   9.426   4.504
50628W        W15613  12.651  32.468   1.720
50629W        W15614   4.934  41.443   3.025
50630W        W15615  34.032  16.403  13.068
50631W        W15616  11.319  42.510  11.476
50632W        W15617  27.459  16.127   2.143
50633W        W15618   2.928   8.674  10.415
50634W        W15619  44.970  16.391  12.611
50635W        W15620  12.692  18.342   0.813
50636W        W15621  29.652  40.583  14.362
50637W        W15622  42.809   9.095   3.823
50638W        W15623   0.380   6.420  12.491
50639W        W15624  26.471   6.869  14.075
50640W        W15625   5.481  21.253  10.293
50641W        W15626  40.447  25.667   3.534
50642W        W15627  40.226  15.163   2.810
50643W        W15628   0.009  22.830   4.401
50644W        W15629  36.548  18.180   3.148
50645W        W15630  19.425  15.907   3.205
50646W        W15631   5.374  17.949  12.080
50647W        W15632  41.762  31.369   1.311
50648W        W15633  24.311  15.847  13.456
50649W        W15634   6.413  17.084  10.194
50650W        W15635  10.304  12.079  11.155
50651W        W15636   4.873   0.586  11.176
50652W        W15637  15.355  25.616   0.725
50653W        W15638  12.145  25.832   3.063
50654W        W15639  29.057  25.517   0.811
50655W        W15640  10.206  32.705  14.871
50656W        W15641  33.911  33.354  13.805
50657W        W15642  25.003  26.506   5.348
50658W        W15643  22.798  15.566  11.293
50659W        W15644   2.402  18.554  13.856
50660W        W15645  20.801  18.242  14.733
50661W        W15646  39.835  20.054   1.752
50662W        W15647  27.112  19.261   0.538
50663W        W15648  38.332  15.691   9.911
50664W        W15649  42.118  31.200  14.814
50665W        W15650   8.248   4.047  11.141
50666W        W15651  13.707  33.178   3.109
50667W        W15652  15.111  35.844   2.401
50668W        W15653  28.145  42.935  12.902
50669W        W15654   6.898  18.690  13.105
50670W        W15655  22.884  20.757  10.607
50671W        W15656  43.272   3.591  14.718
50672W        W15657  10.130  27.202   2.762
50673W        W15658  27.018  15.117   3.910
50674W        W15659  39.397  32.163   1.890
50675W        W15660  25.053   8.182  11.528
50676W        W15661  17.165  22.553  12.780
50677W        W15662  37.228  33.601  12.004
50678W        W15663  31.917  17.259   0.669
50679W        W15664  39.921  37.073  10.678
50680W        W15665  44.001   8.732   2.136
50681W        W15666  25.298  30.057  13.849
50682W        W15667  31.549   5.236   0.978
50683W        W15668  19.586   0.724   3.703
50684W        W15669  28.207  41.326  10.756
50685W        W15670  14.865   1.302  10.675
50686W        W15671  30.894  10.695   3.814
50687W        W15672   3.758  40.683  11.577
50688W        W15673  32.699   5.882  12.475
50689W        W15674  24.763  15.626   1.412
50690W        W15675  21.590  43.044  11.499
50691W        W15676   9.265  12.726   3.100
50692W        W15677  44.839  13.812  11.667
50693W        W15678  43.984  34.089  11.890
50694W        W15679  16.634  38.530  13.877
50695W        W15680   2.954   1.411  10.719
50696W        W15681   5.456   4.745   2.276
50697W        W15682  40.421  27.598  12.678
50698W        W15683  25.250  36.553   4.007
50699W        W15684   3.336   2.528  11.619
50700W        W15685  32.809  15.572   4.274
50701W        W15686  44.724  34.433   0.182
50702W        W15687  20.732  15.129  13.365
50703W        W15688  42.795   2.838   4.259
50704W        W15689  24.592  16.836  14.903
50705W        W15690  39.952   9.819   2.854
50706W        W15691   3.890  42.653   1.782
50707W        W15692  44.291  26.147   3.168
50708W        W15693  44.480   6.890   4.550
50709W        W15694  21.468  21.297   2.834
50710W        W15695  31.855  41.598   0.318
50711W        W15696   3.227  19.737   3.869
50712W        W15697  44.223  27.699   9.981
50713W        W15698   5.749  31.671   1.630
50714W        W15699  38.078  42.018  11.132
50715W        W15700  38.342  23.722   4.142
50716W        W15701  27.684  40.497   1.206
50717W        W15702  18.157  15.301  13.369
50718W        W15703  24.174  14.335   1.797
50719W        W15704  37.776  10.851  11.995
50720W        W15705  12.291  35.347  12.056
50721W        W15706  32.044   4.790   2.304
50722W        W15707   5.781  30.047  11.962
50723W        W15708  30.345  14.277   4.677
50724W        W15709   0.755   6.154  11.738
50725W        W15710  40.057  29.666   3.388
50726W        W15711   0.734   7.245   0.755
50727W        W15712  17.623  18.236  11.271
50728W        W15713  39.517  29.247   1.207
50729W        W15714  39.287  42.119   2.803
50730W        W15715  13.761  35.122  14.351
50731W        W15716  33.303  11.589  10.712
50732W        W15717  27.574  17.187  10.327
50733W        W15718  23.644   6.277   1.297
50734W        W15719  27.012   8.456  13.859
50735W        W15720  18.325  23.666  12.191
50736W        W15721  37.920  20.366  11.183
50737W        W15722  24.199  12.309  14.830
50738W        W15723  33.100  18.842  12.014
50739W        W15724  16.503  32.971   4.218
50740W        W15725   2.890  40.564   0.902
50741W        W15726  18.875   9.816  14.420
50742W        W15727  34.922  27.495   0.776
50743W        W15728  30.493  38.750   1.936
50744W        W15729  14.707  16.035  13.051
50745W        W15730  33.997  17.200  12.197
50746W        W15731  14.799  11.281   3.833
50747W        W15732   7.508  11.447   0.665
50748W        W15733  43.030  37.812  12.496
50749W        W15734  29.077   8.726  12.979
50750W        W15735  13.616  20.255  13.865
50751W        W15736   2.570  33.069  10.652
50752W        W15737  37.389  13.099  13.425
50753W        W15738  27.049  11.224   3.372
50754W        W15739  32.978  14.167  14.818
50755W        W15740  16.553  13.151   2.278
50756W        W15741  14.898   5.892   0.372
50757W        W15742  15.981  19.194  11.869
50758W        W15743   2.845  39.424   1.815
50759W        W15744  24.496  16.831   1.719
50760W        W15745  30.963   9.628  12.592
50761W        W15746  44.164  18.745   1.387
50762W        W15747  39.290  11.336  12.490
50763W        W15748  26.160  27.553   1.474
50764W        W15749  14.800  38.659   2.186
50765W        W15750  20.766   6.298  12.113
50766W        W15751  27.185  16.500   3.397
50767W        W15752  43.871  18.035  11.107
50768W        W15753  21.166   2.631   4.993
50769W        W15754   9.975  39.137  12.912
50770W        W15755  15.334   7.959  11.905
50771W        W15756  35.903  11.689  14.729
50772W        W15757  16.540   4.903   3.128
50773W        W15758  13.987  35.739  10.780
50774W        W15759   6.740  36.010   2.019
50775W        W15760  43.283  31.673   0.565
50776W        W15761  42.412  34.204   9.256
50777W        W15762   0.950  32.894   0.439
50778W        W15763  42.952  40.683  13.346
50779W        W15764  36.508  39.457   4.721
50780W        W15765   9.738  29.404  14.938
50781W        W15766  17.769  13.205  13.151
50782W        W15767  23.638   8.159  13.066
50783W        W15768  23.189   3.997   9.771
50784W        W15769  19.544   6.207  14.991
50785W        W15770   1.944   8.767  12.941
50786W        W15771   8.901  10.601   3.005
50787W        W15772  33.379  26.071  11.236
50788W        W15773  29.583   3.268  13.355
50789W        W15774   8.351  35.642  12.863
50790W        W15775  18.591  35.442  12.071
50791W        W15776  13.755  12.726   1.457
50792W        W15777   3.480  30.114   3.003
50793W        W15778  24.164  24.040   4.577
50794W        W15779  20.246  24.319  13.060
50795W        W15780  23.604   8.691  13.143
50796W        W15781  27.893  19.857   3.584
50797W        W15782  13.185  18.315  14.410
50798W        W15783  17.673  38.478  14.689
50799W        W15784  24.260  29.925   3.764
50800W        W15785  12.203  32.702  12.595
50801W        W15786  26.106   5.087  13.859
50802W        W15787  10.715  33.150  13.747
50803W        W15788  34.937  16.536   1.423
50804W        W15789  19.601  41.494   1.646
50805W        W15790   0.338   3.987   2.145
50806W        W15791  23.156   2.070   1.897
50807W        W15792  32.103  34.115  14.048
50808W        W15793   5.683   5.267   1.223
50809W        W15794  20.320  36.628   4.868
50810W        W15795  41.068  26.472  11.586
50811W        W15796   0.687  32.569  14.894
50812W        W15797  39.642  33.450   2.010
50813W        W15798   0.323  41.290  11.478
50814W        W15799  40.793   9.202   0.893
50815W        W15800  13.580  31.366   1.657
50816W        W15801  17.800   0.743   4.858
50817W        W15802  27.874  41.758  10.725
50818W        W15803  31.902  37.394   4.116
50819W        W15804   5.507  31.072  14.229
50820W        W15805  25.248   3.055  14.862
50821W        W15806  24.768  28.832  14.406
50822W        W15807  22.766   8.109  10.790
50823W        W15808  42.262  10.719  12.998
50824W        W15809   5.541   2.811   4.223
50825W        W15810  20.207  10.354  11.585
50826W        W15811  16.971  39.204   1.692
50827W        W15812  11.441  17.359  10.759
50828W        W15813   9.221  11.777   3.146
50829W        W15814  21.939  33.313  11.247
50830W        W15815  35.370  43.058   1.392
50831W        W15816  16.246  42.059   3.835
50832W        W15817  34.058  10.463   0.291
50833W        W15818  15.472  15.556   0.908
50834W        W15819   5.085  33.678   0.213
50835W        W15820  34.922  16.590   2.335
50836W        W15821   5.264  32.198   2.797
50837W        W15822  17.441  28.172  13.446
50838W        W15823  24.585  33.072   2.346
50839W        W15824  40.994   7.080  13.010
50840W        W15825  16.993  37.409  13.634
50841W        W15826   1.424  32.678   0.363
50842W        W15827  26.759  41.524  11.603
50843W        W15828  30.561  16.295  10.826
50844W        W15829  44.124  17.063   5.282
50845W        W15830  40.920   3.907  13.292
50846W        W15831  33.751  20.497  12.080
50847W        W15832  43.899  31.050   1.461
50848W        W15833   7.780  16.214  14.054
50849W        W15834  29.100  23.550  14.892
50850W        W15835  11.839   7.095  10.974
50851W        W15836  44.741  29.036   4.116
50852W        W15837  27.191  14.096   0.862
50853W        W15838  23.849   8.575  10.319
50854W        W15839  23.069  19.501   4.081
50855W        W15840  44.743  27.614  13.257
50856W        W15841   5.111  15.248   3.711
50857W        W15842  25.323  24.690  13.545
50858W        W15843   9.829  24.475  13.434
50859W        W15844  28.635  14.780  12.511
50860W        W15845   4.895  19.057   4.447
50861W        W15846   1.508  17.008  13.415
50862W        W15847  34.915   4.395  11.995
50863W        W15848  40.254   0.472  10.772
50864W        W15849  35.025  42.380  13.518
50865W        W15850  44.762   7.607  12.461
50866W        W15851  32.110  29.751  10.999
50867W        W15852  28.175  29.741  11.855
50868W        W15853   1.149  41.428  12.356
50869W        W15854  27.438  10.633  12.499
50870W        W15855   2.456  10.432  14.387
50871W        W15856  33.316   7.626   2.299
50872W        W15857  34.985  12.193   0.593
50873W        W15858  43.927   7.112  12.908
50874W        W15859   5.448  25.162  11.011
50875W        W15860   9.731  15.266  10.686
50876W        W15861  43.738  42.019  13.296
50877W        W15862  14.923   9.879   1.275
50878W        W15863  23.684  37.749   2.894
50879W        W15864  17.828  35.880  11.411
50880W        W15865  30.348  10.247  11.800
50881W        W15866  41.543  12.868  14.424
50882W        W15867  24.643  31.851  13.454
50883W        W15868   0.443  43.109  12.103
50884W        W15869  14.783  31.630   3.882
50885W        W15870  37.465  34.670  11.347
50886W        W15871  11.133  36.824  12.022
50887W        W15872  31.940  31.774   4.804
50888W        W15873  15.265  25.439  10.285
50889W        W15874  10.161   6.213  14.958
50890W        W15875  16.084  42.782  11.438
50891W        W15876  20.266  15.876  11.162
50892W        W15877  10.778  43.859  14.382
50893W        W15878  13.535  27.542  11.658
50894W        W15879   7.880   8.196  11.957
50895W        W15880  22.040  10.643  11.166
50896W        W15881  19.717  16.519  11.545
50897W        W15882   3.191  39.838   0.667
50898W        W15883   9.221  41.811   3.118
50899W        W15884  22.721  22.140  13.476
50900W        W15885  41.517  20.015   3.640
50901W        W15886  27.735  31.637  11.100
50902W        W15887   7.597   9.359  13.903
50903W        W15888  23.359  14.366   3.669
50904W        W15889  24.352  41.903  12.905
50905W        W15890  35.438  31.377  14.726
50906W        W15891  31.060  33.387   0.302
50907W        W15892   0.922  20.323  10.972
50908W        W15893  16.124  40.624   0.836
50909W        W15894  13.423  40.943   1.140
50910W        W15895  33.529  16.716  11.480
50911W        W15896   3.478   7.263   1.711
50912W        W15897   0.185  41.418  13.361
50913W        W15898  43.454  26.475  12.474
50914W        W15899  14.026  29.151  11.566
50915W        W15900   7.199   4.235   5.153
50916W        W15901  14.246  23.737  12.559
50917W        W15902   4.611  10.471   4.490
50918W        W15903  13.709  29.004   2.820
50919W        W15904  27.144  23.530  13.446
50920W        W15905  32.166  18.630   0.231
50921W        W15906  12.985  16.494   9.805
50922W        W15907  36.940  29.719   3.922
50923W        W15908  18.146  16.057  11.278
50924W        W15909   0.902  41.921   1.845
50925W        W15910   8.980  38.535   2.729
50926W        W15911  24.606  30.188   3.042
50927W        W15912  22.035   3.266  13.651
50928W        W15913   0.377  23.156   3.590
50929W        W15914  24.156  33.144  14.768
50930W        W15915  24.817  34.563   2.196
50931W        W15916  20.656  39.306   3.365
50932W        W15917  31.996   4.830  13.269
50933W        W15918  35.678  36.071  12.180
50934W        W15919  31.043  43.087  13.967
50935W        W15920   2.438   8.164  11.209
50936W        W15921  39.462  27.557  11.151
50937W        W15922  16.738   5.725  11.977
50938W        W15923   9.394  28.799  13.438
50939W        W15924  18.401  28.516  12.870
50940W        W15925  39.058   6.416   3.196
50941W        W15926   6.496  15.892   2.403
50942W        W15927  36.799  38.641   3.615
50943W        W15928   3.909  19.145   3.012
50944W        W15929  33.312   2.460   1.332
50945W        W15930  36.615  35.354  14.541
50946W        W15931   5.040  26.723   2.422
50947W        W15932  11.320  41.359   4.597
50948W        W15933  39.999   6.760   3.113
50949W        W15934   1.356  18.234   1.154
50950W        W15935   5.707  15.669  13.660
50951W        W15936   4.948  21.259   3.135
50952W        W15937  39.919  27.703  12.781
50953W        W15938  33.098  41.841  11.140
50954W        W15939  20.554  39.993  13.495
50955W        W15940  20.766   8.972  11.091
50956W        W15941  15.005  31.983  11.690
50957W        W15942  40.740  22.644  14.435
50958W        W15943   1.786  43.195  11.931
50959W        W15944   9.076  10.167   3.888
50960W        W15945  33.465  26.934   0.873
50961W        W15946  12.672  44.057  11.120
50962W        W15947   5.864  33.095  13.808
50963W        W15948  11.388  20.663   3.971
50964W        W15949   1.219  29.672   0.283
50965W        W15950  22.421  24.271  11.986
50966W        W15951  12.756  39.496   3.319
50967W        W15952  29.467  37.543   2.226
50968W        W15953   2.685  25.155  10.327
50969W        W15954  27.377  36.406  10.761
50970W        W15955  34.358  36.002   1.856
50971W        W15956  29.999   2.344   4.692
50972W        W15957   7.496  34.431   2.759
50973W        W15958   5.422  23.721  10.772
50974W        W15959  24.965  29.465  12.980
50975W        W15960  40.769   2.362   1.597
50976W        W15961  11.587  24.968  12.858
50977W        W15962  16.450  29.676  10.253
50978W        W15963   5.431  19.933   3.105
50979W        W15964  29.532  24.036   3.084
50980W        W15965  28.956  20.797  12.126
50981W        W15966   3.809  27.859   4.026
50982W        W15967   1.508  30.634   3.133
50983W        W15968  19.827  20.755  10.275
50984W        W15969  44.920  13.295  10.780
50985W        W15970  11.319  33.111  13.217
50986W        W15971  44.178  38.542  11.305
50987W        W15972  41.695  15.755   9.703
50988W        W15973  28.218   5.283   1.970
50989W        W15974  11.773  29.238  11.645
50990W        W15975  34.019   6.247  12.671
50991W        W15976  29.554  15.768  11.673
50992W        W15977  22.781  19.139  14.803
50993W        W15978  11.594  35.764  11.738
50994W        W15979  26.920  15.688  10.983
50995W        W15980  43.028   5.280  11.633
50996W        W15981  21.950  24.485  12.607
50997W        W15982   8.813   8.808  10.446
50998W        W15983  34.987   4.771  14.925
50999W        W15984  22.287   8.702   2.225
51000W        W15985  42.934   0.520   1.620
51001W        W15986   1.965   4.427   0.306
51002W        W15987  31.109  43.980   1.219
51003W        W15988  19.043  28.033  10.785
51004W        W15989  11.882  21.113  11.889
51005W        W15990  27.588   5.653  12.323
51006W        W15991  15.951   7.629  11.187
51007W        W15992  30.224  23.294   2.918
51008W        W15993  44.696  12.120   0.308
51009W        W15994  18.188   0.110  12.481
51010W        W15995  19.675   9.805   3.119
51011W        W15996  35.033  41.537   3.752
51012W        W15997  37.091  10.617  12.252
51013W        W15998  40.271  24.159   4.100
51014W        W15999   8.325  36.568   0.860
51015W        W16000  43.457  13.046   2.273
51016W        W16001  29.498  21.285   0.748
51017W        W16002   6.934  10.906   2.307
51018W        W16003  20.735  33.573   1.751
51019W        W16004  33.891   3.400   3.763
51020W        W16005  15.656  28.987  13.151
51021W        W16006  33.359  32.639  10.953
51022W        W16007  37.579  32.414   4.030
51023W        W16008   9.162   3.170   0.596
51024W        W16009  44.339  26.056   0.952
51025W        W16010  20.826  17.045   4.131
51026W        W16011  25.559  15.230   3.267
51027W        W16012  25.085  35.539   1.952
51028W        W16013  31.397  15.342   4.215
51029W        W16014  40.550  21.757  11.034
51030W        W16015   6.927  28.070   1.485
51031W        W16016   3.964  33.011   2.014
51032W        W16017  22.138   1.547   4.779
51033W        W16018  28.633  20.602  11.738
51034W        W16019   8.748  38.540  10.692
51035W        W16020   0.889  27.829  10.227
51036W        W16021  26.481  15.796  13.769
51037W        W16022  26.609   8.933  11.586
51038W        W16023  18.136  18.165   2.228
51039W        W16024  23.980  15.782  10.760
51040W        W16025  26.184  22.155  11.694
51041W        W16026  31.427  23.958   2.207
51042W        W16027  14.761  44.617   4.702
51043W        W16028  25.626  33.945  10.924
51044W        W16029   2.449  29.972   0.985
51045W        W16030   0.029  24.127   4.633
51046W        W16031  13.791  26.566  11.172
51047W        W16032  36.534  21.447   2.710
51048W        W16033  36.443  10.153   1.285
51049W        W16034  31.225   4.465   4.251
51050W        W16035  22.541  26.094   1.359
51051W        W16036  19.755  29.595   3.602
51052W        W16037  18.280  26.735   1.640
51053W        W16038  32.861  27.601  14.556
51054W        W16039   5.919  18.714  12.659
51055W        W16040  15.049  18.565  10.716
51056W        W16041  39.760  30.374   1.954
51057W        W16042  11.189  16.529  12.745
51058W        W16043   1.456  12.990  10.392
51059W        W16044  36.062  43.007  14.759
51060W        W16045  21.780  33.583   4.167
51061W        W16046  12.725  38.899  14.791
51062W        W16047   9.244  14.326   2.175
51063W        W16048  29.098  16.490  14.747
51064W        W16049  19.688  22.507   1.387
51065W        W16050  44.071  33.980   0.740
51066W        W16051  17.024  10.717  10.370
51067W        W16052  15.238  23.214  13.539
51068W        W16053  15.094  38.147   4.141
51069W        W16054  25.722  33.462  13.961
51070W        W16055  40.542  16.002  13.088
51071W        W16056   9.413  13.195  12.996
51072W        W16057  15.663  32.050  10.501
51073W        W16058  14.796  36.299  11.285
51074W        W16059  33.456  24.245  11.297
51075W        W16060  30.032   3.928   4.764
51076W        W16061  43.266  32.464   1.592
51077W        W16062  41.906  17.192   1.620
51078W        W16063  13.234  27.917   4.193
51079W        W16064  30.689   9.889  13.891
51080W        W16065  25.370   2.259   2.628
51081W        W16066  44.897  40.431   0.910
51082W        W16067  38.792   8.146  14.279
51083W        W16068  32.673  34.934   2.896
51084W        W16069  40.389  25.224   1.105
51085W        W16070  38.545  33.959   2.105
51086W        W16071  19.879  30.151  13.454
51087W        W16072   8.865   1.161   4.090
51088W        W16073  42.753  34.835   0.722
51089W        W16074  25.700  20.575   1.762
51090W        W16075  39.559  14.647   3.682
51091W        W16076  29.613  30.243   3.163
51092W        W16077  28.361   2.941  10.297
51093W        W16078  22.599  36.405  12.514
51094W        W16079  15.339   9.421  13.065
51095W        W16080  10.709  37.094   4.137
51096W        W16081  17.577  23.034  11.295
51097W        W16082  24.428  10.895   2.979
51098W        W16083  41.848  37.520   4.403
51099W        W16084   2.833   5.989  12.596
51100W        W16085  36.540   9.145   0.379
51101W        W16086  20.540  42.301   1.240
51102W        W16087  16.151  11.639   3.734
51103W        W16088  24.896   0.313  12.460
51104W        W16089  28.658  43.011   2.432
51105W        W16090  10.777  44.835  10.797
51106W        W16091  16.736  35.056   2.796
51107W        W16092   8.437  22.103   0.497
51108W        W16093  30.036  26.200  12.881
51109W        W16094  23.553   4.772   4.101
51110W        W16095  17.514  40.112  14.903
51111W        W16096  42.918  41.841  12.561
51112W        W16097  40.756  43.330   4.165
51113W        W16098  16.511   0.905  13.547
51114W        W16099  31.942  19.708  13.802
51115W        W16100  24.167  36.832  14.843
51116W        W16101  37.412  18.627  12.506
51117W        W16102   0.778  29.185   2.848
51118W        W16103   6.602  23.121  14.920
51119W        W16104  30.603  15.188  12.496
51120W        W16105  28.947  14.507  11.166
51121W        W16106  44.849   7.375  11.994
51122W        W16107  23.187  15.748  11.606
51123W        W16108  26.962  19.233  14.001
51124W        W16109  13.100   7.116   1.284
51125W        W16110  33.207  40.526   3.426
51126W        W16111   5.324  30.517  14.961
51127W        W16112  25.034  26.161   4.954
51128W        W16113  13.121  43.620  10.482
51129W        W16114  19.320   1.790   4.914
51130W        W16115   5.012  33.964  14.496
51131W        W16116  32.187  44.330   2.093
51132W        W16117  25.230  29.507  10.735
51133W        W16118  35.494  14.455   5.158
51134W        W16119  29.300  25.095  11.712
51135W        W16120  43.624  41.870   1.327
51136W        W16121  21.253  31.548  11.634
51137W        W16122  10.302  32.910  12.459
51138W        W16123  13.249   1.010   2.322
51139W        W16124   2.081  35.889  11.219
51140W        W16125  31.157  25.892   1.307
51141W        W16126  30.584   9.150   4.161
51142W        W16127  25.803   5.818  13.101
51143W        W16128  35.187  31.531   1.237
51144W        W16129  41.240  25.567   4.098
51145W        W16130   3.169   9.778   0.744
51146W        W16131   6.428  28.739   2.848
51147W        W16132  17.267  38.260  13.095
51148W        W16133  21.726   5.933  13.055
51149W        W16134  19.172   2.247   4.180
51150W        W16135  18.328  40.346   3.813
51151W        W16136  20.753   8.093  10.601
51152W        W16137  31.163   7.198   3.695
51153W        W16138  25.829  43.505  14.052
51154W        W16139   9.635  15.204   1.268
51155W        W16140  25.748   6.881  10.686
51156W        W16141  12.175   1.531  11.603
51157W        W16142  25.206  17.724   0.945
51158W        W16143  30.952   9.208   1.335
51159W        W16144  26.002  15.394  14.396
51160W        W16145   0.290   1.318  11.445
51161W        W16146  43.737   8.438  12.582
51162W        W16147  27.065  43.781   4.144
51163W        W16148  16.231  32.975   1.146
51164W        W16149   5.340   3.455  12.968
51165W        W16150  27.225  31.057   2.203
51166W        W16151  26.444  16.141  10.412
51167W        W16152   6.389  16.076   2.879
51168W        W16153  30.035  32.464   4.580
51169W        W16154  36.113   9.746   1.330
51170W        W16155  21.210  35.941  12.889
51171W        W16156  19.079   4.956  13.529
51172W        W16157  19.056  25.885  11.572
51173W        W16158  30.184  12.282   3.244
51174W        W16159  30.946  18.065  14.327
51175W        W16160   1.944  19.768   3.894
51176W        W16161  28.680  39.079   4.136
51177W        W16162  16.713  42.003  12.084
51178W        W16163  31.025  17.549  11.226
51179W        W16164  39.307  30.961   1.158
51180W        W16165  39.509  27.573  13.055
51181W        W16166  42.520  25.331   0.914
51182W        W16167  34.746  20.032   3.909
51183W        W16168  33.272  17.318   0.650
51184W        W16169  18.061   0.605   4.105
51185W        W16170  34.538  18.989   3.258
51186W        W16171   2.776  23.274  10.739
51187W        W16172  20.504  24.139  10.249
51188W        W16173  18.965  27.979   5.097
51189W        W16174  10.851  38.596   2.583
51190W        W16175  27.037  34.685  13.788
51191W        W16176  44.038  16.678   4.444
51192W        W16177  19.682   4.888   3.146
51193W        W16178  12.671  41.949   4.335
51194W        W16179   7.056  37.527  14.458
51195W        W16180  33.828  42.500   0.504
51196W        W16181  32.107   1.698  13.434
51197W        W16182  15.203  21.194  11.490
51198W        W16183  29.772  29.008  10.916
51199W        W16184  11.310  13.187   4.670
51200W        W16185   5.836  14.192  13.798
51201W        W16186  30.485  18.680  12.668
51202W        W16187  43.582   1.293   1.854
51203W        W16188  40.357  12.213  11.005
51204W        W16189  17.001  14.124   3.311
51205W        W16190  19.945  38.777   2.960
51206W        W16191  31.079  41.005   3.645
51207W        W16192  40.400  44.437   1.970
51208W        W16193  13.527  16.059  11.075
51209W        W16194  17.262  23.156   0.744
51210W        W16195  12.599  38.897   1.226
51211W        W16196  41.281   2.258  10.435
51212W        W16197  13.759  17.233  13.986
51213W        W16198  23.274   9.449  10.826
51214W        W16199   1.746   9.440  13.338
51215W        W16200  32.944  26.918   0.764
51216W        W16201   0.301  26.617  14.777
51217W        W16202  31.979  27.537  14.578
51218W        W16203  19.026   1.788   3.997
51219W        W16204  10.825  36.478  11.488
51220W        W16205   5.836  36.860   0.796
51221W        W16206   5.848  31.866   1.014
51222W        W16207  39.381   1.329   4.421
51223W        W16208  20.970  29.560  11.023
51224W        W16209   7.335   7.762   3.240
51225W        W16210  36.658  29.060  12.096
51226W        W16211  32.981   8.895  12.124
51227W        W16212  31.694  11.866   4.896
51228W        W16213   8.143  37.561   2.774
51229W        W16214   7.552   7.430  10.951
51230W        W16215   7.397   4.923  14.887
51231W        W16216   1.727   1.600  13.927
51232W        W16217  14.160  31.368  12.512
51233W        W16218  21.293  44.877  12.955
51234W        W16219  41.520  30.715   3.649
51235W        W16220  16.514  13.690   4.153
51236W        W16221   9.755  40.144  11.653
51237W        W16222  43.454  27.627  13.763
51238W        W16223  21.316   2.947  13.391
51239W        W16224   3.152  33.401  13.097
51240W        W16225  28.576  28.451  12.410
51241W        W16226  37.337  24.414  14.086
51242W        W16227  20.475  24.197   5.281
51243W        W16228  26.565   8.910  10.736
51244W        W16229  39.801  40.078  13.855
51245W        W16230  17.546  32.938  10.813
51246W        W16231  20.259   5.132  13.846
51247W        W16232   9.405  19.542  12.021
51248W        W16233   6.203  31.879   1.786
51249W        W16234  12.212  39.341   4.703
51250W        W16235  22.623  17.266  14.948
51251W        W16236  28.131   9.617   2.673
51252W        W16237   5.986  31.197  11.132
51253W        W16238  38.624   2.266   2.899
51254W        W16239  26.006  13.761  14.325
51255W        W16240  36.649   8.085  11.156
51256W        W16241  12.195  22.735   3.664
51257W        W16242  22.969  34.468   0.330
51258W        W16243   7.609   4.277  13.569
51259W        W16244  17.578  14.376   0.283
51260W        W16245  21.467   1.313  11.996
51261W        W16246  16.903  27.949   1.677
51262W        W16247  12.213  43.646   1.019
51263W        W16248  27.702   4.753   0.720
51264W        W16249  33.652   7.679   0.419
51265W        W16250  12.680  17.723   1.270
51266W        W16251  30.171   3.385  12.631
51267W        W16252  37.440  16.724   4.093
51268W        W16253  44.200   4.867   1.918
51269W        W16254  28.000   7.696  12.105
51270W        W16255  13.044  32.733   1.915
51271W        W16256  21.440   8.257  14.962
51272W        W16257  10.293  12.199   2.765
51273W        W16258  13.733  38.543   2.770
51274W        W16259   4.038  20.212   3.661
51275W        W16260  22.151  20.940   4.257
51276W        W16261  28.184  39.333   4.823
51277W        W16262  43.928  17.282   9.894
51278W        W16263  23.267  27.748   4.010
51279W        W16264  26.399  34.952  12.002
51280W        W16265  22.055  15.586   1.155
51281W        W16266  33.263  39.503  12.620
51282W        W16267   5.694  25.220   0.443
51283W        W16268  31.260  30.415   3.809
51284W        W16269   1.804  32.433   3.017
51285W        W16270  11.793  30.512   0.381
51286W        W16271   0.472   1.270   0.307
51287W        W16272  11.698  25.159   1.396
51288W        W16273   7.674  32.823   2.234
51289W        W16274   0.798   4.428  12.030
51290W        W16275  30.171  43.377  10.409
51291W        W16276  36.360  41.273  13.493
51292W        W16277  10.095  30.476   4.082
51293W        W16278  13.228   7.822   1.445
51294W        W16279   5.407  22.562   0.353
51295W        W16280  33.857  41.447   1.382
51296W        W16281  18.839  44.895   1.730
51297W        W16282  28.371  38.804  10.208
51298W        W16283  18.285  13.208  13.124
51299W        W16284  37.524  40.929   3.879
51300W        W16285  28.036  23.936   4.779
51301W        W16286  20.365   6.853   4.512
51302W        W16287  31.578  20.245   4.523
51303W        W16288  25.698  26.896   4.896
51304W        W16289  23.209  33.147   0.912
51305W        W16290  15.315  43.053  10.080
51306W        W16291  20.301  27.706  14.199
51307W        W16292  44.419  42.007  14.916
51308W        W16293  38.612  43.701   3.150
51309W        W16294  40.287   5.247  14.355
51310W        W16295  14.634  15.849   1.076
51311W        W16296  41.997  30.487  12.897
51312W        W16297   4.773  26.634  13.313
51313W        W16298  16.591  25.454   4.669
51314W        W16299  37.651  15.572  10.378
51315W        W16300  40.961  40.580   3.672
51316W        W16301  33.845  31.495   3.300
51317W        W16302   0.764  38.562  11.593
51318W        W16303  37.358  11.947   4.073
51319W        W16304  36.802  21.763  13.992
51320W        W16305   3.342  14.596  13.814
51321W        W16306   4.339  43.773   1.657
51322W        W16307  43.519  31.402  14.518
51323W        W16308  38.346  33.032   2.854
51324W        W16309   2.228  24.186  11.612
51325W        W16310  38.488  17.236   1.539
51326W        W16311  28.033  24.867  14.861
51327W        W16312   5.247  33.240   4.504
51328W        W16313   0.303  19.214   2.199
51329W        W16314  33.355  37.928   2.405
51330W        W16315   0.833   6.453  11.300
51331W        W16316  28.432  18.225   3.581
51332W        W16317   6.867   3.711  13.583
51333W        W16318  23.597  14.473  13.124
51334W        W16319  39.447  18.773  12.799
51335W        W16320   9.904   5.754  12.594
51336W        W16321  13.167  31.876  13.544
51337W        W16322  33.986  12.843   4.467
51338W        W16323  18.934  24.482   2.258
51339W        W16324  22.662  31.771   1.337
51340W        W16325  41.829  43.531   4.900
51341W        W16326  27.170  24.949  14.393
51342W        W16327  34.966  16.079   2.253
51343W        W16328   4.508  10.670   2.339
51344W        W16329   6.699  41.374  10.652
51345W        W16330   0.815   7.325   2.243
51346W        W16331   9.138  40.349  12.987
51347W        W16332  28.689  30.380   2.998
51348W        W16333  32.064  26.612  12.637
51349W        W16334  14.936  34.345  11.078
51350W        W16335   4.825  25.532  14.986
51351W        W16336  30.591  28.027   1.442
51352W        W16337  21.349  35.042  14.906
51353W        W16338  32.847   3.540   0.442
51354W        W16339  20.250   9.662   1.938
51355W        W16340  41.245  43.429   2.338
51356W        W16341  13.383  18.087   3.726
51357W        W16342  42.277  34.035   3.173
51358W        W16343   9.820  30.045  11.119
51359W        W16344  30.419  35.471  13.290
51360W        W16345   1.307  36.414  14.690
51361W        W16346  26.261  10.825   2.753
51362W        W16347  17.885  16.811  14.758
51363W        W16348  11.223   5.769  11.038
51364W        W16349  22.068  43.953   2.230
51365W        W16350  13.749  36.020  11.134
51366W        W16351  13.662  37.438   3.650
51367W        W16352   2.851  30.630  14.097
51368W        W16353  17.947  25.492   1.214
51369W        W16354  19.171   8.395  11.994
51370W        W16355  31.510  17.677  13.970
51371W        W16356  20.039  12.398   2.387
51372W        W16357  30.769  17.543   3.740
51373W        W16358  10.739   9.349  12.662
51374W        W16359   4.191  33.462  14.356
51375W        W16360   4.039  27.933  13.102
51376W        W16361  35.600  29.261  13.212
51377W        W16362  35.479  33.655  13.421
51378W        W16363  16.474  38.655  12.105
51379W        W16364   3.435  20.637   4.306
51380W        W16365  19.710  29.435  12.153
51381W        W16366   6.996  17.562   1.737
51382W        W16367   7.858   0.464  11.636
51383W        W16368  38.888  44.517   2.875
51384W        W16369  21.543  43.786  13.540
51385W        W16370  13.192  42.419   1.082
51386W        W16371  21.532  33.709  10.296
51387W        W16372  16.889   8.792   4.938
51388W        W16373  16.120  36.801  13.175
51389W        W16374  41.050  41.268   4.728
51390W        W16375  18.705  39.620  13.965
51391W        W16376   2.849  10.471   1.855
51392W        W16377  14.420  23.148  14.924
51393W        W16378  29.698  29.666   2.329
51394W        W16379  23.085  40.426  11.368
51395W        W16380  14.250  35.161   2.803
51396W        W16381  40.696   7.359  11.626
51397W        W16382  20.658  32.494   1.715
51398W        W16383   5.441  21.266   0.011
51399W        W16384   5.534  11.657   3.101
51400W        W16385   4.156   8.979  13.499
51401W        W16386  16.570   8.677  13.261
51402W        W16387  31.446  33.913   4.140
51403W        W16388   5.776  20.675   3.853
51404W        W16389   0.875  15.572  14.049
51405W        W16390   7.635  28.565  12.495
51406W        W16391  33.112  27.711   4.156
51407W        W16392  39.173  35.798  13.395
51408W        W16393  19.272  12.254  11.140
51409W        W16394  13.871  19.453  12.531
51410W        W16395  36.153   6.168  14.956
51411W        W16396   5.709  43.986  12.034
51412W        W16397   8.267  14.225  14.051
51413W        W16398   4.015  41.388   0.704
51414W        W16399  19.182  24.244   3.265
51415W        W16400  19.590  22.982  10.756
51416W        W16401   7.466   2.862  12.448
51417W        W16402  20.180  32.516  14.261
51418W        W16403  12.583  44.370  13.616
51419W        W16404  21.707  19.721  13.017
51420W        W16405   1.929  32.557   3.502
51421W        W16406  33.042  20.558   3.661
51422W        W16407  18.050  23.001  11.130
51423W        W16408  43.574  16.427  11.756
51424W        W16409  17.298   5.448   0.508
51425W        W16410  25.940  25.270  11.988
51426W        W16411  33.441   6.199  14.839
51427W        W16412  43.736  43.518   2.797
51428W        W16413   8.192  26.001  12.453
51429W        W16414  29.773   0.008   2.165
51430W        W16415  42.770  20.218   4.524
51431W        W16416  37.356  30.295   0.853
51432W        W16417  11.885  23.783   4.244
51433W        W16418  31.516  23.084   2.294
51434W        W16419  41.494  29.916  12.475
51435W        W16420   8.584  22.196  11.073
51436W        W16421  40.003  30.442   3.763
51437W        W16422  21.691   9.346  14.402
51438W        W16423  13.109  39.679   1.712
51439W        W16424  12.586  20.294   3.789
51440W        W16425  18.694   5.870   1.788
51441W        W16426  10.712  14.170   3.606
51442W        W16427  38.732  34.938   0.084
51443W        W16428  27.105   0.290  14.497
51444W        W16429  18.376   6.899   4.653
51445W        W16430  15.594  43.198  13.544
51446W        W16431   5.503  34.182  12.512
51447W        W16432   5.270  11.630   3.540
51448W        W16433   8.867   5.236  14.081
51449W        W16434  29.229  36.557   3.714
51450W        W16435  40.584  11.862  13.097
51451W        W16436  35.671  29.639   1.261
51452W        W16437   7.740   6.767  13.060
51453W        W16438   0.711  23.383  12.085
51454W        W16439  31.580   3.747   3.719
51455W        W16440  13.237  38.256   1.756
51456W        W16441  12.178  16.770   1.728
51457W        W16442  43.228  12.897  14.542
51458W        W16443  16.077  13.325   0.509
51459W        W16444  42.841   6.204  13.042
51460W        W16445  23.615  13.284  13.510
51461W        W16446   1.981  34.078  13.001
51462W        W16447  30.497   0.328   3.617
51463W        W16448  41.011  21.651  14.365
51464W        W16449  24.339   9.083   4.176
51465W        W16450   9.693  17.177   2.611
51466W        W16451   9.391  31.251   3.642
51467W        W16452  34.560  34.157   1.866
51468W        W16453   9.143  37.420   4.572
51469W        W16454   2.619  15.141  11.813
51470W        W16455   5.668   8.715   1.353
51471W        W16456  25.793   9.903   2.783
51472W        W16457   8.374  41.145   3.192
51473W        W16458  16.013  34.332  13.984
51474W        W16459   8.876  27.020  13.920
51475W        W16460  38.087  30.856   2.194
51476W        W16461  33.050   5.240   3.878
51477W        W16462  10.108  30.047  12.991
51478W        W16463  35.308  18.026   1.223
51479W        W16464  14.299  12.736   3.082
51480W        W16465   0.841  36.456  11.584
51481W        W16466  30.701  17.674  10.708
51482W        W16467   8.966  33.318   0.810
51483W        W16468  29.996  15.580   2.434
51484W        W16469  30.590  20.755  11.261
51485W        W16470  28.966   4.760  12.203
51486W        W16471  26.862  16.213  13.552
51487W        W16472  39.685  18.858  11.126
51488W        W16473  25.343  31.123   1.384
51489W        W16474  23.585  38.805   1.855
51490W        W16475  24.703   0.205  11.092
51491W        W16476  10.640  22.108  12.386
51492W        W16477  25.504  21.058  13.442
51493W        W16478  22.935  31.146  12.314
51494W        W16479  30.866   9.692   0.197
51495W        W16480   4.890   6.996  13.946
51496W        W16481   0.798  24.445  10.276
51497W        W16482  31.571  16.667   4.119
51498W        W16483  11.551   5.986  12.001
51499W        W16484  29.457  28.545   0.999
51500W        W16485  14.516  42.398  11.532
51501W        W16486  44.292  37.080   0.992
51502W        W16487  44.213  34.552  11.593
51503W        W16488  41.554  32.280  13.366
51504W        W16489  21.467   8.851  14.468
51505W        W16490  32.032   9.888  11.095
51506W        W16491  28.097   5.829  13.476
51507W        W16492  41.514  39.262  14.384
51508W        W16493  12.041  11.684   2.783
51509W        W16494  20.440  26.976  14.011
51510W        W16495  25.583  18.417  11.320
51511W        W16496  18.691  23.644  14.453
51512W        W16497  38.270  15.663   3.705
51513W        W16498  24.872  36.057   0.945
51514W        W16499  27.932  22.478   4.140
51515W        W16500  37.868   7.687   3.180
51516W        W16501  14.973  34.559   4.633
51517W        W16502  15.920  35.467  14.164
51518W        W16503  27.142  34.818   3.392
51519W        W16504   9.721   8.569   0.674
51520W        W16505  41.962  20.997   2.712
51521W        W16506  40.533  32.088   4.092
51522W        W16507  26.656  24.518  11.140
51523W        W16508  28.819   9.949   3.232
51524W        W16509  30.420  17.858   1.534
51525W        W16510   3.359   9.576  12.991
51526W        W16511   9.852  15.751  14.340
51527W        W16512  21.465  40.993   4.998
51528W        W16513  37.500  11.704   3.648
51529W        W16514   1.597  28.098  14.071
51530W        W16515  31.950  17.319  11.679
51531W        W16516  28.355  42.905  14.817
51532W        W16517  27.482  26.266   0.972
51533W        W16518  22.058  17.678  11.182
51534W        W16519  37.342   4.447  13.250
51535W        W16520  10.699   8.956   0.831
51536W        W16521  10.860  18.063   4.802
51537W        W16522  32.457  16.091   0.794
51538W        W16523  19.644   6.850   4.054
51539W        W16524   1.498  37.824   2.684
51540W        W16525  10.409  40.567   3.663
51541W        W16526  10.278  12.486   4.702
51542W        W16527   3.455  40.089   2.574
51543W        W16528  18.392  22.948  11.508
51544W        W16529  38.711  27.619   1.630
51545W        W16530   2.939  36.800   0.513
51546W        W16531  31.185  10.378  11.991
51547W        W16532  18.319  13.385   0.019
51548W        W16533  31.434  44.808   4.122
51549W        W16534  40.320   4.349   1.402
51550W        W16535  28.442  13.207   0.416
51551W        W16536  17.209  24.469  11.233
51552W        W16537   8.693  37.185   3.854
51553W        W16538  15.828  26.596  10.739
51554W        W16539  15.292  21.963  12.570
51555W        W16540  18.085  36.300   0.785
51556W        W16541  37.918  20.185  10.723
51557W        W16542  37.504  34.978  12.179
51558W        W16543  31.036  10.043   5.133
51559W        W16544  16.003  20.564   2.611
51560W        W16545  22.030  32.700  11.962
51561W        W16546  18.970  44.456  10.716
51562W        W16547   8.437  30.048  12.053
51563W        W16548  29.372  27.400   0.355
51564W        W16549  37.390  30.817   0.765
51565W        W16550  42.038  40.496   4.498
51566W        W16551   5.703  22.744  11.976
51567W        W16552  10.112  22.305   2.278
51568W        W16553   4.956   7.906  14.961
51569W        W16554   5.421  44.287   2.263
51570W        W16555   3.048  39.560   4.630
51571W        W16556  10.542  14.299  14.623
51572W        W16557  43.329  36.662  12.882
51573W        W16558  28.489  18.646   3.880
51574W        W16559  22.752  24.195   1.488
51575W        W16560  10.687  20.289   0.890
51576W        W16561  37.642  30.602   0.346
51577W        W16562  20.799  29.206  11.440
51578W        W16563  40.859  32.876  12.988
51579W        W16564  30.944  15.553  13.998
51580W        W16565  41.481  33.557  11.470
51581W        W16566  37.339   9.170   1.239
51582W        W16567  27.535  28.074  14.665
51583W        W16568  11.787  35.629  13.043
51584W        W16569  33.468  14.554   4.676
51585W        W16570  34.040  43.945  13.128
51586W        W16571  30.488  21.732   1.212
51587W        W16572   7.161  26.025   4.142
51588W        W16573  20.951  11.534  13.420
51589W        W16574  17.230  10.350   1.181
51590W        W16575  25.291  21.238  12.833
51591W        W16576   9.217  22.620  12.942
51592W        W16577  32.515  34.153  10.698
51593W        W16578  34.005  23.664   0.925
51594W        W16579  28.005  12.214  11.915
51595W        W16580  30.073  27.270   4.264
51596W        W16581  13.140  33.937   1.223
51597W        W16582  37.386  31.049   5.085
51598W        W16583   2.040  23.723   3.732
51599W        W16584  34.995   1.899  12.891
51600W        W16585  37.372  32.041  12.638
51601W        W16586  30.667   2.204  13.934
51602W        W16587  14.292  22.498   3.071
51603W        W16588  21.052  44.954  11.093
51604W        W16589   4.524  20.207   3.494
51605W        W16590  25.502  19.013  12.043
51606W        W16591  12.170   3.107  12.507
51607W        W16592  12.174  13.833  13.050
51608W        W16593  16.866  25.847   3.491
51609W        W16594  17.409   3.574   4.604
51610W        W16595  25.761  38.162  12.190
51611W        W16596  35.908  34.454   2.424
51612W        W16597  28.075  42.822   3.782
51613W        W16598   0.794  29.534   4.632
51614W        W16599  13.364   7.395   0.262
51615W        W16600  17.595  12.312   0.750
51616W        W16601   2.748   3.298   3.195
51617W        W16602  28.078   4.368   3.631
51618W        W16603   4.389  43.179  12.251
51619W        W16604   5.887  12.076   2.450
51620W        W16605   7.794  16.812  14.458
51621W        W16606   2.221  31.468   1.626
51622W        W16607   4.731  36.346  14.362
51623W        W16608  37.903  36.436   3.251
51624W        W16609  16.666  13.703  10.702
51625W        W16610  36.155  22.067   1.301
51626W        W16611  43.090  43.047  13.285
51627W        W16612  22.159   0.939  12.490
51628W        W16613   2.028   9.301  11.583
51629W        W16614   7.175  41.520  13.274
51630W        W16615  39.440   4.378  12.095
51631W        W16616   7.938  39.277  11.941
51632W        W16617  14.835   8.659  14.356
51633W        W16618  42.802  44.449  10.685
51634W        W16619  23.021  18.018  13.876
51635W        W16620  10.257  14.199   3.181
51636W        W16621   6.145   8.378   1.769
51637W        W16622  10.007  24.476  12.889
51638W        W16623  36.932   3.726   0.496
51639W        W16624  28.753  17.179   4.278
51640W        W16625  31.405  13.165   0.817
51641W        W16626  29.960  24.969   0.994
51642W        W16627  39.790   3.986   4.524
51643W        W16628  33.136  12.174  14.025
51644W        W16629   2.255  44.733  11.570
51645W        W16630  38.831  11.347   3.743
51646W        W16631  41.594   7.280   1.219
51647W        W16632  12.787  34.901  13.755
51648W        W16633   3.267  35.498   0.494
51649W        W16634  30.416  14.809  13.883
51650W        W16635   7.971  30.127   3.247
51651W        W16636  27.255  18.670  11.988
51652W        W16637   7.663  27.156   1.869
51653W        W16638  41.326  41.008   0.462
51654W        W16639   9.748  43.954  14.909
51655W        W16640  37.031  29.315   0.848
51656W        W16641   9.256  31.358   2.683
51657W        W16642  43.835  16.035  14.536
51658W        W16643   2.190  33.946   0.912
51659W        W16644  26.976  27.366   2.269
51660W        W16645  18.320  33.437  12.990
51661W        W16646   9.331  34.776  10.543
51662W        W16647  29.205  26.572  11.636
51663W        W16648  27.417  20.774  13.446
51664W        W16649  27.783  31.763  10.473
51665W        W16650  11.316  41.816  11.272
51666W        W16651  25.034  18.704   2.321
51667W        W16652  34.190  24.266   1.696
51668W        W16653  40.579  33.450  14.385
51669W        W16654  36.332  14.756  14.929
51670W        W16655   5.374  34.522  10.571
51671W        W16656  13.810  15.030  10.909
51672W        W16657   0.311   6.149   3.802
51673W        W16658  43.502  21.871   1.189
51674W        W16659  26.103  32.917   4.062
51675W        W16660  11.684   0.900   1.706
51676W        W16661  17.039  16.234  14.987
51677W        W16662  14.512  40.396  12.391
51678W        W16663  19.564  27.174  11.553
51679W        W16664  19.760  38.288   2.212
51680W        W16665  43.390  23.617   4.347
51681W        W16666   3.885  12.998  10.874
51682W        W16667   7.364  37.564   3.167
51683W        W16668  36.120  32.857  13.458
51684W        W16669   5.439  28.868   3.786
51685W        W16670  10.632  38.208  13.829
51686W        W16671   9.691  22.736  12.771
51687W        W16672  25.038  31.419  14.466
51688W        W16673  23.148  16.436   2.117
51689W        W16674  34.630  43.860  11.321
51690W        W16675  30.587  16.208   4.424
51691W        W16676  41.485  37.620   1.366
51692W        W16677  44.275  39.619  11.823
51693W        W16678   9.259   4.345  11.689
51694W        W16679  10.754   9.425   2.785
51695W        W16680  23.063  33.918  11.949
51696W        W16681  28.967  24.777  11.956
51697W        W16682  32.074   3.965   3.142
51698W        W16683  38.627  20.313   4.757
51699W        W16684  10.415   9.369  11.131
51700W        W16685   3.838  10.622   0.434
51701W        W16686  26.461  36.415   5.039
51702W        W16687  37.189  25.761   3.093
51703W        W16688   0.979  30.287   1.312
51704W        W16689  29.028  20.060   2.958
51705W        W16690  31.445  14.370  10.809
51706W        W16691  17.035  34.414  13.839
51707W        W16692   7.187  20.264   1.761
51708W        W16693  38.609  18.244   4.427
51709W        W16694  41.884  43.446   0.826
51710W        W16695   6.646  42.303  13.872
51711W        W16696  20.439  35.043   1.816
51712W        W16697  16.347  42.756   1.717
51713W        W16698   0.779   3.300   1.236
51714W        W16699  34.271  21.180  10.732
51715W        W16700  37.062  19.995  14.222
51716W        W16701   0.336  21.154   4.709
51717W        W16702  24.735  26.453   3.230
51718W        W16703   9.828  35.021   2.752
51719W        W16704  32.779   5.905  11.355
51720W        W16705   5.769   0.768   1.885
51721W        W16706   5.338  31.118   0.194
51722W        W16707   7.648   5.032  14.451
51723W        W16708  42.459  28.578   0.852
51724W        W16709  37.527  41.956   3.822
51725W        W16710  32.190   5.819   2.671
51726W        W16711  14.832  13.668  13.192
51727W        W16712  43.626  20.154  13.511
51728W        W16713  43.193  21.394   0.372
51729W        W16714  32.038  29.461   2.189
51730W        W16715  41.638  25.971   0.094
51731W        W16716  26.076   3.915  14.978
51732W        W16717  37.942  19.049  13.825
51733W        W16718  11.458   9.320  13.128
51734W        W16719  39.393  11.103  10.621
51735W        W16720  37.417  14.163   1.953
51736W        W16721  26.119  22.502   4.228
51737W        W16722  19.680  16.821  14.556
51738W        W16723  13.731  19.660  12.995
51739W        W16724  36.842  43.588  12.978
51740W        W16725  26.711   4.893  10.797
51741W        W16726  22.626  39.372  11.655
51742W        W16727  37.348  15.817  14.861
51743W        W16728   8.350   1.226   3.278
51744W        W16729  30.364   2.707   9.840
51745W        W16730  25.560  16.322   0.875
51746W        W16731  36.868  11.613  13.869
51747W        W16732  28.427   5.828   2.633
51748W        W16733  37.454  27.638   2.633
51749W        W16734  12.578  44.237   4.504
51750W        W16735  22.394  12.805  14.389
51751W        W16736  19.828   5.420  11.031
51752W        W16737   5.637  39.464  10.369
51753W        W16738  27.080  34.426  11.953
51754W        W16739  11.241  32.556  10.673
51755W        W16740  39.291  38.756  10.299
51756W        W16741  20.106  26.534  10.639
51757W        W16742  13.770   1.045   2.339
51758W        W16743   7.657  26.434   4.675
51759W        W16744  20.184  16.715  11.595
51760W        W16745  16.675  22.247   0.291
51761W        W16746  21.726   7.782  12.766
51762W        W16747   3.547  27.613  10.686
51763W        W16748  25.566  38.879   2.897
51764W        W16749  16.715  19.794   1.456
51765W        W16750  31.845   9.827  11.588
51766W        W16751  15.844  23.022  14.422
51767W        W16752  16.759  27.606   3.245
51768W        W16753  37.679   7.595   2.698
51769W        W16754  28.188  33.015   2.710
51770W        W16755  21.102  29.885   4.078
51771W        W16756   5.339  41.713  11.904
51772W        W16757  31.939  42.321  13.264
51773W        W16758  34.897   9.472  11.765
51774W        W16759  40.377  39.042  11.970
51775W        W16760  31.592   0.951   1.770
51776W        W16761   7.634  13.278  11.636
51777W        W16762  14.637  34.845   2.705
51778W        W16763  43.527   6.199  13.597
51779W        W16764  38.322  33.521   2.288
51780W        W16765  14.664  31.994  10.825
51781W        W16766  30.683   2.569   1.041
51782W        W16767  43.370  22.840  14.165
51783W        W16768  44.390  14.403  12.149
51784W        W16769  33.635  10.140   3.703
51785W        W16770   5.133  27.423   0.139
51786W        W16771  41.375   2.822  12.804
51787W        W16772  24.060  29.486  13.817
51788W        W16773  19.596  17.837  10.675
51789W        W16774  16.569  31.358  14.894
51790W        W16775  19.295  41.553  12.523
51791W        W16776  24.154  17.824   2.815
51792W        W16777  37.501   5.332   0.768
51793W        W16778  20.555  37.562  10.729
51794W        W16779   3.127   0.245  13.767
51795W        W16780   7.582   3.975   4.452
51796W        W16781  26.038  17.835  11.914
51797W        W16782  34.985  34.200  10.112
51798W        W16783  42.741  15.576   1.439
51799W        W16784  36.675   0.889   4.542
51800W        W16785  22.950  44.242  13.240
51801W        W16786  35.358   3.155  14.483
51802W        W16787  29.883  29.537  10.636
51803W        W16788   8.711  34.982  13.540
51804W        W16789  11.188  30.590  13.348
51805W        W16790   5.952  28.737   4.512
51806W        W16791  40.206  19.709   3.780
51807W        W16792  26.061  17.085   0.830
51808W        W16793  27.963  36.020  12.051
51809W        W16794  10.775   4.936  12.788
51810W        W16795   8.766  23.045   2.046
51811W        W16796  38.946  10.736  11.389
51812W        W16797  11.370  18.928  14.837
51813W        W16798  42.955  27.821  10.984
51814W        W16799  27.081  36.567   1.292
51815W        W16800  20.931   5.560  12.002
51816W        W16801   4.830  22.560  11.974
51817W        W16802  12.541   6.793  11.380
51818W        W16803  27.372  19.162   4.607
51819W        W16804  37.100  18.274  10.637
51820W        W16805  19.296  29.292  10.355
51821W        W16806  29.413  28.961   1.331
51822W        W16807  14.128  41.048   3.680
51823W        W16808  29.694   5.171   1.796
51824W        W16809  29.497  29.095   4.502
51825W        W16810   2.957  23.217   4.603
51826W        W16811   5.896  24.103   4.436
51827W        W16812  33.844  35.930  11.511
51828W        W16813  13.152  36.359  10.729
51829W        W16814  43.953  22.029   2.762
51830W        W16815   3.863  18.523   3.220
51831W        W16816  42.208  13.250  11.094
51832W        W16817  12.836  42.015   1.005
51833W        W16818  32.959  26.791  12.279
51834W        W16819  29.971  15.058  13.798
51835W        W16820  19.308   8.630  12.429
51836W        W16821  31.578  12.877   1.671
51837W        W16822   1.489  30.592  11.196
51838W        W16823  22.838  10.722   1.182
51839W        W16824  34.398  31.325  13.082
51840W        W16825  31.806  27.998   2.783
51841W        W16826  36.547  25.005   4.959
51842W        W16827  41.358  27.559  10.645
51843W        W16828  15.330  14.123  11.555
51844W        W16829  23.063   4.170   4.685
51845W        W16830  39.414   0.526   3.224
51846W        W16831   7.724   8.703   2.370
51847W        W16832  41.479  38.651  11.215
51848W        W16833   0.348  40.982  12.537
51849W        W16834  20.450  39.077   4.218
51850W        W16835  26.143  23.735   3.075
51851W        W16836  20.797  37.560   2.867
51852W        W16837  36.910  30.563  12.049
51853W        W16838  34.217  35.441  13.372
51854W        W16839  25.099  30.314  13.431
51855W        W16840  44.319  33.824   3.697
51856W        W16841  36.875  14.575  11.229
51857W        W16842  13.170  25.740  12.883
51858W        W16843   4.602   8.009   1.216
51859W        W16844   0.794   0.327  10.565
51860W        W16845  28.753  13.330  11.592
51861W        W16846  26.395  14.104   3.011
51862W        W16847  10.374  32.203  14.799
51863W        W16848  10.620  31.662   3.329
51864W        W16849   4.535  28.831  13.599
51865W        W16850  42.256  33.468  13.508
51866W        W16851  14.183  10.782   2.013
51867W        W16852  34.263  15.243  11.128
51868W        W16853   0.280  39.139   1.094
51869W        W16854   8.436   1.784   4.555
51870W        W16855   3.544  28.655   1.261
51871W        W16856  25.304  11.297  14.431
51872W        W16857  43.748  24.497  13.030
51873W        W16858   7.160  40.948   2.851
51874W        W16859  35.607  33.502  12.418
51875W        W16860  11.792  27.670  14.510
51876W        W16861  23.612  21.341  13.965
51877W        W16862  15.794  30.677  12.552
51878W        W16863   2.014  27.137  11.624
51879W        W16864  11.483  34.334   4.274
51880W        W16865   4.478  36.653   2.743
51881W        W16866  30.056   6.524   4.574
51882W        W16867  31.068  35.250  13.119
51883W        W16868  21.073   5.375   3.673
51884W        W16869  27.227  30.620   1.175
51885W        W16870  35.465  44.661   2.321
51886W        W16871   5.593  34.587   4.574
51887W        W16872  19.802  23.446   1.870
51888W        W16873   1.715  36.147   2.807
51889W        W16874  24.436   2.501  14.011
51890W        W16875  19.607  24.569   5.146
51891W        W16876   7.750   2.382  13.159
51892W        W16877  14.595  14.788  11.673
51893W        W16878  33.635  44.798   0.780
51894W        W16879  24.635   1.325  11.927
51895W        W16880  34.641  29.249   0.369
51896W        W16881   9.153   4.393  14.022
51897W        W16882  27.470   4.480  10.793
51898W        W16883   7.358  15.465  10.699
51899W        W16884  10.628  41.037  12.030
51900W        W16885  25.638  20.032   1.822
51901W        W16886  42.555  19.299   5.472
51902W        W16887  10.653  22.095  13.364
51903W        W16888  15.831  36.434   0.740
51904W        W16889  18.251   1.376   0.316
51905W        W16890  37.490   3.403   4.572
51906W        W16891  41.975  33.411   4.698
51907W        W16892  22.371  41.892   1.502
51908W        W16893  33.078   8.822   1.429
51909W        W16894  32.914  34.080   1.059
51910W        W16895  43.500  13.766   0.257
51911W        W16896  17.167  18.124   0.248
51912W        W16897   1.335   8.177   2.362
51913W        W16898  10.195  25.503   3.489
51914W        W16899   7.136  43.507   2.747
51915W        W16900  32.730   0.799   4.152
51916W        W16901  19.824   1.154   3.846
51917W        W16902  28.023  14.562   4.822
51918W        W16903  10.654   0.350   2.759
51919W        W16904   5.823   7.529   1.764
51920W        W16905  28.414  23.935  11.577
51921W        W16906  32.458   1.941  14.335
51922W        W16907   3.087  39.410  12.981
51923W        W16908  38.915  44.237   4.086
51924W        W16909  41.521  26.409   2.808
51925W        W16910  35.954  24.006  12.758
51926W        W16911   8.304  32.928  13.071
51927W        W16912   4.362  28.890   2.762
51928W        W16913  11.654  36.536   0.901
51929W        W16914   4.364  17.794  10.432
51930W        W16915  20.893   8.365   0.826
51931W        W16916  38.857   7.494   4.609
51932W        W16917   5.861  36.475  12.431
51933W        W16918   1.025  39.920   0.013
51934W        W16919  18.105  24.188  13.822
51935W        W16920  21.986  41.564   0.806
51936W        W16921  31.507  44.679   4.690
51937W        W16922  44.249  34.598   4.932
51938W        W16923  36.299   6.638  11.119
51939W        W16924  43.036  18.788   1.951
51940W        W16925  44.363  27.265  13.968
51941W        W16926  23.110  24.748   4.107
51942W        W16927   7.111  16.552  13.366
51943W        W16928  31.079  26.673   0.942
51944W        W16929  15.622   4.639  11.069
51945W        W16930   8.756   7.493   2.284
51946W        W16931  26.066  44.270   1.874
51947W        W16932  42.417  40.221  14.019
51948W        W16933   3.736  40.944  13.933
51949W        W16934  22.896  28.502   2.083
51950W        W16935  12.630  29.234   4.257
51951W        W16936   2.165  13.414  11.578
51952W        W16937   1.245  35.039  12.576
51953W        W16938  22.208  39.594   1.307
51954W        W16939  30.819  25.125   0.310
51955W        W16940  37.000  22.523  12.108
51956W        W16941  15.537  24.151   1.669
51957W        W16942  40.453  15.572   4.322
51958W        W16943  25.901  14.657  14.468
51959W        W16944   7.695  20.509   1.374
51960W        W16945   2.970   7.800   2.443
51961W        W16946  14.202   5.788   5.533
51962W        W16947   6.888  27.943  14.057
51963W        W16948  19.181  12.602   0.865
51964W        W16949  18.168   2.294   0.212
51965W        W16950   2.978  31.952  13.395
51966W        W16951  35.484  31.495   0.208
51967W        W16952   7.389  15.394   2.323
51968W        W16953  41.011  34.809   1.880
51969W        W16954  36.856   1.891   1.185
51970W        W16955  44.439  27.224  10.662
51971W        W16956  32.005   2.864   0.888
51972W        W16957  14.572   6.417  11.845
51973W        W16958  38.625  27.611   0.360
51974W        W16959   7.352  17.072  11.249
51975W        W16960  20.555   0.273  12.953
51976W        W16961  43.869  14.096  11.188
51977W        W16962   6.343  31.814   3.582
51978W        W16963  17.323   4.844  13.443
51979W        W16964   0.978   7.695   0.837
51980W        W16965  12.333   0.750   0.428
51981W        W16966  38.796  29.861   0.243
51982W        W16967  21.826  14.827   2.655
51983W        W16968  30.028  41.883  10.535
51984W        W16969  14.265  43.007   0.718
51985W        W16970  33.871   1.207   3.243
51986W        W16971  38.533   1.288   1.216
51987W        W16972   1.481   2.223   3.046
51988W        W16973  29.567  14.111  12.739
51989W        W16974  31.539   0.771   2.238
51990W        W16975  26.682  26.533   0.363
51991W        W16976  30.457  30.738   1.419
51992W        W16977  24.090  32.511  13.708
51993W        W16978  22.273  36.869   3.541
51994W        W16979  22.769  21.268  10.731
51995W        W16980  38.513  18.267  12.881
51996W        W16981  19.918  12.910   2.378
51997W        W16982  32.519  20.699  10.756
51998W        W16983  43.810  31.874  14.451
51999W        W16984   2.734  27.562  13.278
52000W        W16985  41.351  13.338  10.768
52001W        W16986  11.855   7.137  13.283
52002W        W16987  31.513  42.294  12.972
52003W        W16988   5.698  11.885  13.916
52004W        W16989  18.174  11.140   1.172
52005W        W16990  31.147  41.193  12.541
52006W        W16991  44.551  19.631   3.199
52007W        W16992  43.251  44.991  12.761
52008W        W16993   7.297  35.758   0.375
52009W        W16994  22.638  35.041   1.877
52010W        W16995  25.608   0.230   4.149
52011W        W16996  14.797  12.140  11.530
52012W        W16997   4.637   0.293   2.425
52013W        W16998  30.790  22.528   1.817
52014W        W16999  33.896  41.393   4.891
52015W        W17000  11.783   6.855  12.451
52016W        W17001  42.973   8.040   3.689
52017W        W17002  23.215  40.132  10.934
52018W        W17003   7.761  32.148  11.475
52019W        W17004   4.145  21.059   3.403
52020W        W17005  27.528  43.848  10.682
52021W        W17006  25.144   5.719   2.723
52022W        W17007  44.733  17.119   2.851
52023W        W17008  23.447   6.239  10.605
52024W        W17009  12.051  18.588   0.942
52025W        W17010   3.174   1.875  13.262
52026W        W17011  20.614   4.400  13.868
52027W        W17012  12.231   6.871  13.494
52028W        W17013  29.640  41.913   3.293
52029W        W17014  19.270   5.732   3.310
52030W        W17015  17.019  12.893   3.623
52031W        W17016  43.088  33.838  12.236
52032W        W17017   0.720  17.176  14.971
52033W        W17018  23.043  15.030   4.927
52034W        W17019  40.364  35.006  13.867
52035W        W17020  30.400  12.233  12.155
52036W        W17021  10.876  24.613  14.877
52037W        W17022  15.996  23.249   3.246
52038W        W17023  42.008  19.810  14.440
52039W        W17024   3.834  31.048  10.647
52040W        W17025  31.097  36.849  12.072
52041W        W17026  35.603   8.455   2.855
52042W        W17027  14.541  28.111  13.914
52043W        W17028  21.253   5.995   9.962
52044W        W17029  12.314  32.898   4.121
52045W        W17030   4.232  44.942  14.726
52046W        W17031  33.568   7.255   3.593
52047W        W17032  31.435  33.498  12.036
52048W        W17033   6.563  40.095  13.380
52049W        W17034  15.023  36.347   4.393
52050W        W17035  44.405  35.083   3.079
52051W        W17036   1.254   3.487   3.584
52052W        W17037   4.250  41.913  12.884
52053W        W17038  33.713  27.385  14.424
52054W        W17039   4.934   9.760   9.949
52055W        W17040  32.098  16.300   4.621
52056W        W17041  11.785  17.749  12.028
52057W        W17042  40.835  25.763  12.100
52058W        W17043   3.195  12.860  14.247
52059W        W17044   1.068  26.559  14.186
52060W        W17045  12.418   9.357  10.998
52061W        W17046  19.679  21.132  13.850
52062W        W17047  40.514   6.321   0.325
52063W        W17048  14.617  21.173  10.685
52064W        W17049  40.779  40.339  11.272
52065W        W17050  35.411  36.998   4.165
52066W        W17051  35.387   8.208  14.003
52067W        W17052  10.788  15.168  12.043
52068W        W17053  37.342  14.261  11.942
52069W        W17054  18.179  26.976   5.397
52070W        W17055   2.257   4.160  10.827
52071W        W17056  28.118  23.147   1.994
52072W        W17057  28.021  43.755   4.519
52073W        W17058  37.977  44.746   2.463
52074W        W17059  40.787   5.335  14.441
52075W        W17060  25.256   8.078  14.504
52076W        W17061  19.171  36.780   3.501
52077W        W17062   0.545  14.859  10.324
52078W        W17063   7.894  35.368   4.146
52079W        W17064   6.851  16.108  13.486
52080W        W17065  12.213   1.321  10.736
52081W        W17066  37.119   1.100   0.805
52082W        W17067   7.398  19.185  11.170
52083W        W17068  20.095   0.803   3.554
52084W        W17069  31.992   8.773  13.363
52085W        W17070  10.643  19.051  10.789
52086W        W17071  12.271   2.816   4.330
52087W        W17072  25.207  33.992   3.991
52088W        W17073  30.384  21.697  14.259
52089W        W17074  11.405   3.811  14.079
52090W        W17075  11.375  19.518  11.315
52091W        W17076  43.589  37.929   4.350
52092W        W17077  31.462  40.559  14.464
52093W        W17078   8.862  44.563   2.349
52094W        W17079  12.615  40.602   1.762
52095W        W17080  34.084  20.227   1.894
52096W        W17081  42.991   4.005   3.111
52097W        W17082   5.056  35.337   1.252
52098W        W17083  21.518  11.072  10.613
52099W        W17084   3.885  23.559  14.741
52100W        W17085  12.342  21.838   0.733
52101W        W17086   3.172  40.475  13.181
52102W        W17087  29.657  29.022  14.768
52103W        W17088  32.068  40.635   0.449
52104W        W17089  16.576  18.731   4.076
52105W        W17090  22.905  16.069   3.058
52106W        W17091  20.006   6.163   3.389
52107W        W17092   0.709  12.671   4.156
52108W        W17093  21.842  25.602   1.517
52109W        W17094   3.820   0.238  13.368
52110W        W17095  16.602  15.991   4.971
52111W        W17096  10.402  33.999  10.491
52112W        W17097  10.325   1.444   0.464
52113W        W17098  23.895   7.994  11.104
52114W        W17099   1.403  29.635  12.709
52115W        W17100   3.713  12.737  12.068
52116W        W17101  41.465  37.742  11.660
52117W        W17102   7.731  12.872   1.253
52118W        W17103  20.069  33.069  14.908
52119W        W17104  44.977  20.853  14.767
52120W        W17105  43.052  33.778  11.669
52121W        W17106  29.530  38.759   2.672
52122W        W17107  29.940  29.488   2.765
52123W        W17108  33.755  12.274  10.424
52124W        W17109  32.918  44.331  14.507
52125W        W17110   5.663  22.532  14.859
52126W        W17111   7.716   9.086  14.877
52127W        W17112  39.768   8.464  10.663
52128W        W17113  13.190  21.545   0.178
52129W        W17114  28.151  10.143  13.016
52130W        W17115  28.515  42.893  11.906
52131W        W17116  16.376  40.489  12.204
52132W        W17117  43.103  28.666   4.054
52133W        W17118  23.421  11.896  12.046
52134W        W17119  41.446   7.318  14.309
52135W        W17120  13.077   0.901   3.639
52136W        W17121  34.633  19.855   1.324
52137W        W17122  10.953   6.917  13.550
52138W        W17123  32.082  18.389  13.393
52139W        W17124   6.365  20.572  12.646
52140W        W17125   4.585  11.453   2.839
52141W        W17126   3.596   9.327  11.426
52142W        W17127  41.718  17.563   4.259
52143W        W17128  21.632  17.359   3.698
52144W        W17129  26.053  39.315  12.877
52145W        W17130   7.688  29.925  13.927
52146W        W17131  28.705  31.805   4.471
52147W        W17132  30.866  40.949  11.259
52148W        W17133  37.982  18.067  14.775
52149W        W17134  19.011  12.208   4.797
52150W        W17135  14.230  17.567  13.412
52151W        W17136  12.271  31.252  14.985
52152W        W17137  24.750  28.981   1.860
52153W        W17138  21.054   3.716   4.657
52154W        W17139  17.847  40.333   1.580
52155W        W17140  31.013  24.657   4.331
52156W        W17141  18.245  39.894  10.783
52157W        W17142  12.111  40.582   2.819
52158W        W17143  39.760  16.749   3.216
52159W        W17144  27.717  10.767   2.821
52160W        W17145  43.361  23.366   2.274
52161W        W17146  36.114  24.680   0.910
52162W        W17147  43.242  29.589  14.841
52163W        W17148  37.118  23.546  12.142
52164W        W17149  26.568  15.803  12.345
52165W        W17150   7.325  31.083   0.007
52166W        W17151  34.194   4.302   0.780
52167W        W17152  44.164   5.657  11.146
52168W        W17153  21.621   6.656  11.658
52169W        W17154  14.811  19.482  12.554
52170W        W17155  24.435   2.399  14.731
52171W        W17156   8.677  23.019   4.655
52172W        W17157  40.600  17.680  14.956
52173W        W17158  23.665  10.718  14.880
52174W        W17159  39.401  39.981   4.643
52175W        W17160  26.651  20.488  13.949
52176W        W17161  11.825  18.672   3.148
52177W        W17162   1.212   0.081  13.041
52178W        W17163   3.700  31.697  11.511
52179W        W17164  19.995  31.220  14.490
52180W        W17165  40.522  35.801  13.416
52181W        W17166   6.591  22.012  12.378
52182W        W17167   4.822  20.828  10.789
52183W        W17168  41.280  30.938  13.582
52184W        W17169  16.296   8.879   3.676
52185W        W17170   8.722  43.209   0.280
52186W        W17171  33.797  20.629  14.411
52187W        W17172  39.988  27.560  11.945
52188W        W17173  22.415  36.845  14.163
52189W        W17174   1.870  36.040   0.312
52190W        W17175  10.262  36.877   0.754
52191W        W17176  18.289  29.852   4.318
52192W        W17177   1.853  26.691  14.805
52193W        W17178   7.628   6.820   0.357
52194W        W17179   2.340  24.195  14.828
52195W        W17180   8.718   6.323  10.191
52196W        W17181  17.616  21.245   0.397
52197W        W17182  31.915  14.242  14.403
52198W        W17183  18.852  41.036   3.701
52199W        W17184  38.020  18.772   2.268
52200W        W17185   3.130   3.819   0.463
52201W        W17186   6.665   9.615  12.918
52202W        W17187  21.520  28.960   1.337
52203W        W17188   9.316   7.431  13.673
52204W        W17189  34.974  36.990  14.745
52205W        W17190   3.838   4.892   0.115
52206W        W17191  12.577  42.803  14.815
52207W        W17192  10.901   2.508  13.512
52208W        W17193  28.126   4.652  14.027
52209W        W17194  35.839   0.889   3.275
52210W        W17195  14.528  20.686  12.459
52211W        W17196  33.936   3.247   4.613
52212W        W17197   7.651   2.015  10.647
52213W        W17198  44.410   1.052  11.968
52214W        W17199  43.298  41.603   2.208
52215W        W17200  26.590  32.196   3.232
52216W        W17201   6.790  11.408   2.304
52217W        W17202  17.223  28.019   0.016
52218W        W17203  43.102  11.621   1.858
52219W        W17204  20.516   7.658  10.300
52220W        W17205   4.262  41.262   1.655
52221W        W17206  16.433  19.215  11.630
52222W        W17207  10.364   8.789   2.268
52223W        W17208   8.169  43.446  13.448
52224W        W17209  34.700  36.335  11.531
52225W        W17210  21.605  42.814  13.493
52226W        W17211  28.056  42.407   0.110
52227W        W17212  33.871   3.334   0.418
52228W        W17213  35.578  42.006  11.257
52229W        W17214  25.932  13.227   0.835
52230W        W17215   2.905  44.925  12.010
52231W        W17216  33.665  24.618  13.958
52232W        W17217  42.440  31.417   2.767
52233W        W17218  20.087  38.356   4.600
52234W        W17219  27.156  11.650  13.327
52235W        W17220  31.473  17.800  12.095
52236W        W17221   5.268  25.199  13.854
52237W        W17222  20.434  12.339   3.249
52238W        W17223  22.522  42.037   0.254
52239W        W17224  41.363  38.924  13.039
52240W        W17225  19.506  11.846   4.047
52241W        W17226   8.245   2.010   1.217
52242W        W17227  23.156  23.095  10.726
52243W        W17228  22.001   7.892   3.271
52244W        W17229  44.970  15.507  10.732
52245W        W17230  31.186  32.443  14.206
52246W        W17231   3.211  15.922  14.087
52247W        W17232  23.556  15.060   4.088
52248W        W17233  25.157  23.875   3.277
52249W        W17234   7.626  37.907  10.611
52250W        W17235  35.935  12.667  12.876
52251W        W17236  14.185  30.642   0.505
52252W        W17237  13.870  37.609  14.438
52253W        W17238   0.319   5.890  11.630
52254W        W17239  10.206  22.156  14.840
52255W        W17240  14.209  22.996   1.365
52256W        W17241  10.251   5.431   2.276
52257W        W17242   4.699  30.714  12.938
52258W        W17243  14.065  29.659  11.461
52259W        W17244   3.219  30.974   3.089
52260W        W17245  40.001  41.497  14.937
52261W        W17246   0.107  27.780   5.477
52262W        W17247  30.409   0.796   2.296
52263W        W17248  15.499   9.261   2.658
52264W        W17249  25.157  14.346   1.708
52265W        W17250  44.781  26.620  13.519
52266W        W17251  44.392  32.172   1.783
52267W        W17252  35.950  30.215  11.582
52268W        W17253   1.308  43.384  14.535
52269W        W17254   0.817   6.709  12.659
52270W        W17255  11.165  35.075   2.646
52271W        W17256  18.540   6.645  12.523
52272W        W17257  10.373  18.235   4.751
52273W        W17258  37.463  37.041  11.525
52274W        W17259  32.048  30.006  10.558
52275W        W17260  19.999   3.384   0.710
52276W        W17261  24.971  31.351  12.599
52277W        W17262   3.220  17.826   0.746
52278W        W17263  31.117  15.341   0.507
52279W        W17264  38.339   9.750  14.139
52280W        W17265  36.877  31.606   2.303
52281W        W17266  35.519   6.457  14.298
52282W        W17267   0.438  26.409  11.425
52283W        W17268  13.741   1.762   1.410
52284W        W17269  36.398  19.538   2.667
52285W        W17270  10.835  30.429  11.022
52286W        W17271  43.490  34.517  12.477
52287W        W17272  27.561  33.159  13.105
52288W        W17273  40.935   3.634  11.902
52289W        W17274  10.069  13.889   3.536
52290W        W17275   6.164  22.397   3.073
52291W        W17276   9.654  23.807   4.648
52292W        W17277  37.987  33.739   4.846
52293W        W17278   8.808  27.440  11.643
52294W        W17279   0.814  18.504   2.783
52295W        W17280  38.163  10.719   9.617
52296W        W17281  18.009   3.581  13.840
52297W        W17282   4.218  38.919  14.880
52298W        W17283  32.185  31.626  13.459
52299W        W17284  36.077  30.931   4.123
52300W        W17285  24.667   7.889   4.753
52301W        W17286  16.550  28.766   1.936
52302W        W17287   7.896  42.572  10.909
52303W        W17288  31.594  32.049  11.215
52304W        W17289  20.718  26.584   4.644
52305W        W17290  38.647  28.338  11.655
52306W        W17291   2.766  40.769   3.244
52307W        W17292   2.329  21.493   3.555
52308W        W17293  28.708   8.681  14.672
52309W        W17294  36.145  27.950   1.905
52310W        W17295  12.130  42.268  12.938
52311W        W17296  34.387  12.024  12.496
52312W        W17297  12.824  30.654  10.324
52313W        W17298  39.153  20.600   1.816
52314W        W17299  43.913  22.233   3.234
52315W        W17300   7.142  28.583  14.399
52316W        W17301  42.490  40.578   3.330
52317W        W17302  35.850  22.775  10.998
52318W        W17303  29.735  28.615  10.276
52319W        W17304  37.047  28.677   1.380
52320W        W17305  18.734  29.897   4.049
52321W        W17306   3.763  30.669  14.359
52322W        W17307   6.301   2.776  14.959
52323W        W17308  34.046  13.267   4.768
52324W        W17309  17.239  30.298   3.703
52325W        W17310  26.169  38.041   0.889
52326W        W17311  31.948  40.378  10.518
52327W        W17312   9.800  13.324   1.840
52328W        W17313  30.667  35.906  14.523
52329W        W17314  11.814   4.862  13.096
52330W        W17315  23.002  16.881   0.350
52331W        W17316  12.536   6.681   2.473
52332W        W17317  31.170  35.072  14.845
52333W        W17318   4.562  21.582   3.095
52334W        W17319  31.658  42.703   1.451
52335W        W17320  19.341  17.651  11.094
52336W        W17321  39.436  29.101   2.607
52337W        W17322   7.701  22.870  13.383
52338W        W17323  19.796   5.202   3.570
52339W        W17324  36.550  24.669   4.565
52340W        W17325  38.004  19.211  11.599
52341W        W17326  17.681  24.494  13.739
52342W        W17327  35.753  30.537  11.966
52343W        W17328  21.177  25.945  14.279
52344W        W17329   0.099  12.310   3.789
52345W        W17330  32.148   3.322   2.905
52346W        W17331  16.395  10.460   1.442
52347W        W17332  43.855  18.140   5.092
52348W        W17333  25.788   5.344  12.909
52349W        W17334  10.036  23.636   0.027
52350W        W17335  39.413  16.995  14.108
52351W        W17336  19.484  41.235   0.766
52352W        W17337  41.048  18.612   0.015
52353W        W17338   2.896   9.656   0.275
52354W        W17339  24.595   7.185  12.742
52355W        W17340  42.309  32.224  12.837
52356W        W17341  25.157  23.105  14.489
52357W        W17342  27.283  36.598   3.478
52358W        W17343   2.671   8.450  13.582
52359W        W17344   6.722  16.260  10.578
52360W        W17345  42.836  31.650  12.314
52361W        W17346  12.125   8.253  14.528
52362W        W17347  32.178  12.380   3.778
52363W        W17348  15.927   5.691   2.800
52364W        W17349  34.696  43.775   3.859
52365W        W17350  43.490  30.764   5.005
52366W        W17351   9.405  33.393  10.822
52367W        W17352   6.204  28.036  10.771
52368W        W17353   9.613  39.187  11.936
52369W        W17354  44.391  38.323  13.977
52370W        W17355  40.938  28.089   0.363
52371W        W17356   5.514   9.229   1.871
52372W        W17357  17.614  40.782   0.280
52373W        W17358  41.878  31.458   3.867
52374W        W17359  36.275  17.787  11.942
52375W        W17360  31.227  18.035  14.770
52376W        W17361   1.558  17.797   2.069
52377W        W17362   3.756  44.243  14.463
52378W        W17363  14.250  10.324  10.270
52379W        W17364   0.300  18.857   4.584
52380W        W17365  19.412  13.223  12.941
52381W        W17366  13.479   8.693   1.930
52382W        W17367   1.746  13.610  12.076
52383W        W17368  42.396  13.994  11.537
52384W        W17369  17.394  10.698   4.251
52385W        W17370  27.478  38.472  14.966
52386W        W17371  13.423  40.292   3.646
52387W        W17372  25.164  21.266  14.747
52388W        W17373  28.273  26.462  12.498
52389W        W17374  19.803   1.789   4.709
52390W        W17375  18.194  32.971  14.333
52391W        W17376  24.490  19.736   2.744
52392W        W17377  38.914  31.901  11.897
52393W        W17378   7.833  21.602   4.545
52394W        W17379  37.324  22.811  12.980
52395W        W17380  17.177  20.412  10.641
52396W        W17381  34.315  25.739   2.761
52397W        W17382  38.881  10.152   3.712
52398W        W17383   1.140   1.588  12.034
52399W        W17384   7.511  34.940  11.510
52400W        W17385   7.582   7.394   5.084
52401W        W17386  24.448  44.854   1.902
52402W        W17387  42.086  25.821   1.180
52403W        W17388  31.805   2.436  12.263
52404W        W17389  33.033  30.692  10.454
52405W        W17390   7.079  20.304  11.805
52406W        W17391  27.600  18.985  12.508
52407W        W17392  24.674  17.608   3.610
52408W        W17393  29.548  16.558   3.375
52409W        W17394  29.926  34.436   3.569
52410W        W17395  35.657  29.380  13.691
52411W        W17396  25.665  11.129  11.624
52412W        W17397  21.839  40.823  14.872
52413W        W17398  18.249  32.618   2.193
52414W        W17399  37.467  24.105  14.688
52415W        W17400  27.703  43.527   0.382
52416W        W17401  18.833  34.939  12.848
52417W        W17402  32.472   8.269   0.460
52418W        W17403  10.267   1.478  12.988
52419W        W17404   9.820  19.638   3.697
52420W        W17405  14.646  39.438  10.540
52421W        W17406  23.033  44.918  11.155
52422W        W17407  20.192  21.533  14.185
52423W        W17408  33.663  31.046  11.043
52424W        W17409   0.635  41.397  12.423
52425W        W17410  12.262  21.178  13.820
52426W        W17411  24.710   5.387   4.179
52427W        W17412  31.683  22.157  11.878
52428W        W17413  29.960   4.759   2.689
52429W        W17414   7.930  19.181  11.710
52430W        W17415  37.198  33.099  12.109
52431W        W17416   7.730   1.926  13.649
52432W        W17417  10.562  28.421   3.832
52433W        W17418  16.521  36.256   1.077
52434W        W17419  23.015  13.418   2.215
52435W        W17420  19.358   6.767  13.109
52436W        W17421   8.226  16.975  12.504
52437W        W17422  33.509  43.918  11.905
52438W        W17423  39.027   7.095  11.676
52439W        W17424  41.436  43.278   1.016
52440W        W17425   0.968   5.701   3.733
52441W        W17426  30.245  31.394  10.335
52442W        W17427  20.221  44.984   4.090
52443W        W17428  23.167  21.929  12.935
52444W        W17429  19.669   6.211   2.704
52445W        W17430  27.023  21.251   4.152
52446W        W17431  17.302  14.169   1.853
52447W        W17432  22.435   2.427   0.830
52448W        W17433  23.009   7.793   2.374
52449W        W17434  15.871   5.321  13.136
52450W        W17435   3.891  26.001  13.835
52451W        W17436  36.641  41.784   1.299
52452W        W17437   1.648  44.989  10.951
52453W        W17438   1.291  30.740   1.358
52454W        W17439  14.978  23.033  13.035
52455W        W17440  41.549  27.986   1.398
52456W        W17441  13.781  41.020  12.404
52457W        W17442   1.204   3.087   1.441
52458W        W17443  32.333  22.959   1.357
52459W        W17444  10.767  41.284   0.702
52460W        W17445  38.454  34.929  10.028
52461W        W17446  35.427   0.773  14.767
52462W        W17447  12.198   0.542  14.963
52463W        W17448  25.015   5.552  10.488
52464W        W17449  28.538  13.660  13.473
52465W        W17450  14.348  15.727   5.024
52466W        W17451  13.197  31.420   4.518
52467W        W17452  10.749  16.632   3.206
52468W        W17453   0.949  27.580   4.587
52469W        W17454  10.655  20.859   2.703
52470W        W17455  26.868   0.695   5.010
52471W        W17456   5.480  34.838  12.336
52472W        W17457  36.063  29.100  13.480
52473W        W17458   9.937  37.933   3.503
52474W        W17459   0.229   5.097  11.127
52475W        W17460   7.914  26.099  14.602
52476W        W17461  26.251  17.304   1.804
52477W        W17462   1.222  10.623  10.707
52478W        W17463   9.677  37.916   2.522
52479W        W17464  24.187  28.439   0.491
52480W        W17465   7.578  19.110  12.087
52481W        W17466   3.098  21.167   5.126
52482W        W17467  15.651  43.799   0.709
52483W        W17468  28.184   8.317  12.995
52484W        W17469  30.961  16.077  13.904
52485W        W17470   0.417  11.369   2.249
52486W        W17471  33.640  11.172   1.825
52487W        W17472  32.618  38.213  12.042
52488W        W17473   3.402  26.745  14.880
52489W        W17474  22.449  15.565   0.281
52490W        W17475  28.521  28.723   1.151
52491W        W17476  28.960  23.159   4.176
52492W        W17477   7.241  16.804  13.815
52493W        W17478  35.809  18.730  14.343
52494W        W17479  22.524   2.743   2.864
52495W        W17480  20.791   5.158   0.824
52496W        W17481  37.050  41.334  13.906
52497W        W17482   8.153  43.752   0.833
52498W        W17483  16.432  40.029   3.800
52499W        W17484   0.275  21.550  11.136
52500W        W17485  35.787   4.148   1.744
52501W        W17486  19.461  10.634  13.378
52502W        W17487  18.383  16.700  13.085
52503W        W17488  29.218  34.206  11.411
52504W        W17489   5.863  42.266   4.315
52505W        W17490  35.493   9.318  13.057
52506W        W17491   7.172  20.659   4.125
52507W        W17492  10.088   6.008  14.286
52508W        W17493  32.141  18.292   1.389
52509W        W17494  13.721   0.338  12.326
52510W        W17495  30.522  26.225   1.841
52511W        W17496   6.983  28.710   3.146
52512W        W17497  17.700  10.358   1.981
52513W        W17498  28.458  39.433   3.082
52514W        W17499  43.811   6.652   3.284
52515W        W17500  44.318   0.403  12.537
52516W        W17501  25.080  24.968   0.420
52517W        W17502   6.213  41.628  14.956
52518W        W17503  28.505   5.702   2.139
52519W        W17504   8.627  40.337  12.934
52520W        W17505  36.628  17.586   4.864
52521W        W17506   6.878  18.706  14.180
52522W        W17507  25.703  32.935  13.947
52523W        W17508  16.678   9.370  11.181
52524W        W17509  36.932  34.444  11.959
52525W        W17510  36.194  30.648   2.905
52526W        W17511  15.799  30.102  13.610
52527W        W17512  44.636  23.652   9.908
52528W        W17513  15.573  43.830   1.230
52529W        W17514  30.021  29.206   1.019
52530W        W17515  35.895  40.977  14.363
52531W        W17516  35.906   1.186   4.465
52532W        W17517  13.137  21.498  13.016
52533W        W17518  37.493  22.697   5.082
52534W        W17519  30.525  43.691   2.397
52535W        W17520  19.504  21.199  10.364
52536W        W17521  18.819  18.169   3.104
52537W        W17522  43.324  29.606  13.854
52538W        W17523  36.530  22.423  11.233
52539W        W17524  42.872  30.670   1.480
52540W        W17525  36.875  11.185  11.645
52541W        W17526   8.607  22.097   3.385
52542W        W17527   1.767  36.600   1.385
52543W        W17528  11.138   9.318  14.009
52544W        W17529  15.376  17.328   4.466
52545W        W17530  42.037  19.514   1.958
52546W        W17531   7.313  30.669   3.635
52547W        W17532  34.947  41.367   3.265
52548W        W17533  34.542  34.468   3.171
52549W        W17534  33.683  12.624  11.474
52550W        W17535  15.245  33.169   3.604
52551W        W17536  39.881  20.737   3.700
52552W        W17537  34.381  34.434  12.105
52553W        W17538  20.507  35.263   1.351
52554W        W17539   5.915  18.578  12.167
52555W        W17540  29.935  34.036   3.899
52556W        W17541  41.304  13.803   1.471
52557W        W17542  43.719  43.853   4.045
52558W        W17543  30.167   0.376  14.046
52559W        W17544   8.758  36.902   4.298
52560W        W17545  19.731  10.433  11.241
52561W        W17546  31.072  25.625   3.915
52562W        W17547  15.950   8.852  10.765
52563W        W17548  25.617  35.829  13.371
52564W        W17549  33.356  11.723  13.885
52565W        W17550  35.414  27.138  14.908
52566W        W17551  40.545   8.899   4.082
52567W        W17552  39.628  38.707   5.307
52568W        W17553  37.882  23.981   4.267
52569W        W17554  21.101  32.477   4.023
52570W        W17555  21.016  33.135   1.384
52571W        W17556  35.889  20.911   2.157
52572W        W17557  13.790  44.966  13.433
52573W        W17558  17.505   1.749   0.779
52574W        W17559  44.693  39.910  12.021
52575W        W17560   9.036  13.173  14.285
52576W        W17561  13.703  26.903   1.316
52577W        W17562  39.969   5.620  12.835
52578W        W17563  34.725  13.897  12.560
52579W        W17564  28.692  38.862  12.921
52580W        W17565  19.152  36.287   4.345
52581W        W17566  20.488  26.272   3.257
52582W        W17567  38.838  37.108  10.797
52583W        W17568   2.365  16.733  12.618
52584W        W17569  19.630   4.086   4.297
52585W        W17570   7.901   8.327   1.355
52586W        W17571  32.561  27.502  12.884
52587W        W17572  33.630  18.109  13.197
52588W        W17573  40.412  38.284  11.536
52589W        W17574   4.684  31.367   4.287
52590W        W17575  34.333  42.701   4.554
52591W        W17576  30.410  18.545  14.842
52592W        W17577  31.596  43.766  12.005
52593W        W17578  17.763  15.599  13.104
52594W        W17579  28.157  38.377  13.539
52595W        W17580   7.873  36.931  11.326
52596W        W17581  38.460  13.087   0.710
52597W        W17582  24.659  20.550  13.937
52598W        W17583  26.247  25.148  12.885
52599W        W17584   7.950  34.524   1.932
52600W        W17585  25.466  22.565  13.304
52601W        W17586   8.715  40.394   1.455
52602W        W17587   7.966   2.963  12.479
52603W        W17588  35.144  39.945  13.878
52604W        W17589  13.819  18.206   2.342
52605W        W17590  15.876   3.678   0.715
52606W        W17591  15.199   0.942  13.263
52607W        W17592  13.404  32.013   0.003
52608W        W17593  28.515  39.366   1.275
52609W        W17594  40.762  21.183   2.295
52610W        W17595  12.076  13.558  11.729
52611W        W17596   5.448   8.830  14.592
52612W        W17597   1.506  13.653  12.566
52613W        W17598  11.321  17.066  12.052
52614W        W17599  16.331  34.613   3.301
52615W        W17600  26.208   2.425   1.258
52616W        W17601  19.024   0.339   0.885
52617W        W17602  30.424   8.833  14.944
52618W        W17603  38.052   1.690  11.587
52619W        W17604  38.342  13.725  11.389
52620W        W17605   1.740  23.013   0.471
52621W        W17606  19.160  33.920   3.084
52622W        W17607   6.132  25.643  13.879
52623W        W17608  42.326   1.869  12.685
52624W        W17609  42.452  32.864  10.825
52625W        W17610  10.835  19.260   0.746
52626W        W17611  10.357  11.145  10.843
52627W        W17612  37.939  36.882   3.987
52628W        W17613  22.123  11.891   2.166
52629W        W17614  41.857  24.621   2.441
52630W        W17615   8.267  24.660   3.430
52631W        W17616  36.063  18.891  10.833
52632W        W17617  33.957  13.584   2.362
52633W        W17618  18.624  26.529  11.271
52634W        W17619  21.498  15.032  11.606
52635W        W17620  18.355  10.114   3.910
52636W        W17621  16.728  11.116  11.399
52637W        W17622  26.624   1.828   2.583
52638W        W17623  15.253  11.128  11.849
52639W        W17624  16.098  35.915  14.430
52640W        W17625  22.991  17.055   1.320
52641W        W17626  26.618  23.824  11.460
52642W        W17627  39.806  23.044  14.399
52643W        W17628  37.512   1.197  13.546
52644W        W17629  34.925   2.876   2.564
52645W        W17630   9.830  20.627   0.460
52646W        W17631  34.247  40.862  12.054
52647W        W17632   9.364  14.522  11.107
52648W        W17633  31.704  15.192  13.321
52649W        W17634  21.487  28.452   0.806
52650W        W17635  34.837  37.910   2.397
52651W        W17636  21.560   7.489   4.549
52652W        W17637  26.555  28.131  14.783
52653W        W17638   2.855   7.133  12.227
52654W        W17639  14.124  33.529   2.659
52655W        W17640  13.716  42.383   0.924
52656W        W17641   8.679   8.777  14.041
52657W        W17642  27.661  33.794  14.238
52658W        W17643  19.357  40.041  14.398
52659W        W17644   4.489  26.379  14.397
52660W        W17645   5.339  30.391   1.424
52661W        W17646  20.052   0.516   1.747
52662W        W17647  36.840  41.318  11.240
52663W        W17648  10.740  13.354  12.326
52664W        W17649  39.458  36.509   2.106
52665W        W17650  35.957  28.344   4.516
52666W        W17651   6.721  18.656   0.495
52667W        W17652   1.643  22.857   2.198
52668W        W17653  24.017  20.525   5.338
52669W        W17654   6.659  29.384   1.843
52670W        W17655  25.710   4.879   2.630
52671W        W17656   4.261   5.667   2.290
52672W        W17657  24.048  13.348   1.487
52673W        W17658   0.807  12.077  12.900
52674W        W17659   4.471  22.759  13.179
52675W        W17660  41.302  12.250  12.526
52676W        W17661  36.300   3.924   4.133
52677W        W17662  22.939  26.488  12.361
52678W        W17663   6.154  31.831   3.109
52679W        W17664  26.069  36.137  14.014
52680W        W17665  24.069   9.409  12.971
52681W        W17666  41.414  38.780   4.652
52682W        W17667  38.086   1.408   0.916
52683W        W17668  20.155  19.945   4.604
52684W        W17669  35.321  32.033   2.769
52685W        W17670   3.515  28.098   4.930
52686W        W17671  12.352   2.841   0.399
52687W        W17672  11.483  41.490   0.122
52688W        W17673  25.615   7.629  12.645
52689W        W17674  13.087  22.925  12.192
52690W        W17675  32.507  13.623   3.460
52691W        W17676  38.017  11.773  12.074
52692W        W17677  19.127  36.203  12.103
52693W        W17678  36.633   4.734   3.144
52694W        W17679  17.232  19.801  11.338
52695W        W17680  31.095   6.293  11.850
52696W        W17681  18.700   2.896  14.190
52697W        W17682  36.079   1.823  13.766
52698W        W17683  19.426  43.756   4.123
52699W        W17684   5.124  36.105  11.045
52700W        W17685  10.920  10.159  11.217
52701W        W17686  34.571  25.393   3.918
52702W        W17687  26.310   6.208   0.419
52703W        W17688  11.424  20.331   1.807
52704W        W17689  37.035  12.397  13.421
52705W        W17690  24.506  11.902  10.767
52706W        W17691  37.594  15.331  14.902
52707W        W17692  36.615  39.334   0.687
52708W        W17693  20.402  34.635   2.705
52709W        W17694  36.335  13.143  12.122
52710W        W17695   9.301  30.918  13.381
52711W        W17696  34.936  19.333  11.031
52712W        W17697  29.694  36.000   3.091
52713W        W17698  15.098  35.371   0.347
52714W        W17699   3.615  13.081  13.912
52715W        W17700  33.987  30.992   1.112
52716W        W17701  22.810  32.746   1.076
52717W        W17702  11.026  15.031   3.744
52718W        W17703  18.217  30.890  13.038
52719W        W17704  20.328   0.225   2.736
52720W        W17705  18.861  15.324   4.838
52721W        W17706  14.183  14.171   2.246
52722W        W17707   5.885  37.593  12.849
52723W        W17708  24.181  35.823   4.713
52724W        W17709  38.872  35.759  14.537
52725W        W17710   9.576  21.502  11.714
52726W        W17711   6.237  22.640   0.769
52727W        W17712   9.304  13.121  14.951
52728W        W17713  34.221  11.352   1.341
52729W        W17714   3.819  39.364  11.906
52730W        W17715  23.252   4.152   0.811
52731W        W17716  11.743   6.388   2.733
52732W        W17717   9.304  11.301   1.483
52733W        W17718  16.529  17.047   0.799
52734W        W17719  41.365  14.356  10.873
52735W        W17720  18.855  14.794   4.680
52736W        W17721   3.850   6.532  10.156
52737W        W17722  15.260  33.430   3.162
52738W        W17723  15.407   2.767   4.099
52739W        W17724  37.082   4.465   4.056
52740W        W17725  14.571  17.954  13.490
52741W        W17726   6.196  17.229  11.172
52742W        W17727  38.883  19.009   2.458
52743W        W17728  25.122   4.847  12.523
52744W        W17729  18.606  23.513   0.450
52745W        W17730  18.540  35.465  13.490
52746W        W17731  18.451   9.005   2.752
52747W        W17732  15.765   2.587   9.904
52748W        W17733  17.284  30.469   2.203
52749W        W17734   8.420  37.816  13.382
52750W        W17735  30.085   7.341  12.391
52751W        W17736  21.259  15.750  11.217
52752W        W17737  18.417  41.717   2.140
52753W        W17738  19.808  16.704  13.235
52754W        W17739  43.266  20.865   0.434
52755W        W17740   9.830   8.910   2.155
52756W        W17741  14.157   6.477   4.796
52757W        W17742  44.999  17.613   0.388
52758W        W17743  36.888  32.613   2.335
52759W        W17744  20.271  44.878  14.893
52760W        W17745  44.492  20.594   3.343
52761W        W17746  32.294  11.759  10.645
52762W        W17747  12.724   4.958  14.208
52763W        W17748  27.585  38.899  11.429
52764W        W17749  13.562   7.807   1.018
52765W        W17750   9.011  35.563   3.027
52766W        W17751   4.925  35.219   3.645
52767W        W17752  30.912   1.433  11.079
52768W        W17753  31.971  28.394   4.268
52769W        W17754  12.154  33.256   3.699
52770W        W17755  32.943  11.045   0.423
52771W        W17756  22.493  18.986   1.606
52772W        W17757  25.637  30.039  12.583
52773W        W17758  25.641  10.563  12.915
52774W        W17759  24.635  22.091  13.102
52775W        W17760   5.001  40.912  13.408
52776W        W17761  37.024  28.598   2.228
52777W        W17762  10.542   2.934  13.626
52778W        W17763  18.054  33.601  13.508
52779W        W17764   1.801   3.632  11.648
52780W        W17765  27.071  41.788  11.170
52781W        W17766  17.033   6.205   3.229
52782W        W17767   1.968   6.501   3.678
52783W        W17768  24.460   0.435   0.114
52784W        W17769  16.324  26.691   4.101
52785W        W17770  15.062  36.344   2.243
52786W        W17771   3.901  31.847   2.785
52787W        W17772  11.073  38.915   1.483
52788W        W17773  41.867   8.840   2.370
52789W        W17774  13.575  38.322   0.783
52790W        W17775  12.579   9.378  12.667
52791W        W17776   7.502  44.806   1.315
52792W        W17777  36.913  44.094  14.909
52793W        W17778  20.607  38.556  12.083
52794W        W17779  30.860  20.085  11.997
52795W        W17780  17.720  14.609   4.638
52796W        W17781   9.695  11.149   1.813
52797W        W17782  16.916  36.550  13.050
52798W        W17783  40.646  28.584   5.043
52799W        W17784  13.131  40.601   1.840
52800W        W17785   9.398   2.620  14.479
52801W        W17786  44.925  40.559  11.148
52802W        W17787  29.975  27.386  13.809
52803W        W17788  42.853  32.538   2.282
52804W        W17789   1.089   7.165  14.382
52805W        W17790  16.555  39.329  10.769
52806W        W17791  33.338   0.310  13.013
52807W        W17792  13.826  36.573   2.526
52808W        W17793  37.551  13.680  13.399
52809W        W17794  44.750   7.715   0.811
52810W        W17795  24.586  26.162   0.702
52811W        W17796  31.387   8.855   2.695
52812W        W17797  33.514  20.804   3.751
52813W        W17798  24.238  37.995  10.750
52814W        W17799  40.263  24.009  14.355
52815W        W17800  17.122   4.928   1.117
52816W        W17801  44.368  25.961  12.459
52817W        W17802  33.596   3.429   4.962
52818W        W17803  39.135   2.284   2.941
52819W        W17804   3.009  16.791   2.329
52820W        W17805  28.157   8.210  12.102
52821W        W17806  17.197  42.502   1.337
52822W        W17807  24.555  29.554  13.911
52823W        W17808   4.218  27.520   2.610
52824W        W17809  34.888  41.838   2.181
52825W        W17810  12.447   6.491   0.729
52826W        W17811  36.397  30.607  13.467
52827W        W17812   1.896  30.872   0.370
52828W        W17813   9.275  26.975   4.118
52829W        W17814  37.971  34.565  13.607
52830W        W17815   3.385  11.280   3.157
52831W        W17816  23.913  31.540   0.387
52832W        W17817  38.748  42.283  14.717
52833W        W17818   4.438  13.049  10.999
52834W        W17819  16.167  19.453   4.463
52835W        W17820   1.002  29.314  11.086
52836W        W17821  41.546  19.498   1.764
52837W        W17822  30.062   8.847  12.103
52838W        W17823  31.980  24.146   0.492
52839W        W17824   0.100  29.879   2.524
52840W        W17825  35.856  23.536  12.994
52841W        W17826  34.931  12.788   4.141
52842W        W17827  13.665  25.560  12.206
52843W        W17828  33.937  22.055  10.503
52844W        W17829   4.162  10.744  13.729
52845W        W17830  31.044  29.149  14.795
52846W        W17831  17.044  23.485   2.696
52847W        W17832   2.766   6.036   1.850
52848W        W17833   2.268   0.905  12.756
52849W        W17834  44.401  14.644  14.704
52850W        W17835   6.810  16.747   4.797
52851W        W17836  43.073  35.109  11.971
52852W        W17837  21.683  42.657   0.377
52853W        W17838  41.093  18.666   0.555
52854W        W17839  44.991  17.336  10.236
52855W        W17840   6.052  42.319  11.813
52856W        W17841  37.332   9.207  14.893
52857W        W17842   2.015  33.014  10.603
52858W        W17843  10.148   6.427   0.913
52859W        W17844  40.943   5.796   1.332
52860W        W17845   8.852   7.997   2.187
52861W        W17846  35.143   2.865  14.094
52862W        W17847  37.582  28.266   1.840
52863W        W17848   9.386  17.810  14.990
52864W        W17849  39.386  10.336  12.056
52865W        W17850  18.007  41.546   3.133
52866W        W17851  23.225   9.124   4.230
52867W        W17852  27.622  24.373   2.849
52868W        W17853  18.658  39.438   0.711
52869W        W17854  16.761  28.798   4.937
52870W        W17855   5.663  35.589  14.107
52871W        W17856   0.280  26.218   2.386
52872W        W17857  38.117  36.885  10.268
52873W        W17858   4.318  28.626  12.648
52874W        W17859  44.589  13.833   4.675
52875W        W17860   6.917  11.845  11.988
52876W        W17861  40.704  28.911   2.683
52877W        W17862  33.586  14.969   1.617
52878W        W17863  40.063  24.096   3.620
52879W        W17864   2.994  13.977   0.783
52880W        W17865  38.574  30.074   3.790
52881W        W17866  36.406  11.972   0.823
52882W        W17867  17.365  25.497   0.618
52883W        W17868  33.792  28.441   2.446
52884W        W17869  36.112  11.776  13.300
52885W        W17870  41.700  10.749   4.059
52886W        W17871  12.643  39.789   1.496
52887W        W17872   5.507   2.796  14.325
52888W        W17873  41.379   6.393  12.089
52889W        W17874  14.285  20.686  13.612
52890W        W17875  43.194  18.760   3.249
52891W        W17876   1.950  19.693  10.667
52892W        W17877  41.535  38.756   3.703
52893W        W17878  15.801  20.801  11.206
52894W        W17879  11.605  24.946   2.384
52895W        W17880  26.829  44.236  11.533
52896W        W17881  30.247   6.372   3.968
52897W        W17882  41.752   2.046  10.141
52898W        W17883  10.346  29.671   4.482
52899W        W17884  11.562  20.246   4.285
52900W        W17885  39.921   2.252  10.562
52901W        W17886  38.309   1.852   1.847
52902W        W17887   3.721  21.709   4.577
52903W        W17888  18.318  18.153   3.153
52904W        W17889  32.576  12.212   3.442
52905W        W17890  41.838  37.494   3.400
52906W        W17891  33.851  20.665   3.322
52907W        W17892   4.628  17.430  14.287
52908W        W17893  13.121  18.766  13.430
52909W        W17894  10.307  18.713   1.363
52910W        W17895   3.288  27.576  12.019
52911W        W17896  35.763   5.877   1.380
52912W        W17897  18.587  15.006  13.458
52913W        W17898  25.958   8.168   3.656
52914W        W17899   7.224  39.147   4.566
52915W        W17900  11.006  16.654   0.687
52916W        W17901  30.455  33.905   0.692
52917W        W17902  16.175  24.676  13.903
52918W        W17903   3.549  23.652   2.527
52919W        W17904  25.728  36.081   0.533
52920W        W17905   5.344  25.087   4.666
52921W        W17906  21.516  17.975   3.674
52922W        W17907  23.175  18.978   4.144
52923W        W17908  15.565   0.003  13.012
52924W        W17909  17.341   1.868   4.233
52925W        W17910   7.499  33.312   2.206
52926W        W17911  25.482  34.124  14.006
52927W        W17912  20.090  36.037   4.720
52928W        W17913  39.573  15.129   2.320
52929W        W17914  14.534   5.435   4.215
52930W        W17915  44.934  12.901  13.468
52931W        W17916  25.989  35.891  11.183
52932W        W17917  37.297  10.808  14.496
52933W        W17918  21.497  34.055   3.430
52934W        W17919  25.543  33.972   2.825
52935W        W17920  27.552  12.551   2.341
52936W        W17921  42.951  23.557  12.066
52937W        W17922   4.775  30.255   2.652
52938W        W17923  30.020  15.404   2.980
52939W        W17924  40.554   2.889  12.158
52940W        W17925   5.494  35.335  12.163
52941W        W17926  30.159   2.318  13.982
52942W        W17927  34.816   4.288   1.660
52943W        W17928  38.494  40.303   4.236
52944W        W17929  21.460   5.713   3.733
52945W        W17930  20.590  38.060  11.560
52946W        W17931  39.856   7.102  13.181
52947W        W17932  22.477   9.176  10.738
52948W        W17933  29.037   5.682   0.839
52949W        W17934  34.460   2.701  11.269
52950W        W17935  34.681   9.322  14.243
52951W        W17936  24.739  10.897  13.486
52952W        W17937  25.012  33.845  12.603
52953W        W17938  43.593  14.621  13.837
52954W        W17939  33.230  22.474  12.440
52955W        W17940  23.299   1.878   1.425
52956W        W17941  23.452  34.435   1.222
52957W        W17942  12.802   9.327  13.599
52958W        W17943  33.645  34.570  13.497
52959W        W17944  28.657  33.419   0.293
52960W        W17945  35.630  11.045   0.716
52961W        W17946  16.669   0.760   1.425
52962W        W17947   0.534  31.662  14.681
52963W        W17948  19.617  42.020   2.839
52964W        W17949   4.435   6.721  13.917
52965W        W17950  27.825  24.941   2.314
52966W        W17951  16.503  19.399   1.204
52967W        W17952  33.124  19.556  14.336
52968W        W17953  26.408  14.800   4.617
52969W        W17954  16.861  28.287   1.273
52970W        W17955   1.192  33.246  11.605
52971W        W17956  42.367  25.640  13.973
52972W        W17957  14.275   7.225   0.606
52973W        W17958  37.622  29.690  12.074
52974W        W17959  12.596   9.315  14.061
52975W        W17960  15.834  39.269   1.224
52976W        W17961  41.924  29.116  11.642
52977W        W17962  38.488  20.952  13.803
52978W        W17963  35.888  28.655   4.117
52979W        W17964  27.270   4.357  11.231
52980W        W17965  28.195  31.098   1.354
52981W        W17966  39.409  15.330   1.827
52982W        W17967   0.408  27.908  12.968
52983W        W17968  13.247  44.328  12.846
52984W        W17969  42.020  23.058  12.936
52985W        W17970  13.493  37.563   1.387
52986W        W17971   3.019  27.189  12.778
52987W        W17972  39.836  33.379  13.786
52988W        W17973  20.233  37.586   2.048
52989W        W17974  39.651   4.223  14.498
52990W        W17975   4.209  29.087   3.724
52991W        W17976   0.720  44.861   4.246
52992W        W17977   6.776   2.634   3.598
52993W        W17978  25.618  11.666  12.381
52994W        W17979  12.160  33.336  13.732
52995W        W17980  30.473  15.305   4.340
52996W        W17981  17.364  29.592   1.241
52997W        W17982  11.540  39.010  13.151
52998W        W17983  38.690  18.752  12.073
52999W        W17984  20.974   8.141  12.253
53000W        W17985  13.771  21.700   4.861
53001W        W17986  30.018  18.844  10.893
53002W        W17987   2.979  23.498  11.617
53003W        W17988  20.625  39.734   3.656
53004W        W17989   3.779   7.883   0.715
53005W        W17990  25.354  10.129   0.739
53006W        W17991   5.436  31.747  14.922
53007W        W17992  38.359  26.592  14.253
53008W        W17993  32.982   5.638   5.442
53009W        W17994   2.314  22.969   3.768
53010W        W17995   6.184  37.563  10.655
53011W        W17996  44.663  11.417   4.891
53012W        W17997  22.572   2.273   3.657
53013W        W17998  19.197  28.585   4.575
53014W        W17999  30.158   4.822  13.784
53015W        W18000  33.923  23.126  11.433
53016W        W18001  18.753   3.035  11.324
53017W        W18002  43.045   8.890  14.971
53018W        W18003  42.043  12.891   1.208
53019W        W18004  42.805  35.038  14.741
53020W        W18005  36.855  13.687   1.690
53021W        W18006  23.859  31.079   3.573
53022W        W18007  10.802  39.304  12.733
53023W        W18008  30.913  36.587  12.900
53024W        W18009  34.534   0.669   4.974
53025W        W18010  10.892  18.749  11.128
53026W        W18011  11.905  14.226  12.856
53027W        W18012  40.418  10.369   3.609
53028W        W18013   2.547   4.171  12.073
53029W        W18014  32.581  41.772  14.808
53030W        W18015  36.928  42.583   1.481
53031W        W18016  43.086  38.068  13.366
53032W        W18017   0.221  41.790  11.573
53033W        W18018  44.806  12.846   2.204
53034W        W18019   7.377  16.531  14.253
53035W        W18020  27.602   3.706   2.039
53036W        W18021  11.236   0.911   1.376
53037W        W18022  43.441  40.111  14.916
53038W        W18023  23.664  15.615  12.723
53039W        W18024  42.114  17.375   0.644
53040W        W18025  32.926  37.630  10.399
53041W        W18026   1.897  43.438   1.729
53042W        W18027  40.387  26.008   1.573
53043W        W18028  23.540  37.904   1.725
53044W        W18029  35.473  21.571   0.915
53045W        W18030  14.677   8.330   2.265
53046W        W18031  35.076  14.218   3.541
53047W        W18032  11.738  37.374  12.421
53048W        W18033  11.814  33.108   2.218
53049W        W18034  16.503   4.312   4.021
53050W        W18035  11.261  17.761   4.994
53051W        W18036  30.229   8.358   2.702
53052W        W18037  36.610  29.579   4.561
53053W        W18038  25.587  14.179   0.952
53054W        W18039   7.628  14.697   2.992
53055W        W18040  38.279  17.832   4.295
53056W        W18041  35.847  31.426   4.147
53057W        W18042  29.464  42.575  11.585
53058W        W18043  31.995   7.724  13.014
53059W        W18044  29.640  17.921  13.991
53060W        W18045   1.356  32.487  11.103
53061W        W18046  35.384  32.759  12.996
53062W        W18047  44.718  22.575  12.582
53063W        W18048  36.442  16.578  12.066
53064W        W18049  32.887  14.579  13.323
53065W        W18050  38.561  17.326   2.048
53066W        W18051  11.898  27.496  13.889
53067W        W18052  26.917  15.801  14.694
53068W        W18053  26.755  25.192   2.228
53069W        W18054  28.074  18.075   3.910
53070W        W18055  42.539   7.809   3.591
53071W        W18056   4.401  35.565  11.558
53072W        W18057  42.296  35.078  14.906
53073W        W18058   6.243  33.006  14.139
53074W        W18059   2.332  35.497   1.779
53075W        W18060  37.334   8.634   4.630
53076W        W18061  36.835  28.107   2.202
53077W        W18062  13.299  12.727   1.171
53078W        W18063   6.668  17.615   1.336
53079W        W18064  44.507   3.881   1.889
53080W        W18065  25.507  12.049   2.663
53081W        W18066  10.136  20.295  12.014
53082W        W18067  35.771  18.199   0.450
53083W        W18068   0.335  17.962  11.725
53084W        W18069  19.827  34.467  13.591
53085W        W18070  10.228  44.563   2.735
53086W        W18071  12.730  36.971  12.617
53087W        W18072  28.009  18.341   1.320
53088W        W18073  22.779  12.714  11.144
53089W        W18074  36.628  14.200   2.189
53090W        W18075  19.364  35.629  13.120
53091W        W18076  36.894   8.511   0.677
53092W        W18077  34.605  43.057  10.454
53093W        W18078   0.839  28.321   4.172
53094W        W18079  42.004   9.470  13.894
53095W        W18080  22.189   1.974   3.928
53096W        W18081  15.160  11.758  12.922
53097W        W18082  15.933   5.197  12.294
53098W        W18083  29.530  29.812  11.105
53099W        W18084  37.760  30.148  11.861
53100W        W18085  42.444  39.632   2.194
53101W        W18086  15.533  26.370   0.474
53102W        W18087  33.562  26.610   4.507
53103W        W18088  32.363  41.836  11.590
53104W        W18089  17.134  41.866  14.839
53105W        W18090  17.269   2.257  13.346
53106W        W18091  42.015   1.861  13.959
53107W        W18092  23.753   7.311   4.070
53108W        W18093   4.975  34.120   0.498
53109W        W18094  14.876  12.831  14.888
53110W        W18095  33.959  20.534   3.796
53111W        W18096  15.484  25.176   0.985
53112W        W18097   7.109   6.665  11.713
53113W        W18098  13.646   9.282   4.933
53114W        W18099  42.578  25.373   3.133
53115W        W18100   6.790   0.169  11.754
53116W        W18101   2.767  35.116  13.434
53117W        W18102   7.354  36.896   3.819
53118W        W18103   9.303  37.986  13.157
53119W        W18104  26.603  32.795  11.583
53120W        W18105  18.074  12.069   0.856
53121W        W18106  19.175  30.565   0.934
53122W        W18107   1.319  11.829   0.854
53123W        W18108  21.311  20.089   0.783
53124W        W18109   7.833  41.935   4.109
53125W        W18110  36.300  44.269  12.871
53126W        W18111  42.182  27.613  12.023
53127W        W18112  28.462  29.145   2.365
53128W        W18113  26.154  15.550  12.482
53129W        W18114  15.150  33.798   4.858
53130W        W18115  13.786  20.858   2.769
53131W        W18116  10.680   1.323   4.982
53132W        W18117  17.115  19.140  10.703
53133W        W18118   2.825  21.770  12.969
53134W        W18119  38.901  32.187  10.507
53135W        W18120  30.899  44.076  12.940
53136W        W18121  13.690  18.449  12.399
53137W        W18122  29.955  35.796   3.764
53138W        W18123   6.601  17.819   2.865
53139W        W18124  10.658  38.369  14.332
53140W        W18125   6.425   2.503   4.441
53141W        W18126   7.179  39.990   4.168
53142W        W18127   3.585  15.330  12.648
53143W        W18128  11.370  19.511   3.535
53144W        W18129  40.001  19.285   2.719
53145W        W18130  19.447  15.227   4.127
53146W        W18131  28.112  33.881   0.575
53147W        W18132  30.196   1.285   2.299
53148W        W18133   4.063  13.717  14.394
53149W        W18134  20.715  10.340  11.442
53150W        W18135  44.052  43.379   2.390
53151W        W18136  22.523  18.555  13.446
53152W        W18137  15.029  32.209  13.853
53153W        W18138  42.272  19.169   0.280
53154W        W18139  42.589  44.471   2.897
53155W        W18140   4.927   7.190   0.344
53156W        W18141  31.152  27.682  12.941
53157W        W18142  26.981  37.947   3.407
53158W        W18143   2.496  11.842   2.807
53159W        W18144   0.799  13.845   1.326
53160W        W18145   1.227  33.096   3.212
53161W        W18146  30.078   5.218  10.935
53162W        W18147   1.734   3.247  11.109
53163W        W18148  28.950  29.342  10.525
53164W        W18149  39.300  16.397  11.537
53165W        W18150  31.123  25.751  14.079
53166W        W18151   5.487  44.234   3.111
53167W        W18152  29.646  31.605   9.739
53168W        W18153  44.573  14.429   2.792
53169W        W18154   8.752  34.902  12.513
53170W        W18155   4.406  22.165  10.432
53171W        W18156   9.078  40.432  11.162
53172W        W18157   6.364  13.165   4.308
53173W        W18158  27.140  37.856   3.943
53174W        W18159   8.901  13.229  12.112
53175W        W18160  37.307   9.212  11.345
53176W        W18161  19.178  10.590  11.168
53177W        W18162   2.749  11.810   3.263
53178W        W18163  28.805  40.815   1.865
53179W        W18164  27.626  39.767  10.895
53180W        W18165   7.592  43.238   4.011
53181W        W18166   6.879  17.420   3.116
53182W        W18167  16.782  34.358  12.461
53183W        W18168  16.596  18.278  10.808
53184W        W18169  22.462  33.324   2.760
53185W        W18170   7.904  21.569   0.706
53186W        W18171   8.877  42.962   2.913
53187W        W18172  17.557  16.299   0.780
53188W        W18173  17.739  38.921  14.393
53189W        W18174  34.283   3.295   4.984
53190W        W18175  24.063  20.005   4.439
53191W        W18176  41.109  27.801   1.946
53192W        W18177   7.835   2.933   0.377
53193W        W18178  34.542  19.639  11.008
53194W        W18179  29.017   8.773   4.495
53195W        W18180  44.852  24.008  14.758
53196W        W18181   1.687  11.350  12.345
53197W        W18182  16.196  32.435   1.252
53198W        W18183  22.081   5.770  13.837
53199W        W18184  16.377  27.423  11.708
53200W        W18185  29.031  40.928   4.179
53201W        W18186  21.501   4.441   4.671
53202W        W18187  42.369  39.425   1.278
53203W        W18188  23.165  37.370  13.314
53204W        W18189   6.673  30.693   0.473
53205W        W18190  24.411  40.282  10.559
53206W        W18191  42.811  24.763   1.340
53207W        W18192  37.874  10.346   3.326
53208W        W18193  20.733  42.845  11.674
53209W        W18194  24.266  30.594   5.546
53210W        W18195  24.317   4.625   4.505
53211W        W18196   0.861  28.469   1.472
53212W        W18197  40.098  43.082  12.378
53213W        W18198  24.031   4.334  12.728
53214W        W18199  20.765  39.389   0.872
53215W        W18200   0.254  20.514  13.950
53216W        W18201  11.192  36.608   1.844
53217W        W18202  14.167  11.590   4.256
53218W        W18203  37.947  33.437   0.326
53219W        W18204  37.024  21.184  12.595
53220W        W18205   2.934   5.896   1.320
53221W        W18206   5.829  24.541   4.711
53222W        W18207   0.072  44.715   3.560
53223W        W18208  36.393  19.809   0.629
53224W        W18209  35.463  27.142  11.682
53225W        W18210  16.957   8.835  10.749
53226W        W18211  17.120   0.023  11.018
53227W        W18212  33.009  23.142  13.870
53228W        W18213   3.887  40.198  11.254
53229W        W18214  19.787   5.541   4.045
53230W        W18215   7.413  36.941   4.344
53231W        W18216   4.074  42.888   5.012
53232W        W18217  30.358   4.375  12.446
53233W        W18218  35.457  44.208   0.087
53234W        W18219  14.386  34.538   4.856
53235W        W18220  25.993  10.421   2.154
53236W        W18221  22.005  25.693  14.881
53237W        W18222  18.930  30.521  13.787
53238W        W18223  14.100  12.890   0.563
53239W        W18224  37.471   9.143   4.608
53240W        W18225   2.433  32.806   0.358
53241W        W18226   3.262  22.987  14.082
53242W        W18227  41.471  27.524   0.966
53243W        W18228  35.038  37.965  13.262
53244W        W18229  27.565  25.973   0.521
53245W        W18230  31.278  11.149   9.932
53246W        W18231   4.951  12.181   0.310
53247W        W18232  42.606  35.305   0.465
53248W        W18233  39.865   6.519   1.254
53249W        W18234  41.207  40.040  11.208
53250W        W18235   9.915  11.773   2.393
53251W        W18236   3.321  36.621  12.682
53252W        W18237  17.742  40.346  10.825
53253W        W18238  27.217  24.939   4.225
53254W        W18239  39.906  37.913  13.979
53255W        W18240  16.106   5.045  12.755
53256W        W18241  42.999  33.423  11.300
53257W        W18242  10.952  40.544  11.459
53258W        W18243   6.732  40.524  11.676
53259W        W18244   5.143   1.630   0.978
53260W        W18245  18.052  41.948   4.029
53261W        W18246  21.359  41.137   0.721
53262W        W18247   7.296   2.767  11.909
53263W        W18248  37.365   3.412  13.477
53264W        W18249  19.152  32.915  12.009
53265W        W18250  28.094  35.251  12.548
53266W        W18251  11.271  34.556  12.994
53267W        W18252  15.378  26.166   9.763
53268W        W18253   2.475   3.795  11.122
53269W        W18254  20.675  34.696  14.185
53270W        W18255   1.798  18.580   0.549
53271W        W18256  27.151   4.299  10.233
53272W        W18257  11.374  39.005   2.339
53273W        W18258  15.813  18.100  14.805
53274W        W18259   8.276  35.804  13.365
53275W        W18260  11.672  40.142   0.095
53276W        W18261  37.751  17.196  14.014
53277W        W18262  20.064  22.802  13.980
53278W        W18263  16.766  36.996  11.443
53279W        W18264  26.117  10.798   0.979
53280W        W18265  10.464  32.544   2.286
53281W        W18266  31.419  32.952   0.863
53282W        W18267  39.431  20.191  11.228
53283W        W18268  11.770  13.090  14.988
53284W        W18269   9.807   5.850   5.013
53285W        W18270  38.929  22.161   3.324
53286W        W18271  26.262  35.989   2.287
53287W        W18272  11.707  40.641   0.229
53288W        W18273   3.421  17.677   1.975
53289W        W18274   3.891  24.991  14.793
53290W        W18275   3.964  15.560  12.895
53291W        W18276  33.864  43.355  11.453
53292W        W18277  35.660  25.617  14.145
53293W        W18278   7.268  26.474   0.664
53294W        W18279   7.639  29.793   2.528
53295W        W18280  36.109   7.246  12.000
53296W        W18281  13.693   7.664   0.544
53297W        W18282  37.253  41.733   4.195
53298W        W18283   1.385   5.669  12.442
53299W        W18284  40.909  43.696  12.451
53300W        W18285  43.672  25.232   9.797
53301W        W18286  29.628  24.108  13.019
53302W        W18287  35.226  31.112   1.750
53303W        W18288  32.586   1.682   2.278
53304W        W18289  19.933  43.518   3.670
53305W        W18290  13.784  39.520  11.438
53306W        W18291  24.048   7.129  10.922
53307W        W18292  15.611  36.031  14.614
53308W        W18293  40.452  14.283   0.043
53309W        W18294   6.778  44.439  13.549
53310W        W18295  14.183  41.581   1.814
53311W        W18296  20.830  21.687  11.967
53312W        W18297  10.834   7.572  14.348
53313W        W18298  17.543  21.088  13.080
53314W        W18299  43.250  44.528  12.555
53315W        W18300   4.993  13.668  13.035
53316W        W18301  27.420  37.035  12.055
53317W        W18302  17.531  22.636   0.682
53318W        W18303  31.857   9.283  14.919
53319W        W18304  40.420  26.642   0.835
53320W        W18305  19.660  12.828   0.928
53321W        W18306  44.341  36.977  14.072
53322W        W18307  33.886  30.518   3.861
53323W        W18308   9.425  41.547   0.380
53324W        W18309  23.568  38.918  12.833
53325W        W18310  18.697  23.844  11.892
53326W        W18311   2.378  39.817  13.374
53327W        W18312  42.341  43.536   2.708
53328W        W18313  32.676  32.364   3.563
53329W        W18314  44.655  43.998   4.172
53330W        W18315  19.373  28.107   3.766
53331W        W18316   5.344   2.000   0.044
53332W        W18317   2.230  10.159  12.920
53333W        W18318  39.939  32.944   1.910
53334W        W18319   8.331  11.985   1.237
53335W        W18320  37.614  27.199  12.942
53336W        W18321  23.073  30.482  13.986
53337W        W18322  41.068  40.332   3.232
53338W        W18323  27.640  14.198   4.870
53339W        W18324   7.280   4.445  10.835
53340W        W18325  33.860  12.333   4.231
53341W        W18326   0.413  33.081   0.441
53342W        W18327   1.090  19.700   1.701
53343W        W18328  42.850   0.004   1.697
53344W        W18329  29.243  20.223   3.399
53345W        W18330   3.378  25.642   3.696
53346W        W18331  35.944  25.643  10.929
53347W        W18332  13.097  31.904  11.557
53348W        W18333   8.287  15.357  10.445
53349W        W18334  35.816  13.918  10.512
53350W        W18335   9.138   7.079   4.626
53351W        W18336  30.749  25.247  11.421
53352W        W18337  33.066  37.945   0.278
53353W        W18338   1.624  18.468   2.413
53354W        W18339   4.763  41.464   4.582
53355W        W18340   4.367  26.696  14.010
53356W        W18341  14.192  20.461   1.768
53357W        W18342  41.053  22.829  10.451
53358W        W18343  34.541   9.379   2.252
53359W        W18344  41.477  19.506   0.768
53360W        W18345  41.194   3.536   2.965
53361W        W18346   8.153  14.943  12.919
53362W        W18347   1.387  21.457   4.112
53363W        W18348  18.481  33.880   2.339
53364W        W18349  12.837  25.530  14.407
53365W        W18350   7.866  14.198   3.728
53366W        W18351   1.703  31.179  13.880
53367W        W18352  31.666   0.285   0.326
53368W        W18353  26.631  25.693   2.281
53369W        W18354  36.198  37.296  14.772
53370W        W18355  38.410  30.687  11.466
53371W        W18356  25.719  30.158  14.808
53372W        W18357   1.413   5.479  10.812
53373W        W18358   1.380   7.749   0.297
53374W        W18359   0.784  18.049  12.134
53375W        W18360  31.239  36.672   4.347
53376W        W18361  30.689  41.919  14.793
53377W        W18362  37.507  16.774   2.734
53378W        W18363  23.674  25.757  11.140
53379W        W18364  10.392  27.535   1.843
53380W        W18365   3.017   4.889   0.825
53381W        W18366  14.625   2.539   0.852
53382W        W18367  23.831  26.468   1.141
53383W        W18368   2.925  23.273  14.744
53384W        W18369  40.780  43.506  12.937
53385W        W18370  32.533  22.157   1.311
53386W        W18371  16.690  30.747  13.568
53387W        W18372   0.370  14.656  12.462
53388W        W18373  36.071  11.843  10.865
53389W        W18374   0.273  36.524  10.940
53390W        W18375  34.907  21.136   0.712
53391W        W18376   2.727   4.643  13.329
53392W        W18377  31.135  15.172  12.427
53393W        W18378   9.986   7.652  12.548
53394W        W18379  28.738  26.647  10.742
53395W        W18380  18.834  11.021   4.116
53396W        W18381  37.059   1.453  14.494
53397W        W18382  43.630  15.644  11.966
53398W        W18383  15.729   2.694   0.314
53399W        W18384   1.120   5.560  11.237
53400W        W18385  19.681  12.052   2.177
53401W        W18386   7.387  10.231  12.076
53402W        W18387  31.113  34.600  14.590
53403W        W18388   3.666  35.566   4.215
53404W        W18389  36.459  14.696   2.894
53405W        W18390  33.428  12.843  11.012
53406W        W18391  44.286   4.415   1.384
53407W        W18392  39.503  18.180   3.284
53408W        W18393   1.737  10.769   2.854
53409W        W18394  27.715   4.367  14.380
53410W        W18395  25.238  30.697   0.577
53411W        W18396   3.987  18.098  13.139
53412W        W18397   5.846  20.177   3.281
53413W        W18398  13.649  13.665   3.842
53414W        W18399   4.495  24.424  12.526
53415W        W18400  19.683  24.651   3.902
53416W        W18401  18.091  14.227   4.740
53417W        W18402  42.092   3.087  12.074
53418W        W18403  28.206  18.798   2.196
53419W        W18404  39.152   9.073   5.032
53420W        W18405  18.596  40.816   1.736
53421W        W18406  10.975  15.679   4.530
53422W        W18407  37.839  34.380   0.443
53423W        W18408  32.451  28.530  10.924
53424W        W18409   4.384   8.838   3.291
53425W        W18410  43.937  16.157   2.227
53426W        W18411  11.901  31.182   2.478
53427W        W18412  33.373   1.702   2.211
53428W        W18413  24.735  42.518  14.455
53429W        W18414  20.255  33.691  11.295
53430W        W18415  30.288   4.875  11.872
53431W        W18416  13.367  44.230  11.950
53432W        W18417   0.269  11.153   4.360
53433W        W18418  17.567   4.484   2.241
53434W        W18419  32.735  16.495   2.682
53435W        W18420   4.903  21.121   4.466
53436W        W18421   9.203  42.752   3.284
53437W        W18422  13.875  31.311   3.257
53438W        W18423  19.686  12.372  11.402
53439W        W18424  14.310   3.017   2.853
53440W        W18425  13.226  42.050   3.164
53441W        W18426  17.602  29.249   3.931
53442W        W18427  17.593  13.707   0.936
53443W        W18428   6.130  12.355  11.220
53444W        W18429  13.744   4.163   4.037
53445W        W18430  12.951  10.844   2.320
53446W        W18431  24.449   0.809  11.985
53447W        W18432   8.169  11.863   4.116
53448W        W18433  44.332  40.026   0.031
53449W        W18434  13.265  19.600   2.954
53450W        W18435   2.238  29.202   4.606
53451W        W18436  23.350  28.072   2.789
53452W        W18437  41.809  20.503   2.629
53453W        W18438   2.073  29.237   1.607
53454W        W18439  29.365  29.762   0.398
53455W        W18440  13.136  25.805   1.988
53456W        W18441  17.157  12.704   0.405
53457W        W18442   5.969  31.963  11.580
53458W        W18443   5.453  20.009   2.299
53459W        W18444  41.398  41.782   2.642
53460W        W18445   1.780  21.824  12.830
53461W        W18446  42.644  14.352  10.190
53462W        W18447  32.122  41.176   0.433
53463W        W18448   2.431  37.407   1.201
53464W        W18449  35.885  21.352  11.578
53465W        W18450  33.332  21.003   5.043
53466W        W18451  25.055  13.340  12.112
53467W        W18452  35.153  19.666   3.230
53468W        W18453  10.927  24.070  11.193
53469W        W18454  31.309  33.531   2.184
53470W        W18455  20.100  13.118  10.591
53471W        W18456  21.441  31.633  12.253
53472W        W18457  30.428   8.843  12.480
53473W        W18458  35.010   5.705   2.095
53474W        W18459   5.775  33.352   4.728
53475W        W18460  35.080   8.233   2.639
53476W        W18461  10.326   4.195  11.190
53477W        W18462  11.236   7.894   1.264
53478W        W18463   0.547  22.166   3.758
53479W        W18464  12.110  27.311   1.416
53480W        W18465   7.300  39.025   3.532
53481W        W18466   3.496  13.916   4.205
53482W        W18467  30.864  41.093  10.776
53483W        W18468  10.737  42.482  13.350
53484W        W18469  21.727  16.902   3.941
53485W        W18470   9.683  38.055   4.295
53486W        W18471  39.907  19.978  11.332
53487W        W18472  20.025  16.522   4.104
53488W        W18473  15.609  27.449   2.521
53489W        W18474  33.028  44.536   1.406
53490W        W18475  30.105  35.209   3.053
53491W        W18476  12.288  40.428  10.965
53492W        W18477   4.858   0.562   0.853
53493W        W18478   1.215  43.914   3.171
53494W        W18479   1.432  35.954   1.252
53495W        W18480  23.906  10.277   1.283
53496W        W18481  21.147  44.781   3.751
53497W        W18482  40.467  40.281  13.277
53498W        W18483   6.691   2.396   4.019
53499W        W18484   2.011  25.205  14.894
53500W        W18485   5.312  43.215  12.165
53501W        W18486  35.322  13.296  12.069
53502W        W18487  29.524  33.283   0.471
53503W        W18488  19.115  43.752  12.917
53504W        W18489  13.073   7.727  12.971
53505W        W18490  20.488  24.484  14.426
53506W        W18491  22.548  20.654   0.382
53507W        W18492  25.414  20.277  12.014
53508W        W18493  40.358  20.257   0.728
53509W        W18494  12.253  20.933   4.296
53510W        W18495  26.222  30.743   2.190
53511W        W18496   4.769  35.076  10.247
53512W        W18497  28.977  28.449  13.877
53513W        W18498  13.675   0.564   4.678
53514W        W18499  30.668  41.400  14.966
53515W        W18500  24.924   0.191  13.918
53516W        W18501  34.673   7.986   0.246
53517W        W18502  40.830  34.448   4.714
53518W        W18503  24.521  10.364  14.608
53519W        W18504  14.196  22.515  13.061
53520W        W18505  10.637  44.116   0.416
53521W        W18506  11.312  18.635   3.241
53522W        W18507  37.096  27.056  12.811
53523W        W18508  19.390   6.323   5.138
53524W        W18509  29.197   6.115  14.199
53525W        W18510  41.800   0.798   3.672
53526W        W18511   9.778  30.876   4.178
53527W        W18512  38.268  10.259  12.480
53528W        W18513  32.639  31.413  14.913
53529W        W18514  30.136   3.431  14.898
53530W        W18515  15.633   3.203   0.311
53531W        W18516   0.511  12.899  11.697
53532W        W18517  30.116  40.891  13.025
53533W        W18518  10.401   4.402   3.117
53534W        W18519  37.826  29.233   0.287
53535W        W18520  37.034  23.213   4.052
53536W        W18521   9.342  27.892  13.152
53537W        W18522  37.907  37.999  10.492
53538W        W18523  34.807   6.910  14.563
53539W        W18524  21.167  35.589  12.530
53540W        W18525  28.041   2.493  10.313
53541W        W18526  31.245  19.097  10.950
53542W        W18527  38.476   6.583  10.348
53543W        W18528  12.125  31.095  11.635
53544W        W18529  25.956  33.463  13.500
53545W        W18530  10.159  36.641  12.117
53546W        W18531   3.728  14.085  12.517
53547W        W18532  10.234  28.834  10.737
53548W        W18533  27.208   0.523   2.658
53549W        W18534  20.741   7.511  11.666
53550W        W18535   7.795   3.164   1.228
53551W        W18536  14.249  24.714  11.228
53552W        W18537   3.380  32.444  12.971
53553W        W18538  36.071  24.656   2.376
53554W        W18539  42.437   4.403  13.002
53555W        W18540  26.578  38.507   4.668
53556W        W18541  41.245  35.409  13.011
53557W        W18542  40.832  31.814  13.692
53558W        W18543   4.214  43.776  13.398
53559W        W18544  42.413   6.947   3.374
53560W        W18545  37.786   5.433  12.897
53561W        W18546  43.026  44.226  12.921
53562W        W18547  14.736   2.057  14.903
53563W        W18548  33.961  29.050   4.324
53564W        W18549  30.704  30.022  14.865
53565W        W18550  12.294   0.030   4.531
53566W        W18551  32.410   2.725   1.180
53567W        W18552  11.688  41.219   0.994
53568W        W18553  42.971   1.829   2.212
53569W        W18554   8.605  36.894  13.616
53570W        W18555   7.811  25.189   5.059
53571W        W18556  40.372  44.935  10.727
53572W        W18557  11.838  22.573  13.490
53573W        W18558   2.480  40.033  12.540
53574W        W18559  43.803  14.760   3.102
53575W        W18560  11.134  25.665   0.440
53576W        W18561  32.958  20.754  12.552
53577W        W18562  34.631  30.593   3.139
53578W        W18563   6.924  37.850   1.471
53579W        W18564  32.538  14.146  10.924
53580W        W18565   0.250  37.228   2.780
53581W        W18566   3.068  40.079  11.231
53582W        W18567   7.721  32.555  10.683
53583W        W18568  26.529  40.525  12.490
53584W        W18569  10.467  30.194   3.161
53585W        W18570  39.389  40.876   1.003
53586W        W18571   6.492  27.721   2.627
53587W        W18572  32.945   9.937  10.709
53588W        W18573   0.330  12.551  11.313
53589W        W18574   4.751  31.897  12.101
53590W        W18575  17.249   2.751   4.680
53591W        W18576  12.357  25.625  14.550
53592W        W18577  26.672  28.865   5.030
53593W        W18578  39.831   2.935  12.612
53594W        W18579  44.175  35.438   0.946
53595W        W18580  15.714  21.833  11.428
53596W        W18581  19.088  26.011   1.271
53597W        W18582  39.970   0.421   2.476
53598W        W18583  35.087  30.447  10.678
53599W        W18584   9.462  33.785  13.559
53600W        W18585  30.617  24.684  14.014
53601W        W18586   4.128  44.448   4.041
53602W        W18587  38.930  24.330   4.373
53603W        W18588   4.969   3.755   2.266
53604W        W18589  10.397  31.966   2.979
53605W        W18590  44.007   1.765  12.527
53606W        W18591   8.959   0.771   4.630
53607W        W18592  43.074   6.808  14.819
53608W        W18593  19.257  41.906  12.044
53609W        W18594  31.061  11.388   0.726
53610W        W18595  38.860  27.318   1.226
53611W        W18596  10.717   9.858   0.525
53612W        W18597  27.403   9.873  11.089
53613W        W18598  16.674   5.877   3.040
53614W        W18599  44.674   3.115   5.016
53615W        W18600  42.502   5.472  12.822
53616W        W18601  31.085  24.446  10.354
53617W        W18602   4.350  34.655   3.269
53618W        W18603   2.784  24.823   4.874
53619W        W18604   3.427  36.026   4.118
53620W        W18605  15.654   2.045  13.043
53621W        W18606  36.045   8.654  14.731
53622W        W18607  44.346  35.862  13.398
53623W        W18608  15.431  43.800  10.724
53624W        W18609  41.000  18.147  12.479
53625W        W18610  32.070  17.786   3.853
53626W        W18611   7.012   1.696  14.804
53627W        W18612  11.737  23.101  11.079
53628W        W18613  16.365  38.598   1.798
53629W        W18614   1.473  27.496  10.718
53630W        W18615  15.681  16.591  12.855
53631W        W18616  12.344   3.311   3.304
53632W        W18617  31.013   7.205  14.471
53633W        W18618  38.267   6.919  12.101
53634W        W18619  24.518   9.346   1.825
53635W        W18620  13.450  24.529  14.799
53636W        W18621  37.022   0.506  13.148
53637W        W18622  38.806  35.370   3.883
53638W        W18623  41.031  18.576  12.102
53639W        W18624  17.388  29.931  14.588
53640W        W18625   4.662   4.042   4.096
53641W        W18626  24.615  38.588  13.993
53642W        W18627  23.252   8.549  13.503
53643W        W18628  31.154  26.221  12.978
53644W        W18629  11.471   3.866  11.943
53645W        W18630  27.401  13.066  11.219
53646W        W18631  38.361  39.440   2.266
53647W        W18632  42.730  32.154  11.220
53648W        W18633  24.548  22.991   3.949
53649W        W18634  32.839  20.807   3.214
53650W        W18635   3.618  26.151  11.998
53651W        W18636   1.620  18.918  11.306
53652W        W18637  10.906  38.882   2.163
53653W        W18638  34.371  14.241   4.682
53654W        W18639  36.864   6.636   0.369
53655W        W18640  15.798  11.136   3.174
53656W        W18641   0.020   1.881   4.392
53657W        W18642  25.389  22.484   3.046
53658W        W18643  35.244  29.627  13.434
53659W        W18644  26.305  43.265  14.959
53660W        W18645  11.289  19.795   3.084
53661W        W18646  18.284   8.518   2.700
53662W        W18647   1.588  15.556   3.239
53663W        W18648  10.912  39.266   4.056
53664W        W18649  42.801  42.355   0.424
53665W        W18650  18.383  25.704  13.175
53666W        W18651  37.468  25.632  14.473
53667W        W18652  43.832  19.439  12.438
53668W        W18653  42.446  39.930   1.414
53669W        W18654  29.646  18.197   0.694
53670W        W18655  22.989  42.530   3.802
53671W        W18656  19.386  28.589  11.628
53672W        W18657   7.652  26.528   2.372
53673W        W18658  34.180  16.148   3.594
53674W        W18659  35.987   6.120   2.839
53675W        W18660  21.674  41.505   2.905
53676W        W18661   6.368  42.879  11.414
53677W        W18662  10.765  14.386  13.633
53678W        W18663  10.804  22.588   1.042
53679W        W18664  14.089  40.510   1.953
53680W        W18665  30.697  27.898   0.787
53681W        W18666  14.701  38.804   4.279
53682W        W18667   9.245  13.327  13.835
53683W        W18668  28.927  15.339  13.366
53684W        W18669  40.124  12.542  14.636
53685W        W18670   2.151   9.858   0.706
53686W        W18671  22.640  21.298   2.287
53687W        W18672  33.129   5.611   2.427
53688W        W18673  33.418  40.235   9.833
53689W        W18674   4.385  20.352  14.584
53690W        W18675  43.672  27.440  10.732
53691W        W18676   5.884  27.048   0.755
53692W        W18677  17.991  42.949   0.946
53693W        W18678  26.981  26.074  11.535
53694W        W18679   6.379  23.155  12.404
53695W        W18680  33.548   7.574  12.014
53696W        W18681  30.407  34.561  12.861
53697W        W18682  44.437   8.579   4.933
53698W        W18683  28.001   9.214  14.255
53699W        W18684  31.080  21.973  11.206
53700W        W18685   7.137  24.949  14.408
53701W        W18686  30.958   1.239   1.815
53702W        W18687  14.234   8.861   4.500
53703W        W18688   4.797  16.074  14.814
53704W        W18689  19.394  20.795   0.030
53705W        W18690  17.316  38.597  14.352
53706W        W18691  16.178  31.909   1.280
53707W        W18692  23.592   1.373   5.084
53708W        W18693  13.543  27.725   9.800
53709W        W18694  21.793  29.006  12.261
53710W        W18695  23.033  27.036  11.157
53711W        W18696   7.390   4.109  10.461
53712W        W18697  10.125   9.250  13.958
53713W        W18698  22.896   8.204   1.743
53714W        W18699  30.141   1.527   3.355
53715W        W18700  24.597  19.103   4.587
53716W        W18701  16.792   8.106  13.044
53717W        W18702  42.361  19.286   1.630
53718W        W18703   9.134   7.505  11.463
53719W        W18704  31.380  14.664   0.792
53720W        W18705  29.436  41.104   0.302
53721W        W18706   2.089  34.525   3.443
53722W        W18707  41.011  41.194  12.024
53723W        W18708   9.582  22.569   9.790
53724W        W18709  42.285   5.778  11.370
53725W        W18710  32.570  19.802  12.014
53726W        W18711  39.549   9.635  10.809
53727W        W18712  14.237  12.176  10.776
53728W        W18713  14.617   9.661   4.190
53729W        W18714  32.522  40.057  11.233
53730W        W18715  44.989  41.114   2.734
53731W        W18716  19.067   9.167   0.859
53732W        W18717  28.333   0.513  14.358
53733W        W18718  15.053  32.003  14.329
53734W        W18719  22.937   2.773   1.935
53735W        W18720   4.928  12.611  13.163
53736W        W18721   6.859  29.612  14.694
53737W        W18722  31.556  27.211  13.877
53738W        W18723  41.473  36.593   5.405
53739W        W18724  12.029   1.641  11.124
53740W        W18725  22.257  12.633  13.622
53741W        W18726  37.119  42.105  14.388
53742W        W18727  12.191  10.609  12.877
53743W        W18728  33.984  34.406   2.289
53744W        W18729  11.766   6.860  11.430
53745W        W18730  13.358  21.127   4.117
53746W        W18731  26.998   5.574   0.301
53747W        W18732  43.338  43.359  11.158
53748W        W18733  18.341   7.714   0.906
53749W        W18734  23.072  24.293  14.413
53750W        W18735  10.317  11.724  12.848
53751W        W18736  10.083  26.684   2.770
53752W        W18737  10.470   4.880   3.328
53753W        W18738  16.280  11.827   4.224
53754W        W18739  12.036  17.844  11.596
53755W        W18740   0.358   7.603  14.603
53756W        W18741  32.657   9.759  11.978
53757W        W18742  31.926   6.425  12.187
53758W        W18743   2.347  23.526   4.547
53759W        W18744   5.753  13.167  11.745
53760W        W18745  25.657   4.033   0.281
53761W        W18746  17.032  41.309  13.041
53762W        W18747  14.840  17.300   3.692
53763W        W18748  41.570  37.972   4.197
53764W        W18749   8.920  41.672  12.967
53765W        W18750  19.212  35.416  14.871
53766W        W18751  14.164  18.384   4.112
53767W        W18752   2.556  40.138  10.983
53768W        W18753  21.755  39.618   0.420
53769W        W18754  17.139  11.607  12.504
53770W        W18755   4.511  15.232   0.967
53771W        W18756   5.901   4.969   2.435
53772W        W18757  29.662  43.907  11.936
53773W        W18758  15.709   1.998  14.575
53774W        W18759  28.457  21.833  14.492
53775W        W18760  22.379  16.826   1.660
53776W        W18761  25.707  10.212  11.514
53777W        W18762  12.541  13.958  11.144
53778W        W18763  22.578  32.008  12.202
53779W        W18764  37.923   2.685  11.715
53780W        W18765  28.362  28.764  12.050
53781W        W18766   2.572  41.308  10.102
53782W        W18767  25.007  32.691  11.973
53783W        W18768  15.077  22.182  11.234
53784W        W18769  15.776  32.077   4.626
53785W        W18770  36.805  20.173   4.553
53786W        W18771  16.473  11.123  14.928
53787W        W18772   2.949  36.098   1.839
53788W        W18773  39.255  44.080  10.677
53789W        W18774  17.330  30.358  14.320
53790W        W18775  43.351  16.540   9.839
53791W        W18776  39.169  24.912   3.697
53792W        W18777  19.318  15.669   0.767
53793W        W18778  37.488   5.911  13.624
53794W        W18779  38.407  19.154  14.007
53795W        W18780   1.970  36.644   2.670
53796W        W18781  21.983  44.940   4.606
53797W        W18782  25.704  42.031   0.963
53798W        W18783  39.802  31.565  14.425
53799W        W18784  15.937  32.184  11.940
53800W        W18785  30.604  40.774   4.815
53801W        W18786   1.833  21.087   5.052
53802W        W18787   2.718   2.679   2.310
53803W        W18788  38.343  19.571   4.224
53804W        W18789  28.700  41.542  10.653
53805W        W18790  34.148  43.430  12.356
53806W        W18791  36.628  27.167   0.949
53807W        W18792  32.381  25.947   0.899
53808W        W18793  26.041  18.664  14.728
53809W        W18794  18.054  34.755  11.774
53810W        W18795  14.176  38.263  12.462
53811W        W18796  32.023   0.881  11.554
53812W        W18797   6.874  23.408   0.958
53813W        W18798  23.421  21.727  13.697
53814W        W18799  13.197  22.172   4.405
53815W        W18800   3.778  22.129  14.308
53816W        W18801  36.955  35.561  12.780
53817W        W18802   7.968   8.415  10.633
53818W        W18803  43.031   4.381   3.906
53819W        W18804  14.536   2.727   3.234
53820W        W18805  24.086  34.942   2.778
53821W        W18806   3.180   1.700   4.934
53822W        W18807   1.392  19.021   3.784
53823W        W18808  14.298  26.201  13.968
53824W        W18809  34.570  15.591   3.182
53825W        W18810   9.304  33.023  11.479
53826W        W18811  17.525  11.190   3.663
53827W        W18812  11.811  18.473   4.752
53828W        W18813  44.495  20.783  12.075
53829W        W18814   0.721  28.061   4.588
53830W        W18815   3.388  42.507  11.622
53831W        W18816  28.098  25.808   2.219
53832W        W18817   1.248  22.024  11.238
53833W        W18818  43.959  42.552   2.644
53834W        W18819  39.670  19.588  11.108
53835W        W18820   6.924  10.753  13.978
53836W        W18821  36.935  42.327   3.214
53837W        W18822  19.216  42.794  12.538
53838W        W18823   2.860  26.740   3.108
53839W        W18824  15.317  12.265  12.838
53840W        W18825   5.784  20.270   0.798
53841W        W18826  43.409  35.534  12.324
53842W        W18827  34.469  11.151  11.126
53843W        W18828  26.552   5.730  14.162
53844W        W18829  19.900  17.737  13.421
53845W        W18830  38.404  39.912  13.048
53846W        W18831  32.940  23.786  12.067
53847W        W18832  33.291  20.102   3.170
53848W        W18833  28.355   2.476   0.414
53849W        W18834  34.391  25.988   1.437
53850W        W18835  39.271  21.972   1.648
53851W        W18836   6.450   7.131  13.430
53852W        W18837  15.275  30.115   3.261
53853W        W18838  13.149  14.776   1.842
53854W        W18839  26.244  40.950  12.974
53855W        W18840  24.405  29.034  11.743
53856W        W18841  14.129   4.369  11.089
53857W        W18842   2.049   1.436  11.127
53858W        W18843   4.325   6.174  14.815
53859W        W18844  18.009  37.768  11.588
53860W        W18845   3.648  39.574   0.670
53861W        W18846  44.070  16.381  11.533
53862W        W18847  21.596  42.871  14.922
53863W        W18848  28.366  39.991   1.895
53864W        W18849  15.103   9.280  14.067
53865W        W18850  38.415  29.659  14.302
53866W        W18851  31.184  29.886   0.390
53867W        W18852  40.481  42.318   0.275
53868W        W18853  38.326  24.226  14.887
53869W        W18854   2.101  35.856   4.533
53870W        W18855  17.341   2.190   3.292
53871W        W18856  43.400   5.026   2.257
53872W        W18857  10.780  20.541   2.294
53873W        W18858  32.964  17.114   1.468
53874W        W18859  33.409  36.931  10.543
53875W        W18860  11.707  34.231   0.784
53876W        W18861  29.725   2.530   0.015
53877W        W18862   4.704  32.377  11.563
53878W        W18863   4.962  32.471   3.908
53879W        W18864  32.567  12.188  14.395
53880W        W18865  19.356  39.444   1.286
53881W        W18866   2.558  15.584  14.948
53882W        W18867  27.328  37.515  12.225
53883W        W18868  37.600  40.847  13.960
53884W        W18869  14.684  42.786   2.405
53885W        W18870  18.104  19.817   0.232
53886W        W18871   3.474  15.248   0.925
53887W        W18872   6.354   1.580  11.575
53888W        W18873  36.541  41.783   4.845
53889W        W18874  18.908   1.226  11.475
53890W        W18875  16.260  14.209  11.673
53891W        W18876  38.630   9.265   2.415
53892W        W18877  17.186  19.908  11.849
53893W        W18878  19.517  11.808  12.632
53894W        W18879  28.892   8.894   2.617
53895W        W18880  44.728  27.313   2.665
53896W        W18881   6.631  40.215  12.076
53897W        W18882   9.949   0.666   1.640
53898W        W18883  40.742  28.221   4.510
53899W        W18884  24.754  18.836  12.529
53900W        W18885  41.776  26.365   0.453
53901W        W18886  18.373   9.690  11.872
53902W        W18887   4.982  40.042  11.602
53903W        W18888  28.092  39.767   2.854
53904W        W18889  43.289  29.215   0.696
53905W        W18890  30.095  15.348  12.471
53906W        W18891  19.723  44.854   0.894
53907W        W18892  13.827   0.356  11.350
53908W        W18893   7.826  12.078  13.517
53909W        W18894  44.346  29.531   1.762
53910W        W18895  37.321  21.832  14.149
53911W        W18896  21.124  24.962  10.403
53912W        W18897   8.137  18.207  12.996
53913W        W18898   3.949  40.517   0.730
53914W        W18899  17.667  25.925  13.896
53915W        W18900   0.749  10.893  13.446
53916W        W18901  40.263  43.483  13.028
53917W        W18902  28.999  35.377  11.554
53918W        W18903  37.294   8.788  13.884
53919W        W18904  36.495  21.466   1.841
53920W        W18905   1.054   8.953  10.673
53921W        W18906   6.637  30.192   3.383
53922W        W18907  15.565  44.203  10.383
53923W        W18908   3.943  16.192   3.824
53924W        W18909  43.519   5.138   4.359
53925W        W18910  35.919   6.211   4.248
53926W        W18911   3.435  15.656   0.451
53927W        W18912  10.802  42.714  10.720
53928W        W18913   7.644  37.755  13.984
53929W        W18914  26.932  21.790  14.817
53930W        W18915  24.561  20.564   3.095
53931W        W18916  11.647  12.056  14.971
53932W        W18917   9.157  30.336   2.646
53933W        W18918  15.538  20.306   0.488
53934W        W18919  43.342  36.532  13.381
53935W        W18920   5.293  15.313  13.045
53936W        W18921  14.876  31.478   2.340
53937W        W18922  33.138  29.240   4.213
53938W        W18923  12.254  23.660   3.611
53939W        W18924  36.549  44.989  12.682
53940W        W18925  32.423   2.714   2.216
53941W        W18926  15.056  23.064  11.586
53942W        W18927  22.541  30.879   4.149
53943W        W18928  36.596  34.384   1.388
53944W        W18929  35.315   1.794  10.523
53945W        W18930  34.922   3.771   0.826
53946W        W18931   2.749  15.831  10.448
53947W        W18932  21.829  39.312  14.947
53948W        W18933  14.552   4.648  14.405
53949W        W18934   6.040  41.509  12.367
53950W        W18935  27.703  10.357   4.155
53951W        W18936  18.072  17.587   3.335
53952W        W18937  37.317   4.444  12.577
53953W        W18938  38.765  27.161   2.964
53954W        W18939   9.560  18.756   0.915
53955W        W18940  15.278  40.554  10.608
53956W        W18941   7.589  40.580  11.999
53957W        W18942  40.932  21.648   0.760
53958W        W18943  24.536  40.808  13.515
53959W        W18944   7.676  41.945  13.979
53960W        W18945  43.823  28.634  11.561
53961W        W18946  14.767  42.929  11.026
53962W        W18947  36.988   7.521  11.352
53963W        W18948  25.939  44.815  14.954
53964W        W18949  31.144  35.306  12.095
53965W        W18950  32.126   3.699  10.245
53966W        W18951   4.318  42.698  13.943
53967W        W18952  42.415  43.841  12.063
53968W        W18953  26.654   3.727   4.522
53969W        W18954  24.674   2.195  11.620
53970W        W18955  38.832   4.088  11.952
53971W        W18956  17.816  19.210  14.005
53972W        W18957  12.338  33.164  11.558
53973W        W18958  36.044  24.259  14.733
53974W        W18959  21.500  16.318   1.637
53975W        W18960   2.600  28.442   2.704
53976W        W18961  38.732  20.115   3.140
53977W        W18962   6.103  30.519  10.061
53978W        W18963   1.258   5.380   2.258
53979W        W18964  26.741  17.613  14.290
53980W        W18965   1.484   4.703  12.500
53981W        W18966  22.599  27.293   9.938
53982W        W18967  31.127   9.359  11.198
53983W        W18968  26.015  29.436  10.126
53984W        W18969   7.287  28.194  12.516
53985W        W18970  30.878  28.653   1.938
53986W        W18971  29.570  18.149   2.537
53987W        W18972  32.920  15.306  11.116
53988W        W18973   8.743   1.267   3.596
53989W        W18974  36.581  29.222  13.590
53990W        W18975  10.922  24.821   0.785
53991W        W18976  31.215  22.646  14.952
53992W        W18977   5.457  15.071   2.403
53993W        W18978  28.907  12.174  12.154
53994W        W18979  17.388  21.848  10.438
53995W        W18980   5.193  19.477   4.033
53996W        W18981  21.977  10.417   4.087
53997W        W18982  38.488  28.607   1.850
53998W        W18983  35.787  38.396  11.626
53999W        W18984  28.949   9.464  13.477
54000W        W18985  20.704   4.818   0.453
54001W        W18986   6.771  32.369   4.040
54002W        W18987   0.779   4.744   0.382
54003W        W18988   6.503  34.821   3.725
54004W        W18989  29.983  10.899  11.439
54005W        W18990  19.180  17.318  12.837
54006W        W18991  20.296  10.853   1.000
54007W        W18992  41.754  23.664   0.782
54008W        W18993  29.493  28.598  10.738
54009W        W18994  14.898  44.757  11.793
54010W        W18995  41.730  29.153   3.186
54011W        W18996  27.926  33.869   3.211
54012W        W18997   3.535  37.482   0.246
54013W        W18998  38.775  41.066   4.763
54014W        W18999  20.722  37.340   3.310
54015W        W19000   2.549  29.560   1.869
54016W        W19001   9.573  39.656  12.133
54017W        W19002  27.397  34.694   4.986
54018W        W19003   0.888  27.731  13.431
54019W        W19004   7.376  43.256  12.905
54020W        W19005  17.398   6.901  13.399
54021W        W19006   8.394  10.208  12.952
54022W        W19007   2.964  42.939  10.654
54023W        W19008  23.145  20.303  10.588
54024W        W19009  14.105  38.481   3.921
54025W        W19010  12.599  42.032  12.938
54026W        W19011  10.762  29.611  14.313
54027W        W19012  44.839  37.543   2.612
54028W        W19013  41.367   8.858   2.198
54029W        W19014  21.558  35.312  13.434
54030W        W19015  10.668  32.115  12.422
54031W        W19016  43.887  26.406  12.856
54032W        W19017  26.386   1.975  12.130
54033W        W19018  34.592  21.226  14.747
54034W        W19019  30.879   6.999   1.811
54035W        W19020   8.726  10.124  13.330
54036W        W19021  11.944   7.975  11.808
54037W        W19022  31.944  17.069  14.981
54038W        W19023  37.513   5.252  13.287
54039W        W19024  29.680  23.236   1.821
54040W        W19025  32.634  34.474   1.224
54041W        W19026  14.666  23.499  13.199
54042W        W19027   2.264  21.235  13.537
54043W        W19028   5.355  21.713   3.752
54044W        W19029  11.007   7.195   0.989
54045W        W19030  23.666  21.389   0.908
54046W        W19031  33.022  11.910   3.663
54047W        W19032  28.028  19.572   2.728
54048W        W19033  21.488  38.555  13.328
54049W        W19034   4.937  31.120  14.404
54050W        W19035  41.377   5.604   3.594
54051W        W19036  29.192  36.934  14.099
54052W        W19037   7.453  36.654  11.581
54053W        W19038   1.644  33.898   4.500
54054W        W19039  29.551  38.549   1.732
54055W        W19040  22.143  41.070   0.785
54056W        W19041  29.906  31.018  10.547
54057W        W19042  15.063  26.681   3.270
54058W        W19043   5.789  12.809  14.172
54059W        W19044  31.924  35.440   2.746
54060W        W19045  37.110  22.496   1.390
54061W        W19046  31.591  30.677   4.102
54062W        W19047  15.283   3.409  14.985
54063W        W19048   5.384   0.366   0.009
54064W        W19049  12.725  25.002  14.441
54065W        W19050  41.663   1.846   3.972
54066W        W19051  32.334   4.290  11.607
54067W        W19052  34.498  32.937  10.620
54068W        W19053   5.722   7.962  14.265
54069W        W19054  27.405  12.317  13.214
54070W        W19055  32.946  16.278   1.681
54071W        W19056  19.334   8.931   1.755
54072W        W19057  14.443  34.892   4.495
54073W        W19058  41.936  11.396  13.734
54074W        W19059  12.771  15.334  14.528
54075W        W19060  11.530  30.085   3.177
54076W        W19061  10.955   7.226  10.139
54077W        W19062  19.330  24.803  13.233
54078W        W19063  16.607  14.131   2.665
54079W        W19064  30.309  15.819  12.323
54080W        W19065  15.696  33.898  10.447
54081W        W19066  20.705   3.001   2.826
54082W        W19067   2.238  15.384  12.061
54083W        W19068  29.690  20.528   0.380
54084W        W19069  19.064  44.616  14.355
54085W        W19070  38.494  23.998   0.328
54086W        W19071  26.028  28.335  11.878
54087W        W19072  23.227  24.607  12.002
54088W        W19073  41.316  23.515  10.053
54089W        W19074  24.540  43.781   4.616
54090W        W19075  22.231  31.402  14.828
54091W        W19076  43.781  32.760  12.127
54092W        W19077   6.684  15.681   0.024
54093W        W19078  18.768   1.380  12.941
54094W        W19079   9.412  32.041  11.037
54095W        W19080  32.155  37.248  12.597
54096W        W19081  42.224  38.613  10.268
54097W        W19082  15.590  10.802   1.486
54098W        W19083  36.056  10.180  11.224
54099W        W19084  16.820  40.317  10.726
54100W        W19085  43.992   0.874  14.765
54101W        W19086  42.027  33.678  13.043
54102W        W19087  23.155  31.885  14.973
54103W        W19088  24.750  19.247   0.781
54104W        W19089  44.313  39.822  13.064
54105W        W19090  34.819  38.584  14.932
54106W        W19091   4.011  23.113   4.605
54107W        W19092  25.501  12.667  13.817
54108W        W19093  10.843  11.034  13.831
54109W        W19094   4.344  25.984   2.330
54110W        W19095  37.971  42.385   0.788
54111W        W19096  31.972  30.879  13.958
54112W        W19097  13.775  22.097   2.425
54113W        W19098  42.430  30.861   2.745
54114W        W19099   0.829  16.288  12.225
54115W        W19100   8.368  27.182  14.036
54116W        W19101  38.718   4.538   1.630
54117W        W19102   0.676  29.231  13.845
54118W        W19103  39.956  24.562  11.905
54119W        W19104   1.373  34.641   2.199
54120W        W19105  43.489  20.077  13.002
54121W        W19106  43.991  35.626  11.510
54122W        W19107  21.286  19.707  14.420
54123W        W19108  14.617  34.754  11.092
54124W        W19109   0.021  41.726  12.035
54125W        W19110  26.999  36.788   0.840
54126W        W19111   2.561   1.321  12.864
54127W        W19112  27.919  23.779  10.166
54128W        W19113  10.835  27.558   0.543
54129W        W19114  30.536  43.221   3.480
54130W        W19115  38.544  23.084   1.934
54131W        W19116  15.542  14.229   1.337
54132W        W19117  25.680  11.439   0.347
54133W        W19118  11.100  44.740   2.272
54134W        W19119  27.418  23.388  13.041
54135W        W19120   1.915  15.899  13.438
54136W        W19121  31.843  36.015   4.081
54137W        W19122  32.027  35.472   4.845
54138W        W19123  28.023  25.357   4.614
54139W        W19124  11.694  43.612   2.205
54140W        W19125  34.555   2.185  12.964
54141W        W19126  23.111  19.791  10.640
54142W        W19127  31.168  23.898  11.764
54143W        W19128   4.871  31.659  10.046
54144W        W19129  30.298  27.155   4.715
54145W        W19130   9.380  16.217   3.392
54146W        W19131  15.976  43.279  12.207
54147W        W19132  34.812  22.700  12.071
54148W        W19133   4.101  39.901   0.772
54149W        W19134  42.541   7.842  10.713
54150W        W19135  43.036   3.353  12.997
54151W        W19136  28.098  19.196  13.077
54152W        W19137  43.346  18.635  12.431
54153W        W19138  32.375  16.049  11.133
54154W        W19139  41.915  19.876  13.516
54155W        W19140  26.782   7.946   0.713
54156W        W19141   2.232  17.826  10.883
54157W        W19142   8.626  38.973  11.041
54158W        W19143  21.088  34.459   1.880
54159W        W19144  13.648  30.238   2.102
54160W        W19145  13.347  10.643  13.634
54161W        W19146  25.470   4.674  11.584
54162W        W19147  43.290  30.500  14.760
54163W        W19148  10.734  20.353   2.766
54164W        W19149   8.218  33.075   4.188
54165W        W19150  35.098  32.405   2.262
54166W        W19151  12.791  33.870   3.377
54167W        W19152   7.824   0.420  12.560
54168W        W19153  42.685  15.784  14.130
54169W        W19154  20.956  17.142  14.538
54170W        W19155  34.282   6.102   1.236
54171W        W19156  16.564  41.484   0.292
54172W        W19157   2.956  18.142  12.039
54173W        W19158   2.227  18.806   0.697
54174W        W19159  23.178  18.346   1.881
54175W        W19160  32.851  39.275   2.613
54176W        W19161   4.843  39.258  12.532
54177W        W19162   6.198   6.202  14.492
54178W        W19163   0.033   8.727   1.249
54179W        W19164  20.751  34.963   3.394
54180W        W19165   5.550  40.114   0.383
54181W        W19166  10.836  28.135  10.889
54182W        W19167  11.235  43.655  12.587
54183W        W19168  22.496  14.742  10.682
54184W        W19169   4.784  11.876   4.530
54185W        W19170   0.024  26.565   3.610
54186W        W19171  27.128  28.619  13.056
54187W        W19172  14.301  22.157  10.855
54188W        W19173   0.340  35.637  10.385
54189W        W19174   9.487  15.584  11.029
54190W        W19175  21.105  23.264   2.650
54191W        W19176  22.523  29.025  14.011
54192W        W19177   7.056   1.665   2.629
54193W        W19178   6.711  36.544  14.486
54194W        W19179  27.997  44.907  14.682
54195W        W19180   4.350   8.152  13.707
54196W        W19181   7.220  16.808   0.188
54197W        W19182   3.053  42.514   1.670
54198W        W19183  21.898  40.513   0.329
54199W        W19184   0.929  26.444   0.259
54200W        W19185  15.967   8.941  11.641
54201W        W19186  23.098  22.120   4.064
54202W        W19187  44.209  27.747  13.968
54203W        W19188  28.418  43.890   2.168
54204W        W19189  17.251  25.082  14.775
54205W        W19190   1.722  10.227  13.002
54206W        W19191  21.637  32.350  13.479
54207W        W19192  43.824  36.824   0.879
54208W        W19193  14.549  42.692  14.856
54209W        W19194  15.775  24.217   3.061
54210W        W19195  26.684  15.468  11.979
54211W        W19196  16.675  37.922  11.701
54212W        W19197  39.976  27.134   1.614
54213W        W19198   6.126  11.322   4.627
54214W        W19199  22.762  13.830  14.038
54215W        W19200   0.983  42.912   5.046
54216W        W19201   0.522  43.134  14.853
54217W        W19202  32.621  34.970  13.856
54218W        W19203  20.021  38.482  11.222
54219W        W19204  11.763  36.926  14.948
54220W        W19205  19.582  27.646  13.874
54221W        W19206   9.327  27.189  14.230
54222W        W19207   0.924  21.158  13.073
54223W        W19208  31.376  35.962  12.475
54224W        W19209  28.702  22.522  12.778
54225W        W19210  13.131  10.873   2.794
54226W        W19211  35.525  34.076   2.406
54227W        W19212  32.258   9.256   4.643
54228W        W19213   4.724  33.677   2.158
54229W        W19214  12.849  23.231  14.772
54230W        W19215  31.992  36.396  12.007
54231W        W19216  35.207  27.510   4.296
54232W        W19217   6.350   6.937   3.673
54233W        W19218  13.147  24.466  11.912
54234W        W19219  11.819  15.029   4.377
54235W        W19220  39.941   3.194   1.111
54236W        W19221  13.513  14.728  13.027
54237W        W19222  28.247  26.506   2.866
54238W        W19223   8.203  28.936  14.070
54239W        W19224   2.486  13.567  11.200
54240W        W19225  33.599   8.789   1.605
54241W        W19226  38.609   3.958   2.684
54242W        W19227  28.161   9.793  11.485
54243W        W19228  41.426  27.512   4.588
54244W        W19229  31.539  17.607   3.109
54245W        W19230   4.923  25.576  10.731
54246W        W19231  40.533  41.034  13.051
54247W        W19232  26.673  44.409  14.071
54248W        W19233  26.432  29.944  12.116
54249W        W19234  11.153   7.932  14.549
54250W        W19235  18.050  40.055  13.566
54251W        W19236  20.642  33.221  11.279
54252W        W19237  10.644  23.409  11.712
54253W        W19238  21.462  26.885   2.178
54254W        W19239  25.519  10.895  13.899
54255W        W19240  44.823   1.141   3.155
54256W        W19241  24.891  37.803   1.765
54257W        W19242  16.985  30.255   3.041
54258W        W19243   2.657  40.204  14.098
54259W        W19244  33.367  12.027  14.815
54260W        W19245  36.070  41.927  12.107
54261W        W19246  22.086  36.604   0.268
54262W        W19247  27.013  22.480   4.124
54263W        W19248  37.026   9.319   2.358
54264W        W19249  30.179   5.822  12.174
54265W        W19250  15.265  24.909  10.689
54266W        W19251  23.956  43.429   1.403
54267W        W19252  37.436  16.546   2.251
54268W        W19253   1.012  41.062   4.419
54269W        W19254  20.213  18.760   1.802
54270W        W19255  15.728  35.768   9.594
54271W        W19256  12.215  20.726   2.399
54272W        W19257  24.718  39.917   2.021
54273W        W19258  15.150  34.833  11.128
54274W        W19259  24.397  29.061   0.473
54275W        W19260  34.688  29.535   4.187
54276W        W19261  13.909  26.886  14.434
54277W        W19262  14.104   6.333  10.257
54278W        W19263  33.499  16.180   4.781
54279W        W19264   1.127  35.885   2.152
54280W        W19265   5.187  21.355   2.265
54281W        W19266  44.084  27.754   4.465
54282W        W19267  37.509  10.208   3.701
54283W        W19268   4.746  38.993   2.508
54284W        W19269  13.886  25.105   3.151
54285W        W19270  15.854  27.005  14.329
54286W        W19271  27.505  10.363  11.132
54287W        W19272  15.575  38.932  14.502
54288W        W19273   4.746  32.778   4.275
54289W        W19274  33.554  39.736   3.631
54290W        W19275   4.773  18.764   2.632
54291W        W19276  43.101  14.161   3.644
54292W        W19277  34.288  18.265  10.634
54293W        W19278   4.319  31.031   0.522
54294W        W19279   6.204   6.091   0.429
54295W        W19280  43.901  34.114   0.267
54296W        W19281  44.174  40.962  12.043
54297W        W19282  43.938  38.404   0.810
54298W        W19283  11.702  22.813   3.601
54299W        W19284  35.622  13.731  12.042
54300W        W19285   7.410   6.844   1.197
54301W        W19286  21.608  31.810   3.339
54302W        W19287  26.594  31.720   4.446
54303W        W19288  27.292  44.359  11.333
54304W        W19289  25.634  42.822   3.681
54305W        W19290  17.296  38.726   2.412
54306W        W19291  12.825   3.224  13.001
54307W        W19292  23.283  43.378  14.698
54308W        W19293  44.435  11.893   4.562
54309W        W19294  17.112  25.538   3.808
54310W        W19295   6.156   8.744   0.275
54311W        W19296   9.135  31.605  13.981
54312W        W19297   2.348  26.431   4.563
54313W        W19298  15.627   9.347   0.308
54314W        W19299  44.891   6.487   2.779
54315W        W19300  39.305  13.045  13.012
54316W        W19301  13.137  21.298   4.526
54317W        W19302  11.359   6.564   5.434
54318W        W19303   8.299  33.662   1.969
54319W        W19304  21.225  13.126  14.119
54320W        W19305   4.472  31.319  14.232
54321W        W19306  36.977  40.860   1.160
54322W        W19307   1.829  16.709  14.553
54323W        W19308  26.958   3.016   3.202
54324W        W19309  20.964  16.138  11.440
54325W        W19310  37.042  10.414   3.570
54326W        W19311  34.454  26.875   4.748
54327W        W19312   5.410  35.470   3.647
54328W        W19313  39.428  43.829   0.009
54329W        W19314  12.267  43.211   3.697
54330W        W19315  30.501  29.945   4.360
54331W        W19316   5.918  14.253  14.302
54332W        W19317  22.436   0.291  10.577
54333W        W19318  22.664  25.106  14.573
54334W        W19319  36.051  14.999  11.248
54335W        W19320  10.278  29.938   2.735
54336W        W19321   0.901  37.619  10.715
54337W        W19322  26.398  22.567   3.157
54338W        W19323  36.870  28.346  14.801
54339W        W19324   9.229   0.994  10.741
54340W        W19325  28.041  28.135   0.400
54341W        W19326  11.078  42.450  12.935
54342W        W19327  29.047  37.271  11.516
54343W        W19328  30.548  39.522  13.336
54344W        W19329  19.004  10.526  10.082
54345W        W19330  19.839  43.637  10.590
54346W        W19331  40.703   0.259   4.066
54347W        W19332  40.499  11.854  12.557
54348W        W19333  16.078  11.813   1.815
54349W        W19334   7.001  27.966   4.168
54350W        W19335   8.915  30.418  12.676
54351W        W19336  14.395  17.824   3.228
54352W        W19337  27.238  24.652  14.858
54353W        W19338   7.591  39.282   1.230
54354W        W19339   4.880  21.678   4.959
54355W        W19340   2.344  35.792   1.309
54356W        W19341  13.159  15.709  10.901
54357W        W19342   3.328  22.417   2.049
54358W        W19343  13.102  23.108  14.346
54359W        W19344  22.760   9.548   0.658
54360W        W19345  39.166  37.316   0.743
54361W        W19346  27.615  23.025   2.886
54362W        W19347  22.567  15.089  11.175
54363W        W19348   4.892  10.044  13.921
54364W        W19349   6.004   6.447  10.303
54365W        W19350   2.988  10.678  13.115
54366W        W19351  20.150  39.076   3.334
54367W        W19352  35.260  41.910   0.327
54368W        W19353  43.961  31.019   0.126
54369W        W19354  23.553  13.348  11.183
54370W        W19355   3.447  30.604   2.834
54371W        W19356  22.430  22.115   0.738
54372W        W19357  25.243  24.198   0.784
54373W        W19358   7.144  36.748  12.006
54374W        W19359  23.783   8.397  14.412
54375W        W19360  13.560  31.167   4.162
54376W        W19361  25.958  30.451   1.777
54377W        W19362  43.234  27.954   4.556
54378W        W19363  39.544  28.085   1.193
54379W        W19364  16.158  37.006  12.707
54380W        W19365  14.706  22.446  10.993
54381W        W19366  42.902  17.232  11.656
54382W        W19367  34.894   3.727  14.027
54383W        W19368  23.041  37.080   1.774
54384W        W19369  15.225  34.297   0.354
54385W        W19370   6.484  32.099   0.484
54386W        W19371  11.258  14.855  12.468
54387W        W19372  14.315  38.205   1.061
54388W        W19373  22.194  12.207  13.345
54389W        W19374   8.484  36.395  11.516
54390W        W19375   8.026  28.201  11.933
54391W        W19376   9.656  29.695  12.371
54392W        W19377  30.405  34.991  13.499
54393W        W19378  25.834  35.015   4.263
54394W        W19379   9.922  27.972  13.508
54395W        W19380   9.789  29.004   0.835
54396W        W19381  38.867  41.837   2.639
54397W        W19382  34.070   9.589   2.338
54398W        W19383  42.177  16.275  12.540
54399W        W19384  27.962  24.130   1.193
54400W        W19385  21.324  22.383  14.798
54401W        W19386  20.664  28.698   1.350
54402W        W19387   7.115  10.275   4.163
54403W        W19388  40.214  15.567   0.395
54404W        W19389  10.813   3.778   1.292
54405W        W19390  31.576  22.056  14.209
54406W        W19391  42.245  26.680   1.197
54407W        W19392  12.151   6.335   2.353
54408W        W19393  28.023  21.104  13.849
54409W        W19394  28.434  17.684   3.619
54410W        W19395  23.267  14.194  10.742
54411W        W19396  44.144   4.364  13.454
54412W        W19397   8.774  26.244   2.767
54413W        W19398  20.568  11.873  14.840
54414W        W19399  26.073   6.233  12.524
54415W        W19400  28.738   5.896   1.193
54416W        W19401  38.631  16.055   4.328
54417W        W19402   0.416  12.285   4.349
54418W        W19403  10.782  43.199  10.893
54419W        W19404  28.110   2.584   2.841
54420W        W19405  37.967  40.281  14.832
54421W        W19406  13.559  32.642  11.069
54422W        W19407  37.917  32.583   1.218
54423W        W19408  30.533  35.161  14.372
54424W        W19409  27.430  37.238  11.050
54425W        W19410  26.151  10.109   4.288
54426W        W19411  17.873   0.823  13.642
54427W        W19412   2.786   2.831   4.750
54428W        W19413  19.854  37.538  11.258
54429W        W19414  24.008   5.156  14.362
54430W        W19415  37.950  20.775   0.779
54431W        W19416   1.824  12.024   4.637
54432W        W19417  11.416  20.852  10.335
54433W        W19418   2.173  38.915  11.506
54434W        W19419   5.943  36.133  12.838
54435W        W19420  23.592   7.088   2.306
54436W        W19421   0.205  39.668   3.183
54437W        W19422   1.614  14.146  11.820
54438W        W19423  36.088  33.685  12.547
54439W        W19424   1.697  12.232  11.976
54440W        W19425  25.922  22.576  10.775
54441W        W19426  14.363  43.335  11.497
54442W        W19427  11.006  26.710   3.163
54443W        W19428  17.566  22.676   1.693
54444W        W19429  24.015   2.136   5.054
54445W        W19430  35.541  42.013   4.455
54446W        W19431  13.855  14.167   4.562
54447W        W19432  30.459  42.568   0.139
54448W        W19433  32.612  41.495   2.826
54449W        W19434  33.626  33.507   4.999
54450W        W19435  39.493  19.811  14.829
54451W        W19436  41.228  28.554   3.845
54452W        W19437  38.067  42.540  12.437
54453W        W19438  26.213  17.144   1.326
54454W        W19439  44.978  44.434   4.375
54455W        W19440  21.609  33.391   2.178
54456W        W19441   4.214  40.976  14.884
54457W        W19442  31.794   3.470   1.546
54458W        W19443  44.945  31.476  12.408
54459W        W19444  14.143  13.959  12.028
54460W        W19445  43.718   1.316  14.697
54461W        W19446  17.073  15.331  11.054
54462W        W19447   0.725  13.619  10.687
54463W        W19448  19.646  21.123   4.548
54464W        W19449  18.764  35.492  12.558
54465W        W19450   3.788  21.159   1.016
54466W        W19451   4.200  41.844   4.156
54467W        W19452  40.929  27.488   3.213
54468W        W19453  10.288  32.492  11.188
54469W        W19454  15.619  35.644  13.258
54470W        W19455  31.154  36.832   3.165
54471W        W19456  11.254  20.730  13.950
54472W        W19457  41.089  18.875   1.044
54473W        W19458  23.623  24.212  11.233
54474W        W19459  27.590  20.855  11.999
54475W        W19460  41.568  36.387   2.604
54476W        W19461  12.560  29.187  13.002
54477W        W19462  26.705  34.535  11.189
54478W        W19463   8.271   1.214  12.912
54479W        W19464  28.048  40.520   0.831
54480W        W19465  44.685  39.782  13.424
54481W        W19466  39.207  41.385   3.001
54482W        W19467  29.407  12.920   4.086
54483W        W19468  20.860  28.561  12.946
54484W        W19469  44.576  37.131   2.724
54485W        W19470   7.866  30.658   2.631
54486W        W19471  24.552  10.897  12.091
54487W        W19472   3.005  38.098  11.083
54488W        W19473  23.930   9.746   4.515
54489W        W19474  24.679   0.261   3.594
54490W        W19475  28.121  12.326   0.780
54491W        W19476  24.800  12.181   2.146
54492W        W19477   3.910  43.617   4.295
54493W        W19478  21.280  14.123  13.312
54494W        W19479   1.755  23.477   3.352
54495W        W19480  42.951   9.486  10.309
54496W        W19481   3.038  10.405   1.393
54497W        W19482  13.680  40.461   1.150
54498W        W19483   0.522   5.407  13.922
54499W        W19484   5.442  16.013   0.412
54500W        W19485  17.640  41.905   3.597
54501W        W19486  14.518  39.859  13.930
54502W        W19487  13.554  19.127   3.048
54503W        W19488  33.088   9.801   2.883
54504W        W19489   2.327   6.783  12.958
54505W        W19490   7.419  42.389   4.195
54506W        W19491  38.493  42.686  13.093
54507W        W19492  19.017  41.448  12.958
54508W        W19493  23.654  11.221   3.984
54509W        W19494  34.811   2.027  13.377
54510W        W19495   8.971   8.570   3.424
54511W        W19496  11.835  19.554   4.768
54512W        W19497   9.647  23.756   4.109
54513W        W19498  39.993   4.793  12.344
54514W        W19499  19.668  26.963  12.037
54515W        W19500  37.802  31.887   4.976
54516W        W19501   6.693  27.535   3.128
54517W        W19502  16.501  37.412   2.332
54518W        W19503  21.771  35.107  12.984
54519W        W19504  20.037   1.437   3.135
54520W        W19505   0.268  17.094   4.147
54521W        W19506  10.169   6.308  11.851
54522W        W19507  26.232   1.794   0.886
54523W        W19508  14.263  30.324   1.372
54524W        W19509  29.627   3.487  14.798
54525W        W19510  43.307  18.198   1.243
54526W        W19511   6.858  33.479  11.473
54527W        W19512  31.998   8.079   0.387
54528W        W19513  22.534   3.039  10.638
54529W        W19514  11.214  18.169   3.065
54530W        W19515   0.113  30.760   0.092
54531W        W19516  11.098  19.127  12.087
54532W        W19517  15.243  31.373   3.866
54533W        W19518  36.072   3.075  13.705
54534W        W19519  41.024  34.586  14.517
54535W        W19520  39.575  41.563  10.989
54536W        W19521  14.248  38.581   2.916
54537W        W19522  44.340   3.458   0.152
54538W        W19523  42.569  32.770  11.612
54539W        W19524   1.147  20.618   1.147
54540W        W19525   6.563  37.039  11.360
54541W        W19526  22.303  11.186   3.654
54542W        W19527  18.303  26.640   3.004
54543W        W19528  30.119   3.810   3.393
54544W        W19529  36.721  28.946   1.058
54545W        W19530  35.341  32.004   3.648
54546W        W19531  21.506   1.202   1.221
54547W        W19532   3.743  35.155  12.159
54548W        W19533  20.743  31.330  13.983
54549W        W19534  12.480  22.206  10.626
54550W        W19535  24.103  10.189   3.359
54551W        W19536  29.431  14.363  10.765
54552W        W19537   4.973  38.472  12.975
54553W        W19538  31.057  27.051   1.809
54554W        W19539  27.723  29.701  14.797
54555W        W19540  15.641  28.072   3.272
54556W        W19541  35.818   0.884  12.594
54557W        W19542  26.959  15.899  11.967
54558W        W19543  12.150  41.553  13.987
54559W        W19544  26.491  38.082   2.725
54560W        W19545  38.402  41.863  13.817
54561W        W19546  39.923  36.799  13.901
54562W        W19547  40.972  10.680  13.104
54563W        W19548   3.051  37.683  12.021
54564W        W19549  27.436   6.246   1.281
54565W        W19550  24.277   4.416   3.289
54566W        W19551   6.947  11.689  14.295
54567W        W19552   3.378  26.897   3.128
54568W        W19553  11.547  37.129  12.016
54569W        W19554  20.255  30.598  11.626
54570W        W19555  14.033  19.960   1.852
54571W        W19556  31.161  14.646   1.774
54572W        W19557  21.995  17.583  12.637
54573W        W19558  12.197  16.602  12.028
54574W        W19559  36.244  26.972   4.093
54575W        W19560   8.297  27.257  11.850
54576W        W19561  29.721  24.184   1.610
54577W        W19562  35.214   6.642   4.121
54578W        W19563  39.788  19.149   0.316
54579W        W19564   9.225  10.826   1.670
54580W        W19565   3.964   4.910   1.164
54581W        W19566  18.861   5.415   5.735
54582W        W19567  32.400  28.912  12.447
54583W        W19568  12.194  20.646  14.796
54584W        W19569  39.979  24.264  13.268
54585W        W19570  42.774  15.635   3.294
54586W        W19571  24.753  32.084   2.827
54587W        W19572  10.031  43.712   4.274
54588W        W19573  24.450  38.595   3.787
54589W        W19574  22.243  44.689   2.679
54590W        W19575   9.697  23.307   0.292
54591W        W19576  27.034  19.629  14.740
54592W        W19577  21.602  35.950   1.884
54593W        W19578  31.517  12.282   0.079
54594W        W19579  32.960  39.271  11.464
54595W        W19580   0.390   1.485  13.938
54596W        W19581  27.543   5.834   2.371
54597W        W19582  32.035  28.297  11.177
54598W        W19583  21.047  31.229   2.894
54599W        W19584  32.974   0.771  11.489
54600W        W19585  16.512  16.797  14.018
54601W        W19586  23.514   1.897   5.072
54602W        W19587  12.419   0.483   3.258
54603W        W19588  35.089  33.548  12.562
54604W        W19589  24.063  26.236   0.720
54605W        W19590   4.589   9.405  11.407
54606W        W19591  32.716   2.937  14.654
54607W        W19592  23.143  24.769   0.280
54608W        W19593   7.112  17.024  10.791
54609W        W19594  32.529   4.390  12.124
54610W        W19595  25.290   2.530  10.672
54611W        W19596  28.209  43.039  13.527
54612W        W19597   6.341   4.242   2.421
54613W        W19598   4.401  35.555  10.671
54614W        W19599  31.059  27.489   4.451
54615W        W19600  10.612   5.866   2.734
54616W        W19601  43.771  31.059   0.963
54617W        W19602  23.658   2.442  11.215
54618W        W19603  17.185  26.269  11.151
54619W        W19604  34.188  10.651  10.215
54620W        W19605  32.852  30.643   0.809
54621W        W19606  13.272   9.436  10.699
54622W        W19607  41.426   3.874  13.152
54623W        W19608  13.307   4.402  10.672
54624W        W19609  27.239  29.459   0.085
54625W        W19610  27.505  19.916  13.995
54626W        W19611  30.978   5.889   4.579
54627W        W19612  27.047   6.889   3.191
54628W        W19613   8.094  21.031   1.934
54629W        W19614  35.385  22.718  13.805
54630W        W19615  44.320   5.139  11.134
54631W        W19616  40.021   9.676   0.492
54632W        W19617   3.947  13.241   2.123
54633W        W19618  39.840   5.337   2.314
54634W        W19619  41.262  34.284   2.124
54635W        W19620  16.612  31.281  11.158
54636W        W19621   3.945  42.011  10.757
54637W        W19622  19.800  16.927  10.616
54638W        W19623   4.851  43.253   0.543
54639W        W19624  23.052  16.141   4.486
54640W        W19625  25.947  21.667   3.341
54641W        W19626   5.718  11.667   0.305
54642W        W19627  25.202   8.275  12.033
54643W        W19628  40.103   6.476   0.014
54644W        W19629  22.877  34.423  13.989
54645W        W19630  33.227  26.682  10.528
54646W        W19631   0.604  39.042  11.650
54647W        W19632  19.583   8.704   3.853
54648W        W19633  43.695  26.635   5.058
54649W        W19634  21.648  12.785   0.936
54650W        W19635   8.142  41.369   0.309
54651W        W19636  13.780  29.783   4.174
54652W        W19637  12.146  26.405  12.456
54653W        W19638  43.699   8.207   2.368
54654W        W19639  20.140  12.134  10.681
54655W        W19640  18.102  24.223  14.916
54656W        W19641  22.048  33.446   2.441
54657W        W19642   4.031  19.679   5.057
54658W        W19643  24.340  19.113   3.357
54659W        W19644  32.287   4.815  11.968
54660W        W19645  28.453  43.835  12.058
54661W        W19646  15.326   1.060  10.844
54662W        W19647  30.909  37.029   0.382
54663W        W19648  11.769  43.746   0.747
54664W        W19649  18.413  10.870   2.717
54665W        W19650  36.937  18.659   0.984
54666W        W19651  22.953   8.168  13.364
54667W        W19652  21.748  13.651  11.580
54668W        W19653  23.152  21.628   1.063
54669W        W19654  39.926  13.193   3.076
54670W        W19655  34.341  39.788  14.307
54671W        W19656  43.233  15.129   0.846
54672W        W19657  28.515  34.363  14.803
54673W        W19658  25.168   1.615   0.226
54674W        W19659  26.154  26.042  10.333
54675W        W19660  32.835   7.356   4.090
54676W        W19661  36.572  33.364   1.940
54677W        W19662  30.938  19.731  14.265
54678W        W19663   6.755   7.621  12.019
54679W        W19664  13.809  38.182   1.228
54680W        W19665  37.668  33.548  12.884
54681W        W19666  34.038  21.614   2.884
54682W        W19667  22.563  38.600  13.536
54683W        W19668  31.108  24.206   0.504
54684W        W19669  16.694   9.674  14.345
54685W        W19670   9.160  11.752   1.688
54686W        W19671   7.780  19.824  12.494
54687W        W19672  23.517   0.021   2.597
54688W        W19673  32.970  20.514  10.604
54689W        W19674  14.649  11.662  12.935
54690W        W19675  40.587  24.768   0.875
54691W        W19676   6.409   7.907   2.314
54692W        W19677  42.626  13.125  11.605
54693W        W19678  41.989  35.564  12.520
54694W        W19679  17.867  14.894   3.810
54695W        W19680  38.457  44.502   4.092
54696W        W19681  22.821  40.266  14.218
54697W        W19682  12.126   8.647  12.543
54698W        W19683   5.826   8.562  14.851
54699W        W19684  24.513   0.352   0.658
54700W        W19685   6.135  14.242   2.811
54701W        W19686  18.122  40.796  12.206
54702W        W19687  33.044  18.034   2.826
54703W        W19688   3.372  40.481   4.993
54704W        W19689  34.291  19.439  11.389
54705W        W19690  32.590  37.920   1.265
54706W        W19691  18.566  36.054   0.744
54707W        W19692  17.367  22.317  12.032
54708W        W19693  16.858  37.481  13.040
54709W        W19694   2.730  19.314  11.766
54710W        W19695  13.590  34.983   0.700
54711W        W19696  42.242  19.818  11.125
54712W        W19697  13.318   1.069   2.840
54713W        W19698  44.026  21.511   2.304
54714W        W19699  37.842  23.463  11.688
54715W        W19700  30.013  19.824  13.967
54716W        W19701   0.252   0.157   3.709
54717W        W19702  29.820  20.755   1.265
54718W        W19703  24.517  15.855  10.790
54719W        W19704  14.390  32.302  11.144
54720W        W19705  19.553  22.243  12.349
54721W        W19706  15.026  42.491   0.472
54722W        W19707  27.675  35.460   3.790
54723W        W19708  40.865  42.640   0.209
54724W        W19709  20.666  37.723   3.667
54725W        W19710  40.449  14.406  11.198
54726W        W19711  35.987  38.338   0.233
54727W        W19712   8.927   4.856  12.026
54728W        W19713  40.261  37.801  14.475
54729W        W19714  21.434  19.782  12.455
54730W        W19715  28.493  25.184  12.826
54731W        W19716  17.556  27.224  13.065
54732W        W19717  26.111  13.866   0.769
54733W        W19718  24.189  19.305   0.809
54734W        W19719  36.822   3.225   0.432
54735W        W19720  13.255  43.363   2.865
54736W        W19721  38.421  27.463   2.388
54737W        W19722  42.257  40.985   0.617
54738W        W19723  42.035  19.381   9.841
54739W        W19724   3.772  12.330   0.139
54740W        W19725   3.928   5.241  13.324
54741W        W19726  14.698  11.775   1.096
54742W        W19727   8.113  26.561  12.463
54743W        W19728   3.831   4.151  11.605
54744W        W19729  22.279  33.571  10.773
54745W        W19730  20.939  13.150   0.482
54746W        W19731  10.594  34.810   1.349
54747W        W19732   4.881   6.790   0.705
54748W        W19733  13.715   6.379  14.275
54749W        W19734   9.749  15.205   0.747
54750W        W19735  15.052  32.346  13.369
54751W        W19736  40.038  21.316  14.346
54752W        W19737  18.409   9.251   3.237
54753W        W19738  41.337  30.410  10.619
54754W        W19739  19.226  43.038   1.284
54755W        W19740  10.595   8.895  10.971
54756W        W19741  29.627   5.507  12.078
54757W        W19742  25.067   7.247   4.060
54758W        W19743   8.859  10.526  10.951
54759W        W19744  18.323  12.394  12.079
54760W        W19745   0.059  34.361  10.495
54761W        W19746   2.441  36.062  14.876
54762W        W19747  43.152  15.320  13.477
54763W        W19748   9.693  28.151   2.937
54764W        W19749   5.161  12.880  14.785
54765W        W19750  37.297  44.586  13.926
54766W        W19751   7.896  22.599  12.484
54767W        W19752  14.040  40.566  12.169
54768W        W19753  41.072  15.093   3.520
54769W        W19754  12.363  26.764   3.197
54770W        W19755  23.619  13.514  13.972
54771W        W19756  30.269  25.057  10.671
54772W        W19757  37.021   9.140   1.837
54773W        W19758  12.571  26.663  13.954
54774W        W19759  35.621  21.169  12.809
54775W        W19760  38.008  19.079  14.343
54776W        W19761  26.505   8.383   0.943
54777W        W19762   8.747  12.302   1.471
54778W        W19763   3.816  40.219  11.765
54779W        W19764  15.704  37.222   2.057
54780W        W19765  41.515  23.711  10.506
54781W        W19766  32.983  22.741  14.832
54782W        W19767  14.878   2.333   0.443
54783W        W19768  34.512  30.115   2.427
54784W        W19769  19.640  34.318   4.973
54785W        W19770  17.228   0.064   4.090
54786W        W19771  28.132  37.955  12.928
54787W        W19772  27.305  10.127  12.473
54788W        W19773  17.087  30.215  13.891
54789W        W19774  23.793  20.867  11.507
54790W        W19775  24.894  35.555   0.765
54791W        W19776  31.650  37.136  11.044
54792W        W19777  26.436  25.649  14.487
54793W        W19778  38.859  40.307   2.747
54794W        W19779  31.306  24.551  11.350
54795W        W19780  26.016  34.074   4.620
54796W        W19781  16.101   6.736   3.227
54797W        W19782  13.299   2.622  11.975
54798W        W19783  28.904  36.769  11.417
54799W        W19784  10.691   9.179   4.184
54800W        W19785  33.689   1.331   0.899
54801W        W19786   9.799  16.217   1.483
54802W        W19787  24.079  19.834   0.137
54803W        W19788  40.403   4.503  14.869
54804W        W19789  37.570  26.542   4.141
54805W        W19790  10.754  22.598   4.808
54806W        W19791  26.425  34.489  13.058
54807W        W19792  23.734  33.103   2.848
54808W        W19793  21.219  25.041   3.816
54809W        W19794  29.393  42.455   4.031
54810W        W19795  32.096  36.908   0.027
54811W        W19796  44.293  10.839   1.451
54812W        W19797  36.118  23.118  12.077
54813W        W19798  24.749  11.205  12.967
54814W        W19799  35.188  26.071   0.310
54815W        W19800   0.348   7.670  11.994
54816W        W19801  18.381  15.189   1.910
54817W        W19802  39.096  10.620   3.647
54818W        W19803  42.808  41.749   1.781
54819W        W19804  28.025  15.638   2.842
54820W        W19805  13.571  29.032   4.601
54821W        W19806  16.347  21.984   1.194
54822W        W19807   5.317  43.904  14.515
54823W        W19808  31.099  29.929   3.707
54824W        W19809  39.409   1.357   0.650
54825W        W19810  20.952  39.915  12.531
54826W        W19811  18.030  18.732   2.310
54827W        W19812  17.986   8.768   9.946
54828W        W19813  10.831  31.603  14.946
54829W        W19814  28.511  26.092   2.386
54830W        W19815  12.716  42.614  14.300
54831W        W19816  13.450  11.821   3.626
54832W        W19817  28.986  31.147  14.844
54833W        W19818  12.698  11.287   4.593
54834W        W19819  24.709  31.535  11.859
54835W        W19820  44.352  31.048   4.558
54836W        W19821  26.526  43.841  11.623
54837W        W19822  11.671  33.585   1.380
54838W        W19823  16.646  33.477   0.716
54839W        W19824  21.476   4.812   1.763
54840W        W19825  26.868  21.140   1.227
54841W        W19826   2.631  33.070   3.844
54842W        W19827  22.429  34.595   4.146
54843W        W19828  21.111  12.724   3.725
54844W        W19829  30.787  36.590  13.586
54845W        W19830  40.646  29.132  14.075
54846W        W19831  34.133   0.849  11.220
54847W        W19832   7.942  21.470  10.540
54848W        W19833   1.385  26.668   2.036
54849W        W19834  36.962   5.890  12.204
54850W        W19835  19.949  29.872   0.962
54851W        W19836  43.525  31.049   4.548
54852W        W19837  15.794   6.390   0.177
54853W        W19838  40.218  30.415   0.460
54854W        W19839  39.746   0.004  13.281
54855W        W19840  39.254  17.540   4.324
54856W        W19841   6.735  38.857   0.936
54857W        W19842   2.911  42.983  11.169
54858W        W19843   0.775   9.721  12.971
54859W        W19844   9.445   9.099  12.517
54860W        W19845  14.551  34.126  12.955
54861W        W19846  31.988   3.450  11.457
54862W        W19847  33.651  37.367   0.689
54863W        W19848  27.466  33.425  12.438
54864W        W19849  38.823  11.577  13.507
54865W        W19850  33.867   8.188   3.512
54866W        W19851  24.662  13.114  11.863
54867W        W19852  15.035  13.889   4.188
54868W        W19853  34.298   9.761  11.156
54869W        W19854  23.887  29.752   4.088
54870W        W19855  20.310   5.353  11.182
54871W        W19856  27.395  35.856   3.595
54872W        W19857  33.239  25.890  14.922
54873W        W19858  40.355   9.531   3.020
54874W        W19859  27.404  21.094  13.011
54875W        W19860  36.879  28.641   0.212
54876W        W19861   0.959  41.952  12.867
54877W        W19862   2.549   7.858   4.294
54878W        W19863  27.828  27.611   1.942
54879W        W19864   4.364  19.386   3.238
54880W        W19865  12.010  35.130  12.458
54881W        W19866  44.975  15.046   3.798
54882W        W19867   8.348  26.713  14.964
54883W        W19868  29.189  42.053   1.439
54884W        W19869  34.158   4.428  12.966
54885W        W19870  36.681   7.798  11.648
54886W        W19871  24.104  17.309   2.866
54887W        W19872  21.588  18.593  14.452
54888W        W19873  41.370   2.279  10.940
54889W        W19874  19.291  19.400  11.748
54890W        W19875  13.143  24.677  14.416
54891W        W19876  17.468  10.423   5.067
54892W        W19877  31.213  32.552  11.562
54893W        W19878  14.839  40.218  14.860
54894W        W19879  12.761   7.299  13.942
54895W        W19880  24.017  27.743   2.218
54896W        W19881  32.535  40.992   3.078
54897W        W19882  15.223  34.079   3.934
54898W        W19883  18.945  15.687   1.180
54899W        W19884  15.638  37.484  13.597
54900W        W19885  22.430  18.053   3.722
54901W        W19886  14.814  30.079   3.618
54902W        W19887   1.561   8.800  10.645
54903W        W19888  37.215  25.051  11.887
54904W        W19889  39.423  40.928  11.524
54905W        W19890  27.277  19.795   0.691
54906W        W19891  23.733  10.129  13.567
54907W        W19892  35.865  12.681  13.425
54908W        W19893   4.723  37.065  14.846
54909W        W19894  44.316  14.147   2.211
54910W        W19895  36.347  29.439  12.367
54911W        W19896  40.564   6.365  11.667
54912W        W19897  37.080  12.471   2.340
54913W        W19898   4.445  34.106  13.959
54914W        W19899  13.762  19.599   2.801
54915W        W19900  22.596  14.843   4.731
54916W        W19901  27.096  25.754  10.663
54917W        W19902  28.402  12.680   2.292
54918W        W19903  12.350  34.095   3.208
54919W        W19904   5.689  14.783   3.212
54920W        W19905  14.623  17.980   2.808
54921W        W19906   2.975  30.548  11.734
54922W        W19907  21.186  35.561  11.067
54923W        W19908  37.692  15.797   0.745
54924W        W19909  33.473  16.566  12.620
54925W        W19910  44.971   0.906  12.991
54926W        W19911  33.808   4.097   3.296
54927W        W19912  23.974  11.415  13.330
54928W        W19913   4.938  23.572  14.942
54929W        W19914  28.605  17.038  12.608
54930W        W19915  44.731  29.529   2.468
54931W        W19916  33.544  22.154  10.155
54932W        W19917  16.223  35.798  13.921
54933W        W19918   8.270  11.035   1.621
54934W        W19919  19.208  37.104  13.114
54935W        W19920  23.448  31.123  12.034
54936W        W19921  43.480  34.316   4.516
54937W        W19922  33.078  16.064   0.361
54938W        W19923  29.517  32.050   2.477
54939W        W19924  15.801   0.896   2.859
54940W        W19925   4.880  42.336   1.598
54941W        W19926  36.594  42.761   1.818
54942W        W19927  34.507   7.448   3.556
54943W        W19928  39.443   8.145  14.837
54944W        W19929  40.990  17.374  14.374
54945W        W19930  17.117  35.264  13.496
54946W        W19931   2.712  32.555  12.503
54947W        W19932  33.405  37.041   3.460
54948W        W19933  33.979  30.523   4.361
54949W        W19934  18.655  13.482   4.908
54950W        W19935  36.134  20.254  14.719
54951W        W19936  15.779   4.643   0.412
54952W        W19937  10.266   9.792  13.921
54953W        W19938  41.781  42.438   1.297
54954W        W19939   6.168   3.161  11.976
54955W        W19940   9.757  10.092  14.542
54956W        W19941  11.805  30.541  14.433
54957W        W19942  19.037  43.357   4.049
54958W        W19943  39.548  31.026   4.511
54959W        W19944  33.359   0.674   1.931
54960W        W19945  20.958  27.723  12.502
54961W        W19946  36.767  21.631   3.591
54962W        W19947   9.906  28.276  11.948
54963W        W19948  37.041   2.305  12.031
54964W        W19949  34.635  40.361  12.892
54965W        W19950  22.586  14.084   1.312
54966W        W19951  36.603  19.363  13.862
54967W        W19952  33.680  32.108  10.152
54968W        W19953  14.819  19.531  11.138
54969W        W19954  23.186  31.607   3.731
54970W        W19955  24.234  31.551   0.782
54971W        W19956  36.455  11.437   0.809
54972W        W19957  35.886  24.880   1.933
54973W        W19958  32.456  10.310  13.702
54974W        W19959  35.677  20.007   2.351
54975W        W19960  20.836  41.904   1.494
54976W        W19961  23.261  21.263   0.241
54977W        W19962  11.427  42.105   2.649
54978W        W19963  22.307  32.997   2.339
54979W        W19964   3.140  34.862  14.747
54980W        W19965   6.913  44.203   3.710
54981W        W19966  41.672   9.764   3.866
54982W        W19967  33.821   4.877   2.797
54983W        W19968  44.859   6.533  14.949
54984W        W19969   6.239   8.279   4.346
54985W        W19970  31.176   4.819  12.443
54986W        W19971   5.181  32.977   1.320
54987W        W19972  25.741  31.186  12.174
54988W        W19973  26.493  22.221   2.200
54989W        W19974  15.784  13.186   1.820
54990W        W19975  14.451   8.419   1.804
54991W        W19976  33.653  20.794   2.836
54992W        W19977  11.236  29.677  14.107
54993W        W19978  37.190  37.500  11.643
54994W        W19979  14.804  22.011  13.398
54995W        W19980  29.612   0.235  11.547
54996W        W19981  10.293  21.240  12.295
54997W        W19982  33.049  38.597  12.073
54998W        W19983   1.546  24.789  14.737
54999W        W19984  17.996  17.878  11.306
55000W        W19985  36.944   7.760   1.923
55001W        W19986  32.086   8.833   1.910
55002W        W19987  29.655  24.114  10.664
55003W        W19988  15.071  44.918   2.753
55004W        W19989  37.520   2.370   3.622
55005W        W19990  36.542  17.750  11.250
55006W        W19991  44.214  40.561   3.633
55007W        W19992  10.572  26.660  12.458
55008W        W19993  42.068  12.438   3.792
55009W        W19994  44.382  40.988   0.051
55010W        W19995  19.701  13.318   4.446
55011W        W19996  30.644  19.662   4.329
55012W        W19997   1.689  17.081  14.876
55013W        W19998  11.357  33.315   4.159
55014W        W19999  39.998  43.911  11.096
55015W        W20000  37.411  22.512   2.690
55016W        W20001  42.768  23.879   0.805
55017W        W20002  10.311  13.830  14.707
55018W        W20003   5.898  21.055  13.023
55019W        W20004  16.339  31.799   0.788
55020W        W20005  44.380  27.651   1.855
55021W        W20006  35.958   5.807  13.434
55022W        W20007  43.605  38.029  13.368
55023W        W20008  26.610  16.013   5.018
55024W        W20009  23.665  27.428   3.533
55025W        W20010  24.583  25.495   1.685
55026W        W20011  36.137  42.774   2.573
55027W        W20012   5.976  27.895   4.197
55028W        W20013  33.744  26.589  10.615
55029W        W20014   7.777   6.229  11.201
55030W        W20015  24.254  25.623   3.340
55031W        W20016  31.990   3.902   0.747
55032W        W20017  35.126  42.313   4.987
55033W        W20018  27.104  39.553   1.913
55034W        W20019   3.210  29.672   1.189
55035W        W20020   3.770  40.851   3.307
55036W        W20021  33.932  27.999  10.700
55037W        W20022  24.515  14.660   4.682
55038W        W20023   4.968  33.131  13.893
55039W        W20024   6.233  21.491   3.080
55040W        W20025  27.148  31.393  11.696
55041W        W20026  31.936   5.349  11.002
55042W        W20027   6.804  15.689   0.525
55043W        W20028   2.842  37.795   0.444
55044W        W20029  26.594  11.466  10.671
55045W        W20030  29.939  37.674  14.161
55046W        W20031  25.355  41.898  12.652
55047W        W20032  29.658  20.717   4.893
55048W        W20033  16.262   8.192  13.818
55049W        W20034  17.209  36.369   1.856
55050W        W20035  12.338  42.051  12.390
55051W        W20036  11.062  22.146  13.668
55052W        W20037  10.784   1.769  14.625
55053W        W20038  31.623   3.192   2.884
55054W        W20039  35.967  18.598  13.258
55055W        W20040   4.428  14.116   4.134
55056W        W20041  32.420   6.548   2.828
55057W        W20042  26.123  38.437  10.532
55058W        W20043   9.973  44.738   4.226
55059W        W20044  35.968  22.866  11.522
55060W        W20045  30.635  28.548  11.840
55061W        W20046  35.133  41.824   4.163
55062W        W20047  34.467   0.006   3.298
55063W        W20048  22.240   6.874  11.166
55064W        W20049  44.933  26.024   5.032
55065W        W20050  37.218  39.466   0.015
55066W        W20051  33.571  40.293   3.131
55067W        W20052  10.658  19.996  13.905
55068W        W20053   9.057   0.328  14.528
55069W        W20054  25.326   9.591  12.544
55070W        W20055   9.170  42.532   0.194
55071W        W20056  27.515  26.087  12.929
55072W        W20057   9.686  16.625   3.326
55073W        W20058  32.479  16.990  13.493
55074W        W20059  30.102   6.861   4.191
55075W        W20060  32.382  15.702   4.016
55076W        W20061   8.845  18.568   0.215
55077W        W20062  23.637   1.380  13.395
55078W        W20063   2.553  19.222   3.255
55079W        W20064   7.411  31.426  11.197
55080W        W20065  39.075  16.424  12.012
55081W        W20066  11.080  14.766   3.008
55082W        W20067   1.497  41.033   1.840
55083W        W20068  36.989  27.635  14.461
55084W        W20069   6.282  27.107   2.034
55085W        W20070  29.093  35.654   0.843
55086W        W20071   2.453  27.451   4.379
55087W        W20072  12.842  39.521  11.141
55088W        W20073  29.466  34.054  10.920
55089W        W20074  28.836  35.905   0.456
55090W        W20075  26.465  14.671  11.679
55091W        W20076  23.168  43.489   4.607
55092W        W20077  29.099  14.075  12.971
55093W        W20078  28.495  18.518  11.619
55094W        W20079  43.643  42.977  14.914
55095W        W20080  26.117   1.977  14.876
55096W        W20081   1.368  14.315   0.071
55097W        W20082   6.874  20.585  11.156
55098W        W20083   8.789  43.854   4.601
55099W        W20084  24.695  14.679  11.500
55100W        W20085   8.711  34.516  13.767
55101W        W20086  20.119  32.340   3.304
55102W        W20087  22.532  11.270   4.136
55103W        W20088  13.896  22.127  11.709
55104W        W20089  40.345  33.949   5.338
55105W        W20090  44.432  36.204   0.447
55106W        W20091  40.409   6.269   3.564
55107W        W20092  18.742  42.464  13.896
55108W        W20093   6.477  40.725  10.782
55109W        W20094  22.512  39.055   3.276
55110W        W20095  41.768  37.177   1.356
55111W        W20096  19.718  21.081   0.820
55112W        W20097  40.471  20.039   2.176
55113W        W20098  27.656  39.020  11.938
55114W        W20099  43.419  16.559  13.794
55115W        W20100  12.365  44.656   3.335
55116W        W20101  24.068  32.462   3.004
55117W        W20102  24.181  10.148   4.234
55118W        W20103  27.537   2.824  13.382
55119W        W20104  25.100  22.115   2.840
55120W        W20105  25.139  14.431   0.774
55121W        W20106  20.739  32.784   0.922
55122W        W20107  37.773  34.535   1.100
55123W        W20108  31.661  39.259   2.237
55124W        W20109  43.386  22.858   1.387
55125W        W20110   5.320  34.344   1.721
55126W        W20111  37.103  24.293   2.771
55127W        W20112   2.904  36.168  13.712
55128W        W20113  38.633  11.264   1.781
55129W        W20114  13.851   0.426   1.729
55130W        W20115  31.810  44.917  11.290
55131W        W20116  18.625  14.601   0.308
55132W        W20117  44.200  29.096  14.160
55133W        W20118  40.357  41.986   0.686
55134W        W20119  23.789   4.279   3.349
55135W        W20120   0.291   4.944  12.622
55136W        W20121  30.424  37.175   2.968
55137W        W20122  14.728  36.346   3.799
55138W        W20123  11.431  21.062   2.686
55139W        W20124  38.620   7.777  11.953
55140W        W20125  43.858  20.753  11.344
55141W        W20126  13.549  39.318  14.916
55142W        W20127  43.878  44.450  11.470
55143W        W20128  23.289   1.595  14.577
55144W        W20129   2.888  23.007   0.260
55145W        W20130  38.939  27.637  11.896
55146W        W20131  27.675  13.599   0.660
55147W        W20132  36.658  28.669  12.471
55148W        W20133  41.821   5.437   2.307
55149W        W20134  24.193  18.132   4.696
55150W        W20135  33.631  10.640   2.774
55151W        W20136  41.575  21.578  11.113
55152W        W20137  41.987  42.580  13.916
55153W        W20138  21.143  15.069  13.720
55154W        W20139   0.814  18.086  11.570
55155W        W20140  31.478  29.569  11.600
55156W        W20141  37.736  20.671   3.402
55157W        W20142  28.080  18.803  11.641
55158W        W20143  23.029  35.640   4.829
55159W        W20144   0.179  18.669  10.115
55160W        W20145  44.837   8.112   3.292
55161W        W20146   6.569  15.615  10.065
55162W        W20147  20.561  38.484   2.138
55163W        W20148  35.425  35.674  11.605
55164W        W20149  27.920  40.548  11.093
55165W        W20150  15.028  40.991  11.550
55166W        W20151  16.073  28.944  14.441
55167W        W20152  41.313  23.628   2.734
55168W        W20153  40.875   6.646  12.083
55169W        W20154  13.384  41.061  14.662
55170W        W20155   9.840   8.873   2.772
55171W        W20156   2.725  28.061  10.339
55172W        W20157  19.791   1.781   1.900
55173W        W20158   4.665  18.563   3.128
55174W        W20159  30.164  33.440  12.667
55175W        W20160   3.453  24.669   0.915
55176W        W20161   3.948  31.554   1.211
55177W        W20162  30.132  16.801  14.478
55178W        W20163  15.739  43.711   0.131
55179W        W20164  40.869  26.124   0.780
55180W        W20165  29.685  17.099   3.254
55181W        W20166  19.757  14.252   4.275
55182W        W20167  22.986   3.698  12.935
55183W        W20168  25.026  44.292  12.804
55184W        W20169  29.115  19.363  10.706
55185W        W20170   9.942  16.149  12.485
55186W        W20171  35.945  33.731  14.968
55187W        W20172  11.602  34.015   4.663
55188W        W20173   8.691  20.311   3.753
55189W        W20174   0.961  34.694  14.761
55190W        W20175   3.289   6.164  12.401
55191W        W20176   0.620  16.587   2.878
55192W        W20177  22.474  37.898  11.124
55193W        W20178  17.143  20.696   1.333
55194W        W20179  36.812   1.389   0.504
55195W        W20180  42.850  33.479   1.436
55196W        W20181  16.268   9.737   0.542
55197W        W20182  21.114  33.153   2.760
55198W        W20183  23.276  24.230  13.346
55199W        W20184   5.823  39.934   3.196
55200W        W20185  24.014  44.158  11.087
55201W        W20186  12.200   2.080  14.718
55202W        W20187  25.554   0.897  14.721
55203W        W20188  35.244  32.412   1.395
55204W        W20189  10.177  36.109  13.041
55205W        W20190  43.955  31.822  11.968
55206W        W20191  36.597  18.148   3.677
55207W        W20192  19.739  40.908  13.064
55208W        W20193  29.431  22.595   3.694
55209W        W20194   6.402  23.529   0.735
55210W        W20195   5.650  17.499   1.202
55211W        W20196  22.454   4.837   3.435
55212W        W20197  34.366   2.767   2.422
55213W        W20198  43.738  20.622   3.871
55214W        W20199  29.607  23.942  12.114
55215W        W20200  13.949  22.118   1.420
55216W        W20201  29.680   4.662  13.388
55217W        W20202  43.673  32.236  13.506
55218W        W20203  19.630  10.014   4.018
55219W        W20204  34.572  16.249  11.597
55220W        W20205   8.923  23.118  13.798
55221W        W20206  33.177   2.254   1.804
55222W        W20207  41.575  28.875  10.827
55223W        W20208  22.211  10.170  10.203
55224W        W20209  44.499  21.212   1.749
55225W        W20210   3.265  29.642  14.493
55226W        W20211   5.868  22.984   3.813
55227W        W20212  18.161  16.709   4.965
55228W        W20213  13.784  30.908   0.267
55229W        W20214   0.954  29.514  14.254
55230W        W20215   0.705  31.488   0.152
55231W        W20216  31.561  34.095  14.046
55232W        W20217  39.548  24.083   3.665
55233W        W20218  25.454  12.950   0.330
55234W        W20219  38.455  12.024  13.871
55235W        W20220  43.104  30.069   0.001
55236W        W20221   5.653  23.575  11.215
55237W        W20222   0.121  25.006  14.876
55238W        W20223  12.291  18.304   1.768
55239W        W20224  23.629  39.266  12.443
55240W        W20225  21.692  24.584   2.835
55241W        W20226  41.960  16.028  11.166
55242W        W20227  17.212   4.902  14.427
55243W        W20228  23.963  35.923   1.769
55244W        W20229  19.150  35.815  12.696
55245W        W20230  12.681  17.060   4.324
55246W        W20231   0.151  31.430  10.784
55247W        W20232  15.549  12.186   2.921
55248W        W20233  35.032  17.674  12.795
55249W        W20234  16.243  42.398   2.938
55250W        W20235  32.630  25.311  13.583
55251W        W20236  19.799  35.696   0.879
55252W        W20237  24.020  16.870   1.917
55253W        W20238  43.503   8.896  12.972
55254W        W20239  22.965  39.987   1.782
55255W        W20240  44.384  28.031   5.096
55256W        W20241  30.179   9.237   1.848
55257W        W20242  31.645  36.452   0.431
55258W        W20243  27.674  17.156   4.025
55259W        W20244  16.792  40.600  11.152
55260W        W20245  13.910  35.024   4.675
55261W        W20246  22.159  29.532   4.206
55262W        W20247   7.402  43.842  14.500
55263W        W20248  16.693  12.672   4.251
55264W        W20249  41.786   9.408  11.048
55265W        W20250   2.827   1.279  14.507
55266W        W20251  25.871  44.247   2.870
55267W        W20252  43.353  14.830  11.234
55268W        W20253  17.759  30.573   2.363
55269W        W20254  44.730  20.663  11.231
55270W        W20255  22.215  35.299   1.702
55271W        W20256  44.314  38.544   1.733
55272W        W20257  41.027  41.001   1.680
55273W        W20258  43.072  40.599  14.084
55274W        W20259  11.305  22.540   0.315
55275W        W20260  17.274  11.283   3.179
55276W        W20261  14.175  21.657   4.551
55277W        W20262  29.255  33.454   4.996
55278W        W20263  23.725  42.410  13.217
55279W        W20264   6.807  13.664  14.333
55280W        W20265  11.908   8.420   3.663
55281W        W20266  13.247  16.163  13.975
55282W        W20267  26.165  25.641   1.938
55283W        W20268   0.526  25.070  11.962
55284W        W20269  27.869   4.568   1.715
55285W        W20270   9.430  42.280  11.770
55286W        W20271   5.224  40.937  14.867
55287W        W20272  34.883   2.394  11.216
55288W        W20273  17.474  36.835  14.428
55289W        W20274  10.905  41.678   4.470
55290W        W20275  33.366  21.943  14.290
55291W        W20276  23.458   9.902   0.362
55292W        W20277   3.845  26.282  11.566
55293W        W20278  11.551  25.229   3.625
55294W        W20279  20.209  21.666   0.227
55295W        W20280  22.133  41.307   2.755
55296W        W20281   2.009   2.723  12.408
55297W        W20282  10.779  29.632  13.315
55298W        W20283   2.852   5.629  14.384
55299W        W20284  34.914  21.544   0.014
55300W        W20285  23.564  33.421  10.352
55301W        W20286  26.408  28.061  10.737
55302W        W20287  38.835  24.589  13.956
55303W        W20288   4.219  12.746  12.035
55304W        W20289   1.787   7.649   4.651
55305W        W20290   7.465  11.525   0.145
55306W        W20291   9.299  24.593   2.674
55307W        W20292  34.576  37.667   4.089
55308W        W20293  17.585  40.530   4.085
55309W        W20294  22.674  32.084  14.776
55310W        W20295   0.603  12.566   3.133
55311W        W20296  18.018   9.604  13.483
55312W        W20297  11.047  28.649   3.811
55313W        W20298  21.116   9.487  11.712
55314W        W20299   0.314   0.002   0.685
55315W        W20300  29.345  35.544   2.921
55316W        W20301  40.899  25.931   4.756
55317W        W20302   8.270  16.331  11.883
55318W        W20303  21.704  20.642   1.254
55319W        W20304  19.129  29.857  14.984
55320W        W20305  31.889  43.992  14.901
55321W        W20306  22.648  26.092  10.687
55322W        W20307  20.126   9.146   1.950
55323W        W20308  24.015  42.262  12.487
55324W        W20309  35.889  27.007  11.469
55325W        W20310  20.170  21.974  10.217
55326W        W20311  40.600  23.629  14.330
55327W        W20312  25.930  32.164  14.927
55328W        W20313  20.626  34.142   2.849
55329W        W20314  18.116  19.372   1.797
55330W        W20315  35.976  23.023   1.580
55331W        W20316   4.213  31.191   4.021
55332W        W20317  39.798  31.330  11.975
55333W        W20318   7.744   0.440   0.856
55334W        W20319  26.461  26.473   5.374
55335W        W20320  44.280  36.140   2.767
55336W        W20321  42.810  19.567   2.366
55337W        W20322  25.581  43.257  13.684
55338W        W20323  29.476  20.609  13.478
55339W        W20324  35.028  11.439  12.871
55340W        W20325  39.639  20.410   0.446
55341W        W20326  34.967  34.622  11.819
55342W        W20327  18.514  43.898   2.857
55343W        W20328   0.988  28.138  11.585
55344W        W20329  40.867   3.310  11.502
55345W        W20330   3.103  12.348  11.699
55346W        W20331   4.981  44.841  12.808
55347W        W20332   8.297  44.754  13.315
55348W        W20333  20.954  11.687   1.728
55349W        W20334  37.854  43.492   0.492
55350W        W20335  26.417  13.285  12.867
55351W        W20336   1.366  12.409   2.906
55352W        W20337   0.463  23.795  12.409
55353W        W20338   6.002   7.325   3.597
55354W        W20339  12.061  32.863  13.537
55355W        W20340   7.677  39.320   3.282
55356W        W20341  21.413   5.440  10.851
55357W        W20342  35.423  23.314   3.208
55358W        W20343  29.889   6.672   3.212
55359W        W20344   9.829  13.190   4.166
55360W        W20345  29.602  13.415   4.078
55361W        W20346   4.010  11.996  13.792
55362W        W20347  28.340  26.095   3.805
55363W        W20348  14.716  25.176  14.519
55364W        W20349  11.323  31.912  13.412
55365W        W20350  30.641   3.159  12.366
55366W        W20351  15.898  26.555   4.943
55367W        W20352  12.347  22.573  13.494
55368W        W20353  16.682  23.706   1.326
55369W        W20354   5.897  31.409  14.348
55370W        W20355  28.457  15.365  13.583
55371W        W20356   6.341  38.340   0.330
55372W        W20357  40.280  13.091  13.956
55373W        W20358  44.954  35.187   4.317
55374W        W20359  37.604  38.364   1.412
55375W        W20360  41.476  35.221  11.601
55376W        W20361  35.597   9.710   1.369
55377W        W20362  12.778  38.882  14.277
55378W        W20363  17.054  34.969   4.966
55379W        W20364  39.408  20.853   4.416
55380W        W20365  21.185  37.769  10.402
55381W        W20366  28.995  17.093  11.482
55382W        W20367  21.436  18.017   1.129
55383W        W20368  22.075  20.555   0.825
55384W        W20369  37.590  44.969   4.954
55385W        W20370  29.682  23.544   3.257
55386W        W20371  12.188  24.424   2.920
55387W        W20372  31.099  10.674  10.970
55388W        W20373  13.238  25.258   0.286
55389W        W20374  18.701  35.974  10.430
55390W        W20375  37.389  44.811  10.634
55391W        W20376  31.471   7.540  13.053
55392W        W20377  38.406  29.133  11.121
55393W        W20378   6.700  26.495   4.738
55394W        W20379  39.374  13.616  10.635
55395W        W20380  21.054  12.659  14.874
55396W        W20381  22.777   3.955  10.642
55397W        W20382  22.004  25.659  11.065
55398W        W20383  11.174   1.040   0.822
55399W        W20384  36.245   5.297   3.243
55400W        W20385  10.371  28.468   3.126
55401W        W20386   0.033  37.613   1.349
55402W        W20387  24.377  29.696   4.937
55403W        W20388  31.693  35.521  11.483
55404W        W20389   1.281  13.140   3.394
55405W        W20390   1.360  21.235  13.483
55406W        W20391  32.577   1.988  11.343
55407W        W20392  27.191  10.961   1.254
55408W        W20393  44.263   2.958   0.257
55409W        W20394  21.605   1.984   2.789
55410W        W20395  32.843   5.171  10.772
55411W        W20396  38.444   9.361  11.552
55412W        W20397  31.911   6.239   0.340
55413W        W20398  11.349  40.520  10.489
55414W        W20399  30.084   4.361  10.694
55415W        W20400  43.422  10.780  13.605
55416W        W20401   0.950  22.686  11.029
55417W        W20402  23.300  15.296   4.540
55418W        W20403  42.563  29.159  11.990
55419W        W20404   2.978  31.990  14.310
55420W        W20405  35.550   9.119  12.525
55421W        W20406  21.996  11.135   4.489
55422W        W20407  42.011  13.632   0.640
55423W        W20408  28.123   6.640  13.884
55424W        W20409  37.130  26.759  14.985
55425W        W20410  32.480  16.792   0.269
55426W        W20411  13.327  24.507  13.971
55427W        W20412   3.962  14.998  11.013
55428W        W20413  28.375  27.137  14.317
55429W        W20414  28.101  39.876  10.710
55430W        W20415  16.647  43.432   4.928
55431W        W20416  32.469  41.288   2.162
55432W        W20417  39.275  18.197  11.600
55433W        W20418   0.218   7.165   2.099
55434W        W20419  27.562  21.640   2.865
55435W        W20420  39.941   6.770   2.598
55436W        W20421  43.738  28.137   4.459
55437W        W20422   4.684  22.684   3.713
55438W        W20423  13.937   0.502  14.420
55439W        W20424  39.000  22.086  14.824
55440W        W20425  36.483  14.331   0.690
55441W        W20426  31.133  22.246   2.561
55442W        W20427   3.933  29.164  11.488
55443W        W20428  13.751  36.438  13.960
55444W        W20429  13.110  22.249   4.912
55445W        W20430  34.565   5.747  12.097
55446W        W20431  18.284   6.557   3.675
55447W        W20432  24.520  33.938  11.757
55448W        W20433   4.487  40.427   4.152
55449W        W20434   5.371  44.092  12.416
55450W        W20435  28.045   3.861   3.393
55451W        W20436  24.297  37.348  11.620
55452W        W20437  10.422  41.331   0.308
55453W        W20438  30.457  42.370  14.668
55454W        W20439  29.204  36.377   2.794
55455W        W20440  38.802  44.007   2.772
55456W        W20441  42.496  30.635   2.250
55457W        W20442   3.258  43.336  10.991
55458W        W20443  27.112   0.496   0.828
55459W        W20444  39.878  25.771   1.701
55460W        W20445   3.849  23.258   2.717
55461W        W20446  14.730  40.233   3.063
55462W        W20447   0.823  23.070   4.723
55463W        W20448   5.214   5.158   0.423
55464W        W20449  24.434  39.426  10.742
55465W        W20450  37.510  16.960  11.653
55466W        W20451   7.230   0.038   1.731
55467W        W20452   1.847  17.784   0.509
55468W        W20453  10.602  16.563   4.591
55469W        W20454  13.970  25.866  12.496
55470W        W20455  11.730  15.740  12.267
55471W        W20456  25.646   4.635   1.323
55472W        W20457  43.363  38.085   0.810
55473W        W20458  34.191  18.966   2.594
55474W        W20459   5.952  30.613  14.163
55475W        W20460  42.260  19.625  10.245
55476W        W20461  30.902   6.182  14.747
55477W        W20462  24.733  44.873   2.319
55478W        W20463  43.508  15.283   1.277
55479W        W20464  29.682   0.014  12.025
55480W        W20465  36.251  20.756  12.697
55481W        W20466  33.190  17.538   2.688
55482W        W20467  32.137   1.465   5.000
55483W        W20468  32.002  37.050   3.726
55484W        W20469  15.424  11.363  11.156
55485W        W20470  17.189  37.577   1.363
55486W        W20471  40.267   6.792  14.466
55487W        W20472   0.395  17.275   3.653
55488W        W20473  21.577  33.651   0.844
55489W        W20474   2.892  10.332  12.193
55490W        W20475  41.952  27.244   3.197
55491W        W20476  35.327   1.475  11.377
55492W        W20477  29.434   2.268   1.734
55493W        W20478   0.034  29.591  14.321
55494W        W20479  10.231  23.023  12.678
55495W        W20480   0.204  19.410  12.140
55496W        W20481  20.956  43.547  13.002
55497W        W20482  10.209   7.360   2.249
55498W        W20483  33.285  35.847   0.889
55499W        W20484   6.352  26.083  13.607
55500W        W20485  10.444  11.026   4.327
55501W        W20486  23.234  27.053   3.628
55502W        W20487   1.747  12.772  10.774
55503W        W20488  16.399  36.013   4.718
55504W        W20489   7.453  14.311   4.063
55505W        W20490  17.786  14.381  10.732
55506W        W20491  27.920  22.713   4.576
55507W        W20492   9.677  24.443   2.346
55508W        W20493   5.321  11.220  10.919
55509W        W20494  22.047   6.284  13.968
55510W        W20495  19.778   0.754   0.931
55511W        W20496  17.134  40.130   1.336
55512W        W20497  35.366  23.207  13.260
55513W        W20498   4.286   4.797   4.945
55514W        W20499  20.572   3.024  12.022
55515W        W20500  40.817  28.993  14.964
55516W        W20501  10.188  15.105   1.017
55517W        W20502   2.479   3.284   4.729
55518W        W20503  31.956   5.884   3.299
55519W        W20504  29.527  31.496  12.413
55520W        W20505  31.300   5.685   2.821
55521W        W20506  18.195  10.140  10.050
55522W        W20507  15.720   8.698  14.831
55523W        W20508  27.159  18.434  10.765
55524W        W20509  18.457  42.245   3.952
55525W        W20510  40.040  32.589   1.415
55526W        W20511   8.612  34.353  14.244
55527W        W20512   6.178  37.002  13.958
55528W        W20513   5.978  40.962  13.365
55529W        W20514   2.805  19.859  14.849
55530W        W20515  33.351   8.187   1.265
55531W        W20516   4.857   8.680   3.939
55532W        W20517  12.133  34.526   1.919
55533W        W20518  26.871   2.340   0.269
55534W        W20519   0.177  11.851   2.273
55535W        W20520  24.438  15.141   3.221
55536W        W20521  33.148   7.217  11.979
55537W        W20522   8.138  31.873   4.050
55538W        W20523   3.320  34.112   3.329
55539W        W20524  28.124  43.529   2.411
55540W        W20525   7.424  18.907  14.755
55541W        W20526   2.043  17.369  11.041
55542W        W20527   5.730  27.244   2.864
55543W        W20528  17.341  34.329   4.089
55544W        W20529  24.215   5.663   1.910
55545W        W20530   9.635  40.248   4.109
55546W        W20531  13.167  23.212  12.605
55547W        W20532  41.543  33.824   0.375
55548W        W20533  11.437  38.125   4.621
55549W        W20534   3.655  14.336  12.952
55550W        W20535  24.493  38.641   2.918
55551W        W20536   0.221  41.333   4.618
55552W        W20537   7.395   6.733  13.536
55553W        W20538  22.160  20.139   4.565
55554W        W20539  12.781  29.394  10.143
55555W        W20540  33.779  32.300   0.740
55556W        W20541   2.405  37.800  13.527
55557W        W20542  35.076  21.070   5.052
55558W        W20543   5.246  44.581   4.152
55559W        W20544  11.821  33.344   3.180
55560W        W20545  20.886  43.462   4.509
55561W        W20546  35.202   0.305  12.576
55562W        W20547  38.929   4.543  11.246
55563W        W20548  17.117  22.236   2.328
55564W        W20549   3.857  16.555  14.324
55565W        W20550   9.982   8.592  14.370
55566W        W20551  17.584  34.983  12.801
55567W        W20552   4.053  29.586   4.145
55568W        W20553  36.892   8.961   2.764
55569W        W20554  26.288   4.427   3.211
55570W        W20555  26.426  40.786  13.558
55571W        W20556  40.805   5.688  14.922
55572W        W20557  19.906  28.790   3.254
55573W        W20558  43.940  39.817   4.498
55574W        W20559  28.578   2.959   0.238
55575W        W20560  38.790   1.031  11.471
55576W        W20561  30.004  18.923   4.016
55577W        W20562  21.724  33.615   1.734
55578W        W20563  34.045   9.613   0.845
55579W        W20564  31.350  29.978   2.329
55580W        W20565   5.683  26.599  14.856
55581W        W20566  20.537  22.532   0.392
55582W        W20567  30.411  30.977  10.637
55583W        W20568  31.140  26.797   0.063
55584W        W20569  43.357  19.324  12.163
55585W        W20570  36.507  12.482  11.364
55586W        W20571  33.323  16.660  14.041
55587W        W20572   8.305  34.834   3.837
55588W        W20573  42.596  43.965  10.680
55589W        W20574  20.555   8.309  11.956
55590W        W20575   7.220  33.443   4.333
55591W        W20576  31.644  44.692  10.363
55592W        W20577  18.242  12.356  10.672
55593W        W20578  25.998  32.405   4.005
55594W        W20579  29.435   6.950  12.035
55595W        W20580  17.199  33.763  10.240
55596W        W20581  29.620  10.080  11.403
55597W        W20582  14.221   1.696  13.766
55598W        W20583  30.678  31.413   4.869
55599W        W20584  20.722   0.238   3.106
55600W        W20585  25.998  42.549   3.352
55601W        W20586   1.377  15.325  14.896
55602W        W20587  24.457  13.733  10.603
55603W        W20588  35.742  27.561   0.006
55604W        W20589  19.967  33.274  13.651
55605W        W20590   6.227   8.849  10.456
55606W        W20591  20.730  10.584   1.193
55607W        W20592  31.613  26.431  12.859
55608W        W20593  13.590  10.763   4.956
55609W        W20594  33.309  38.129   0.738
55610W        W20595  22.502  28.546  13.832
55611W        W20596  17.145  20.492  13.938
55612W        W20597  12.648  37.413   3.141
55613W        W20598  20.469  31.969  11.668
55614W        W20599  15.723  14.393  13.035
55615W        W20600  16.778   7.898   4.127
55616W        W20601  20.562  20.748  13.603
55617W        W20602  41.220  37.122   3.842
55618W        W20603  27.650   4.602   2.763
55619W        W20604  12.225  40.890  11.233
55620W        W20605   3.865  24.876  12.092
55621W        W20606  35.587   2.310   2.696
55622W        W20607  22.141  16.045  13.977
55623W        W20608  36.083  19.555  13.262
55624W        W20609  29.070  17.100   2.352
55625W        W20610  34.554  32.162  12.476
55626W        W20611   3.874  19.035   0.371
55627W        W20612  10.369  14.625   0.324
55628W        W20613  36.612   6.483  14.930
55629W        W20614  38.522  11.189  11.757
55630W        W20615  23.497  39.499   1.027
55631W        W20616  27.229  10.799  11.069
55632W        W20617  20.161  26.792  11.960
55633W        W20618  26.763  15.747  13.329
55634W        W20619  13.327  33.702  12.554
55635W        W20620  27.369  43.154   1.938
55636W        W20621   2.367  44.876   3.760
55637W        W20622  12.818  34.432  13.494
55638W        W20623  17.826  25.836   2.584
55639W        W20624   4.831  27.075  10.564
55640W        W20625  39.370  19.037   1.195
55641W        W20626  17.595  38.314   2.392
55642W        W20627  21.227  23.766   1.413
55643W        W20628  29.016   6.353   1.575
55644W        W20629  38.069   1.267  12.066
55645W        W20630  15.216  42.551   2.612
55646W        W20631  26.012   5.936   4.596
55647W        W20632  43.364   2.414   0.480
55648W        W20633  23.374  22.467  12.877
55649W        W20634  31.828  27.327   3.409
55650W        W20635  15.094  39.277  14.876
55651W        W20636   7.528  18.435  10.279
55652W        W20637  36.210  15.186  11.696
55653W        W20638  32.162  17.239  14.435
55654W        W20639  34.046  37.323  13.218
55655W        W20640  31.917  41.006   3.879
55656W        W20641  19.789  42.029   4.187
55657W        W20642   5.201  34.135  12.939
55658W        W20643  11.665  13.519   0.898
55659W        W20644   2.705   3.787   4.033
55660W        W20645  17.121  10.056  12.190
55661W        W20646   9.723  21.048  10.556
55662W        W20647  27.269  15.876  14.301
55663W        W20648  10.590   7.691  12.913
55664W        W20649   6.337  40.374   4.641
55665W        W20650  11.680   6.145  13.566
55666W        W20651  44.746  43.911  14.476
55667W        W20652  21.624  15.555   1.883
55668W        W20653  21.262  40.388   3.096
55669W        W20654   0.388  12.212   1.955
55670W        W20655   9.153  43.976   4.263
55671W        W20656  16.079  21.943   2.951
55672W        W20657   4.966  11.239  13.592
55673W        W20658  21.615  24.687  11.033
55674W        W20659  18.323  24.902  14.288
55675W        W20660  33.780  26.758  12.809
55676W        W20661  32.413  28.982  10.659
55677W        W20662  14.674   8.519   2.796
55678W        W20663  26.454  10.307  12.229
55679W        W20664  41.844  31.126  14.051
55680W        W20665  14.394  10.681   3.268
55681W        W20666   7.783  15.706  10.920
55682W        W20667  20.322  20.212   0.361
55683W        W20668  18.126  12.396   4.182
55684W        W20669  34.379   4.929  13.936
55685W        W20670   0.583  36.977  11.556
55686W        W20671  33.349   3.451   0.313
55687W        W20672  20.196  25.524  13.952
55688W        W20673  42.279   0.498  14.349
55689W        W20674  41.052  15.167   1.277
55690W        W20675  39.363  24.520  12.704
55691W        W20676   6.196  32.669   2.317
55692W        W20677  18.080  23.654   2.759
55693W        W20678   9.317  39.016  14.711
55694W        W20679   1.823  19.244  12.859
55695W        W20680  34.018   6.800   5.491
55696W        W20681  14.518   7.266   3.182
55697W        W20682   9.097  26.564  13.771
55698W        W20683  10.447  18.564  10.702
55699W        W20684  12.756   1.133  12.169
55700W        W20685  41.538  38.934  12.555
55701W        W20686  11.244   0.361  10.666
55702W        W20687  26.856  24.565   4.578
55703W        W20688  42.107  15.964   1.832
55704W        W20689  13.323  12.716   3.078
55705W        W20690  41.739   3.999  14.909
55706W        W20691   3.499   8.962   4.129
55707W        W20692  21.715   5.694   1.707
55708W        W20693  36.344  37.154   1.890
55709W        W20694  11.084  43.251   0.497
55710W        W20695  17.990  34.315  12.015
55711W        W20696  37.052   5.666  11.366
55712W        W20697   2.498  26.443  12.531
55713W        W20698   3.710  44.872  12.514
55714W        W20699   1.481  41.803   1.220
55715W        W20700  14.174  28.168  13.390
55716W        W20701  29.198  37.703   2.644
55717W        W20702  36.548  34.099  11.448
55718W        W20703  27.820  36.421   3.341
55719W        W20704  19.298   2.454  14.859
55720W        W20705  18.785  34.960   4.962
55721W        W20706  37.151  11.897   1.077
55722W        W20707  34.859   9.969  14.453
55723W        W20708   0.244   1.194  14.345
55724W        W20709  35.371   3.468  11.997
55725W        W20710  23.316  38.564   0.765
55726W        W20711  21.676  44.850   0.886
55727W        W20712  42.392  30.232   3.477
55728W        W20713  44.034  41.462  13.919
55729W        W20714  12.106   2.676  12.862
55730W        W20715  24.625   9.756  13.978
55731W        W20716  24.733  13.873  13.902
55732W        W20717  39.436  22.084   4.097
55733W        W20718  38.374  18.128  10.073
55734W        W20719  20.004  40.866   1.823
55735W        W20720  18.517  32.150  10.866
55736W        W20721  44.103  34.887  14.787
55737W        W20722  41.891  29.062   9.651
55738W        W20723  16.555  25.663   0.226
55739W        W20724  26.653  44.403  13.539
55740W        W20725  19.058  17.111  10.558
55741W        W20726  12.740  22.205  12.838
55742W        W20727  37.915  32.642  13.184
55743W        W20728  31.708  19.244  13.997
55744W        W20729  27.125   3.550  14.043
55745W        W20730  17.057  38.071  12.526
55746W        W20731  26.460  21.828  12.839
55747W        W20732  11.635  14.779  12.134
55748W        W20733   4.189  23.060   1.459
55749W        W20734  16.803  40.979   2.199
55750W        W20735  13.841   7.353  13.226
55751W        W20736   3.642  43.336  10.656
55752W        W20737  21.206   7.174  14.330
55753W        W20738   5.001   2.838  14.349
55754W        W20739   7.589  37.411  14.407
55755W        W20740  22.259   8.659   0.843
55756W        W20741   5.696  42.051  12.059
55757W        W20742  18.848   1.801   3.259
55758W        W20743  18.204  23.965   3.613
55759W        W20744   8.331  39.275   0.948
55760W        W20745   8.239  31.021  10.711
55761W        W20746  23.625   8.285   3.285
55762W        W20747  38.834  35.465  12.545
55763W        W20748  18.704  36.522   1.694
55764W        W20749  44.449   1.728   9.987
55765W        W20750  14.239  19.230  12.003
55766W        W20751  32.336  37.578   4.437
55767W        W20752   1.331   5.915   0.192
55768W        W20753   1.893  25.203  13.764
55769W        W20754   2.631   9.185  10.312
55770W        W20755  18.800  25.993  13.123
55771W        W20756  11.260  21.724  13.376
55772W        W20757  18.657  13.187   1.775
55773W        W20758   4.597  18.247  10.447
55774W        W20759  39.537   0.349  11.524
55775W        W20760  44.949   4.662   2.951
55776W        W20761  14.094  42.736  11.520
55777W        W20762  12.773  31.836   0.982
55778W        W20763  41.987  41.371  13.363
55779W        W20764  31.367   9.891  14.409
55780W        W20765  19.584  22.027  10.162
55781W        W20766  19.297  17.045   5.378
55782W        W20767  15.307   0.499   4.328
55783W        W20768  13.532   7.217   4.995
55784W        W20769   8.732  27.538   4.830
55785W        W20770  38.382  20.780  11.084
55786W        W20771  10.167  31.679   4.114
55787W        W20772  15.834  13.098  11.938
55788W        W20773  37.209  18.738   3.705
55789W        W20774   6.919  21.127  12.848
55790W        W20775  31.706  21.083  14.752
55791W        W20776  31.578  24.168   0.798
55792W        W20777  22.803   8.844   4.570
55793W        W20778   0.508  20.707   0.345
55794W        W20779   2.539  17.195  10.968
55795W        W20780  23.639  29.636   1.973
55796W        W20781  23.444   1.979  12.066
55797W        W20782  36.959   3.213   3.824
55798W        W20783  22.005   7.834  11.144
55799W        W20784  32.975  31.432   0.349
55800W        W20785  30.593  24.295   0.704
55801W        W20786  19.546  42.431   1.918
55802W        W20787  42.334  14.602  12.115
55803W        W20788  34.987  34.911  14.271
55804W        W20789   3.201  22.131  12.940
55805W        W20790  11.697  17.063   3.306
55806W        W20791  35.585  23.162   0.271
55807W        W20792  23.691  37.357  14.461
55808W        W20793   9.901  33.529  13.737
55809W        W20794  19.731  34.901   2.228
55810W        W20795  34.552   4.781  11.122
55811W        W20796  14.368  21.284   1.019
55812W        W20797  16.616  15.693  13.899
55813W        W20798  44.714   5.769  14.914
55814W        W20799  33.464  36.913   1.425
55815W        W20800  42.834   1.024   2.590
55816W        W20801  41.010  40.797  12.951
55817W        W20802   0.330  38.926  10.624
55818W        W20803   9.859  19.825   2.732
55819W        W20804  15.181  22.230   0.781
55820W        W20805  28.113  29.533   2.270
55821W        W20806  32.687  17.677   2.699
55822W        W20807  25.236  20.859  11.159
55823W        W20808  37.634  23.795   2.170
55824W        W20809  21.538  43.284  11.969
55825W        W20810  25.950  16.862  10.823
55826W        W20811  10.323  18.045  14.003
55827W        W20812   5.005   3.370   2.946
55828W        W20813  27.706  12.742   3.557
55829W        W20814   8.979  25.616   1.830
55830W        W20815  40.046  32.038   0.109
55831W        W20816  13.826  29.528  11.895
55832W        W20817   5.861   5.795   2.367
55833W        W20818  39.101  19.595   1.869
55834W        W20819   9.888  18.075  12.491
55835W        W20820   7.721  21.582  13.333
55836W        W20821  33.451  13.277   1.104
55837W        W20822  39.752  30.708   4.132
55838W        W20823  24.726  39.544  12.942
55839W        W20824  14.191  25.516  11.520
55840W        W20825  33.465  16.401   0.422
55841W        W20826  13.226  23.949  13.097
55842W        W20827   6.314  13.879   3.169
55843W        W20828  11.422  22.051   2.718
55844W        W20829  14.576  11.679   2.585
55845W        W20830  29.395  39.393  13.809
55846W        W20831   3.847  37.590   1.530
55847W        W20832  20.761   9.799   2.041
55848W        W20833  11.467  41.392   3.268
55849W        W20834  40.046  38.068  14.885
55850W        W20835   5.327  27.635   0.618
55851W        W20836  42.271  27.355  11.584
55852W        W20837   1.380  34.117   2.308
55853W        W20838  26.987  43.020  14.729
55854W        W20839  41.984  32.234   2.192
55855W        W20840  31.811  13.084   0.425
55856W        W20841  24.754   2.472   5.401
55857W        W20842   0.019  34.340   3.158
55858W        W20843  12.875  21.626   0.904
55859W        W20844  24.947  23.441  13.867
55860W        W20845  36.503  17.524   1.380
55861W        W20846  42.407   1.480  11.393
55862W        W20847  20.937  10.072  13.325
55863W        W20848  19.225   7.234  14.045
55864W        W20849  41.853  18.619   4.177
55865W        W20850  31.612  20.490  10.691
55866W        W20851   6.075   5.182  14.990
55867W        W20852  39.974  42.909  14.935
55868W        W20853   9.896  42.997   3.743
55869W        W20854  13.565   0.790  12.539
55870W        W20855  28.561   7.250   4.352
55871W        W20856  16.221  21.498   3.290
55872W        W20857   3.211  40.024   4.819
55873W        W20858  25.241  15.773  14.441
55874W        W20859  26.877   8.926  12.052
55875W        W20860  35.733  28.132   3.341
55876W        W20861   2.032  26.193   5.018
55877W        W20862  25.452  14.670   0.427
55878W        W20863  36.624  12.877  13.979
55879W        W20864  25.776  27.975  11.585
55880W        W20865   4.781   1.384   3.780
55881W        W20866  13.605  22.180   4.752
55882W        W20867  27.917  15.584  14.780
55883W        W20868  41.881  17.125  11.476
55884W        W20869   2.659   1.189   3.617
55885W        W20870   7.917  36.810  10.832
55886W        W20871   8.435  44.484  11.214
55887W        W20872  43.053  28.971  13.406
55888W        W20873  39.714  22.659  10.835
55889W        W20874   7.424  19.778   0.631
55890W        W20875  42.011  11.898  11.035
55891W        W20876  31.434  22.722  11.733
55892W        W20877  43.837  27.057   2.054
55893W        W20878  30.173  41.767  12.956
55894W        W20879   1.595   3.303  10.313
55895W        W20880  20.699  34.565   4.694
55896W        W20881  28.055  26.566   3.744
55897W        W20882   8.159  30.636   0.758
55898W        W20883  38.623  11.831   3.882
55899W        W20884  21.527  11.062   4.716
55900W        W20885  16.586  30.359  12.960
55901W        W20886  39.997   9.268  14.250
55902W        W20887  26.292  20.830   4.570
55903W        W20888  13.306   6.376   0.513
55904W        W20889  12.306  22.997   3.249
55905W        W20890   3.777  34.154   3.555
55906W        W20891   0.600  10.731  12.957
55907W        W20892  19.138  34.793   3.024
55908W        W20893  37.196  13.130  11.158
55909W        W20894  15.808  24.192   1.187
55910W        W20895   6.937  34.423   1.936
55911W        W20896  23.662  20.566   0.409
55912W        W20897  43.913  22.774   3.256
55913W        W20898  16.265  10.338  11.745
55914W        W20899  15.366  40.879   4.738
55915W        W20900  41.061  25.284  12.150
55916W        W20901  38.136  27.157  11.890
55917W        W20902  44.860  31.786  11.950
55918W        W20903  32.600  41.416   3.347
55919W        W20904   1.692   5.951  14.800
55920W        W20905  12.733  43.484   0.190
55921W        W20906   4.367  37.077   3.741
55922W        W20907  14.708  30.371  11.810
55923W        W20908  17.188   3.704  14.268
55924W        W20909  44.145   6.644  12.920
55925W        W20910  44.613  20.160  11.056
55926W        W20911  15.715  10.904  12.904
55927W        W20912  42.751   9.205   4.335
55928W        W20913  27.957   4.623  10.723
55929W        W20914   8.847   3.671   2.669
55930W        W20915  32.204  16.705   1.791
55931W        W20916  11.781  30.014   4.933
55932W        W20917   5.433  37.676  11.091
55933W        W20918   4.476  30.833   1.962
55934W        W20919  17.182  37.809  10.515
55935W        W20920  12.675   4.697   4.511
55936W        W20921   3.088  18.303  10.820
55937W        W20922   4.497  17.283  12.983
55938W        W20923   3.111  39.789  14.226
55939W        W20924   3.294  17.137   0.376
55940W        W20925  44.543  43.925  11.184
55941W        W20926   2.699  20.024   2.809
55942W        W20927   0.846  15.765  12.532
55943W        W20928  24.058   8.757  13.577
55944W        W20929  39.781  20.732   2.842
55945W        W20930  43.847   6.923  11.974
55946W        W20931   9.132  19.618   0.807
55947W        W20932  24.440  42.742   3.560
55948W        W20933   2.672   5.143  12.104
55949W        W20934  12.948   6.427   0.857
55950W        W20935  19.098   3.190   1.781
55951W        W20936   0.811  26.995  10.857
55952W        W20937  10.869  40.236   0.832
55953W        W20938   3.911  17.786  13.551
55954W        W20939  43.583   7.892  11.164
55955W        W20940  13.335  44.307   0.033
55956W        W20941  41.049  20.319   0.336
55957W        W20942  12.796   1.713  13.542
55958W        W20943   5.119  28.040   3.821
55959W        W20944   2.851  31.502  13.568
55960W        W20945  19.205  22.720   1.371
55961W        W20946  14.237  14.564  12.566
55962W        W20947  36.563  12.496  14.934
55963W        W20948  11.600  31.907   3.332
55964W        W20949   5.002  17.304   0.674
55965W        W20950  19.458   5.096   2.697
55966W        W20951   0.984  37.117  11.954
55967W        W20952  18.059   7.513   1.268
55968W        W20953   9.605  22.328   3.244
55969W        W20954  20.250  13.682   0.038
55970W        W20955   6.716  20.721   0.029
55971W        W20956  34.173   2.142  14.755
55972W        W20957  22.180   7.287   1.312
55973W        W20958  28.464  13.271  13.845
55974W        W20959  31.234  23.054  12.056
55975W        W20960  33.137  36.771  12.080
55976W        W20961  36.895  14.775  14.007
55977W        W20962  14.844  25.302  12.112
55978W        W20963  40.529  43.899   3.768
55979W        W20964   0.186  14.571   3.754
55980W        W20965  34.401   5.058  10.714
55981W        W20966  34.111  11.767  11.117
55982W        W20967  24.526  42.283   3.287
55983W        W20968  12.335   6.212   4.546
55984W        W20969  13.104   8.017   0.947
55985W        W20970  26.145  35.628   1.360
55986W        W20971  12.691  34.131   2.161
55987W        W20972   5.753   9.999  13.300
55988W        W20973  24.234  19.608  14.660
55989W        W20974  19.702  22.095   0.786
55990W        W20975  27.583   8.277  11.145
55991W        W20976   5.922  23.573  10.739
55992W        W20977  43.267   7.242   2.836
55993W        W20978   0.854  43.242  11.804
55994W        W20979  36.060  13.745  13.493
55995W        W20980   6.162  25.892   4.632
55996W        W20981  34.518  27.286   3.407
55997W        W20982   1.450  17.596   4.620
55998W        W20983  32.943  22.225  14.951
55999W        W20984  23.747  15.250   0.078
56000W        W20985  11.707  25.416  11.562
56001W        W20986  24.263  44.991  14.405
56002W        W20987  28.962   6.540   1.091
56003W        W20988  38.882   5.853   3.865
56004W        W20989  10.825  23.186  12.374
56005W        W20990  21.283  23.627  11.164
56006W        W20991  27.304  37.461   5.087
56007W        W20992   2.875  32.411   1.986
56008W        W20993  14.846  32.921  11.462
56009W        W20994   9.434  21.606  14.987
56010W        W20995  13.513  40.677   0.718
56011W        W20996  42.105  21.142  13.914
56012W        W20997  11.657  11.196   3.581
56013W        W20998  14.329  32.882  12.631
56014W        W20999  38.525   3.310   0.558
56015W        W21000  44.319  34.904  11.971
56016W        W21001   3.785  39.084   4.006
56017W        W21002  39.671  34.884   2.800
56018W        W21003  40.956  37.148   4.275
56019W        W21004  36.927  22.232   0.972
56020W        W21005   5.230  43.272   0.918
56021W        W21006  26.051  26.993  13.012
56022W        W21007  41.524   1.155  11.173
56023W        W21008  29.646   4.966  11.122
56024W        W21009  14.376   4.277  10.634
56025W        W21010   4.667  32.304  12.426
56026W        W21011  21.422   7.701   0.421
56027W        W21012  34.482  37.818  14.154
56028W        W21013  11.344  17.244  13.384
56029W        W21014   1.224  44.891  11.241
56030W        W21015  23.479  21.518   1.447
56031W        W21016  44.025   3.291  11.715
56032W        W21017  17.530  32.695   2.286
56033W        W21018  17.197   6.715   1.700
56034W        W21019  28.866  35.485   3.086
56035W        W21020  11.673  27.167  11.587
56036W        W21021  30.435   7.122  13.774
56037W        W21022  43.699   5.335   3.022
56038W        W21023  26.667  17.156  14.036
56039W        W21024   9.155   0.634  11.978
56040W        W21025  42.422   1.258  13.372
56041W        W21026  24.802  24.981  14.968
56042W        W21027  22.109   4.856  14.790
56043W        W21028  28.433  14.759  12.016
56044W        W21029  18.556  20.713  10.718
56045W        W21030  26.932  29.235  13.704
56046W        W21031   8.897  40.208   4.192
56047W        W21032  28.655  26.740   4.290
56048W        W21033  24.926  27.419   1.291
56049W        W21034   7.838  36.907   3.131
56050W        W21035  18.119   8.418  11.105
56051W        W21036  23.151   6.749  11.183
56052W        W21037  28.972  34.795  12.419
56053W        W21038   5.383  33.953  14.855
56054W        W21039  17.515  38.587   4.584
56055W        W21040  23.272  20.476  13.886
56056W        W21041  31.281  14.867   4.046
56057W        W21042  15.152  18.007  12.542
56058W        W21043  42.794  35.791   0.765
56059W        W21044  39.184  33.524   3.820
56060W        W21045  43.703  12.583   0.961
56061W        W21046  34.198  14.081   4.227
56062W        W21047   8.334  27.062   4.171
56063W        W21048  17.340  17.808  11.142
56064W        W21049  39.213  26.213   0.353
56065W        W21050  38.507  12.586   0.735
56066W        W21051  42.482  15.642  10.913
56067W        W21052  14.057  43.173   3.667
56068W        W21053  16.268  31.689  11.111
56069W        W21054  28.959  13.388  13.579
56070W        W21055   4.406  14.880   3.130
56071W        W21056  35.062  26.441  13.796
56072W        W21057  27.935  16.679  12.920
56073W        W21058  36.517  35.878   5.121
56074W        W21059  33.474  16.848  12.018
56075W        W21060  26.957  30.445   1.645
56076W        W21061  28.148  27.285  12.175
56077W        W21062  18.432  34.433  11.675
56078W        W21063  10.927  33.580   3.344
56079W        W21064  18.739  27.145   5.117
56080W        W21065   5.297   7.140  11.540
56081W        W21066  15.424   9.959   1.171
56082W        W21067  24.244  39.055  12.071
56083W        W21068  18.346  15.588  14.847
56084W        W21069  35.378   6.431  12.537
56085W        W21070  18.158  20.561   1.180
56086W        W21071  19.680  16.309   4.528
56087W        W21072   8.943  26.882   1.143
56088W        W21073  40.069  28.451  11.645
56089W        W21074   8.663  13.762  13.485
56090W        W21075  22.932  18.629   0.767
56091W        W21076  40.128  14.638   2.775
56092W        W21077  12.913  18.229  11.449
56093W        W21078  44.176  12.140   2.830
56094W        W21079  13.120  39.770   4.108
56095W        W21080  24.167  14.236   0.418
56096W        W21081  12.274  39.713  13.335
56097W        W21082   3.161  38.856  14.282
56098W        W21083  15.808  41.889  14.057
56099W        W21084  44.129  22.278  12.954
56100W        W21085  20.525  29.910  14.744
56101W        W21086  29.111   0.466  11.466
56102W        W21087  30.059  17.094  12.643
56103W        W21088  14.340  20.226  12.641
56104W        W21089   4.283   8.817   1.659
56105W        W21090  29.407  25.265  13.835
56106W        W21091  20.218  23.210   2.296
56107W        W21092  23.178  32.903  10.944
56108W        W21093  41.834  20.714  14.016
56109W        W21094  11.781  43.705  13.440
56110W        W21095  23.943  32.905   0.191
56111W        W21096  11.970  19.223  14.255
56112W        W21097  27.392  31.096   0.895
56113W        W21098  17.273  30.416  11.271
56114W        W21099  13.844  44.435   0.001
56115W        W21100  42.413  29.408  11.533
56116W        W21101  26.615  19.619   4.337
56117W        W21102  31.492  11.811  14.903
56118W        W21103   2.672  17.643   4.012
56119W        W21104  11.403   5.952  13.946
56120W        W21105  37.474  20.949   0.161
56121W        W21106  44.445  18.441   2.793
56122W        W21107   3.372   7.776   1.831
56123W        W21108  24.942   5.249  14.700
56124W        W21109  39.756  38.415   2.246
56125W        W21110  22.474  38.436  10.582
56126W        W21111   1.999  13.813   3.264
56127W        W21112  25.431   2.872   3.217
56128W        W21113   8.856   2.220   0.892
56129W        W21114  33.785  25.433  12.892
56130W        W21115  40.490  24.971  11.570
56131W        W21116  40.919  34.458  12.109
56132W        W21117  18.437  25.168   2.239
56133W        W21118  41.292  21.527  12.013
56134W        W21119  11.831  42.281  13.408
56135W        W21120  34.987  16.394  12.873
56136W        W21121  28.764   0.935  13.087
56137W        W21122  28.199  21.243   1.882
56138W        W21123  29.099   0.237  13.949
56139W        W21124   3.929  33.376  13.303
56140W        W21125  28.012  33.416  12.089
56141W        W21126  23.322   8.810   4.606
56142W        W21127   1.564   2.535  12.015
56143W        W21128  17.282  15.779  13.502
56144W        W21129  14.843   7.189   2.227
56145W        W21130   6.682   1.383  11.209
56146W        W21131  16.011  22.527  10.944
56147W        W21132  28.542  42.471   1.652
56148W        W21133   7.267  24.768  13.940
56149W        W21134  11.413  33.338  11.817
56150W        W21135  35.656  27.984  11.211
56151W        W21136  39.831  41.395   4.639
56152W        W21137  42.286  27.175   2.805
56153W        W21138  12.268  18.574  12.442
56154W        W21139  37.957  27.713   0.981
56155W        W21140  37.716  10.648  10.703
56156W        W21141  17.179  12.549   5.000
56157W        W21142  43.811   5.357   2.530
56158W        W21143  37.636  23.275   2.135
56159W        W21144  13.275  11.382   3.407
56160W        W21145   8.866  23.898   5.116
56161W        W21146  44.703  28.140  10.500
56162W        W21147  12.614   0.672   1.348
56163W        W21148  40.699  15.305   2.664
56164W        W21149  21.106   7.187  12.893
56165W        W21150  24.383  17.653   0.334
56166W        W21151  26.694  40.109   0.296
56167W        W21152   4.911  16.439  14.428
56168W        W21153  33.528  30.034  11.488
56169W        W21154  31.360  11.502  10.294
56170W        W21155   6.939   3.841  11.174
56171W        W21156  18.303  42.635   4.820
56172W        W21157  32.329  21.656  10.566
56173W        W21158  15.439  41.408   0.018
56174W        W21159   6.642  39.217  11.180
56175W        W21160  37.099  41.825  11.991
56176W        W21161   3.282  31.571   2.416
56177W        W21162  29.770  29.400   0.454
56178W        W21163  37.174  24.781   2.876
56179W        W21164   2.421  34.916  13.048
56180W        W21165  10.467  24.168   2.101
56181W        W21166  10.164  21.003   0.213
56182W        W21167  21.706  39.364   0.886
56183W        W21168  31.713  44.952  14.909
56184W        W21169  30.962  25.600  13.567
56185W        W21170  29.252  36.801   0.567
56186W        W21171   9.317  41.971   2.638
56187W        W21172  28.745  20.618   2.160
56188W        W21173  11.180  34.575  11.285
56189W        W21174  26.891  44.891  11.103
56190W        W21175  12.928  33.135   2.381
56191W        W21176   0.647  42.727   3.712
56192W        W21177  15.062   0.597  10.790
56193W        W21178  32.067  19.323   2.402
56194W        W21179  35.352   4.056   2.361
56195W        W21180  16.158  35.568  11.635
56196W        W21181  20.194   4.201   1.865
56197W        W21182  31.266   9.659   5.389
56198W        W21183  34.180  38.068  11.991
56199W        W21184   8.452  27.866   0.498
56200W        W21185  16.128   3.418   4.810
56201W        W21186   1.754  25.633   3.819
56202W        W21187  29.635  30.424  12.436
56203W        W21188   8.920  11.108  12.960
56204W        W21189  23.653  17.789   3.058
56205W        W21190   0.378  23.770   2.398
56206W        W21191  17.777   4.794  12.234
56207W        W21192  22.632  34.592  11.402
56208W        W21193  44.782  15.189   0.856
56209W        W21194  27.099  19.017  13.551
56210W        W21195   3.264  10.548  10.559
56211W        W21196   6.676   1.212   1.729
56212W        W21197  27.502  24.490   0.423
56213W        W21198   3.924  22.792   0.394
56214W        W21199   7.211   4.866   1.205
56215W        W21200  40.246  26.239  11.589
56216W        W21201  23.582  41.807   3.411
56217W        W21202  21.226  37.069   1.743
56218W        W21203  13.609   9.390   0.829
56219W        W21204   6.661  23.726  12.999
56220W        W21205  40.215   8.793   3.698
56221W        W21206   1.272  38.843   4.604
56222W        W21207  31.684  28.257  10.617
56223W        W21208  26.514  21.503  13.992
56224W        W21209  24.540  24.483   1.800
56225W        W21210  29.813   7.244   5.065
56226W        W21211  39.755  29.497  14.483
56227W        W21212   3.474  28.201  14.226
56228W        W21213  32.333   5.752  13.887
56229W        W21214  17.440  27.675   1.210
56230W        W21215  13.214  36.671  13.562
56231W        W21216  24.849   3.197  14.403
56232W        W21217  11.141  12.005   0.926
56233W        W21218  41.109  10.372   2.793
56234W        W21219  27.255   9.434   4.193
56235W        W21220   7.165  32.053   4.132
56236W        W21221  17.596  36.063  13.878
56237W        W21222   2.756   2.844   1.803
56238W        W21223  32.178  34.750  12.588
56239W        W21224  42.267  29.650   1.305
56240W        W21225  40.037  21.958  12.991
56241W        W21226  38.993   7.883  14.701
56242W        W21227  14.592  31.844  14.519
56243W        W21228  29.210  40.862   3.305
56244W        W21229  14.623  38.758  13.024
56245W        W21230  17.966  20.607   2.138
56246W        W21231   5.312  37.905   4.966
56247W        W21232  10.233   6.468   5.466
56248W        W21233  34.993  18.724   3.585
56249W        W21234  26.069   8.376  14.758
56250W        W21235  35.389  33.064  12.594
56251W        W21236  20.753  15.071  11.132
56252W        W21237   7.185   4.877   2.630
56253W        W21238  34.121  30.539   3.027
56254W        W21239  10.819   1.577  11.979
56255W        W21240  38.310  20.943   9.771
56256W        W21241  32.963   3.204   3.767
56257W        W21242  44.341   9.065   0.156
56258W        W21243   2.159   1.481   2.531
56259W        W21244   7.631  12.350   1.388
56260W        W21245  23.634   1.361  10.980
56261W        W21246  24.877   9.783   3.290
56262W        W21247  34.006   9.651  11.591
56263W        W21248  34.675  18.638   0.904
56264W        W21249  30.652  19.674   2.207
56265W        W21250  31.157  29.654  14.770
56266W        W21251   0.258  23.679  13.065
56267W        W21252  40.879  31.689  11.042
56268W        W21253  29.151  10.639   4.527
56269W        W21254  10.380  10.341   3.762
56270W        W21255  33.113  13.547  11.507
56271W        W21256  26.075   6.703  13.774
56272W        W21257  40.798  23.233   4.127
56273W        W21258  33.992   2.458  11.234
56274W        W21259  29.707  38.746  11.116
56275W        W21260  37.831  36.523  14.032
56276W        W21261  42.865   7.287   1.867
56277W        W21262  18.337  26.206  10.986
56278W        W21263  21.186   1.677   2.728
56279W        W21264   3.828  25.914   0.360
56280W        W21265  42.426  14.399   0.115
56281W        W21266  24.823  10.082   0.588
56282W        W21267  34.554  26.060  10.975
56283W        W21268  43.041   3.874  14.331
56284W        W21269   1.580  34.303   1.837
56285W        W21270  30.447   8.621   4.230
56286W        W21271   7.470  17.559   0.817
56287W        W21272  37.378  24.707  10.605
56288W        W21273   3.199  42.359   0.783
56289W        W21274  42.475   5.664  12.344
56290W        W21275  24.563   6.937   4.095
56291W        W21276  31.063  36.987  14.865
56292W        W21277  10.794  13.294   4.554
56293W        W21278   0.525  42.825  13.397
56294W        W21279  44.021  30.136   4.810
56295W        W21280  33.129   9.686  14.723
56296W        W21281  37.041  30.842   4.678
56297W        W21282  15.149  32.527  14.286
56298W        W21283  31.211  41.246   1.786
56299W        W21284  44.327  28.498   2.501
56300W        W21285  10.883  42.333  12.449
56301W        W21286   0.475  33.934  14.947
56302W        W21287  24.970   3.481  12.045
56303W        W21288   6.104   4.232  11.998
56304W        W21289  37.995  29.699   1.195
56305W        W21290  22.618  29.846   0.456
56306W        W21291  22.488  31.997  11.197
56307W        W21292  28.558  14.599   1.260
56308W        W21293  31.386  31.586  11.069
56309W        W21294  11.088  30.609   2.729
56310W        W21295  24.530  41.389   3.285
56311W        W21296  26.737  13.367   3.665
56312W        W21297  34.450  25.242   2.710
56313W        W21298  30.066  27.834  14.156
56314W        W21299  29.080  29.556  11.124
56315W        W21300   5.904   3.741  14.039
56316W        W21301  10.886   3.320  13.479
56317W        W21302  24.816  26.562   4.704
56318W        W21303  36.057   9.773  11.557
56319W        W21304  10.168  19.057  13.959
56320W        W21305  10.279  20.670   0.946
56321W        W21306   6.868  38.279  12.024
56322W        W21307  40.394   6.529   4.008
56323W        W21308  12.152   4.418   0.865
56324W        W21309  41.912   1.868   0.010
56325W        W21310  38.272  36.607   0.380
56326W        W21311   9.379  40.794   4.635
56327W        W21312  29.418  27.031   2.943
56328W        W21313  14.704  10.252  10.526
56329W        W21314  24.043  40.288  11.754
56330W        W21315  11.044   3.254   4.605
56331W        W21316  21.149   8.436  13.522
56332W        W21317  34.464  12.585  14.315
56333W        W21318  17.474  24.241   5.039
56334W        W21319  44.845  22.040  13.511
56335W        W21320  18.548   7.905  13.964
56336W        W21321   7.763  23.760   2.340
56337W        W21322  44.840  13.998   2.753
56338W        W21323  24.618  37.609   3.238
56339W        W21324  23.507  18.226  12.371
56340W        W21325  20.612  31.703   2.868
56341W        W21326  40.689  43.706  13.885
56342W        W21327  31.308  35.037   1.278
56343W        W21328  31.680  37.722   1.378
56344W        W21329  35.421  15.284   1.216
56345W        W21330   7.195  11.189  14.214
56346W        W21331  15.319  32.029   2.663
56347W        W21332  14.106   5.424  14.242
56348W        W21333  21.502  29.207  13.013
56349W        W21334  17.157  26.003   0.759
56350W        W21335   9.497  20.563   3.868
56351W        W21336  39.121  27.211  12.236
56352W        W21337  38.873  32.520   0.957
56353W        W21338   2.335   0.703   0.879
56354W        W21339  44.625  33.089   1.291
56355W        W21340  31.096  17.680   1.005
56356W        W21341  19.098  14.257   2.341
56357W        W21342   3.223  38.508  12.623
56358W        W21343   0.952   6.748  13.531
56359W        W21344  43.978   1.818   2.491
56360W        W21345  33.492  26.548   1.357
56361W        W21346  12.431  16.573  12.489
56362W        W21347  25.257  40.852   0.385
56363W        W21348  40.884   3.881  11.462
56364W        W21349  16.261  41.778   4.281
56365W        W21350  22.309  23.926   2.372
56366W        W21351  36.283  28.980   3.253
56367W        W21352   6.653  37.464   3.662
56368W        W21353   0.425  20.553   2.051
56369W        W21354  12.969   2.884   1.065
56370W        W21355  30.099   4.144  11.158
56371W        W21356  18.883  30.687   1.345
56372W        W21357  31.944   3.572  12.968
56373W        W21358  23.259  42.281  11.457
56374W        W21359  21.248  27.577  12.104
56375W        W21360  36.861  39.313   4.341
56376W        W21361   4.348  19.691   2.240
56377W        W21362  24.002   0.471  12.343
56378W        W21363  23.537  17.044  11.959
56379W        W21364  27.645   8.344   1.628
56380W        W21365  40.195  32.885   4.489
56381W        W21366  36.249  36.269   4.932
56382W        W21367   7.379  27.106   2.664
56383W        W21368  31.866  19.028   0.918
56384W        W21369  11.101  36.457   0.417
56385W        W21370  35.667  17.699  10.748
56386W        W21371   8.761  13.635   4.792
56387W        W21372  17.296  31.558   4.023
56388W        W21373   9.861  38.399   3.092
56389W        W21374  13.699  16.801  12.793
56390W        W21375  23.242   5.298   4.092
56391W        W21376  44.757  14.994   1.732
56392W        W21377   5.173  44.717   1.713
56393W        W21378   4.712  31.559   3.811
56394W        W21379  26.619   2.389  14.289
56395W        W21380  19.691   1.485  12.968
56396W        W21381   9.154  43.113  12.828
56397W        W21382  23.707  32.845  13.028
56398W        W21383  15.682  21.307  11.325
56399W        W21384  38.767   6.806   4.031
56400W        W21385   3.493  26.679  14.361
56401W        W21386   8.343  10.078  11.039
56402W        W21387  41.415  10.170  11.569
56403W        W21388   5.186  31.587   0.359
56404W        W21389   6.437  43.795  14.500
56405W        W21390  37.960  27.141   4.940
56406W        W21391  29.387  25.206   2.927
56407W        W21392   3.660   3.959  10.714
56408W        W21393  38.721  31.453  12.994
56409W        W21394   4.487  25.181   2.999
56410W        W21395  41.813   1.672   0.863
56411W        W21396   3.962  14.173   2.302
56412W        W21397  22.669  18.575  10.660
56413W        W21398  39.488  33.445   1.527
56414W        W21399  14.335   5.513  10.778
56415W        W21400   7.586  35.390   1.533
56416W        W21401  34.170   7.270  10.207
56417W        W21402  34.137  23.040   2.281
56418W        W21403  32.666  37.373  12.585
56419W        W21404  13.526  16.621   4.127
56420W        W21405  38.693  38.545   4.539
56421W        W21406  40.300  28.000  13.033
56422W        W21407  39.611   2.690   3.784
56423W        W21408  16.128  11.298  14.077
56424W        W21409  44.008   9.114  13.870
56425W        W21410  11.912  29.593   0.381
56426W        W21411  22.324  30.150   1.365
56427W        W21412  19.320  37.935  14.935
56428W        W21413   9.835  24.765   2.714
56429W        W21414  39.610  42.413   3.785
56430W        W21415  23.734  24.615   1.330
56431W        W21416  15.911   1.859  11.154
56432W        W21417  12.465  24.018   0.187
56433W        W21418   8.371  13.630  14.728
56434W        W21419  10.412  36.903   4.919
56435W        W21420  17.662  35.082  14.307
56436W        W21421  40.161  12.164   4.494
56437W        W21422  12.390  10.893   3.147
56438W        W21423  30.385  24.964   4.911
56439W        W21424  32.653  42.021   2.772
56440W        W21425   3.395  32.093  11.406
56441W        W21426  12.627  19.491   2.339
56442W        W21427  18.738  16.938   0.017
56443W        W21428   7.403   4.927  10.674
56444W        W21429  34.640  28.946  12.116
56445W        W21430   0.358  18.674   1.466
56446W        W21431  44.389   9.777  10.700
56447W        W21432  41.451  44.498   4.935
56448W        W21433  32.535  30.997  11.568
56449W        W21434  25.995  30.349  13.183
56450W        W21435  31.913  34.325   1.976
56451W        W21436  30.553   2.242  14.798
56452W        W21437   3.191   2.893   2.114
56453W        W21438  37.063   5.181  13.994
56454W        W21439  39.805   5.954   1.945
56455W        W21440   2.347   1.987   4.608
56456W        W21441  41.005  29.758  12.388
56457W        W21442  24.264  18.140   0.044
56458W        W21443   3.143  20.242  12.431
56459W        W21444   8.999  40.476  12.027
56460W        W21445  12.628  39.870   0.994
56461W        W21446  35.497  18.823  12.456
56462W        W21447  25.345  14.606   5.002
56463W        W21448  19.087   4.909   0.964
56464W        W21449  15.671   9.410   4.301
56465W        W21450  20.312  31.523  10.733
56466W        W21451  34.893  36.173  13.479
56467W        W21452  17.546  41.916   4.114
56468W        W21453  25.149  36.076  13.485
56469W        W21454  28.617   6.493   0.352
56470W        W21455  44.025   7.816  11.436
56471W        W21456  17.342  26.646   2.983
56472W        W21457  11.681  18.451  14.045
56473W        W21458  23.684  16.782  12.892
56474W        W21459  34.490  43.540   1.211
56475W        W21460   9.506  28.890   2.987
56476W        W21461  41.750  40.633  10.582
56477W        W21462  43.204  41.225   4.157
56478W        W21463  14.576   7.292  13.639
56479W        W21464  34.904  22.018   1.659
56480W        W21465  41.631  42.855   4.042
56481W        W21466  38.147  18.147   4.675
56482W        W21467  16.101  38.161   1.659
56483W        W21468   5.647  36.541  14.295
56484W        W21469  37.253  35.181  13.499
56485W        W21470  20.922  24.140   5.036
56486W        W21471  17.741   7.028  10.834
56487W        W21472  44.963   0.676  13.819
56488W        W21473   3.479  16.747   2.149
56489W        W21474  22.141  41.911  11.372
56490W        W21475   9.620  30.089  11.592
56491W        W21476  12.905  26.620  11.051
56492W        W21477  21.137  40.468  11.514
56493W        W21478  10.599   6.102   5.372
56494W        W21479   5.718  43.696  11.598
56495W        W21480  42.881   2.729  11.741
56496W        W21481  44.946  33.639  14.758
56497W        W21482  33.534  25.961   4.350
56498W        W21483  16.369  42.844  11.862
56499W        W21484  33.344   4.328  13.474
56500W        W21485   7.950  31.506  13.439
56501W        W21486  37.607  11.422   1.864
56502W        W21487   6.460  11.090  11.672
56503W        W21488  41.897  13.766   4.639
56504W        W21489   6.451  31.333   0.995
56505W        W21490  36.823  33.870  10.506
56506W        W21491   5.819  28.764   1.992
56507W        W21492   5.768  42.418   2.899
56508W        W21493  16.046  36.271  14.036
56509W        W21494  34.317  30.567  12.621
56510W        W21495  43.401  42.187  12.912
56511W        W21496  37.047   1.510  12.422
56512W        W21497   5.692   2.056  13.648
56513W        W21498  16.910   7.578   4.545
56514W        W21499  31.779  18.237  11.099
56515W        W21500  38.604  30.927  13.131
56516W        W21501  20.136  43.087   3.427
56517W        W21502  16.093  29.639  13.736
56518W        W21503  27.736  38.345   3.212
56519W        W21504  14.808  26.585   2.771
56520W        W21505  38.661   2.476  10.598
56521W        W21506  27.909  27.171  14.533
56522W        W21507  19.588  13.184   0.254
56523W        W21508  10.596  35.006  13.404
56524W        W21509  42.507   4.929  10.785
56525W        W21510  39.784  18.125  14.237
56526W        W21511   3.474   7.198  13.935
56527W        W21512  17.420  11.582  11.983
56528W        W21513  28.114   5.921   4.569
56529W        W21514  23.937   0.458  12.882
56530W        W21515  27.905  17.002   3.216
56531W        W21516  41.358  29.182  12.987
56532W        W21517  43.002  43.189   0.795
56533W        W21518  43.372   3.255  12.459
56534W        W21519  41.871  36.920  12.870
56535W        W21520  13.745  44.331  10.382
56536W        W21521   6.897  29.278   1.022
56537W        W21522   8.825  28.812   4.002
56538W        W21523  37.373  41.763  12.500
56539W        W21524  12.599  35.838  11.941
56540W        W21525   5.224  21.190  14.543
56541W        W21526  11.327  15.221  12.110
56542W        W21527   8.189  32.168  12.411
56543W        W21528   4.882  20.052   2.351
56544W        W21529  22.710  42.531   2.586
56545W        W21530  18.263   5.649  14.983
56546W        W21531  28.046  24.560   1.528
56547W        W21532   9.497  18.293  14.286
56548W        W21533  10.608  30.978  12.769
56549W        W21534   5.020  24.947   3.357
56550W        W21535   9.393   0.395   4.553
56551W        W21536  33.885   7.235  14.451
56552W        W21537  30.516  41.384   0.907
56553W        W21538  24.362  20.166  13.454
56554W        W21539  18.029  13.692  11.294
56555W        W21540   1.272  16.938  10.708
56556W        W21541   7.201   4.615   9.922
56557W        W21542   1.412  37.808  14.501
56558W        W21543   9.653  11.220  14.983
56559W        W21544  39.557  40.993  13.982
56560W        W21545  17.191  24.558  13.562
56561W        W21546   0.487  34.151   3.177
56562W        W21547   5.387  25.569   3.096
56563W        W21548  12.525  24.042   1.938
56564W        W21549  30.071  13.870  12.410
56565W        W21550  40.466  24.951  11.047
56566W        W21551  15.084  43.709   1.316
56567W        W21552  31.581   2.940  13.808
56568W        W21553  31.242   6.828   1.380
56569W        W21554   1.976  18.774  12.597
56570W        W21555  36.380  33.646   9.885
56571W        W21556   3.705   1.580  14.991
56572W        W21557  27.548  26.782   4.688
56573W        W21558   9.402  15.237  13.209
56574W        W21559  34.894  31.020   2.114
56575W        W21560  22.644  10.578   2.022
56576W        W21561  15.469  43.719   1.790
56577W        W21562  12.652   3.164   3.748
56578W        W21563  44.567  26.765   3.766
56579W        W21564  39.223  34.117   3.323
56580W        W21565  18.434  24.640   2.328
56581W        W21566  12.583   0.070  11.185
56582W        W21567   2.003  39.024   0.889
56583W        W21568  42.595  25.965  12.387
56584W        W21569  29.493  27.092  10.913
56585W        W21570   5.184  37.357  13.838
56586W        W21571  16.321  37.624   4.558
56587W        W21572  25.437  21.619   3.273
56588W        W21573   8.416   7.989   3.117
56589W        W21574   1.866   7.789  12.939
56590W        W21575   1.417  12.248   3.887
56591W        W21576  12.257  36.031  11.554
56592W        W21577   9.967   4.714   3.272
56593W        W21578  40.336  22.319   0.239
56594W        W21579  13.124  10.053   2.382
56595W        W21580  19.205   4.985   4.657
56596W        W21581  14.217  15.055  14.514
56597W        W21582   5.983  12.706  11.615
56598W        W21583  37.142  36.775   3.734
56599W        W21584  28.387  21.734   3.197
56600W        W21585  33.210  40.998   3.673
56601W        W21586  21.440  10.394   9.830
56602W        W21587  22.721  24.614  10.425
56603W        W21588   7.944  20.059  12.056
56604W        W21589  13.653  31.554  10.284
56605W        W21590  29.591  33.535  10.388
56606W        W21591  32.538  31.144   0.346
56607W        W21592  41.268  11.396  11.097
56608W        W21593   3.698   6.229   2.891
56609W        W21594  36.527  16.178  11.246
56610W        W21595  33.021  35.267  12.141
56611W        W21596  41.883   5.174   0.232
56612W        W21597  33.313  17.114   3.777
56613W        W21598  20.272   7.230   5.013
56614W        W21599   0.276  42.956  11.029
56615W        W21600   5.924  25.490   0.816
56616W        W21601   4.877   8.268   2.642
56617W        W21602  12.342   1.382  13.072
56618W        W21603  41.615   1.242   1.331
56619W        W21604  37.051  41.383  14.873
56620W        W21605  11.700  33.015   0.333
56621W        W21606  20.334  15.879  13.876
56622W        W21607  36.107  40.579   2.021
56623W        W21608   2.669  14.171  12.259
56624W        W21609   9.725  32.520  14.941
56625W        W21610  36.851  15.692  14.926
56626W        W21611  19.890  39.989   1.089
56627W        W21612  18.046   8.201   1.820
56628W        W21613  34.485  44.696   0.510
56629W        W21614  18.071  29.594  13.536
56630W        W21615  42.470  27.630   2.169
56631W        W21616   8.837  41.759  11.758
56632W        W21617  14.580  41.163  13.869
56633W        W21618  18.061   0.373   4.588
56634W        W21619  21.032  13.651  12.472
56635W        W21620  37.332  25.891   2.294
56636W        W21621   3.912  13.151   3.379
56637W        W21622  13.889   1.848  14.571
56638W        W21623  43.408  37.401   1.529
56639W        W21624  26.255  36.081  11.586
56640W        W21625  36.174  14.794   4.197
56641W        W21626  23.747  40.001  12.159
56642W        W21627  20.661  16.145  13.581
56643W        W21628   7.635  14.611  11.898
56644W        W21629  10.414  12.859  11.784
56645W        W21630   5.671  15.676  13.141
56646W        W21631  30.746  42.383   3.640
56647W        W21632  21.908   4.309   0.959
56648W        W21633  44.249  22.550   1.458
56649W        W21634   4.286  39.421   4.177
56650W        W21635  21.714  40.784   0.819
56651W        W21636  19.139   5.469  13.499
56652W        W21637  14.110  14.247   3.254
56653W        W21638  14.264  16.259  13.141
56654W        W21639  22.068  37.345   0.934
56655W        W21640   0.594  37.815  13.419
56656W        W21641   1.902   3.022   3.216
56657W        W21642   0.489   6.850   0.548
56658W        W21643  38.868  13.289   1.354
56659W        W21644  17.051  11.430   3.613
56660W        W21645   9.587   7.199   4.215
56661W        W21646  15.117  39.782  14.813
56662W        W21647  21.007  30.915  13.824
56663W        W21648  24.816   7.120   2.782
56664W        W21649  40.924  37.595   2.105
56665W        W21650  28.958   9.693   1.548
56666W        W21651  41.478  38.971   3.220
56667W        W21652  43.604  18.323  10.753
56668W        W21653   3.754  27.142  11.017
56669W        W21654  10.765  25.724  12.134
56670W        W21655  17.880  13.135  12.068
56671W        W21656  11.856   5.447  12.351
56672W        W21657  14.891  36.368  13.016
56673W        W21658  37.926  27.132  10.599
56674W        W21659  41.436  21.119  11.271
56675W        W21660  36.312  18.495  10.617
56676W        W21661   6.477   2.259   1.981
56677W        W21662  41.968  37.996  10.821
56678W        W21663  37.899  17.275  10.165
56679W        W21664  19.222  18.079  10.393
56680W        W21665  21.676  39.527   2.256
56681W        W21666  29.285  15.219   2.385
56682W        W21667  10.736   1.300  11.103
56683W        W21668  25.052   8.282  14.935
56684W        W21669   7.345  26.540   4.278
56685W        W21670  41.488  15.482  13.491
56686W        W21671  27.252   1.391  11.070
56687W        W21672  15.987  34.092   0.874
56688W        W21673   0.166  24.985   2.850
56689W        W21674  39.313   6.471  12.966
56690W        W21675  37.564  16.073   1.188
56691W        W21676  24.690  26.110  12.514
56692W        W21677   3.919  36.204   1.786
56693W        W21678  19.839  14.301   4.779
56694W        W21679  37.285   1.015  14.363
56695W        W21680  16.395  32.319   0.757
56696W        W21681   3.889  27.207  10.508
56697W        W21682  28.130  34.439   2.219
56698W        W21683  26.018  41.939  12.046
56699W        W21684  32.436   0.056  14.337
56700W        W21685  13.376  16.744   2.700
56701W        W21686   3.690  32.210  12.426
56702W        W21687   2.954  25.752  14.242
56703W        W21688   4.798   5.290  10.394
56704W        W21689  39.417  15.602  11.071
56705W        W21690  30.103   6.609  12.831
56706W        W21691  28.468   0.437   1.237
56707W        W21692  12.862  40.288  11.508
56708W        W21693  26.715   5.002  11.282
56709W        W21694  16.824  39.365  11.201
56710W        W21695  36.512  23.099   0.091
56711W        W21696  44.532  37.506  12.016
56712W        W21697   0.950  37.564  14.294
56713W        W21698   3.209  16.101   4.327
56714W        W21699  16.831  16.288  12.577
56715W        W21700  11.347   9.041  14.480
56716W        W21701  27.250  40.863  14.379
56717W        W21702   7.290  35.366  13.618
56718W        W21703  14.547  13.096   1.324
56719W        W21704  21.989  42.893  12.364
56720W        W21705  17.493  42.336  14.322
56721W        W21706  15.788   0.527   4.104
56722W        W21707  23.871  24.482   4.527
56723W        W21708  22.648   5.813   2.565
56724W        W21709  43.653   5.697  14.829
56725W        W21710  17.047   3.374  10.708
56726W        W21711   3.488  21.825  10.792
56727W        W21712   5.931   4.217  12.852
56728W        W21713  44.913  18.188   0.832
56729W        W21714  41.034  40.527  10.425
56730W        W21715  40.460  21.835   0.942
56731W        W21716  35.045   9.962   4.870
56732W        W21717   5.010  33.405  10.463
56733W        W21718   8.392  29.659   1.991
56734W        W21719  13.876  18.706   3.266
56735W        W21720  27.947  32.359   4.174
56736W        W21721  41.112  28.111  14.868
56737W        W21722  38.265  33.549  13.447
56738W        W21723  34.570  28.665   3.155
56739W        W21724  44.608  16.806   0.186
56740W        W21725  30.312  21.772  13.756
56741W        W21726  20.913  33.745   0.160
56742W        W21727   6.319   8.237  12.985
56743W        W21728  42.451  22.052   4.173
56744W        W21729  16.538  12.242  11.196
56745W        W21730  42.771  31.833   4.978
56746W        W21731  43.866  24.731   3.090
56747W        W21732  13.939  33.927  14.088
56748W        W21733   4.378  21.169   4.417
56749W        W21734  37.885  12.260  12.962
56750W        W21735   3.307  41.216  10.965
56751W        W21736  32.978  26.237  13.522
56752W        W21737  23.010  27.098  10.649
56753W        W21738  43.367  12.629   1.352
56754W        W21739  39.180  17.708   5.370
56755W        W21740  12.600   1.466   2.584
56756W        W21741  27.701  14.833  10.632
56757W        W21742  30.170  24.089  10.526
56758W        W21743  32.885  31.709   3.089
56759W        W21744  28.390   4.787   1.692
56760W        W21745  12.096   2.445   1.340
56761W        W21746   8.505  10.896   3.221
56762W        W21747  31.871  17.212   5.127
56763W        W21748  15.256  20.836  12.782
56764W        W21749  33.825  36.643  14.484
56765W        W21750  24.143  14.668   0.708
56766W        W21751  22.136  43.032   9.945
56767W        W21752  42.326   5.814   2.643
56768W        W21753   4.228  36.917  14.707
56769W        W21754  41.749  28.018   3.618
56770W        W21755  37.430  14.411   4.675
56771W        W21756  16.797  24.467  12.020
56772W        W21757  14.827  32.387  11.431
56773W        W21758  19.411  29.289   2.676
56774W        W21759  22.016  31.054  11.533
56775W        W21760  41.996   3.249   5.059
56776W        W21761  13.161  41.282   3.769
56777W        W21762  25.746  32.289   0.767
56778W        W21763  26.881  28.015  13.446
56779W        W21764   6.376  39.745   2.423
56780W        W21765   5.648   4.413   1.143
56781W        W21766  18.645  19.102  12.777
56782W        W21767  27.596  44.799   3.369
56783W        W21768  43.079  23.413  11.554
56784W        W21769  38.337  32.319  13.071
56785W        W21770  33.825  31.114  11.653
56786W        W21771  16.095   5.785  13.035
56787W        W21772  14.888  39.127   3.851
56788W        W21773  22.104  10.718  14.771
56789W        W21774  20.144   3.924   4.183
56790W        W21775   2.223  39.831  11.237
56791W        W21776  17.548  28.829  12.016
56792W        W21777  42.516  24.043   3.350
56793W        W21778  35.980  41.752  14.861
56794W        W21779  18.392   6.350  11.827
56795W        W21780   2.664  44.750  14.180
56796W        W21781   0.971  14.053   0.698
56797W        W21782  19.845  32.009   4.817
56798W        W21783  28.158  12.848   0.684
56799W        W21784   4.880  12.344   3.739
56800W        W21785  16.725  19.634   0.373
56801W        W21786  25.937  10.937  13.446
56802W        W21787  36.898  38.141   4.682
56803W        W21788  40.784   1.280   4.258
56804W        W21789  28.520  13.162  13.342
56805W        W21790  19.890  15.043   1.723
56806W        W21791   9.170   1.002   3.672
56807W        W21792  27.536  39.235   1.930
56808W        W21793  27.506  16.679   4.074
56809W        W21794  28.712  42.001  11.993
56810W        W21795  35.290  39.542  12.560
56811W        W21796  30.988  21.659   1.340
56812W        W21797  14.713  42.533  12.737
56813W        W21798  16.794  20.006  12.163
56814W        W21799  27.568   5.684   2.895
56815W        W21800   3.869   8.429   1.579
56816W        W21801  34.092  19.595   3.257
56817W        W21802   5.708  21.056  13.976
56818W        W21803   0.982  12.242   4.139
56819W        W21804   1.271  38.873  13.271
56820W        W21805  34.515  20.086  11.291
56821W        W21806  22.988  12.165   4.526
56822W        W21807  17.729  30.409   1.343
56823W        W21808  19.287  44.289   2.690
56824W        W21809  10.048  38.869   2.099
56825W        W21810   2.131  42.267   3.749
56826W        W21811  11.110  38.438   0.612
56827W        W21812  10.303  44.102   3.430
56828W        W21813  42.769  14.204   5.455
56829W        W21814  17.838  28.151   3.672
56830W        W21815  16.085  41.995  12.442
56831W        W21816  34.175  17.110   0.130
56832W        W21817  21.515   8.081   3.181
56833W        W21818  41.615   5.343  14.817
56834W        W21819   9.661  18.321  11.582
56835W        W21820  34.907  44.941  13.548
56836W        W21821  13.215  42.796  10.839
56837W        W21822  10.267   4.909  10.104
56838W        W21823  27.637  41.872  13.667
56839W        W21824  26.242  19.139  11.185
56840W        W21825   5.237  27.552   2.882
56841W        W21826  41.477  42.478  14.918
56842W        W21827  36.002  26.602  11.193
56843W        W21828  24.012   2.809  13.858
56844W        W21829  38.212  36.320   4.267
56845W        W21830  38.878  21.000  13.434
56846W        W21831  15.490  34.787  11.518
56847W        W21832  39.131  23.476  12.003
56848W        W21833  14.642  30.476  12.783
56849W        W21834  10.596  35.336   4.287
56850W        W21835  39.964  23.254  13.392
56851W        W21836  13.932  31.050   0.737
56852W        W21837  32.442  30.428  13.364
56853W        W21838  36.554  39.818   2.804
56854W        W21839  37.597  29.222   2.686
56855W        W21840  11.578  23.429  11.444
56856W        W21841  32.141   9.813  12.019
56857W        W21842  19.307  26.114   4.618
56858W        W21843  10.290   9.547  12.496
56859W        W21844   0.839  37.369   0.642
56860W        W21845  23.717  23.078  13.744
56861W        W21846   0.688  36.348  12.922
56862W        W21847  41.351  36.212   4.371
56863W        W21848   4.631   7.300  13.106
56864W        W21849  41.988  32.376   1.267
56865W        W21850  41.821  29.881  14.053
56866W        W21851  12.306  20.747   3.809
56867W        W21852   2.716  42.054  12.108
56868W        W21853  35.754  11.271   2.959
56869W        W21854  16.773   4.941   3.581
56870W        W21855  22.751  22.040  11.214
56871W        W21856  32.001  35.717   1.310
56872W        W21857  25.614   3.307  13.763
56873W        W21858  19.614   5.433  11.493
56874W        W21859   4.652  28.577   2.129
56875W        W21860  34.447  23.205   2.690
56876W        W21861  13.626  35.754   3.751
56877W        W21862  24.186  19.989  11.791
56878W        W21863  24.207   2.771  10.627
56879W        W21864  38.949  24.521  12.380
56880W        W21865  28.591  24.968   1.173
56881W        W21866  32.563  39.547  13.100
56882W        W21867  38.368  29.006   0.607
56883W        W21868  35.893   3.837  10.772
56884W        W21869  22.493  24.272   0.556
56885W        W21870  35.640  40.332  13.082
56886W        W21871  12.271  31.744   0.906
56887W        W21872  40.731   8.783   3.599
56888W        W21873  37.633  21.438  14.237
56889W        W21874  27.393  27.450  11.904
56890W        W21875   4.732  33.054  10.725
56891W        W21876   2.543  29.839  14.072
56892W        W21877  11.389  31.718  12.938
56893W        W21878   6.933  36.968   3.474
56894W        W21879  43.195  28.925   0.293
56895W        W21880   6.219   9.104  13.496
56896W        W21881  21.368  14.805  14.872
56897W        W21882  31.516  36.063  13.834
56898W        W21883  40.844  23.173  14.312
56899W        W21884  23.445  26.656   0.268
56900W        W21885  21.671  29.600  13.888
56901W        W21886   8.430  11.806   2.267
56902W        W21887  25.596  33.632   4.109
56903W        W21888  13.319   3.144  12.843
56904W        W21889  43.473  34.129   2.754
56905W        W21890  43.734  32.644   1.406
56906W        W21891  17.772   4.552   4.305
56907W        W21892  39.457  23.046  14.805
56908W        W21893  37.089   6.148   3.134
56909W        W21894  42.244  30.331  10.777
56910W        W21895  15.718   9.165  13.361
56911W        W21896  19.707  34.008   4.144
56912W        W21897  42.243  16.269   1.388
56913W        W21898  41.625  26.859   3.101
56914W        W21899  37.890  11.315  10.203
56915W        W21900  21.691  27.832   0.074
56916W        W21901   8.318  38.518   3.164
56917W        W21902  33.831  40.806   2.706
56918W        W21903  37.275   2.553  11.531
56919W        W21904   9.502  17.124   3.220
56920W        W21905  12.308  11.413   3.169
56921W        W21906   6.918   2.432  12.619
56922W        W21907  41.080  17.538  14.845
56923W        W21908  24.568  27.028   0.964
56924W        W21909  25.180  43.509  13.144
56925W        W21910   0.855  42.813  12.128
56926W        W21911  34.161  29.527   4.192
56927W        W21912   4.185   9.792  14.908
56928W        W21913  16.154  26.532  13.880
56929W        W21914  26.508  27.892   4.187
56930W        W21915  35.602  33.959  11.707
56931W        W21916  26.202  26.330   0.461
56932W        W21917  24.188  32.408   0.209
56933W        W21918   4.710  23.103  12.015
56934W        W21919   3.539  38.995  13.920
56935W        W21920  41.982  43.930  13.546
56936W        W21921   9.407   0.078   2.738
56937W        W21922  22.120  25.189   1.725
56938W        W21923  38.788  14.602   4.895
56939W        W21924   4.510  21.528  13.421
56940W        W21925  10.792  29.091   2.743
56941W        W21926  17.511  44.765   1.234
56942W        W21927  34.813  28.524   3.591
56943W        W21928  37.377   4.194   0.207
56944W        W21929  10.704   4.562   1.003
56945W        W21930   1.265   1.490  10.763
56946W        W21931  34.156  31.867   3.171
56947W        W21932   0.613   4.670   3.684
56948W        W21933   8.898   8.183  11.975
56949W        W21934  33.998  22.983   3.061
56950W        W21935  43.491  33.416   3.663
56951W        W21936  16.811  20.593   3.006
56952W        W21937   2.579  25.012  13.360
56953W        W21938  27.474   3.903  11.111
56954W        W21939  40.940  42.765   1.496
56955W        W21940  42.879  37.896   0.841
56956W        W21941   6.278  40.237  12.933
56957W        W21942   2.491  32.292   0.420
56958W        W21943  31.306  44.263   0.385
56959W        W21944  26.956  38.823  13.145
56960W        W21945  11.372   7.223   3.963
56961W        W21946   9.412  27.923   2.442
56962W        W21947  10.334  26.046   3.584
56963W        W21948  26.173  12.245   2.799
56964W        W21949  16.274  32.427  10.471
56965W        W21950  41.629  39.498  11.471
56966W        W21951  37.949   1.057  14.349
56967W        W21952  20.499  20.280   4.907
56968W        W21953   7.214  43.488   4.269
56969W        W21954  33.920  20.856  12.428
56970W        W21955   5.332  32.144   3.719
56971W        W21956  28.954  37.249  12.385
56972W        W21957  30.958   7.734  14.384
56973W        W21958  25.538   9.830   4.813
56974W        W21959  32.550  29.157  14.027
56975W        W21960  30.093  21.913  11.171
56976W        W21961   2.464  28.622  12.704
56977W        W21962  11.886  40.106   1.925
56978W        W21963  44.400  17.645   1.178
56979W        W21964  23.246  28.427  13.066
56980W        W21965   1.114  31.498  11.052
56981W        W21966  26.473  24.544  13.881
56982W        W21967   2.465   9.114   0.776
56983W        W21968  36.617   2.447   2.616
56984W        W21969  16.644  32.154   1.196
56985W        W21970  11.286  36.998  13.827
56986W        W21971  22.543  24.165  14.976
56987W        W21972  22.798   2.290  10.923
56988W        W21973  26.191  29.049   4.985
56989W        W21974  40.710  41.478   3.311
56990W        W21975  39.550  17.669   1.299
56991W        W21976  24.396  18.568   1.658
56992W        W21977  29.502  26.574  13.305
56993W        W21978   3.651   5.033  12.945
56994W        W21979   4.532  24.721   4.662
56995W        W21980  25.489  41.019   3.081
56996W        W21981  18.119  25.660   1.678
56997W        W21982  34.080  15.934   1.434
56998W        W21983  39.801  39.827  11.119
56999W        W21984  15.599  22.818  11.074
57000W        W21985  18.311  29.511  12.135
57001W        W21986  41.248  17.506   1.039
57002W        W21987  37.281   3.992  10.576
57003W        W21988  16.543  27.548  12.464
57004W        W21989  12.790  16.197   0.764
57005W        W21990  41.948  41.927   3.200
57006W        W21991   1.622  27.527   2.797
57007W        W21992   5.366  35.527   0.864
57008W        W21993  11.268   6.953  13.115
57009W        W21994   3.027  38.709  14.779
57010W        W21995  22.051  43.789   1.216
57011W        W21996  24.253  11.836  14.056
57012W        W21997  28.612  23.639   0.752
57013W        W21998  37.624  29.999   3.736
57014W        W21999  26.460   3.257   1.935
57015W        W22000   1.001  25.933   0.444
57016W        W22001  41.509   8.484  13.880
57017W        W22002   3.069   9.656   4.568
57018W        W22003  19.961   4.732   4.977
57019W        W22004   5.769  16.825  11.665
57020W        W22005  22.134  26.444   4.190
57021W        W22006  18.235  11.251   2.163
57022W        W22007  37.071  31.566  10.699
57023W        W22008  11.818  23.139   4.040
57024W        W22009  10.199  33.555   4.943
57025W        W22010  15.128  36.539  11.613
57026W        W22011  40.221  34.861  13.402
57027W        W22012  34.390   1.883  10.651
57028W        W22013   8.595  12.070  13.922
57029W        W22014  39.019  39.955  14.260
57030W        W22015  15.921  25.591   5.381
57031W        W22016  43.549   6.313   2.316
57032W        W22017  18.747  12.890  13.993
57033W        W22018   6.385  43.288   1.115
57034W        W22019   0.425  20.845  14.441
57035W        W22020  34.442  10.473   5.366
57036W        W22021  44.984  14.212   4.116
57037W        W22022  29.841  15.795  12.546
57038W        W22023   8.542  22.442  13.964
57039W        W22024  21.937  35.544  12.780
57040W        W22025  41.152  18.658   4.912
57041W        W22026  32.443  30.684  11.160
57042W        W22027  20.893  31.109  12.328
57043W        W22028  29.286  20.950  11.762
57044W        W22029  34.793   7.386  11.466
57045W        W22030   9.188  16.696   3.287
57046W        W22031  25.806  41.808   4.824
57047W        W22032  23.474  17.503  14.969
57048W        W22033  27.204   8.169   0.089
57049W        W22034  29.586  31.170  12.835
57050W        W22035  28.008  28.042  11.683
57051W        W22036  26.697  42.921   0.202
57052W        W22037  15.892  11.844   4.576
57053W        W22038  28.487  32.063  13.846
57054W        W22039  10.332   7.168   3.098
57055W        W22040   9.474  21.265  12.347
57056W        W22041  17.486  25.226   3.325
57057W        W22042   8.635   1.800  10.658
57058W        W22043  42.469  41.064   2.237
57059W        W22044   7.789  43.440   3.179
57060W        W22045  39.097  18.711  13.921
57061W        W22046  27.530   9.312  14.061
57062W        W22047  26.578   1.660  14.858
57063W        W22048  42.115  29.013  11.169
57064W        W22049  41.506  25.631  12.441
57065W        W22050  20.448  18.547   0.959
57066W        W22051  17.954  19.764   2.799
57067W        W22052   9.375   0.171  11.103
57068W        W22053  42.619  13.767   1.496
57069W        W22054  20.664   4.433  11.872
57070W        W22055  18.541  33.635  10.676
57071W        W22056  22.433   0.875   0.015
57072W        W22057  38.298  20.035  12.402
57073W        W22058   5.207  16.844  11.290
57074W        W22059  16.713  20.511  10.838
57075W        W22060  20.052  15.575  14.484
57076W        W22061  31.953  32.539   2.920
57077W        W22062   1.280   8.151  14.541
57078W        W22063   6.851   0.328   0.991
57079W        W22064  38.496  15.292  10.203
57080W        W22065  29.422  41.944   3.771
57081W        W22066  33.675  31.410   0.007
57082W        W22067  33.256  44.913   4.049
57083W        W22068  42.806   6.637   3.307
57084W        W22069  17.228  40.369   2.341
57085W        W22070   8.413  32.858  14.786
57086W        W22071  15.237  17.348   2.851
57087W        W22072  42.975  38.698  11.516
57088W        W22073  37.756  18.635   2.721
57089W        W22074  32.661  27.867   2.750
57090W        W22075  22.501  39.698   0.874
57091W        W22076  19.832  28.219   4.961
57092W        W22077   1.593  19.727  11.049
57093W        W22078  12.874  31.904  11.051
57094W        W22079   5.375  41.747  10.993
57095W        W22080  37.839  33.918  14.756
57096W        W22081  43.271  41.520   1.696
57097W        W22082  37.793  23.085  12.893
57098W        W22083  28.662  35.399  14.746
57099W        W22084   3.445   0.189  12.896
57100W        W22085  32.469  15.251   4.717
57101W        W22086  12.519  30.031   1.292
57102W        W22087  27.547   5.104  14.767
57103W        W22088  40.292  28.219   2.295
57104W        W22089  35.411  20.121   0.485
57105W        W22090  37.950  24.926   0.265
57106W        W22091   5.129  39.308   3.522
57107W        W22092  32.127   6.772  12.545
57108W        W22093  39.388  39.972   1.416
57109W        W22094  26.493  38.007   4.628
57110W        W22095  13.839  30.398   0.200
57111W        W22096  33.695  14.239  12.165
57112W        W22097   0.738  17.142   0.897
57113W        W22098  20.777  23.575   3.660
57114W        W22099  42.739  17.769   0.109
57115W        W22100  41.208  23.071  13.594
57116W        W22101   3.452  18.762   0.367
57117W        W22102   8.347   4.822  12.607
57118W        W22103   3.913  20.138  13.278
57119W        W22104  12.315   3.285   4.097
57120W        W22105   0.894   3.087   1.883
57121W        W22106  24.651   5.884  14.908
57122W        W22107  27.228   5.306  14.409
57123W        W22108  37.480  12.565   4.910
57124W        W22109  15.315   8.605  12.558
57125W        W22110  40.072  31.574  14.866
57126W        W22111  34.057   7.374  13.461
57127W        W22112  34.365   5.454   0.324
57128W        W22113  38.486  15.230  10.704
57129W        W22114  17.050  32.563   3.700
57130W        W22115  21.218   1.272  13.954
57131W        W22116  37.056  30.937  11.102
57132W        W22117  43.988  15.807  12.927
57133W        W22118  41.868  29.982  11.128
57134W        W22119   1.989   2.893   0.949
57135W        W22120  13.063  30.902  14.717
57136W        W22121  37.762  12.766  12.085
57137W        W22122  21.748  18.090  10.781
57138W        W22123  23.243   0.886  12.878
57139W        W22124  39.013  26.247  13.344
57140W        W22125   5.151  12.707   2.892
57141W        W22126  44.764  15.870  13.415
57142W        W22127   7.633  22.572  11.006
57143W        W22128  14.629  31.528   0.520
57144W        W22129  42.598  39.086   5.432
57145W        W22130  26.931  12.143  13.419
57146W        W22131  20.245  17.492   3.018
57147W        W22132  17.221   3.412  14.697
57148W        W22133  40.583  44.601   2.422
57149W        W22134  32.418  30.890   0.945
57150W        W22135  14.599  37.942  12.489
57151W        W22136  39.958  23.750   3.989
57152W        W22137   4.203  27.054   3.845
57153W        W22138  12.650  13.751  14.596
57154W        W22139  40.736  34.778  13.307
57155W        W22140  29.197  40.477   3.925
57156W        W22141  15.418   7.732   1.026
57157W        W22142  37.307   6.906   0.410
57158W        W22143  11.390  39.528   0.931
57159W        W22144   1.226  24.074   4.005
57160W        W22145  20.598   7.404   4.458
57161W        W22146   0.071  10.587   2.171
57162W        W22147  10.843  23.508   0.026
57163W        W22148  23.710  17.837   3.891
57164W        W22149  15.285  26.222   2.209
57165W        W22150   3.960  11.816   3.835
57166W        W22151  21.663  10.342   1.862
57167W        W22152  17.159  17.521  12.575
57168W        W22153  31.218  42.019   2.214
57169W        W22154   2.644  40.370  13.589
57170W        W22155  28.398  22.311   1.055
57171W        W22156  43.952  24.520   1.611
57172W        W22157  10.534  39.334   0.873
57173W        W22158  32.963   8.386  12.572
57174W        W22159   3.527  32.859  14.907
57175W        W22160   1.208  12.780   0.977
57176W        W22161  34.282  23.725  14.441
57177W        W22162  38.633  13.612   4.591
57178W        W22163  14.345  29.067  14.015
57179W        W22164  35.453   9.334   3.469
57180W        W22165   8.497  43.612  14.983
57181W        W22166   5.418   1.910   4.132
57182W        W22167  36.104  16.374  14.999
57183W        W22168  38.391   9.687   0.790
57184W        W22169  26.207   3.425   3.172
57185W        W22170   4.327  13.591   2.197
57186W        W22171  12.524  11.068   1.467
57187W        W22172  15.550  15.552  13.027
57188W        W22173  19.857  42.880  14.293
57189W        W22174  42.506  11.983  11.078
57190W        W22175  39.006  44.511  13.697
57191W        W22176  10.831  20.555   4.021
57192W        W22177  21.551  26.233  12.038
57193W        W22178  12.787   8.342  11.685
57194W        W22179  43.934   1.770  13.807
57195W        W22180  42.087  23.217   0.909
57196W        W22181  37.586  19.773  13.135
57197W        W22182  24.784  39.073  12.028
57198W        W22183  10.861  25.674   2.083
57199W        W22184  36.972  20.721   1.687
57200W        W22185   7.446  11.157   1.538
57201W        W22186  33.295   4.379  12.756
57202W        W22187   6.891  41.991   3.179
57203W        W22188  16.721  15.379   4.139
57204W        W22189  30.044   2.697  10.260
57205W        W22190  39.237  27.108  11.027
57206W        W22191  43.275  35.574   0.838
57207W        W22192   4.911  13.582  11.045
57208W        W22193   3.280  19.659  14.886
57209W        W22194  28.058  29.749   0.727
57210W        W22195  37.897  34.423   2.143
57211W        W22196  28.364  12.675   4.151
57212W        W22197  14.604  18.570  14.764
57213W        W22198   9.611  29.275   2.651
57214W        W22199   0.198   8.326   4.280
57215W        W22200  17.643  36.351  11.254
57216W        W22201  23.567   6.119   4.706
57217W        W22202  23.130  29.189   4.088
57218W        W22203  38.299   8.782   3.649
57219W        W22204  14.350  33.096   0.355
57220W        W22205   1.581  44.610  12.167
57221W        W22206   0.965  13.124  10.537
57222W        W22207  10.177   2.866  10.352
57223W        W22208   6.333  17.601  10.396
57224W        W22209  36.634   2.378   3.153
57225W        W22210  20.024  14.587   0.472
57226W        W22211  12.205  12.280  11.217
57227W        W22212  16.076  17.077  14.006
57228W        W22213  43.741  21.110  12.122
57229W        W22214  23.535  27.617   2.179
57230W        W22215  22.099  26.442   1.365
57231W        W22216  26.740  18.819   0.289
57232W        W22217  23.159  40.411   2.382
57233W        W22218  40.306  40.075  13.889
57234W        W22219  14.747  29.028  12.112
57235W        W22220   1.455  43.587   0.002
57236W        W22221   1.931   0.656   1.719
57237W        W22222  23.789  24.432  10.786
57238W        W22223  38.828  33.533   2.300
57239W        W22224  12.778   9.117  10.673
57240W        W22225  18.140  10.604  12.253
57241W        W22226  20.502  40.070   0.925
57242W        W22227  25.751   6.012   4.174
57243W        W22228  19.646  39.879   0.561
57244W        W22229  44.695  18.072  12.984
57245W        W22230  29.822  42.911  14.434
57246W        W22231  34.701   1.081   1.521
57247W        W22232  21.644   9.642  11.167
57248W        W22233   9.710   9.664   1.429
57249W        W22234  17.764  27.566   1.884
57250W        W22235  18.144  29.144   3.762
57251W        W22236  20.750  14.533   1.692
57252W        W22237  10.287  10.335  13.805
57253W        W22238  18.689  12.578   4.506
57254W        W22239  42.585  30.184  14.322
57255W        W22240   2.953   6.183   3.730
57256W        W22241  18.257  30.714   1.830
57257W        W22242  27.517  29.725   1.837
57258W        W22243  17.228  26.088   2.338
57259W        W22244  11.964  13.701  12.573
57260W        W22245   3.330  37.038   1.995
57261W        W22246  33.038  37.146  14.697
57262W        W22247  40.014   1.043  11.177
57263W        W22248   1.562  16.600  13.777
57264W        W22249  24.597  18.080   2.381
57265W        W22250  27.152  15.189  11.120
57266W        W22251  19.190  42.861   3.817
57267W        W22252  40.433  42.112   5.054
57268W        W22253   1.198  42.679   3.661
57269W        W22254  28.676   5.701  14.999
57270W        W22255   1.241  27.521   1.657
57271W        W22256   3.404  30.580  11.999
57272W        W22257   3.043  17.400   1.033
57273W        W22258  25.646  11.433  14.061
57274W        W22259  10.311   4.354  14.744
57275W        W22260  43.945  28.490   1.717
57276W        W22261   4.320   2.092   0.174
57277W        W22262  10.147   7.812   0.897
57278W        W22263   6.763  19.560   4.720
57279W        W22264  23.215  41.766   2.154
57280W        W22265  38.990  30.124   2.264
57281W        W22266  11.807  37.882  14.612
57282W        W22267  14.755  30.981  14.878
57283W        W22268  42.226  22.222  11.987
57284W        W22269  13.390  42.982   5.176
57285W        W22270  40.696   0.791   2.831
57286W        W22271  20.523  25.489  11.058
57287W        W22272   1.724  41.427  11.500
57288W        W22273  17.396  31.976  13.981
57289W        W22274   2.926  34.071   2.658
57290W        W22275  36.876   3.660  13.834
57291W        W22276  21.247  36.899  10.748
57292W        W22277  15.639   4.890  12.937
57293W        W22278  41.623  10.537   5.039
57294W        W22279   6.439  41.616  14.471
57295W        W22280  16.087  37.993  14.410
57296W        W22281  36.315  25.713   1.694
57297W        W22282  41.463   9.937  12.048
57298W        W22283  16.855  13.156   1.817
57299W        W22284  13.100  16.748  14.478
57300W        W22285  10.701  14.773  13.958
57301W        W22286  44.312  19.531  14.419
57302W        W22287  40.033  30.428   2.908
57303W        W22288   3.663  43.099  12.848
57304W        W22289   8.938   4.734  10.984
57305W        W22290  34.886  35.963   0.956
57306W        W22291   2.839  12.392   1.914
57307W        W22292   0.968  43.374  14.947
57308W        W22293  40.542   9.315  11.594
57309W        W22294  11.393  20.860  13.070
57310W        W22295  20.378  21.494   2.694
57311W        W22296  37.568   0.039  13.806
57312W        W22297  10.032   8.507  13.493
57313W        W22298  42.952  27.407   2.179
57314W        W22299  35.778   4.795  12.008
57315W        W22300  32.046   6.804   3.753
57316W        W22301  12.171  17.621  13.300
57317W        W22302   0.808  15.038  12.008
57318W        W22303   7.055   7.228   1.220
57319W        W22304  27.124   5.228  10.682
57320W        W22305  32.116  14.904   0.524
57321W        W22306  33.537  40.641  14.335
57322W        W22307   8.917   9.111   4.830
57323W        W22308   3.793  38.561   4.034
57324W        W22309  36.832   8.824   9.804
57325W        W22310  33.399  14.295  14.562
57326W        W22311  20.738  26.208   2.810
57327W        W22312  34.078  20.079  10.822
57328W        W22313  40.932  11.776   2.662
57329W        W22314  10.558  38.017   2.268
57330W        W22315  20.648  36.332   3.200
57331W        W22316  33.656  10.007  12.943
57332W        W22317  26.057  26.979  12.088
57333W        W22318  38.112   6.471  14.867
57334W        W22319   8.728  32.882   3.229
57335W        W22320  22.633   2.395  13.397
57336W        W22321  37.704  35.550  11.094
57337W        W22322   8.382  19.140  10.575
57338W        W22323  30.689   0.749  12.322
57339W        W22324   3.953  12.966   2.554
57340W        W22325  42.701  10.595   3.065
57341W        W22326  17.771   0.921   2.939
57342W        W22327  24.604  16.687   2.590
57343W        W22328  24.969  44.263  14.296
57344W        W22329  31.098  31.178  13.554
57345W        W22330  34.129  25.228   4.195
57346W        W22331   3.056  13.653   1.373
57347W        W22332  24.413  13.827   0.618
57348W        W22333  13.355  10.163  13.403
57349W        W22334   2.348  15.178   1.269
57350W        W22335  41.088  26.378   4.538
57351W        W22336  37.413  24.177  13.323
57352W        W22337  43.891   9.753   0.397
57353W        W22338  16.281   4.110   4.829
57354W        W22339  24.782  13.260   4.915
57355W        W22340  43.386   1.345  11.528
57356W        W22341  27.489  32.650  12.183
57357W        W22342   5.281  34.801   1.962
57358W        W22343  29.609  32.096   1.972
57359W        W22344  28.684  37.382  11.979
57360W        W22345   5.457  29.870   1.375
57361W        W22346  17.126  31.385   1.755
57362W        W22347  17.641   1.423  12.969
57363W        W22348  25.456   3.797  13.751
57364W        W22349   4.608  10.288  11.622
57365W        W22350  28.757  32.859  13.506
57366W        W22351   2.872  33.514   1.244
57367W        W22352   0.800  13.051   3.240
57368W        W22353  16.258   7.729   3.262
57369W        W22354  18.772  36.551   2.702
57370W        W22355  21.994  30.269  11.735
57371W        W22356  29.179  29.675   2.361
57372W        W22357  34.862   2.752  11.604
57373W        W22358  35.920   6.912  10.936
57374W        W22359  43.519  38.963   4.485
57375W        W22360  34.257   6.393   2.261
57376W        W22361  22.258  10.191  11.266
57377W        W22362   1.423  16.072   0.580
57378W        W22363  24.244   4.909  13.238
57379W        W22364  44.104  39.342  14.785
57380W        W22365  43.573  30.770   1.767
57381W        W22366  34.906  27.894   2.971
57382W        W22367  34.342  21.872  14.159
57383W        W22368  43.850   9.502  12.426
57384W        W22369  35.358   5.238  13.808
57385W        W22370  40.498  41.836  11.191
57386W        W22371  43.298  18.779   1.191
57387W        W22372  27.171   4.949   3.855
57388W        W22373  39.833   7.292   3.786
57389W        W22374  15.351   1.360  12.548
57390W        W22375   9.727  29.123   4.258
57391W        W22376  20.027   8.943  14.424
57392W        W22377  21.682  36.809  13.430
57393W        W22378  25.455   8.387  10.620
57394W        W22379  27.065  44.932   4.084
57395W        W22380  42.543  40.710  14.065
57396W        W22381  16.903   2.677  14.761
57397W        W22382  14.406   2.959  12.438
57398W        W22383  33.675   2.465   1.717
57399W        W22384  21.084  29.732   1.443
57400W        W22385   4.271  16.388   1.459
57401W        W22386  27.928  15.598  11.006
57402W        W22387   3.679  29.651   1.371
57403W        W22388  26.721  40.723   1.053
57404W        W22389  15.639  25.255   4.392
57405W        W22390  32.390  20.556   4.836
57406W        W22391  27.991   3.882  14.490
57407W        W22392   0.273  37.112  10.107
57408W        W22393   4.867  26.056  12.562
57409W        W22394  44.917  39.295   2.980
57410W        W22395   9.713  18.225   2.756
57411W        W22396  23.945  32.443  10.702
57412W        W22397  41.739  29.042   2.681
57413W        W22398  17.170  24.538  14.539
57414W        W22399  42.663  32.289  14.398
57415W        W22400  13.842  42.965  13.381
57416W        W22401  20.279  17.222  11.580
57417W        W22402  39.484  34.911  12.546
57418W        W22403  29.971  39.386   2.233
57419W        W22404  31.004  32.151   0.885
57420W        W22405   0.358  21.731  14.505
57421W        W22406  10.687  40.070   4.443
57422W        W22407  37.900  23.991  13.253
57423W        W22408   6.884  39.556  10.430
57424W        W22409  25.538  44.897  14.010
57425W        W22410   1.978  22.782  12.937
57426W        W22411  17.263  44.773  12.552
57427W        W22412   1.486  32.445  12.010
57428W        W22413  44.266  28.114  10.790
57429W        W22414   1.644  44.777   2.201
57430W        W22415  40.702  19.175  14.394
57431W        W22416  17.074  29.130  14.373
57432W        W22417  33.089  32.428  13.025
57433W        W22418   0.883  34.660  12.562
57434W        W22419  22.994  28.936   2.338
57435W        W22420  27.150  15.244   5.060
57436W        W22421   8.148  43.498  11.460
57437W        W22422  20.947  20.356   5.501
57438W        W22423  17.712   9.428   4.412
57439W        W22424  36.982   6.803   1.432
57440W        W22425  18.768  29.013  10.714
57441W        W22426  43.028  29.551  13.431
57442W        W22427  11.816  16.480  10.727
57443W        W22428   7.382  38.413   1.471
57444W        W22429   4.892  29.449   3.673
57445W        W22430  27.656  11.145  14.345
57446W        W22431   2.812  33.188  12.004
57447W        W22432  12.134  19.752  12.583
57448W        W22433  40.616  18.747   0.758
57449W        W22434   6.195  44.520   3.608
57450W        W22435  13.879  25.118  12.064
57451W        W22436   1.737  13.322   3.580
57452W        W22437  25.100  26.199  14.830
57453W        W22438  22.545  12.288   1.833
57454W        W22439   1.349  13.004   4.963
57455W        W22440  31.428   5.803  12.892
57456W        W22441   1.003  33.797  11.137
57457W        W22442  36.076  19.672   4.169
57458W        W22443  38.868  33.157   3.221
57459W        W22444  33.919  21.129  14.346
57460W        W22445   4.835  38.261  12.526
57461W        W22446  10.328  38.937  11.485
57462W        W22447  37.662   6.013   0.448
57463W        W22448   7.656  29.447  12.248
57464W        W22449  23.709   6.342  11.921
57465W        W22450  17.504   5.430   3.452
57466W        W22451   8.697  20.634  11.084
57467W        W22452   8.861  23.309  10.944
57468W        W22453  14.786  43.110   3.367
57469W        W22454  10.472  35.021   4.712
57470W        W22455   8.650  16.304   2.683
57471W        W22456  28.989  36.393   0.370
57472W        W22457  40.007   1.235  14.764
57473W        W22458  36.779  16.943  12.993
57474W        W22459  35.558  42.085   2.361
57475W        W22460  35.159  17.770  10.727
57476W        W22461   8.931   4.192  11.197
57477W        W22462   1.166  23.264  14.874
57478W        W22463  42.048  38.903  13.867
57479W        W22464  35.643  19.730   3.379
57480W        W22465  20.827  41.341  14.389
57481W        W22466  20.513   5.644  14.511
57482W        W22467   6.402  24.248   2.724
57483W        W22468  22.701  19.123   2.669
57484W        W22469  37.910   3.825  14.152
57485W        W22470  35.876  35.871  11.726
57486W        W22471  37.420  28.981  13.993
57487W        W22472   0.969  44.975   3.805
57488W        W22473  25.385  11.430  11.944
57489W        W22474   4.874  17.782   1.866
57490W        W22475  24.585  32.620  13.932
57491W        W22476  24.548   7.482   1.108
57492W        W22477   6.333  29.582  11.434
57493W        W22478  19.177  12.469   3.364
57494W        W22479  15.049   0.977   4.251
57495W        W22480   6.405  13.207   0.511
57496W        W22481   4.243  37.597  13.667
57497W        W22482  19.548  18.384   0.807
57498W        W22483  27.622   9.795  13.374
57499W        W22484   1.215  24.644  13.929
57500W        W22485   2.720  23.275   3.216
57501W        W22486  42.296  11.576   4.609
57502W        W22487  24.672   5.442   1.852
57503W        W22488  41.708  33.498  10.246
57504W        W22489  35.959  26.916   1.430
57505W        W22490  29.488  44.477   4.822
57506W        W22491  11.748  16.221  12.034
57507W        W22492   5.281  21.826  10.524
57508W        W22493   5.947  41.586  11.051
57509W        W22494   3.703  40.059  14.872
57510W        W22495  15.853  39.772  11.640
57511W        W22496  18.082  17.816  14.335
57512W        W22497  43.075  39.589  14.058
57513W        W22498   0.866  35.085  12.898
57514W        W22499  42.852  24.546  13.544
57515W        W22500  39.550  15.701  14.478
57516W        W22501  18.241  14.755  13.065
57517W        W22502  37.967   1.177  10.727
57518W        W22503  13.405  35.478  14.903
57519W        W22504  35.984  43.208  12.541
57520W        W22505   8.632  26.048   1.872
57521W        W22506  12.422  12.288   1.419
57522W        W22507  25.694  24.494   2.739
57523W        W22508  27.123  41.984  13.453
57524W        W22509  37.930  37.765  10.966
57525W        W22510  18.201  28.950  14.932
57526W        W22511  11.599  42.385  12.958
57527W        W22512  14.945  15.078  10.751
57528W        W22513  21.097  22.808   1.272
57529W        W22514  22.779  22.036   1.647
57530W        W22515   4.791  27.408  10.975
57531W        W22516   1.288  13.856  12.095
57532W        W22517  44.516  36.218   4.986
57533W        W22518  10.663   7.158   1.366
57534W        W22519  30.065  14.827   3.711
57535W        W22520  21.750  31.902   2.783
57536W        W22521   3.762  24.248   0.879
57537W        W22522  19.260  18.738   2.781
57538W        W22523  15.353   5.310  13.003
57539W        W22524   6.054  15.223  11.104
57540W        W22525  11.644  25.693   1.378
57541W        W22526  24.330  14.401  12.506
57542W        W22527  17.169  30.764   5.092
57543W        W22528  37.512  21.524  10.721
57544W        W22529  23.729  32.850  11.647
57545W        W22530  38.875  12.650   4.777
57546W        W22531  41.145  35.105  13.422
57547W        W22532  12.641   6.268   2.145
57548W        W22533  26.915  43.833   0.335
57549W        W22534  17.117  17.542   1.589
57550W        W22535  39.120  39.247  14.691
57551W        W22536  22.287  19.152   0.742
57552W        W22537  39.194  42.603  14.699
57553W        W22538  14.300  24.389  13.340
57554W        W22539  34.556  11.746  13.354
57555W        W22540   7.662   7.873  10.698
57556W        W22541  29.253  31.081  13.592
57557W        W22542  17.159  44.345   4.477
57558W        W22543  27.666   3.078   4.645
57559W        W22544  39.595  13.205   4.471
57560W        W22545  18.566  10.225   1.481
57561W        W22546  41.769  41.766  12.544
57562W        W22547  17.280   2.179   0.518
57563W        W22548   0.849  11.576  11.881
57564W        W22549   3.541  19.471  11.032
57565W        W22550   5.995  36.407  13.897
57566W        W22551  37.615  10.803   2.648
57567W        W22552  25.123  25.681   0.908
57568W        W22553   9.617  22.514   2.266
57569W        W22554  25.194  38.426   2.243
57570W        W22555  29.045  42.837  11.187
57571W        W22556  15.026  20.172  13.975
57572W        W22557  13.640  24.194   4.073
57573W        W22558  16.303  15.698   0.294
57574W        W22559  16.542   8.406   4.998
57575W        W22560  19.645   7.567  12.175
57576W        W22561  26.242  33.021   2.210
57577W        W22562  39.136  29.624  11.194
57578W        W22563  11.188   4.878   9.957
57579W        W22564   5.694  16.915  13.510
57580W        W22565  34.929  13.331  14.394
57581W        W22566   8.691  25.571  10.551
57582W        W22567  29.327  13.179  13.256
57583W        W22568  18.936  22.874   4.995
57584W        W22569  21.024  37.090  13.603
57585W        W22570  10.764  39.012   4.548
57586W        W22571  22.385  18.418  11.599
57587W        W22572  28.627  37.539  10.622
57588W        W22573  42.039  20.198   2.252
57589W        W22574  19.061  23.414  13.479
57590W        W22575   6.886  23.265  13.068
57591W        W22576  35.721  19.281  14.178
57592W        W22577   8.233   5.713   2.706
57593W        W22578   3.605  11.703   1.410
57594W        W22579  19.097  12.884  11.831
57595W        W22580  29.605  26.076  13.698
57596W        W22581  29.177  22.836  13.964
57597W        W22582  41.075  37.412   0.630
57598W        W22583  16.041  42.313  11.639
57599W        W22584  25.755  24.322  11.188
57600W        W22585  32.370  30.357  10.760
57601W        W22586  10.641  16.976  13.851
57602W        W22587  28.763  12.261   0.550
57603W        W22588  33.376  14.792  12.436
57604W        W22589   6.943  31.889   0.273
57605W        W22590  30.652  30.825  11.901
57606W        W22591  12.288  26.714   4.136
57607W        W22592   3.614  20.541  13.400
57608W        W22593  34.386  19.723   2.620
57609W        W22594  37.764  12.582   2.272
57610W        W22595  21.826  40.936  11.550
57611W        W22596  10.238  16.575  13.123
57612W        W22597   4.893   0.432   3.294
57613W        W22598  35.206  11.687   2.195
57614W        W22599  27.710  33.855   2.712
57615W        W22600  33.550  42.087  11.091
57616W        W22601  23.761   0.490  11.005
57617W        W22602  42.355  44.725  14.605
57618W        W22603  25.575  34.032  12.628
57619W        W22604  21.518  22.017  14.249
57620W        W22605  17.558  12.864  14.415
57621W        W22606  42.925  18.475   4.541
57622W        W22607  11.129  27.078   2.790
57623W        W22608  11.353   6.567  12.672
57624W        W22609   7.260  23.057  10.475
57625W        W22610  37.880  30.918   4.992
57626W        W22611  22.144  42.228   1.182
57627W        W22612  28.628  10.390   1.714
57628W        W22613  27.848  30.668  12.341
57629W        W22614  39.370  31.570   2.800
57630W        W22615  27.984  31.513  11.955
57631W        W22616  15.608  36.431   4.491
57632W        W22617   2.963  11.414  13.505
57633W        W22618  42.122  33.129  12.487
57634W        W22619  22.581  42.851  10.987
57635W        W22620  31.149  14.543  14.089
57636W        W22621  44.417  23.194  14.748
57637W        W22622  18.676  15.981  12.198
57638W        W22623  11.038  32.592   3.760
57639W        W22624  43.452  40.438  12.014
57640W        W22625  29.546  44.499  12.026
57641W        W22626  33.190  24.623  13.397
57642W        W22627  10.218   0.787  10.557
57643W        W22628  34.992  13.290   1.678
57644W        W22629   2.890   1.896   1.536
57645W        W22630  26.105  39.282   4.458
57646W        W22631  17.223  16.065  13.072
57647W        W22632  16.644  26.039  10.635
57648W        W22633  40.992  33.878   1.923
57649W        W22634  26.054  13.314   1.853
57650W        W22635  27.984   6.700   3.184
57651W        W22636  33.381  16.860  10.450
57652W        W22637  20.796  27.829  14.047
57653W        W22638  27.191   9.090   5.006
57654W        W22639  28.071  21.165  11.224
57655W        W22640  20.511  10.793  11.630
57656W        W22641  25.361  32.386  11.662
57657W        W22642  25.578  27.177  12.115
57658W        W22643  35.060   3.883  12.034
57659W        W22644  15.135   2.714  13.334
57660W        W22645  22.428  36.840  11.756
57661W        W22646  34.874  17.533  13.600
57662W        W22647  11.864  11.251   4.094
57663W        W22648  13.345   1.391   0.657
57664W        W22649  35.476  22.503   2.830
57665W        W22650  37.805   2.797  14.444
57666W        W22651  37.999  36.854  11.214
57667W        W22652  17.161  13.837  10.729
57668W        W22653   5.323  27.154   3.231
57669W        W22654  35.165  32.249   3.227
57670W        W22655  36.114  25.253   5.101
57671W        W22656  12.322   0.485   3.776
57672W        W22657  24.546  21.697  10.454
57673W        W22658   4.323  10.371   0.230
57674W        W22659  11.940   5.982  11.582
57675W        W22660   4.050   9.538   0.355
57676W        W22661   5.438  18.581   0.965
57677W        W22662  43.612  18.173  14.925
57678W        W22663  19.210  21.410  13.892
57679W        W22664   6.423  26.998  13.825
57680W        W22665   9.846  13.666  11.590
57681W        W22666  21.219   4.611  13.887
57682W        W22667  31.929  35.563   4.335
57683W        W22668  15.446  41.341   3.061
57684W        W22669   8.954  21.642   1.697
57685W        W22670  40.350  41.383   3.972
57686W        W22671   9.127  30.099   1.415
57687W        W22672  35.531  20.530   1.721
57688W        W22673  29.052   0.479   3.823
57689W        W22674  36.029  18.266   2.444
57690W        W22675   3.776   2.400  11.149
57691W        W22676  28.636  28.877   1.753
57692W        W22677  41.985   6.973  12.073
57693W        W22678   0.722  24.250  12.496
57694W        W22679  25.719  36.298   3.847
57695W        W22680  27.099  22.627  11.624
57696W        W22681   4.663   4.753  12.982
57697W        W22682  34.077  35.103   4.204
57698W        W22683  19.715  24.080   2.490
57699W        W22684  44.739  37.602   1.786
57700W        W22685  22.548  23.454   1.697
57701W        W22686  20.787  28.226  12.557
57702W        W22687  27.834  39.283   0.685
57703W        W22688  34.852   1.414   0.088
57704W        W22689  22.132  32.987  14.928
57705W        W22690   9.111  19.621   1.690
57706W        W22691  28.123  20.972  14.872
57707W        W22692  35.058  17.048  14.475
57708W        W22693   3.930   8.611   4.619
57709W        W22694  30.322   2.410   1.380
57710W        W22695  43.115  28.619   1.484
57711W        W22696  28.330  12.200   3.282
57712W        W22697  13.750  14.599  11.186
57713W        W22698  42.280  18.132  13.891
57714W        W22699   7.879  27.945   1.366
57715W        W22700  23.454  18.259   1.249
57716W        W22701  33.386   9.236   3.179
57717W        W22702  21.469  16.209   1.110
57718W        W22703   1.464  28.169   1.427
57719W        W22704   6.986   1.250  10.593
57720W        W22705  33.484  35.337   0.740
57721W        W22706  37.983  13.035   4.681
57722W        W22707   3.554  26.566   1.356
57723W        W22708  37.354   4.452   4.682
57724W        W22709  23.088  24.267   0.779
57725W        W22710   4.388  40.038  11.483
57726W        W22711  20.264  39.410   1.050
57727W        W22712  38.899  21.274   2.657
57728W        W22713  21.150   5.674  13.965
57729W        W22714  27.592   2.418  14.451
57730W        W22715  24.994   0.598   5.194
57731W        W22716  11.673  14.786  11.617
57732W        W22717  35.207  36.154  13.070
57733W        W22718   3.441  20.772  10.640
57734W        W22719  20.095  12.755  10.962
57735W        W22720  12.501  19.768  12.986
57736W        W22721   7.372  28.030  10.708
57737W        W22722   8.912   2.452  14.393
57738W        W22723  12.777   7.239   4.290
57739W        W22724  12.697  38.152   3.756
57740W        W22725   0.681  35.057   5.200
57741W        W22726   6.901  34.784  14.707
57742W        W22727   5.678  29.048   0.032
57743W        W22728  11.264  10.882  10.539
57744W        W22729   2.427  24.437  13.481
57745W        W22730  25.026  25.135  13.617
57746W        W22731  10.719  40.328  12.828
57747W        W22732  25.639  42.242   2.237
57748W        W22733  38.421   1.539   4.227
57749W        W22734  21.600   5.970   4.598
57750W        W22735  23.919  21.833  13.812
57751W        W22736  17.965  41.927   4.525
57752W        W22737  23.735  24.619  13.265
57753W        W22738  29.455  11.169   2.307
57754W        W22739  13.847  33.579  11.123
57755W        W22740   1.956  29.196   3.801
57756W        W22741   9.126  17.193  12.904
57757W        W22742  26.877   9.005  11.138
57758W        W22743   4.836  34.278  11.853
57759W        W22744  15.825  31.573  14.483
57760W        W22745  15.641  34.629   2.352
57761W        W22746  13.809   0.875   2.825
57762W        W22747  38.330  16.259  12.470
57763W        W22748   0.323  26.235   3.314
57764W        W22749  39.999  12.330   3.581
57765W        W22750   8.743   1.343  13.829
57766W        W22751  25.648  20.872  12.992
57767W        W22752  43.795  40.010  11.905
57768W        W22753  27.882  16.056  10.330
57769W        W22754   1.239  37.806   2.211
57770W        W22755  10.237  15.308   2.813
57771W        W22756   4.614  10.772  11.889
57772W        W22757   0.410  25.972  12.813
57773W        W22758  40.098  32.262  12.452
57774W        W22759  25.116  27.244   2.196
57775W        W22760  16.826  31.167   5.072
57776W        W22761  41.503  42.058   2.221
57777W        W22762  20.952   4.847  10.132
57778W        W22763   4.333  31.698  13.531
57779W        W22764   6.834   9.857  13.812
57780W        W22765   1.883  32.131   3.796
57781W        W22766  24.957  35.610  10.666
57782W        W22767  27.725   5.451  10.410
57783W        W22768  13.939  18.290   0.453
57784W        W22769  24.016   7.923   3.224
57785W        W22770   3.274  33.424  11.898
57786W        W22771  37.332  16.202   4.136
57787W        W22772  35.889  41.654  11.670
57788W        W22773  37.022  28.505   3.118
57789W        W22774  35.587   2.976   1.411
57790W        W22775   7.696  42.429   4.706
57791W        W22776  27.486  35.401   4.800
57792W        W22777  41.111   0.477   2.693
57793W        W22778  26.233   0.307  14.308
57794W        W22779  18.632  19.158   3.334
57795W        W22780  14.258  20.242   3.523
57796W        W22781  40.817   5.310   4.578
57797W        W22782  29.917   6.874  13.716
57798W        W22783   3.524  42.326   1.671
57799W        W22784  29.273  27.967  13.772
57800W        W22785  16.170  39.886   0.828
57801W        W22786   3.761  16.471   2.838
57802W        W22787  16.908   1.855  10.981
57803W        W22788  41.041  24.107   2.797
57804W        W22789  29.734  36.628   0.084
57805W        W22790  17.802  39.447  14.415
57806W        W22791  30.546  36.332   5.024
57807W        W22792   8.787  26.727  11.181
57808W        W22793   3.938   8.779  13.050
57809W        W22794  16.898  33.130   1.024
57810W        W22795   0.033  35.241  10.181
57811W        W22796  27.652  15.431   0.644
57812W        W22797  13.991  16.367  14.441
57813W        W22798  43.514   5.775   2.630
57814W        W22799  33.930  27.692   0.901
57815W        W22800  26.472  20.806   1.206
57816W        W22801   7.334  29.934  11.116
57817W        W22802  37.420  26.195   4.906
57818W        W22803  33.118  28.187   3.354
57819W        W22804   7.615  12.723   1.745
57820W        W22805  42.949  39.884   2.305
57821W        W22806  19.562  13.333  13.482
57822W        W22807  31.519  22.164   3.897
57823W        W22808  44.200  27.467  14.407
57824W        W22809   7.036  16.740   4.317
57825W        W22810  29.865  26.914  14.600
57826W        W22811  27.008  36.644  13.353
57827W        W22812  22.185  42.055  10.889
57828W        W22813   3.131  44.312  10.962
57829W        W22814   1.450  22.587   1.722
57830W        W22815   7.550  24.193   2.692
57831W        W22816  18.643   8.729   2.305
57832W        W22817  16.638  43.316   3.171
57833W        W22818  30.504  25.411   1.487
57834W        W22819  21.090  36.430  12.865
57835W        W22820  16.066  43.019   5.190
57836W        W22821  31.677   6.239   3.574
57837W        W22822  13.695  15.295   3.729
57838W        W22823  15.642  33.361   2.820
57839W        W22824   6.945  23.299  10.817
57840W        W22825   2.373  40.133  10.484
57841W        W22826  33.454   6.465  11.388
57842W        W22827  26.447   0.707  13.996
57843W        W22828  39.381  16.264   1.583
57844W        W22829  36.955  20.853   4.009
57845W        W22830  43.482  27.257  13.397
57846W        W22831  34.680  36.848   0.936
57847W        W22832  16.202   4.112  10.588
57848W        W22833  16.121  33.146   0.631
57849W        W22834  17.309   2.946  14.883
57850W        W22835   0.648  21.296  14.589
57851W        W22836  27.971  17.027   1.733
57852W        W22837   7.124  13.354  11.504
57853W        W22838  22.190  16.618  12.162
57854W        W22839  36.344   7.391  12.466
57855W        W22840  35.972  24.453  10.642
57856W        W22841   6.282  24.585  11.191
57857W        W22842  44.465  33.176  11.526
57858W        W22843  29.569  42.842  12.031
57859W        W22844  21.700   7.323   0.765
57860W        W22845   5.420  11.026  13.785
57861W        W22846   4.139   2.234   1.970
57862W        W22847  16.836  10.205   3.691
57863W        W22848  12.865  18.492   0.345
57864W        W22849   5.801  22.738   3.332
57865W        W22850  30.394  36.009   2.303
57866W        W22851   3.768  12.274   3.640
57867W        W22852   0.628  15.981  14.969
57868W        W22853  39.830  31.132  10.664
57869W        W22854  28.536  43.544  11.626
57870W        W22855  18.283  23.054   3.812
57871W        W22856  10.957  32.346   0.452
57872W        W22857  18.528  24.557   0.036
57873W        W22858  15.177  36.336   1.362
57874W        W22859  23.946  21.874   2.285
57875W        W22860  39.046  28.612   0.210
57876W        W22861  15.194  41.327  11.056
57877W        W22862  12.597  19.926  13.875
57878W        W22863  35.222  26.596  10.613
57879W        W22864   9.883  30.628   1.319
57880W        W22865  21.572   7.661   2.079
57881W        W22866  42.828  10.559  14.254
57882W        W22867  10.589   0.937  11.460
57883W        W22868  37.392   6.435  10.282
57884W        W22869   7.770   8.166   2.244
57885W        W22870  13.250  23.879  10.222
57886W        W22871  19.116   4.749  14.518
57887W        W22872  14.981  12.612  12.082
57888W        W22873   1.739  24.697  13.918
57889W        W22874   5.598   4.348   3.172
57890W        W22875  14.252  43.414  14.436
57891W        W22876  26.341   8.118   0.491
57892W        W22877  20.077  44.488  14.427
57893W        W22878  37.340   0.478  11.633
57894W        W22879  37.996  12.186  13.461
57895W        W22880  35.251  35.269   3.261
57896W        W22881  13.328   0.484   1.813
57897W        W22882   2.551  17.729  13.532
57898W        W22883   6.220  21.997   2.211
57899W        W22884  39.795  35.485   2.142
57900W        W22885  15.405  28.767  12.381
57901W        W22886  12.572   9.435  14.861
57902W        W22887  21.533   5.850  14.560
57903W        W22888   3.458   6.042  11.276
57904W        W22889  22.489   5.379   1.298
57905W        W22890  29.591  29.655  11.606
57906W        W22891  22.599  44.304  10.501
57907W        W22892   2.322  20.241  13.492
57908W        W22893   1.772  44.085   3.860
57909W        W22894  41.113  35.084   0.256
57910W        W22895   3.882  28.800   2.952
57911W        W22896  38.278  10.372  11.164
57912W        W22897  29.460  34.407   1.966
57913W        W22898  28.770  31.977  12.392
57914W        W22899  28.926  14.747  13.016
57915W        W22900  37.942  31.694   3.646
57916W        W22901  29.052  26.172   4.764
57917W        W22902  23.641  23.117   4.437
57918W        W22903  28.204  36.006   1.884
57919W        W22904  44.270  42.922   2.455
57920W        W22905  26.521  37.401  11.111
57921W        W22906  27.209  39.840  11.377
57922W        W22907  14.063  36.830   0.718
57923W        W22908  22.177  42.479   4.516
57924W        W22909   5.301  11.553  13.874
57925W        W22910  40.159   4.946  14.762
57926W        W22911  28.105  44.756   4.177
57927W        W22912  31.677  13.050   4.645
57928W        W22913  43.287  28.690  12.978
57929W        W22914  22.777  35.870   2.161
57930W        W22915   9.894   6.386  14.556
57931W        W22916  10.304  20.318  11.075
57932W        W22917  42.181  27.650   0.457
57933W        W22918  24.106  12.243  12.874
57934W        W22919  32.345  34.984  13.392
57935W        W22920  38.724  27.039   2.484
57936W        W22921  44.513  29.596   3.324
57937W        W22922  22.695   0.162  11.925
57938W        W22923   6.768   3.454  12.112
57939W        W22924  13.738  39.976   2.379
57940W        W22925  40.979   2.703  10.673
57941W        W22926   1.854  27.625  13.777
57942W        W22927   5.142  26.760   3.697
57943W        W22928   3.244   5.909  13.529
57944W        W22929   1.850   2.289   1.350
57945W        W22930  27.477  16.592  13.829
57946W        W22931  28.105  35.826   0.997
57947W        W22932  15.486  40.051  13.896
57948W        W22933  29.148   2.021   3.259
57949W        W22934  42.647  44.312  11.931
57950W        W22935  42.434  20.047  14.884
57951W        W22936  24.471  22.658   2.420
57952W        W22937  41.998  18.335  14.628
57953W        W22938  26.744  35.168   4.062
57954W        W22939   8.290  25.141  13.479
57955W        W22940  35.667  14.291   4.649
57956W        W22941  26.088  28.667  11.514
57957W        W22942  22.142  29.186   0.786
57958W        W22943  34.552  36.900   0.427
57959W        W22944   2.826   1.208   1.233
57960W        W22945  31.560  10.049  12.125
57961W        W22946  32.996   2.807   1.862
57962W        W22947  38.829   6.048   2.874
57963W        W22948  35.352  43.800   4.256
57964W        W22949  33.648  10.613   4.974
57965W        W22950   0.712  24.213   1.368
57966W        W22951  30.630   8.497   2.406
57967W        W22952  25.605  17.138   2.302
57968W        W22953  38.009   6.785  13.337
57969W        W22954   2.607  14.355  10.743
57970W        W22955  34.541   0.787   2.788
57971W        W22956  37.804  32.241  12.862
57972W        W22957  15.126   6.763   0.313
57973W        W22958  44.898  26.372  14.990
57974W        W22959  15.856  39.544  11.158
57975W        W22960  43.069  33.612   3.883
57976W        W22961  34.614  31.494   2.660
57977W        W22962  23.498  12.286  13.060
57978W        W22963  35.837   3.343   2.776
57979W        W22964   7.860  14.357   0.308
57980W        W22965  35.076  30.792  12.731
57981W        W22966  19.080  20.632   0.431
57982W        W22967  42.061  16.977  11.938
57983W        W22968   7.259  24.344  10.988
57984W        W22969  11.199  29.732   2.284
57985W        W22970  31.609  17.615   3.614
57986W        W22971  41.026  23.689   4.178
57987W        W22972  12.666  43.481  13.026
57988W        W22973  26.743  17.868  11.670
57989W        W22974   4.634  18.199  10.953
57990W        W22975  11.172  20.539  11.286
57991W        W22976  36.035  18.261  14.434
57992W        W22977  10.523  32.078  10.978
57993W        W22978  38.523   3.287  14.581
57994W        W22979  20.666  24.850  13.983
57995W        W22980  12.406  28.242  11.097
57996W        W22981  31.660  18.158   4.363
57997W        W22982  40.889  10.646   3.705
57998W        W22983   0.317  19.754  10.919
57999W        W22984  24.409  30.147   5.191
58000W        W22985  40.292  26.189  14.298
58001W        W22986  25.007  14.622  10.713
58002W        W22987  19.224   3.740   1.885
58003W        W22988  29.693  32.004   3.928
58004W        W22989  10.888  17.424   2.710
58005W        W22990  11.598  22.803   2.296
58006W        W22991  10.616  14.574   0.824
58007W        W22992  36.805  33.404   3.569
58008W        W22993  15.093  26.452  10.100
58009W        W22994  28.538  38.573  11.550
58010W        W22995  28.941  28.115  10.634
58011W        W22996  13.709  31.187  12.166
58012W        W22997  17.772  27.994  13.805
58013W        W22998  35.108  34.965   2.713
58014W        W22999  17.821  17.172  11.677
58015W        W23000  28.529  25.653  11.675
58016W        W23001   7.318  42.735  11.538
58017W        W23002  23.187  29.968   3.020
58018W        W23003   9.816  12.244  13.426
58019W        W23004  10.749   6.585   5.489
58020W        W23005  24.120   1.504   0.203
58021W        W23006  26.343  44.661  13.187
58022W        W23007   1.050   7.876   4.206
58023W        W23008  36.479  14.109   1.668
58024W        W23009  21.230   4.672   1.313
58025W        W23010   5.903  13.614   1.323
58026W        W23011  44.687  36.369  10.287
58027W        W23012   0.525  15.042   2.267
58028W        W23013  42.238   9.800  12.958
58029W        W23014   5.888  36.440   2.131
58030W        W23015  31.567   8.397   4.949
58031W        W23016  35.966   6.898   1.164
58032W        W23017  44.587  15.896  12.038
58033W        W23018   8.909  16.880   3.673
58034W        W23019  34.343  39.060   0.466
58035W        W23020   0.986  12.766  11.178
58036W        W23021  35.291  19.119  12.109
58037W        W23022  30.410  15.389  12.049
58038W        W23023  44.440  41.814   4.535
58039W        W23024   8.014  33.418  14.456
58040W        W23025  14.167  24.551   2.334
58041W        W23026   7.182  32.529   4.382
58042W        W23027   2.452  36.084   0.870
58043W        W23028  23.521  41.626  13.002
58044W        W23029  42.493  43.745  13.524
58045W        W23030   1.297  44.280  12.490
58046W        W23031  18.055  40.149   3.247
58047W        W23032   5.149  35.303  13.510
58048W        W23033   3.310  12.889   4.127
58049W        W23034  32.503  33.189  10.507
58050W        W23035  30.536  11.776  10.222
58051W        W23036  44.955  26.412   5.403
58052W        W23037  25.703  17.262   4.646
58053W        W23038  25.061  25.681  14.889
58054W        W23039  13.432   2.142  11.917
58055W        W23040  15.621  12.425   3.760
58056W        W23041  25.120   7.586  14.489
58057W        W23042  36.430  27.113   1.429
58058W        W23043  38.390  25.503   5.528
58059W        W23044  38.783  24.060  12.199
58060W        W23045  18.931   8.341   0.001
58061W        W23046  17.606  20.790   1.750
58062W        W23047  15.703  37.452   0.968
58063W        W23048  17.871  43.192  14.300
58064W        W23049  36.957  23.668   3.803
58065W        W23050  23.507   7.800   0.614
58066W        W23051  29.350  19.529   0.442
58067W        W23052  29.441   3.972  13.955
58068W        W23053   0.921   4.681  13.400
58069W        W23054  17.506  21.593   2.726
58070W        W23055  10.428   8.866   1.731
58071W        W23056  23.469  30.887  10.609
58072W        W23057  37.701  36.007   1.358
58073W        W23058  41.856  14.293  10.687
58074W        W23059  22.526  37.317  14.003
58075W        W23060   9.808  24.635   0.927
58076W        W23061  28.597  10.179   2.254
58077W        W23062  33.453  32.124  12.830
58078W        W23063  39.577  30.142  12.295
58079W        W23064  20.316  27.626  11.601
58080W        W23065  28.206  29.597  11.001
58081W        W23066  14.293  26.649  13.017
58082W        W23067  37.650  27.879  12.620
58083W        W23068  33.436   4.802   1.766
58084W        W23069  36.136  28.849   1.873
58085W        W23070  30.382  36.737   4.688
58086W        W23071   2.318   2.502   3.268
58087W        W23072  34.967  28.224  12.584
58088W        W23073  44.913  33.278  11.989
58089W        W23074  38.927  43.250   3.121
58090W        W23075  39.257  29.456  14.343
58091W        W23076  35.139   1.583  14.234
58092W        W23077  22.162  26.127   0.179
58093W        W23078  34.198   8.992  13.513
58094W        W23079  30.581  11.976   1.855
58095W        W23080   0.001  36.801   0.835
58096W        W23081  29.200  36.908   1.365
58097W        W23082  28.045  26.698  14.354
58098W        W23083   1.741  24.435   3.149
58099W        W23084  28.064   2.990   3.216
58100W        W23085  32.187  12.925  14.420
58101W        W23086  44.891   4.922  13.559
58102W        W23087   1.762   4.325   1.019
58103W        W23088  13.863   9.674  14.477
58104W        W23089  35.170   6.088   3.551
58105W        W23090  33.162  28.789   1.189
58106W        W23091  22.654  29.394   4.190
58107W        W23092  20.960   1.635   0.848
58108W        W23093   6.228   0.629   0.988
58109W        W23094   4.275  17.279   4.522
58110W        W23095  43.510  28.693  11.983
58111W        W23096  31.998  28.656   0.405
58112W        W23097   8.347  25.162   2.483
58113W        W23098   8.159  38.746   1.788
58114W        W23099   4.786  43.909  14.124
58115W        W23100  44.454  44.771   0.353
58116W        W23101  24.672  43.738   2.849
58117W        W23102  14.297  37.390   3.287
58118W        W23103  31.693   2.176  11.516
58119W        W23104  25.069  16.638   0.717
58120W        W23105  41.468  24.499   2.779
58121W        W23106  19.227  27.091   4.975
58122W        W23107  32.647  17.956   0.042
58123W        W23108   1.770  34.499   1.375
58124W        W23109  19.950  43.146  11.749
58125W        W23110   6.990  36.922   4.647
58126W        W23111  17.451  33.964   2.329
58127W        W23112  26.494  27.234  13.047
58128W        W23113  12.269  42.242  14.189
58129W        W23114  10.737  25.590  13.983
58130W        W23115   1.365   2.058  12.174
58131W        W23116  16.747  22.243  12.512
58132W        W23117  42.358  34.330   0.251
58133W        W23118  15.855  25.536   0.766
58134W        W23119  20.648  32.021  12.163
58135W        W23120  11.812  18.700  12.210
58136W        W23121  19.123   6.307  13.105
58137W        W23122  36.430  37.690   1.666
58138W        W23123  34.372  13.574   0.278
58139W        W23124   6.994   6.660  10.763
58140W        W23125   1.469  17.234   1.289
58141W        W23126  25.926  24.034  11.585
58142W        W23127  28.518  24.977  11.422
58143W        W23128  32.841  21.217   4.314
58144W        W23129   7.165   4.835   0.340
58145W        W23130  43.761  10.517  12.557
58146W        W23131  10.157  24.157   3.766
58147W        W23132   4.292   1.334   3.967
58148W        W23133  16.402  28.012  11.686
58149W        W23134   6.692   9.250  10.879
58150W        W23135  18.577  44.062   1.904
58151W        W23136  12.580  29.197  14.414
58152W        W23137   9.787  20.740   4.632
58153W        W23138  18.837  26.962  14.757
58154W        W23139  19.618  31.121   0.389
58155W        W23140   6.343  18.140  14.324
58156W        W23141  32.942  34.780   4.686
58157W        W23142  27.610  23.279  13.506
58158W        W23143  10.280  26.793  12.063
58159W        W23144  11.031  30.150   3.088
58160W        W23145  36.537  44.654   2.922
58161W        W23146  44.066   6.771  14.072
58162W        W23147  15.129   4.764   1.560
58163W        W23148  43.688  12.098  11.470
58164W        W23149  31.623  19.426   3.078
58165W        W23150   2.740  23.931   5.194
58166W        W23151  20.037  19.254  13.904
58167W        W23152  20.109  16.070   0.263
58168W        W23153  22.737  14.598   0.138
58169W        W23154  41.255  13.824   3.804
58170W        W23155  18.777  27.929   1.427
58171W        W23156  22.286   3.509   3.906
58172W        W23157  34.978  11.928   2.599
58173W        W23158  12.634  30.615   2.361
58174W        W23159  25.769  21.557   0.956
58175W        W23160  15.711  44.010  11.364
58176W        W23161   0.578   0.493  12.553
58177W        W23162  30.831  10.198  11.631
58178W        W23163  32.647  32.035  11.063
58179W        W23164  29.501   4.100   2.949
58180W        W23165  14.363  38.044  12.005
58181W        W23166  18.445   7.379   0.200
58182W        W23167  16.335  28.657   1.379
58183W        W23168   9.930  24.678   4.111
58184W        W23169  12.601   7.697   4.102
58185W        W23170  21.677  22.745  10.768
58186W        W23171  35.032  23.237   1.293
58187W        W23172   0.903  33.165  10.522
58188W        W23173  17.474  42.573   5.019
58189W        W23174  26.109  22.659  12.985
58190W        W23175  10.991  12.612   0.865
58191W        W23176  21.166  43.231   1.382
58192W        W23177  19.156  31.908   0.415
58193W        W23178  35.053   8.892   1.245
58194W        W23179   1.692  21.984  10.648
58195W        W23180   3.133  43.310  11.930
58196W        W23181  35.131  17.289   1.925
58197W        W23182  42.489  32.154   2.337
58198W        W23183  26.322  34.476  10.833
58199W        W23184   0.209  15.247  14.456
58200W        W23185  15.815  35.534  12.798
58201W        W23186  40.566  41.768  13.552
58202W        W23187  13.214   5.505  10.310
58203W        W23188  38.919   0.031   0.932
58204W        W23189  41.593  14.171   4.580
58205W        W23190  34.003  37.328   2.374
58206W        W23191  41.296  43.052   1.845
58207W        W23192  32.749   8.755   0.435
58208W        W23193  23.415  40.512  10.631
58209W        W23194  18.082  14.317   2.249
58210W        W23195  35.351   0.786  12.401
58211W        W23196  44.279  43.711  11.602
58212W        W23197  29.694   6.917   1.336
58213W        W23198   0.968  29.496   0.706
58214W        W23199  38.888  33.024  12.897
58215W        W23200  32.934   5.259   1.678
58216W        W23201  29.765   6.554  12.117
58217W        W23202  16.761  32.986   3.762
58218W        W23203  23.527  39.339   4.059
58219W        W23204  37.460  35.263  13.966
58220W        W23205   4.756   1.511   1.841
58221W        W23206  31.177  14.035   5.056
58222W        W23207  20.261  20.379   3.676
58223W        W23208  33.209  20.061  14.536
58224W        W23209  12.032   2.166  11.114
58225W        W23210  11.482  19.091  12.432
58226W        W23211  36.888  29.519  11.138
58227W        W23212  18.721   4.932  14.766
58228W        W23213  15.697   5.833   1.913
58229W        W23214  17.310  30.094  11.682
58230W        W23215   0.902  19.500  12.853
58231W        W23216  25.716  32.762  11.652
58232W        W23217   2.359  44.414   1.382
58233W        W23218  30.667  11.162   2.707
58234W        W23219  24.015   8.635  12.152
58235W        W23220  19.544  17.092  10.198
58236W        W23221  40.033  10.409  10.683
58237W        W23222   3.790  40.024   4.381
58238W        W23223  27.704  33.216  14.922
58239W        W23224  40.091  40.055  10.704
58240W        W23225  41.758  21.231   2.316
58241W        W23226  21.283  22.052   1.908
58242W        W23227  38.712  22.198   4.691
58243W        W23228  12.334  42.297   2.139
58244W        W23229   9.352   7.856   1.308
58245W        W23230  32.375  29.078  11.601
58246W        W23231  18.700  28.347   3.334
58247W        W23232  41.020  11.584  14.339
58248W        W23233  16.659  42.550   1.369
58249W        W23234  18.559  40.773   2.255
58250W        W23235  26.622  11.364   4.716
58251W        W23236  20.762  20.792   3.229
58252W        W23237  14.607   2.521  13.986
58253W        W23238  23.575   6.615  11.499
58254W        W23239  26.170   8.352  14.190
58255W        W23240  19.596  20.208  14.299
58256W        W23241  40.301  15.085   0.563
58257W        W23242  33.132  17.684   4.621
58258W        W23243  32.001  13.033  13.126
58259W        W23244  13.615  38.438  12.151
58260W        W23245   0.950  18.678   0.731
58261W        W23246   3.348  43.654   2.641
58262W        W23247  27.074  15.143  12.125
58263W        W23248  16.198   4.690  11.336
58264W        W23249   5.644  13.315  14.775
58265W        W23250  22.579  20.011   3.389
58266W        W23251   6.255  15.627  11.918
58267W        W23252  39.360   3.877  10.649
58268W        W23253   6.925  36.924   1.934
58269W        W23254  42.315   3.613   2.127
58270W        W23255  26.576   8.870   0.245
58271W        W23256  22.749   4.574  12.973
58272W        W23257  39.095  38.411  14.964
58273W        W23258   8.556  12.578  13.877
58274W        W23259  25.235  37.114   2.741
58275W        W23260  22.780  13.841   0.863
58276W        W23261  10.567  24.398  13.590
58277W        W23262  25.007  14.883  14.047
58278W        W23263  12.052   9.152  10.654
58279W        W23264  35.145   9.243  10.367
58280W        W23265  43.191   4.273  10.526
58281W        W23266   7.976  28.278   4.104
58282W        W23267  24.183  28.991   4.383
58283W        W23268  20.676  28.926  14.715
58284W        W23269   4.878  15.327   4.173
58285W        W23270  22.768  21.644  14.328
58286W        W23271  26.507  39.311  13.498
58287W        W23272  30.370  41.267   1.417
58288W        W23273  33.607  10.887  12.050
58289W        W23274  18.050   9.228   4.776
58290W        W23275  14.067  39.328  14.971
58291W        W23276  44.119  31.356  12.108
58292W        W23277  13.728  12.241   2.928
58293W        W23278  34.258  29.571  13.434
58294W        W23279  38.850  40.509   4.570
58295W        W23280   3.818  27.375   0.277
58296W        W23281  24.778  17.268   1.715
58297W        W23282  27.176   4.838  11.029
58298W        W23283   7.868   4.471   0.275
58299W        W23284  35.895   6.322  13.563
58300W        W23285   0.330  43.303  13.592
58301W        W23286  22.641  38.493   4.909
58302W        W23287  29.442  37.638  10.284
58303W        W23288  16.003  41.170   2.316
58304W        W23289  24.219   2.004   0.990
58305W        W23290  12.379  27.775   1.924
58306W        W23291   2.489   9.407   2.059
58307W        W23292   3.803  21.044  13.013
58308W        W23293  31.098  28.601   1.451
58309W        W23294  39.123  44.358   4.581
58310W        W23295  34.021  36.118   4.258
58311W        W23296  12.184   4.764   3.863
58312W        W23297  38.002   4.454   3.309
58313W        W23298  30.130  14.505   1.283
58314W        W23299  27.587  22.724  11.430
58315W        W23300  44.775   9.878   2.772
58316W        W23301   5.342   9.368  10.732
58317W        W23302  26.279  37.110  13.774
58318W        W23303  17.093   8.429   3.674
58319W        W23304   0.628  39.547  11.892
58320W        W23305  24.637  12.836   2.643
58321W        W23306  33.643  44.067  12.784
58322W        W23307  42.010  14.225  13.795
58323W        W23308   5.172  25.686   4.091
58324W        W23309  35.008  37.370   4.091
58325W        W23310  27.348  22.710  12.433
58326W        W23311  22.284  21.442  10.761
58327W        W23312  14.189  11.353  14.409
58328W        W23313  31.650  10.172  14.921
58329W        W23314  30.345  44.173   2.314
58330W        W23315  40.447  35.893   1.413
58331W        W23316  43.348  35.718  13.062
58332W        W23317   0.452  20.331  14.408
58333W        W23318  37.956  11.348   4.283
58334W        W23319   7.410   7.192   5.509
58335W        W23320  43.572  24.022  13.868
58336W        W23321   1.670  27.939  14.993
58337W        W23322  27.993   5.294  11.212
58338W        W23323   8.662  16.680  13.968
58339W        W23324   7.224  10.192  12.545
58340W        W23325   7.608   5.107   0.926
58341W        W23326  11.272  18.342   3.706
58342W        W23327  34.927  22.230  11.924
58343W        W23328  26.010  21.326  10.270
58344W        W23329  16.772  26.321   3.678
58345W        W23330  22.592  14.802   3.331
58346W        W23331  11.804   3.719   0.812
58347W        W23332   3.779  43.943  14.008
58348W        W23333   5.558  34.463   2.724
58349W        W23334  25.617   0.917  12.323
58350W        W23335  29.585  28.158   3.298
58351W        W23336  27.961  17.803   0.387
58352W        W23337  14.416  40.569   4.841
58353W        W23338  31.114   6.682  13.320
58354W        W23339  33.566  25.011  13.124
58355W        W23340  43.919   8.797   0.360
58356W        W23341  44.314   7.121  13.273
58357W        W23342   0.460  20.261  12.635
58358W        W23343  15.167   2.838   4.547
58359W        W23344  22.891  18.982  10.395
58360W        W23345  18.159  28.052  11.790
58361W        W23346   3.993  25.111  13.891
58362W        W23347  40.107  18.690   2.208
58363W        W23348   1.635   2.279  11.120
58364W        W23349  13.242   3.940  10.465
58365W        W23350   5.003   2.036  10.406
58366W        W23351   2.618  23.899   2.752
58367W        W23352  23.097  42.223   2.768
58368W        W23353   7.952   1.781   2.750
58369W        W23354  32.593  12.426   0.373
58370W        W23355  31.368   6.775  13.778
58371W        W23356   5.370   2.835   1.458
58372W        W23357  24.382   1.297   2.805
58373W        W23358  19.406  25.658   2.958
58374W        W23359  32.340  26.496  13.065
58375W        W23360  17.761  35.562  14.019
58376W        W23361  34.496  10.863  11.568
58377W        W23362  29.999  29.311  11.518
58378W        W23363  25.952  42.437   1.386
58379W        W23364  36.103   3.720   1.994
58380W        W23365  19.748  14.480  14.896
58381W        W23366  32.616  40.581  13.064
58382W        W23367   2.179  27.764   4.739
58383W        W23368  15.851   3.726  10.670
58384W        W23369  13.873   6.560  11.503
58385W        W23370   9.256   9.417   3.197
58386W        W23371  32.980  20.944  14.432
58387W        W23372  30.021  13.278   2.631
58388W        W23373  28.999  44.389   0.868
58389W        W23374   4.902  28.031   2.869
58390W        W23375  35.059   2.357   2.676
58391W        W23376   3.477  17.926   4.332
58392W        W23377  22.487  32.545   0.701
58393W        W23378  11.228  29.127  10.759
58394W        W23379  15.686  23.983  13.550
58395W        W23380  19.149  39.532   3.126
58396W        W23381  13.971  21.015  12.808
58397W        W23382  26.465  20.975   2.398
58398W        W23383  23.744  20.356  12.864
58399W        W23384  27.354   3.278  11.121
58400W        W23385   1.906   9.835   3.332
58401W        W23386  32.273  40.022  11.683
58402W        W23387  34.025   9.484  13.595
58403W        W23388   9.564   8.395   4.430
58404W        W23389  17.294   0.753   2.639
58405W        W23390   3.589   6.713   3.165
58406W        W23391  33.070  40.249   1.021
58407W        W23392  41.370  31.691  14.406
58408W        W23393   3.387  10.786  12.557
58409W        W23394  13.948  24.708  14.757
58410W        W23395  14.356  29.164  14.921
58411W        W23396  12.810  13.781  11.990
58412W        W23397   7.025   8.055  12.011
58413W        W23398   7.347  21.368  13.020
58414W        W23399   7.039  13.697   2.151
58415W        W23400  39.765  27.601   1.976
58416W        W23401  32.558  13.805   2.443
58417W        W23402  32.618  37.000  13.869
58418W        W23403  37.630   1.889  11.105
58419W        W23404  36.126  32.089   0.608
58420W        W23405  10.082   9.046   4.984
58421W        W23406  35.929  10.192   1.127
58422W        W23407  44.861  36.561  11.763
58423W        W23408  16.136   9.595   4.278
58424W        W23409   8.282  39.847  14.301
58425W        W23410  16.737  43.531  13.012
58426W        W23411  15.116  20.949   1.664
58427W        W23412  33.571  39.409  14.447
58428W        W23413  11.579  10.626  11.105
58429W        W23414  16.937  22.574  11.706
58430W        W23415  44.275  38.189  13.104
58431W        W23416  40.150  21.799   4.168
58432W        W23417   0.345  33.555   0.719
58433W        W23418  23.070  39.510   1.939
58434W        W23419  12.754  36.481   3.185
58435W        W23420  31.078   1.607  11.956
58436W        W23421  37.351  24.168   0.208
58437W        W23422  39.432  38.083  13.612
58438W        W23423   7.750  30.565  13.339
58439W        W23424   4.862   8.251   3.158
58440W        W23425  38.887  33.570   0.851
58441W        W23426  34.395  33.165  13.850
58442W        W23427   2.257  40.952   3.254
58443W        W23428  42.749   9.156  11.163
58444W        W23429  14.988  10.380   1.848
58445W        W23430  32.002   6.908  12.064
58446W        W23431  12.802  43.469   3.080
58447W        W23432  28.982  22.237   4.562
58448W        W23433  29.554  11.085  11.641
58449W        W23434  44.856  34.865   0.445
58450W        W23435  42.987  19.770   4.716
58451W        W23436  23.728  29.002  10.809
58452W        W23437  21.138  32.468  12.303
58453W        W23438  11.725  34.844   3.182
58454W        W23439  24.247  17.342  14.289
58455W        W23440  34.003   3.934   2.683
58456W        W23441  10.940   5.375  13.976
58457W        W23442   7.133  21.853   2.982
58458W        W23443  38.417   5.045  13.223
58459W        W23444  28.715  13.654   0.339
58460W        W23445  34.885   0.735   1.864
58461W        W23446   7.182  39.255  11.199
58462W        W23447   8.683  11.751   3.151
58463W        W23448   2.321  15.302   2.458
58464W        W23449  33.450  41.144  14.406
58465W        W23450  28.171  17.592  11.518
58466W        W23451  25.648  14.732   3.165
58467W        W23452  33.691   9.657   3.551
58468W        W23453  13.776  23.695  14.559
58469W        W23454   3.267  13.089   0.797
58470W        W23455   4.457  34.578   4.196
58471W        W23456   3.295  41.845  12.722
58472W        W23457  30.138   3.309  11.621
58473W        W23458  21.857   9.231  11.626
58474W        W23459  35.446  40.611   4.728
58475W        W23460  25.138  22.301   2.347
58476W        W23461  36.178  39.345  11.485
58477W        W23462  37.388  34.753   0.288
58478W        W23463  26.145  32.608   4.451
58479W        W23464  25.826  19.484   1.668
58480W        W23465   2.030   5.347   0.274
58481W        W23466   1.896  15.054   4.993
58482W        W23467  14.078   7.884  14.954
58483W        W23468   5.268  42.781  11.519
58484W        W23469   9.220   2.384   3.202
58485W        W23470  37.804  16.665  13.995
58486W        W23471  19.892  32.386   5.168
58487W        W23472  36.442  16.993   2.250
58488W        W23473  27.079  25.700  14.925
58489W        W23474  34.853  33.699   3.361
58490W        W23475  20.149  35.247   0.151
58491W        W23476  34.967  24.216  14.456
58492W        W23477  17.589   3.082  14.467
58493W        W23478  42.616  28.595  12.056
58494W        W23479  13.150  31.393  14.311
58495W        W23480  16.153  29.634  10.723
58496W        W23481  39.508  36.174  13.514
58497W        W23482  12.314  27.926   4.824
58498W        W23483   4.268  40.702   1.700
58499W        W23484  31.856  10.990   4.539
58500W        W23485  10.555  28.402   2.187
58501W        W23486  26.737  23.655  14.314
58502W        W23487   1.022  11.879  11.003
58503W        W23488  34.589  25.575   2.319
58504W        W23489  12.199  10.441   2.269
58505W        W23490   3.710  41.396   1.172
58506W        W23491  31.668  31.296   0.039
58507W        W23492   3.680  25.247   2.646
58508W        W23493  36.094   7.077  11.481
58509W        W23494  30.042  39.828   4.394
58510W        W23495  30.918   9.871   3.770
58511W        W23496  37.654   4.488   2.362
58512W        W23497  38.660  16.995  10.499
58513W        W23498   8.113   1.364   1.794
58514W        W23499  37.804  34.075  13.797
58515W        W23500  41.603  18.498   3.757
58516W        W23501  43.936  30.695   2.140
58517W        W23502  39.119  40.480   2.323
58518W        W23503  16.944   9.291   3.738
58519W        W23504  26.033  20.027   0.473
58520W        W23505  40.096  13.712   0.668
58521W        W23506   8.197  35.187   2.859
58522W        W23507  23.499  24.057  14.615
58523W        W23508  36.937  22.805  12.536
58524W        W23509  25.594  14.372   1.426
58525W        W23510  40.536  35.705   2.907
58526W        W23511  23.931  33.103  10.150
58527W        W23512   8.786  23.628  14.010
58528W        W23513  24.482  15.660   3.160
58529W        W23514  28.067  14.087   4.562
58530W        W23515   2.750  38.674   0.233
58531W        W23516  30.917  35.658   1.952
58532W        W23517  15.069  24.796  14.540
58533W        W23518  20.977  21.701  13.437
58534W        W23519  16.235  18.916  10.283
58535W        W23520   8.284  43.249   2.287
58536W        W23521  22.163  11.223  14.621
58537W        W23522  37.112   2.918   0.781
58538W        W23523  26.414  33.127  14.452
58539W        W23524  10.216  29.176   4.080
58540W        W23525   4.943  22.638   1.262
58541W        W23526  18.295   9.865   4.361
58542W        W23527  15.681  16.192  12.113
58543W        W23528  21.221  21.239  11.207
58544W        W23529  36.570  44.763   1.786
58545W        W23530  31.836  23.692  14.559
58546W        W23531  22.950  20.698  14.508
58547W        W23532   1.283  23.751   3.357
58548W        W23533  37.513  21.003  10.632
58549W        W23534  19.961  15.109   4.091
58550W        W23535  32.357  22.201   3.205
58551W        W23536   3.317  11.211  11.122
58552W        W23537   1.904   8.741   1.907
58553W        W23538  28.449   7.959   1.878
58554W        W23539   9.844  42.004  11.649
58555W        W23540  32.346  22.631  10.296
58556W        W23541  31.379  36.384   3.399
58557W        W23542  41.547  25.133   0.326
58558W        W23543   8.235  36.405   3.723
58559W        W23544  20.893  21.174   4.596
58560W        W23545  40.745  15.444  11.515
58561W        W23546   1.600   4.701  11.150
58562W        W23547  31.022  43.383   3.659
58563W        W23548   0.252  28.335   4.787
58564W        W23549  42.420  41.935  13.312
58565W        W23550  41.531  31.206  12.609
58566W        W23551   7.838  13.238  12.136
58567W        W23552  18.341  16.570   2.303
58568W        W23553  32.438   5.714  12.897
58569W        W23554  25.597  28.503  11.585
58570W        W23555   5.190  28.834  11.130
58571W        W23556  30.721  30.108  13.382
58572W        W23557  28.110  20.688  10.517
58573W        W23558  33.610  44.054  10.842
58574W        W23559   1.383   9.670  12.115
58575W        W23560  30.119  27.633   2.205
58576W        W23561  34.528  12.165  11.997
58577W        W23562  39.994  41.976   1.970
58578W        W23563  30.923   8.233  14.547
58579W        W23564  35.490  42.522  13.798
58580W        W23565   7.878   8.389  13.840
58581W        W23566   9.737   4.093   4.536
58582W        W23567   3.789  41.824  12.577
58583W        W23568  20.750  32.316  14.889
58584W        W23569  11.792   0.628  10.222
58585W        W23570  24.947  34.796  13.029
58586W        W23571  37.931  16.358   1.388
58587W        W23572  11.329   5.259   4.585
58588W        W23573  11.342   0.507   4.084
58589W        W23574  11.439  32.013   3.834
58590W        W23575  28.431  38.940   4.587
58591W        W23576  11.851  20.013   1.934
58592W        W23577  21.916   5.405  14.538
58593W        W23578  17.646   2.425   0.242
58594W        W23579  30.941  39.489   4.651
58595W        W23580   7.309  12.715   3.277
58596W        W23581   1.126  40.973  13.020
58597W        W23582   6.231  11.383  13.439
58598W        W23583  16.755  16.821  12.587
58599W        W23584  17.849   7.742  13.278
58600W        W23585   7.957  28.497   0.003
58601W        W23586  15.530  44.730  11.676
58602W        W23587   7.939   9.308   0.294
58603W        W23588   9.806  20.209   4.746
58604W        W23589   0.615   4.906  13.042
58605W        W23590  33.847  38.079   0.816
58606W        W23591  22.964  26.739  14.285
58607W        W23592  23.162  21.387   3.329
58608W        W23593   4.792  22.186   5.120
58609W        W23594  29.770   9.878  12.997
58610W        W23595   1.698  40.524  10.997
58611W        W23596  28.207  17.110  13.001
58612W        W23597  32.006  22.772  11.960
58613W        W23598  44.352   9.179   2.257
58614W        W23599   9.692  21.230   0.284
58615W        W23600  25.031  36.934   1.829
58616W        W23601  33.018   0.387   4.279
58617W        W23602  39.842  12.389   2.726
58618W        W23603   1.598  43.589   1.291
58619W        W23604  40.882   8.790  14.047
58620W        W23605  26.723  44.529   5.499
58621W        W23606  26.440  21.594   1.698
58622W        W23607  39.368  16.370   4.163
58623W        W23608  32.426  17.247   0.790
58624W        W23609  28.256  37.793   2.703
58625W        W23610  29.692  44.279  12.892
58626W        W23611  41.997  20.647  10.819
58627W        W23612   9.312  19.606   3.929
58628W        W23613  13.309   7.264  13.209
58629W        W23614  21.439  24.534  12.492
58630W        W23615  16.677  29.132   4.070
58631W        W23616   0.444  28.570   3.478
58632W        W23617   8.827   8.953   1.938
58633W        W23618  29.196  40.878   4.661
58634W        W23619  23.092  34.100  12.796
58635W        W23620   1.973  39.103  12.053
58636W        W23621  14.605  31.793  13.625
58637W        W23622  26.110  12.693  10.627
58638W        W23623  40.426   5.144   0.220
58639W        W23624  21.040   8.198   3.356
58640W        W23625  17.647  26.440  14.047
58641W        W23626   2.316  34.463  14.263
58642W        W23627  20.212  31.769  11.184
58643W        W23628  27.056   2.954  13.345
58644W        W23629  16.170   7.242  13.916
58645W        W23630   3.550  13.127  11.254
58646W        W23631  11.975  38.475  13.120
58647W        W23632  17.760   6.456  14.129
58648W        W23633  37.856  36.798  10.725
58649W        W23634  22.693   6.863   3.733
58650W        W23635  33.641  19.884  11.979
58651W        W23636  43.775  25.709  11.057
58652W        W23637  22.737  14.838  11.617
58653W        W23638  22.640  41.366   3.703
58654W        W23639   6.798  44.355   0.905
58655W        W23640  40.618  32.433   5.306
58656W        W23641  33.987  33.959  14.869
58657W        W23642  29.005  11.513   4.266
58658W        W23643  27.043  30.671   2.609
58659W        W23644  34.026  18.554   2.849
58660W        W23645  38.851  41.348  11.289
58661W        W23646  35.113  10.764  11.209
58662W        W23647  40.618  37.493  11.923
58663W        W23648   4.891   4.002  11.957
58664W        W23649  19.403  16.689  12.319
58665W        W23650  32.661  31.506  11.785
58666W        W23651  19.068   3.871   1.327
58667W        W23652   5.336  35.289  12.642
58668W        W23653  22.531   7.258   4.703
58669W        W23654  12.906   8.129  10.240
58670W        W23655  40.414  29.583   4.850
58671W        W23656   4.498  26.048  11.259
58672W        W23657  39.392  15.061   0.046
58673W        W23658   2.274  22.085   1.334
58674W        W23659  26.191  26.203  12.328
58675W        W23660  32.918  16.803  12.129
58676W        W23661   8.330  32.381  11.103
58677W        W23662  34.056  30.077   0.634
58678W        W23663  32.979  22.329  12.009
58679W        W23664  23.495  19.551  12.423
58680W        W23665   1.996   4.051  12.401
58681W        W23666  36.221  16.250  13.337
58682W        W23667  21.065  38.345  14.229
58683W        W23668  40.838  23.551   3.715
58684W        W23669  15.294  40.816  11.065
58685W        W23670   5.931  23.549  11.636
58686W        W23671  30.724  11.283  12.511
58687W        W23672  35.654  44.082   1.051
58688W        W23673   2.693   8.398   3.190
58689W        W23674  33.079   0.345   3.774
58690W        W23675   3.256   6.421   2.243
58691W        W23676  31.157  34.574   3.716
58692W        W23677  11.077  24.197   1.638
58693W        W23678  34.182  38.974   3.140
58694W        W23679   8.769   3.417  11.210
58695W        W23680   6.322  20.724  13.151
58696W        W23681  19.602  33.162  12.041
58697W        W23682   6.828   3.307  12.616
58698W        W23683  40.723  33.358   2.775
58699W        W23684   9.225  40.281   3.805
58700W        W23685  23.747   7.310  12.138
58701W        W23686   2.371  23.699  14.952
58702W        W23687  29.707   1.413   4.613
58703W        W23688   0.360  28.659  11.109
58704W        W23689   3.980  10.247   3.721
58705W        W23690  10.418  27.843  14.401
58706W        W23691   4.867  39.224   0.817
58707W        W23692  22.200  44.557   1.776
58708W        W23693  20.079  13.112   4.705
58709W        W23694  19.164  14.307  12.061
58710W        W23695  29.836  28.348   1.325
58711W        W23696  41.926  13.120   1.832
58712W        W23697  34.768  41.753  14.124
58713W        W23698   7.369  11.599  12.074
58714W        W23699  29.859  18.289  11.590
58715W        W23700  38.202   0.837   4.406
58716W        W23701  11.346  31.041  13.553
58717W        W23702   0.402   3.346  11.682
58718W        W23703  20.127  38.020   2.445
58719W        W23704  34.994  29.236  11.171
58720W        W23705  12.120  30.460   2.819
58721W        W23706   3.263  19.308   4.143
58722W        W23707  42.973  30.132   4.783
58723W        W23708   3.960   8.327   2.754
58724W        W23709  27.979  12.028  14.807
58725W        W23710  28.220  21.929  12.223
58726W        W23711   2.369  11.217   1.211
58727W        W23712  38.408   8.874  12.967
58728W        W23713  22.675   8.357   4.366
58729W        W23714  25.894  33.464   0.802
58730W        W23715  15.891  29.917   1.821
58731W        W23716  33.286  20.700  13.040
58732W        W23717  16.789  39.556  12.044
58733W        W23718  10.630   0.965  10.272
58734W        W23719   0.527  43.829  13.992
58735W        W23720  44.505  23.666  14.549
58736W        W23721  33.481  36.935  14.894
58737W        W23722   4.830  18.080  14.575
58738W        W23723  35.736   7.388  11.686
58739W        W23724  25.213  44.399  13.298
58740W        W23725  17.845  11.366   1.813
58741W        W23726  35.703  39.365   2.838
58742W        W23727  10.811   7.283   3.318
58743W        W23728  25.196  20.203   3.843
58744W        W23729  44.574  14.518   1.889
58745W        W23730   0.573  15.942   0.708
58746W        W23731  11.131   5.172  12.492
58747W        W23732  29.272  23.715  12.925
58748W        W23733   4.855  26.413   3.412
58749W        W23734  40.487  18.859  10.669
58750W        W23735  18.430  28.552  14.699
58751W        W23736  10.674  11.369   9.887
58752W        W23737  16.101  31.563  12.619
58753W        W23738  21.138  21.231  12.056
58754W        W23739  11.714   6.438   3.732
58755W        W23740   6.748  28.343   3.826
58756W        W23741  28.378  40.499   1.939
58757W        W23742   0.530  35.872   3.181
58758W        W23743  42.910  26.988  14.508
58759W        W23744   8.310  37.128   3.063
58760W        W23745  23.920  10.692   2.112
58761W        W23746   2.345  12.928   4.127
58762W        W23747  21.075   4.645  12.424
58763W        W23748  18.159  20.261   2.488
58764W        W23749  44.829  16.797   1.453
58765W        W23750  40.313  30.809   2.677
58766W        W23751   6.842  37.966   0.963
58767W        W23752  13.206  12.917   0.190
58768W        W23753  22.512  28.185  11.416
58769W        W23754  44.227  41.655  10.524
58770W        W23755  13.878   4.893  14.785
58771W        W23756  28.053  14.464  13.410
58772W        W23757  18.296  30.898   0.982
58773W        W23758   2.160   7.987   4.580
58774W        W23759  21.575  24.067  11.153
58775W        W23760   2.817   7.636  11.264
58776W        W23761  38.942  38.067  13.990
58777W        W23762  44.689  19.210  12.035
58778W        W23763   7.839   7.680   3.105
58779W        W23764  37.473   6.970  10.164
58780W        W23765  22.789  22.021   1.136
58781W        W23766  15.777   3.544   5.564
58782W        W23767   7.912  18.972   4.536
58783W        W23768  38.837  38.564   2.395
58784W        W23769  30.034  18.672   2.633
58785W        W23770   0.459   7.901  11.535
58786W        W23771  39.298  19.202  14.092
58787W        W23772   7.153   2.789  13.811
58788W        W23773   8.704  28.928  13.888
58789W        W23774  29.261  31.015   4.395
58790W        W23775  40.420  20.780  13.314
58791W        W23776  23.434  24.727   4.541
58792W        W23777  26.511  29.610   2.787
58793W        W23778  22.034  38.944  12.574
58794W        W23779  22.957  20.521   4.373
58795W        W23780   0.249  44.451   0.724
58796W        W23781  41.998  21.721   1.163
58797W        W23782  14.791  24.605  13.209
58798W        W23783  24.067  33.661   4.482
58799W        W23784  10.694  30.264   2.697
58800W        W23785  12.652  37.145   0.995
58801W        W23786  33.639   2.806  13.403
58802W        W23787  27.432  25.202  13.547
58803W        W23788  43.478  17.634   1.697
58804W        W23789  18.108  15.550   2.692
58805W        W23790  42.542  39.472  13.448
58806W        W23791   0.762   9.307  10.416
58807W        W23792  40.440  38.779  10.693
58808W        W23793   8.150  25.681  14.786
58809W        W23794  34.109  21.631  12.102
58810W        W23795   1.295  36.258  11.861
58811W        W23796   2.912  24.327   4.923
58812W        W23797  29.093   6.982   4.316
58813W        W23798  35.395  23.230  13.784
58814W        W23799  21.686   3.904  13.135
58815W        W23800  19.082   6.398  14.509
58816W        W23801  42.708  27.096  11.561
58817W        W23802  27.589  14.770  14.228
58818W        W23803  26.046  44.285  12.989
58819W        W23804  21.580   6.203   1.868
58820W        W23805  18.235  15.291  12.415
58821W        W23806  41.938  44.848  11.361
58822W        W23807  35.413  37.524   0.368
58823W        W23808  26.704  36.103   0.143
58824W        W23809   0.838   6.203   2.384
58825W        W23810  24.270   5.371  12.995
58826W        W23811  15.773  18.613   2.641
58827W        W23812  29.504  35.546  13.762
58828W        W23813  12.175  38.778  13.546
58829W        W23814  24.977   0.865  10.782
58830W        W23815   5.653  20.508   1.885
58831W        W23816  42.224   5.280   3.443
58832W        W23817   3.943  43.590   0.387
58833W        W23818  36.023  19.668  14.728
58834W        W23819  14.908  36.815  11.238
58835W        W23820  34.325  37.714  13.654
58836W        W23821   9.749  25.469  13.703
58837W        W23822   2.128  35.234  13.848
58838W        W23823   2.017  16.488   0.767
58839W        W23824  37.868   6.715  11.454
58840W        W23825   3.444  13.267  13.449
58841W        W23826  12.328   7.335  14.253
58842W        W23827  19.413  40.985  12.659
58843W        W23828  23.648  33.554  11.333
58844W        W23829   0.326  29.720   0.531
58845W        W23830  27.408   4.348   4.168
58846W        W23831  13.803  31.648  13.515
58847W        W23832  14.254  27.491   0.397
58848W        W23833  18.244  16.844   0.580
58849W        W23834  32.883  38.017  12.474
58850W        W23835  24.229  20.342   0.255
58851W        W23836  40.843  39.466  10.297
58852W        W23837  25.535  16.860   5.001
58853W        W23838  44.883  26.538   9.688
58854W        W23839  33.140  43.337  10.841
58855W        W23840   6.029   6.856   3.261
58856W        W23841  21.949   0.150  11.272
58857W        W23842  12.707  27.254   2.562
58858W        W23843   0.346   9.780   3.981
58859W        W23844  25.210   9.163   1.451
58860W        W23845  43.668   8.056  13.875
58861W        W23846  37.139  40.282   0.749
58862W        W23847  28.114  32.416  11.673
58863W        W23848   9.699  28.561  11.575
58864W        W23849   8.258  25.503  13.117
58865W        W23850  25.889   3.374  12.044
58866W        W23851  31.212   2.398  10.920
58867W        W23852  42.503  29.184  14.223
58868W        W23853  40.295   7.496  14.919
58869W        W23854   8.202  12.977  11.375
58870W        W23855   3.135  14.125   3.828
58871W        W23856   1.261  32.758  12.574
58872W        W23857   1.273   5.011  13.707
58873W        W23858  18.520  44.005  14.961
58874W        W23859   7.786   1.121   4.112
58875W        W23860  27.145  19.596  12.102
58876W        W23861  16.762   2.342  12.023
58877W        W23862  25.829   8.982  11.139
58878W        W23863  15.692  33.614   0.962
58879W        W23864  43.418  26.738  13.465
58880W        W23865   9.257   8.750  10.729
58881W        W23866   8.932  43.377   0.727
58882W        W23867   1.813  33.511  14.485
58883W        W23868  28.963  28.197  13.404
58884W        W23869  12.191  30.149  12.002
58885W        W23870  18.460  15.909   1.792
58886W        W23871  25.228   5.753   1.036
58887W        W23872  11.160  18.341  10.984
58888W        W23873   0.943  22.537   4.757
58889W        W23874  13.272  11.200  10.523
58890W        W23875  18.513   2.010  11.907
58891W        W23876   9.739  28.777   1.341
58892W        W23877  28.900  35.392   0.426
58893W        W23878  11.443  39.516   2.234
58894W        W23879  22.828  14.854   1.018
58895W        W23880  17.584  43.216  10.602
58896W        W23881  15.672  43.163  11.046
58897W        W23882   2.688  20.241   2.236
58898W        W23883   9.291  28.486   1.695
58899W        W23884   7.615  12.846   4.136
58900W        W23885  14.879   0.703   1.889
58901W        W23886  26.099  33.562   4.684
58902W        W23887  10.664  35.006   2.549
58903W        W23888  25.995  33.066  10.468
58904W        W23889  42.482  30.595  13.075
58905W        W23890   6.476   4.355   2.909
58906W        W23891  12.181  42.327   1.237
58907W        W23892  41.053  15.902   1.778
58908W        W23893   6.594  43.245  13.372
58909W        W23894  15.100  35.883  12.158
58910W        W23895  37.640   4.782  13.522
58911W        W23896  42.944  43.713  11.152
58912W        W23897  25.791  29.701   1.268
58913W        W23898   4.868  39.556  13.427
58914W        W23899  33.965  13.340  14.461
58915W        W23900  25.016   2.402  10.249
58916W        W23901  11.770  44.734  14.914
58917W        W23902  25.756  29.967   0.299
58918W        W23903  39.323  35.904   1.788
58919W        W23904  11.107  19.198  11.011
58920W        W23905  36.545  12.859  11.730
58921W        W23906  16.105  22.065  12.937
58922W        W23907  26.317   7.236  13.358
58923W        W23908   4.745  11.499   2.324
58924W        W23909  30.464  12.686  11.390
58925W        W23910   6.825  24.676   2.004
58926W        W23911  22.734  31.874  13.947
58927W        W23912   4.970  19.248   2.712
58928W        W23913  21.189  40.377  12.421
58929W        W23914  17.316  35.850   1.904
58930W        W23915  21.963   6.161  12.409
58931W        W23916  10.962  15.271  14.653
58932W        W23917  29.692  25.910   1.602
58933W        W23918   1.834  20.000  12.425
58934W        W23919   1.927  39.373   2.765
58935W        W23920  31.901  36.804   4.791
58936W        W23921  33.381  16.914   0.338
58937W        W23922   6.283  36.523  13.029
58938W        W23923  35.559   6.432   3.640
58939W        W23924  31.528  23.074  14.859
58940W        W23925  36.549  24.526   1.268
58941W        W23926   1.475  23.997  10.942
58942W        W23927   2.013   3.857   3.083
58943W        W23928  26.248  28.295   4.035
58944W        W23929  25.610  27.131  11.597
58945W        W23930   2.437  16.056  13.771
58946W        W23931  26.679  35.965   4.709
58947W        W23932  12.675   1.366  11.565
58948W        W23933  21.694  41.518  12.390
58949W        W23934  15.560  37.867   3.252
58950W        W23935  16.023  10.197   3.268
58951W        W23936  18.469   7.416   2.086
58952W        W23937  30.959  31.658  13.570
58953W        W23938   5.848  22.903   1.531
58954W        W23939  21.006  43.693  10.374
58955W        W23940  43.428  43.178  11.646
58956W        W23941  44.560  13.095   3.927
58957W        W23942  29.153  23.522   2.353
58958W        W23943  27.707  37.065  12.923
58959W        W23944   0.184  22.163   0.424
58960W        W23945  40.330  12.855  11.467
58961W        W23946  25.310  19.192   3.091
58962W        W23947   0.971  26.486   1.787
58963W        W23948  34.187  40.980   4.791
58964W        W23949  36.340  24.194   2.392
58965W        W23950  43.387  37.956  11.176
58966W        W23951  25.260   8.216   1.274
58967W        W23952   1.797  23.608   4.707
58968W        W23953   3.305   1.006   1.297
58969W        W23954   0.903  38.009   4.863
58970W        W23955  26.502  44.444  10.698
58971W        W23956   0.732   9.882   1.058
58972W        W23957  13.859  24.786   2.730
58973W        W23958  19.579  13.243  11.441
58974W        W23959  26.771  22.003   2.586
58975W        W23960   6.839  27.515   0.792
58976W        W23961   1.310  33.802  13.051
58977W        W23962  20.466  26.116   2.377
58978W        W23963   3.285  14.741   2.906
58979W        W23964  21.787  43.944  14.562
58980W        W23965  40.987  22.423  14.842
58981W        W23966  15.608  30.524  13.883
58982W        W23967  15.750  20.945  11.699
58983W        W23968   2.790  20.769  12.863
58984W        W23969  31.351   4.877  14.469
58985W        W23970  32.182  30.220   0.389
58986W        W23971  19.267  21.348   0.723
58987W        W23972  36.959  21.727   1.825
58988W        W23973  34.085   6.357   5.178
58989W        W23974  18.139  25.529  11.933
58990W        W23975  25.752  40.809  10.438
58991W        W23976  37.267  22.079   4.277
58992W        W23977  16.439   4.026  12.420
58993W        W23978   6.370  18.672  11.951
58994W        W23979  11.914  25.879  11.540
58995W        W23980  11.485  16.205  12.470
58996W        W23981  27.433  44.865   4.777
58997W        W23982  24.552  22.829  11.278
58998W        W23983  34.919  12.813  14.400
58999W        W23984  28.649  23.660  12.061
59000W        W23985   2.847  18.343  11.281
59001W        W23986   8.325  23.415  14.196
59002W        W23987   5.705   0.109   4.605
59003W        W23988  33.869  25.643   0.627
59004W        W23989  44.219  21.655   4.083
59005W        W23990  36.067  11.048  14.054
59006W        W23991  27.184  26.788  12.886
59007W        W23992   6.204  41.904   1.329
59008W        W23993  39.108  44.491  14.336
59009W        W23994  16.183  30.065  10.440
59010W        W23995  11.383  10.967   2.233
59011W        W23996  31.434  35.426  10.700
59012W        W23997  26.480  17.628  12.046
59013W        W23998  33.977  28.995   3.286
59014W        W23999  26.624  43.827  10.707
59015W        W24000  35.050  30.010   3.618
59016W        W24001  21.322  25.127  12.650
59017W        W24002   9.024  34.115  14.445
59018W        W24003  39.014  39.717  10.122
59019W        W24004  31.030  24.806   2.195
59020W        W24005   1.321   7.405   4.311
59021W        W24006  44.373  20.094   3.338
59022W        W24007   5.691  44.910   0.892
59023W        W24008  13.108  27.447  12.482
59024W        W24009   3.885  39.901   1.279
59025W        W24010  25.035  36.032  12.585
59026W        W24011  27.508  29.901   2.332
59027W        W24012  30.198  28.074   2.714
59028W        W24013  34.094   0.233  13.339
59029W        W24014   6.313  43.718   3.811
59030W        W24015  16.077  43.023   4.647
59031W        W24016  37.796  15.761  13.048
59032W        W24017  37.509  11.884  12.146
59033W        W24018  24.533  41.417  12.991
59034W        W24019   1.790  32.424   2.142
59035W        W24020   1.497  44.053   0.857
59036W        W24021  40.201  24.238   3.012
59037W        W24022   0.520  25.315  14.813
59038W        W24023  15.345  38.835  14.951
59039W        W24024  11.687  17.591   0.139
59040W        W24025  33.277  20.278  12.103
59041W        W24026  22.899   9.487   3.363
59042W        W24027  31.937  25.927   0.474
59043W        W24028  33.616   7.788   1.881
59044W        W24029  35.884  14.006  13.044
59045W        W24030  29.647  32.359   1.523
59046W        W24031  40.491  25.722  14.447
59047W        W24032  21.955  21.152   2.963
59048W        W24033  27.050   8.905   0.440
59049W        W24034  31.610  22.570   5.249
59050W        W24035   6.302  35.447   4.879
59051W        W24036   9.623  22.756   1.801
59052W        W24037  19.330  43.272   4.467
59053W        W24038  17.146  27.076   9.937
59054W        W24039  28.770  35.372   4.255
59055W        W24040   3.897  22.982   0.895
59056W        W24041  15.006   9.389  12.635
59057W        W24042  39.132  18.040   2.968
59058W        W24043  41.553  28.720  12.805
59059W        W24044  30.383  42.060  11.650
59060W        W24045   5.456  20.980   5.094
59061W        W24046  35.098   7.898  14.339
59062W        W24047  10.119  35.817   0.449
59063W        W24048   6.232  41.841  13.287
59064W        W24049  42.197  14.138  12.017
59065W        W24050  40.064  12.345   1.833
59066W        W24051  42.738   8.811  14.266
59067W        W24052   9.828  18.502   1.259
59068W        W24053   8.734  10.894   1.465
59069W        W24054  25.477  41.448   4.593
59070W        W24055  40.370   0.837   3.689
59071W        W24056  25.693  19.088   2.754
59072W        W24057  11.189  40.494  11.954
59073W        W24058  43.594   6.692  13.795
59074W        W24059  40.475   2.511   0.750
59075W        W24060  34.506  10.231   0.256
59076W        W24061   7.542   4.572  10.320
59077W        W24062  23.932  14.569   3.659
59078W        W24063  41.437  20.698  10.940
59079W        W24064  34.106  19.988   4.634
59080W        W24065  12.903   4.804   2.102
59081W        W24066  42.914  41.056   3.735
59082W        W24067  18.563  42.472  12.215
59083W        W24068   3.975  12.286  11.973
59084W        W24069  16.185  13.382  11.711
59085W        W24070  28.244  15.871   2.393
59086W        W24071  35.454  21.622  13.528
59087W        W24072  34.405   3.381  14.359
59088W        W24073  26.146  44.785  11.631
59089W        W24074  34.504  36.640  10.691
59090W        W24075  17.724  23.746   1.410
59091W        W24076  43.530  24.742  11.851
59092W        W24077   7.789  28.896  10.570
59093W        W24078  12.308  25.358   0.939
59094W        W24079  14.651  41.049   3.618
59095W        W24080  27.584   2.983   1.326
59096W        W24081  38.476  28.310  14.413
59097W        W24082  26.265  36.893   0.316
59098W        W24083  36.469  17.320   0.733
59099W        W24084  11.384   1.892   2.687
59100W        W24085  31.528   5.476   1.469
59101W        W24086   2.986   1.375  11.612
59102W        W24087  31.368  18.967   0.956
59103W        W24088  34.636  14.747   2.212
59104W        W24089  31.002  25.641  14.572
59105W        W24090  44.478  40.324  11.135
59106W        W24091  36.644  22.227   1.405
59107W        W24092  18.118  11.753   0.065
59108W        W24093  26.506  11.028   4.034
59109W        W24094  39.330   5.066   3.135
59110W        W24095  34.673  14.504  12.989
59111W        W24096  26.938   3.411  12.044
59112W        W24097  19.106   6.716   1.405
59113W        W24098   2.381   3.738   1.775
59114W        W24099  29.445  17.753  11.102
59115W        W24100  31.470  33.372   4.357
59116W        W24101   5.440   2.472  10.733
59117W        W24102   7.142  24.253   2.287
59118W        W24103   5.969  24.513  13.521
59119W        W24104  39.167  26.515  14.472
59120W        W24105  24.675  29.127  14.965
59121W        W24106  14.290  35.523  13.123
59122W        W24107  16.528  14.191  14.112
59123W        W24108   0.949  24.922   1.912
59124W        W24109  26.922  16.908   2.351
59125W        W24110  21.818   9.866  14.295
59126W        W24111  42.823  35.496   1.795
59127W        W24112  41.493  18.830  10.835
59128W        W24113   0.938   9.494   0.772
59129W        W24114  34.201   8.085   4.479
59130W        W24115  40.274  22.437   1.917
59131W        W24116  35.351  18.579  14.174
59132W        W24117  41.556  43.234  11.701
59133W        W24118  35.146   4.505   0.329
59134W        W24119  32.412  37.929  13.420
59135W        W24120  16.163  14.581  12.472
59136W        W24121  43.408  40.841   4.418
59137W        W24122  37.064   8.497   5.086
59138W        W24123  27.471  27.989  11.632
59139W        W24124   9.370  24.738  13.362
59140W        W24125  35.567  23.816   0.702
59141W        W24126  31.024  29.979   4.574
59142W        W24127  19.007  27.645   3.622
59143W        W24128  17.618  22.088   4.199
59144W        W24129  39.735  43.379   4.546
59145W        W24130  32.473  34.867   1.896
59146W        W24131  40.021  33.983  13.445
59147W        W24132  13.670  32.676   1.284
59148W        W24133   5.983  14.123  12.967
59149W        W24134  29.442  28.036   4.341
59150W        W24135  18.172   5.427   2.402
59151W        W24136  30.113  10.354   3.582
59152W        W24137   5.184  18.177  12.552
59153W        W24138   6.778  25.132   0.847
59154W        W24139  11.610   8.819  14.891
59155W        W24140  39.406  43.521  14.528
59156W        W24141   6.654  25.166  10.636
59157W        W24142  28.670   1.380   1.341
59158W        W24143  33.445  38.478   3.203
59159W        W24144  22.661  37.288  12.871
59160W        W24145  26.141  25.461  14.884
59161W        W24146  37.812  20.290   1.680
59162W        W24147  38.415  36.556  11.156
59163W        W24148   8.564   9.400   2.488
59164W        W24149  11.026  34.075  12.101
59165W        W24150  23.719  21.274   4.054
59166W        W24151  24.101  18.589   2.078
59167W        W24152  33.596  39.935  11.407
59168W        W24153   3.602  37.075  10.878
59169W        W24154  10.334   4.794  12.500
59170W        W24155  17.026   8.814  13.494
59171W        W24156  17.013  33.095   3.305
59172W        W24157  24.496  28.137  13.885
59173W        W24158  10.922  24.591   3.594
59174W        W24159  41.881   0.559   2.165
59175W        W24160  35.066  24.255   4.287
59176W        W24161   2.032  10.280   1.051
59177W        W24162   9.751  36.286  14.789
59178W        W24163   7.192  27.417  13.921
59179W        W24164  12.104  37.885   2.251
59180W        W24165   8.785   1.463   2.535
59181W        W24166  35.054  18.769   3.071
59182W        W24167  44.828  30.146  14.324
59183W        W24168   2.139  23.943   0.349
59184W        W24169  39.672   2.415  11.998
59185W        W24170  17.786  18.664  10.987
59186W        W24171   6.931  25.621   0.640
59187W        W24172  43.399  39.643   0.119
59188W        W24173  28.591  31.746   0.911
59189W        W24174  14.136  33.328   1.850
59190W        W24175  13.698  29.966   1.511
59191W        W24176  13.582  16.777   1.250
59192W        W24177  18.633  32.566  12.085
59193W        W24178   8.087   5.222  12.910
59194W        W24179  34.794  41.063  12.437
59195W        W24180  33.830  40.918  13.427
59196W        W24181  40.265   1.468   4.100
59197W        W24182  18.083  32.897  12.811
59198W        W24183  25.337  22.231  13.697
59199W        W24184  22.340  35.146  14.274
59200W        W24185   9.870  30.578  12.783
59201W        W24186  16.785  16.618  13.619
59202W        W24187  12.700  17.475  12.053
59203W        W24188  32.271  39.616   0.787
59204W        W24189   3.447  29.415   0.801
59205W        W24190  23.782  41.924  13.410
59206W        W24191  13.833  22.590  10.863
59207W        W24192  38.048  42.902  13.005
59208W        W24193  27.055  30.164   2.464
59209W        W24194  16.298  39.984  12.366
59210W        W24195  41.508  11.110  10.742
59211W        W24196   5.248  24.240   2.448
59212W        W24197  21.990  37.029  13.905
59213W        W24198  29.707   8.347  13.846
59214W        W24199  25.124  26.627  13.921
59215W        W24200   7.645  38.833   0.321
59216W        W24201  35.383  23.511   1.867
59217W        W24202  11.185  28.950  11.611
59218W        W24203  42.511  21.822   1.196
59219W        W24204  32.508  35.457  13.567
59220W        W24205  11.141  39.004  14.005
59221W        W24206  21.774   6.043   9.879
59222W        W24207  18.032  15.651   0.865
59223W        W24208  16.128  41.022  10.480
59224W        W24209  27.065   8.568   2.303
59225W        W24210  24.086  44.700   4.479
59226W        W24211  40.296   4.839  12.868
59227W        W24212  30.637   4.444   4.806
59228W        W24213   6.135  41.934   4.027
59229W        W24214   9.162  18.750  12.523
59230W        W24215  20.672   7.301  12.115
59231W        W24216  19.193  12.194   3.807
59232W        W24217  34.298  31.157   0.304
59233W        W24218  29.628  42.130   2.744
59234W        W24219  15.188  43.416  10.449
59235W        W24220  10.146  22.361   3.131
59236W        W24221  28.087  27.985   0.887
59237W        W24222   1.481  29.577   0.983
59238W        W24223  19.782  35.550  13.870
59239W        W24224  17.105  23.203  11.365
59240W        W24225  42.746  23.199  10.708
59241W        W24226  43.952  43.427   3.284
59242W        W24227   6.660   0.404   0.100
59243W        W24228  27.277  12.870  11.668
59244W        W24229   1.427  16.253   3.780
59245W        W24230   1.903  20.151   5.093
59246W        W24231   3.006  43.733   1.185
59247W        W24232  31.264  34.793   4.163
59248W        W24233  19.827  18.054   3.178
59249W        W24234  35.886  26.481   0.735
59250W        W24235  18.732  34.824   3.817
59251W        W24236  38.295  10.720  12.046
59252W        W24237   4.143  10.901  12.015
59253W        W24238  27.558  24.149  11.412
59254W        W24239  36.138   3.397  11.655
59255W        W24240  14.568  23.745  10.751
59256W        W24241   1.856   6.872   4.011
59257W        W24242  10.634  12.556   2.686
59258W        W24243   4.452  18.329  13.042
59259W        W24244  40.285  26.161  12.564
59260W        W24245   6.247  41.445   2.077
59261W        W24246   0.814  32.368  13.870
59262W        W24247  44.838  40.032  10.881
59263W        W24248  36.057   8.440   2.546
59264W        W24249   8.609  26.958  10.768
59265W        W24250  14.305  15.483   2.762
59266W        W24251   6.212   1.429   1.721
59267W        W24252   3.698  31.583   0.264
59268W        W24253  17.624  41.499  12.390
59269W        W24254  23.151   8.812   1.316
59270W        W24255  11.898  25.957  10.690
59271W        W24256  38.787  27.954   3.216
59272W        W24257   6.156  13.106  13.072
59273W        W24258  12.437   6.111  11.660
59274W        W24259  12.646  17.111   2.040
59275W        W24260  11.997  15.622   5.171
59276W        W24261   6.900  33.062  12.376
59277W        W24262  25.324  44.442  11.579
59278W        W24263  28.259   9.447   4.344
59279W        W24264  26.236  34.538  14.427
59280W        W24265  20.658  34.555  10.660
59281W        W24266   6.181  13.896  12.135
59282W        W24267  37.309  41.009  13.564
59283W        W24268  30.828  34.371   4.085
59284W        W24269  41.913  29.575  12.409
59285W        W24270   7.853  29.503  14.835
59286W        W24271   9.236  30.293   5.038
59287W        W24272  41.313  25.949   1.072
59288W        W24273   1.002  37.904  12.489
59289W        W24274  44.294   2.269   1.745
59290W        W24275  20.688  14.093   4.933
59291W        W24276  33.712   7.966  14.322
59292W        W24277  40.304  24.999   4.157
59293W        W24278   9.434   9.619   0.472
59294W        W24279   3.906   5.418   0.776
59295W        W24280  36.526  27.411  14.464
59296W        W24281  12.658  28.502  12.116
59297W        W24282  26.314  41.712   4.056
59298W        W24283  31.906  38.768   0.631
59299W        W24284  34.904  31.827   3.387
59300W        W24285   4.807  42.841  13.877
59301W        W24286  27.206   4.639  12.469
59302W        W24287  37.387  10.982   0.923
59303W        W24288  35.620   4.645   3.150
59304W        W24289  22.386  13.306   0.060
59305W        W24290  15.382  44.044   4.951
59306W        W24291  30.851  36.018  10.279
59307W        W24292   7.786  16.490   2.898
59308W        W24293  18.537  16.691  11.084
59309W        W24294  13.917   5.973   4.713
59310W        W24295  27.976  32.303   1.478
59311W        W24296   5.594  10.476   1.957
59312W        W24297   2.997  43.428  13.954
59313W        W24298  27.487  20.291  13.130
59314W        W24299  26.225  40.110   3.836
59315W        W24300   3.341  27.369   1.849
59316W        W24301  42.421  23.999   4.346
59317W        W24302   9.723   6.160  11.636
59318W        W24303  13.144   5.889   0.456
59319W        W24304  19.479  24.674  10.338
59320W        W24305  40.442  32.815   3.602
59321W        W24306  24.403   6.498   3.190
59322W        W24307  36.758  35.114   1.412
59323W        W24308  40.269  43.921  12.473
59324W        W24309  23.672  30.604   1.782
59325W        W24310  13.043  24.668   3.184
59326W        W24311  10.112  17.061   0.304
59327W        W24312   1.111  24.881  14.380
59328W        W24313  19.143  30.883   0.499
59329W        W24314  40.055  20.683  10.276
59330W        W24315  33.340   7.337   4.043
59331W        W24316  18.334   3.834   1.955
59332W        W24317  20.201  33.847   3.657
59333W        W24318  30.968  23.497   1.624
59334W        W24319  24.137  37.825   3.155
59335W        W24320   0.854   9.454   1.385
59336W        W24321  16.227  24.651  12.088
59337W        W24322  37.448   1.779  12.650
59338W        W24323  32.944  37.304  12.142
59339W        W24324  24.407   1.690  13.237
59340W        W24325  30.894  19.738   1.181
59341W        W24326  37.997  32.072  13.925
59342W        W24327  43.865  16.244   3.175
59343W        W24328  42.401  22.935  12.595
59344W        W24329  26.008  42.542   4.397
59345W        W24330  41.022  22.610  11.227
59346W        W24331  36.509  39.473   1.937
59347W        W24332   3.549  16.911   4.156
59348W        W24333  35.876  15.239   2.901
59349W        W24334  16.589  44.291   2.279
59350W        W24335  27.245  10.843  14.061
59351W        W24336  25.142  17.552   0.044
59352W        W24337   2.997  34.360  11.575
59353W        W24338  42.397  17.227   1.410
59354W        W24339  35.841  32.026   3.155
59355W        W24340  32.943  41.456   0.026
59356W        W24341  44.865  44.032  13.471
59357W        W24342  35.118   0.439   0.064
59358W        W24343   5.225  42.931   4.153
59359W        W24344   7.163   4.868  11.130
59360W        W24345  38.008  43.901   2.155
59361W        W24346  30.382  28.542   2.880
59362W        W24347  39.845  41.752   2.404
59363W        W24348   0.769  25.676  13.091
59364W        W24349   1.757   5.105   2.865
59365W        W24350   3.482  29.012  12.083
59366W        W24351  44.544  44.938  12.674
59367W        W24352  40.774   6.568  12.938
59368W        W24353  17.642  20.681   3.088
59369W        W24354  37.080  41.828   3.219
59370W        W24355   6.853  42.601   0.359
59371W        W24356  34.192  33.004   4.214
59372W        W24357  16.534   4.194  13.435
59373W        W24358   8.798  15.596   2.226
59374W        W24359   6.432  13.321  13.470
59375W        W24360   2.285   7.003  13.405
59376W        W24361  16.888  19.521  10.406
59377W        W24362  38.440  27.806   0.798
59378W        W24363   7.695  34.253   3.304
59379W        W24364  15.018  26.726  13.437
59380W        W24365  29.906  14.037   1.348
59381W        W24366  18.740  21.632  13.890
59382W        W24367  31.836  16.893  10.724
59383W        W24368  19.602  14.603   3.084
59384W        W24369   6.932  35.579   3.713
59385W        W24370  12.067  26.344  13.299
59386W        W24371   5.794  31.085   0.471
59387W        W24372  38.946  12.036  10.790
59388W        W24373  36.574  32.096   0.310
59389W        W24374  11.838  40.466  14.718
59390W        W24375  11.098  19.948   0.911
59391W        W24376  18.547  24.571   4.751
59392W        W24377  20.682  16.637  12.116
59393W        W24378  23.069  44.227  14.436
59394W        W24379   2.160  36.885  12.939
59395W        W24380   4.306  12.123   2.594
59396W        W24381   4.364  42.402   1.780
59397W        W24382   2.309   1.983   3.263
59398W        W24383  18.051  34.943   1.332
59399W        W24384  44.529  13.634   1.802
59400W        W24385   5.301  36.635  10.936
59401W        W24386  34.896  27.882   4.622
59402W        W24387  37.842   0.659  11.484
59403W        W24388   6.323  33.380   1.728
59404W        W24389  30.172  18.088  14.854
59405W        W24390   4.254  17.054  14.322
59406W        W24391   3.339  21.387   1.678
59407W        W24392  25.610  13.367  13.511
59408W        W24393  14.859  24.065   4.065
59409W        W24394  31.694  36.304  13.347
59410W        W24395   9.537  20.255   2.672
59411W        W24396  33.513  33.376  11.433
59412W        W24397  42.996   9.197  14.543
59413W        W24398   7.446  32.887   3.586
59414W        W24399   7.338  44.222  14.894
59415W        W24400  12.827  38.393   2.463
59416W        W24401  24.966  24.749   2.766
59417W        W24402   5.779  41.904   0.001
59418W        W24403  13.136   6.616  11.989
59419W        W24404  32.646  21.170  12.536
59420W        W24405  39.776  20.588   4.168
59421W        W24406  25.606   1.442  12.299
59422W        W24407  21.088  42.777   3.596
59423W        W24408  16.795  16.794  14.882
59424W        W24409  40.580   4.400  12.915
59425W        W24410  24.456   4.834  10.098
59426W        W24411   7.592  40.808   1.978
59427W        W24412  41.843  36.062  10.111
59428W        W24413   3.703   6.422   4.124
59429W        W24414  22.203  11.939  14.936
59430W        W24415  26.750  23.988   1.801
59431W        W24416  32.406   9.806  13.525
59432W        W24417  39.706  42.073   4.311
59433W        W24418  39.085   4.208  10.333
59434W        W24419  24.019  25.577   2.393
59435W        W24420  32.453   4.771   3.244
59436W        W24421   1.383   6.893   1.145
59437W        W24422  35.698  15.137  11.632
59438W        W24423  20.974  14.652   3.454
59439W        W24424  40.795  44.341   0.597
59440W        W24425  26.029  41.850   3.143
59441W        W24426  33.848   9.852  14.044
59442W        W24427  16.850  31.911   0.795
59443W        W24428  43.173  10.211  12.022
59444W        W24429   7.685  26.518  13.888
59445W        W24430  15.735  14.854  11.635
59446W        W24431  21.055   1.508  13.001
59447W        W24432  44.365  34.901   4.532
59448W        W24433  24.222  39.217   1.423
59449W        W24434  12.836  30.688   4.255
59450W        W24435  18.753  34.143  10.971
59451W        W24436  14.940   1.282   2.976
59452W        W24437  18.015   9.712   2.182
59453W        W24438   1.394  29.614  10.893
59454W        W24439  29.992   0.938   4.635
59455W        W24440  21.869  27.109   4.836
59456W        W24441   9.768  16.506   5.076
59457W        W24442  13.766  31.133  13.432
59458W        W24443  39.707  11.521  10.645
59459W        W24444  14.196  26.096   3.255
59460W        W24445   4.475  25.533  11.763
59461W        W24446  15.295  32.611  11.344
59462W        W24447  14.584  27.056  12.005
59463W        W24448  39.625   1.826  14.030
59464W        W24449  39.125  33.854  13.353
59465W        W24450  15.584  44.126   2.583
59466W        W24451  38.182  29.416  12.928
59467W        W24452  40.560  12.605   3.895
59468W        W24453  32.977  15.203   4.576
59469W        W24454  42.054  24.130  11.735
59470W        W24455  17.424  17.120   2.922
59471W        W24456  12.042  13.178   4.042
59472W        W24457  39.226  15.181   0.897
59473W        W24458  15.998  20.668   5.169
59474W        W24459  30.117  43.590   2.712
59475W        W24460   4.289   9.177  12.052
59476W        W24461  20.152  37.857  10.784
59477W        W24462  18.160   6.957   0.395
59478W        W24463  17.306  32.538   3.236
59479W        W24464  36.776  41.875   0.345
59480W        W24465   3.415  17.531   4.728
59481W        W24466  13.275   3.978  13.966
59482W        W24467  17.085  44.374  12.171
59483W        W24468   7.673  36.828   1.461
59484W        W24469  42.245  18.185   2.291
59485W        W24470  37.464  17.063   3.325
59486W        W24471   3.793   8.745   3.692
59487W        W24472  23.510  27.115   2.372
59488W        W24473  36.651  13.016   0.722
59489W        W24474   1.001  16.264   0.869
59490W        W24475  23.932  22.794  13.356
59491W        W24476  36.463  24.036  13.480
59492W        W24477  37.424  11.165   1.407
59493W        W24478   6.579  29.649  11.010
59494W        W24479  35.581  27.596  10.741
59495W        W24480  18.608   4.129   3.995
59496W        W24481  12.384  34.260  12.610
59497W        W24482  21.920  17.089  12.827
59498W        W24483  12.353  19.698  11.037
59499W        W24484  25.889  19.030  13.099
59500W        W24485  31.780  40.871  11.691
59501W        W24486  28.238  25.953  12.382
59502W        W24487   7.298  34.862  13.451
59503W        W24488  15.833  16.757   2.219
59504W        W24489   6.371  26.566   4.339
59505W        W24490  23.189  27.749  10.940
59506W        W24491   1.969   7.205   4.930
59507W        W24492  21.598   4.907  11.111
59508W        W24493  25.058  19.559   4.617
59509W        W24494  29.603  15.399   4.275
59510W        W24495  34.433  37.776  12.512
59511W        W24496  32.866  15.398   2.762
59512W        W24497  25.520  38.426   1.402
59513W        W24498  12.149  29.194   1.711
59514W        W24499  20.151  23.255  12.945
59515W        W24500  14.162  17.732   2.721
59516W        W24501  12.609  41.823  13.912
59517W        W24502   7.585  12.950   4.669
59518W        W24503  34.393  41.491   2.306
59519W        W24504  24.647  36.039  11.445
59520W        W24505   2.662  33.368   9.746
59521W        W24506  28.103  16.036  10.782
59522W        W24507   1.829   4.106   4.020
59523W        W24508  19.338  29.112  11.546
59524W        W24509  30.895  37.441  14.015
59525W        W24510  12.197  12.098   0.991
59526W        W24511  20.430  31.003  10.783
59527W        W24512  16.377  24.551  13.448
59528W        W24513   7.845  18.256   2.374
59529W        W24514   0.423   9.167   1.462
59530W        W24515   9.828  11.897  14.402
59531W        W24516  25.339   5.668  12.877
59532W        W24517  30.113  31.235  12.940
59533W        W24518  24.421   5.222  12.002
59534W        W24519  22.100   1.524   3.662
59535W        W24520   2.310   2.309  11.616
59536W        W24521  26.762  24.844  14.833
59537W        W24522  39.614  38.382   1.728
59538W        W24523  28.080  44.798   0.175
59539W        W24524   5.940  25.785  13.425
59540W        W24525  17.577  23.183   3.301
59541W        W24526  41.361  36.890  11.038
59542W        W24527   6.859  21.573   3.805
59543W        W24528  20.917   4.810  12.912
59544W        W24529  28.480  13.707  10.693
59545W        W24530  29.979  25.202   0.050
59546W        W24531  28.596   0.334  11.463
59547W        W24532  25.558   7.330  14.939
59548W        W24533  25.713  20.136  14.918
59549W        W24534  14.316   1.949  12.369
59550W        W24535   9.857  38.191  12.035
59551W        W24536  31.058  22.959  11.021
59552W        W24537  19.821  44.416  12.246
59553W        W24538  30.070  28.774   3.252
59554W        W24539   2.600  26.925  10.259
59555W        W24540  41.491  23.084   0.900
59556W        W24541   5.162  25.145   3.812
59557W        W24542   1.650  12.094  14.201
59558W        W24543  23.023  10.620   2.681
59559W        W24544  42.760  25.575  13.222
59560W        W24545  19.536  12.162   3.091
59561W        W24546  23.722   5.795   4.088
59562W        W24547  35.029  10.843   4.620
59563W        W24548   3.781  42.764   0.760
59564W        W24549  34.381  11.727   4.552
59565W        W24550  12.396   7.636  13.807
59566W        W24551  40.495  12.136  14.821
59567W        W24552   1.857  29.449   0.609
59568W        W24553  13.934  40.828   0.465
59569W        W24554   5.876  18.078  12.017
59570W        W24555  24.734  20.340   0.099
59571W        W24556   4.726  22.113   4.248
59572W        W24557  38.894   0.469  10.706
59573W        W24558  44.397  16.616   1.141
59574W        W24559   0.920   1.168  13.860
59575W        W24560   2.319  37.252  14.318
59576W        W24561  41.594  13.225   2.674
59577W        W24562  38.807  20.693   0.229
59578W        W24563   3.775  18.025   1.321
59579W        W24564   3.211  38.019  12.899
59580W        W24565  40.585  33.029  14.059
59581W        W24566  32.341  25.908  11.057
59582W        W24567   1.668  15.910  11.339
59583W        W24568   0.702  41.658  11.432
59584W        W24569  12.140  33.229   1.775
59585W        W24570  21.416   4.865  10.414
59586W        W24571  25.275  38.195  12.065
59587W        W24572   1.848   2.670  14.452
59588W        W24573  42.100  14.806  10.715
59589W        W24574  23.484   2.923  14.398
59590W        W24575  22.710  30.707  11.971
59591W        W24576  11.380  17.123   0.516
59592W        W24577   6.745   2.051  12.298
59593W        W24578   0.887  12.274   4.627
59594W        W24579  11.956  36.923  14.443
59595W        W24580  37.268   4.421   2.019
59596W        W24581  42.588  20.353   2.728
59597W        W24582  17.796  10.974   0.402
59598W        W24583  24.845  26.465   2.656
59599W        W24584  32.762  40.513   3.844
59600W        W24585  24.410  35.474  13.862
59601W        W24586   9.344  19.251  11.467
59602W        W24587  19.215   5.195  10.263
59603W        W24588  29.004  44.018   1.322
59604W        W24589  18.587  35.024  12.402
59605W        W24590  39.942   3.754  13.772
59606W        W24591   5.421  21.218   4.578
59607W        W24592  40.848  37.221   1.377
59608W        W24593  32.248  26.811   4.115
59609W        W24594  28.948   5.477  13.492
59610W        W24595  32.139  33.171   4.180
59611W        W24596   6.487  13.493  12.970
59612W        W24597  21.836  41.561  14.491
59613W        W24598  28.090  10.691  10.773
59614W        W24599  42.371   7.973   2.105
59615W        W24600  44.536  33.008   3.323
59616W        W24601  15.189  27.641  13.043
59617W        W24602  42.386  34.859  14.449
59618W        W24603   4.360  12.639  10.688
59619W        W24604  12.135  44.533   1.628
59620W        W24605  10.641  22.170   3.180
59621W        W24606  14.240  36.578   3.856
59622W        W24607  42.329  32.782   0.427
59623W        W24608   7.838  11.837  11.955
59624W        W24609  31.077  35.485   1.448
59625W        W24610   2.735   1.278   4.120
59626W        W24611  37.440  25.675   4.482
59627W        W24612  20.813  10.904  12.492
59628W        W24613   2.914   9.503   3.304
59629W        W24614  36.917  10.825  13.228
59630W        W24615  23.195  36.425   3.237
59631W        W24616  41.924  22.294   2.337
59632W        W24617  24.096   5.733   0.680
59633W        W24618  18.353  33.809   0.665
59634W        W24619  44.346  44.221  11.563
59635W        W24620  12.877  20.263   0.207
59636W        W24621  38.443   6.375  14.484
59637W        W24622  38.141  19.057   3.697
59638W        W24623   7.523   4.614   4.491
59639W        W24624  41.800  13.224   0.360
59640W        W24625  18.695  22.573  12.989
59641W        W24626   7.863  33.481  12.489
59642W        W24627   1.860  21.301  12.843
59643W        W24628  42.384  38.541  13.448
59644W        W24629  21.694   3.284   4.731
59645W        W24630  36.612  15.619   1.961
59646W        W24631  42.427  19.337   2.878
59647W        W24632   2.951  44.749  13.720
59648W        W24633  21.888  13.129  11.131
59649W        W24634  15.392   3.804  10.949
59650W        W24635  13.849  33.609  12.492
59651W        W24636  16.105  44.226  13.014
59652W        W24637   4.793  26.469  13.823
59653W        W24638  16.047  38.486   1.148
59654W        W24639  24.011  20.571  14.423
59655W        W24640   5.949  23.715  14.992
59656W        W24641  13.178  34.086  14.154
59657W        W24642  31.663  21.257  12.883
59658W        W24643  12.642  22.606   2.816
59659W        W24644   6.669  26.067  10.983
59660W        W24645   3.757  21.227  14.527
59661W        W24646  32.374  40.579  14.958
59662W        W24647   5.201   2.873   2.933
59663W        W24648   0.984  12.764  12.466
59664W        W24649   0.021   0.137  10.494
59665W        W24650  38.252  12.358  11.223
59666W        W24651  15.644  39.773  13.452
59667W        W24652  11.292  44.255  13.379
59668W        W24653  25.107  28.827   4.051
59669W        W24654  34.079  43.659   0.923
59670W        W24655  16.826  28.199  11.921
59671W        W24656  17.464  34.775  10.044
59672W        W24657  35.866  32.929  13.015
59673W        W24658  29.148   8.155  10.745
59674W        W24659  23.466   2.864   1.916
59675W        W24660  44.859  24.440   9.581
59676W        W24661  37.572  44.269  13.379
59677W        W24662  31.199   7.674  13.704
59678W        W24663   0.936  19.334   4.649
59679W        W24664  44.604  14.087  10.211
59680W        W24665  11.493  33.480   0.453
59681W        W24666  43.334   6.660  10.629
59682W        W24667  15.590  36.018  12.887
59683W        W24668  20.803  18.132  12.894
59684W        W24669  26.069  12.429  14.995
59685W        W24670  32.705  24.296  13.951
59686W        W24671   2.795  30.996   0.790
59687W        W24672   7.766  19.434   2.781
59688W        W24673  27.932  43.997  12.869
59689W        W24674  34.030  27.502   2.299
59690W        W24675  28.852  22.262  10.585
59691W        W24676  43.052  31.171  11.110
59692W        W24677  43.581  42.063  14.074
59693W        W24678  23.655  41.937  11.538
59694W        W24679  31.118   8.880  12.063
59695W        W24680  10.653  28.046   4.211
59696W        W24681  14.405   6.634   0.888
59697W        W24682  37.304  30.089  14.891
59698W        W24683  10.970   2.075  11.974
59699W        W24684   5.260  27.528   4.374
59700W        W24685  16.749   6.309   4.274
59701W        W24686  44.316  36.880   2.316
59702W        W24687  19.756  15.278   4.539
59703W        W24688   2.943  25.266  13.919
59704W        W24689   3.045  23.006  13.434
59705W        W24690  34.388  29.092  12.562
59706W        W24691  35.830  33.900  12.158
59707W        W24692  31.102  31.893   2.842
59708W        W24693  44.864  27.050  10.436
59709W        W24694  26.616  31.691   3.117
59710W        W24695   2.300  38.585  12.372
59711W        W24696   9.314  16.528  11.183
59712W        W24697  27.040   2.551   4.702
59713W        W24698  19.618  44.012  11.965
59714W        W24699  29.030  24.129   2.907
59715W        W24700  31.921  17.162  12.656
59716W        W24701  29.516  21.053  14.370
59717W        W24702  31.147  30.787  10.197
59718W        W24703  28.435  32.034  14.779
59719W        W24704  41.042  27.132   5.381
59720W        W24705  43.397   3.480   2.544
59721W        W24706  40.952   7.142   2.028
59722W        W24707  16.768   2.422   1.474
59723W        W24708   5.140   2.340   4.126
59724W        W24709  38.369  29.893   0.520
59725W        W24710  22.928  37.350  12.426
59726W        W24711  11.855  43.694  11.640
59727W        W24712   6.530  28.939   1.208
59728W        W24713  15.621  22.454   1.684
59729W        W24714  10.199  35.110   2.372
59730W        W24715  11.792   9.940  11.697
59731W        W24716   2.830  31.554  14.091
59732W        W24717  33.409  26.618   9.811
59733W        W24718  29.200  27.553  11.712
59734W        W24719  23.173  32.153   4.942
59735W        W24720   3.893  19.211  12.351
59736W        W24721  26.268  35.625  11.873
59737W        W24722  44.796  40.264   2.467
59738W        W24723  17.173  34.356   0.276
59739W        W24724  31.915  15.887   2.571
59740W        W24725   4.479  37.400  12.920
59741W        W24726   2.239  13.870  12.984
59742W        W24727  42.289  24.491  13.676
59743W        W24728  19.785  36.521  12.036
59744W        W24729  44.053  10.650  11.150
59745W        W24730  12.659  44.179   2.691
59746W        W24731  18.966  27.667  14.282
59747W        W24732   9.422  37.773  14.793
59748W        W24733  26.571  37.068  10.704
59749W        W24734  25.517  27.178   3.203
59750W        W24735  32.685  29.649   1.470
59751W        W24736  26.093   5.858  14.419
59752W        W24737  24.874   0.930   5.584
59753W        W24738  19.194  12.331  13.127
59754W        W24739   3.447  20.882  14.304
59755W        W24740  28.154   3.362   2.246
59756W        W24741  18.767  38.256  11.629
59757W        W24742   4.314  31.801  10.743
59758W        W24743  41.477   7.191   4.447
59759W        W24744  11.977  34.979   2.176
59760W        W24745  27.468  38.360  12.697
59761W        W24746  42.909  20.720  11.358
59762W        W24747   0.728  40.568  13.007
59763W        W24748   9.955  14.282  12.198
59764W        W24749  29.031  38.508   1.831
59765W        W24750  36.903   7.648  10.862
59766W        W24751  16.080  18.588  14.773
59767W        W24752  14.681   7.379  11.430
59768W        W24753  26.575   7.681   1.339
59769W        W24754  38.201   1.161   1.723
59770W        W24755  44.485  14.220  11.638
59771W        W24756  34.395  42.962  12.138
59772W        W24757  17.682   7.922  12.391
59773W        W24758  28.483  30.702   3.334
59774W        W24759  38.033  23.749   1.309
59775W        W24760  26.225  33.565   1.217
59776W        W24761  37.905  11.816   2.102
59777W        W24762  42.894  13.018   2.869
59778W        W24763  31.691  19.168   0.372
59779W        W24764  26.084   1.374   0.372
59780W        W24765  26.079  18.272   0.368
59781W        W24766  19.259  38.721   2.714
59782W        W24767  39.591  28.157  11.740
59783W        W24768   3.928   8.714  10.662
59784W        W24769  23.953   5.424  12.134
59785W        W24770  34.520   4.804  12.232
59786W        W24771  19.600  10.386  13.810
59787W        W24772  12.481  34.769  11.595
59788W        W24773  44.921  24.704   0.240
59789W        W24774   4.935  16.057  12.574
59790W        W24775  23.214  33.603  11.577
59791W        W24776  11.590  31.413   0.455
59792W        W24777  25.001  21.607  12.518
59793W        W24778  29.542   8.237  14.871
59794W        W24779  43.158   8.514  10.775
59795W        W24780  35.393  20.680  14.907
59796W        W24781  12.173  29.687  11.031
59797W        W24782  13.625  42.334   4.254
59798W        W24783  34.253  25.923   4.718
59799W        W24784   8.944  31.430  13.532
59800W        W24785   8.777  37.633  11.926
59801W        W24786   4.641   2.205  11.678
59802W        W24787  16.773  11.048   2.189
59803W        W24788  19.234   3.461  10.439
59804W        W24789  20.077  16.125  14.365
59805W        W24790  42.925   1.305   4.429
59806W        W24791   9.243   1.343  12.054
59807W        W24792  23.999  19.137   0.322
59808W        W24793   4.778  42.529  11.996
59809W        W24794  40.592  39.272  12.895
59810W        W24795  20.370  11.178  12.028
59811W        W24796  27.491   9.677   1.826
59812W        W24797  31.419  40.860   4.073
59813W        W24798  17.338  15.826   3.728
59814W        W24799  19.969   5.861   4.581
59815W        W24800   9.091  35.089   0.480
59816W        W24801  17.203   2.289  11.070
59817W        W24802  12.595  28.383   0.579
59818W        W24803  39.595  42.985  11.186
59819W        W24804   0.271  37.545   4.782
59820W        W24805   0.085   9.170  12.993
59821W        W24806   2.790  16.097   2.985
59822W        W24807  26.487  35.987   3.085
59823W        W24808  44.738  19.709   0.885
59824W        W24809  31.013   5.711  14.540
59825W        W24810   9.893  34.409   3.088
59826W        W24811  42.805  27.178   0.868
59827W        W24812   5.191  40.911  10.538
59828W        W24813  39.986  19.063   0.788
59829W        W24814  41.198  32.084  10.909
59830W        W24815  28.681  42.560  11.445
59831W        W24816  29.617  12.981   2.339
59832W        W24817  15.314   2.888   2.734
59833W        W24818   0.848  12.698   2.292
59834W        W24819  40.094  12.656   2.240
59835W        W24820  31.895  33.835   3.203
59836W        W24821  31.783  41.377  13.807
59837W        W24822  38.481  17.809  13.096
59838W        W24823  19.615  36.081  14.904
59839W        W24824  12.946   9.770  14.788
59840W        W24825   0.947  34.409   2.355
59841W        W24826  25.756  42.397  11.168
59842W        W24827  38.922   4.194   3.039
59843W        W24828  36.372  37.309   0.918
59844W        W24829  11.203  23.770  11.555
59845W        W24830  26.612  28.746   1.861
59846W        W24831  19.167  31.402   0.453
59847W        W24832  38.097   3.317  12.006
59848W        W24833  12.293   3.849   2.877
59849W        W24834  26.004  20.977  11.941
59850W        W24835  11.889  39.350  12.162
59851W        W24836  26.728  28.618  14.802
59852W        W24837  30.875  21.120   0.715
59853W        W24838   1.283  16.550   0.472
59854W        W24839  44.762  35.893   2.150
59855W        W24840  13.100  18.608  14.848
59856W        W24841  15.638   2.466  14.821
59857W        W24842   1.336  39.023  12.796
59858W        W24843  41.409  24.565   0.398
59859W        W24844  25.180  36.081   1.371
59860W        W24845  38.565   8.481  11.458
59861W        W24846  33.460  39.909   2.716
59862W        W24847  16.796  18.713   2.716
59863W        W24848  23.767  36.316  13.828
59864W        W24849  19.107  43.726   3.697
59865W        W24850   1.821  31.815  13.440
59866W        W24851  12.560  11.268  14.399
59867W        W24852  27.250  38.307   1.624
59868W        W24853  16.703  22.366   1.156
59869W        W24854  32.494  13.081  13.309
59870W        W24855  11.604  12.093   3.411
59871W        W24856  39.579  32.915  14.826
59872W        W24857  34.561  12.725   1.239
59873W        W24858  12.021   0.603  12.475
59874W        W24859   4.733  22.658  13.893
59875W        W24860  27.543  25.186  14.081
59876W        W24861  23.404  23.124   1.928
59877W        W24862  12.113  43.382   0.549
59878W        W24863  12.228   0.426  10.435
59879W        W24864  21.483  28.985   3.218
59880W        W24865  18.732   4.410  13.803
59881W        W24866  23.968   4.448   2.880
59882W        W24867  23.777   1.079   0.867
59883W        W24868  12.098   9.187   0.722
59884W        W24869  39.313  11.703   2.095
59885W        W24870  12.769  30.661   4.766
59886W        W24871  10.195  38.839  13.304
59887W        W24872  14.676   1.222  13.314
59888W        W24873  41.394  41.728   0.977
59889W        W24874  44.489  27.777   2.367
59890W        W24875  41.565  38.332  13.641
59891W        W24876  18.737  41.895  12.056
59892W        W24877  23.043  39.049   4.683
59893W        W24878  40.993  35.461  12.542
59894W        W24879  41.493  29.808   0.877
59895W        W24880  44.582  13.496   4.260
59896W        W24881  24.677  38.346   1.518
59897W        W24882  28.401  21.279   1.400
59898W        W24883  30.067   8.125   0.558
59899W        W24884   9.454  36.581   0.374
59900W        W24885   4.927  29.423  12.883
59901W        W24886   6.211  28.223  10.286
59902W        W24887  20.252  24.460   0.474
59903W        W24888  38.612  34.753   2.123
59904W        W24889   1.887  16.173   0.343
59905W        W24890  13.861  22.633   3.352
59906W        W24891  13.959  44.243   0.451
59907W        W24892   7.383  39.305  13.933
59908W        W24893  27.709  25.784   1.797
59909W        W24894  16.153  35.472   0.379
59910W        W24895  20.018  42.751  14.868
59911W        W24896  40.390  22.216  12.657
59912W        W24897  39.222  10.425   0.636
59913W        W24898  44.563   5.425  11.541
59914W        W24899  41.998  43.369  14.820
59915W        W24900  40.301  23.004   2.392
59916W        W24901  29.499  41.836  13.843
59917W        W24902  38.777  15.691   3.688
59918W        W24903  34.874  41.430   4.701
59919W        W24904   6.981  24.667  13.509
59920W        W24905  35.510  21.589  12.448
59921W        W24906  26.084  26.372   3.261
59922W        W24907   6.162  14.696   4.701
59923W        W24908  30.861  41.630   0.424
59924W        W24909  12.271   6.738   4.303
59925W        W24910  39.989  22.197  10.746
59926W        W24911  11.075  37.949  13.937
59927W        W24912  17.398   9.599   1.789
59928W        W24913  10.689   4.241   9.649
59929W        W24914   2.542  27.265   1.727
59930W        W24915  28.578  18.804   4.366
59931W        W24916   7.543  40.319  14.237
59932W        W24917   8.896   1.631   1.476
59933W        W24918  37.329  13.610  11.450
59934W        W24919  37.029  27.497  12.035
59935W        W24920  27.498  30.943  14.562
59936W        W24921  16.359  29.685  14.195
59937W        W24922   9.591  39.028  11.031
59938W        W24923   6.216  28.185  11.634
59939W        W24924  22.446  14.076  13.185
59940W        W24925  32.176  32.506  14.580
59941W        W24926  31.626  12.689   3.802
59942W        W24927  36.669  44.329  11.504
59943W        W24928  26.024  33.112   3.613
59944W        W24929   8.553  30.211   1.812
59945W        W24930  14.651   6.826  14.792
59946W        W24931  16.702  28.035  12.380
59947W        W24932   8.345   1.011  12.368
59948W        W24933  33.374  35.359  14.841
59949W        W24934   7.569   7.265   2.920
59950W        W24935  13.600  40.461   1.660
59951W        W24936  39.772  42.317   2.872
59952W        W24937  31.210   5.959  13.792
59953W        W24938  26.666  11.349  14.368
59954W        W24939  37.308  14.668  10.763
59955W        W24940   4.903  29.671   5.088
59956W        W24941  29.692   7.773  13.401
59957W        W24942  17.376  21.685  11.449
59958W        W24943  34.790  14.837   2.838
59959W        W24944  38.124   2.191  13.076
59960W        W24945  38.349  44.255  12.934
59961W        W24946  43.183   4.152  13.448
59962W        W24947  10.132   3.445  12.100
59963W        W24948  41.811   7.420  13.862
59964W        W24949  37.489   0.202  12.028
59965W        W24950   3.403  13.760  10.799
59966W        W24951  25.776  21.086  10.692
59967W        W24952  13.872  11.171   1.276
59968W        W24953   1.917  34.960   3.665
59969W        W24954  38.659  40.498   3.219
59970W        W24955  37.337  32.408   4.505
59971W        W24956  17.070  28.427   1.766
59972W        W24957   1.322  22.465   1.230
59973W        W24958   7.877  37.310  10.944
59974W        W24959  14.286   1.947  11.451
59975W        W24960  34.890  21.607  13.064
59976W        W24961  30.380   6.021   0.420
59977W        W24962  44.707  29.577  12.864
59978W        W24963  28.956   6.868   1.903
59979W        W24964   3.215  44.502  13.308
59980W        W24965  12.709  42.985   3.283
59981W        W24966  24.164  39.994   3.705
59982W        W24967   9.161  43.694  11.108
59983W        W24968  35.076  30.187  13.388
59984W        W24969  37.057  42.801   2.883
59985W        W24970   7.692  39.722  10.727
59986W        W24971  22.206   3.471  11.413
59987W        W24972  22.043  27.597   4.615
59988W        W24973  10.043  28.577   4.607
59989W        W24974  32.266  19.739  13.375
59990W        W24975  29.910   2.356  13.510
59991W        W24976  42.797  21.736   1.856
59992W        W24977  30.625  10.801  13.873
59993W        W24978  10.350   8.698  13.093
59994W        W24979   1.333   2.269   1.189
59995W        W24980  25.944  34.660  10.497
59996W        W24981   7.828   4.848   2.363
59997W        W24982   8.653   2.011  12.895
59998W        W24983  29.984   0.958  12.155
59999W        W24984  25.525  22.739   1.197
60000W        W24985  24.911  19.209  12.890
60001W        W24986  16.208  25.584  14.817
60002W        W24987   0.209  40.197  12.984
60003W        W24988  15.472  12.775  12.074
60004W        W24989  19.715  41.815   5.064
60005W        W24990  26.612   6.130  14.501
60006W        W24991  22.850  26.876  10.191
60007W        W24992  41.899  24.800  13.393
60008W        W24993  23.664   2.941  11.945
60009W        W24994  37.293  12.087  12.579
60010W        W24995   6.951  35.379  14.030
60011W        W24996  30.436  31.496   4.423
60012W        W24997  11.075  31.860  11.707
60013W        W24998  22.837  22.029   4.511
60014W        W24999  19.848  18.513   4.873
60015W        W25000  21.274  14.355  11.159
60016W        W25001   8.189  20.702   3.560
60017W        W25002  38.400  42.109  12.414
60018W        W25003  39.201  35.435  14.264
60019W        W25004   5.564  16.736   4.321
60020W        W25005  25.046   4.396  11.721
60021W        W25006   9.667  38.421  13.401
60022W        W25007  28.056  17.775  10.168
60023W        W25008   9.289  44.987  11.580
60024W        W25009  38.977  18.004   3.474
60025W        W25010  28.054  14.660  14.013
60026W        W25011  17.292  40.774   3.283
60027W        W25012  31.014  31.628   2.395
60028W        W25013  17.837   2.798   1.689
60029W        W25014  29.995  15.627   0.831
60030W        W25015  40.298   1.747   3.638
60031W        W25016  10.227  18.264   0.980
60032W        W25017  10.008  33.537   0.870
60033W        W25018  27.255   2.277   2.158
60034W        W25019  10.148  37.671  11.189
60035W        W25020   0.261   9.273   0.375
60036W        W25021   5.419  16.072  13.727
60037W        W25022  29.832  22.609   4.021
60038W        W25023  16.060  40.772   4.062
60039W        W25024  24.201  27.088   4.145
60040W        W25025  34.671  28.368  14.976
60041W        W25026  42.421  17.793  13.520
60042W        W25027   1.408  38.781  11.210
60043W        W25028  34.435   2.916  12.494
60044W        W25029  10.322  26.177   4.586
60045W        W25030  15.773  28.157   1.192
60046W        W25031  36.009  22.393  11.291
60047W        W25032  34.533   5.257  11.977
60048W        W25033  20.776  39.151   2.674
60049W        W25034  31.737  35.558  13.841
60050W        W25035   6.267  27.046  12.535
60051W        W25036  15.977  23.243  13.046
60052W        W25037  10.951  17.566  12.471
60053W        W25038   6.406  28.269   0.703
60054W        W25039  12.419   1.383   4.369
60055W        W25040  18.687  32.114   0.292
60056W        W25041  11.273  27.727   0.276
60057W        W25042  22.038  18.308  14.335
60058W        W25043  12.768  19.165  13.604
60059W        W25044  20.310   6.170   4.287
60060W        W25045  13.565  31.937   0.972
60061W        W25046   6.216  43.329   0.178
60062W        W25047   9.318  11.309   0.978
60063W        W25048   3.081  38.433   1.264
60064W        W25049  38.857  39.912  12.797
60065W        W25050  43.571  29.993  14.788
60066W        W25051  30.019  20.627   3.182
60067W        W25052  13.745  24.496  12.467
60068W        W25053  14.406  35.448   0.837
60069W        W25054  34.563   9.082  12.720
60070W        W25055  25.357  37.414   1.255
60071W        W25056  25.558  29.690  10.087
60072W        W25057  24.450  42.391  14.027
60073W        W25058  10.029  26.442   3.778
60074W        W25059  19.895   7.744   4.547
60075W        W25060  44.190  11.843   0.679
60076W        W25061  30.747   8.260  12.946
60077W        W25062  27.459  16.013   3.399
60078W        W25063  26.990  14.202   4.252
60079W        W25064   2.729  10.198  13.038
60080W        W25065  29.914   7.534  13.819
60081W        W25066  44.821  14.861   2.927
60082W        W25067  26.665   0.548  14.468
60083W        W25068  11.968   7.591   4.664
60084W        W25069   1.516  16.317   1.491
60085W        W25070  18.162  36.376  13.467
60086W        W25071  17.731   3.816  14.959
60087W        W25072   5.271  29.905  12.574
60088W        W25073  11.427  17.232   3.762
60089W        W25074   8.666  38.398   4.497
60090W        W25075  20.383   5.041   4.922
60091W        W25076  19.024  25.548  12.403
60092W        W25077   8.837  26.207  12.865
60093W        W25078   2.206  32.441  11.196
60094W        W25079  37.058  33.084  13.649
60095W        W25080  44.116   0.992   0.625
60096W        W25081   0.435  13.245   1.011
60097W        W25082  35.963  43.736   4.493
60098W        W25083  35.496  22.153   0.054
60099W        W25084  38.048  27.019   0.356
60100W        W25085  22.638  43.227   1.836
60101W        W25086  44.794  42.282  14.237
60102W        W25087  29.106   1.235  13.876
60103W        W25088  24.928  44.494   2.571
60104W        W25089  19.439   7.475   0.378
60105W        W25090  26.097  40.439   4.625
60106W        W25091  25.249  35.084  13.939
60107W        W25092   1.376  23.044  11.402
60108W        W25093  16.752  24.424  10.994
60109W        W25094  15.140  31.042   2.223
60110W        W25095  23.111  17.259  10.479
60111W        W25096  34.415   8.955  12.225
60112W        W25097  16.080  22.060   4.654
60113W        W25098  41.539  29.070   2.206
60114W        W25099  20.073   1.123  12.870
60115W        W25100   5.643  34.430  11.082
60116W        W25101  20.956  31.904   0.781
60117W        W25102  14.022   5.685   3.824
60118W        W25103   5.710   5.962  13.472
60119W        W25104  33.124  25.164  12.854
60120W        W25105  31.938  15.416   3.643
60121W        W25106  38.245  35.070   9.531
60122W        W25107  36.980  16.776   2.313
60123W        W25108  38.892   3.833   2.249
60124W        W25109  25.063  43.022   0.341
60125W        W25110  35.493  11.600   9.802
60126W        W25111   7.275  10.047   0.543
60127W        W25112  18.176  32.674   0.761
60128W        W25113  22.890   4.358  11.712
60129W        W25114  36.014  42.450  12.144
60130W        W25115  10.730  31.120   3.072
60131W        W25116   4.625   6.020   2.353
60132W        W25117  37.466   3.316   3.748
60133W        W25118  37.497  25.231  11.483
60134W        W25119   8.129  28.475  12.372
60135W        W25120  24.405  19.631  10.997
60136W        W25121  39.380   1.791   0.991
60137W        W25122  21.651  23.515  13.421
60138W        W25123  39.528  37.155   3.310
60139W        W25124  16.759  40.313   2.778
60140W        W25125  28.566  26.226   0.889
60141W        W25126   5.177   3.270  12.053
60142W        W25127  26.075  10.479  12.591
60143W        W25128  22.974  32.269   9.882
60144W        W25129   0.379  20.042   2.104
60145W        W25130  22.984  13.888   4.302
60146W        W25131  15.852   2.505  12.355
60147W        W25132  23.153  42.470   3.287
60148W        W25133  18.423  32.045   2.946
60149W        W25134   2.400  23.138   1.014
60150W        W25135  28.904  44.185  13.965
60151W        W25136  13.591  21.693   2.107
60152W        W25137  21.065  23.877  12.423
60153W        W25138  38.912  12.270   3.804
60154W        W25139   3.909  10.222   1.452
60155W        W25140   4.940  14.344   4.152
60156W        W25141  37.450  39.648  14.566
60157W        W25142  13.746  22.501   0.670
60158W        W25143   9.116  43.468  13.818
60159W        W25144  44.877  26.247  13.159
60160W        W25145  35.265  39.429   1.924
60161W        W25146   7.315   8.434   2.260
60162W        W25147   4.794  26.052  14.942
60163W        W25148  38.275  30.249  11.949
60164W        W25149  20.520  22.260   2.246
60165W        W25150   4.400  22.490  11.283
60166W        W25151  15.576  26.590  12.541
60167W        W25152   9.646  24.103  14.014
60168W        W25153  34.135  30.674  11.776
60169W        W25154  25.261  37.266  12.991
60170W        W25155  26.927  23.733   1.360
60171W        W25156  25.107  36.995  11.672
60172W        W25157   9.061   9.897   4.339
60173W        W25158   9.975  28.585   2.783
60174W        W25159  31.330  43.881   4.213
60175W        W25160  34.751  19.071   2.379
60176W        W25161  34.119   7.359   3.222
60177W        W25162  26.824  28.858   1.406
60178W        W25163  39.786  16.462  13.376
60179W        W25164   6.494  42.893   5.037
60180W        W25165  17.830   7.109   3.779
60181W        W25166  18.669  36.043   2.656
60182W        W25167  27.132  31.166   2.695
60183W        W25168  25.376  17.056   3.168
60184W        W25169   3.450   1.819   0.856
60185W        W25170  26.134  16.547  13.398
60186W        W25171  28.424  15.254   1.844
60187W        W25172  24.730  10.565   2.701
60188W        W25173  23.183   5.560  14.719
60189W        W25174  30.361  39.639   3.412
60190W        W25175  42.481  22.538   1.234
60191W        W25176   5.432  22.001  12.047
60192W        W25177   2.337  42.730  12.826
60193W        W25178  44.106   2.874   0.741
60194W        W25179  16.823   1.391   1.433
60195W        W25180  44.345  12.332   0.788
60196W        W25181  16.086   1.528  13.412
60197W        W25182  35.000  38.106   4.631
60198W        W25183  28.158   1.283  13.796
60199W        W25184  37.783  12.090   4.317
60200W        W25185  31.971  44.821  13.624
60201W        W25186  31.628   5.831  12.403
60202W        W25187   0.716   7.218  12.618
60203W        W25188  31.925  37.742  12.560
60204W        W25189  24.599  42.504  13.537
60205W        W25190  20.568  37.118  13.039
60206W        W25191  26.692  22.614   0.880
60207W        W25192  41.813  40.309   0.723
60208W        W25193  21.849  14.105   0.848
60209W        W25194  16.991  40.120  11.185
60210W        W25195  41.430  10.183  14.807
60211W        W25196  21.706  21.308  12.087
60212W        W25197  43.076   2.220   3.758
60213W        W25198  12.724  34.721  13.082
60214W        W25199  35.695   3.434   9.932
60215W        W25200   9.020  24.348  11.702
60216W        W25201  15.457   5.034  14.647
60217W        W25202  44.424  31.834  12.239
60218W        W25203  17.148  33.905   1.923
60219W        W25204  28.502  10.157  11.323
60220W        W25205   9.259  34.802  12.509
60221W        W25206   8.253  25.997   4.147
60222W        W25207   9.256  39.000   2.814
60223W        W25208  43.898  11.175   3.551
60224W        W25209  13.071  38.328   3.010
60225W        W25210  31.408  23.000   3.287
60226W        W25211  28.229  22.494  14.032
60227W        W25212  37.947  40.886   3.248
60228W        W25213   1.200  42.338   4.118
60229W        W25214  31.690  32.582  12.338
60230W        W25215  19.725  37.766   2.197
60231W        W25216   1.034  43.593   1.433
60232W        W25217  17.566  13.393  12.385
60233W        W25218   6.482  13.253  14.310
60234W        W25219  20.249   5.970  14.803
60235W        W25220  15.101   3.119   9.845
60236W        W25221   2.276  29.828  12.009
60237W        W25222  12.579  14.159  11.741
60238W        W25223  19.589  33.438  12.616
60239W        W25224  26.993  29.243  10.752
60240W        W25225  19.595  16.675   1.390
60241W        W25226  33.951   4.307  11.645
60242W        W25227  13.427  44.065   1.695
60243W        W25228  32.602  42.782  14.898
60244W        W25229  23.246  37.837  11.584
60245W        W25230  18.532  17.733   2.299
60246W        W25231  21.186  22.995   4.765
60247W        W25232  39.827  44.735  10.728
60248W        W25233   1.182  17.147   4.601
60249W        W25234  22.717  30.181  13.342
60250W        W25235  38.970   9.325  11.604
60251W        W25236  37.950   5.838   1.355
60252W        W25237  41.034  19.579  12.079
60253W        W25238   9.751   2.108   3.831
60254W        W25239   5.870  24.606   1.890
60255W        W25240   9.747  29.906   2.127
60256W        W25241   5.790  11.307   2.043
60257W        W25242  29.129  41.284  10.516
60258W        W25243  13.155  38.737  11.583
60259W        W25244  34.637   3.413   4.093
60260W        W25245   1.334  17.489  11.598
60261W        W25246  14.163   3.389  10.741
60262W        W25247  11.178  40.476   1.931
60263W        W25248  42.449  24.749   1.754
60264W        W25249  35.989  33.305   4.474
60265W        W25250  10.406  42.992   3.723
60266W        W25251  14.177  38.480   4.431
60267W        W25252  25.161  11.329  13.920
60268W        W25253  34.489  37.288  11.690
60269W        W25254  38.264   9.145   2.807
60270W        W25255  31.195  28.911   3.701
60271W        W25256  30.855  39.338   2.489
60272W        W25257  22.113  16.558  14.028
60273W        W25258   9.191   3.382   3.604
60274W        W25259  16.678   3.829  13.016
60275W        W25260  43.604  15.524  13.669
60276W        W25261  29.166   0.453   4.665
60277W        W25262  19.099  13.314   2.415
60278W        W25263  27.866   8.778   1.759
60279W        W25264  10.822   9.398   3.713
60280W        W25265  13.289  27.550   2.078
60281W        W25266  35.513  24.142   0.278
60282W        W25267  11.598  21.184   0.416
60283W        W25268  22.202  40.866   3.076
60284W        W25269   0.871  42.615   0.532
60285W        W25270   9.453  42.249   3.299
60286W        W25271  21.969  35.572  11.559
60287W        W25272  31.359  43.897   0.757
60288W        W25273  14.792  32.585   1.610
60289W        W25274  34.714  25.383  11.748
60290W        W25275  32.067  18.957  11.619
60291W        W25276  11.220  23.478   2.533
60292W        W25277  29.966  30.517  13.572
60293W        W25278  31.598  31.694  14.120
60294W        W25279  32.406  32.178   2.206
60295W        W25280  30.174  35.942  13.921
60296W        W25281  11.459  10.620  12.376
60297W        W25282  30.388  16.777   4.666
60298W        W25283  11.298  43.593   0.969
60299W        W25284  43.967  19.689  14.906
60300W        W25285  14.511   5.819   3.847
60301W        W25286  16.657  14.903   3.288
60302W        W25287  29.213  29.484  12.030
60303W        W25288  38.574  10.943   4.273
60304W        W25289  32.508  42.911  11.536
60305W        W25290   0.489  44.994  14.746
60306W        W25291  12.768  35.827  11.448
60307W        W25292  15.493  32.553   0.775
60308W        W25293  30.690  44.502   2.517
60309W        W25294  17.798  33.314  12.937
60310W        W25295  23.494   6.095  11.448
60311W        W25296  30.776  21.452   4.782
60312W        W25297  16.796   3.205   5.016
60313W        W25298  19.766   5.706   3.532
60314W        W25299   6.664  22.403  12.026
60315W        W25300  11.729  31.414   3.202
60316W        W25301  17.672   8.433   5.024
60317W        W25302  16.564  21.591   4.485
60318W        W25303   7.375   3.621  11.357
60319W        W25304  13.354  42.753  13.532
60320W        W25305  37.085  17.054  13.394
60321W        W25306  30.883  14.876   0.740
60322W        W25307  19.342  13.316   1.431
60323W        W25308   1.813  16.097  10.872
60324W        W25309  20.705   0.223  14.783
60325W        W25310   3.884  21.503   0.010
60326W        W25311   7.436   5.724   2.184
60327W        W25312  20.014  28.902  12.972
60328W        W25313   7.518  34.993  12.980
60329W        W25314  20.013  39.050   0.763
60330W        W25315  30.694  44.865   3.373
60331W        W25316  31.937  36.131  12.488
60332W        W25317  14.608  11.162  13.845
60333W        W25318  21.039  37.336   0.749
60334W        W25319  20.479   6.765   0.460
60335W        W25320   3.272   6.800   3.594
60336W        W25321  26.428  23.983   0.333
60337W        W25322  12.598  16.527   4.241
60338W        W25323  12.396   1.879  13.265
60339W        W25324  44.335  21.042   4.586
60340W        W25325   6.197  11.111   3.302
60341W        W25326   7.954   8.471  11.471
60342W        W25327  12.332  14.340  12.138
60343W        W25328   9.668   1.206  12.428
60344W        W25329  44.090  16.126  12.528
60345W        W25330   3.349   6.557   2.732
60346W        W25331  19.224  24.011   0.833
60347W        W25332  11.867  33.405  12.115
60348W        W25333  26.527  27.226   1.851
60349W        W25334  31.110  37.676   0.825
60350W        W25335  11.235   8.051   4.540
60351W        W25336  13.370   2.260   0.353
60352W        W25337  21.433   5.511   0.332
60353W        W25338  31.869  24.585  13.094
60354W        W25339  21.269   4.154   3.243
60355W        W25340  39.015   9.620   5.151
60356W        W25341  40.003  40.385  13.481
60357W        W25342   7.947  11.409   0.377
60358W        W25343  36.392  24.055  14.273
60359W        W25344   1.927  43.296  11.145
60360W        W25345  26.299  44.763   3.150
60361W        W25346   2.853  31.731   5.096
60362W        W25347  23.845  23.309   3.361
60363W        W25348  39.041  28.508  12.947
60364W        W25349  16.794  17.419   3.630
60365W        W25350  10.889  41.986   1.306
60366W        W25351  18.034  15.083   0.431
60367W        W25352   5.423   1.408   3.093
60368W        W25353  25.561   6.807  12.849
60369W        W25354   6.129   3.442  13.241
60370W        W25355  18.082  29.905   2.383
60371W        W25356   4.366  21.029   1.246
60372W        W25357  18.077  30.241   1.702
60373W        W25358  43.779  22.177  13.798
60374W        W25359  25.581  20.732   0.230
60375W        W25360  11.766  42.963  14.430
60376W        W25361  29.615  43.657   1.830
60377W        W25362  16.119   1.810   2.912
60378W        W25363  36.658  13.247   1.171
60379W        W25364   6.356   4.761   0.049
60380W        W25365  17.758  42.802   4.173
60381W        W25366  35.792   9.864  14.390
60382W        W25367  24.740  10.812   3.875
60383W        W25368   4.934   2.053   2.665
60384W        W25369  22.690  32.890  14.383
60385W        W25370  37.931  39.178   1.000
60386W        W25371   3.882  30.386  11.160
60387W        W25372  17.574  30.051   2.356
60388W        W25373   1.321  19.993  14.770
60389W        W25374   5.889  11.631   0.995
60390W        W25375  38.674  35.863  13.502
60391W        W25376  31.456   8.975   4.572
60392W        W25377  20.823  23.932   0.250
60393W        W25378   0.673  40.821   0.800
60394W        W25379  15.468  32.112  11.483
60395W        W25380  38.406  29.829  11.664
60396W        W25381  44.023  35.375   4.590
60397W        W25382   0.446   0.953  13.887
60398W        W25383  16.300   1.327  14.945
60399W        W25384  29.862   0.352   0.849
60400W        W25385  41.928  36.664   3.597
60401W        W25386  43.396   0.726   3.217
60402W        W25387  39.198  43.343  11.160
60403W        W25388  18.031  36.024   1.631
60404W        W25389  19.013  10.902  13.385
60405W        W25390  28.958  21.894  12.674
60406W        W25391  15.232   1.838  12.803
60407W        W25392   0.956   4.928   1.047
60408W        W25393  38.987  38.037   3.168
60409W        W25394  15.052  34.663  14.014
60410W        W25395  20.697  11.213   1.026
60411W        W25396   1.837  30.975   2.278
60412W        W25397  29.910  23.790  11.712
60413W        W25398   3.889   8.615   2.308
60414W        W25399  28.030   4.263  13.387
60415W        W25400   4.347  20.084  13.585
60416W        W25401  20.691  42.362  14.196
60417W        W25402  16.617  30.145   4.178
60418W        W25403  28.921   1.268   2.838
60419W        W25404   6.128  26.294   1.056
60420W        W25405  15.728  20.980   2.771
60421W        W25406   3.756  28.305   3.756
60422W        W25407  11.652   7.492   2.036
60423W        W25408   5.224   6.717  13.650
60424W        W25409  11.814  31.493  11.084
60425W        W25410  31.194   7.754  10.161
60426W        W25411  42.845  37.467   0.149
60427W        W25412   2.579  42.356   4.668
60428W        W25413   9.658  10.349  10.604
60429W        W25414  31.502  19.723   2.650
60430W        W25415   5.822  18.134   4.278
60431W        W25416  34.121   7.141   4.757
60432W        W25417   0.068  44.913  12.656
60433W        W25418   0.058  34.407   0.673
60434W        W25419   6.364   5.736  14.675
60435W        W25420  19.171  32.446  13.879
60436W        W25421   7.769  24.946  11.290
60437W        W25422   8.896  38.843   4.672
60438W        W25423  13.367   5.223   3.575
60439W        W25424   9.428   6.949   1.436
60440W        W25425   8.158  27.446  14.466
60441W        W25426  26.447  36.156  12.560
60442W        W25427  28.396   7.772   3.179
60443W        W25428   7.133  30.277   2.194
60444W        W25429  23.477  33.745   9.936
60445W        W25430  41.738  43.656  13.185
60446W        W25431  33.014  16.995  11.643
60447W        W25432  19.118  42.251   1.698
60448W        W25433  43.951  18.813   3.506
60449W        W25434  20.177  39.802   2.888
60450W        W25435   6.722  14.852   3.236
60451W        W25436  22.452  22.470  12.745
60452W        W25437   6.573  20.752   3.343
60453W        W25438  37.282   9.030   9.642
60454W        W25439  31.461   6.326  12.412
60455W        W25440  34.682  29.443  14.410
60456W        W25441  39.913   7.918  14.775
60457W        W25442  38.419  31.255  12.210
60458W        W25443   0.045   2.823  13.382
60459W        W25444  28.436   6.734   0.995
60460W        W25445  26.533  30.466  11.420
60461W        W25446  37.531  43.969   3.705
60462W        W25447  21.021  39.776  10.815
60463W        W25448  21.078   7.660   1.907
60464W        W25449  12.439  42.797   4.610
60465W        W25450  28.610  18.810   4.906
60466W        W25451  22.257  28.661  11.135
60467W        W25452  21.522  27.453   4.617
60468W        W25453   5.641   6.553   4.963
60469W        W25454  34.485  13.880  10.473
60470W        W25455   6.136  27.652  11.102
60471W        W25456   6.998  17.459  13.465
60472W        W25457   1.255   3.922   1.824
60473W        W25458  41.032  21.092  12.156
60474W        W25459   2.885  22.175   1.899
60475W        W25460  26.581  16.117   1.838
60476W        W25461  21.223   4.191  13.115
60477W        W25462   3.039  43.539   3.620
60478W        W25463   9.198   6.932   3.445
60479W        W25464   1.678  38.294  13.790
60480W        W25465   3.762  26.945  12.479
60481W        W25466  43.300  28.160   0.792
60482W        W25467   0.558  35.960  14.790
60483W        W25468  11.734  39.552   3.192
60484W        W25469   2.252  27.484  11.166
60485W        W25470  24.768  11.649  11.156
60486W        W25471   2.944  36.018   3.300
60487W        W25472   4.673   3.144  13.999
60488W        W25473   5.232  20.266  14.966
60489W        W25474  42.101  36.977   0.475
60490W        W25475   0.241  15.065   2.702
60491W        W25476  43.153  25.093   9.800
60492W        W25477  24.903   7.910  14.133
60493W        W25478  44.853  36.866  10.974
60494W        W25479   7.232  19.790   3.548
60495W        W25480  40.853  13.584  11.297
60496W        W25481   3.123  27.660  14.799
60497W        W25482  20.569  29.490   2.314
60498W        W25483   8.431   3.848  14.524
60499W        W25484  16.783  32.508   3.244
60500W        W25485   0.442  44.501  12.757
60501W        W25486   2.206   9.279  13.493
60502W        W25487   6.033  40.662  14.912
60503W        W25488   2.012   8.932  12.469
60504W        W25489  17.134   0.225   1.880
60505W        W25490  39.612  36.329   1.646
60506W        W25491  24.348  22.399  11.533
60507W        W25492  10.759  36.303  12.889
60508W        W25493  14.288  18.822  11.205
60509W        W25494  10.109  27.445  14.312
60510W        W25495  12.146   0.085  12.515
60511W        W25496   5.204  37.919  11.498
60512W        W25497  27.159   9.711  13.549
60513W        W25498  31.505  24.930   2.426
60514W        W25499  36.820   7.411   0.786
60515W        W25500  24.039  39.048   1.858
60516W        W25501   8.859  40.319  13.450
60517W        W25502  40.300  13.576  12.973
60518W        W25503  25.658  29.005   4.990
60519W        W25504  16.035   6.281   1.944
60520W        W25505  34.180  29.620  12.580
60521W        W25506  21.292  33.751  12.332
60522W        W25507   4.631  29.518  14.218
60523W        W25508  14.759  23.257   0.326
60524W        W25509  20.522  18.422   1.467
60525W        W25510  14.336  18.452  10.425
60526W        W25511  37.993   2.817   2.865
60527W        W25512   5.244  20.867   2.575
60528W        W25513  11.134   9.718  12.977
60529W        W25514  27.422   8.761  12.849
60530W        W25515  19.691   6.710   1.866
60531W        W25516  28.319   0.505  12.088
60532W        W25517  27.179  13.129   1.915
60533W        W25518  29.563  21.001  12.968
60534W        W25519   9.274  39.006  11.460
60535W        W25520  24.536   5.145  14.370
60536W        W25521  21.008  22.096   2.323
60537W        W25522  39.323   4.251   4.438
60538W        W25523   1.517   4.149   1.441
60539W        W25524  35.589  35.575  12.306
60540W        W25525  25.735  37.681   4.643
60541W        W25526  10.753  33.095   3.298
60542W        W25527  21.680   2.592  11.441
60543W        W25528  10.489  23.838  13.951
60544W        W25529  44.234  17.221  12.189
60545W        W25530  17.836   4.604   5.377
60546W        W25531  28.534  20.325   1.323
60547W        W25532  30.140   5.693  11.186
60548W        W25533  12.721   2.026   0.955
60549W        W25534  13.223  28.564  11.449
60550W        W25535  12.588  37.161  13.077
60551W        W25536  24.905  41.502   1.437
60552W        W25537  34.357   3.774   2.332
60553W        W25538   4.449  20.206  12.389
60554W        W25539  33.107  35.978  12.934
60555W        W25540  17.572   1.382  11.185
60556W        W25541  27.793  21.373  10.837
60557W        W25542  16.873   1.051   3.581
60558W        W25543   5.841   3.188  14.245
60559W        W25544  11.246  25.708   2.421
60560W        W25545  40.525  28.083   1.490
60561W        W25546  17.647   4.062   3.479
60562W        W25547  41.966  17.183   1.109
60563W        W25548  25.726  33.097  12.615
60564W        W25549  23.074  20.259  13.431
60565W        W25550  17.523  19.289  14.425
60566W        W25551  19.067  44.406   1.810
60567W        W25552  20.699  30.025   2.355
60568W        W25553  16.428  26.142   0.470
60569W        W25554  14.775  28.496  12.983
60570W        W25555  25.928   9.323  14.516
60571W        W25556  36.008  40.681  11.385
60572W        W25557  18.795  31.398   1.017
60573W        W25558  19.701  36.049   9.643
60574W        W25559  12.177   4.272   3.692
60575W        W25560   6.114  29.000  14.733
60576W        W25561  29.894  44.806  13.775
60577W        W25562  19.413  31.877   3.566
60578W        W25563   3.380  26.632  12.676
60579W        W25564  42.353   6.483   4.283
60580W        W25565  21.579  14.185   0.422
60581W        W25566  35.979  31.175   1.455
60582W        W25567  30.424   5.768  11.609
60583W        W25568   3.517  22.279   3.662
60584W        W25569  24.153  11.589   3.786
60585W        W25570  11.645  41.468   1.457
60586W        W25571  11.403  39.777   4.157
60587W        W25572  24.322  15.123   2.262
60588W        W25573  41.063  18.079  13.340
60589W        W25574  28.915   8.438  11.694
60590W        W25575   1.312   5.158   1.387
60591W        W25576   5.166   4.628   5.066
60592W        W25577  27.417  29.544   3.220
60593W        W25578  10.341  31.454  10.560
60594W        W25579  35.706  10.297  13.483
60595W        W25580  34.155  22.041  14.711
60596W        W25581  26.764  13.591   0.243
60597W        W25582   0.516  28.081  13.458
60598W        W25583  32.312  41.111   2.614
60599W        W25584  44.494  18.068  14.883
60600W        W25585  16.345  15.646  10.695
60601W        W25586   0.490  32.561  12.115
60602W        W25587   4.422  12.916   1.532
60603W        W25588   5.443  14.819  14.980
60604W        W25589  11.118  26.117   1.273
60605W        W25590  13.547  29.815   9.864
60606W        W25591  26.993  23.513   1.826
60607W        W25592  32.129   2.345   0.937
60608W        W25593  29.517   5.678  11.615
60609W        W25594  10.283   5.324  11.958
60610W        W25595  20.590  15.919  10.745
60611W        W25596  35.093   3.696   4.745
60612W        W25597  22.003  44.388  11.752
60613W        W25598  16.877  18.104  13.974
60614W        W25599   4.624  20.621  13.426
60615W        W25600  43.627  28.784  13.420
60616W        W25601  21.966   0.993  10.900
60617W        W25602  44.391  11.184  10.830
60618W        W25603  41.429  23.739   1.679
60619W        W25604   7.365   9.682  14.619
60620W        W25605  34.519  20.478   3.182
60621W        W25606  41.688  14.046  11.111
60622W        W25607  30.689   2.490  11.518
60623W        W25608  24.927  25.398  11.742
60624W        W25609  44.408  13.101   1.891
60625W        W25610  31.340  21.190   4.115
60626W        W25611  32.835  40.422   2.001
60627W        W25612  17.687  23.074  13.882
60628W        W25613  20.704  24.543  13.011
60629W        W25614  15.245   2.838   0.183
60630W        W25615   3.672   2.628  12.029
60631W        W25616   6.514  17.303  13.391
60632W        W25617  33.586  15.303   0.349
60633W        W25618  24.094  26.924   1.200
60634W        W25619  16.756  39.821   2.898
60635W        W25620  38.108  16.333   3.228
60636W        W25621  32.147  20.157   0.913
60637W        W25622   0.004   5.391  12.483
60638W        W25623  41.528  12.390   3.287
60639W        W25624   8.674   7.031  13.968
60640W        W25625  25.976  26.642   4.113
60641W        W25626   3.258   9.888   2.539
60642W        W25627  16.818  35.967   1.828
60643W        W25628  16.983  25.863   4.523
60644W        W25629   5.678  33.939   4.111
60645W        W25630  24.501   1.267   1.415
60646W        W25631  43.358  40.591   2.061
60647W        W25632   9.124  32.436   1.037
60648W        W25633  16.639  14.582   4.747
60649W        W25634  28.676  20.373  12.546
60650W        W25635   8.561   2.442  12.056
60651W        W25636  27.099   7.275  13.139
60652W        W25637  31.873  43.908   2.808
60653W        W25638  39.997  35.856  13.449
60654W        W25639  32.563  25.545   4.598
60655W        W25640  39.550  26.757  10.783
60656W        W25641  44.459  17.201  10.936
60657W        W25642   8.125  36.879   1.227
60658W        W25643  18.426   7.827   3.729
60659W        W25644  41.203   1.027   0.291
60660W        W25645  16.067   0.626  11.586
60661W        W25646  29.773   2.028  10.160
60662W        W25647  42.728  41.527  10.689
60663W        W25648  10.648  10.123  14.091
60664W        W25649  11.909  16.058   3.237
60665W        W25650   9.041  41.782  14.917
60666W        W25651  30.721  15.487  13.516
60667W        W25652   3.992  25.086   1.643
60668W        W25653   1.731  27.383  11.981
60669W        W25654   9.106  28.942  13.027
60670W        W25655  36.607  27.472  10.609
60671W        W25656  42.954   0.844  14.768
60672W        W25657  17.293  33.173  12.298
60673W        W25658  16.420  40.943  11.895
60674W        W25659   1.973   4.863  12.547
60675W        W25660   7.865  37.425  11.461
60676W        W25661  11.849  40.471  12.098
60677W        W25662   4.915  13.151   4.632
60678W        W25663  13.894  41.652   3.810
60679W        W25664  23.901  22.793   3.297
60680W        W25665  23.247   9.072  11.806
60681W        W25666  35.108   9.504  14.496
60682W        W25667  29.907  26.680   1.392
60683W        W25668  25.732  14.444  10.314
60684W        W25669  29.886  34.000   0.012
60685W        W25670  41.431  39.510   2.233
60686W        W25671  15.547  38.144   0.225
60687W        W25672  40.082  43.966  12.999
60688W        W25673  33.105   6.884   0.188
60689W        W25674  42.086  10.151   0.376
60690W        W25675  42.663   3.750  12.263
60691W        W25676  30.247  31.741  12.935
60692W        W25677  33.427  40.528  11.194
60693W        W25678  13.539  31.426   2.876
60694W        W25679  13.543   0.453  14.777
60695W        W25680   0.903   8.203  11.569
60696W        W25681  11.675   7.885   4.299
60697W        W25682   0.797  26.473   3.209
60698W        W25683  40.889  37.174  14.635
60699W        W25684   5.875   1.740  11.229
60700W        W25685   9.071  38.042  11.773
60701W        W25686   7.689  18.852  13.439
60702W        W25687  18.191  40.580   4.710
60703W        W25688  27.483  13.350   2.804
60704W        W25689   1.643   8.321  10.918
60705W        W25690  12.294  27.654  13.004
60706W        W25691   6.782  34.341  14.483
60707W        W25692  23.070  12.198  13.316
60708W        W25693   9.210  22.004   3.375
60709W        W25694  23.531  33.518   1.246
60710W        W25695  31.108  28.369   4.547
60711W        W25696  15.362  12.337  12.327
60712W        W25697  24.314  11.845   4.297
60713W        W25698  41.745   5.328   3.207
60714W        W25699  38.592  38.348   0.035
60715W        W25700  29.136  41.021   2.275
60716W        W25701   1.198  27.900  12.470
60717W        W25702  23.791  31.119   0.693
60718W        W25703  13.722  37.765  12.516
60719W        W25704  32.849  35.969  10.536
60720W        W25705  21.968  21.730  14.913
60721W        W25706  38.020  23.793   1.829
60722W        W25707   7.209  44.711   0.802
60723W        W25708  44.810  16.175   0.281
60724W        W25709  24.681  17.856   0.913
60725W        W25710  34.482  13.601   2.146
60726W        W25711  22.778  34.084  12.368
60727W        W25712  31.721   2.009  13.568
60728W        W25713  15.090  40.752   1.877
60729W        W25714  12.957  37.514   0.162
60730W        W25715  18.479   8.768  14.247
60731W        W25716  41.573   2.462  12.473
60732W        W25717  28.548  24.558   1.663
60733W        W25718   2.170  23.606   0.813
60734W        W25719   2.441  22.823   1.977
60735W        W25720  35.786  31.453  12.979
60736W        W25721  25.517   3.751  12.120
60737W        W25722  44.455  39.423   3.165
60738W        W25723   7.670  15.244   2.761
60739W        W25724  31.117  27.801  13.435
60740W        W25725  13.789  26.141  14.001
60741W        W25726   0.543   5.977  14.490
60742W        W25727  38.927   6.231  11.859
60743W        W25728  21.472  18.124   2.289
60744W        W25729  12.077  31.647  11.653
60745W        W25730  29.497  24.051  11.164
60746W        W25731  20.939  43.878   4.860
60747W        W25732  31.542  10.763  13.308
60748W        W25733  37.332  19.774   3.026
60749W        W25734  27.624  30.087   9.955
60750W        W25735  42.772  38.285  12.545
60751W        W25736  35.195  21.710   1.368
60752W        W25737  42.570  21.698   2.318
60753W        W25738  23.682  27.547  14.781
60754W        W25739  12.913  24.263   1.453
60755W        W25740  15.324  25.828   5.005
60756W        W25741  23.951  26.683  11.202
60757W        W25742  26.694  17.594  12.521
60758W        W25743  43.323   7.093  11.489
60759W        W25744  35.200  11.325   5.015
60760W        W25745  34.015  38.771   3.600
60761W        W25746  17.206  26.547   3.858
60762W        W25747   2.341   1.082   4.438
60763W        W25748  42.151   8.923  13.452
60764W        W25749  43.277  32.179  13.152
60765W        W25750  43.505   5.509   3.461
60766W        W25751  11.482  18.169   0.358
60767W        W25752  14.515  25.158  11.269
60768W        W25753  31.413   4.971   4.146
60769W        W25754   6.238  39.337  13.244
60770W        W25755  34.978  31.197  11.838
60771W        W25756  37.543  18.527  10.710
60772W        W25757  10.215  36.449   1.037
60773W        W25758   0.048  34.966   1.760
60774W        W25759   1.634  17.209  11.950
60775W        W25760  18.859  24.024  14.146
60776W        W25761  43.462  15.736   0.228
60777W        W25762  43.895  18.891   1.823
60778W        W25763  27.339  39.923  12.342
60779W        W25764   3.872  32.494  13.432
60780W        W25765  16.056  18.364   3.519
60781W        W25766  10.203  34.143   3.848
60782W        W25767  27.047  22.803   1.243
60783W        W25768  35.253  30.728  11.954
60784W        W25769   6.181  10.316  14.078
60785W        W25770  34.838   0.222  11.535
60786W        W25771  35.454  26.907  11.224
60787W        W25772  12.897  15.254   0.042
60788W        W25773  36.829  18.732   1.490
60789W        W25774  20.937  27.642  11.114
60790W        W25775  28.709  24.627  11.059
60791W        W25776  26.371  41.376  10.794
60792W        W25777  11.236  35.085  11.340
60793W        W25778  27.604  13.125  12.636
60794W        W25779   4.642  35.904  11.103
60795W        W25780   1.631  15.879   4.148
60796W        W25781   4.540  18.072   0.931
60797W        W25782  11.212   9.172  10.778
60798W        W25783   2.014  17.189   2.752
60799W        W25784  25.132  36.009  11.658
60800W        W25785   0.009  37.318  10.752
60801W        W25786  33.525  24.631   2.137
60802W        W25787  38.773  38.477   2.896
60803W        W25788  35.901  38.829   0.433
60804W        W25789  19.089   7.895   2.512
60805W        W25790  32.990  15.299  14.873
60806W        W25791   4.538  14.859   0.378
60807W        W25792  41.879  13.286  13.344
60808W        W25793  14.745  42.495  14.400
60809W        W25794  36.432   6.903   1.780
60810W        W25795  12.068   3.947   2.390
60811W        W25796  23.834  30.979  13.984
60812W        W25797  11.083  29.719  11.361
60813W        W25798  30.043  27.176   2.440
60814W        W25799  24.601   4.965   0.746
60815W        W25800  31.837  19.374  14.474
60816W        W25801   0.280  44.623  10.511
60817W        W25802  12.626  42.756  11.565
60818W        W25803  31.140  13.176  10.681
60819W        W25804  34.032  12.605   2.099
60820W        W25805  16.818  20.211   9.604
60821W        W25806  28.099  39.954   3.703
60822W        W25807  39.305  27.503   3.588
60823W        W25808   1.438   8.760  12.104
60824W        W25809  38.969  12.795  12.271
60825W        W25810   0.995  32.190   3.178
60826W        W25811  22.471   4.935   4.178
60827W        W25812   2.861  17.045  12.912
60828W        W25813  30.740  36.355   0.005
60829W        W25814  12.817  29.942   2.647
60830W        W25815  36.985  22.207  14.182
60831W        W25816  14.638  25.243   0.489
60832W        W25817   2.786  12.076   3.989
60833W        W25818  43.699  22.005   2.313
60834W        W25819   9.245   2.044   3.680
60835W        W25820  14.363  31.698   9.819
60836W        W25821  19.329  32.699   2.434
60837W        W25822  34.925  21.492   3.431
60838W        W25823  25.771  40.653  11.644
60839W        W25824  10.584  40.392  11.130
60840W        W25825   6.667  18.708   3.870
60841W        W25826  27.919  10.308  14.762
60842W        W25827  27.557  26.490   0.490
60843W        W25828  42.512   2.262   1.804
60844W        W25829  33.805  34.578   0.979
60845W        W25830   1.276  24.674   3.255
60846W        W25831  28.770  29.544   0.495
60847W        W25832  15.319  29.525   1.702
60848W        W25833  26.682  25.653  12.330
60849W        W25834  34.490  40.466   3.192
60850W        W25835   5.779  11.981   1.368
60851W        W25836  22.562  28.413  14.700
60852W        W25837  37.516   3.911  11.209
60853W        W25838  12.677  42.120   3.856
60854W        W25839   6.987  29.818   0.893
60855W        W25840  36.464  27.114   4.540
60856W        W25841  28.483  40.320   0.999
60857W        W25842  44.740  29.059   2.690
60858W        W25843  11.770  33.163   4.803
60859W        W25844  35.648   0.247  13.387
60860W        W25845  30.037  29.854   5.228
60861W        W25846  15.158  35.356  12.089
60862W        W25847  21.969   1.558   0.219
60863W        W25848   8.318   4.370   0.004
60864W        W25849  41.272  10.087  12.496
60865W        W25850  21.491   1.908   0.966
60866W        W25851  33.897  36.488   4.614
60867W        W25852  13.566   3.238   3.572
60868W        W25853  39.603  13.431  11.616
60869W        W25854   7.168  34.651  11.213
60870W        W25855  35.479  32.437   1.888
60871W        W25856   3.835  22.258  11.134
60872W        W25857  31.926  37.849  13.616
60873W        W25858  26.646  29.636  13.467
60874W        W25859  38.410  13.151   3.852
60875W        W25860  10.175   3.781  12.785
60876W        W25861  33.969  29.633   3.709
60877W        W25862   3.785  31.345   3.713
60878W        W25863  35.340  43.828  13.030
60879W        W25864   3.305  35.286  12.943
60880W        W25865  38.125  23.634   2.819
60881W        W25866   8.362  31.974   0.196
60882W        W25867   4.522  29.562  11.043
60883W        W25868  15.435  43.138   1.296
60884W        W25869   1.252  24.444   1.747
60885W        W25870  18.330  28.874  11.598
60886W        W25871  35.167  24.701  12.068
60887W        W25872   4.283  31.604   2.417
60888W        W25873  33.860  39.592  14.990
60889W        W25874  30.430  13.741  14.988
60890W        W25875  34.325   5.451  11.051
60891W        W25876  30.056  42.665  14.822
60892W        W25877  16.080   1.789   1.957
60893W        W25878   8.113  33.448  10.314
60894W        W25879  42.826  44.681  12.834
60895W        W25880  18.173  29.395   2.358
60896W        W25881   0.038  38.163  10.990
60897W        W25882  19.201  37.609   2.119
60898W        W25883  19.271   9.154   0.299
60899W        W25884  35.022  18.311   2.803
60900W        W25885   2.084  22.725   0.722
60901W        W25886  36.010  25.953   4.707
60902W        W25887  29.130  29.677  12.507
60903W        W25888  39.329  41.442  11.430
60904W        W25889   9.132  23.531   0.434
60905W        W25890   8.169  44.008  12.594
60906W        W25891  43.725  10.637   1.267
60907W        W25892  37.217   2.193  12.897
60908W        W25893   9.638  14.240  10.764
60909W        W25894  36.901  42.253  12.181
60910W        W25895  22.750  13.036   1.271
60911W        W25896   3.227  25.471  12.936
60912W        W25897  15.783  44.347  13.833
60913W        W25898  38.794  39.419  12.877
60914W        W25899  25.574   9.132   1.063
60915W        W25900  19.407  30.439  13.983
60916W        W25901   7.905  22.118   0.512
60917W        W25902  26.062  24.212  14.004
60918W        W25903  24.127  22.221   4.195
60919W        W25904   5.460  24.432  14.566
60920W        W25905  42.330  16.816   0.460
60921W        W25906   7.117  17.776  13.844
60922W        W25907  16.941  31.181  12.389
60923W        W25908  35.028   8.923  12.481
60924W        W25909  14.674  22.046   3.740
60925W        W25910   5.921   8.681   3.740
60926W        W25911  13.917   4.183  11.518
60927W        W25912   1.655   9.939   3.819
60928W        W25913  11.749  10.128  13.538
60929W        W25914   6.278   2.598   3.694
60930W        W25915  39.063  33.069   2.221
60931W        W25916  16.053   2.296  12.784
60932W        W25917  32.202  28.460  14.958
60933W        W25918  30.010  31.647   4.144
60934W        W25919  17.926  36.323  12.618
60935W        W25920  18.524  36.569   0.751
60936W        W25921  36.957  35.453  10.575
60937W        W25922   6.771  13.075  12.836
60938W        W25923  18.530  44.826   4.078
60939W        W25924  29.167  16.517   1.700
60940W        W25925  43.270   6.208  14.041
60941W        W25926  23.286  32.188   1.279
60942W        W25927  28.008  32.989   2.201
60943W        W25928   8.616   0.755  13.371
60944W        W25929   4.703  35.462   4.369
60945W        W25930  20.088  35.344  14.629
60946W        W25931  26.666  28.839  13.870
60947W        W25932  35.274  28.638  12.492
60948W        W25933   7.151   3.670  11.816
60949W        W25934   4.439  38.140  10.351
60950W        W25935  40.302  19.307   1.166
60951W        W25936  17.076   8.333   2.822
60952W        W25937  20.663  10.100   3.354
60953W        W25938  21.415  35.273   1.378
60954W        W25939   8.776  25.131   1.801
60955W        W25940  28.542   0.789  12.446
60956W        W25941  10.524  43.061  11.573
60957W        W25942  23.172  17.857   2.032
60958W        W25943  29.639   3.162   4.527
60959W        W25944   4.428   8.338   2.926
60960W        W25945  19.641   8.789  11.174
60961W        W25946   7.311  42.265  14.551
60962W        W25947  18.664  25.702   4.479
60963W        W25948   4.782  30.141  13.543
60964W        W25949   4.660  25.009   3.747
60965W        W25950  44.996  26.190   1.944
60966W        W25951  24.547  41.985  11.587
60967W        W25952  20.640  44.151  11.986
60968W        W25953  37.766  14.226   0.654
60969W        W25954   7.164  11.473  13.351
60970W        W25955  29.947  42.532  12.048
60971W        W25956  19.511   4.279   2.665
60972W        W25957  24.097  42.942   4.719
60973W        W25958  37.041  41.814   4.665
60974W        W25959  11.447   2.568  14.895
60975W        W25960   6.457  42.955  14.862
60976W        W25961  32.177  44.958   3.104
60977W        W25962  17.589  32.977   3.319
60978W        W25963  21.443  21.867  14.780
60979W        W25964  29.490  13.100   1.365
60980W        W25965  16.238   5.791  12.161
60981W        W25966  40.962  31.484   4.523
60982W        W25967  44.834  28.290   2.604
60983W        W25968   3.437  19.526   1.299
60984W        W25969   0.367  14.185   4.922
60985W        W25970  39.276  22.541   3.898
60986W        W25971  23.893   5.492  14.775
60987W        W25972  34.670  10.414   2.361
60988W        W25973  21.038   0.030  13.401
60989W        W25974  13.355  18.277  10.560
60990W        W25975   4.219   9.767   0.783
60991W        W25976  16.598   4.530  10.333
60992W        W25977  13.722  11.749  13.006
60993W        W25978  22.280  20.432  11.908
60994W        W25979  34.529  37.114   4.118
60995W        W25980   3.192   9.433   3.753
60996W        W25981   6.239  34.473  13.328
60997W        W25982  39.332  33.322  14.559
60998W        W25983  43.060  10.088   1.697
60999W        W25984   3.899  35.561  12.430
61000W        W25985  35.835   0.783   4.151
61001W        W25986  40.888  10.678   0.354
61002W        W25987  29.613  11.858  11.211
61003W        W25988   5.932  35.593  10.443
61004W        W25989  35.007  43.591   2.754
61005W        W25990  24.987  13.357   3.198
61006W        W25991   5.271  14.635   2.181
61007W        W25992  30.972  44.489  10.917
61008W        W25993   3.215  19.122   2.679
61009W        W25994   6.720  42.245   4.617
61010W        W25995  19.677  23.254   4.106
61011W        W25996  14.214  28.992  11.056
61012W        W25997  16.843  35.794   0.229
61013W        W25998  40.263   1.919  12.511
61014W        W25999  11.883  20.579   0.987
61015W        W26000  18.056   0.924   2.113
61016W        W26001   0.433  15.690  14.300
61017W        W26002   4.636  16.364   0.217
61018W        W26003   0.549  13.561   4.185
61019W        W26004  16.814  37.476   4.393
61020W        W26005  13.510  42.930  14.688
61021W        W26006   3.916   7.527  12.596
61022W        W26007  10.812  15.859   2.381
61023W        W26008  19.698   2.242   4.281
61024W        W26009  13.231  10.020  12.486
61025W        W26010  36.377  25.275  12.265
61026W        W26011   0.226  33.546  12.318
61027W        W26012   9.924  41.900   4.232
61028W        W26013  43.075   4.835   2.664
61029W        W26014  31.110  25.045  13.317
61030W        W26015   1.057  38.411   1.302
61031W        W26016  15.455  13.624   4.032
61032W        W26017  10.429  21.946   0.445
61033W        W26018  12.022  13.756   3.010
61034W        W26019  26.720  12.848  10.709
61035W        W26020  39.578  29.456   3.373
61036W        W26021  38.855  39.771  13.813
61037W        W26022   0.524  21.484  11.571
61038W        W26023  35.819  23.518  10.727
61039W        W26024   8.173  26.978  10.470
61040W        W26025  18.590  30.039  13.052
61041W        W26026  12.007  14.694   3.474
61042W        W26027  33.137  31.477  12.074
61043W        W26028  32.128  43.815  10.625
61044W        W26029  39.827  44.893   2.633
61045W        W26030  22.068  13.631   4.402
61046W        W26031   8.138  25.155   4.624
61047W        W26032  34.155   2.743  10.780
61048W        W26033  33.649   1.049  12.620
61049W        W26034  15.761  39.363   3.593
61050W        W26035  40.002  39.798  13.477
61051W        W26036  25.539  11.177   0.795
61052W        W26037   6.626   6.957   4.127
61053W        W26038  12.082  29.052   3.031
61054W        W26039  15.505  27.332   0.021
61055W        W26040  39.453   7.123   0.210
61056W        W26041  39.367  22.493   2.886
61057W        W26042   0.980  40.545  12.084
61058W        W26043   6.341  18.026   1.525
61059W        W26044   2.322  31.860   3.727
61060W        W26045  14.604  17.592  11.416
61061W        W26046  17.843   9.612  14.339
61062W        W26047  42.252  22.174   0.924
61063W        W26048   3.733  34.609  14.745
61064W        W26049  28.978  24.004   2.398
61065W        W26050  29.671  41.385   0.701
61066W        W26051   0.368  34.905  14.059
61067W        W26052  43.210  29.376   3.686
61068W        W26053  38.764  40.318  13.084
61069W        W26054   5.696  23.167   1.107
61070W        W26055  42.739   3.700   4.581
61071W        W26056   7.993  15.366   0.342
61072W        W26057  22.324  40.304   2.022
61073W        W26058  35.350  43.288   4.094
61074W        W26059  18.955  16.058   1.904
61075W        W26060   2.718  15.384  11.360
61076W        W26061  14.581  12.808   1.879
61077W        W26062   0.488  36.050  10.695
61078W        W26063  44.561  32.388   0.353
61079W        W26064  35.303  37.660   2.406
61080W        W26065   0.957   3.031   0.790
61081W        W26066  33.524  25.065   2.779
61082W        W26067  44.732  27.952  14.938
61083W        W26068  34.415  26.316   5.025
61084W        W26069  44.796  38.656  12.598
61085W        W26070   8.762  33.948   0.447
61086W        W26071  42.915   3.922   3.645
61087W        W26072  31.439  25.939   0.780
61088W        W26073   1.471  39.057  10.756
61089W        W26074  27.608  17.570  14.974
61090W        W26075  28.350  19.257  14.964
61091W        W26076  29.087  16.245  11.065
61092W        W26077  39.078  21.188   3.645
61093W        W26078  36.877  28.613  11.982
61094W        W26079  37.751  17.937  11.908
61095W        W26080  42.708   0.944   0.652
61096W        W26081  27.010  22.202   2.096
61097W        W26082  27.756  21.711  12.077
61098W        W26083  42.668  40.397   1.067
61099W        W26084  39.760  34.706   2.252
61100W        W26085  13.264   8.053  13.860
61101W        W26086  19.762  31.491  11.442
61102W        W26087  24.253   4.891   0.308
61103W        W26088  30.643  15.568  11.154
61104W        W26089  21.706  13.592   3.789
61105W        W26090   4.442  35.374   2.157
61106W        W26091   1.930  39.440  10.784
61107W        W26092  10.572  19.559  10.748
61108W        W26093  22.704  15.597   3.936
61109W        W26094  20.059  35.305   2.198
61110W        W26095  21.285  24.091   2.301
61111W        W26096  28.570  15.540   0.326
61112W        W26097  25.472  19.347   5.146
61113W        W26098  25.476   7.607  11.383
61114W        W26099  16.727  23.709   4.330
61115W        W26100  28.603  27.945  12.417
61116W        W26101  37.662  15.861  11.190
61117W        W26102   5.441   7.566  14.064
61118W        W26103  23.574  40.868   0.301
61119W        W26104  10.778   4.221  10.543
61120W        W26105  13.409  36.432  11.200
61121W        W26106   1.534   3.202   2.536
61122W        W26107   8.989   4.405   1.281
61123W        W26108  41.501  28.421   0.552
61124W        W26109  19.555  13.287   3.893
61125W        W26110  10.231   3.881   3.823
61126W        W26111  23.702  12.681   4.141
61127W        W26112   0.922  25.221   1.349
61128W        W26113  25.138  39.927  11.596
61129W        W26114  16.183  40.402   3.150
61130W        W26115  14.709  38.842   2.947
61131W        W26116   4.521   9.301  10.383
61132W        W26117  12.726  20.815   4.089
61133W        W26118  19.973  34.973  10.968
61134W        W26119  39.612  22.928   5.509
61135W        W26120  31.429  33.538  10.762
61136W        W26121  36.583  19.967  14.512
61137W        W26122  18.843  43.302   1.032
61138W        W26123  14.442  18.432  13.335
61139W        W26124  12.081  14.592  10.800
61140W        W26125  35.524  15.586   4.102
61141W        W26126   6.443  34.024  11.054
61142W        W26127  33.390  19.327   2.500
61143W        W26128  11.559   5.280  13.284
61144W        W26129  11.628  38.458  12.238
61145W        W26130  18.212  11.153   0.663
61146W        W26131  11.553  29.141   0.395
61147W        W26132  31.017   3.341  11.690
61148W        W26133  33.873   3.928  12.415
61149W        W26134  25.673   7.176   3.325
61150W        W26135   9.845  24.424   0.442
61151W        W26136  29.192  27.346   3.286
61152W        W26137  25.775  13.670   2.178
61153W        W26138  29.077  24.541   0.795
61154W        W26139  39.665  27.547   3.209
61155W        W26140  41.851  40.126   0.237
61156W        W26141  37.304  28.097   2.357
61157W        W26142   5.844  18.487   0.185
61158W        W26143  33.481  31.508  12.651
61159W        W26144  19.868  38.266  11.689
61160W        W26145  30.961   4.860   2.538
61161W        W26146   6.180  40.952   1.940
61162W        W26147  39.367  41.040   0.453
61163W        W26148  36.896  43.865  10.708
61164W        W26149  11.598   9.249   3.308
61165W        W26150  14.737  31.801  12.496
61166W        W26151   9.070   9.768  11.383
61167W        W26152  21.092  25.269   1.800
61168W        W26153  16.825  26.977   1.572
61169W        W26154  26.316  16.729  12.496
61170W        W26155  16.605  33.348   3.034
61171W        W26156  38.413  10.451   4.195
61172W        W26157  43.463  10.186  14.280
61173W        W26158  16.414  23.410  13.267
61174W        W26159  43.488  18.675   3.684
61175W        W26160  20.209  14.722   0.016
61176W        W26161  32.569   4.923  12.418
61177W        W26162  44.095  15.740  12.188
61178W        W26163  10.150   4.251  13.918
61179W        W26164   6.157   7.475   2.170
61180W        W26165  12.330  26.133  12.898
61181W        W26166  29.820  16.945  11.185
61182W        W26167  34.079   8.975  12.624
61183W        W26168   5.472  19.721  11.443
61184W        W26169  37.402  31.994   0.117
61185W        W26170  39.371  33.037   3.104
61186W        W26171   5.669   6.162   1.215
61187W        W26172  41.605   9.403  11.985
61188W        W26173  10.681  12.445  14.975
61189W        W26174  44.816   7.839   1.394
61190W        W26175   9.509   3.386   1.007
61191W        W26176   4.416  10.300   4.054
61192W        W26177   3.131   1.882  12.753
61193W        W26178  28.380   3.806   0.935
61194W        W26179  21.663  15.899  12.536
61195W        W26180   6.571  29.301   4.281
61196W        W26181   4.255  30.929  10.939
61197W        W26182  23.976   3.950   1.426
61198W        W26183   0.112  28.342  12.903
61199W        W26184  24.136   7.985   1.672
61200W        W26185  12.795  32.535  12.052
61201W        W26186  40.741  11.811   2.194
61202W        W26187  44.158  20.891  14.465
61203W        W26188  30.107  14.222   2.474
61204W        W26189   1.997  35.463   2.281
61205W        W26190  33.488  42.378   2.866
61206W        W26191  38.823  39.313  10.393
61207W        W26192  43.536   0.851  11.609
61208W        W26193  36.560  29.870  12.562
61209W        W26194  14.378   8.699   0.301
61210W        W26195  21.745  34.129   0.448
61211W        W26196   1.304  10.602   3.608
61212W        W26197  25.335  33.959  12.182
61213W        W26198  21.240   7.663  14.036
61214W        W26199  34.098  36.333  10.748
61215W        W26200  35.400   1.023  11.661
61216W        W26201  42.898  41.579   0.999
61217W        W26202   5.581  15.994   2.142
61218W        W26203  43.131  20.107  13.707
61219W        W26204  30.868  19.583  11.527
61220W        W26205  15.023  33.647   4.362
61221W        W26206  25.506  25.090   4.518
61222W        W26207  35.284  38.117  10.749
61223W        W26208  22.528  10.740   4.911
61224W        W26209  37.765  44.745  14.201
61225W        W26210  28.256  20.503   0.374
61226W        W26211  26.274  16.872   2.237
61227W        W26212   1.915  35.796   1.826
61228W        W26213  22.501  20.213  12.758
61229W        W26214  11.096   3.531  14.916
61230W        W26215   5.524  26.135  12.785
61231W        W26216   7.664  44.357  12.532
61232W        W26217  24.628  19.553   3.238
61233W        W26218  26.711  25.161   3.134
61234W        W26219   9.141  40.018   2.666
61235W        W26220  44.207  27.897  12.611
61236W        W26221  29.016  11.214   0.565
61237W        W26222  35.927  44.049   0.598
61238W        W26223  33.737  36.096  10.451
61239W        W26224  29.857  44.985  10.148
61240W        W26225  14.555  22.984   2.614
61241W        W26226  28.858  12.452   2.289
61242W        W26227  16.762  25.957   2.124
61243W        W26228  33.078   5.261  14.019
61244W        W26229  18.134  21.873   4.197
61245W        W26230  42.284   9.770  14.198
61246W        W26231  21.764  15.278  10.630
61247W        W26232  37.391  21.612  12.865
61248W        W26233  13.751  17.950   4.663
61249W        W26234  32.504  39.078  14.881
61250W        W26235  34.396   2.865  14.372
61251W        W26236  20.166  24.836   3.756
61252W        W26237  10.161  11.423   1.778
61253W        W26238  17.625   7.973   4.772
61254W        W26239  16.287  38.353  10.632
61255W        W26240   3.695  40.920  10.765
61256W        W26241   3.209  21.136   3.548
61257W        W26242  14.652  16.454   1.784
61258W        W26243  20.899  10.091  14.507
61259W        W26244  40.479   0.716   4.172
61260W        W26245   5.382   1.675   4.627
61261W        W26246  12.780  15.162   3.775
61262W        W26247   5.716  22.711   0.776
61263W        W26248  28.189  18.801   0.429
61264W        W26249   8.775  11.696  13.561
61265W        W26250  26.052   9.363   2.750
61266W        W26251  36.924  36.444   1.929
61267W        W26252  25.064  15.371   1.839
61268W        W26253   5.292  22.497  12.179
61269W        W26254  28.599   1.171  12.084
61270W        W26255   9.725  38.929   4.166
61271W        W26256  18.080  11.933   1.530
61272W        W26257  40.731  22.643  10.798
61273W        W26258   3.416  11.008   4.901
61274W        W26259  34.369  23.373  13.062
61275W        W26260  30.215   7.652  10.478
61276W        W26261  22.025  32.536  12.485
61277W        W26262  29.960   1.121  12.673
61278W        W26263  23.240  39.127  11.925
61279W        W26264  10.683  27.684   4.608
61280W        W26265  16.267  43.826  14.502
61281W        W26266   4.405  13.066   2.322
61282W        W26267   3.957  29.816   0.689
61283W        W26268  22.662  35.040   2.402
61284W        W26269   6.377  17.538   3.242
61285W        W26270   5.344   5.100   2.639
61286W        W26271   6.656   2.847  12.789
61287W        W26272  17.242  21.577   1.197
61288W        W26273  15.060  26.641   0.482
61289W        W26274  32.806  22.591  11.541
61290W        W26275  41.418  28.236   2.898
61291W        W26276  44.332  25.900  10.319
61292W        W26277  18.184  27.686  13.125
61293W        W26278  17.757  40.715  10.437
61294W        W26279  29.723  24.517  11.112
61295W        W26280   8.383  19.952  13.799
61296W        W26281  41.460   7.376  12.082
61297W        W26282   7.388  32.913  13.119
61298W        W26283  33.624  25.966  13.108
61299W        W26284  32.119  22.886  12.976
61300W        W26285   0.771  21.603  12.791
61301W        W26286   8.896  19.113   0.016
61302W        W26287  32.970   9.789  12.478
61303W        W26288  22.120   9.176   3.073
61304W        W26289  26.557  18.137  12.723
61305W        W26290  32.928  15.268   3.625
61306W        W26291  24.700  10.411   1.922
61307W        W26292  33.408  16.212   4.276
61308W        W26293   9.949  14.830  13.959
61309W        W26294   8.546  14.801   4.986
61310W        W26295  17.323  18.520   1.014
61311W        W26296  32.737  36.360  13.022
61312W        W26297  16.881  25.069   3.892
61313W        W26298   6.963  43.740   4.647
61314W        W26299  35.760  11.816   5.329
61315W        W26300   0.653   6.567  14.434
61316W        W26301  15.749  24.780  11.946
61317W        W26302   6.365  44.283  14.751
61318W        W26303  32.571  40.503  12.559
61319W        W26304   1.882  33.142   3.777
61320W        W26305  26.830  40.090  12.361
61321W        W26306  17.578  31.482   2.706
61322W        W26307  26.776   1.415  11.293
61323W        W26308  38.822  19.770   2.761
61324W        W26309  17.189  40.891  14.988
61325W        W26310  11.329  10.857  13.940
61326W        W26311  40.846  40.076   2.718
61327W        W26312  31.193  36.799  14.384
61328W        W26313  34.184  34.365  14.588
61329W        W26314  34.605  25.612  10.750
61330W        W26315  33.953  35.872   4.738
61331W        W26316  40.941  26.637  11.109
61332W        W26317  19.306  11.129  14.805
61333W        W26318  26.107  38.712  10.967
61334W        W26319  31.090  16.382   2.441
61335W        W26320  31.436   9.637   3.715
61336W        W26321   9.216  20.939  10.590
61337W        W26322  14.679  11.787   0.162
61338W        W26323   6.170  28.716   0.907
61339W        W26324  32.175  27.191   3.760
61340W        W26325   7.123   3.869   1.664
61341W        W26326  36.086  31.386  13.383
61342W        W26327   5.903  13.263   4.537
61343W        W26328  25.705  41.789   3.572
61344W        W26329  31.862  37.654   3.616
61345W        W26330   0.356   0.822  11.624
61346W        W26331  28.398  18.057  14.424
61347W        W26332  38.119  16.562   3.691
61348W        W26333  29.093  15.499  11.529
61349W        W26334  29.826  39.900   1.806
61350W        W26335  38.025  40.445  10.498
61351W        W26336  36.808  20.592   3.601
61352W        W26337  14.322  42.219  14.918
61353W        W26338   7.188  23.682  12.970
61354W        W26339  15.163  14.591  12.918
61355W        W26340  26.291  11.486   5.088
61356W        W26341  12.871   1.415  13.130
61357W        W26342  20.051  37.042   2.241
61358W        W26343  13.183  43.246   3.851
61359W        W26344   6.355  44.016  12.717
61360W        W26345   7.014   1.005  13.975
61361W        W26346  23.646  11.792   3.696
61362W        W26347   2.208  32.925   2.948
61363W        W26348  37.953  39.033   3.227
61364W        W26349  30.384  14.055  13.575
61365W        W26350  17.163  14.390   3.727
61366W        W26351   9.738  34.144   4.536
61367W        W26352  38.940  42.500  10.064
61368W        W26353  33.609  10.359  11.176
61369W        W26354  32.464   9.637  10.210
61370W        W26355  43.511  17.519   0.631
61371W        W26356   2.790  21.573  12.449
61372W        W26357  33.568  20.550   2.375
61373W        W26358   6.728  35.814  14.188
61374W        W26359  43.299  28.117  14.789
61375W        W26360  43.490  17.678   1.164
61376W        W26361  23.740  35.033  11.874
61377W        W26362  14.213  44.926  10.750
61378W        W26363  33.976  44.383   4.358
61379W        W26364  11.712  24.815  14.360
61380W        W26365   0.407   0.315  13.431
61381W        W26366  25.569  17.825  14.979
61382W        W26367   5.815  11.412  14.813
61383W        W26368  32.006  44.866   0.338
61384W        W26369  43.866  39.784  14.876
61385W        W26370  33.086  23.194  10.516
61386W        W26371  29.565  34.389   4.075
61387W        W26372  14.280  33.583   4.480
61388W        W26373  10.031  44.726  11.223
61389W        W26374   2.243  32.062  14.788
61390W        W26375  39.158   9.235   4.147
61391W        W26376   4.838  15.628   3.074
61392W        W26377   7.240   9.412   2.202
61393W        W26378  35.337   5.826  10.406
61394W        W26379  32.080  33.138  14.913
61395W        W26380  19.190   2.928   0.994
61396W        W26381  22.550  32.332   2.697
61397W        W26382  43.294  16.731   0.306
61398W        W26383   1.432  41.005  10.633
61399W        W26384   4.438  23.966   1.366
61400W        W26385  13.368  27.162  13.872
61401W        W26386  20.134  27.254  14.393
61402W        W26387   3.337  23.197   0.033
61403W        W26388  20.467   4.190  14.423
61404W        W26389  12.377  36.395   3.822
61405W        W26390  36.445  14.083   3.889
61406W        W26391  41.080  38.519   1.161
61407W        W26392  43.079  33.123   3.722
61408W        W26393   4.893  37.880  13.319
61409W        W26394  43.849  42.236  11.558
61410W        W26395  39.917  26.641  12.954
61411W        W26396  33.887  29.225  13.432
61412W        W26397  41.063   1.678   0.881
61413W        W26398  22.445   2.311   2.586
61414W        W26399  13.133  40.353   4.080
61415W        W26400  17.066   8.706   0.322
61416W        W26401   0.395  23.632   2.915
61417W        W26402   7.368  10.320   3.728
61418W        W26403  13.964  16.365  12.743
61419W        W26404  34.412  37.656  13.118
61420W        W26405   7.124  38.029  10.708
61421W        W26406   3.195  10.875   1.242
61422W        W26407  20.841  10.109   2.487
61423W        W26408  35.552  39.079  12.155
61424W        W26409   2.699   3.764   1.337
61425W        W26410  11.951  16.038  13.417
61426W        W26411  42.464  36.611  14.960
61427W        W26412   4.461   2.752   1.445
61428W        W26413   0.756  44.585  14.537
61429W        W26414  22.626  17.460  12.575
61430W        W26415  29.946   0.046  12.506
61431W        W26416  17.628  41.696  10.852
61432W        W26417  29.752  31.628   3.224
61433W        W26418  44.982  28.400  14.759
61434W        W26419  27.458  37.480  11.497
61435W        W26420   4.238   3.932  12.985
61436W        W26421  28.596  42.282  14.331
61437W        W26422  24.433  34.861  14.495
61438W        W26423  41.867   0.717  12.837
61439W        W26424  35.100  15.539   3.194
61440W        W26425  12.771  11.120  13.939
61441W        W26426  36.937  29.179  14.231
61442W        W26427  30.131  32.784  12.022
61443W        W26428  22.595  10.223   0.245
61444W        W26429  29.182  37.589   1.781
61445W        W26430  35.629  14.013   1.886
61446W        W26431  28.995  13.237  14.625
61447W        W26432  13.635  22.598   2.466
61448W        W26433  35.100  26.428   1.110
61449W        W26434  34.178  27.749   4.184
61450W        W26435   9.620   7.242  10.573
61451W        W26436  17.523   8.247   1.076
61452W        W26437  12.746   4.531  13.393
61453W        W26438  11.245   6.028   3.578
61454W        W26439  41.600  40.579   0.305
61455W        W26440   0.295  36.171  12.454
61456W        W26441  26.610  23.107   1.879
61457W        W26442  13.397   4.696   2.226
61458W        W26443  30.606  16.413   2.247
61459W        W26444  38.103  41.310  10.839
61460W        W26445  25.667  37.296  14.314
61461W        W26446  22.167  10.493  12.942
61462W        W26447  32.745   8.205  14.331
61463W        W26448  24.830  40.381   4.139
61464W        W26449  14.079  21.817  12.111
61465W        W26450   5.824  30.079  10.884
61466W        W26451  18.135  26.552   3.515
61467W        W26452   0.549  28.016   1.322
61468W        W26453   2.085   6.014   2.785
61469W        W26454  22.724  39.634   2.608
61470W        W26455   9.327  26.227   3.589
61471W        W26456  44.350  10.703  14.387
61472W        W26457  29.208  36.389  11.285
61473W        W26458  35.325  25.998  13.944
61474W        W26459  35.295  39.503   1.317
61475W        W26460  44.262   2.870   4.772
61476W        W26461  26.686  21.810  10.948
61477W        W26462  24.610  19.239  11.247
61478W        W26463  35.104   5.010  14.476
61479W        W26464  33.370  25.141   1.424
61480W        W26465  22.118  26.166  14.673
61481W        W26466  32.523  18.251  10.786
61482W        W26467  21.109   5.196  11.655
61483W        W26468  15.809  17.173  13.558
61484W        W26469  33.946  31.585  11.449
61485W        W26470  22.768  33.064  13.857
61486W        W26471  17.720  40.177  11.632
61487W        W26472   5.938  21.112   9.993
61488W        W26473  24.380  41.340   0.528
61489W        W26474  28.870  43.492  12.974
61490W        W26475  10.203  40.717  12.072
61491W        W26476  14.631   0.238  10.700
61492W        W26477   3.214  17.991   1.252
61493W        W26478  13.147  22.631   2.688
61494W        W26479  35.067  21.562   2.915
61495W        W26480  13.377  22.980  13.927
61496W        W26481  32.993  27.629  12.499
61497W        W26482  17.233  12.479  12.816
61498W        W26483  11.365  24.026  13.442
61499W        W26484   0.071  38.926   2.094
61500W        W26485  30.901  26.357   1.368
61501W        W26486   3.958  42.138   4.559
61502W        W26487  15.059  16.809  13.054
61503W        W26488  37.552  11.200  14.190
61504W        W26489  26.160  41.527  12.304
61505W        W26490  23.338  25.691  13.402
61506W        W26491  10.872  26.952   2.333
61507W        W26492  12.081   4.407   2.668
61508W        W26493  22.639  15.340   3.390
61509W        W26494  37.395  34.413  12.861
61510W        W26495   4.303  44.858   0.230
61511W        W26496  44.028  27.432  12.801
61512W        W26497  33.681  37.961  12.882
61513W        W26498  18.105  38.930   3.622
61514W        W26499  23.945  27.425   1.258
61515W        W26500  27.275   7.336   3.357
61516W        W26501  36.066  43.280  11.060
61517W        W26502  10.717   0.024  13.663
61518W        W26503  24.570  20.380   1.146
61519W        W26504   7.340  10.714   4.822
61520W        W26505   6.754  22.067  13.874
61521W        W26506  36.366   3.259   4.508
61522W        W26507  23.044  26.220   3.208
61523W        W26508  25.214  15.472   2.641
61524W        W26509  23.942  20.501   3.682
61525W        W26510  30.894  28.614   0.709
61526W        W26511  25.754  19.509  14.263
61527W        W26512  25.069  27.930  12.062
61528W        W26513  37.029  15.604   3.240
61529W        W26514  25.423  12.159  13.682
61530W        W26515  40.088  40.583  13.955
61531W        W26516  37.001  24.577   4.223
61532W        W26517  19.701  25.249  11.577
61533W        W26518  40.227  31.947   4.498
61534W        W26519  29.784  15.713  13.411
61535W        W26520  10.182  22.562  11.912
61536W        W26521  29.215  10.730   0.455
61537W        W26522   4.331  29.153  12.852
61538W        W26523   4.198  15.487  13.350
61539W        W26524   6.806  20.114  10.434
61540W        W26525  14.836   4.907  14.761
61541W        W26526  29.038  31.172  12.719
61542W        W26527  26.977  13.114   0.301
61543W        W26528  14.696  17.662  14.839
61544W        W26529  32.625  10.209   0.191
61545W        W26530  42.870  35.050  13.698
61546W        W26531  19.138  27.100   0.417
61547W        W26532  20.187  42.852  10.259
61548W        W26533  28.589  10.930  10.854
61549W        W26534   0.228  44.790   4.080
61550W        W26535  19.010  31.826   4.937
61551W        W26536  43.264  36.444   1.691
61552W        W26537  21.102   2.258  10.661
61553W        W26538  39.385  19.188   2.437
61554W        W26539  39.567  31.950   1.403
61555W        W26540  11.206   2.448  13.094
61556W        W26541  38.292  10.391  10.273
61557W        W26542  14.917  35.426  14.869
61558W        W26543  27.005  39.185  13.532
61559W        W26544  44.270  11.864  13.891
61560W        W26545  10.392  36.017   4.801
61561W        W26546  15.266  44.768   0.224
61562W        W26547  24.464  21.976  11.959
61563W        W26548  31.977  34.213  14.925
61564W        W26549  24.559  36.932   0.981
61565W        W26550   5.509  38.756  11.471
61566W        W26551   3.395  17.051  13.567
61567W        W26552  36.396  33.607  10.637
61568W        W26553  29.715  40.884   4.703
61569W        W26554  13.358  31.017   3.688
61570W        W26555  21.615  19.773   9.952
61571W        W26556  24.922   6.402   3.740
61572W        W26557  14.279  39.807  10.597
61573W        W26558  11.238  14.998   2.174
61574W        W26559  33.428  24.953   3.622
61575W        W26560  21.152  18.724   2.809
61576W        W26561  38.407  10.172  12.007
61577W        W26562  34.993  22.739   1.084
61578W        W26563  16.077  15.700   3.208
61579W        W26564  39.800  32.612   0.937
61580W        W26565  10.447   3.858  11.833
61581W        W26566  17.786  14.495   1.331
61582W        W26567  30.288  30.496   3.691
61583W        W26568  10.613   5.452  13.390
61584W        W26569   0.557   2.513  12.030
61585W        W26570  16.401   3.722   9.957
61586W        W26571   7.228   1.880  13.432
61587W        W26572  23.557   0.570   3.258
61588W        W26573  44.819  14.355   2.325
61589W        W26574  33.094  33.450  12.084
61590W        W26575  39.820   1.291  10.674
61591W        W26576  37.016   7.999   2.386
61592W        W26577  26.460  39.637   0.280
61593W        W26578  44.680  12.761   0.818
61594W        W26579  41.411   6.266   0.068
61595W        W26580   5.740  30.438  14.648
61596W        W26581   4.411  10.555   3.597
61597W        W26582   7.330  11.904  11.651
61598W        W26583  25.358  42.817   1.338
61599W        W26584  42.755  11.079   1.795
61600W        W26585  20.180   2.188  10.715
61601W        W26586   3.923  14.388   4.694
61602W        W26587  17.355  39.034  12.770
61603W        W26588  17.245  38.542  12.643
61604W        W26589  36.802  15.000   2.609
61605W        W26590   8.728  29.517  12.484
61606W        W26591  22.914  39.316  10.640
61607W        W26592  27.655  35.076  11.955
61608W        W26593   3.349   5.242   2.610
61609W        W26594  28.378  37.043  14.383
61610W        W26595  25.689  34.884   1.565
61611W        W26596  38.314   8.013   0.288
61612W        W26597  40.641  33.895   0.433
61613W        W26598  30.846  10.611   2.784
61614W        W26599  15.568  42.956   0.828
61615W        W26600  16.827   7.869  12.133
61616W        W26601  41.432  11.165  13.794
61617W        W26602  43.954  11.888   3.238
61618W        W26603  35.639  26.926   1.836
61619W        W26604  33.618  43.289   2.868
61620W        W26605   0.690  22.201   0.525
61621W        W26606   3.991   3.694   2.197
61622W        W26607  43.251  44.685  13.163
61623W        W26608  11.935  13.831   4.582
61624W        W26609  43.815  21.955  14.808
61625W        W26610   8.735  39.660   2.729
61626W        W26611   3.967   9.816  13.609
61627W        W26612  24.787  23.260  12.397
61628W        W26613  40.515  39.822  13.482
61629W        W26614  43.323  42.007  10.512
61630W        W26615  34.936  40.928  13.456
61631W        W26616  16.012  37.399   0.384
61632W        W26617  15.068  13.080   1.357
61633W        W26618   0.939   8.086  14.151
61634W        W26619  40.129  15.336   3.619
61635W        W26620  16.517  17.983   4.179
61636W        W26621  29.414  28.449  13.528
61637W        W26622  16.210  18.313  10.425
61638W        W26623  35.684  18.761  11.561
61639W        W26624  29.572  37.133   3.255
61640W        W26625  24.233  19.038  12.563
61641W        W26626   4.818  20.350   1.902
61642W        W26627  24.633  16.360   0.853
61643W        W26628   0.913  24.228   2.696
61644W        W26629  44.498  30.132   4.587
61645W        W26630   8.907  40.922   2.259
61646W        W26631   0.885  15.930  14.458
61647W        W26632   7.079   1.952  11.933
61648W        W26633   5.077  23.346   4.707
61649W        W26634  31.517  26.821   1.860
61650W        W26635  23.214  17.041   0.828
61651W        W26636  40.975  44.568   2.745
61652W        W26637   0.449  33.193   2.419
61653W        W26638  37.539  19.095  14.565
61654W        W26639  18.464  30.690   0.527
61655W        W26640  33.402  19.425   3.796
61656W        W26641  27.110  27.958   4.928
61657W        W26642  10.027   0.165   1.522
61658W        W26643  34.015  16.021   2.327
61659W        W26644  27.068  32.494   0.377
61660W        W26645  28.255  30.105  13.461
61661W        W26646  26.253  33.078   0.756
61662W        W26647  17.203  26.474   0.252
61663W        W26648  15.799  17.281  11.279
61664W        W26649  34.955  29.912   2.625
61665W        W26650  31.363   1.757  13.055
61666W        W26651  42.482  30.945  12.366
61667W        W26652   4.421  30.768   3.782
61668W        W26653  26.714  10.873  14.069
61669W        W26654   7.249  40.331  13.799
61670W        W26655  39.529  27.138   1.879
61671W        W26656  18.702  37.315   2.234
61672W        W26657  26.156  37.525   2.149
61673W        W26658  16.071  37.958   4.007
61674W        W26659  12.892  23.430  13.491
61675W        W26660  34.499   3.815   2.838
61676W        W26661   8.620   4.307   1.983
61677W        W26662  17.494  37.458   2.402
61678W        W26663  44.331  32.343  13.083
61679W        W26664  43.289  42.960  10.827
61680W        W26665   2.153   3.809  13.129
61681W        W26666  42.490  17.438  11.137
61682W        W26667   4.604  14.112  12.265
61683W        W26668  13.636  41.758   2.493
61684W        W26669   9.452  37.093   0.313
61685W        W26670  12.885  24.063   0.560
61686W        W26671   4.149  20.276  10.989
61687W        W26672  20.668  22.580   1.522
61688W        W26673  34.075  19.347   1.821
61689W        W26674   2.227  17.576  13.943
61690W        W26675  41.924  21.582  12.523
61691W        W26676  22.744  27.596  10.677
61692W        W26677  21.046  17.345  12.832
61693W        W26678  23.276  14.813  11.540
61694W        W26679  36.874  24.163   4.556
61695W        W26680   7.917  28.121  14.647
61696W        W26681   3.451  44.415  11.395
61697W        W26682  21.058   2.418   1.277
61698W        W26683  35.370  13.045   2.751
61699W        W26684   4.238  20.146  11.460
61700W        W26685   6.013  29.078   1.247
61701W        W26686  44.090  28.206  13.448
61702W        W26687   8.704  23.176  13.275
61703W        W26688  30.944  41.581   2.234
61704W        W26689  36.836  31.135   3.112
61705W        W26690  39.788  35.381  12.927
61706W        W26691  24.774  26.156  14.381
61707W        W26692  11.667  13.448   4.942
61708W        W26693   1.995  34.913   2.202
61709W        W26694  41.338  28.076   2.397
61710W        W26695  18.075  30.469  11.438
61711W        W26696  23.248  21.930  11.090
61712W        W26697  38.406   6.711   4.914
61713W        W26698  20.285  35.371   3.524
61714W        W26699  36.331  19.575  11.484
61715W        W26700  13.767  36.964  11.315
61716W        W26701  30.350  16.307  12.112
61717W        W26702  42.094  20.238  12.950
61718W        W26703  43.722   8.839   1.724
61719W        W26704   3.223  39.513   2.159
61720W        W26705  39.935  35.149  12.484
61721W        W26706   4.867  29.122   5.024
61722W        W26707  28.156  40.653  11.909
61723W        W26708  36.911   4.947  14.839
61724W        W26709   0.694  33.630   4.234
61725W        W26710  37.448   8.930   3.262
61726W        W26711  33.506  32.665  12.825
61727W        W26712   0.529  32.987  10.194
61728W        W26713  31.889   8.104   3.146
61729W        W26714  29.020  25.297  12.092
61730W        W26715   8.725   1.531  11.994
61731W        W26716  30.239   8.219  11.623
61732W        W26717  31.435   1.436   1.831
61733W        W26718  44.262   4.206  12.021
61734W        W26719  18.230  39.766  14.516
61735W        W26720  42.280  15.230  14.767
61736W        W26721  21.190  22.897  14.819
61737W        W26722   7.497  43.537   4.709
61738W        W26723  12.605  31.890   3.126
61739W        W26724   2.932   7.291  11.765
61740W        W26725  23.748  25.535   3.274
61741W        W26726  29.136  40.793  10.729
61742W        W26727  16.552  13.989  11.114
61743W        W26728  41.709  42.399  14.414
61744W        W26729   9.911  20.991  12.579
61745W        W26730  33.992  31.054   2.157
61746W        W26731  38.708  33.126  11.016
61747W        W26732  35.375  33.347   2.203
61748W        W26733  43.805   5.560   4.461
61749W        W26734  37.845   1.512   3.661
61750W        W26735  27.602   9.782   2.438
61751W        W26736   0.706  34.414   0.209
61752W        W26737  43.989   9.389   1.408
61753W        W26738  11.193  11.569   3.180
61754W        W26739  41.284  30.358   4.313
61755W        W26740  42.005  33.106   0.196
61756W        W26741  16.567  24.676  14.252
61757W        W26742   8.429   7.267   1.874
61758W        W26743   3.789   4.168  13.037
61759W        W26744  15.682  35.983   0.933
61760W        W26745  41.079  31.630   2.335
61761W        W26746  29.039  39.584  11.930
61762W        W26747  20.320  33.596  13.917
61763W        W26748  32.604  20.680   2.000
61764W        W26749  14.076  38.235  11.612
61765W        W26750  12.752  16.084  10.710
61766W        W26751  15.636  22.760   1.259
61767W        W26752  19.141   6.776  11.701
61768W        W26753  25.766  33.142   4.508
61769W        W26754  10.897  27.516  12.107
61770W        W26755  36.126   0.874   1.215
61771W        W26756  14.490  27.443  14.923
61772W        W26757  42.366   4.644  12.074
61773W        W26758  39.361  15.099  13.128
61774W        W26759  43.875   9.384  13.366
61775W        W26760  26.804  33.660  13.595
61776W        W26761  26.489  36.375  13.617
61777W        W26762  13.586  43.597  11.113
61778W        W26763  37.383  29.635  11.592
61779W        W26764  41.055  10.736  13.610
61780W        W26765  31.157  18.293   2.170
61781W        W26766  34.762  16.164  14.247
61782W        W26767   6.201  26.102   4.159
61783W        W26768   6.646  33.558   1.150
61784W        W26769   8.590  32.481   2.321
61785W        W26770  27.943  39.582   1.124
61786W        W26771   2.837   2.910  10.888
61787W        W26772  18.978  33.961  11.963
61788W        W26773  17.874  42.548  13.551
61789W        W26774  36.194  33.941  13.011
61790W        W26775  36.575  37.395  13.147
61791W        W26776  38.243  11.374   0.428
61792W        W26777  39.118   8.294  13.872
61793W        W26778  30.092  13.850  11.511
61794W        W26779  39.811  14.646  12.668
61795W        W26780  41.049   8.685  12.227
61796W        W26781  22.683  38.838  12.966
61797W        W26782  27.659  32.142   0.963
61798W        W26783  19.752  15.819   3.622
61799W        W26784  37.439   9.248  10.549
61800W        W26785  38.266  41.840  10.691
61801W        W26786   0.774  27.637   1.867
61802W        W26787  38.105   6.835  10.639
61803W        W26788  24.528  31.116   2.803
61804W        W26789   6.845   5.925  13.486
61805W        W26790  20.556  22.773  14.419
61806W        W26791   7.764  13.775   1.496
61807W        W26792  40.557  26.129   3.302
61808W        W26793  19.269  15.136   4.608
61809W        W26794  37.375  40.447   4.609
61810W        W26795  17.659  26.608  13.575
61811W        W26796  17.210  25.634  14.776
61812W        W26797   9.981  31.447  14.246
61813W        W26798  13.790  10.604   3.822
61814W        W26799  38.681  23.536  10.745
61815W        W26800  22.433  37.237  14.532
61816W        W26801  18.169  29.557  12.646
61817W        W26802  26.632  35.602   0.288
61818W        W26803  28.372   9.007   3.472
61819W        W26804  26.873   0.041   0.346
61820W        W26805  29.031  28.144  11.515
61821W        W26806  26.171  29.684   2.169
61822W        W26807  25.594  26.764  13.796
61823W        W26808  31.374  14.081  14.307
61824W        W26809  37.426   7.856   4.194
61825W        W26810  35.818  16.288   4.328
61826W        W26811  40.288  33.538   0.816
61827W        W26812   1.861  11.181   1.379
61828W        W26813  33.038  13.181  11.157
61829W        W26814  22.344  27.153   4.610
61830W        W26815  30.878  29.031   1.201
61831W        W26816  20.838   7.770  11.253
61832W        W26817   0.017  13.197  13.900
61833W        W26818  38.078  10.555  11.603
61834W        W26819   7.966  43.072  11.096
61835W        W26820  22.625   3.179   1.259
61836W        W26821  32.490   8.618   0.843
61837W        W26822   9.483   7.197   0.816
61838W        W26823   1.180  31.211  13.980
61839W        W26824  37.308   7.899   9.981
61840W        W26825  32.398  20.804   2.900
61841W        W26826  37.472  20.746  11.930
61842W        W26827  25.615  40.303  10.361
61843W        W26828  30.225   7.314   0.905
61844W        W26829  11.724  39.948   1.460
61845W        W26830   5.176  22.910  13.671
61846W        W26831  26.299  25.793   4.647
61847W        W26832  15.745  24.672  14.809
61848W        W26833   3.996  19.622  14.562
61849W        W26834  11.867  29.048   4.729
61850W        W26835  29.320  21.790  13.975
61851W        W26836  15.391  22.112  13.910
61852W        W26837  13.803  42.292   2.461
61853W        W26838  35.962  33.212   0.085
61854W        W26839  27.204   4.392   4.635
61855W        W26840  11.688  23.759  14.376
61856W        W26841  27.575  33.823  11.251
61857W        W26842  38.405   4.367  13.235
61858W        W26843   2.733  18.199   4.537
61859W        W26844  28.369  19.758  10.717
61860W        W26845  34.769  25.532  13.083
61861W        W26846  39.248  19.757   4.796
61862W        W26847  44.057  32.874  11.700
61863W        W26848  16.593  23.778   2.690
61864W        W26849   0.964  36.051   3.635
61865W        W26850  31.650  21.700   0.505
61866W        W26851   7.314  20.354  13.109
61867W        W26852  32.175  34.395  11.047
61868W        W26853  33.185   6.882  12.513
61869W        W26854  34.119   8.804   0.239
61870W        W26855   6.196   3.985  11.561
61871W        W26856  40.062   3.112   4.519
61872W        W26857  13.720   9.880  12.549
61873W        W26858  15.378  35.725   0.608
61874W        W26859   5.887  44.173   0.335
61875W        W26860  22.192   2.745  13.537
61876W        W26861  18.255  44.764  12.973
61877W        W26862  23.437   3.718   2.693
61878W        W26863  38.488  28.428   4.081
61879W        W26864   3.298  36.895   2.990
61880W        W26865  33.970   3.417  14.086
61881W        W26866   3.878  26.742  13.854
61882W        W26867  43.968  44.394  13.287
61883W        W26868  43.939  17.533   1.358
61884W        W26869  22.730  25.525   4.184
61885W        W26870   5.014  41.096   3.873
61886W        W26871   8.804  21.728   0.633
61887W        W26872  41.588  23.504   3.146
61888W        W26873  19.480  36.125   0.805
61889W        W26874   6.301  24.138  10.946
61890W        W26875  37.512   3.159   5.042
61891W        W26876  40.394  29.640   2.862
61892W        W26877  44.590  21.602  13.393
61893W        W26878  39.748  37.073   2.390
61894W        W26879  20.724  37.600  10.228
61895W        W26880  20.648   3.519  10.677
61896W        W26881  21.690  20.351  14.795
61897W        W26882  14.271   1.886  13.258
61898W        W26883  41.794  40.559   1.218
61899W        W26884  15.195  22.294  14.366
61900W        W26885  17.708  33.441  12.025
61901W        W26886  17.670  20.607  13.889
61902W        W26887  38.900   0.704   0.245
61903W        W26888  34.032  38.777   4.557
61904W        W26889  39.375  19.027  13.600
61905W        W26890  12.747  31.450   3.817
61906W        W26891   2.188  31.793  10.410
61907W        W26892  23.719  26.555  13.033
61908W        W26893  27.170  39.871  10.361
61909W        W26894  22.429  36.285  13.014
61910W        W26895  44.807   9.558   0.955
61911W        W26896   6.412  12.552  10.771
61912W        W26897   6.993  34.870   2.205
61913W        W26898  16.246  16.141  12.013
61914W        W26899  21.358  28.858  12.011
61915W        W26900  25.057  40.476   1.319
61916W        W26901   5.890  25.330   3.129
61917W        W26902  27.168  18.707   1.240
61918W        W26903  12.558  42.964   1.391
61919W        W26904  19.076  36.833  13.562
61920W        W26905   6.884  13.101   1.148
61921W        W26906   1.553  33.201  12.462
61922W        W26907  19.079  27.162   3.424
61923W        W26908  14.791   2.799  11.134
61924W        W26909  30.339  32.910  11.561
61925W        W26910   3.858  32.747  11.161
61926W        W26911  11.423  12.061   1.369
61927W        W26912  17.066  17.681  13.535
61928W        W26913   5.212  27.555  10.662
61929W        W26914  16.228  29.754  12.082
61930W        W26915  34.367  16.840  12.250
61931W        W26916  23.770  36.004  10.445
61932W        W26917  44.429   0.887  12.950
61933W        W26918  17.742  23.171  14.405
61934W        W26919   7.356  32.454   1.814
61935W        W26920   4.509  35.053  14.749
61936W        W26921   3.334  20.118  11.586
61937W        W26922  13.831  10.191   4.147
61938W        W26923  17.379  20.502  14.886
61939W        W26924  31.068   8.284   5.024
61940W        W26925  32.515  26.163   1.350
61941W        W26926  29.322  27.946  12.811
61942W        W26927  37.965   1.039   1.290
61943W        W26928  30.621  35.532  11.480
61944W        W26929  34.319  33.551   3.580
61945W        W26930  14.234   3.067   4.510
61946W        W26931  31.642  11.935   3.240
61947W        W26932  14.457   5.550   9.881
61948W        W26933   9.108  21.813  12.385
61949W        W26934  12.278   0.867  12.039
61950W        W26935  31.386  11.866  10.683
61951W        W26936   5.736  43.182  14.989
61952W        W26937  25.570  29.385   4.554
61953W        W26938  40.848  23.115  11.932
61954W        W26939  38.810  44.875  11.609
61955W        W26940  37.957  43.105   2.906
61956W        W26941  32.897  26.067  14.454
61957W        W26942  16.152  42.338  14.038
61958W        W26943   7.638  18.584  12.022
61959W        W26944  40.842  26.072   1.286
61960W        W26945  15.350  44.085  14.937
61961W        W26946  20.260   1.735   3.883
61962W        W26947  17.315  17.422  14.501
61963W        W26948   0.774   4.110   1.710
61964W        W26949  22.629  12.650   2.207
61965W        W26950  12.173  11.781   9.997
61966W        W26951  20.673  42.591  12.128
61967W        W26952   1.893   2.747  10.934
61968W        W26953  20.591  31.531   0.557
61969W        W26954  35.032  33.139  12.980
61970W        W26955   2.388  36.505  11.919
61971W        W26956   3.903  19.551   1.504
61972W        W26957  19.061   6.124  11.104
61973W        W26958  19.336   5.221   3.302
61974W        W26959  31.332   5.449   0.513
61975W        W26960  13.929  30.916  12.574
61976W        W26961  18.269   3.853  13.372
61977W        W26962  24.956  13.344  12.998
61978W        W26963  21.869  22.565  11.216
61979W        W26964  26.622  25.935  14.075
61980W        W26965  17.746  11.192   2.301
61981W        W26966   8.219  20.055  14.298
61982W        W26967   9.161   1.274   1.839
61983W        W26968  26.020  15.780  12.024
61984W        W26969  14.058  18.060  13.413
61985W        W26970  19.229  44.716   4.598
61986W        W26971  15.761   1.944  14.016
61987W        W26972  33.122  32.006   1.732
61988W        W26973   1.931  33.938   4.060
61989W        W26974  21.655  24.168   4.667
61990W        W26975  33.296  17.494   4.154
61991W        W26976   2.075   7.180  11.519
61992W        W26977  34.515  35.626   3.632
61993W        W26978  29.678  36.059  13.875
61994W        W26979  22.483  21.500  14.988
61995W        W26980  13.382  35.500  13.474
61996W        W26981   1.317  37.100   0.284
61997W        W26982  26.954  10.459  12.304
61998W        W26983  40.042  31.008  13.755
61999W        W26984  12.844  41.902   1.500
62000W        W26985  37.404   0.708  14.901
62001W        W26986  29.216  25.119  14.313
62002W        W26987  33.418   2.135  14.490
62003W        W26988  43.684   8.660  11.521
62004W        W26989  44.033   8.861   1.313
62005W        W26990  32.088  19.543  11.141
62006W        W26991  21.029  36.310   2.342
62007W        W26992  36.017  44.513  14.715
62008W        W26993  16.115   9.269  12.415
62009W        W26994  33.130  19.729   4.117
62010W        W26995  37.634  25.260   1.246
62011W        W26996  26.569  29.382   5.169
62012W        W26997   5.718  38.070  13.345
62013W        W26998  38.890  35.378   3.314
62014W        W26999  12.365  25.936   2.579
62015W        W27000  35.851  39.625   4.129
62016W        W27001  19.254  26.633   1.620
62017W        W27002  29.617   9.089  11.475
62018W        W27003  19.276   7.590  12.578
62019W        W27004  41.451  21.336  12.458
62020W        W27005   5.384  27.559  11.697
62021W        W27006  19.684  26.611   1.939
62022W        W27007  28.462  30.374  14.834
62023W        W27008  25.193  34.418  14.326
62024W        W27009  31.459  25.154   3.852
62025W        W27010  26.489  39.954  14.839
62026W        W27011  37.319  28.152   1.408
62027W        W27012   1.510  18.340   3.229
62028W        W27013  14.386  18.948  12.973
62029W        W27014  24.028  13.489   0.670
62030W        W27015  31.808  31.918   1.310
62031W        W27016  42.991  20.253  12.948
62032W        W27017  17.663  12.355  14.324
62033W        W27018  43.825  32.473   2.295
62034W        W27019   4.376  29.799  10.600
62035W        W27020  35.569   3.736   1.993
62036W        W27021  44.448   2.431   4.988
62037W        W27022   7.346  27.439   0.714
62038W        W27023   3.390  20.721  12.932
62039W        W27024   3.775   6.650  14.341
62040W        W27025  44.883  27.714   1.219
62041W        W27026  41.005  37.924   3.340
62042W        W27027   7.981  41.410  10.302
62043W        W27028  22.272  36.883  14.877
62044W        W27029  34.539  15.023   1.177
62045W        W27030   2.249  19.971  12.109
62046W        W27031  38.821  43.195  11.478
62047W        W27032  11.923  20.508   1.858
62048W        W27033  44.080   8.969  11.722
62049W        W27034  33.223  19.954   1.120
62050W        W27035  23.578  32.356  12.981
62051W        W27036  31.818  44.340   0.341
62052W        W27037  41.066  24.648  14.986
62053W        W27038  27.693  11.771  11.120
62054W        W27039   1.291   5.446   3.086
62055W        W27040  30.895  24.266   3.600
62056W        W27041  16.013  16.864   1.749
62057W        W27042  14.782   2.772   2.765
62058W        W27043  33.484  20.966  14.073
62059W        W27044  44.297  28.257  14.012
62060W        W27045  20.286  44.816  12.991
62061W        W27046  36.978   0.416  12.037
62062W        W27047  32.011   8.226  14.070
62063W        W27048  12.639  36.962  12.103
62064W        W27049  15.733  19.726   4.873
62065W        W27050  23.341   4.309  12.053
62066W        W27051  31.509   1.886  11.948
62067W        W27052  11.877  26.553   1.540
62068W        W27053   5.939  17.655   4.165
62069W        W27054  30.464  11.079   4.671
62070W        W27055  22.547  44.058   0.488
62071W        W27056  31.016  23.743   4.270
62072W        W27057  23.635   2.400   3.015
62073W        W27058   1.828  12.288   3.139
62074W        W27059  11.710  16.079   1.316
62075W        W27060   9.346  29.917   2.885
62076W        W27061  28.352  30.574  12.230
62077W        W27062  19.734   2.058   0.343
62078W        W27063  27.236  34.123  10.550
62079W        W27064  32.599  36.016  11.995
62080W        W27065   3.935  42.419   1.308
62081W        W27066   0.293  16.952   0.737
62082W        W27067   7.638  36.298   1.509
62083W        W27068   4.769   1.323  12.597
62084W        W27069  42.881  42.897   0.361
62085W        W27070   4.360   2.255  12.501
62086W        W27071  30.424   0.706  11.888
62087W        W27072  15.175  27.535   2.834
62088W        W27073  11.063  20.543   1.446
62089W        W27074  29.583   7.250  12.938
62090W        W27075  42.738   8.345  11.692
62091W        W27076   4.075  27.008  10.002
62092W        W27077  29.247  23.074   4.602
62093W        W27078  33.564  20.116  11.188
62094W        W27079  11.896  41.996  14.512
62095W        W27080  36.158  11.954   2.208
62096W        W27081   4.789  24.913  12.558
62097W        W27082   1.247   0.384   3.943
62098W        W27083   6.917  17.732   4.190
62099W        W27084  10.157   9.718  12.964
62100W        W27085   2.679  24.972  14.273
62101W        W27086  33.534  31.537  14.530
62102W        W27087  37.752   7.854   4.987
62103W        W27088  17.526  37.921   2.745
62104W        W27089  40.846  22.470  12.613
62105W        W27090  27.266   2.943   4.953
62106W        W27091  14.842  35.041  13.716
62107W        W27092  16.786  35.330   1.213
62108W        W27093  19.967  10.415  13.448
62109W        W27094  12.568  13.297   4.137
62110W        W27095  40.304   3.477   3.164
62111W        W27096  10.730  33.836   3.768
62112W        W27097  10.258  39.402   1.359
62113W        W27098  16.544  10.363   4.123
62114W        W27099  37.322  24.497  11.063
62115W        W27100   4.981  31.160  11.062
62116W        W27101  29.380   0.781  13.945
62117W        W27102  41.331  42.430   0.432
62118W        W27103  44.792  41.388   0.960
62119W        W27104  31.147   4.556   4.770
62120W        W27105  35.595  12.018   3.692
62121W        W27106  24.453  21.739   1.384
62122W        W27107  32.478   0.293   4.100
62123W        W27108  32.848  25.176   1.473
62124W        W27109   0.787  11.712   4.869
62125W        W27110  27.594  10.636   4.713
62126W        W27111   1.161  10.622  13.327
62127W        W27112  35.670  35.506   1.355
62128W        W27113  10.723   4.140   5.751
62129W        W27114  42.525   2.312  14.441
62130W        W27115   9.402  11.317   2.907
62131W        W27116  19.872  22.751  11.152
62132W        W27117   1.225   1.577  13.851
62133W        W27118  16.990  27.617  14.771
62134W        W27119  30.741  15.922  13.221
62135W        W27120  14.006  17.107   3.535
62136W        W27121   2.991   1.763  14.983
62137W        W27122  10.768  27.428  13.099
62138W        W27123   0.807  10.779  11.513
62139W        W27124  28.546  44.194   3.628
62140W        W27125  15.060  38.005  13.557
62141W        W27126  12.766  37.860  12.409
62142W        W27127   9.282  33.402  14.932
62143W        W27128   1.455  32.931  13.343
62144W        W27129  33.133  29.983   3.700
62145W        W27130  39.105   5.026  14.383
62146W        W27131   9.394  14.128   4.039
62147W        W27132  16.864  29.053  14.835
62148W        W27133  17.593  37.360  12.149
62149W        W27134  16.536  10.642  14.754
62150W        W27135  39.234   3.242  14.557
62151W        W27136  39.539  12.041  12.936
62152W        W27137  19.463  37.655   0.905
62153W        W27138  13.650  41.286   2.716
62154W        W27139  26.701  23.785  11.995
62155W        W27140  32.088   9.637   1.410
62156W        W27141  22.763  38.310  14.032
62157W        W27142   9.895  11.236  11.048
62158W        W27143  39.598   0.491   0.785
62159W        W27144  37.398  11.167  13.705
62160W        W27145  37.163  15.388   5.037
62161W        W27146  34.282   0.887   3.219
62162W        W27147  21.515  16.206  12.061
62163W        W27148  15.542  16.267  10.756
62164W        W27149  38.270  32.652   2.250
62165W        W27150   3.054   5.879  13.044
62166W        W27151  30.874  28.286   1.109
62167W        W27152   1.032  28.938   1.396
62168W        W27153  25.011  32.462   0.425
62169W        W27154  44.278  35.891  11.969
62170W        W27155  41.200  26.402  10.706
62171W        W27156  14.915  42.578   3.320
62172W        W27157  16.022  14.258   4.288
62173W        W27158  42.296   5.933  12.767
62174W        W27159  40.962  27.759   4.629
62175W        W27160  17.882  32.090  12.404
62176W        W27161  16.991   2.285  14.448
62177W        W27162   1.252   9.749   1.277
62178W        W27163  37.831   9.926   2.465
62179W        W27164  24.954  25.734   4.281
62180W        W27165  29.938   1.545  10.183
62181W        W27166  29.301   2.505   1.269
62182W        W27167  12.194  30.665  13.741
62183W        W27168  12.280  20.105  11.625
62184W        W27169  24.446  39.481   3.707
62185W        W27170  12.150  35.836   1.220
62186W        W27171  30.972  36.534   1.312
62187W        W27172   6.710  36.555   2.784
62188W        W27173  43.962  29.542  14.299
62189W        W27174  25.817   6.702   5.304
62190W        W27175  29.952  43.439   0.886
62191W        W27176  29.279  30.477   3.645
62192W        W27177  18.205  20.775   2.613
62193W        W27178  44.326   7.238   3.553
62194W        W27179   1.478  33.016  10.670
62195W        W27180  21.819   7.234   4.171
62196W        W27181  25.110  18.004  14.717
62197W        W27182  23.827  17.186  11.552
62198W        W27183  24.690   3.337   0.280
62199W        W27184  28.567  25.613   2.097
62200W        W27185  10.551  43.441  14.758
62201W        W27186  34.541  22.937  13.849
62202W        W27187   6.791  28.529   5.087
62203W        W27188  20.206  23.804  12.983
62204W        W27189  32.816   2.209  13.833
62205W        W27190  24.505   8.615  13.349
62206W        W27191  28.424  12.208  13.345
62207W        W27192  25.040   5.252   0.909
62208W        W27193  25.677   7.418   0.877
62209W        W27194  27.175  21.565  12.902
62210W        W27195  27.595  40.762  12.494
62211W        W27196  23.252  27.903  11.671
62212W        W27197  16.787  42.548  10.400
62213W        W27198  36.641  22.261   2.293
62214W        W27199  17.171  34.788   0.983
62215W        W27200  31.363  24.733   4.719
62216W        W27201  19.549   9.317  11.278
62217W        W27202  33.365  10.489  12.961
62218W        W27203  44.511  37.369  10.615
62219W        W27204   3.030  19.120  12.808
62220W        W27205  26.971  22.938  14.354
62221W        W27206  31.021   3.151  13.059
62222W        W27207  41.055  28.827  13.951
62223W        W27208  28.387  23.643   3.649
62224W        W27209  32.598   0.867   3.263
62225W        W27210  32.715  13.800   4.168
62226W        W27211  30.214   7.815   1.342
62227W        W27212   2.424  36.013   3.266
62228W        W27213  26.980  10.938  14.520
62229W        W27214   8.547  34.819   2.452
62230W        W27215  44.045  43.852  11.120
62231W        W27216  22.912   2.187  14.862
62232W        W27217  25.895  15.794   0.272
62233W        W27218  11.576  41.584   5.098
62234W        W27219  39.265  43.867  12.539
62235W        W27220  29.748  43.477   1.364
62236W        W27221  33.453   8.868   2.566
62237W        W27222  39.369  22.932   1.951
62238W        W27223  43.392  37.778   2.897
62239W        W27224  44.666   4.340  13.525
62240W        W27225   3.718  41.929   1.270
62241W        W27226  32.895  32.503   1.786
62242W        W27227  22.323   4.958   5.083
62243W        W27228  23.863  21.553   0.394
62244W        W27229   1.813  19.941   2.128
62245W        W27230  17.192   4.233  14.270
62246W        W27231  44.099  10.894   3.012
62247W        W27232  33.767  23.646  11.541
62248W        W27233  20.739  10.241   4.693
62249W        W27234   7.397   9.751  10.471
62250W        W27235  36.773  28.609   2.680
62251W        W27236  23.220   3.803  14.884
62252W        W27237  24.628   3.680  14.466
62253W        W27238  26.976  12.954   1.363
62254W        W27239  29.413  35.395  13.274
62255W        W27240   8.402  31.466  14.429
62256W        W27241  18.574  31.239  10.566
62257W        W27242  22.246  33.627  11.594
62258W        W27243  43.012  15.213   3.065
62259W        W27244   8.330  30.678   1.688
62260W        W27245  20.707  25.733  10.643
62261W        W27246  41.482  13.806  11.723
62262W        W27247   4.706  27.010   3.705
62263W        W27248  31.475   2.957  12.859
62264W        W27249  17.082  32.898   2.437
62265W        W27250  39.454  10.584  13.680
62266W        W27251  22.408  43.214  12.061
62267W        W27252  40.601  27.902   1.979
62268W        W27253   0.994  12.792   4.587
62269W        W27254   6.954   8.032  13.865
62270W        W27255  30.637  24.526  12.511
62271W        W27256  20.510   1.894   0.850
62272W        W27257  28.498  28.906   4.641
62273W        W27258  24.842  28.933  12.282
62274W        W27259  20.664  10.748  11.106
62275W        W27260  11.899  32.824   3.841
62276W        W27261  14.976  15.397   1.040
62277W        W27262  43.686  29.683   2.414
62278W        W27263  23.037  25.537   4.595
62279W        W27264  37.221  17.135  10.870
62280W        W27265  10.302  12.284  12.474
62281W        W27266  30.048  25.171  11.963
62282W        W27267   4.220  13.882   1.757
62283W        W27268  40.581  39.270   3.753
62284W        W27269  42.967  38.101  14.292
62285W        W27270  29.429   1.483   5.039
62286W        W27271  31.281  18.244  10.988
62287W        W27272  30.487  32.436   0.759
62288W        W27273  43.721  24.059  12.431
62289W        W27274  36.321   5.858   1.864
62290W        W27275   1.477  21.664   0.813
62291W        W27276   9.113  37.608  11.522
62292W        W27277  34.848   0.615  12.385
62293W        W27278  28.185  37.438  11.658
62294W        W27279  38.683  39.607  13.342
62295W        W27280  35.058  39.446  14.507
62296W        W27281  38.443   5.623   2.352
62297W        W27282  39.076   2.659  10.312
62298W        W27283  40.867   8.938   2.312
62299W        W27284  10.817   3.451  11.022
62300W        W27285  43.967  27.162   9.937
62301W        W27286  34.574  26.899  11.068
62302W        W27287  10.091  28.892   1.729
62303W        W27288   0.378  16.443   0.871
62304W        W27289  14.736  44.723   2.064
62305W        W27290  28.556   7.248  11.248
62306W        W27291   8.079  27.884   2.711
62307W        W27292  10.319  17.877  13.488
62308W        W27293  20.026  27.437  10.841
62309W        W27294  36.611   3.388   4.952
62310W        W27295  20.511  34.397  12.404
62311W        W27296  24.166  33.898  13.578
62312W        W27297  41.770  23.088   0.050
62313W        W27298  43.905  15.326   2.560
62314W        W27299  15.305  26.288  13.341
62315W        W27300  41.463  37.501   4.968
62316W        W27301  15.842  26.918  11.182
62317W        W27302  35.796  36.163   3.525
62318W        W27303  35.680  18.261   0.950
62319W        W27304  27.578  17.053  14.037
62320W        W27305  32.859  42.263  12.212
62321W        W27306  19.864  11.455  13.414
62322W        W27307  19.986  10.370  12.051
62323W        W27308  31.295  12.639  14.783
62324W        W27309   0.787  33.528   3.740
62325W        W27310  39.305   7.650   0.078
62326W        W27311  27.594  31.130   3.052
62327W        W27312   6.153  18.265  12.534
62328W        W27313  34.863  28.925  13.949
62329W        W27314  15.208  10.694   3.851
62330W        W27315  29.720  21.749  14.914
62331W        W27316  30.151  42.018   3.219
62332W        W27317   9.836  25.712  14.156
62333W        W27318  22.954   5.765  12.186
62334W        W27319  41.781   5.990  14.833
62335W        W27320  16.828   8.679   1.770
62336W        W27321   8.218  32.907   0.667
62337W        W27322  38.827  14.331   0.757
62338W        W27323   4.848  25.820   0.447
62339W        W27324  23.495   2.940   4.193
62340W        W27325  26.227  24.817  12.026
62341W        W27326  42.543  23.313  14.135
62342W        W27327   1.012  35.989  11.430
62343W        W27328  17.286  27.087   1.881
62344W        W27329  44.767   6.397   1.821
62345W        W27330   6.250  31.066  11.609
62346W        W27331  13.634  25.732  10.295
62347W        W27332  11.837  44.502  14.447
62348W        W27333  28.106   1.281   3.158
62349W        W27334   0.178  24.245  12.466
62350W        W27335  30.692  30.688   3.258
62351W        W27336  38.034   8.790  12.138
62352W        W27337  18.820  18.006  13.844
62353W        W27338  28.403  28.420   1.683
62354W        W27339  36.921  30.145  13.818
62355W        W27340   7.358  28.602  13.495
62356W        W27341  13.785   6.631   1.728
62357W        W27342  34.525  31.051   2.915
62358W        W27343  12.133  43.509  13.058
62359W        W27344  10.438   1.273  10.655
62360W        W27345  13.362  36.611   2.265
62361W        W27346  12.321  13.227   0.321
62362W        W27347  36.549  43.725   3.701
62363W        W27348  22.985  43.739  12.504
62364W        W27349  26.193   2.379  13.354
62365W        W27350   1.376  18.050   1.650
62366W        W27351  16.016  20.740  13.810
62367W        W27352  10.755  44.724  14.102
62368W        W27353  22.179  44.729   4.137
62369W        W27354  34.118  20.835   0.316
62370W        W27355  39.251   9.754   4.347
62371W        W27356  24.056  19.592  14.151
62372W        W27357  20.803   7.527   9.880
62373W        W27358  39.428  12.720   0.272
62374W        W27359  34.092  13.911   1.981
62375W        W27360   3.954   1.476   4.906
62376W        W27361  34.583   0.615  11.943
62377W        W27362  34.397  18.832   4.154
62378W        W27363   1.706  38.788  14.954
62379W        W27364  14.627  10.242   0.986
62380W        W27365  37.937   1.781  12.107
62381W        W27366  20.300  42.965  11.431
62382W        W27367   0.289   8.724   0.410
62383W        W27368  30.894  26.943   0.513
62384W        W27369  29.863   4.329  12.638
62385W        W27370  15.142  15.404  11.121
62386W        W27371  34.639  31.655  12.535
62387W        W27372  23.091   2.559   3.596
62388W        W27373  32.806  32.707   0.963
62389W        W27374  19.684  35.802  10.839
62390W        W27375  27.490  21.056   0.395
62391W        W27376  28.216  17.572  13.814
62392W        W27377  31.260  21.178  14.268
62393W        W27378   4.728  15.669   2.552
62394W        W27379  43.373  14.822   0.194
62395W        W27380  23.191  10.622  11.551
62396W        W27381   7.284  31.135  11.614
62397W        W27382  22.257  13.229   4.148
62398W        W27383  18.034  15.795  13.989
62399W        W27384  43.418  41.674   0.871
62400W        W27385  28.183  16.248   0.864
62401W        W27386  41.809  20.265  12.085
62402W        W27387   7.489  44.270   2.516
62403W        W27388  17.889   8.833   3.632
62404W        W27389  16.415  24.259  11.391
62405W        W27390  12.121  21.487  10.570
62406W        W27391  25.995   8.390   0.947
62407W        W27392   8.382   1.498   2.840
62408W        W27393  21.127  10.918   1.063
62409W        W27394  24.238  29.922   2.778
62410W        W27395  27.572   9.663   3.819
62411W        W27396  28.361  18.280  13.426
62412W        W27397  12.510   8.628   4.022
62413W        W27398  22.656  38.644   2.910
62414W        W27399  28.857  40.493  11.519
62415W        W27400  41.904  43.948   3.318
62416W        W27401  44.556   2.276   1.305
62417W        W27402  34.351  27.609  11.691
62418W        W27403  40.217  29.508   0.388
62419W        W27404  21.548  21.649  11.217
62420W        W27405  22.777  15.025  14.838
62421W        W27406  40.840  37.471   3.550
62422W        W27407  41.011   2.220  14.898
62423W        W27408  24.103   5.939   2.325
62424W        W27409  27.994  26.421  12.031
62425W        W27410  33.750  25.100  12.109
62426W        W27411  42.251   6.342   2.625
62427W        W27412  10.113   3.256  14.907
62428W        W27413  27.784  35.000   5.150
62429W        W27414   1.374  16.768  12.910
62430W        W27415  31.907  20.803  12.915
62431W        W27416  17.585  20.653  14.415
62432W        W27417  12.857  41.073   1.789
62433W        W27418  21.351  44.828  10.685
62434W        W27419  25.573  25.755  14.029
62435W        W27420  17.584  36.029   2.441
62436W        W27421  25.987  23.268  13.046
62437W        W27422   1.483  27.998   4.024
62438W        W27423  38.132  25.629  12.359
62439W        W27424  28.179  40.290   2.876
62440W        W27425  42.272  36.067  13.522
62441W        W27426  42.428  17.073   4.227
62442W        W27427  31.000  32.548  10.671
62443W        W27428  19.675  41.161   2.608
62444W        W27429   9.129   8.027   1.740
62445W        W27430  22.639  10.815   4.383
62446W        W27431   4.722  35.096   1.626
62447W        W27432  14.674  28.362  13.480
62448W        W27433   7.383  10.678  14.258
62449W        W27434   7.299   3.809  13.989
62450W        W27435  10.912   4.025  10.080
62451W        W27436   4.644  34.697  11.075
62452W        W27437  20.141  17.604   5.385
62453W        W27438  13.236  36.022  14.209
62454W        W27439  17.995  27.534   2.369
62455W        W27440  21.063  11.719  11.244
62456W        W27441  32.185  37.720   3.111
62457W        W27442   6.506   6.409   0.723
62458W        W27443  43.040  24.853  11.962
62459W        W27444  34.049  23.305  12.430
62460W        W27445  25.430  11.482   1.205
62461W        W27446  44.874  41.873   1.646
62462W        W27447   0.357   1.175   4.584
62463W        W27448  44.206   5.839  12.404
62464W        W27449  35.711  31.007   1.867
62465W        W27450   0.926   3.457   3.166
62466W        W27451  23.127  41.767  13.421
62467W        W27452  41.023   1.385   3.435
62468W        W27453  24.585  36.284   2.750
62469W        W27454  10.588   0.264  12.762
62470W        W27455   6.692  44.856   0.839
62471W        W27456  41.033  35.615  14.328
62472W        W27457  24.741  28.881  11.363
62473W        W27458  19.140  13.936   0.542
62474W        W27459  31.111  42.237  12.661
62475W        W27460  16.127  24.730   2.275
62476W        W27461  16.921  35.980  11.869
62477W        W27462   3.435  41.021   2.216
62478W        W27463   7.579  22.707  13.877
62479W        W27464  29.940  42.025   2.278
62480W        W27465  26.748  29.348   1.343
62481W        W27466  34.923  24.447  11.688
62482W        W27467  20.594  17.883   1.497
62483W        W27468  13.984  35.040  12.666
62484W        W27469  10.630  36.603   2.846
62485W        W27470  26.204  43.525  10.774
62486W        W27471  16.608  44.073  13.116
62487W        W27472  43.906  36.131  12.264
62488W        W27473  34.017  43.869   4.604
62489W        W27474  36.651   3.944  13.403
62490W        W27475  29.552  17.426   4.196
62491W        W27476   0.463  16.818  11.632
62492W        W27477  30.681  14.155   3.779
62493W        W27478  35.580   0.862   2.827
62494W        W27479  10.265  14.045  13.226
62495W        W27480  20.740  14.128   2.888
62496W        W27481   1.348  21.794  14.873
62497W        W27482  16.270  40.381   2.645
62498W        W27483  37.938   4.377   1.369
62499W        W27484  36.359  40.895   3.850
62500W        W27485  29.088  39.812   4.491
62501W        W27486  13.237  19.269  13.406
62502W        W27487  22.137  29.392  10.578
62503W        W27488   0.683  24.553   3.660
62504W        W27489  34.100  32.597  14.559
62505W        W27490  25.985   9.715   4.587
62506W        W27491  28.227  12.984  14.991
62507W        W27492  32.396   7.730   3.260
62508W        W27493  31.356   8.451   1.776
62509W        W27494  42.522  15.236   2.205
62510W        W27495  16.604  26.661  12.512
62511W        W27496  44.521  28.567  10.965
62512W        W27497  28.961   1.700   2.294
62513W        W27498  19.786   4.146  12.509
62514W        W27499  30.197  12.328   0.524
62515W        W27500  15.399  10.654  12.563
62516W        W27501  11.134  16.144   0.702
62517W        W27502  13.623  44.157  14.637
62518W        W27503  38.784  42.834   2.203
62519W        W27504  33.886  23.492  12.947
62520W        W27505  28.859   8.830  10.983
62521W        W27506   8.034  44.356   1.840
62522W        W27507   9.529   1.182   3.979
62523W        W27508  34.182  26.911  11.418
62524W        W27509  43.226  12.542   4.623
62525W        W27510  11.525  12.223  14.138
62526W        W27511   8.625   5.062  11.642
62527W        W27512   6.512  36.931  13.562
62528W        W27513  13.101  10.301   3.195
62529W        W27514   2.802  15.120   2.281
62530W        W27515  40.341  37.949   0.974
62531W        W27516  43.390  11.056  11.657
62532W        W27517  28.447  20.699   3.056
62533W        W27518  40.602  30.038  12.568
62534W        W27519  26.033   6.827   3.080
62535W        W27520  21.134  28.484   1.657
62536W        W27521  22.115  10.232  10.719
62537W        W27522  36.281  19.549  14.240
62538W        W27523  35.653  13.286  14.733
62539W        W27524  37.235  17.658  14.594
62540W        W27525  10.872   2.261  14.416
62541W        W27526  13.098  44.444   2.647
62542W        W27527   6.905  16.097  14.828
62543W        W27528  30.071   1.542   0.959
62544W        W27529  17.662  29.384   0.259
62545W        W27530   9.637  21.468  13.781
62546W        W27531  27.499   5.445  11.431
62547W        W27532  25.457  33.454  14.400
62548W        W27533   1.936  40.477  14.765
62549W        W27534  31.109  26.508   1.856
62550W        W27535  35.608  25.694   0.774
62551W        W27536  35.896  41.035   2.127
62552W        W27537  39.086   4.824   1.340
62553W        W27538   8.352   3.412   2.010
62554W        W27539  42.864   7.218  13.113
62555W        W27540  43.638  10.843   2.769
62556W        W27541  34.142  28.056  12.042
62557W        W27542  33.488   7.220   4.954
62558W        W27543  13.419  22.073   3.322
62559W        W27544  21.822  41.532   2.337
62560W        W27545  11.215  30.122  13.863
62561W        W27546  15.120  30.375   1.111
62562W        W27547  13.210  21.468   1.697
62563W        W27548  28.539   8.746  13.663
62564W        W27549  36.417  29.140   3.707
62565W        W27550   4.080  29.030   4.231
62566W        W27551   6.954  34.860   1.667
62567W        W27552  16.149  29.995   1.384
62568W        W27553   6.908  23.301   4.850
62569W        W27554  19.059  22.138  14.624
62570W        W27555  27.922  16.164   4.645
62571W        W27556  30.669   2.445   3.940
62572W        W27557  20.099  11.583  14.818
62573W        W27558   4.690   3.667   2.676
62574W        W27559  38.586  25.885   3.113
62575W        W27560  22.570  31.616   4.254
62576W        W27561  26.996  19.675   0.257
62577W        W27562  26.427   4.048   4.119
62578W        W27563  12.194  30.246  12.884
62579W        W27564  22.900  20.301   3.723
62580W        W27565  23.689  15.255  14.565
62581W        W27566  20.126  32.899  11.957
62582W        W27567  41.938  14.619   2.200
62583W        W27568  35.684  24.000  10.784
62584W        W27569  15.741  22.038   1.969
62585W        W27570  16.765  23.532   2.235
62586W        W27571  44.330  41.839  11.506
62587W        W27572  34.645  16.528   1.897
62588W        W27573  15.565  38.052  14.339
62589W        W27574  23.034  23.221   0.796
62590W        W27575  28.127   1.150  13.295
62591W        W27576  28.959  40.075  11.797
62592W        W27577  40.508  13.920   4.477
62593W        W27578  14.411   9.813  13.917
62594W        W27579  38.369  32.061  13.555
62595W        W27580  21.503  30.651   2.265
62596W        W27581  11.744  15.202  13.065
62597W        W27582  31.407   0.711  10.414
62598W        W27583   7.844  13.608  13.994
62599W        W27584  31.048   4.232   1.373
62600W        W27585   1.371  19.624   1.238
62601W        W27586   4.266  40.901   4.217
62602W        W27587  28.469  36.940  13.478
62603W        W27588  32.259  19.320  11.991
62604W        W27589  29.572  29.411  12.486
62605W        W27590   9.298   3.910  14.928
62606W        W27591  13.759  18.640   0.871
62607W        W27592   2.925  17.720   2.198
62608W        W27593  10.487   9.656   4.525
62609W        W27594   0.028   5.293  13.935
62610W        W27595   9.430  16.733  12.891
62611W        W27596  23.038  12.555   0.996
62612W        W27597  18.686  16.278  11.387
62613W        W27598  13.296  11.864   4.105
62614W        W27599  31.004  21.061  13.348
62615W        W27600   1.894  24.960   2.292
62616W        W27601  14.558  23.071   0.756
62617W        W27602  30.535  20.450  14.433
62618W        W27603   0.480  40.515  12.104
62619W        W27604  44.951  11.928  12.838
62620W        W27605  20.458   9.570   4.088
62621W        W27606  21.752  44.365   2.929
62622W        W27607   8.906   4.027   1.657
62623W        W27608  13.699  41.407  12.828
62624W        W27609   9.609  32.590  13.171
62625W        W27610   2.775  44.277   1.022
62626W        W27611   1.232  27.226   1.208
62627W        W27612  21.588  13.884  14.010
62628W        W27613  22.977  36.783   0.400
62629W        W27614   3.497  44.495   0.581
62630W        W27615  32.937   1.012  12.006
62631W        W27616  21.649   1.288   4.889
62632W        W27617  21.763  32.327   3.419
62633W        W27618  33.731  11.495   1.441
62634W        W27619  44.989   8.118  12.898
62635W        W27620   3.941  44.061   4.578
62636W        W27621   8.062  30.107   4.561
62637W        W27622   7.071  12.917   4.723
62638W        W27623  16.715  25.415  14.800
62639W        W27624  20.410  26.726   0.177
62640W        W27625  19.982  42.172  10.887
62641W        W27626  33.307  16.753  13.522
62642W        W27627  19.833  22.024  10.619
62643W        W27628  42.443  16.583   3.217
62644W        W27629  37.855  10.912   1.167
62645W        W27630  13.236  35.150  14.201
62646W        W27631  42.591   6.987  14.831
62647W        W27632  31.495   3.436   3.322
62648W        W27633  34.613   4.030  12.259
62649W        W27634  29.684  23.040   3.771
62650W        W27635   7.373  30.961   4.445
62651W        W27636   6.576  40.677   1.665
62652W        W27637   7.776  16.039   4.182
62653W        W27638  35.796  39.777   0.825
62654W        W27639  44.205  16.660   4.947
62655W        W27640  16.160  36.734   1.912
62656W        W27641  24.375   3.546  14.928
62657W        W27642  33.936  25.391   2.820
62658W        W27643   2.186  42.397   2.757
62659W        W27644  11.595   6.316  14.898
62660W        W27645  36.004  11.138  11.137
62661W        W27646  40.942  28.673   4.245
62662W        W27647   1.379  18.851   2.665
62663W        W27648  38.514   8.195   4.284
62664W        W27649  10.355  16.732   1.417
62665W        W27650  29.893  33.831  12.901
62666W        W27651  29.441   7.757   1.823
62667W        W27652  32.517   6.143  10.971
62668W        W27653  41.124  28.904  12.608
62669W        W27654  23.795  18.886  10.079
62670W        W27655  18.276  38.470   0.376
62671W        W27656  26.314  40.356   0.931
62672W        W27657  23.808   9.095   4.241
62673W        W27658   6.199  15.529   0.175
62674W        W27659  23.634  33.969  14.498
62675W        W27660  36.547  26.294  10.949
62676W        W27661  40.755  29.157   4.249
62677W        W27662  13.650  17.230   3.140
62678W        W27663   1.882  27.694   3.789
62679W        W27664  34.065  22.717   1.006
62680W        W27665   6.798  28.348   2.834
62681W        W27666  30.690   6.969  12.965
62682W        W27667  15.479  17.002  14.849
62683W        W27668  22.555  24.453   2.703
62684W        W27669  44.762  10.709  11.626
62685W        W27670  37.569  30.504  13.490
62686W        W27671  13.822  35.486  12.917
62687W        W27672  17.782  21.345   0.988
62688W        W27673  22.977  28.355  11.718
62689W        W27674  43.099  26.109   9.697
62690W        W27675  31.576   2.480   3.542
62691W        W27676  39.945  19.329  14.848
62692W        W27677  23.031  38.116  12.882
62693W        W27678  20.523  33.418   2.193
62694W        W27679  11.238  28.306  12.401
62695W        W27680  11.296  27.558  12.812
62696W        W27681  23.730   0.979   4.075
62697W        W27682  38.039  27.839  13.395
62698W        W27683  41.299  40.863   4.486
62699W        W27684  39.261  21.659   9.974
62700W        W27685  15.596  44.941  11.212
62701W        W27686   6.575  44.150  11.474
62702W        W27687  18.504  10.741   2.222
62703W        W27688  40.817   3.258  12.506
62704W        W27689  42.427  21.443  12.547
62705W        W27690  41.881  27.988   9.739
62706W        W27691  25.153   7.989   1.747
62707W        W27692  19.724  36.546  13.079
62708W        W27693  15.573  13.707  12.555
62709W        W27694   4.662  33.420   3.134
62710W        W27695  18.738  33.423  14.848
62711W        W27696  26.098   6.703  12.815
62712W        W27697  37.779  10.128  11.594
62713W        W27698  30.393  29.432  10.559
62714W        W27699  34.406  43.894  14.337
62715W        W27700  20.535   8.390  12.900
62716W        W27701  18.591  40.556  10.709
62717W        W27702  43.269  15.811  13.394
62718W        W27703  42.048  23.171  13.976
62719W        W27704  15.891  40.050   2.539
62720W        W27705   5.722  18.599   1.789
62721W        W27706  20.621  36.739  12.097
62722W        W27707  29.710  24.187   2.119
62723W        W27708  26.613  28.837  12.416
62724W        W27709  35.008  24.176  12.116
62725W        W27710  17.883  14.317   4.231
62726W        W27711   9.491  35.483   3.164
62727W        W27712   6.630  12.234   1.191
62728W        W27713  19.584  37.065   4.992
62729W        W27714  17.586  41.890  14.564
62730W        W27715  33.324   9.876  14.033
62731W        W27716   2.410  35.398  10.484
62732W        W27717   9.148   9.912  13.582
62733W        W27718  29.677   4.761   2.236
62734W        W27719  25.077  18.353  14.300
62735W        W27720  19.888  29.404   9.733
62736W        W27721   7.017  34.424   2.452
62737W        W27722  29.628   0.420   4.465
62738W        W27723  41.382  24.529   3.657
62739W        W27724   4.316  30.026  12.603
62740W        W27725   1.235  20.142   1.426
62741W        W27726   3.844  23.525  14.238
62742W        W27727  26.521  40.584   0.461
62743W        W27728  41.575  42.409  12.121
62744W        W27729  40.159  34.430   0.853
62745W        W27730  19.366   4.679   1.920
62746W        W27731  40.848  11.274   2.106
62747W        W27732   8.749  28.473  11.595
62748W        W27733  31.372  31.899  11.694
62749W        W27734   3.868  14.016   2.800
62750W        W27735  33.846  23.743   1.677
62751W        W27736  32.850  21.025  10.499
62752W        W27737   3.797  39.030   0.749
62753W        W27738  40.867  44.219  14.161
62754W        W27739  43.343  27.685   2.385
62755W        W27740   2.170  14.157   2.410
62756W        W27741   5.367   0.525  11.647
62757W        W27742  19.637   3.858   2.411
62758W        W27743  25.753  38.810  10.606
62759W        W27744  31.529  23.994   0.295
62760W        W27745  33.758  16.143  12.736
62761W        W27746  13.256   2.762  11.045
62762W        W27747  35.203  18.571   0.881
62763W        W27748  15.632  41.927   1.902
62764W        W27749   6.213  33.632   4.593
62765W        W27750  17.621   5.735   2.158
62766W        W27751   9.189   8.901  14.908
62767W        W27752  23.624  23.896  13.125
62768W        W27753  44.899   0.909  12.083
62769W        W27754  10.425  23.439  14.758
62770W        W27755  24.022  16.067  13.815
62771W        W27756  24.603   4.735   4.092
62772W        W27757  29.825   2.273   0.472
62773W        W27758   2.219  30.037   3.202
62774W        W27759  11.192   7.283   1.949
62775W        W27760  36.411  25.100  13.261
62776W        W27761  43.960   6.554  11.139
62777W        W27762   8.469   2.578   0.931
62778W        W27763  13.066  37.746  14.632
62779W        W27764  30.596  18.309  13.005
62780W        W27765  28.436  26.234  10.597
62781W        W27766   8.609   3.374  12.197
62782W        W27767  27.508  39.472  12.141
62783W        W27768  29.163  14.897  12.592
62784W        W27769  22.610  17.768   0.011
62785W        W27770  16.624  44.112  14.747
62786W        W27771  19.513   3.585   3.794
62787W        W27772  42.446   1.425  11.892
62788W        W27773  39.802  19.671   0.262
62789W        W27774  37.494  37.452  10.011
62790W        W27775   5.011  18.495  11.122
62791W        W27776  10.497  16.271  10.766
62792W        W27777  28.523  26.640  10.248
62793W        W27778  19.759  18.099   1.238
62794W        W27779  39.861   0.222   3.470
62795W        W27780  37.921  31.612  11.142
62796W        W27781   6.196  19.007  10.754
62797W        W27782  25.773  44.707  10.398
62798W        W27783  29.513  13.364   0.901
62799W        W27784  20.099  16.391  12.952
62800W        W27785  37.393  27.695   3.690
62801W        W27786  10.674  11.918  12.510
62802W        W27787  18.835   0.975  12.637
62803W        W27788  37.601  14.336  11.039
62804W        W27789  35.442  29.192   3.200
62805W        W27790  23.114  10.853  13.301
62806W        W27791   5.617  18.147  10.767
62807W        W27792  27.198  22.031   1.104
62808W        W27793  41.064  22.986   4.547
62809W        W27794  22.711  10.249  11.956
62810W        W27795  22.598   3.281   4.637
62811W        W27796  20.609   5.819  10.093
62812W        W27797  44.770  14.650  11.904
62813W        W27798  16.559  34.352  11.084
62814W        W27799   7.305  33.864  13.548
62815W        W27800  43.962  44.793   2.936
62816W        W27801  27.119  28.034   0.358
62817W        W27802  11.160  41.582  13.682
62818W        W27803  11.629   3.345  10.860
62819W        W27804  20.382  35.834  10.810
62820W        W27805   7.225  38.186   1.922
62821W        W27806   9.499  44.569   4.988
62822W        W27807  22.859  21.778  10.789
62823W        W27808  33.905  17.738   2.075
62824W        W27809  22.230  36.988  13.450
62825W        W27810  21.971  39.382  13.333
62826W        W27811   6.774  43.618  11.033
62827W        W27812  29.189  31.502  10.262
62828W        W27813  22.595   6.849  12.463
62829W        W27814  42.242  43.061  11.675
62830W        W27815   8.882   2.844   3.495
62831W        W27816  27.483  44.450   1.306
62832W        W27817  21.699  42.000   3.162
62833W        W27818   6.017   0.318  10.618
62834W        W27819  32.669  22.626   1.564
62835W        W27820   2.305  33.140  13.515
62836W        W27821  42.677  11.260   0.617
62837W        W27822  44.895  22.014  11.277
62838W        W27823  38.561  39.848   4.506
62839W        W27824  20.992  43.703  14.793
62840W        W27825   0.032   5.310   1.831
62841W        W27826  28.383  44.301   4.138
62842W        W27827  13.305  43.516   4.854
62843W        W27828  12.349  16.722  10.805
62844W        W27829  18.084   7.472  11.570
62845W        W27830  38.797  42.530   0.736
62846W        W27831  28.563   4.961   0.354
62847W        W27832   4.671  33.636  14.844
62848W        W27833  41.491  26.431  14.897
62849W        W27834  35.136  44.745  10.619
62850W        W27835  32.520  17.629   4.636
62851W        W27836  37.895  12.791   1.384
62852W        W27837  31.844   7.243  13.800
62853W        W27838  41.578  23.444  14.455
62854W        W27839  22.224  25.451   4.163
62855W        W27840  33.222  40.809   4.409
62856W        W27841  28.873  32.948  12.984
62857W        W27842  42.473   7.451   3.198
62858W        W27843  13.676  24.152  13.863
62859W        W27844  41.771  14.128   2.344
62860W        W27845   5.938   3.955   1.280
62861W        W27846   8.219   1.188   0.953
62862W        W27847  32.242   6.799   3.271
62863W        W27848  27.167   0.429   9.536
62864W        W27849  34.546  21.188  11.171
62865W        W27850  22.636  19.626  12.058
62866W        W27851  10.326  11.109  11.363
62867W        W27852  19.246  28.531  13.425
62868W        W27853  20.609  16.998  10.406
62869W        W27854  27.950  35.146   2.783
62870W        W27855  44.195  10.404   4.202
62871W        W27856  12.690  38.020  14.878
62872W        W27857   9.408  30.262   4.536
62873W        W27858  11.565  42.299   4.018
62874W        W27859   4.248  17.321   0.488
62875W        W27860  28.674  39.856   0.841
62876W        W27861  12.599  44.143  12.455
62877W        W27862  15.712  40.595   1.205
62878W        W27863  19.569  21.603  13.552
62879W        W27864  32.689  26.380   0.737
62880W        W27865   3.643  22.510   0.755
62881W        W27866  29.997   1.424   4.192
62882W        W27867  37.231  33.192   4.113
62883W        W27868  44.400   6.261   2.853
62884W        W27869  20.170   1.405  11.278
62885W        W27870  25.249   2.595   9.815
62886W        W27871   4.814   8.668   4.457
62887W        W27872  18.289  12.714  13.836
62888W        W27873  14.547  25.153  12.557
62889W        W27874  39.802  36.628  14.518
62890W        W27875  44.075   7.287  14.318
62891W        W27876  31.032  20.224  13.555
62892W        W27877  38.866  37.065  12.964
62893W        W27878   1.271   9.241   0.463
62894W        W27879  42.783  44.307  13.896
62895W        W27880  44.817  36.380  12.548
62896W        W27881  10.532  43.508  11.271
62897W        W27882   0.499  35.456   2.555
62898W        W27883  43.538  10.620  11.162
62899W        W27884  17.594  19.380   0.686
62900W        W27885  27.626  25.120  13.065
62901W        W27886   2.396  23.650  10.801
62902W        W27887  35.649  30.004  11.227
62903W        W27888  22.527   7.225  14.955
62904W        W27889  16.107  44.346   3.809
62905W        W27890   1.196   3.185  11.103
62906W        W27891  24.482  23.518  10.792
62907W        W27892   4.203  40.304   3.679
62908W        W27893  30.588  34.507   1.457
62909W        W27894  11.766   9.215  13.615
62910W        W27895  32.103  28.966  13.916
62911W        W27896  17.274  30.493   1.675
62912W        W27897  25.938  35.641  14.082
62913W        W27898  20.404  15.569  12.004
62914W        W27899  42.390  21.141  14.341
62915W        W27900  42.616  28.920   3.285
62916W        W27901   8.185  17.008   1.588
62917W        W27902  11.055  42.724  14.933
62918W        W27903  30.936  11.150  14.880
62919W        W27904   6.176  34.600  11.938
62920W        W27905  30.532   8.107   4.146
62921W        W27906  33.198   5.375  12.126
62922W        W27907   3.620   2.965   3.068
62923W        W27908  42.008   0.151   4.121
62924W        W27909   3.625  29.968  14.041
62925W        W27910  28.098  37.842   4.053
62926W        W27911   9.157  31.910   4.198
62927W        W27912   5.743   6.847  12.956
62928W        W27913  23.151  40.602   0.239
62929W        W27914  40.379  14.152  14.025
62930W        W27915  16.187  27.878  14.262
62931W        W27916  33.490  18.192   0.493
62932W        W27917  15.817  25.949   4.987
62933W        W27918  32.942  27.883  12.937
62934W        W27919  36.088  41.487  13.085
62935W        W27920  20.540  17.716   3.584
62936W        W27921  34.353  43.441  10.688
62937W        W27922  18.203  39.292  12.300
62938W        W27923  21.306  24.914   0.813
62939W        W27924  29.926  22.270   1.858
62940W        W27925  42.020  33.575   3.233
62941W        W27926  34.393  13.091  11.107
62942W        W27927  29.568  19.610  10.681
62943W        W27928  27.149  37.606  10.305
62944W        W27929   6.746   9.824   4.107
62945W        W27930  42.723  41.160   2.697
62946W        W27931   1.268  10.105  12.803
62947W        W27932  30.131  33.192   0.675
62948W        W27933  32.939   0.664   1.625
62949W        W27934  33.307  22.185   3.609
62950W        W27935  23.777  21.415  13.487
62951W        W27936  30.663   1.561  14.376
62952W        W27937  22.164  11.349   2.204
62953W        W27938  19.213   0.539   4.021
62954W        W27939  31.062  17.073   3.114
62955W        W27940  21.213   2.283  13.807
62956W        W27941   4.440   6.866   4.256
62957W        W27942  29.404  37.489   0.021
62958W        W27943  36.047  44.333  13.380
62959W        W27944   3.033   1.495   3.761
62960W        W27945  19.069  30.871  14.616
62961W        W27946   5.255  22.275   2.245
62962W        W27947  22.122  35.546   2.898
62963W        W27948  24.183  44.318   4.126
62964W        W27949  44.233   2.280   2.270
62965W        W27950  30.119  19.467  14.898
62966W        W27951  20.341  21.196  13.228
62967W        W27952  16.195  20.805   2.198
62968W        W27953   5.748  26.005  13.910
62969W        W27954  33.376  38.861  10.771
62970W        W27955  33.573  22.372   1.726
62971W        W27956   5.174   2.620   3.696
62972W        W27957   1.674  11.743  13.272
62973W        W27958  20.300  11.569   0.291
62974W        W27959  36.261  35.474   4.944
62975W        W27960  19.036  19.186   0.949
62976W        W27961  33.876  16.033  11.265
62977W        W27962  10.819  41.870  11.461
62978W        W27963  40.357  11.921   0.326
62979W        W27964  17.763  27.182   3.661
62980W        W27965   6.782   4.653  12.600
62981W        W27966  36.607  15.076   3.687
62982W        W27967  15.319  15.664   1.864
62983W        W27968  20.707  13.098   2.359
62984W        W27969  17.701  42.462  10.880
62985W        W27970  13.347  11.019  14.593
62986W        W27971  12.560  12.351   4.423
62987W        W27972   0.095  34.591   2.116
62988W        W27973  33.521  22.103   3.108
62989W        W27974  43.506  34.564  13.716
62990W        W27975  35.310  27.656   1.753
62991W        W27976   3.326  31.858  12.629
62992W        W27977  21.525  25.392   0.673
62993W        W27978  35.054  37.148  13.373
62994W        W27979  13.280  11.534  14.818
62995W        W27980   4.016   1.465   0.399
62996W        W27981  24.745   8.070  12.200
62997W        W27982  30.478  19.560  13.916
62998W        W27983   1.934  40.906  10.758
62999W        W27984  33.158  32.591   3.535
63000W        W27985   1.270  15.401   4.149
63001W        W27986  15.951  18.057  12.240
63002W        W27987  38.786  13.145  13.066
63003W        W27988   3.944  28.928  14.222
63004W        W27989  30.468   0.369   2.013
63005W        W27990   3.650   7.558   3.163
63006W        W27991  36.606  18.388  14.743
63007W        W27992  43.703  28.963  12.890
63008W        W27993  19.230  23.297  10.558
63009W        W27994  32.626  32.403   1.349
63010W        W27995   4.878  35.383   4.869
63011W        W27996   2.808  26.422  11.449
63012W        W27997  13.442  23.457   0.904
63013W        W27998  24.132  20.772   3.258
63014W        W27999  21.504  16.773   0.297
63015W        W28000  17.275  40.518  10.983
63016W        W28001   9.705  18.731  12.532
63017W        W28002  25.470  39.275   0.658
63018W        W28003  15.670  12.385   2.423
63019W        W28004  34.715  33.020   4.153
63020W        W28005  21.979  32.591  13.947
63021W        W28006  25.221  18.809   3.450
63022W        W28007   5.170   1.788   1.708
63023W        W28008   8.641  19.676   4.502
63024W        W28009  24.708  27.553  12.656
63025W        W28010  12.334   6.202   0.293
63026W        W28011  22.952  14.146   0.007
63027W        W28012  41.810   6.763  14.402
63028W        W28013   6.393  16.969  13.033
63029W        W28014  17.696  15.849   2.807
63030W        W28015   7.294  38.564  11.892
63031W        W28016  21.776   4.280   3.394
63032W        W28017  31.530  23.965   4.232
63033W        W28018  42.775  40.350   1.567
63034W        W28019   6.859  22.118   1.754
63035W        W28020  32.523   0.984  11.687
63036W        W28021   5.275  44.207   1.738
63037W        W28022  40.952   2.904   4.121
63038W        W28023  25.199  24.456  10.931
63039W        W28024  31.026  21.950   3.733
63040W        W28025   0.934  11.093   2.235
63041W        W28026   9.148   1.821  14.739
63042W        W28027  20.403   6.418   0.023
63043W        W28028  43.898  38.570   2.869
63044W        W28029  19.633  24.531   1.114
63045W        W28030   5.315  11.337  12.810
63046W        W28031  23.428  11.431  11.170
63047W        W28032  37.604  39.945  11.107
63048W        W28033  23.734   4.324  11.718
63049W        W28034  34.341   6.500   0.433
63050W        W28035  30.149  22.544   2.243
63051W        W28036  37.310   5.689   2.728
63052W        W28037  30.932  18.097   0.746
63053W        W28038  12.462  43.882   3.115
63054W        W28039  22.571   2.733   3.891
63055W        W28040   8.946  17.644  14.073
63056W        W28041  36.907  26.248   1.408
63057W        W28042  44.566  35.788   3.646
63058W        W28043  15.896   0.463  10.237
63059W        W28044   7.893  34.317  14.998
63060W        W28045  24.573  41.579   2.215
63061W        W28046  27.732  38.336  11.717
63062W        W28047  16.744  29.618   1.291
63063W        W28048  42.851  13.181   0.384
63064W        W28049  39.723  39.813   3.612
63065W        W28050   5.236  17.614   3.900
63066W        W28051  29.125  10.609  14.956
63067W        W28052  41.277  32.557  14.248
63068W        W28053  21.570  40.353   2.692
63069W        W28054   6.668  15.027  13.825
63070W        W28055  32.651  31.373  13.523
63071W        W28056  33.563  33.905   2.980
63072W        W28057  36.976  20.209   1.755
63073W        W28058   9.453  34.341   1.835
63074W        W28059  37.038  41.297   1.442
63075W        W28060  20.562   2.026  12.021
63076W        W28061   1.488  33.745   0.474
63077W        W28062  44.776  15.215   4.245
63078W        W28063  16.569  10.178  14.490
63079W        W28064  36.502   9.921  11.339
63080W        W28065  37.525  32.224  12.101
63081W        W28066  38.604  14.054  14.366
63082W        W28067  34.598   3.925  11.759
63083W        W28068  28.406  25.441   0.278
63084W        W28069  17.429   0.282   2.401
63085W        W28070  15.099   9.466   0.326
63086W        W28071  40.221   0.131   1.349
63087W        W28072  10.297  13.357  11.022
63088W        W28073  15.607  24.503   5.016
63089W        W28074  28.969  32.950   1.263
63090W        W28075  18.030  14.815  12.429
63091W        W28076  23.728   7.701  14.776
63092W        W28077  17.616  32.372  12.727
63093W        W28078  25.015  13.416  11.602
63094W        W28079   9.417  25.191  12.468
63095W        W28080  34.785  19.027  12.083
63096W        W28081  17.090  24.564   1.253
63097W        W28082   9.267  11.762   0.726
63098W        W28083  42.408  38.655   0.779
63099W        W28084  10.027  22.977  13.518
63100W        W28085  37.779  41.735  10.803
63101W        W28086   2.113  31.937   0.373
63102W        W28087   0.343  24.186   3.341
63103W        W28088  14.134   8.640  13.532
63104W        W28089  24.411  36.954   2.498
63105W        W28090  43.818  40.143  14.482
63106W        W28091   4.344  31.553  12.421
63107W        W28092  22.157  22.600  14.604
63108W        W28093  25.387  13.780  11.579
63109W        W28094  40.950  34.641   2.376
63110W        W28095  14.097   7.209   3.468
63111W        W28096  23.784  14.092   3.532
63112W        W28097  25.009  13.018   4.042
63113W        W28098  32.661  12.478  11.646
63114W        W28099  12.774  19.099  10.419
63115W        W28100   8.136  44.691   0.875
63116W        W28101  15.132   1.858  13.789
63117W        W28102  12.165  13.683   4.134
63118W        W28103  31.058  24.421   1.859
63119W        W28104  32.596  30.908   4.116
63120W        W28105  23.658   2.409  14.312
63121W        W28106  44.135  27.544   4.929
63122W        W28107  19.862  13.753   2.250
63123W        W28108  22.933  33.142   1.377
63124W        W28109  16.797   3.004  12.586
63125W        W28110   5.708  39.298   1.689
63126W        W28111  25.670  37.052   3.068
63127W        W28112  19.818  29.633   2.674
63128W        W28113   8.129  22.095   4.984
63129W        W28114  28.645  31.519  11.558
63130W        W28115  12.938  23.585   0.830
63131W        W28116  41.575  20.210   0.984
63132W        W28117  15.047  26.082  12.915
63133W        W28118  39.813   4.105  10.723
63134W        W28119  42.017   9.727   2.399
63135W        W28120  22.254  39.018   0.289
63136W        W28121  10.090  22.702  13.081
63137W        W28122  23.245  23.290  14.309
63138W        W28123  20.594  15.437   3.608
63139W        W28124  15.779  20.262  12.122
63140W        W28125  35.478  40.487  12.605
63141W        W28126  20.057   8.249   9.843
63142W        W28127  11.875  12.849  12.335
63143W        W28128  26.185  15.854  14.200
63144W        W28129  11.290   7.597  12.516
63145W        W28130  25.900  33.338   1.910
63146W        W28131  16.831  24.184   0.860
63147W        W28132   9.253   1.492   2.300
63148W        W28133  35.283  12.149  14.277
63149W        W28134  41.591   1.599  14.444
63150W        W28135  27.409  13.837   2.966
63151W        W28136  24.186  17.588   2.337
63152W        W28137   9.341   3.882   0.938
63153W        W28138   2.711  34.688  14.987
63154W        W28139  22.321  35.928   2.467
63155W        W28140  24.228  38.446  12.510
63156W        W28141  18.579  15.391   2.862
63157W        W28142  15.262  34.242  13.808
63158W        W28143  11.567  26.235  13.348
63159W        W28144  32.122  38.241   4.385
63160W        W28145  22.506   6.510   4.261
63161W        W28146  38.292  44.288   3.625
63162W        W28147  35.116  43.487   1.816
63163W        W28148   4.976  26.498   1.132
63164W        W28149  14.314  33.629   0.371
63165W        W28150  44.731   3.657   0.486
63166W        W28151  15.187   0.812  14.494
63167W        W28152  34.554  31.148  10.948
63168W        W28153  18.223  18.001  10.803
63169W        W28154  41.412  14.446   0.539
63170W        W28155  17.659  33.551   0.793
63171W        W28156  23.152   2.808  11.743
63172W        W28157  19.047   9.265   5.317
63173W        W28158  43.555   1.823  11.486
63174W        W28159  22.613  23.970  12.987
63175W        W28160   8.510  34.653   0.444
63176W        W28161  29.076  19.882   5.073
63177W        W28162  21.240  25.764  14.855
63178W        W28163   8.177   8.757  14.984
63179W        W28164   4.426  41.779  10.918
63180W        W28165  41.006  32.607   2.345
63181W        W28166  14.248  24.522   1.426
63182W        W28167  41.556   3.058  12.015
63183W        W28168  38.030  16.077   1.851
63184W        W28169  43.885  11.722   2.749
63185W        W28170  28.433  16.557  12.426
63186W        W28171  13.003  32.462  12.908
63187W        W28172  18.532   9.729  12.611
63188W        W28173   1.731  28.265   4.406
63189W        W28174  34.026  37.576  12.764
63190W        W28175  38.989   6.362   1.876
63191W        W28176  20.158   5.224  13.345
63192W        W28177  36.045  28.737   0.287
63193W        W28178  33.013   1.745  13.647
63194W        W28179  28.683  24.983  12.351
63195W        W28180  40.421  24.003   4.567
63196W        W28181   8.703  35.622   3.746
63197W        W28182   9.297  25.109   4.764
63198W        W28183  44.770  17.865   1.939
63199W        W28184  21.474  24.774  14.852
63200W        W28185  43.297  31.239  12.926
63201W        W28186  39.754  26.847   3.526
63202W        W28187  11.799  37.645  13.562
63203W        W28188  17.726  12.931   2.368
63204W        W28189   7.775   3.445   3.984
63205W        W28190  43.930   4.214   4.564
63206W        W28191  20.600  37.398   4.619
63207W        W28192   6.921   3.102   1.101
63208W        W28193  11.636   7.880  12.801
63209W        W28194   7.840  21.737  11.371
63210W        W28195  34.722  16.279   1.009
63211W        W28196  11.289  43.205   0.037
63212W        W28197  22.821  25.146   3.737
63213W        W28198  34.557  13.091   0.314
63214W        W28199  27.410  37.088   3.654
63215W        W28200   7.965  12.391  13.136
63216W        W28201  11.147  14.265  10.612
63217W        W28202  31.976  38.200   3.045
63218W        W28203  27.980  35.633  13.504
63219W        W28204  19.604  41.043  12.178
63220W        W28205  20.190  15.488   4.383
63221W        W28206  11.856  15.243  12.143
63222W        W28207  21.121  31.228   1.271
63223W        W28208   2.986  39.352   2.586
63224W        W28209  10.262  41.432   0.838
63225W        W28210  11.231  11.455   2.223
63226W        W28211  21.325  20.475  13.933
63227W        W28212   4.358   0.228   1.992
63228W        W28213  39.887  36.897  12.961
63229W        W28214  10.003  27.010   3.231
63230W        W28215   2.639  18.441  14.330
63231W        W28216  42.983  43.563  13.399
63232W        W28217  16.034  17.161   0.932
63233W        W28218  16.770  42.957   4.537
63234W        W28219  16.754  43.312  12.512
63235W        W28220  11.977   0.947  11.623
63236W        W28221  41.682   1.395  14.969
63237W        W28222  26.084  20.032  10.621
63238W        W28223  21.234   3.069   3.064
63239W        W28224  11.314  39.412  11.526
63240W        W28225  19.456  20.603   2.446
63241W        W28226  36.898  24.044   5.185
63242W        W28227  27.587  38.090   2.717
63243W        W28228   6.347  12.819  11.224
63244W        W28229  40.715  29.589  11.967
63245W        W28230  27.651  36.559  12.085
63246W        W28231  19.977  35.888   2.712
63247W        W28232  15.224  28.082   3.568
63248W        W28233  37.727  40.048   2.039
63249W        W28234  39.678  32.919  10.873
63250W        W28235  36.681   1.043  11.065
63251W        W28236  20.531   6.115   3.339
63252W        W28237  40.911  32.037  12.142
63253W        W28238  36.500   2.759   4.397
63254W        W28239  17.606  22.580  10.546
63255W        W28240  38.990  23.034   4.440
63256W        W28241  29.467  14.740   2.132
63257W        W28242  29.373  40.938   1.791
63258W        W28243  30.010  16.057  13.930
63259W        W28244  18.296  13.885  12.120
63260W        W28245   4.344  19.802  14.026
63261W        W28246  39.930  38.011   1.967
63262W        W28247  18.713  19.591   0.843
63263W        W28248  13.211   7.359   4.618
63264W        W28249  10.692   4.889  14.043
63265W        W28250   5.908   9.100   2.841
63266W        W28251  13.832  22.103  11.102
63267W        W28252  14.614  17.805   1.370
63268W        W28253   2.493   6.212  11.135
63269W        W28254  27.465  14.062   0.437
63270W        W28255  29.894  24.480  14.740
63271W        W28256  22.705  20.121   4.639
63272W        W28257  16.585  39.983   4.672
63273W        W28258  38.133  36.728  14.878
63274W        W28259  35.440  18.959   1.128
63275W        W28260  42.871  36.940  12.852
63276W        W28261   4.350   5.193   0.912
63277W        W28262  37.638  23.995  14.179
63278W        W28263  17.287  26.477  12.053
63279W        W28264   4.018  24.264  11.177
63280W        W28265   8.406   4.309  12.620
63281W        W28266  17.741   4.399  14.036
63282W        W28267  27.915   0.254   4.024
63283W        W28268   9.721  33.042   0.051
63284W        W28269   8.300  30.519   3.252
63285W        W28270  25.507  41.941  11.179
63286W        W28271  10.377  43.805   1.108
63287W        W28272   4.664  37.879  12.824
63288W        W28273  38.106   0.136   3.348
63289W        W28274  11.689  14.036   0.948
63290W        W28275  16.871  16.600  11.350
63291W        W28276  38.354  34.025  14.693
63292W        W28277  10.351  35.192   3.832
63293W        W28278  23.216  42.698   2.595
63294W        W28279  35.405   7.555   0.208
63295W        W28280  25.468  41.479  13.833
63296W        W28281  22.819  24.586  10.952
63297W        W28282   7.627  34.624  13.886
63298W        W28283  34.868  18.178  12.078
63299W        W28284  30.556  35.980   3.229
63300W        W28285  34.894  32.981   2.848
63301W        W28286   0.410  35.890   1.321
63302W        W28287  10.810  29.390  11.671
63303W        W28288  10.113  44.254  12.459
63304W        W28289   2.787  21.539   0.633
63305W        W28290  27.887  37.336  11.246
63306W        W28291  13.429  13.185   3.721
63307W        W28292  25.278   2.849   4.594
63308W        W28293  14.887   8.076   2.655
63309W        W28294  21.277  39.789  12.167
63310W        W28295   8.843  39.380   1.304
63311W        W28296   9.150  16.364   2.452
63312W        W28297   4.958  20.220   3.764
63313W        W28298  28.044  18.611   1.744
63314W        W28299  18.087  38.267  14.875
63315W        W28300  21.660  36.753   1.000
63316W        W28301  19.734  39.486   0.923
63317W        W28302   7.448   1.176  10.366
63318W        W28303  31.087  38.778  12.403
63319W        W28304   8.108  13.649   4.106
63320W        W28305  33.819  36.408  14.021
63321W        W28306   3.705   8.228  10.594
63322W        W28307   0.002  32.658   0.428
63323W        W28308  27.942  31.073  11.618
63324W        W28309   2.037  15.680  14.881
63325W        W28310  23.397  31.535   0.497
63326W        W28311  28.592  15.273  14.864
63327W        W28312   8.807  24.409   4.968
63328W        W28313  12.263  37.137  12.418
63329W        W28314  31.478  26.210   1.647
63330W        W28315  35.160  21.238   1.165
63331W        W28316  40.720  30.442   0.549
63332W        W28317  13.345  13.069  10.663
63333W        W28318  33.627  39.315  10.801
63334W        W28319   3.617  35.372  11.154
63335W        W28320   0.116  19.936  14.465
63336W        W28321   5.881  29.580   1.308
63337W        W28322  25.574  44.271   0.444
63338W        W28323  18.640   0.928  14.366
63339W        W28324  42.373  29.881   3.899
63340W        W28325  19.250  36.459   4.849
63341W        W28326  31.672  10.315   0.430
63342W        W28327  41.841  31.512   4.370
63343W        W28328  20.208   4.916   1.312
63344W        W28329  14.050  16.255   3.765
63345W        W28330  42.878   0.809  11.938
63346W        W28331   7.624  21.169   0.887
63347W        W28332  36.512  32.140   1.263
63348W        W28333  36.927   4.703  13.037
63349W        W28334   5.393  12.967  11.441
63350W        W28335  11.243  25.642  11.829
63351W        W28336  42.329  35.152   1.405
63352W        W28337  31.461  38.089   2.772
63353W        W28338  11.266  43.830   2.442
63354W        W28339  20.159  30.046   9.938
63355W        W28340  41.036   9.234  11.544
63356W        W28341  33.277  33.762   2.146
63357W        W28342  41.927  14.275   0.015
63358W        W28343  27.348  22.542  14.445
63359W        W28344  20.208  44.446   3.644
63360W        W28345  38.480   8.850   2.135
63361W        W28346   6.159  39.374  11.086
63362W        W28347   5.680  25.607   1.232
63363W        W28348  32.341  43.800  11.091
63364W        W28349  10.829  23.853   1.942
63365W        W28350  39.865  20.636  14.568
63366W        W28351  21.726   8.413  12.872
63367W        W28352  37.768  42.635   2.973
63368W        W28353  15.651  12.294  11.200
63369W        W28354  32.804  29.375  11.646
63370W        W28355  30.566  41.039  14.513
63371W        W28356  23.307  42.931   3.069
63372W        W28357  37.478  25.456  12.969
63373W        W28358   9.712   5.539   1.662
63374W        W28359  20.765  25.927  14.586
63375W        W28360  14.790  21.815  12.534
63376W        W28361  37.769  43.026   1.307
63377W        W28362  31.541  39.717   0.456
63378W        W28363   9.616  26.163  11.255
63379W        W28364  10.150   6.781  12.059
63380W        W28365   9.687  18.122  11.047
63381W        W28366  41.077  12.124   1.954
63382W        W28367  17.812   4.564   3.596
63383W        W28368  34.933  12.069   1.109
63384W        W28369  29.326   9.679   0.585
63385W        W28370  40.196  38.038  11.141
63386W        W28371  37.411  14.273  14.841
63387W        W28372  31.579  17.700   2.614
63388W        W28373   5.392   5.125  13.955
63389W        W28374  36.372  10.091   3.118
63390W        W28375  38.073  39.106   4.119
63391W        W28376  34.013  29.493   3.194
63392W        W28377  42.947  39.763   0.322
63393W        W28378   1.161  15.067  11.564
63394W        W28379   6.171   2.234   4.085
63395W        W28380  40.240  35.632  12.954
63396W        W28381  43.971  16.326   4.070
63397W        W28382   7.767  38.379  12.068
63398W        W28383  38.812  15.491  11.930
63399W        W28384   1.834  20.502  12.414
63400W        W28385  33.220  43.105  12.585
63401W        W28386  31.979  25.744   2.446
63402W        W28387  25.725   9.254  11.584
63403W        W28388  36.550   3.088  11.810
63404W        W28389  43.448  44.763   0.434
63405W        W28390  24.058  20.266   3.178
63406W        W28391  38.245  36.413  12.489
63407W        W28392  32.132  20.827  13.940
63408W        W28393  24.652  36.819  11.025
63409W        W28394  32.586  18.004   1.346
63410W        W28395   8.690  15.855  12.381
63411W        W28396  35.783  28.065  14.023
63412W        W28397  12.313  41.059   4.180
63413W        W28398  12.261  25.227   1.790
63414W        W28399  29.643  37.184   4.173
63415W        W28400   0.025   4.827  12.197
63416W        W28401  31.828  39.434  11.065
63417W        W28402   3.950  26.039  13.325
63418W        W28403  36.913   1.993  14.766
63419W        W28404  36.354  41.465  11.425
63420W        W28405  26.528  40.663   1.902
63421W        W28406  33.949   0.339   4.391
63422W        W28407   7.407  24.642   3.730
63423W        W28408  11.696  22.805  13.011
63424W        W28409  13.072  14.735   3.328
63425W        W28410  34.104   2.759  13.629
63426W        W28411  38.018  25.139   5.516
63427W        W28412  42.700   2.172   1.314
63428W        W28413   7.787  20.855   2.327
63429W        W28414  14.126  39.380  13.209
63430W        W28415  24.557  13.568  13.530
63431W        W28416  26.286  16.068   0.752
63432W        W28417   6.423  36.404  13.514
63433W        W28418   3.734   3.037  11.086
63434W        W28419  29.285   7.734   2.297
63435W        W28420  28.656   3.128   2.277
63436W        W28421   3.372  35.834  14.489
63437W        W28422  11.820  30.677   2.443
63438W        W28423  42.959  22.905   3.942
63439W        W28424  14.943  40.066   1.133
63440W        W28425   5.732  26.535   0.767
63441W        W28426  15.635   1.789  13.515
63442W        W28427  13.648   9.278  13.967
63443W        W28428  12.641   5.910  12.753
63444W        W28429  12.165  34.043   0.623
63445W        W28430  22.631  12.276   4.128
63446W        W28431  19.366  24.975   4.890
63447W        W28432  35.976  29.460  12.012
63448W        W28433  13.782  20.790   1.698
63449W        W28434   0.097  33.482   0.253
63450W        W28435  16.373   0.163  11.599
63451W        W28436  34.090   7.198   3.745
63452W        W28437  26.541  41.998   0.405
63453W        W28438  29.721  38.178   4.211
63454W        W28439   0.267  15.076   0.927
63455W        W28440   9.641  31.239   0.559
63456W        W28441   1.462  33.504  11.237
63457W        W28442  13.687  10.631  14.027
63458W        W28443  31.518  25.647   2.207
63459W        W28444  44.542  14.592   0.236
63460W        W28445  43.762  25.050  11.499
63461W        W28446   2.987  26.488  12.366
63462W        W28447  10.649  12.214   3.699
63463W        W28448  35.057  22.586  14.544
63464W        W28449  35.902   2.815   2.205
63465W        W28450  29.091   0.815  13.510
63466W        W28451  33.479  27.935   3.084
63467W        W28452  14.638  12.285   3.869
63468W        W28453  17.529  17.279  14.047
63469W        W28454  23.564  36.326  14.289
63470W        W28455  40.639   5.666   2.132
63471W        W28456  35.358  37.253  12.262
63472W        W28457  12.725  13.442   0.044
63473W        W28458  44.352  43.755   1.253
63474W        W28459   7.758   2.409   1.989
63475W        W28460  24.736  31.624  12.995
63476W        W28461  35.897  19.594  12.437
63477W        W28462  27.048  17.358   2.139
63478W        W28463   6.687  39.037  13.050
63479W        W28464   9.579  24.278  12.525
63480W        W28465  33.501   6.898   1.879
63481W        W28466  13.004  35.086  13.294
63482W        W28467  37.253  30.961   3.734
63483W        W28468  22.946  31.908  10.891
63484W        W28469  21.839  18.096   3.278
63485W        W28470  16.314  44.178  13.831
63486W        W28471   3.734  16.004   4.268
63487W        W28472  20.229  23.600  11.144
63488W        W28473  29.270  12.150   0.391
63489W        W28474  23.411  19.482  10.306
63490W        W28475  40.592  43.434  13.423
63491W        W28476  31.513  14.750   1.368
63492W        W28477  28.237  41.584   4.975
63493W        W28478   0.562  29.433  10.789
63494W        W28479  31.838  16.297  11.684
63495W        W28480  35.014  20.576   3.307
63496W        W28481  21.696  37.914  12.654
63497W        W28482  12.869  16.598   3.279
63498W        W28483  17.793  37.540   4.672
63499W        W28484  43.643  17.137   0.270
63500W        W28485  20.281  28.940   0.161
63501W        W28486  13.326  21.318   0.768
63502W        W28487  12.798  17.835   0.770
63503W        W28488  42.897  27.933  14.178
63504W        W28489  38.905  44.007  12.055
63505W        W28490  44.436  35.295   4.906
63506W        W28491  30.227  38.778   2.378
63507W        W28492  41.193  13.987  13.815
63508W        W28493  38.363  44.961   1.702
63509W        W28494   8.807  37.315   3.316
63510W        W28495  42.762  12.309   3.161
63511W        W28496  41.068  15.065   3.003
63512W        W28497   2.911  44.229  13.602
63513W        W28498  41.266  41.433  14.328
63514W        W28499  13.477  37.317  12.426
63515W        W28500  42.584  35.508   2.287
63516W        W28501  44.814  26.331   4.012
63517W        W28502  21.433  12.052  11.124
63518W        W28503  29.136  36.837  10.969
63519W        W28504  11.119   5.283   3.245
63520W        W28505   6.821  28.126   4.761
63521W        W28506  24.109  40.398  13.784
63522W        W28507   5.285  40.751   3.600
63523W        W28508  27.923  36.465   4.575
63524W        W28509  43.910  34.700   3.714
63525W        W28510  34.577  24.583  14.529
63526W        W28511   9.726  13.261   2.718
63527W        W28512   5.697  19.588   0.048
63528W        W28513  15.485  39.871  11.070
63529W        W28514  13.762  14.431   0.950
63530W        W28515  39.771  10.288  13.385
63531W        W28516  12.047  36.021   3.701
63532W        W28517   9.913   8.379  12.015
63533W        W28518  27.979  13.589   1.910
63534W        W28519  24.320  44.770   1.146
63535W        W28520   1.968  37.565   2.309
63536W        W28521  22.521  19.165  10.058
63537W        W28522  26.707  35.355  11.978
63538W        W28523  41.268   9.739  12.910
63539W        W28524   1.323  37.702   3.888
63540W        W28525  31.712   7.742  13.507
63541W        W28526  20.945  17.136   0.552
63542W        W28527   0.577  27.157   1.835
63543W        W28528  41.927  34.815  13.342
63544W        W28529   2.846  32.197  11.988
63545W        W28530  18.172  31.112  13.502
63546W        W28531  28.179  12.681   1.734
63547W        W28532  35.979  41.484   2.881
63548W        W28533  15.077   2.261  14.516
63549W        W28534  17.310  17.247  13.587
63550W        W28535  25.395  35.360   3.857
63551W        W28536  16.210  41.509   0.719
63552W        W28537  28.227   4.149   3.026
63553W        W28538   2.452  24.377   2.669
63554W        W28539  33.617  40.061  13.886
63555W        W28540  38.603  25.248   1.812
63556W        W28541  37.739  42.478  12.816
63557W        W28542  41.158  38.473   0.571
63558W        W28543   5.229  40.262   3.787
63559W        W28544  39.279  17.684   2.610
63560W        W28545   0.264  35.830   4.617
63561W        W28546  30.598  16.976  11.580
63562W        W28547   6.323  33.842   2.876
63563W        W28548  26.557  14.728   1.821
63564W        W28549   0.485  25.626  10.635
63565W        W28550  27.966  27.761  10.239
63566W        W28551  29.883  22.076   3.226
63567W        W28552  23.606  38.608  14.992
63568W        W28553  41.822   9.822  12.625
63569W        W28554  32.174  13.622   1.167
63570W        W28555  39.739  22.572  14.635
63571W        W28556   3.904  15.512  11.075
63572W        W28557   1.591   3.685   2.162
63573W        W28558  11.561  22.101  13.549
63574W        W28559  30.099  33.220   4.111
63575W        W28560  16.115  43.472   4.938
63576W        W28561  11.886  21.835   3.610
63577W        W28562  24.529  32.581  11.171
63578W        W28563   0.224  34.506   1.590
63579W        W28564  20.619   3.984   2.113
63580W        W28565  37.000  34.612   2.193
63581W        W28566   8.790   1.600   2.032
63582W        W28567   0.578  30.658  14.927
63583W        W28568  11.135  32.510   4.268
63584W        W28569  37.743   3.384  13.879
63585W        W28570  33.684  35.332   3.229
63586W        W28571   6.778  33.638  10.976
63587W        W28572  37.597  30.470  11.459
63588W        W28573  32.112  25.025  12.902
63589W        W28574  24.579  40.181  12.376
63590W        W28575  30.005  10.736  10.614
63591W        W28576  31.981  18.300   3.982
63592W        W28577  19.664  32.080   3.115
63593W        W28578   8.800  39.272   3.056
63594W        W28579  34.609  17.626  14.025
63595W        W28580  30.700  42.432   4.591
63596W        W28581   5.290  18.957   3.246
63597W        W28582   8.312  11.647  13.885
63598W        W28583  28.134   4.436   2.607
63599W        W28584  40.642  24.510  11.759
63600W        W28585   7.371  42.334  11.165
63601W        W28586  29.495   0.725   0.720
63602W        W28587   3.102   7.008   2.005
63603W        W28588  20.167  23.286  13.839
63604W        W28589  16.168   3.423  11.660
63605W        W28590  44.944  29.909  12.525
63606W        W28591  24.417  13.027   5.205
63607W        W28592  30.734  38.369   0.463
63608W        W28593  20.211  16.196   2.683
63609W        W28594   9.215  23.261   2.880
63610W        W28595   2.385  16.813  11.827
63611W        W28596   3.971  15.052  13.606
63612W        W28597  25.778  15.939   1.916
63613W        W28598  26.997  25.059   1.787
63614W        W28599  38.259  27.572  14.996
63615W        W28600   3.790  37.013   4.245
63616W        W28601   1.416  38.562   3.397
63617W        W28602  25.047  41.224   3.339
63618W        W28603  21.306  17.566   0.744
63619W        W28604  29.940  34.587   2.291
63620W        W28605  23.142   4.527   1.156
63621W        W28606  23.204  26.036  12.396
63622W        W28607  15.139  17.285  13.895
63623W        W28608  33.193  22.326  13.588
63624W        W28609  10.667   0.035   0.094
63625W        W28610  38.463  21.001   1.373
63626W        W28611   9.134  28.785   0.263
63627W        W28612   0.213  20.285  12.179
63628W        W28613   5.347  29.419   4.973
63629W        W28614   8.671  41.387   2.288
63630W        W28615   5.273  25.449  14.326
63631W        W28616   8.217  38.562  10.662
63632W        W28617   4.479   9.229   2.852
63633W        W28618  38.514  13.049  13.960
63634W        W28619   7.951  41.122  12.467
63635W        W28620  23.486  28.577  14.830
63636W        W28621  24.271  26.678   3.285
63637W        W28622  23.805   1.849   1.338
63638W        W28623  37.918  34.873  11.547
63639W        W28624   5.191  31.221   2.608
63640W        W28625   8.467  26.143  13.356
63641W        W28626  40.209  43.226   1.209
63642W        W28627  12.628  42.422   0.755
63643W        W28628  24.936  27.921   1.010
63644W        W28629  35.076  28.608  12.992
63645W        W28630   9.381   8.806   1.755
63646W        W28631   9.886  22.198  12.163
63647W        W28632   3.962  15.503  12.099
63648W        W28633  41.809  34.182  10.821
63649W        W28634   3.151   3.570  10.115
63650W        W28635  39.373  30.411  11.191
63651W        W28636  39.346  15.324   2.772
63652W        W28637  38.833  21.535  10.266
63653W        W28638  15.041  38.443   0.907
63654W        W28639   1.265  14.697  13.853
63655W        W28640  27.121  34.758   2.313
63656W        W28641   5.776  18.453  11.670
63657W        W28642  37.948  27.516   1.466
63658W        W28643  26.604  11.054   3.180
63659W        W28644  16.168  31.375   3.652
63660W        W28645   8.268   2.278   1.912
63661W        W28646  31.876  38.695  13.412
63662W        W28647  13.116  27.021  10.236
63663W        W28648  38.439  43.809  11.856
63664W        W28649   1.223  11.422  11.128
63665W        W28650  29.361  35.980  12.512
63666W        W28651  20.242  19.800  10.172
63667W        W28652  14.651  42.812   1.023
63668W        W28653  30.839  17.995  11.081
63669W        W28654  20.182  24.636  11.151
63670W        W28655  34.857  22.597  10.682
63671W        W28656  32.912  36.042  11.055
63672W        W28657   4.649   7.748  14.531
63673W        W28658  17.387  24.937  11.248
63674W        W28659   7.371  23.195  12.837
63675W        W28660  15.682   3.912   2.892
63676W        W28661  37.236  28.110  12.827
63677W        W28662  40.242  38.896   4.594
63678W        W28663  39.064  38.654   4.170
63679W        W28664   7.854  37.871  12.025
63680W        W28665  35.344  23.462  11.709
63681W        W28666  25.752  24.981  14.462
63682W        W28667  19.577  33.669  10.797
63683W        W28668  18.320  42.919  14.378
63684W        W28669  24.589  15.800   0.011
63685W        W28670  32.435  26.380  10.841
63686W        W28671   8.779   8.409  12.481
63687W        W28672   7.466   5.863  11.996
63688W        W28673  40.069   3.696  11.071
63689W        W28674  23.763  14.144   3.023
63690W        W28675  16.976  25.288   3.406
63691W        W28676   3.442  24.266  12.026
63692W        W28677  14.615   7.004   3.616
63693W        W28678   8.062  30.613  12.399
63694W        W28679  30.364  18.199  11.089
63695W        W28680  27.984  42.931  12.010
63696W        W28681  35.047  29.521   3.795
63697W        W28682  28.427  22.803   3.581
63698W        W28683  34.625  11.165  12.051
63699W        W28684  39.680   3.170   0.659
63700W        W28685  43.759   3.739   4.586
63701W        W28686  42.986  11.361  13.844
63702W        W28687   0.755  34.539  14.301
63703W        W28688  14.606  28.343  11.669
63704W        W28689  35.700  20.730  12.545
63705W        W28690  21.192   8.708   4.583
63706W        W28691  28.666  27.579  14.442
63707W        W28692   6.679   8.817  12.348
63708W        W28693   5.096   6.488  10.043
63709W        W28694  14.327  39.566   0.403
63710W        W28695  37.954  34.613   3.728
63711W        W28696  29.674  22.992  13.996
63712W        W28697   0.782   6.193  12.711
63713W        W28698  40.031   8.421   1.661
63714W        W28699  13.585  18.596  10.925
63715W        W28700  41.097   6.684  14.867
63716W        W28701   9.594  37.083   3.676
63717W        W28702  15.858  12.142   4.138
63718W        W28703  42.777  26.737   3.639
63719W        W28704   0.306  37.644  13.031
63720W        W28705  22.999  40.407   3.372
63721W        W28706  10.123   0.350   3.406
63722W        W28707  32.683  24.640   0.281
63723W        W28708  15.080  42.901   4.289
63724W        W28709   1.263   0.041   1.935
63725W        W28710  37.905  32.129  13.357
63726W        W28711   9.156   1.076   1.362
63727W        W28712   9.840  32.633   3.153
63728W        W28713  30.642  40.836   1.441
63729W        W28714  20.662  34.999   4.428
63730W        W28715  34.822  15.524   4.553
63731W        W28716  14.489  19.370   0.466
63732W        W28717  31.889  11.453   1.855
63733W        W28718  34.472  13.611  14.417
63734W        W28719  26.578  22.982   2.905
63735W        W28720  15.453   3.896  12.663
63736W        W28721  21.992  34.661   3.471
63737W        W28722   7.719  29.298   2.664
63738W        W28723  10.172   8.916   3.173
63739W        W28724  39.308   1.656  12.438
63740W        W28725  30.088  30.741  14.038
63741W        W28726  28.416  14.100   1.085
63742W        W28727  15.789   4.310  10.362
63743W        W28728  25.345  40.794  11.360
63744W        W28729   4.156   6.946   3.422
63745W        W28730  20.845  41.779  13.897
63746W        W28731  16.800  27.486  12.926
63747W        W28732  42.962  14.196  12.783
63748W        W28733  35.363   9.809   2.702
63749W        W28734  33.912  34.458   0.010
63750W        W28735  41.097  31.126   2.352
63751W        W28736  44.813  13.723   1.374
63752W        W28737  25.225   6.306  11.169
63753W        W28738   6.752  31.014  14.239
63754W        W28739  27.949  17.952  13.413
63755W        W28740  39.495  32.968   9.554
63756W        W28741  44.317  32.129   0.748
63757W        W28742  35.806  19.611  11.458
63758W        W28743   9.099  11.862  11.564
63759W        W28744  26.624  37.191   4.058
63760W        W28745  40.534  10.397  13.054
63761W        W28746  33.862  18.679  11.537
63762W        W28747  10.689   3.745  13.227
63763W        W28748  38.358  25.535   3.667
63764W        W28749  41.498   7.372   2.613
63765W        W28750   5.233  41.012  12.899
63766W        W28751  19.412  41.825   2.014
63767W        W28752   3.714   6.337   2.385
63768W        W28753  32.597  40.402  11.625
63769W        W28754  33.625  15.386  14.500
63770W        W28755  34.416  32.636  13.845
63771W        W28756   0.268  10.115   0.991
63772W        W28757  38.173   0.261  11.352
63773W        W28758  20.576  23.736   5.040
63774W        W28759  35.900   5.151   1.875
63775W        W28760   7.621   5.406  14.810
63776W        W28761  33.499  37.004  14.267
63777W        W28762  34.904  32.472  11.055
63778W        W28763  19.073  11.142   4.561
63779W        W28764  40.328  26.266   2.401
63780W        W28765  43.052  44.999  10.910
63781W        W28766   4.813  14.812   4.367
63782W        W28767  11.243  16.071  13.008
63783W        W28768   9.855   7.753  14.282
63784W        W28769  13.316   8.557  13.878
63785W        W28770  26.672  17.813   1.168
63786W        W28771  20.465   1.499  12.035
63787W        W28772  11.966  15.075  14.988
63788W        W28773  27.938  24.866  14.139
63789W        W28774   1.540  39.345   1.371
63790W        W28775  12.598   5.466   4.020
63791W        W28776  25.748  21.711   2.848
63792W        W28777  12.594  18.187   3.529
63793W        W28778   8.757  14.777   3.998
63794W        W28779  25.598  31.579   1.356
63795W        W28780  44.148  28.700  13.288
63796W        W28781  27.530  28.452   0.011
63797W        W28782  35.516  36.612   0.326
63798W        W28783   1.317  29.657   2.369
63799W        W28784  12.085   7.317   1.790
63800W        W28785  24.907   8.581   2.740
63801W        W28786  11.838   0.785   4.995
63802W        W28787  16.061  24.692   3.179
63803W        W28788  27.495  40.493   2.167
63804W        W28789  39.050  11.340   3.279
63805W        W28790  15.067  40.396  12.392
63806W        W28791  10.365   4.529  14.272
63807W        W28792   0.975  32.393   0.296
63808W        W28793  33.873  28.538   1.946
63809W        W28794   0.727   8.449  12.451
63810W        W28795  37.968  38.157   3.166
63811W        W28796  40.048   6.107  13.432
63812W        W28797   2.795  16.676   3.729
63813W        W28798  31.978  24.857  13.967
63814W        W28799  22.122  10.799  13.357
63815W        W28800  20.176  31.691  14.612
63816W        W28801  21.021  39.813  11.737
63817W        W28802  41.199  22.453  10.771
63818W        W28803   9.279  37.512  13.545
63819W        W28804  32.429  32.127  13.012
63820W        W28805   6.316  32.397  13.278
63821W        W28806  25.560  25.183   3.035
63822W        W28807  35.382  29.199   0.537
63823W        W28808  44.369  25.971   2.658
63824W        W28809  37.910   6.932  12.854
63825W        W28810  25.768  33.128   2.380
63826W        W28811   1.746   4.195  11.602
63827W        W28812  43.870  40.830  13.766
63828W        W28813   8.716   1.661   3.268
63829W        W28814  40.989   4.839  14.287
63830W        W28815  11.254  21.234  14.077
63831W        W28816   8.145  19.435  10.914
63832W        W28817  16.218  30.110  13.917
63833W        W28818  25.221  38.292   3.653
63834W        W28819  18.764  21.129   0.680
63835W        W28820   7.172  27.696   1.162
63836W        W28821  29.581  16.157  11.195
63837W        W28822  43.857  12.771   1.408
63838W        W28823   1.417  39.094   1.842
63839W        W28824  33.093  20.270  12.619
63840W        W28825   0.196  41.950   3.239
63841W        W28826  14.316  11.641  13.863
63842W        W28827   4.715  12.243  10.719
63843W        W28828  43.271   0.310   1.968
63844W        W28829  15.932  37.174  11.085
63845W        W28830   5.995  38.384  11.127
63846W        W28831  35.086   0.013  14.586
63847W        W28832  13.406  15.303  10.668
63848W        W28833  32.735  13.698  11.132
63849W        W28834   8.133  17.194  13.001
63850W        W28835   0.479  42.517  14.264
63851W        W28836  41.432  39.963   3.200
63852W        W28837  17.660   8.512   3.978
63853W        W28838   4.371  36.885  14.217
63854W        W28839   1.862  15.599   4.534
63855W        W28840  24.001  19.798   2.205
63856W        W28841  31.874  35.584   3.789
63857W        W28842  24.237  14.027   3.188
63858W        W28843  42.457  44.272  14.371
63859W        W28844  12.297  43.928  11.449
63860W        W28845  14.288   1.198  12.824
63861W        W28846  20.097  33.393   4.692
63862W        W28847  32.642  41.310  13.529
63863W        W28848  38.358   7.897  13.967
63864W        W28849  13.004  44.440  12.407
63865W        W28850  34.319  10.332  13.441
63866W        W28851  28.060  11.913   1.202
63867W        W28852  15.679  36.585  13.338
63868W        W28853  20.602   8.574  11.467
63869W        W28854   8.055   7.168   4.034
63870W        W28855   1.427  34.477   2.686
63871W        W28856  21.007  16.642  10.237
63872W        W28857  38.435  38.343  11.639
63873W        W28858   4.956  42.807   4.606
63874W        W28859  10.257   7.116  12.460
63875W        W28860   2.668  40.439  11.377
63876W        W28861  14.323  26.532   1.918
63877W        W28862  17.167  34.155  11.625
63878W        W28863  39.274  38.739   0.865
63879W        W28864  17.327  30.528   0.760
63880W        W28865  18.547  25.330  12.191
63881W        W28866   9.507  43.284  11.176
63882W        W28867  40.772  33.570   2.284
63883W        W28868   4.894  14.525  12.416
63884W        W28869  41.080   1.007   1.877
63885W        W28870  16.053   6.719  13.065
63886W        W28871  12.374   0.237   0.383
63887W        W28872  39.444  27.805   0.744
63888W        W28873  28.142  10.244   1.797
63889W        W28874  43.796  16.669  12.903
63890W        W28875  22.018  41.933  12.379
63891W        W28876   4.894   2.685  11.597
63892W        W28877   3.259  21.359  14.393
63893W        W28878  33.155  11.275   3.312
63894W        W28879   5.351  22.111  12.538
63895W        W28880   9.869  34.596  14.306
63896W        W28881  44.352  31.210  11.651
63897W        W28882  11.209  12.810   1.282
63898W        W28883  42.597  15.341  12.099
63899W        W28884   7.812  21.549   1.236
63900W        W28885  28.682  16.114  14.001
63901W        W28886  17.220  40.542  13.511
63902W        W28887  32.879  17.357   4.945
63903W        W28888  43.396  22.404   3.691
63904W        W28889  26.570   8.883   3.756
63905W        W28890   1.301   1.484   3.998
63906W        W28891  16.968   8.696  13.996
63907W        W28892  41.553  15.752  13.990
63908W        W28893   0.982  20.250  12.604
63909W        W28894  38.795  34.906  11.565
63910W        W28895   3.008  37.828   2.375
63911W        W28896  27.273  13.376   3.672
63912W        W28897  37.464  31.122   4.585
63913W        W28898  24.703   2.179  14.318
63914W        W28899   3.387   0.288   0.040
63915W        W28900  41.431   7.832  13.363
63916W        W28901  34.520  22.927  13.290
63917W        W28902  11.214  40.064   2.815
63918W        W28903  36.071  17.825   3.855
63919W        W28904  19.229  34.540  11.999
63920W        W28905  21.271  38.944   0.393
63921W        W28906  22.463  23.688  12.578
63922W        W28907  11.582  42.999   1.188
63923W        W28908   2.023  19.236   3.231
63924W        W28909  34.445  37.615   2.251
63925W        W28910   5.587  23.299  14.392
63926W        W28911  34.595   5.208   2.682
63927W        W28912  18.497   3.864  12.476
63928W        W28913  12.549  13.660  11.571
63929W        W28914   0.926  10.634  14.463
63930W        W28915  33.420   5.355  10.562
63931W        W28916  34.445   2.001   4.695
63932W        W28917   1.091  16.640   2.676
63933W        W28918  44.037  18.677   2.290
63934W        W28919  10.877  20.252   1.854
63935W        W28920  37.998  31.486   3.175
63936W        W28921  36.263   2.710   2.915
63937W        W28922  34.401   5.309  13.017
63938W        W28923  15.289   4.910  13.339
63939W        W28924  36.619  20.902  14.392
63940W        W28925  13.243  11.312   4.433
63941W        W28926  13.115  35.473  10.750
63942W        W28927   8.089  44.460  14.586
63943W        W28928   7.420  14.083   2.214
63944W        W28929   5.145  31.921  13.824
63945W        W28930  26.497  43.599   1.847
63946W        W28931  21.409  43.606  14.457
63947W        W28932  21.155  25.452  10.675
63948W        W28933  10.943   2.458   3.828
63949W        W28934   7.438   2.335   1.301
63950W        W28935   7.376   7.897  11.129
63951W        W28936   9.677  21.950  13.459
63952W        W28937  28.010  43.732  11.608
63953W        W28938  37.029  31.405   4.621
63954W        W28939  40.836   5.188   2.196
63955W        W28940  15.193  35.559  12.578
63956W        W28941   8.093  22.604  13.728
63957W        W28942  28.564  20.733   0.048
63958W        W28943   4.292  40.887   3.348
63959W        W28944  23.368  38.138   4.510
63960W        W28945   8.167  28.862   0.370
63961W        W28946  37.958  21.571   4.531
63962W        W28947  26.556  28.947   9.837
63963W        W28948   1.899  37.856   1.863
63964W        W28949   8.207  28.012   0.942
63965W        W28950  28.607   6.196  14.921
63966W        W28951   7.955  40.192  11.617
63967W        W28952  39.535  37.368  12.901
63968W        W28953  38.997  37.008  13.917
63969W        W28954   6.568   5.911   3.485
63970W        W28955  15.034  29.942  12.568
63971W        W28956   3.505  30.548  13.580
63972W        W28957   8.894   8.159   3.119
63973W        W28958  23.725  28.167   2.393
63974W        W28959  11.806   1.963   4.132
63975W        W28960  26.981   5.637   0.797
63976W        W28961  21.901  43.786  12.558
63977W        W28962  34.853  11.804  10.442
63978W        W28963  31.846  43.848  13.057
63979W        W28964  18.076  38.376   2.295
63980W        W28965  11.274  27.399  11.364
63981W        W28966   6.781   5.429   0.371
63982W        W28967  26.563  32.642   5.416
63983W        W28968  24.263  32.471  11.625
63984W        W28969  10.096  32.937  11.992
63985W        W28970   2.032  37.322   4.978
63986W        W28971  41.534  32.663  11.654
63987W        W28972  42.007  30.541   3.642
63988W        W28973  38.747   0.824   2.310
63989W        W28974  30.447  14.082   1.243
63990W        W28975  36.102  10.888   2.856
63991W        W28976   9.204  15.289   1.921
63992W        W28977  32.724   4.964   0.376
63993W        W28978  44.820   3.692   1.335
63994W        W28979  37.536  26.994  10.278
63995W        W28980  22.062  27.544   3.364
63996W        W28981  15.825   7.552   2.860
63997W        W28982  34.533  23.840  13.380
63998W        W28983   9.996   5.891   3.629
63999W        W28984  34.675   3.864  11.239
64000W        W28985  34.071  26.005  11.137
64001W        W28986  18.120   7.253  12.028
64002W        W28987   7.666  41.419   0.048
64003W        W28988  25.719  15.304  12.549
64004W        W28989  23.524  12.355   1.722
64005W        W28990   0.763  30.757   1.254
64006W        W28991  25.793  16.648   2.255
64007W        W28992   6.357   3.275   4.980
64008W        W28993   1.314  24.924   1.548
64009W        W28994  35.643  34.703  13.441
64010W        W28995  44.619  13.872   0.908
64011W        W28996   6.945  22.979  14.022
64012W        W28997  13.372  32.815  13.045
64013W        W28998  26.507  28.348  12.397
64014W        W28999  42.403  16.148  14.479
64015W        W29000  29.096  17.487   4.535
64016W        W29001  37.917   2.464   3.317
64017W        W29002  22.524   9.578  11.064
64018W        W29003  19.049   5.470   1.907
64019W        W29004  31.804  36.979  12.230
64020W        W29005  23.724   3.809  14.983
64021W        W29006  10.185  32.356  13.145
64022W        W29007  31.395  27.788   1.974
64023W        W29008  20.311  18.870  14.106
64024W        W29009  11.275  15.670   4.070
64025W        W29010   3.677   5.321   1.280
64026W        W29011  18.669   8.078   4.108
64027W        W29012  25.482   4.526  12.364
64028W        W29013   6.585   7.129   0.955
64029W        W29014   0.070  41.306  13.999
64030W        W29015   3.853  39.855  10.684
64031W        W29016  26.184  23.524   0.169
64032W        W29017   7.818  22.228   2.459
64033W        W29018  37.586  19.469   1.730
64034W        W29019   6.435  25.524   0.760
64035W        W29020  31.842  29.908   3.248
64036W        W29021   7.295  17.240  12.726
64037W        W29022  37.526   2.227   3.081
64038W        W29023   0.810  33.920  12.891
64039W        W29024  24.085  20.566   2.748
64040W        W29025  23.285  24.521   3.608
64041W        W29026  35.592   3.894  12.197
64042W        W29027  21.349  18.477  14.898
64043W        W29028   5.381  29.364   3.932
64044W        W29029  38.579  38.605   1.284
64045W        W29030  24.737  30.902  14.509
64046W        W29031   9.824  28.078   0.012
64047W        W29032  17.051  18.527   2.271
64048W        W29033  10.319  20.808   2.317
64049W        W29034  11.804  31.978   1.737
64050W        W29035  23.928   8.102   0.687
64051W        W29036   3.281   1.340  11.136
64052W        W29037  40.438   5.694  12.578
64053W        W29038  23.554  18.294   0.302
64054W        W29039  26.146  26.063  11.779
64055W        W29040   2.806   0.964   0.769
64056W        W29041   3.454  20.688  14.800
64057W        W29042  12.235  43.360   0.047
64058W        W29043   0.901  29.969  14.490
64059W        W29044   9.850  25.950  13.566
64060W        W29045   8.851  15.235  11.644
64061W        W29046  16.480   2.445   3.364
64062W        W29047  13.578  15.629  12.452
64063W        W29048  43.034  38.571   2.639
64064W        W29049  42.390   2.894  12.998
64065W        W29050  25.148  14.409   3.239
64066W        W29051  11.234  38.425   2.879
64067W        W29052  43.326  39.929  12.104
64068W        W29053  17.230   3.696   1.202
64069W        W29054  31.484  25.983  12.620
64070W        W29055  34.062  42.404  10.755
64071W        W29056  14.193  43.206  13.932
64072W        W29057  31.342  26.147   2.159
64073W        W29058  31.090  34.463   4.544
64074W        W29059   7.464  41.884  14.885
64075W        W29060   1.161  12.300  14.067
64076W        W29061  32.556  21.576   3.737
64077W        W29062  32.397  30.382   0.836
64078W        W29063   6.232  14.590   0.059
64079W        W29064  34.556  41.368   3.620
64080W        W29065  30.394  44.667   3.757
64081W        W29066  25.752  28.544  12.267
64082W        W29067  17.059   9.204  12.339
64083W        W29068  24.904  17.646   0.493
64084W        W29069  34.341  31.156  11.687
64085W        W29070  32.086  29.567  14.765
64086W        W29071   4.784  20.705  12.454
64087W        W29072   8.738  32.717  13.271
64088W        W29073  42.211  38.240   5.443
64089W        W29074  42.531  35.332   2.754
64090W        W29075  21.744  23.377  12.124
64091W        W29076   1.882  39.259  13.946
64092W        W29077  41.552  15.732  11.031
64093W        W29078  37.480  36.478  13.072
64094W        W29079  26.755  30.854   2.111
64095W        W29080  13.215  32.553   2.922
64096W        W29081  34.023   9.081   4.214
64097W        W29082  33.146  10.483   2.744
64098W        W29083   2.113  25.214   1.522
64099W        W29084  37.855   8.453   3.656
64100W        W29085  35.113  40.231  10.809
64101W        W29086  44.276  29.066  13.636
64102W        W29087  29.449  16.749  12.624
64103W        W29088  33.175   0.898   2.555
64104W        W29089  41.260  26.612  12.908
64105W        W29090  32.450  20.754  13.484
64106W        W29091  24.577   3.220  11.702
64107W        W29092  15.246  22.635  12.827
64108W        W29093  27.025   8.676  10.732
64109W        W29094  14.362  35.938   1.744
64110W        W29095  17.795  32.452   0.483
64111W        W29096  17.583   1.881  14.974
64112W        W29097  18.160  10.158  12.583
64113W        W29098  15.455  17.041   0.923
64114W        W29099  11.266  30.688  11.168
64115W        W29100  29.866  19.173   1.722
64116W        W29101  33.062   7.371  13.938
64117W        W29102  26.476  20.807   0.294
64118W        W29103  31.326  21.920  13.301
64119W        W29104   0.691  30.966  13.933
64120W        W29105  20.661  40.538   4.327
64121W        W29106  38.172  42.898   4.230
64122W        W29107  33.634  37.824   4.538
64123W        W29108  19.699  29.117   2.219
64124W        W29109   5.801  36.832  12.058
64125W        W29110  13.950  19.151   4.412
64126W        W29111  40.275  12.128   1.381
64127W        W29112   7.756  19.301  12.530
64128W        W29113  22.509  36.552  10.655
64129W        W29114  14.365   0.334  12.370
64130W        W29115  28.441  12.259  12.353
64131W        W29116  44.634  26.198   1.576
64132W        W29117   8.210  34.888   0.797
64133W        W29118  15.042  31.684  12.893
64134W        W29119  37.960  36.867  14.398
64135W        W29120   3.756  11.060   4.201
64136W        W29121  15.666  41.730   2.377
64137W        W29122  10.407  27.322  10.940
64138W        W29123  43.314  19.913   5.405
64139W        W29124  10.862  18.353   5.228
64140W        W29125   5.477  19.183   3.704
64141W        W29126  27.533   8.619   3.883
64142W        W29127  28.131  10.880   2.498
64143W        W29128  18.240  28.949   0.901
64144W        W29129  38.755  19.888  12.575
64145W        W29130  29.038  30.162   0.300
64146W        W29131  39.049  38.661   0.416
64147W        W29132  21.100   2.722   2.651
64148W        W29133  11.826  44.822  14.005
64149W        W29134  18.314   9.788  13.096
64150W        W29135  19.034  30.051  13.990
64151W        W29136  13.815  35.937   4.726
64152W        W29137  30.384  19.691   1.183
64153W        W29138  28.290  30.608  12.842
64154W        W29139  19.846   3.411   5.008
64155W        W29140   6.901   6.268  12.522
64156W        W29141  13.376   9.667   1.218
64157W        W29142  29.004   3.975  14.350
64158W        W29143   9.773  33.207   2.441
64159W        W29144   8.575  30.021  11.540
64160W        W29145  20.696  17.014   0.983
64161W        W29146  31.084   9.213  11.674
64162W        W29147  21.502  14.861   1.364
64163W        W29148  13.106  32.953  12.078
64164W        W29149  19.814   7.936   2.347
64165W        W29150  24.271  43.275  14.276
64166W        W29151  19.719   9.757  14.800
64167W        W29152  44.485  44.803  13.978
64168W        W29153  18.202  28.454   3.281
64169W        W29154   6.763  36.463  12.243
64170W        W29155  43.320  23.203   0.506
64171W        W29156  31.695  38.472  10.343
64172W        W29157  15.529  32.880   3.017
64173W        W29158  17.258  26.224   4.265
64174W        W29159  33.489  14.306  12.638
64175W        W29160  11.203   3.540   5.002
64176W        W29161  41.045  41.551  11.163
64177W        W29162  32.409   5.430   1.763
64178W        W29163  42.933  30.593  13.308
64179W        W29164  17.313  23.992   3.711
64180W        W29165  16.211  12.539   0.966
64181W        W29166  19.553   5.600   2.686
64182W        W29167  17.326  10.115   1.707
64183W        W29168   5.411  34.871  14.877
64184W        W29169  11.177  36.387   0.957
64185W        W29170  24.021   5.418  13.479
64186W        W29171  17.561  31.205   3.464
64187W        W29172  30.066  43.956  11.364
64188W        W29173  18.326  38.998  13.727
64189W        W29174  42.472  11.860   1.403
64190W        W29175  17.538  10.879  11.493
64191W        W29176  14.023  16.753   0.930
64192W        W29177  36.075  11.836   4.885
64193W        W29178  32.976   3.917   1.475
64194W        W29179  37.840  44.438  12.993
64195W        W29180  20.059   8.715   0.369
64196W        W29181  11.233   6.613  14.359
64197W        W29182   4.807  40.259  11.185
64198W        W29183   3.118   9.869   4.054
64199W        W29184  39.263  28.053  13.090
64200W        W29185  33.827  15.765   1.908
64201W        W29186  40.977  26.800   4.981
64202W        W29187  13.203   8.537   1.132
64203W        W29188   4.519  31.481  11.908
64204W        W29189  40.463  38.027   2.015
64205W        W29190   3.342  33.378   1.405
64206W        W29191  36.634  42.476   0.837
64207W        W29192   2.269  39.179   4.548
64208W        W29193  33.271  26.268   2.303
64209W        W29194  12.212  29.412  11.484
64210W        W29195   6.602  34.033   1.844
64211W        W29196   5.109   6.153  10.430
64212W        W29197  19.683   0.974  10.754
64213W        W29198  39.137   2.823  14.876
64214W        W29199  12.876  16.185   4.523
64215W        W29200  29.630  31.359   1.295
64216W        W29201  28.671   6.926  13.280
64217W        W29202  11.998  39.973  14.246
64218W        W29203  39.453  20.697   0.864
64219W        W29204  23.556   7.427  13.530
64220W        W29205  25.919  30.124   2.422
64221W        W29206  13.043  44.484  13.333
64222W        W29207   7.313  22.055  10.717
64223W        W29208  11.877  26.955   0.662
64224W        W29209  11.702  32.407   3.617
64225W        W29210  43.032   6.164  11.702
64226W        W29211   7.326  12.956  14.936
64227W        W29212  23.717  42.645   3.227
64228W        W29213  17.735  39.417  11.103
64229W        W29214  21.094  22.634  11.611
64230W        W29215  20.307  29.541  10.016
64231W        W29216   8.374   9.851   4.598
64232W        W29217  42.001  11.741   3.159
64233W        W29218   0.494  40.830  11.644
64234W        W29219  41.939  20.094   1.335
64235W        W29220   0.354  44.979   3.209
64236W        W29221   7.383  24.624  12.574
64237W        W29222  36.415  12.978   4.156
64238W        W29223   2.426  13.146   1.712
64239W        W29224   6.109  36.440   0.333
64240W        W29225   3.351  13.182  14.692
64241W        W29226  38.894   5.471   0.218
64242W        W29227   5.777  11.361  13.909
64243W        W29228  27.604  11.146   4.616
64244W        W29229  24.918  17.563  12.373
64245W        W29230  18.309  20.877  12.680
64246W        W29231  32.607  14.905  11.510
64247W        W29232  40.983   5.574   2.530
64248W        W29233  44.822   2.186  13.814
64249W        W29234  26.657  42.272  10.757
64250W        W29235   4.693  41.474   1.428
64251W        W29236   8.090   4.200   4.587
64252W        W29237  11.629  29.428  12.981
64253W        W29238  19.147   6.433   4.678
64254W        W29239  25.478  36.473   0.205
64255W        W29240  38.550  20.032  13.498
64256W        W29241  38.772  34.307   4.246
64257W        W29242  13.972  18.303  11.976
64258W        W29243  38.005  32.796   3.155
64259W        W29244  19.648   9.341   2.132
64260W        W29245  26.165  36.924   3.224
64261W        W29246  38.995  37.610   4.545
64262W        W29247  19.190   4.782   1.467
64263W        W29248  21.693  18.538  13.076
64264W        W29249   1.231  40.578   1.768
64265W        W29250  19.683   8.047  11.868
64266W        W29251   1.851  33.913   2.208
64267W        W29252   9.066  21.191  14.359
64268W        W29253  24.991   8.640  13.580
64269W        W29254  34.469  12.845  12.796
64270W        W29255  21.247  38.442  13.758
64271W        W29256  10.515  29.983   0.272
64272W        W29257  16.758  30.759  11.239
64273W        W29258   9.679  27.064   3.752
64274W        W29259  41.002  39.602   0.023
64275W        W29260  15.564  35.962   1.429
64276W        W29261   2.402  20.060  13.992
64277W        W29262  30.556  40.502  14.575
64278W        W29263  17.870  20.778   4.522
64279W        W29264  38.114   7.817  10.720
64280W        W29265  19.344  40.972   4.916
64281W        W29266  30.995   4.681  12.982
64282W        W29267  26.614  32.335  13.986
64283W        W29268  39.917  22.721  13.519
64284W        W29269  16.713  44.528   0.545
64285W        W29270   4.401  23.848   0.463
64286W        W29271  13.189  15.627   2.028
64287W        W29272  23.790  33.994   4.766
64288W        W29273  36.570  42.879   4.962
64289W        W29274  33.093   2.259   0.011
64290W        W29275   5.273  20.143   1.802
64291W        W29276  16.850  42.970  14.444
64292W        W29277  21.624  39.786   1.790
64293W        W29278   8.093  13.321  13.320
64294W        W29279  36.094  26.134  12.996
64295W        W29280  14.281  11.409   2.220
64296W        W29281  32.529   4.920   2.433
64297W        W29282  19.649  19.215   4.062
64298W        W29283   1.368  14.830   0.354
64299W        W29284  39.975  21.088  13.439
64300W        W29285  19.386  13.348  14.559
64301W        W29286   9.301   8.966   2.240
64302W        W29287  17.905  32.138   2.887
64303W        W29288   0.820   2.662   3.599
64304W        W29289  44.580  38.347   3.175
64305W        W29290  32.009  39.471   1.228
64306W        W29291  18.056  22.600   3.762
64307W        W29292  41.922  10.124   3.346
64308W        W29293  40.389   1.540  14.969
64309W        W29294  42.204  39.762  13.978
64310W        W29295   3.905  15.180   4.021
64311W        W29296  15.176  42.284   1.471
64312W        W29297   8.446  31.452  13.478
64313W        W29298  25.591  14.704   0.936
64314W        W29299  44.045  20.738  12.356
64315W        W29300  15.836  21.973  12.491
64316W        W29301  30.822  24.655   4.805
64317W        W29302  18.661   2.436  13.005
64318W        W29303   1.871  37.391  10.790
64319W        W29304   7.103  11.953  14.887
64320W        W29305  35.545  22.565   3.696
64321W        W29306  23.935   7.839   0.245
64322W        W29307  31.918  19.785   1.193
64323W        W29308   6.140  30.937   2.384
64324W        W29309  18.835   2.103  11.260
64325W        W29310   7.502  19.653  12.092
64326W        W29311  23.639  28.616   1.671
64327W        W29312   5.406  40.322  10.548
64328W        W29313  28.307  33.415  14.881
64329W        W29314  33.115  14.229   3.573
64330W        W29315  22.799   3.163  12.816
64331W        W29316  41.253  22.333  11.590
64332W        W29317   6.134  14.072   0.979
64333W        W29318  35.171  22.054  13.769
64334W        W29319   6.325  11.578  10.754
64335W        W29320  19.007  19.159   1.995
64336W        W29321   1.350  15.601  13.858
64337W        W29322  18.548  29.077  12.008
64338W        W29323  32.370  30.922  12.454
64339W        W29324   0.875  18.159   9.924
64340W        W29325  26.172   7.312   3.217
64341W        W29326  37.351   3.135   2.805
64342W        W29327  32.593  16.512  11.080
64343W        W29328  38.776  31.543  13.929
64344W        W29329   0.491  14.330  11.538
64345W        W29330  36.281   4.212   1.860
64346W        W29331  23.894  30.275   4.116
64347W        W29332  35.572  25.394  14.610
64348W        W29333  12.655  25.490  13.512
64349W        W29334  26.106  42.931   1.226
64350W        W29335   8.375  18.041  12.558
64351W        W29336  12.219   8.219   5.082
64352W        W29337  13.110  44.188  14.595
64353W        W29338   2.794  34.461  14.528
64354W        W29339  32.979  33.068   2.400
64355W        W29340  27.009  24.415  13.022
64356W        W29341  11.232  43.736  13.336
64357W        W29342  29.160  32.931   1.738
64358W        W29343  12.184   7.397   2.571
64359W        W29344  40.351   5.925   1.780
64360W        W29345  27.471  42.743   3.183
64361W        W29346  35.930  33.442  14.036
64362W        W29347  24.248  42.381  11.160
64363W        W29348  22.145  19.496  12.125
64364W        W29349   4.866   5.826   2.758
64365W        W29350  27.204  40.528   1.069
64366W        W29351  31.545  22.447   1.340
64367W        W29352   5.902  27.051  13.910
64368W        W29353   3.730  21.210  14.000
64369W        W29354  21.148  35.610  11.594
64370W        W29355  30.035   2.142   2.585
64371W        W29356   3.387  30.147  14.459
64372W        W29357  39.798  23.366   4.289
64373W        W29358  11.261  44.324   1.321
64374W        W29359  31.287  42.490   3.671
64375W        W29360  35.340  11.511   3.750
64376W        W29361  12.717  38.559   3.346
64377W        W29362  14.297   9.801   4.611
64378W        W29363  30.500  42.518  13.365
64379W        W29364   7.225  10.653   1.436
64380W        W29365  21.480  43.824  14.967
64381W        W29366  44.403  22.688  13.099
64382W        W29367  39.586  42.698   2.577
64383W        W29368  27.494  28.642  12.265
64384W        W29369   9.710  12.794  13.610
64385W        W29370  30.367  35.897  11.772
64386W        W29371  26.233   5.172  11.071
64387W        W29372   4.680  27.173  13.337
64388W        W29373  12.766  40.519  11.946
64389W        W29374  10.364   2.361  10.466
64390W        W29375  41.869  13.792  12.598
64391W        W29376  31.966  26.212  14.500
64392W        W29377   7.200  12.419  13.632
64393W        W29378  43.763  16.135   0.431
64394W        W29379  37.566  25.437   2.160
64395W        W29380  29.387  33.382   2.915
64396W        W29381  39.414  30.375  13.241
64397W        W29382   3.798  19.454   4.140
64398W        W29383  13.167  15.673  10.368
64399W        W29384  31.609  10.657  11.797
64400W        W29385  22.645  29.002   3.567
64401W        W29386  40.592   1.713   0.481
64402W        W29387   2.305  28.021   5.194
64403W        W29388  20.670   1.382   1.655
64404W        W29389  29.375  27.529   1.213
64405W        W29390  37.861  20.522   1.217
64406W        W29391  23.912  27.081  11.646
64407W        W29392  22.992  26.982  12.169
64408W        W29393  15.643   3.578   2.492
64409W        W29394   1.785  36.098   4.129
64410W        W29395  40.279  38.479   2.337
64411W        W29396  44.578  21.184   2.782
64412W        W29397  36.942   2.154  11.554
64413W        W29398   3.457  43.529   4.047
64414W        W29399  29.564  17.126  10.273
64415W        W29400   2.592   6.930   2.142
64416W        W29401   5.693  34.415  14.922
64417W        W29402  42.914  10.804  10.730
64418W        W29403  22.305  25.028  14.961
64419W        W29404  27.563  40.300   0.735
64420W        W29405  31.151  19.162  13.141
64421W        W29406  29.497  37.932  14.249
64422W        W29407  22.625   1.289   3.384
64423W        W29408  26.708  14.939  14.197
64424W        W29409  32.702  11.139  14.377
64425W        W29410  30.163   2.936  12.402
64426W        W29411   9.843   9.841  11.672
64427W        W29412  27.684  18.739   4.407
64428W        W29413  31.510  42.007   3.419
64429W        W29414  44.761  20.697  13.941
64430W        W29415  28.096   0.825   1.735
64431W        W29416  40.364  18.282   1.487
64432W        W29417   8.172  22.560   0.446
64433W        W29418   3.282  32.866   2.205
64434W        W29419  12.101  14.247  13.323
64435W        W29420   2.006   8.842   0.825
64436W        W29421  37.528  40.049  13.542
64437W        W29422  42.344  43.295  14.427
64438W        W29423  21.997  27.032  10.553
64439W        W29424  36.085  19.949   1.507
64440W        W29425  26.627  17.489   0.765
64441W        W29426   0.453  25.121  10.508
64442W        W29427  21.531  30.024   4.384
64443W        W29428  11.940  22.112   2.724
64444W        W29429  19.444  25.473   4.251
64445W        W29430  28.412   4.482   1.149
64446W        W29431  21.662  33.116   1.730
64447W        W29432   4.724   2.980  11.992
64448W        W29433  18.337  26.488  11.765
64449W        W29434  37.022  38.119   1.265
64450W        W29435   3.953  18.254  14.558
64451W        W29436  27.694   7.736   0.910
64452W        W29437  42.266   6.565  11.868
64453W        W29438  44.830  41.136  10.332
64454W        W29439  17.639  31.828   2.324
64455W        W29440  43.420  43.521   4.628
64456W        W29441  16.301  30.256   4.566
64457W        W29442  43.433  38.800  14.326
64458W        W29443   5.193  11.239   3.185
64459W        W29444  14.243  16.174   1.249
64460W        W29445  26.938  17.185  14.482
64461W        W29446  30.166  38.994  12.470
64462W        W29447  17.594   2.729   1.200
64463W        W29448   7.599   3.676  14.823
64464W        W29449   1.911  23.251  12.310
64465W        W29450  37.098  41.618   0.973
64466W        W29451  19.816  37.022  12.496
64467W        W29452   8.362  26.047   0.437
64468W        W29453  13.292  20.623   0.294
64469W        W29454  21.415  40.014  11.485
64470W        W29455  27.432  16.047   1.627
64471W        W29456   0.758  23.508   1.752
64472W        W29457  30.770  30.344   3.641
64473W        W29458  37.880  44.989  11.004
64474W        W29459  10.388  37.382  13.748
64475W        W29460  34.600  38.565  14.460
64476W        W29461  17.303  14.615  14.917
64477W        W29462   9.775  43.171   0.243
64478W        W29463   5.868   2.862  14.678
64479W        W29464   6.216   0.550  14.282
64480W        W29465  25.991  16.708   3.553
64481W        W29466  43.812  11.010   2.202
64482W        W29467  20.140  26.595   0.999
64483W        W29468  14.322   0.231   3.600
64484W        W29469  44.005  13.598  13.490
64485W        W29470  14.258  17.306   0.326
64486W        W29471  33.040  31.342  13.869
64487W        W29472  24.538  43.937  13.555
64488W        W29473  23.549  27.994  13.820
64489W        W29474  27.026  41.984   0.698
64490W        W29475  20.651  36.358  12.568
64491W        W29476  12.369  13.453  12.794
64492W        W29477   8.707  39.392   3.574
64493W        W29478   3.748  44.341  12.677
64494W        W29479  34.964  38.586   2.254
64495W        W29480  11.191   7.390   1.435
64496W        W29481   1.002  11.287  14.846
64497W        W29482  27.434  37.997  14.316
64498W        W29483  28.846   1.676  14.019
64499W        W29484  31.207   4.873  13.933
64500W        W29485   5.626  42.692  14.790
64501W        W29486   1.833   2.388  12.944
64502W        W29487  22.435  27.962   1.947
64503W        W29488  22.667   3.656  14.784
64504W        W29489  20.176  14.203   3.667
64505W        W29490   4.735  34.136   4.369
64506W        W29491  28.998  14.701  12.149
64507W        W29492  30.090  34.142  13.424
64508W        W29493  16.497   5.395  14.536
64509W        W29494  13.289  11.679  13.926
64510W        W29495  39.293  13.038   1.500
64511W        W29496  30.956  22.108   2.087
64512W        W29497  21.567  35.012   0.453
64513W        W29498  27.733  13.732   0.173
64514W        W29499   7.835  13.079  14.040
64515W        W29500  32.070   0.535  11.946
64516W        W29501  44.312  19.331   4.135
64517W        W29502  22.196  19.190   2.647
64518W        W29503  22.254  27.561  11.551
64519W        W29504   0.572  39.672   0.074
64520W        W29505   0.752  17.612   1.762
64521W        W29506   7.648  16.723   1.749
64522W        W29507  30.554  37.037  12.030
64523W        W29508  28.855  16.471   4.579
64524W        W29509  22.171  15.259  12.915
64525W        W29510  29.606  11.287   1.772
64526W        W29511  20.740  14.556  11.924
64527W        W29512  24.004   0.012   2.336
64528W        W29513  39.104   0.261  13.035
64529W        W29514  26.300  29.751   0.449
64530W        W29515  22.214  24.339   2.060
64531W        W29516   6.755  12.699   3.620
64532W        W29517  25.418   6.357   0.125
64533W        W29518  34.396  20.030   0.508
64534W        W29519   9.753  38.154   0.760
64535W        W29520  28.554   1.414  13.118
64536W        W29521  39.929  10.249   3.831
64537W        W29522   1.412  33.281  12.934
64538W        W29523  10.332  29.486  13.548
64539W        W29524  32.591  36.608   0.892
64540W        W29525  18.547  27.974  10.616
64541W        W29526   8.660  13.793   1.664
64542W        W29527   1.724  38.777  13.021
64543W        W29528  31.558  39.678  11.405
64544W        W29529   9.295  35.094   1.355
64545W        W29530  35.579  17.205   1.652
64546W        W29531  44.202   9.815   2.778
64547W        W29532  21.125  37.885  10.897
64548W        W29533  34.552  23.483   4.694
64549W        W29534  37.807  31.989   3.224
64550W        W29535  31.367   0.145  11.193
64551W        W29536  13.470  36.334   0.038
64552W        W29537   0.953  39.893   3.872
64553W        W29538  34.128  32.673   0.564
64554W        W29539  43.805  24.699  13.506
64555W        W29540  26.892   1.443   1.798
64556W        W29541  39.083  21.550  11.499
64557W        W29542  33.892   6.195  11.634
64558W        W29543  29.045   0.052   0.281
64559W        W29544   7.790   8.948  11.499
64560W        W29545   8.678  24.002  11.502
64561W        W29546   1.473  31.439  14.948
64562W        W29547  32.205  32.178  13.480
64563W        W29548  31.401  38.279   2.245
64564W        W29549   9.911  22.026   2.787
64565W        W29550  38.481  33.339  13.016
64566W        W29551  43.985   9.343  14.434
64567W        W29552  13.376  32.542  11.945
64568W        W29553  37.465  21.042   2.611
64569W        W29554   8.067  20.925  14.352
64570W        W29555  20.047  19.006   2.266
64571W        W29556   7.334   3.458   0.285
64572W        W29557  11.368  35.982   4.471
64573W        W29558  28.289   0.623  13.395
64574W        W29559  29.647  22.728   2.182
64575W        W29560  30.196  19.400   2.321
64576W        W29561  39.766  27.838   0.321
64577W        W29562  38.375  31.669   0.292
64578W        W29563  40.031  33.560  14.357
64579W        W29564  32.335  16.502   1.330
64580W        W29565  26.064  12.044   0.915
64581W        W29566  30.653   3.824  11.781
64582W        W29567   8.533  34.689  11.020
64583W        W29568   9.448  24.561  10.420
64584W        W29569  38.115  11.273   1.828
64585W        W29570  42.033  30.143   5.055
64586W        W29571   9.620   0.228   3.610
64587W        W29572  20.669  35.571  11.172
64588W        W29573   5.060  21.125  12.645
64589W        W29574   9.638   2.543  12.032
64590W        W29575  33.477  44.440  11.948
64591W        W29576  38.883  43.538  11.848
64592W        W29577  10.619   3.292   2.593
64593W        W29578  11.937  41.256  12.635
64594W        W29579  35.225  37.291  11.320
64595W        W29580   9.746  17.177  11.185
64596W        W29581  15.565  42.975   4.481
64597W        W29582  12.834  20.649   0.531
64598W        W29583  11.852  14.282   2.745
64599W        W29584  41.831  14.534   0.864
64600W        W29585   1.291  43.216  11.526
64601W        W29586  19.054  19.327   0.449
64602W        W29587  43.996  10.651   4.620
64603W        W29588  20.134  39.028  13.474
64604W        W29589  10.670  18.771  11.579
64605W        W29590  37.131  39.964   4.539
64606W        W29591  13.044  33.408   2.817
64607W        W29592  27.453  26.126  10.697
64608W        W29593   5.680  23.834   1.354
64609W        W29594  23.260  29.711  12.384
64610W        W29595   1.639  44.593  14.409
64611W        W29596  40.009  18.113   0.708
64612W        W29597  26.245  21.248  11.584
64613W        W29598  12.934  28.437   1.745
64614W        W29599   6.448   1.046   2.236
64615W        W29600  32.437  32.134  12.056
64616W        W29601  21.822  15.640  12.950
64617W        W29602   5.912  30.943  14.554
64618W        W29603   3.266  17.264  10.565
64619W        W29604  33.495  27.738  11.533
64620W        W29605  11.762   3.314   0.468
64621W        W29606  18.665  12.451   2.593
64622W        W29607  15.274   4.618   0.522
64623W        W29608  41.292  43.923   2.095
64624W        W29609  19.143  28.571   3.187
64625W        W29610  16.945  15.308   1.473
64626W        W29611  42.010  19.959   5.044
64627W        W29612   5.825  12.287   3.843
64628W        W29613   6.298   6.343  12.858
64629W        W29614  37.901   5.471  11.962
64630W        W29615  16.570  17.854  12.266
64631W        W29616  24.162  15.663   0.281
64632W        W29617  33.039  38.527   2.390
64633W        W29618  22.364  10.730  12.521
64634W        W29619   8.724  23.118  14.935
64635W        W29620   5.243  38.916   3.829
64636W        W29621  16.412  43.728  11.159
64637W        W29622   4.473  44.690   3.118
64638W        W29623  19.067  13.577   1.820
64639W        W29624  33.563  30.992  14.726
64640W        W29625  29.898  24.493   1.230
64641W        W29626  11.452   3.661  11.463
64642W        W29627  12.372  24.568   3.891
64643W        W29628   2.782   7.915   3.375
64644W        W29629   0.826   1.361   0.952
64645W        W29630  18.772  36.554   3.745
64646W        W29631  20.884   7.809   4.685
64647W        W29632   9.326  24.089   4.364
64648W        W29633   6.275  18.709  13.557
64649W        W29634  26.301  42.762   1.670
64650W        W29635   2.941   8.329   0.769
64651W        W29636   9.806  34.820   1.194
64652W        W29637   9.236  33.932  11.950
64653W        W29638  15.468  31.703  10.128
64654W        W29639  38.605   8.747  14.781
64655W        W29640  35.993  43.263   2.742
64656W        W29641  26.925  23.792  12.533
64657W        W29642  41.057  40.967   4.033
64658W        W29643  22.036  27.968   2.900
64659W        W29644  26.902  36.339   3.167
64660W        W29645  18.611  26.921  13.887
64661W        W29646  10.161   6.789  14.372
64662W        W29647  24.252  38.117   3.570
64663W        W29648  12.115  34.605  11.215
64664W        W29649  23.002   8.745   0.390
64665W        W29650  36.379  36.232  12.514
64666W        W29651  32.247  27.165  13.915
64667W        W29652   7.765   1.132   4.997
64668W        W29653  19.697  42.046  14.894
64669W        W29654  40.358  40.987  12.556
64670W        W29655  13.916  27.092   3.609
64671W        W29656  38.462  17.616  12.226
64672W        W29657  17.912  26.002  12.499
64673W        W29658  35.925  29.144   0.558
64674W        W29659  33.658   3.356  11.130
64675W        W29660   8.588  31.354   3.868
64676W        W29661  30.404  18.123  14.388
64677W        W29662  21.228   7.641  11.577
64678W        W29663  34.674   6.008  10.093
64679W        W29664   2.806   6.107  10.711
64680W        W29665   9.793  23.789  11.515
64681W        W29666   6.457   2.890   3.281
64682W        W29667   5.580  34.057  10.715
64683W        W29668  28.957  39.655   1.320
64684W        W29669  43.216   1.936   3.023
64685W        W29670  28.047   4.659  11.513
64686W        W29671   2.454  22.258   2.209
64687W        W29672  27.063  44.047  10.638
64688W        W29673  11.882  24.692   1.605
64689W        W29674  21.137  10.719   3.690
64690W        W29675  32.182  35.583   2.278
64691W        W29676   4.902  11.647   1.842
64692W        W29677  41.053  25.068  14.058
64693W        W29678   7.611  34.147   1.749
64694W        W29679  33.198   6.672  10.586
64695W        W29680  15.190  18.376   3.356
64696W        W29681   2.817  24.571   0.376
64697W        W29682  18.546   9.594  13.528
64698W        W29683  41.015  20.279  11.657
64699W        W29684  12.817  35.902  12.427
64700W        W29685  37.962  10.390   1.182
64701W        W29686  11.862   5.079   2.796
64702W        W29687  28.240  25.851   3.357
64703W        W29688  12.405  17.221  12.949
64704W        W29689   4.529   5.687  13.088
64705W        W29690   2.933  42.023  10.830
64706W        W29691  22.541  12.052   0.307
64707W        W29692  11.726  39.495  13.153
64708W        W29693  35.685  15.304   3.700
64709W        W29694   4.035   3.392   0.100
64710W        W29695  36.395   0.049   1.320
64711W        W29696   6.949  39.107  13.510
64712W        W29697  42.803  26.677  11.258
64713W        W29698  36.881  19.348   0.012
64714W        W29699  39.839  34.828   0.755
64715W        W29700  11.368  17.777   1.780
64716W        W29701  22.040  35.982  14.396
64717W        W29702  33.437   4.171  12.294
64718W        W29703  29.870  44.617   3.650
64719W        W29704  15.654   8.584  13.430
64720W        W29705  27.666  31.969   2.381
64721W        W29706  27.111  19.236  12.474
64722W        W29707  26.600  29.272   4.683
64723W        W29708  25.103  41.532  11.354
64724W        W29709  35.605  21.931  14.031
64725W        W29710  18.611  41.015  14.732
64726W        W29711  30.474   7.362  11.447
64727W        W29712  43.304  31.845  13.564
64728W        W29713  38.292  12.630   2.167
64729W        W29714  31.022  19.533   2.576
64730W        W29715   6.131  29.000  13.733
64731W        W29716  43.966  24.518   5.060
64732W        W29717  19.134  17.160   1.794
64733W        W29718  15.857  26.740   0.781
64734W        W29719  41.394  16.008  13.118
64735W        W29720  24.064  18.545   4.292
64736W        W29721   7.934  28.301  12.845
64737W        W29722   1.981   0.134   2.382
64738W        W29723   4.929  25.165  11.036
64739W        W29724  44.045   3.960  12.418
64740W        W29725  14.557  16.304   3.810
64741W        W29726  22.645  22.666   9.951
64742W        W29727  13.794  12.168   2.382
64743W        W29728  34.951  32.578   1.792
64744W        W29729  31.884  26.827  13.068
64745W        W29730  25.370  14.012   4.977
64746W        W29731  22.685  37.949  10.668
64747W        W29732  40.087  32.571   3.255
64748W        W29733  24.676  14.441   1.881
64749W        W29734  41.072   3.180   2.153
64750W        W29735  31.714   7.046  12.884
64751W        W29736  15.860  10.521  10.072
64752W        W29737  15.107  38.545   4.477
64753W        W29738   6.301   8.905   2.049
64754W        W29739  40.631  18.681   2.269
64755W        W29740  34.606  24.204   3.590
64756W        W29741  29.363   3.922   4.299
64757W        W29742   0.859  39.482   2.507
64758W        W29743  23.456  14.386   2.661
64759W        W29744  22.695  11.314  11.895
64760W        W29745  28.435  12.760   3.273
64761W        W29746  11.159  32.011  14.428
64762W        W29747  38.257  14.094   5.010
64763W        W29748  31.478  42.316   1.167
64764W        W29749  13.139  38.390  11.997
64765W        W29750  42.266   8.429  13.415
64766W        W29751  31.697  43.051  14.962
64767W        W29752  13.152  13.124   1.828
64768W        W29753   3.887   7.396  14.807
64769W        W29754  22.533  35.527  11.461
64770W        W29755  24.425  40.608   4.353
64771W        W29756  22.064  30.056   4.127
64772W        W29757  30.967  13.659  10.529
64773W        W29758  35.134  44.950   3.922
64774W        W29759   0.248  43.438  11.162
64775W        W29760  12.901   3.734  12.969
64776W        W29761  29.397  29.463  10.753
64777W        W29762  11.920  19.794  13.552
64778W        W29763  31.942  10.315  11.377
64779W        W29764  26.538   4.438   1.486
64780W        W29765   0.378  17.349  12.529
64781W        W29766   1.986   1.812   1.497
64782W        W29767  13.567  14.226   0.139
64783W        W29768   6.412   2.774  10.804
64784W        W29769   1.212  33.358   1.891
64785W        W29770   2.642  19.692  11.200
64786W        W29771  33.964   5.831  11.002
64787W        W29772  24.863  21.429  13.831
64788W        W29773  20.530  37.664  13.017
64789W        W29774  10.856  15.191   3.290
64790W        W29775  28.610  42.282  11.020
64791W        W29776  12.199  12.467   3.184
64792W        W29777  26.954  26.356  11.983
64793W        W29778   2.038  21.440   1.212
64794W        W29779  31.098  30.361  12.603
64795W        W29780  39.584  44.949   0.226
64796W        W29781  32.173   2.405  10.776
64797W        W29782  15.791  30.699   3.802
64798W        W29783   2.955  37.423   1.127
64799W        W29784  19.326  31.535   1.376
64800W        W29785   6.408   3.077  10.351
64801W        W29786  21.152   6.550   4.145
64802W        W29787   0.280   7.851  10.632
64803W        W29788  25.426   2.445   4.887
64804W        W29789  34.895  26.950  13.866
64805W        W29790  38.889  40.463  12.609
64806W        W29791   9.747   2.253  11.130
64807W        W29792  15.198  24.599   5.332
64808W        W29793  41.006   1.806  10.617
64809W        W29794   8.328  27.692   1.345
64810W        W29795   1.842  30.355   2.767
64811W        W29796  42.347  33.569  12.647
64812W        W29797  11.675  39.772  11.567
64813W        W29798  22.626  44.002  14.525
64814W        W29799  27.696  35.968  12.895
64815W        W29800  24.956   7.658   0.350
64816W        W29801  37.699  21.054  12.254
64817W        W29802  35.045   0.525  14.488
64818W        W29803  13.182  19.470  11.950
64819W        W29804  18.305  39.072   3.139
64820W        W29805  15.029   0.645  11.552
64821W        W29806  27.397  17.034   2.490
64822W        W29807  15.364   2.289   1.386
64823W        W29808   1.336  36.263   4.400
64824W        W29809   9.043  27.615  12.834
64825W        W29810   3.206  20.773   4.804
64826W        W29811  10.521  33.706   0.642
64827W        W29812  27.387  26.492  13.259
64828W        W29813  30.212  28.219  13.791
64829W        W29814  30.132  12.912   4.695
64830W        W29815   9.942  43.243  12.580
64831W        W29816  18.460  36.176   3.502
64832W        W29817   2.885  29.280  12.911
64833W        W29818  42.823  13.563  14.530
64834W        W29819  18.408   5.090  10.284
64835W        W29820  17.253   4.857   0.069
64836W        W29821  39.757  17.743   9.703
64837W        W29822  11.554  11.374  11.747
64838W        W29823   1.749  22.188  11.125
64839W        W29824  26.712  17.091  14.945
64840W        W29825  16.930  10.336  13.595
64841W        W29826  13.039  27.981   3.375
64842W        W29827  24.488  31.631   4.577
64843W        W29828   2.950   6.205  11.986
64844W        W29829   0.711  25.708   2.277
64845W        W29830   6.291  27.594  13.826
64846W        W29831  17.819   9.921   1.727
64847W        W29832  35.575  14.183   0.453
64848W        W29833  34.005  20.365   0.473
64849W        W29834  17.143  35.212  12.608
64850W        W29835  26.228  31.373   3.238
64851W        W29836  15.988  26.481  14.381
64852W        W29837   2.399  34.603  10.504
64853W        W29838  17.416  42.330  13.471
64854W        W29839  15.194   6.126  13.968
64855W        W29840   6.412   3.372   0.709
64856W        W29841  10.132  39.377  11.681
64857W        W29842  40.132  16.727   3.560
64858W        W29843  26.679   7.573  13.215
64859W        W29844  10.310  29.586  13.032
64860W        W29845  28.776  43.372   3.909
64861W        W29846  25.689  27.562   1.680
64862W        W29847   9.565  13.647   4.199
64863W        W29848  38.822  30.098   1.247
64864W        W29849  36.479  17.597   2.416
64865W        W29850  38.556  38.671  13.416
64866W        W29851  39.159  37.641   1.298
64867W        W29852  29.127  28.133   3.517
64868W        W29853  31.363  12.468  13.372
64869W        W29854  34.444  29.866  14.716
64870W        W29855  29.450  35.951   2.638
64871W        W29856  42.562  43.707   3.256
64872W        W29857   8.484  22.183   3.885
64873W        W29858  25.794  22.079  13.907
64874W        W29859  13.098  33.856   0.372
64875W        W29860  20.774  14.115  13.422
64876W        W29861   3.291  16.775  13.128
64877W        W29862  13.898   4.858  11.125
64878W        W29863  15.781  36.891   3.404
64879W        W29864  14.664  24.817  14.146
64880W        W29865  23.369   9.828  13.356
64881W        W29866   7.859  31.710  11.803
64882W        W29867  35.949   3.848   0.126
64883W        W29868  20.665  23.661   0.888
64884W        W29869  39.287  26.755  14.022
64885W        W29870  13.339  19.120  14.770
64886W        W29871  17.225  31.945  10.093
64887W        W29872   8.280  41.515  12.546
64888W        W29873  33.988  31.002   1.614
64889W        W29874  40.781  44.487  12.084
64890W        W29875  35.076  38.726  10.954
64891W        W29876  14.048   8.250  14.361
64892W        W29877  33.563  37.495   2.187
64893W        W29878  11.258   0.521  12.974
64894W        W29879  28.946  12.150  10.668
64895W        W29880  24.030  22.476   3.735
64896W        W29881  11.592  43.473   2.698
64897W        W29882  13.902   2.130   3.614
64898W        W29883  35.376  18.128   3.714
64899W        W29884  32.971  20.947   1.734
64900W        W29885  14.642  36.401   4.755
64901W        W29886  11.132  25.393  12.282
64902W        W29887  19.093   2.788   1.467
64903W        W29888  44.260  14.186  14.420
64904W        W29889   5.800  24.191  14.265
64905W        W29890   7.356  14.187   3.570
64906W        W29891   9.585  15.590   3.156
64907W        W29892   8.257   6.163  14.833
64908W        W29893   0.873  31.495  13.352
64909W        W29894   0.906  13.389  13.690
64910W        W29895  30.572  14.989   1.172
64911W        W29896  31.614  28.382   4.629
64912W        W29897  43.878  14.602   1.382
64913W        W29898   2.159   6.739  12.040
64914W        W29899  39.858  13.226   0.816
64915W        W29900  27.966   3.267  14.904
64916W        W29901  42.111  43.380  13.395
64917W        W29902  29.437  39.788   1.466
64918W        W29903  37.090  29.629  12.032
64919W        W29904  16.269   3.192  14.381
64920W        W29905  35.847  22.301  10.805
64921W        W29906  19.992  44.862  12.562
64922W        W29907   7.237  44.373   1.210
64923W        W29908  24.452  29.048  14.000
64924W        W29909  33.621  32.486   4.654
64925W        W29910  43.400  32.980   0.845
64926W        W29911   8.091  26.245  11.200
64927W        W29912   6.704  21.620   2.816
64928W        W29913  18.633  14.949   1.529
64929W        W29914   6.275  25.076  14.596
64930W        W29915  17.296  28.216  13.956
64931W        W29916  43.358  43.552  12.563
64932W        W29917  19.747  26.481  11.929
64933W        W29918  30.857  29.647  10.474
64934W        W29919  29.992   3.843  10.722
64935W        W29920  18.492  42.965   0.809
64936W        W29921   8.535  11.388  10.778
64937W        W29922  36.745  27.567  13.484
64938W        W29923  39.373  42.313   4.698
64939W        W29924  28.242  11.118  10.506
64940W        W29925   1.827  13.944  13.359
64941W        W29926  24.271  11.772   1.413
64942W        W29927   7.446   8.888   3.912
64943W        W29928  18.963  37.674   1.197
64944W        W29929  38.735  18.319   1.252
64945W        W29930  16.317  41.109   1.536
64946W        W29931  31.225  27.256   2.242
64947W        W29932  35.474  43.005  14.609
64948W        W29933  24.943   1.753  14.490
64949W        W29934  14.282  22.429   3.588
64950W        W29935  42.097  29.366  13.274
64951W        W29936  15.278  17.984   3.707
64952W        W29937   1.928  31.683  14.925
64953W        W29938  18.742  42.568   0.497
64954W        W29939  26.556  40.091  12.809
64955W        W29940   2.725  43.594  12.098
64956W        W29941  25.835   4.888  11.241
64957W        W29942   0.588  19.572   1.907
64958W        W29943  17.604  24.518   2.181
64959W        W29944   7.239   1.919   0.345
64960W        W29945  22.603  33.888  12.827
64961W        W29946  14.307  29.313   1.190
64962W        W29947  10.076  13.809   4.920
64963W        W29948  29.567  27.599  14.089
64964W        W29949  30.353  28.973   2.269
64965W        W29950  24.271  44.245   4.669
64966W        W29951  35.312  33.622   3.132
64967W        W29952  23.474   8.134  12.593
64968W        W29953  25.529  12.412   1.385
64969W        W29954  25.694   8.345  14.383
64970W        W29955  21.219   2.092   4.108
64971W        W29956  20.985  35.600   1.299
64972W        W29957  38.364   1.977  12.390
64973W        W29958  21.097  13.844  11.219
64974W        W29959   3.146  25.707   2.355
64975W        W29960  32.897   3.034  11.589
64976W        W29961  11.347  20.129   1.327
64977W        W29962  16.243  17.443  13.473
64978W        W29963  42.482  33.667  11.518
64979W        W29964   2.879  10.770   4.786
64980W        W29965  12.254  13.380  13.320
64981W        W29966  28.581   1.042  13.558
64982W        W29967  42.351  40.977  13.591
64983W        W29968  36.554   5.084   3.733
64984W        W29969   1.750   0.413  11.209
64985W        W29970  39.892  25.097  14.899
64986W        W29971  24.472  25.741   4.120
64987W        W29972  20.802  32.700   3.633
64988W        W29973  28.944   8.412  12.581
64989W        W29974  37.791  40.241   1.398
64990W        W29975  18.184  43.781  12.070
64991W        W29976   4.183  16.258  11.589
64992W        W29977  21.750  16.060   3.714
64993W        W29978   4.433  16.008  10.435
64994W        W29979   9.725  43.011   4.892
64995W        W29980  11.907  19.636   9.802
64996W        W29981  27.886  37.943  13.408
64997W        W29982  42.517  34.825   0.284
64998W        W29983  19.235  35.419   0.383
64999W        W29984  13.217  21.963   1.840
65000W        W29985   2.224  20.188  10.796
65001W        W29986  22.107  18.806  14.423
65002W        W29987   6.268  28.076   3.735
65003W        W29988   2.960  11.129  13.956
65004W        W29989  44.799  37.946  11.945
65005W        W29990  33.665  32.871  14.625
65006W        W29991  30.385  33.991  14.893
65007W        W29992  22.500  22.386  13.860
65008W        W29993  14.598   7.302   1.784
65009W        W29994  25.580  36.064  13.817
65010W        W29995  33.974  16.341   3.159
65011W        W29996  31.659   9.076  14.489
65012W        W29997   2.013   1.473   4.755
65013W        W29998  30.805   4.970   4.895
65014W        W29999  25.634  24.247   3.203
65015W        W30000  44.732   9.570  12.910
65016W        W30001  39.873  11.592  11.751
65017W        W30002  27.025  22.067   4.457
65018W        W30003  44.854  44.993  13.622
65019W        W30004  28.937  34.437  13.929
65020W        W30005  15.174  10.248  13.952
65021W        W30006  29.970   6.005  11.556
65022W        W30007  16.840  25.471   4.218
65023W        W30008   2.330  16.073   0.617
65024W        W30009  27.504  17.780  13.640
65025W        W30010  17.822  33.024   3.760
65026W        W30011   5.710  37.499  13.335
65027W        W30012   2.968  27.116   0.866
65028W        W30013  31.908  36.216   1.262
65029W        W30014   3.204  10.718  14.851
65030W        W30015   7.485  22.060  13.280
65031W        W30016  35.443  29.035  14.985
65032W        W30017  32.982  31.641   4.533
65033W        W30018  41.893  11.602  14.205
65034W        W30019  16.478  28.124  13.323
65035W        W30020  35.492  29.861   3.904
65036W        W30021   8.352  24.466  12.355
65037W        W30022   8.144  31.360  13.969
65038W        W30023  43.709  33.710  14.981
65039W        W30024  43.781  29.307  13.764
65040W        W30025   7.169  27.036  13.413
65041W        W30026  41.975  13.800  13.450
65042W        W30027  42.881  15.562  13.072
65043W        W30028  29.487  33.644   0.856
65044W        W30029   8.269   9.873  13.520
65045W        W30030   2.383  41.587  11.117
65046W        W30031  17.371  17.833  10.635
65047W        W30032   3.295  29.851   4.592
65048W        W30033  28.662  30.287   5.007
65049W        W30034  43.487  23.839   2.143
65050W        W30035  11.779   7.127   0.300
65051W        W30036  32.549  12.029  10.263
65052W        W30037  17.710  25.462   2.943
65053W        W30038   3.215  27.668  13.506
65054W        W30039   3.686  28.899   3.895
65055W        W30040   8.409  11.162  12.963
65056W        W30041  18.744  33.850   1.461
65057W        W30042  38.424  26.952  13.869
65058W        W30043   1.186   4.969   1.936
65059W        W30044   4.876   2.152  13.935
65060W        W30045   9.740  27.165  14.563
65061W        W30046  24.547  10.531  11.113
65062W        W30047  40.955  37.560  11.535
65063W        W30048   0.943  28.790  13.663
65064W        W30049  29.760  14.554   0.277
65065W        W30050  17.463  23.282  11.737
65066W        W30051   2.275  20.496  14.903
65067W        W30052  41.300  29.879  10.675
65068W        W30053  15.200  14.833   3.010
65069W        W30054   8.951  29.303   3.531
65070W        W30055  12.094  17.715  13.817
65071W        W30056  38.016  17.652  14.042
65072W        W30057   6.933  31.695   2.400
65073W        W30058  14.770   2.018  13.108
65074W        W30059  41.865   1.732  12.477
65075W        W30060  29.111  22.069   1.480
65076W        W30061  24.707  14.963   1.864
65077W        W30062  40.953  10.300   1.319
65078W        W30063   3.317  13.705   0.016
65079W        W30064  37.932  17.626  10.611
65080W        W30065  21.299  14.386  10.593
65081W        W30066  33.117  33.676  11.552
65082W        W30067   8.456  32.431  14.476
65083W        W30068  28.414  41.322   3.105
65084W        W30069  22.206  18.721   5.436
65085W        W30070   9.043  38.065   3.663
65086W        W30071  36.260  17.606  13.164
65087W        W30072   6.313  34.129   3.324
65088W        W30073  31.004   8.932  13.341
65089W        W30074  38.883  35.115  10.236
65090W        W30075  12.098  41.553   0.937
65091W        W30076  44.905  24.505   1.283
65092W        W30077  27.591  38.762  12.389
65093W        W30078  36.321  42.298   2.716
65094W        W30079  24.104  19.193  11.104
65095W        W30080  37.484  40.870   1.902
65096W        W30081  30.949   1.179   5.107
65097W        W30082  32.852   4.955  11.243
65098W        W30083  44.329  18.217   2.324
65099W        W30084  25.573  41.055   0.821
65100W        W30085   3.145  23.573   1.020
65101W        W30086  29.773  15.127  13.087
65102W        W30087  31.692  39.910  13.922
65103W        W30088   6.690   0.828  10.663
65104W        W30089  29.502   3.650   0.957
65105W        W30090  32.948  31.881  13.888
65106W        W30091   0.444  14.640   4.638
65107W        W30092  35.535  19.449   1.206
65108W        W30093   8.442  15.635  13.037
65109W        W30094   7.223  17.935  11.590
65110W        W30095  13.207  26.448   0.921
65111W        W30096  15.233  41.805  11.990
65112W        W30097  10.013  44.414   2.253
65113W        W30098  38.265  35.890   0.956
65114W        W30099  15.965  22.035  13.531
65115W        W30100  33.612  10.270   2.269
65116W        W30101  29.048  26.236  10.608
65117W        W30102  24.977  12.805  12.149
65118W        W30103  28.354  35.380  13.239
65119W        W30104  41.388  10.602  10.671
65120W        W30105  30.822   3.661  10.924
65121W        W30106  12.704  15.815  14.330
65122W        W30107   7.832   8.275   2.768
65123W        W30108   4.250  22.790  14.074
65124W        W30109  16.656  36.430  14.394
65125W        W30110   4.166  41.992   0.952
65126W        W30111  32.036  42.379  10.971
65127W        W30112  12.858   2.277   3.681
65128W        W30113  36.571   3.297   2.151
65129W        W30114  16.104  24.289  13.076
65130W        W30115  32.874  21.625  14.080
65131W        W30116   2.544   9.253  11.654
65132W        W30117   7.828  28.810  12.900
65133W        W30118  27.936  36.675   0.415
65134W        W30119  44.197   3.746   4.895
65135W        W30120  17.543  11.186   2.762
65136W        W30121  37.899  32.007  14.935
65137W        W30122  21.155   9.916  13.754
65138W        W30123  25.461  26.975   0.440
65139W        W30124  44.994  11.811   3.810
65140W        W30125  28.613  26.606   2.043
65141W        W30126   7.143  14.920  10.689
65142W        W30127  14.200  36.733   4.525
65143W        W30128  18.712   7.134   2.554
65144W        W30129  29.938   2.394   3.111
65145W        W30130  39.478  44.328  11.490
65146W        W30131  19.061  40.501  11.588
65147W        W30132  14.053  19.662   4.302
65148W        W30133  28.647   1.508  14.483
65149W        W30134  41.844   8.967  11.732
65150W        W30135  43.039  44.972  13.607
65151W        W30136  42.985   0.873  11.440
65152W        W30137   5.293  32.779  12.071
65153W        W30138   3.864  41.106   1.916
65154W        W30139  11.910   2.267   1.849
65155W        W30140  19.284  14.250  14.418
65156W        W30141  31.022  43.886   3.772
65157W        W30142  14.372  28.388   0.339
65158W        W30143  20.584  32.579   2.579
65159W        W30144  29.933   6.782   2.196
65160W        W30145  19.124  21.945   5.489
65161W        W30146  22.079  41.851  13.283
65162W        W30147  24.938  27.954  13.523
65163W        W30148  44.048   4.104   1.780
65164W        W30149  15.798  28.690  12.739
65165W        W30150   8.443   9.459   9.690
65166W        W30151  11.296  40.530   0.811
65167W        W30152  25.215  30.630   2.248
65168W        W30153  44.447  23.602   0.459
65169W        W30154  10.472   9.443  13.563
65170W        W30155  20.503  36.524   4.253
65171W        W30156  10.298  16.309   3.769
65172W        W30157  18.953   8.199  14.157
65173W        W30158  12.311  29.006   5.020
65174W        W30159  25.396  37.863  14.588
65175W        W30160   4.283  40.226   1.179
65176W        W30161  31.411   7.889   3.198
65177W        W30162  32.555  18.849  12.038
65178W        W30163  12.694  29.652   4.562
65179W        W30164  33.934   3.792  10.903
65180W        W30165   0.702   2.338  13.972
65181W        W30166  12.283  18.794  10.903
65182W        W30167   7.626  26.713  13.407
65183W        W30168  21.531   0.865  10.664
65184W        W30169  15.332  25.153  13.844
65185W        W30170  15.059  24.851   0.916
65186W        W30171  28.372  20.094  12.892
65187W        W30172  14.718  42.574  11.984
65188W        W30173  24.255   2.598   2.439
65189W        W30174  36.486  15.668   5.068
65190W        W30175  31.940  29.185   0.316
65191W        W30176  15.821  11.323   4.540
65192W        W30177  44.271  24.655   4.681
65193W        W30178   6.322   4.355   5.032
65194W        W30179   0.346  26.479  13.055
65195W        W30180  36.009   5.973   2.278
65196W        W30181  12.252   5.414   9.952
65197W        W30182   8.859  27.510   1.792
65198W        W30183   8.167  19.749   2.845
65199W        W30184  25.680  32.678   3.676
65200W        W30185  44.969  18.508  13.082
65201W        W30186  32.509  28.134  13.069
65202W        W30187  28.517  19.872   2.707
65203W        W30188  34.550  36.090  10.765
65204W        W30189  18.214  14.788   1.270
65205W        W30190  33.620  27.001   3.382
65206W        W30191  37.816   8.978   3.620
65207W        W30192  31.445  26.923  13.445
65208W        W30193   3.363   5.737   0.417
65209W        W30194  14.394  43.902   1.826
65210W        W30195  29.929  15.380  11.564
65211W        W30196  27.666  20.323  11.783
65212W        W30197  28.572  10.347  14.297
65213W        W30198  10.685   8.709  10.099
65214W        W30199  36.814   5.658  13.925
65215W        W30200  10.350  25.180  11.577
65216W        W30201   4.170  27.632  10.403
65217W        W30202  32.852  12.226  14.954
65218W        W30203  41.654   0.285   3.749
65219W        W30204   8.399  24.284   2.535
65220W        W30205  10.658   4.822   4.138
65221W        W30206  18.501  17.161   4.909
65222W        W30207  24.112  38.947   2.719
65223W        W30208  38.514  19.667  14.840
65224W        W30209  44.830  26.599  12.549
65225W        W30210   9.778   1.802  13.905
65226W        W30211  29.201   3.546  12.521
65227W        W30212  42.305   0.316   2.267
65228W        W30213  14.109   3.684  13.496
65229W        W30214  37.006  16.211  14.533
65230W        W30215  31.704  25.580   1.712
65231W        W30216  29.577  38.393   1.227
65232W        W30217  17.145   6.741   0.213
65233W        W30218  18.123  41.031   1.016
65234W        W30219  42.818  30.248  12.381
65235W        W30220   3.426  30.676   1.318
65236W        W30221  22.225  12.565   4.514
65237W        W30222   9.894  35.665   0.915
65238W        W30223  37.079  24.495   0.968
65239W        W30224   4.670  16.104   1.191
65240W        W30225  27.446   6.472  12.926
65241W        W30226  37.156  30.185  13.373
65242W        W30227  10.236  44.272  14.770
65243W        W30228  25.540  21.605  12.523
65244W        W30229  29.618   3.841  10.382
65245W        W30230  32.819   7.416   3.118
65246W        W30231  14.865  37.398   2.655
65247W        W30232   3.828  25.549  14.066
65248W        W30233   4.443  37.897   2.160
65249W        W30234  12.843   3.922  12.473
65250W        W30235  16.521  41.058  11.242
65251W        W30236  27.460  30.136  14.948
65252W        W30237  36.058  17.300   2.438
65253W        W30238  38.620  24.195  12.661
65254W        W30239  40.507   8.362  11.559
65255W        W30240  37.886  40.506   1.838
65256W        W30241   8.293  44.004  11.344
65257W        W30242  31.955   1.194  13.435
65258W        W30243  14.623   7.821  14.927
65259W        W30244  28.802  35.054  11.968
65260W        W30245  22.381  38.749  14.003
65261W        W30246  12.238   9.650  11.426
65262W        W30247  22.392  38.544   1.644
65263W        W30248  41.990  39.096   1.641
65264W        W30249   1.252   0.384  11.411
65265W        W30250  44.271  12.810  13.927
65266W        W30251   0.822   2.291  13.001
65267W        W30252  32.121  39.911  13.325
65268W        W30253  42.485  33.143  13.894
65269W        W30254  38.088  25.106   3.729
65270W        W30255  35.530  11.019  11.374
65271W        W30256  12.294  30.042   4.237
65272W        W30257  30.731  16.267   3.397
65273W        W30258  41.812  39.334   4.214
65274W        W30259  43.312   8.599   3.270
65275W        W30260  38.515  11.121  12.277
65276W        W30261  40.969  12.935   1.285
65277W        W30262  12.182   3.301  12.015
65278W        W30263  30.036   6.419  14.656
65279W        W30264  22.468   0.213  12.902
65280W        W30265  27.618  34.087   4.247
65281W        W30266  26.411   2.309   1.714
65282W        W30267  23.772  30.974  11.624
65283W        W30268   2.845  36.383  11.543
65284W        W30269  21.900  35.997   3.384
65285W        W30270  41.924  18.722  14.973
65286W        W30271  39.454   0.022   3.225
65287W        W30272  14.731  19.113  12.132
65288W        W30273   3.151  16.084  10.668
65289W        W30274  37.776  40.894   2.355
65290W        W30275  10.568  42.751   5.096
65291W        W30276  25.533  44.407  12.889
65292W        W30277   2.396  26.691  10.708
65293W        W30278  25.314  28.230  10.313
65294W        W30279  38.120  14.295  14.351
65295W        W30280  33.890  29.189  12.524
65296W        W30281  37.623  13.305   2.662
65297W        W30282  38.054   9.836   4.611
65298W        W30283  37.020  18.110   0.739
65299W        W30284  31.625  24.502   0.343
65300W        W30285  34.033  43.160   0.706
65301W        W30286  36.108   0.165  12.207
65302W        W30287  34.878  21.148   2.611
65303W        W30288  30.550  44.674   1.208
65304W        W30289  22.581  23.184  14.773
65305W        W30290  29.087   6.212  13.682
65306W        W30291  40.579  25.395   3.946
65307W        W30292  40.474  34.149   2.746
65308W        W30293  41.271  21.179  10.785
65309W        W30294  11.432  35.064  13.805
65310W        W30295  39.827   1.257  14.256
65311W        W30296  13.001   8.658  12.019
65312W        W30297  22.236  41.884  14.297
65313W        W30298  24.541  38.262   2.588
65314W        W30299  28.967  33.290   2.083
65315W        W30300  13.581  12.896   1.976
65316W        W30301   8.448   0.528   0.473
65317W        W30302  13.876  41.703  14.252
65318W        W30303  26.159  20.844  12.831
65319W        W30304   8.813  27.151   2.441
65320W        W30305   1.277  20.218  14.283
65321W        W30306  41.438  42.826   0.752
65322W        W30307  40.479  12.305   2.152
65323W        W30308  16.293   2.415  10.396
65324W        W30309  17.061   8.684   0.865
65325W        W30310  11.697  42.146   4.500
65326W        W30311   1.041  21.170   1.873
65327W        W30312  23.459  15.785  10.807
65328W        W30313  37.318  37.950   0.382
65329W        W30314  30.891  17.644  14.612
65330W        W30315   9.593  24.237   1.891
65331W        W30316  43.395   1.585   0.869
65332W        W30317  21.268  16.746   4.160
65333W        W30318  27.635   1.302   2.304
65334W        W30319   8.754  12.650  10.597
65335W        W30320  39.182  36.797  14.868
65336W        W30321   2.685  13.938   3.648
65337W        W30322   6.918  38.651   4.290
65338W        W30323  35.018  32.675  14.975
65339W        W30324   4.428  13.350   0.348
65340W        W30325  29.603  19.594  11.715
65341W        W30326   9.831  23.779   3.005
65342W        W30327   4.919  15.645  14.436
65343W        W30328  30.937  18.365   5.083
65344W        W30329  13.534  35.874  13.125
65345W        W30330  33.261   9.936   3.379
65346W        W30331  19.528  38.413  11.250
65347W        W30332  41.741  34.630   0.775
65348W        W30333  41.029  24.537  10.819
65349W        W30334  25.116   4.575   3.747
65350W        W30335  28.112   6.343  12.124
65351W        W30336  36.406  44.221  14.944
65352W        W30337   6.797  12.998  13.349
65353W        W30338  42.779  12.882   3.364
65354W        W30339  11.307  28.646  11.997
65355W        W30340  30.868   8.166  10.365
65356W        W30341  42.888  39.055   2.679
65357W        W30342  27.903  20.298  12.825
65358W        W30343  21.313  27.719  13.923
65359W        W30344  12.095  37.364  11.468
65360W        W30345  42.029  44.252  14.782
65361W        W30346   7.181  22.420  12.035
65362W        W30347   0.562   5.167   1.780
65363W        W30348  36.980  35.368  11.441
65364W        W30349  35.831   5.839  11.557
65365W        W30350   7.389   4.112  11.211
65366W        W30351  31.454   9.229   4.071
65367W        W30352   5.650   4.169  13.864
65368W        W30353  11.204   2.083  14.838
65369W        W30354  38.480  29.729  13.701
65370W        W30355  41.918   2.791   0.433
65371W        W30356  13.551  16.622   0.747
65372W        W30357   4.275  18.866   3.214
65373W        W30358  30.153  31.977  13.502
65374W        W30359  42.774  18.152   2.356
65375W        W30360  30.974   0.289   3.369
65376W        W30361  20.521  28.091  12.132
65377W        W30362  20.805  23.117   0.163
65378W        W30363  32.833   9.997  11.509
65379W        W30364  27.968  36.619   1.304
65380W        W30365  43.985  27.645   3.979
65381W        W30366  23.948   9.792   0.256
65382W        W30367   2.910  15.718  14.507
65383W        W30368   0.007   9.450  12.019
65384W        W30369  41.481  28.405  11.593
65385W        W30370  10.645   4.976   1.860
65386W        W30371  27.493   3.406   2.852
65387W        W30372  28.208  15.824  10.011
65388W        W30373  34.294  43.032  12.658
65389W        W30374  42.275  10.143   2.191
65390W        W30375  36.957  22.252   2.724
65391W        W30376  13.551  37.433   4.554
65392W        W30377  39.229   4.871  10.996
65393W        W30378  44.281  13.759  10.492
65394W        W30379  17.421  14.361   5.006
65395W        W30380  17.292  17.166  11.513
65396W        W30381  42.907  27.234   3.606
65397W        W30382  30.587  19.230  14.956
65398W        W30383  36.122  33.925  11.700
65399W        W30384  13.805  26.497   3.211
65400W        W30385  25.452  29.572   0.879
65401W        W30386  23.970  23.660   0.903
65402W        W30387  21.171   6.751  13.942
65403W        W30388  12.861   7.803   4.568
65404W        W30389  41.284   5.504  12.611
65405W        W30390  32.182  27.693   9.845
65406W        W30391   7.207  34.859   2.702
65407W        W30392  28.739  17.585  12.401
65408W        W30393  35.403  25.070  12.530
65409W        W30394  20.080   8.046   0.879
65410W        W30395  12.673  23.977   4.556
65411W        W30396  19.233   9.716   0.977
65412W        W30397   9.832   1.210   4.386
65413W        W30398  42.836   3.069   0.460
65414W        W30399  12.349  34.872  14.030
65415W        W30400  20.686  28.290   0.369
65416W        W30401   7.015  34.497   4.392
65417W        W30402  12.056  40.801  14.382
65418W        W30403   0.239  37.618   1.919
65419W        W30404  10.869   3.042  14.940
65420W        W30405  32.499  29.603   1.943
65421W        W30406  18.986   7.453   2.213
65422W        W30407  27.740  32.097   2.889
65423W        W30408  12.233   9.700   0.728
65424W        W30409  19.859  22.481   5.046
65425W        W30410  27.150  37.942  14.737
65426W        W30411  12.360  22.484  14.419
65427W        W30412  35.576  30.349  10.819
65428W        W30413  14.764  30.707   0.834
65429W        W30414  32.419  37.058   1.400
65430W        W30415  43.529  15.340   3.785
65431W        W30416  25.513  12.067   1.776
65432W        W30417  40.856  36.970  11.125
65433W        W30418   0.740  42.125  14.612
65434W        W30419  17.722  26.155   2.204
65435W        W30420  28.753  26.210   4.308
65436W        W30421   0.849  21.767  14.727
65437W        W30422  21.955  36.981  14.475
65438W        W30423   4.706  38.640  13.943
65439W        W30424  34.457  23.122  14.809
65440W        W30425  30.637  31.597  14.526
65441W        W30426   4.416  36.341   1.226
65442W        W30427  24.565   6.884   0.402
65443W        W30428  17.109  35.514  10.980
65444W        W30429  34.883  21.552  10.782
65445W        W30430  43.975  13.256  13.900
65446W        W30431   3.996   8.436  14.838
65447W        W30432  40.400  43.289   2.764
65448W        W30433  14.759  37.366  14.210
65449W        W30434  25.231  36.759  13.024
65450W        W30435  35.969   6.357   1.212
65451W        W30436  38.641  18.959   3.626
65452W        W30437  44.689  12.749  12.994
65453W        W30438  44.486  35.783  11.503
65454W        W30439  39.806  38.379   3.710
65455W        W30440  22.017  10.178  12.568
65456W        W30441  36.594  16.159   4.792
65457W        W30442   5.775  39.741  11.174
65458W        W30443  17.188  12.838  11.518
65459W        W30444   6.949   8.537   3.592
65460W        W30445  30.462   9.809  14.365
65461W        W30446  43.160   6.594  11.471
65462W        W30447   8.584  21.800  14.724
65463W        W30448   5.557   9.697   2.079
65464W        W30449   9.987  16.201  10.734
65465W        W30450  17.699  24.574   3.766
65466W        W30451  42.437  10.145   3.085
65467W        W30452  29.571  40.772   2.469
65468W        W30453   1.761  18.549  13.007
65469W        W30454  38.365  34.707  12.538
65470W        W30455  10.750  11.186   2.480
65471W        W30456  14.782  18.810   3.581
65472W        W30457  19.229  23.517  11.171
65473W        W30458  43.296  24.589  13.273
65474W        W30459  36.513  31.338  12.464
65475W        W30460   1.974  12.938   1.886
65476W        W30461  20.008  21.794  13.784
65477W        W30462  13.333  18.559   4.197
65478W        W30463  41.970   4.591  11.225
65479W        W30464  16.193  22.573  13.795
65480W        W30465  30.404  43.443   4.390
65481W        W30466  10.679  13.824   3.212
65482W        W30467  19.819   7.218  13.206
65483W        W30468   0.441  11.426  10.558
65484W        W30469  18.619  32.990   4.126
65485W        W30470  41.407  26.022  13.034
65486W        W30471  29.030   7.130  13.911
65487W        W30472   0.832   2.008  11.975
65488W        W30473  33.085  36.688   1.739
65489W        W30474  37.871  43.414  12.928
65490W        W30475   3.298  16.002  13.518
65491W        W30476  11.636  17.885  11.274
65492W        W30477  30.542  11.823  13.923
65493W        W30478   8.377   1.034   0.472
65494W        W30479  35.381  42.866   3.624
65495W        W30480  33.073  36.814   0.740
65496W        W30481  34.009  10.957  10.985
65497W        W30482  34.784  34.545   5.052
65498W        W30483  34.888  28.451  10.772
65499W        W30484  14.082  15.470   4.103
65500W        W30485  12.420  15.599   1.226
65501W        W30486  26.133  20.598  13.903
65502W        W30487  15.337  20.158   4.772
65503W        W30488  32.226  33.550  12.978
65504W        W30489  37.883  36.008   2.942
65505W        W30490  16.197  24.075  13.544
65506W        W30491  42.139  28.015  13.770
65507W        W30492  22.150  12.394   2.873
65508W        W30493  28.955  16.150  10.564
65509W        W30494  27.749  34.906  10.222
65510W        W30495   4.686  42.700   3.733
65511W        W30496  10.466  34.663   2.216
65512W        W30497  15.969  38.465  11.584
65513W        W30498  15.355  10.298  11.948
65514W        W30499  16.107  21.520  12.713
65515W        W30500  27.589  29.551  12.522
65516W        W30501   2.046   0.707  11.507
65517W        W30502  16.895  32.057  13.802
65518W        W30503  18.280  20.788  12.019
65519W        W30504  11.753  24.313   4.538
65520W        W30505  10.930  43.697  10.940
65521W        W30506  12.773  23.752  13.864
65522W        W30507   3.343  44.947  10.788
65523W        W30508   0.187  27.731  14.019
65524W        W30509   5.645  26.672   3.702
65525W        W30510  23.727  23.114   2.901
65526W        W30511  30.562  16.972  12.916
65527W        W30512  23.826  29.045   2.812
65528W        W30513  11.308  30.737   2.247
65529W        W30514  32.014  21.053  11.546
65530W        W30515  39.799  36.683   3.301
65531W        W30516  16.303  43.541  12.485
65532W        W30517  37.319   7.416   0.009
65533W        W30518   0.891  20.586  14.371
65534W        W30519  34.061  31.249  13.478
65535W        W30520  22.181   4.456   3.727
65536W        W30521   2.826  19.487  13.628
65537W        W30522  14.667  20.524   0.859
65538W        W30523  42.200  22.049   3.699
65539W        W30524  27.528  15.742   0.202
65540W        W30525  22.659  27.718  14.471
65541W        W30526   6.228   6.979  14.249
65542W        W30527  25.425  35.975   0.932
65543W        W30528  38.530  14.068  11.727
65544W        W30529  33.356  33.515   2.664
65545W        W30530  36.535  36.735  12.602
65546W        W30531  14.450  31.020   1.161
65547W        W30532  28.069  17.177  14.214
65548W        W30533  25.639  13.370   1.243
65549W        W30534  42.030  36.457   2.319
65550W        W30535  12.783  28.590   2.246
65551W        W30536  33.488  41.246   2.229
65552W        W30537   5.934  42.280  12.799
65553W        W30538  10.213  39.066   0.531
65554W        W30539   7.593  27.894  11.836
65555W        W30540  16.986  41.835   2.250
65556W        W30541  13.402  29.044   5.460
65557W        W30542  24.536  35.032   4.573
65558W        W30543   9.367  19.149   1.684
65559W        W30544   9.269   5.453   1.884
65560W        W30545  40.704  19.769   3.230
65561W        W30546  11.285  39.390   1.409
65562W        W30547  14.665   3.976   4.131
65563W        W30548  12.667  34.920  11.109
65564W        W30549  10.084  10.983  14.422
65565W        W30550  16.536   7.656   2.778
65566W        W30551  26.713  40.099  11.561
65567W        W30552   9.166  23.626   4.201
65568W        W30553  19.146  13.083   1.919
65569W        W30554  38.366  11.297   4.580
65570W        W30555  28.147  33.449   2.386
65571W        W30556  16.780  34.831   3.622
65572W        W30557   3.752  35.393   0.736
65573W        W30558  33.869  16.526  11.117
65574W        W30559  40.869  23.511  14.771
65575W        W30560  37.298  26.154   4.385
65576W        W30561  39.002  38.777  12.299
65577W        W30562  40.843   1.828   2.974
65578W        W30563  20.581   3.999   4.871
65579W        W30564  16.571  28.575  13.572
65580W        W30565  25.024  23.434  13.093
65581W        W30566   2.513   9.141   3.222
65582W        W30567  38.066   3.946  13.652
65583W        W30568  26.725   0.752  10.742
65584W        W30569  23.504  10.822   3.349
65585W        W30570  39.400  39.233   1.922
65586W        W30571  43.346  14.540   3.362
65587W        W30572  33.405   2.523   3.379
65588W        W30573  36.530  20.756  13.869
65589W        W30574  28.889  25.211  13.790
65590W        W30575  33.833  33.888   1.260
65591W        W30576  24.671   0.919  13.388
65592W        W30577  41.722  31.321   4.887
65593W        W30578   2.353  27.120   3.926
65594W        W30579  15.828  29.668  12.819
65595W        W30580  27.873  38.893  10.399
65596W        W30581   3.486  25.452   0.467
65597W        W30582  11.166  15.168   1.231
65598W        W30583  18.610  16.639  10.164
65599W        W30584  32.841  36.522  11.177
65600W        W30585  37.967   9.935  11.141
65601W        W30586  29.654  10.339   4.543
65602W        W30587  38.317  43.477   3.533
65603W        W30588  17.950  27.209   4.993
65604W        W30589  29.105   9.203   4.205
65605W        W30590  42.874   0.990  13.424
65606W        W30591  42.838  28.912   0.682
65607W        W30592  17.451  18.618  10.618
65608W        W30593  36.586  39.132  12.860
65609W        W30594  36.069  27.167  14.533
65610W        W30595  36.094   1.743   2.754
65611W        W30596  26.286  11.422  14.723
65612W        W30597  22.065  20.685   2.700
65613W        W30598  26.302  39.565  10.774
65614W        W30599  42.661   8.864  13.360
65615W        W30600  33.310  14.043   4.763
65616W        W30601  41.007  20.593  12.499
65617W        W30602  36.953  18.109  13.282
65618W        W30603   0.818  31.359  14.337
65619W        W30604  17.404  22.054   3.673
65620W        W30605  28.418   2.895  11.283
65621W        W30606  32.963  28.133  14.771
65622W        W30607  10.786  19.747  14.336
65623W        W30608  22.900   3.531   3.360
65624W        W30609  43.747  14.041  12.543
65625W        W30610  28.217  18.524   2.664
65626W        W30611  27.460  39.448  12.960
65627W        W30612  22.141  20.286  10.934
65628W        W30613  41.773  14.590  10.197
65629W        W30614  25.895  26.946  14.909
65630W        W30615  16.743  36.461   2.018
65631W        W30616   8.022  23.341   3.195
65632W        W30617   0.715  34.577   3.877
65633W        W30618   1.990  11.658  12.036
65634W        W30619  20.266  43.995   1.458
65635W        W30620  28.548  35.910  14.632
65636W        W30621  14.072  25.240  14.829
65637W        W30622  14.439  26.994  14.268
65638W        W30623  20.467  41.424   2.830
65639W        W30624  21.424  15.286   0.065
65640W        W30625  12.231  29.668   0.802
65641W        W30626  13.798  27.689   3.700
65642W        W30627  20.497  13.687  12.473
65643W        W30628  35.236  10.156   0.672
65644W        W30629  42.402  40.974  11.623
65645W        W30630  19.793   3.879  12.084
65646W        W30631  12.091  16.492   0.804
65647W        W30632  17.905  42.305   4.838
65648W        W30633   1.376  15.340   1.743
65649W        W30634   0.632   7.751   2.476
65650W        W30635  14.067  37.433  14.944
65651W        W30636   7.706  23.596  12.989
65652W        W30637  18.258  14.669   3.538
65653W        W30638  20.767  36.709  10.648
65654W        W30639  27.935  16.571   4.335
65655W        W30640  34.348  38.861  11.541
65656W        W30641   5.637   1.406  14.827
65657W        W30642  29.490  15.291  13.522
65658W        W30643  33.687   5.862  12.861
65659W        W30644  30.987   7.920   4.328
65660W        W30645  44.016  14.956   2.195
65661W        W30646  36.891  39.463  12.611
65662W        W30647  30.174   4.935   0.840
65663W        W30648  18.168  16.416   3.867
65664W        W30649   5.316  43.660  11.901
65665W        W30650   0.487  22.574  13.013
65666W        W30651  43.931   2.453   4.877
65667W        W30652  42.465   2.277   4.563
65668W        W30653  43.412  33.495   4.250
65669W        W30654  24.542  41.006   4.034
65670W        W30655   3.739  33.230  11.064
65671W        W30656   4.713  37.156  13.935
65672W        W30657  35.174  24.475  14.861
65673W        W30658  19.031  31.129  10.771
65674W        W30659  44.632  43.414  11.871
65675W        W30660  23.707  18.791  13.895
65676W        W30661   3.999  26.944   4.777
65677W        W30662  19.768  39.163  12.656
65678W        W30663  30.897  14.051  12.381
65679W        W30664   0.807   7.471  12.188
65680W        W30665  44.783  34.235  12.058
65681W        W30666  31.165  17.902  13.626
65682W        W30667   4.447  22.565  14.498
65683W        W30668  40.335  11.150   2.260
65684W        W30669  16.293  16.250   0.725
65685W        W30670  14.062  27.383  12.552
65686W        W30671  42.557   7.957   3.105
65687W        W30672  14.158  34.963  14.955
65688W        W30673  39.605  30.860   2.147
65689W        W30674  29.148  42.510   3.566
65690W        W30675   1.877   9.360   1.355
65691W        W30676  42.576   4.098  12.620
65692W        W30677  22.711  31.594  14.932
65693W        W30678  26.073  41.920   2.181
65694W        W30679  42.672  28.104  13.721
65695W        W30680  22.689  29.138  11.750
65696W        W30681  28.534  21.441   0.396
65697W        W30682  12.893  16.912   2.855
65698W        W30683  22.938  23.564   2.755
65699W        W30684  26.038  31.022   0.845
65700W        W30685   5.664  33.467  14.725
65701W        W30686  32.353  36.761  12.897
65702W        W30687  21.964  31.593   0.226
65703W        W30688  19.511   5.019  14.336
65704W        W30689   3.285  19.096  14.241
65705W        W30690  21.807  15.552   3.707
65706W        W30691  20.738  25.174   2.355
65707W        W30692  23.794  42.971  13.007
65708W        W30693  32.178  18.608   0.814
65709W        W30694  24.339  43.156  13.241
65710W        W30695  12.678  13.958   0.094
65711W        W30696  19.444   8.288   2.382
65712W        W30697   4.554  15.145  14.739
65713W        W30698  10.919   1.795   5.004
65714W        W30699  30.858  44.059  13.802
65715W        W30700   1.218   2.343  12.617
65716W        W30701  41.036  21.638   2.303
65717W        W30702  33.868  39.896  13.368
65718W        W30703  16.158  33.991   3.537
65719W        W30704   6.194  44.540  14.322
65720W        W30705   7.742   7.883   5.096
65721W        W30706  43.273  34.259   1.898
65722W        W30707  41.874  26.249   1.346
65723W        W30708  40.702  15.614   1.245
65724W        W30709   0.779  26.896   0.451
65725W        W30710   0.396   9.616   4.466
65726W        W30711   3.956  10.702   2.359
65727W        W30712  20.845  15.015   3.767
65728W        W30713   9.688  41.436   3.822
65729W        W30714  19.677   1.501  14.597
65730W        W30715  30.145  31.013  13.591
65731W        W30716  27.582  41.179   1.975
65732W        W30717   3.291  14.655  11.210
65733W        W30718  12.738  15.562  10.650
65734W        W30719   7.963  39.439  14.780
65735W        W30720  29.781  44.317  11.599
65736W        W30721  42.227  40.115   1.843
65737W        W30722  27.514  11.172  12.446
65738W        W30723  33.576  15.411   2.228
65739W        W30724  42.264  44.468  10.659
65740W        W30725   9.701  20.809   1.545
65741W        W30726  28.859  19.210   3.417
65742W        W30727  17.910  19.689   3.685
65743W        W30728  23.082  37.168   0.739
65744W        W30729  26.367   0.839   9.850
65745W        W30730   9.093  12.119  13.866
65746W        W30731  14.488  20.684   2.190
65747W        W30732  17.756  24.192   3.456
65748W        W30733  36.140  21.106  13.625
65749W        W30734  41.321  36.264  13.987
65750W        W30735  26.626  15.036   0.109
65751W        W30736  19.648  17.060   0.020
65752W        W30737  21.179  12.146  14.215
65753W        W30738   7.322   7.631   1.015
65754W        W30739  17.344  32.638   0.671
65755W        W30740  22.105  27.237  12.516
65756W        W30741   4.616  22.608   0.831
65757W        W30742  37.717   7.925  12.982
65758W        W30743   9.372  29.001  12.067
65759W        W30744  28.743   6.706  12.831
65760W        W30745   8.376  37.887   0.977
65761W        W30746  12.133  33.968   0.122
65762W        W30747   9.773  23.003  11.085
65763W        W30748   0.454  29.781  13.474
65764W        W30749  41.026  27.392  13.938
65765W        W30750  38.607  41.361  14.911
65766W        W30751   2.774  11.266   3.883
65767W        W30752   2.923  13.354  14.971
65768W        W30753  40.780   3.752  10.597
65769W        W30754  18.044  10.072  14.454
65770W        W30755  19.193   3.276   2.277
65771W        W30756  22.594  20.174   0.114
65772W        W30757  23.020  18.754  14.443
65773W        W30758  35.298  18.137   0.628
65774W        W30759  10.845  25.207   4.214
65775W        W30760  21.219  10.355   2.216
65776W        W30761  32.375  20.261   2.786
65777W        W30762  29.170  33.172  13.426
65778W        W30763  16.170  30.085   3.105
65779W        W30764  39.874  40.870   0.751
65780W        W30765  27.366  38.597  11.960
65781W        W30766  14.790  30.428  12.300
65782W        W30767  30.190  35.939  10.468
65783W        W30768  24.805  19.833   3.672
65784W        W30769   1.606  10.406   4.045
65785W        W30770  13.816   4.228  10.678
65786W        W30771  34.207  15.268   3.943
65787W        W30772   6.392  21.709  14.073
65788W        W30773  35.007  37.316  10.870
65789W        W30774  27.275  31.528  12.530
65790W        W30775   5.914  28.898  11.399
65791W        W30776  20.191  41.453   3.314
65792W        W30777  20.391  21.321   4.620
65793W        W30778   3.884  23.971   1.377
65794W        W30779  24.118   2.039  12.928
65795W        W30780  16.471  26.314  14.533
65796W        W30781  28.198  36.416   2.561
65797W        W30782  31.846  24.527   4.580
65798W        W30783  13.326   3.918  14.872
65799W        W30784  38.407  32.197  11.624
65800W        W30785  24.137  36.732  12.406
65801W        W30786   6.393  16.396   2.385
65802W        W30787  32.523   0.291  11.962
65803W        W30788   4.730  16.964   2.415
65804W        W30789  33.041  33.180  11.620
65805W        W30790  17.088  39.028   3.709
65806W        W30791   0.898  41.117   1.458
65807W        W30792  42.221  10.288  11.055
65808W        W30793  35.450  19.863  12.458
65809W        W30794  18.289  27.429   3.266
65810W        W30795  21.413  25.872   2.373
65811W        W30796  27.617  34.986   3.526
65812W        W30797   1.754  22.380   0.927
65813W        W30798  19.319  43.865   2.338
65814W        W30799  42.287  42.769  11.230
65815W        W30800   7.778  37.914   2.933
65816W        W30801  24.201  35.206   1.786
65817W        W30802  10.759  28.434  12.602
65818W        W30803  33.191  17.588   1.822
65819W        W30804  28.281   2.475   2.332
65820W        W30805   6.208  20.972   3.067
65821W        W30806  23.319   4.055  11.564
65822W        W30807   0.788  36.883   3.228
65823W        W30808  34.071  25.201  12.492
65824W        W30809  33.487  24.994   0.533
65825W        W30810  28.367  27.705   0.471
65826W        W30811  13.100   9.710  13.403
65827W        W30812  17.586  11.806   1.653
65828W        W30813  12.042  27.027  10.209
65829W        W30814  39.830  31.367   0.284
65830W        W30815  17.796  29.455  12.997
65831W        W30816  34.917   0.836  12.855
65832W        W30817  20.501  40.411  12.881
65833W        W30818  12.857  37.968  11.941
65834W        W30819  27.555  20.321  13.657
65835W        W30820  27.644   3.274   2.346
65836W        W30821  13.905  38.395  13.923
65837W        W30822  38.120   7.361   1.938
65838W        W30823  35.179  10.294   1.705
65839W        W30824  24.979  17.966   4.212
65840W        W30825   9.671  14.753   3.523
65841W        W30826  21.266  20.640   3.345
65842W        W30827  42.444  18.786   5.415
65843W        W30828  13.156  16.725  11.306
65844W        W30829   8.974   4.498  14.500
65845W        W30830  20.839  38.522  11.614
65846W        W30831  27.120   4.515   2.860
65847W        W30832  35.404  16.477   0.368
65848W        W30833  23.227  12.555   4.287
65849W        W30834  41.947  43.524  10.885
65850W        W30835  18.206  33.386   0.046
65851W        W30836   9.168  30.688  11.610
65852W        W30837  20.653  38.028  14.219
65853W        W30838  11.167  29.708  12.988
65854W        W30839  13.362  10.877   4.059
65855W        W30840  24.789  16.666   2.126
65856W        W30841   3.966  17.299  11.622
65857W        W30842  40.611   2.273  12.762
65858W        W30843  22.516  36.409   4.434
65859W        W30844  27.476  26.368  12.005
65860W        W30845  29.406   5.458   2.215
65861W        W30846  22.667  13.026   5.373
65862W        W30847  28.932   6.720  12.189
65863W        W30848  23.490  22.668  14.921
65864W        W30849  34.820  42.716  14.047
65865W        W30850  29.975  41.555  14.257
65866W        W30851   5.675   4.250  13.344
65867W        W30852  35.459   3.853   1.468
65868W        W30853   0.519  38.633   2.735
65869W        W30854  17.624  26.916   5.295
65870W        W30855   2.859  16.251  12.386
65871W        W30856  31.312  22.468   1.811
65872W        W30857   8.435  41.958  13.453
65873W        W30858  21.484  40.606   2.132
65874W        W30859   2.423  26.611  14.865
65875W        W30860  31.909   0.311  13.467
65876W        W30861  42.457  35.852   1.923
65877W        W30862  12.417  27.656   2.689
65878W        W30863   0.035  33.749   3.254
65879W        W30864  29.376   6.712   3.273
65880W        W30865  22.000   4.289   4.577
65881W        W30866  30.493  31.589  13.358
65882W        W30867  36.574  43.869  13.715
65883W        W30868   8.801  17.635  11.118
65884W        W30869  38.961  17.703  12.171
65885W        W30870  40.132   6.197  14.173
65886W        W30871   0.883  30.043   1.908
65887W        W30872  33.607   5.240   3.126
65888W        W30873   3.994  14.106  11.684
65889W        W30874  22.047  30.420   0.982
65890W        W30875   9.166  12.273   3.380
65891W        W30876   0.032  37.582   3.074
65892W        W30877   7.294  34.574   3.200
65893W        W30878   8.036   1.241  14.186
65894W        W30879  42.314   7.338   2.714
65895W        W30880  20.578  22.871  10.764
65896W        W30881  40.538   1.525   3.239
65897W        W30882  14.783  17.087  10.660
65898W        W30883  36.633  39.820  14.286
65899W        W30884  44.996  42.997   1.416
65900W        W30885  37.522  33.988  10.571
65901W        W30886   2.001  32.311  13.318
65902W        W30887  18.033  43.794   2.633
65903W        W30888  28.834   6.856   0.674
65904W        W30889   8.011  21.393  11.034
65905W        W30890  15.022  30.528  11.450
65906W        W30891  23.692  13.565  13.092
65907W        W30892  18.450  22.645   4.112
65908W        W30893  31.522   5.750  13.416
65909W        W30894  16.609  24.739  12.400
65910W        W30895  23.745   8.661  14.865
65911W        W30896   6.896  25.240   0.289
65912W        W30897  33.570   3.459   3.204
65913W        W30898  25.226   8.590   4.118
65914W        W30899  24.338  30.904  14.836
65915W        W30900  38.401  29.914   4.279
65916W        W30901  42.831  27.585  11.622
65917W        W30902  24.385  36.246   1.025
65918W        W30903   5.782   8.307   4.098
65919W        W30904  19.609  20.649   1.065
65920W        W30905   0.289  26.081  10.485
65921W        W30906  27.036  44.523   0.291
65922W        W30907  10.229  33.860  13.970
65923W        W30908  31.380  21.000   0.766
65924W        W30909  37.905  32.079  11.411
65925W        W30910  19.864  27.219   9.760
65926W        W30911  31.302   4.877  11.939
65927W        W30912  29.649  39.782  12.055
65928W        W30913  22.586   5.700   4.631
65929W        W30914   9.242   9.839  14.404
65930W        W30915  22.479  32.142   9.722
65931W        W30916  41.479  34.947   1.192
65932W        W30917   9.143  25.620  12.459
65933W        W30918  39.663   7.318  11.367
65934W        W30919  35.023  42.265  14.968
65935W        W30920  27.958  37.979  14.343
65936W        W30921  32.072  31.389   0.363
65937W        W30922  25.232  36.713  12.070
65938W        W30923  44.794   5.877  11.678
65939W        W30924  19.067  17.722   3.172
65940W        W30925  33.047  44.190  13.450
65941W        W30926  34.609  34.018   2.910
65942W        W30927  32.822  19.942   1.472
65943W        W30928  14.334  29.981   3.785
65944W        W30929  30.717  39.334   0.312
65945W        W30930  25.884   3.447  11.220
65946W        W30931  27.379   8.955  11.067
65947W        W30932  18.884   7.070  12.443
65948W        W30933   0.998  13.574   3.228
65949W        W30934  37.951  30.929   4.483
65950W        W30935  43.755  19.254   3.338
65951W        W30936  36.996  14.899  11.627
65952W        W30937  38.951  39.862   4.874
65953W        W30938  19.807  25.958  11.906
65954W        W30939  32.572  10.885  11.463
65955W        W30940  16.973   7.752  11.644
65956W        W30941  22.719   8.281   0.270
65957W        W30942   5.340  11.540   4.044
65958W        W30943  30.875   9.797   1.733
65959W        W30944   7.394   4.333   0.382
65960W        W30945  15.690   1.415   2.180
65961W        W30946   4.849  15.835  12.118
65962W        W30947   8.704  32.055  12.342
65963W        W30948  20.787   3.466  12.133
65964W        W30949  35.676  12.017   1.000
65965W        W30950  12.108  26.160   0.626
65966W        W30951  14.822  43.933  12.733
65967W        W30952   9.148  13.216  11.641
65968W        W30953  40.103  32.066   2.316
65969W        W30954   7.187  28.977   0.714
65970W        W30955   2.053  18.967   1.977
65971W        W30956  33.091  19.420  12.868
65972W        W30957  13.984  16.280   0.250
65973W        W30958  28.587  43.674   3.521
65974W        W30959  16.774  17.715   0.736
65975W        W30960  43.575  38.502  12.026
65976W        W30961   2.298  13.651   2.368
65977W        W30962  36.719  25.504  10.523
65978W        W30963  35.654   4.917  11.402
65979W        W30964   7.872  41.354   3.317
65980W        W30965  24.555  20.053   3.158
65981W        W30966   9.224  24.818  14.296
65982W        W30967   9.299  20.579   0.763
65983W        W30968  25.596  13.743   4.267
65984W        W30969  35.058  24.772   4.308
65985W        W30970  33.997  26.242   4.366
65986W        W30971  18.058  10.809  13.199
65987W        W30972  32.370  23.224  10.915
65988W        W30973  39.558  20.638  13.418
65989W        W30974  32.455  35.487   2.707
65990W        W30975   5.338  20.270   4.512
65991W        W30976   7.074  33.589   2.933
65992W        W30977  39.943  19.040  11.708
65993W        W30978  31.497   9.213   5.469
65994W        W30979  15.602  16.097   1.917
65995W        W30980  33.471  41.897   3.279
65996W        W30981  17.662  26.522   4.475
65997W        W30982  44.379   8.205  11.425
65998W        W30983  13.300  21.825   0.638
65999W        W30984   3.433  32.557   3.265
66000W        W30985  29.114  32.003  10.432
66001W        W30986  14.575  27.073  10.448
66002W        W30987   3.195  24.623  12.836
66003W        W30988  30.425   0.036  14.365
66004W        W30989  44.669  12.561   1.807
66005W        W30990   3.156  18.011   3.475
66006W        W30991  26.870   8.042  13.456
66007W        W30992  34.273  29.732   2.689
66008W        W30993   3.475   6.765  13.029
66009W        W30994  37.881  21.784   0.814
66010W        W30995   5.701  24.794  13.147
66011W        W30996  17.605   2.863  12.135
66012W        W30997  30.462  27.125  12.722
66013W        W30998  42.795   8.412   3.293
66014W        W30999  21.651  13.318  11.970
66015W        W31000  27.889   1.997  14.291
66016W        W31001   4.196  22.374   0.513
66017W        W31002  26.480  18.237   1.416
66018W        W31003  27.650  12.704  13.438
66019W        W31004  35.454  14.672  12.495
66020W        W31005  23.476  12.644   2.159
66021W        W31006  44.156  38.034   5.069
66022W        W31007  30.951   8.323   1.464
66023W        W31008   5.082  39.885   4.596
66024W        W31009  11.190  30.332   1.258
66025W        W31010  44.519  30.956  12.429
66026W        W31011  29.142  24.121   1.638
66027W        W31012  29.401  44.411   3.792
66028W        W31013  14.542  30.524  13.830
66029W        W31014  10.403  18.007  12.518
66030W        W31015  12.677   5.273   0.349
66031W        W31016  23.459  12.222  14.570
66032W        W31017  37.030  10.624   4.035
66033W        W31018   0.049   5.719  12.077
66034W        W31019  16.455  18.766  10.718
66035W        W31020  28.694  14.570   4.142
66036W        W31021  15.029   7.275   3.221
66037W        W31022  24.692   6.157  14.283
66038W        W31023  31.950  20.573   2.650
66039W        W31024  24.484  40.579   0.450
66040W        W31025  30.624   1.426   3.719
66041W        W31026  13.636  10.795   2.833
66042W        W31027   5.443   1.888  13.123
66043W        W31028  35.551  24.206  13.872
66044W        W31029  13.388   9.338   3.133
66045W        W31030  19.530   1.962   2.341
66046W        W31031   8.260  31.487   0.362
66047W        W31032   4.533  27.275   1.883
66048W        W31033   3.829  21.044   2.376
66049W        W31034  30.509   5.213  14.922
66050W        W31035  26.425  25.561  11.041
66051W        W31036  44.252  37.290  13.378
66052W        W31037   0.751  11.731   1.924
66053W        W31038  36.029  19.182   4.424
66054W        W31039   1.239  32.743  11.585
66055W        W31040  14.078  34.091   0.458
66056W        W31041  18.209  16.551   3.336
66057W        W31042  35.709  21.959   4.563
66058W        W31043  10.034  29.343   0.378
66059W        W31044   4.801  34.555   1.236
66060W        W31045  44.412  25.222  14.018
66061W        W31046  37.877   7.776   4.477
66062W        W31047  21.730  40.647   3.101
66063W        W31048  27.026  44.184   3.735
66064W        W31049  27.697  25.249   4.133
66065W        W31050  40.149  29.999   4.616
66066W        W31051   3.637  29.512  12.060
66067W        W31052  42.290  17.460  13.168
66068W        W31053  32.327  38.951  13.518
66069W        W31054   3.740  41.777   3.821
66070W        W31055  30.100  33.793   2.931
66071W        W31056  13.015  13.309   2.290
66072W        W31057  38.117  28.421   1.486
66073W        W31058   0.542   2.661  13.321
66074W        W31059  32.321  13.392  14.588
66075W        W31060   7.810  32.454   3.695
66076W        W31061  35.143  21.574   2.398
66077W        W31062   5.782  39.498   2.894
66078W        W31063  27.469  42.608  12.949
66079W        W31064  40.934  14.190  10.612
66080W        W31065  33.069  15.617  13.040
66081W        W31066   0.478  26.058  13.325
66082W        W31067  22.210  27.511  10.703
66083W        W31068  40.295  11.707   2.417
66084W        W31069  30.745  18.801   1.137
66085W        W31070  25.429  18.629   2.007
66086W        W31071  17.826  20.735  12.751
66087W        W31072  35.144  13.273  10.133
66088W        W31073  41.537  11.869   1.914
66089W        W31074  11.203  10.132   3.252
66090W        W31075  12.658   5.228   2.311
66091W        W31076  29.460  28.470  12.149
66092W        W31077  29.660   2.655   0.863
66093W        W31078  37.919   2.792   4.242
66094W        W31079   2.504  13.638   3.243
66095W        W31080  30.796  28.242   3.261
66096W        W31081  26.033   6.265  13.483
66097W        W31082   5.891  22.742   0.301
66098W        W31083  41.954  25.535  14.318
66099W        W31084  32.529  12.156   2.380
66100W        W31085  28.851  44.759  12.509
66101W        W31086  27.187  31.530  13.840
66102W        W31087  26.259  40.396   0.047
66103W        W31088  12.064  21.413   4.380
66104W        W31089  40.251  18.247  12.328
66105W        W31090  32.042  36.010  13.996
66106W        W31091  13.446   5.249   9.864
66107W        W31092   4.613  33.716   1.246
66108W        W31093   2.774  25.627   0.563
66109W        W31094  30.147   6.462   0.636
66110W        W31095   5.266  15.032  10.625
66111W        W31096   4.653  33.149  10.202
66112W        W31097  37.104   1.688  11.544
66113W        W31098  39.876  10.235   3.306
66114W        W31099  11.072  41.586  13.107
66115W        W31100  25.447  27.875   2.669
66116W        W31101  42.850   7.872   2.345
66117W        W31102  28.746   7.306  12.929
66118W        W31103  10.615  40.950   3.957
66119W        W31104  18.667  28.642   4.591
66120W        W31105  42.330  32.720  12.960
66121W        W31106   0.497  10.856   2.101
66122W        W31107  27.049   4.709   2.054
66123W        W31108  42.274  36.049  12.977
66124W        W31109  11.804  12.943   1.749
66125W        W31110  29.736  31.948   0.565
66126W        W31111  19.742  40.503   4.260
66127W        W31112   4.936   8.749   2.465
66128W        W31113  24.057  25.727  14.041
66129W        W31114   2.723  31.141  12.922
66130W        W31115  33.005  42.467   2.353
66131W        W31116  11.776  33.546   3.970
66132W        W31117  17.071  33.350   2.751
66133W        W31118  13.079   2.358  13.325
66134W        W31119  38.993  22.513   2.125
66135W        W31120  26.567   9.719  12.249
66136W        W31121  31.039  39.745  14.423
66137W        W31122  12.210  31.040   4.446
66138W        W31123  16.582  25.457   3.733
66139W        W31124  38.454  43.484  12.342
66140W        W31125  32.869  23.868   1.491
66141W        W31126   5.284   4.683   0.170
66142W        W31127  36.554   8.101   3.811
66143W        W31128  39.073  34.917   1.895
66144W        W31129  20.253  34.928   4.095
66145W        W31130   7.736   5.429  13.246
66146W        W31131  34.773  17.113   4.511
66147W        W31132  22.467  37.474   2.205
66148W        W31133  39.779   7.649   1.769
66149W        W31134  30.990  26.020   1.791
66150W        W31135  24.650  27.562  12.148
66151W        W31136  40.450   2.214  13.776
66152W        W31137  13.686   3.596  14.501
66153W        W31138   8.479  41.922  10.415
66154W        W31139  31.024  42.378   4.102
66155W        W31140  23.502  27.560   0.295
66156W        W31141  14.704  35.468  13.439
66157W        W31142   8.433  36.397   0.278
66158W        W31143  20.448  31.062  13.196
66159W        W31144   4.159  13.602  14.886
66160W        W31145   0.763  26.661  13.348
66161W        W31146   6.283  24.437  14.439
66162W        W31147  37.753  36.491   2.185
66163W        W31148  27.970  39.715  12.881
66164W        W31149  36.232  43.882   4.077
66165W        W31150  12.931  15.447   1.310
66166W        W31151  16.251  17.920  13.281
66167W        W31152  35.921  33.260   5.058
66168W        W31153   7.908   9.778  13.930
66169W        W31154  35.686  26.645  14.912
66170W        W31155  20.553  39.039  10.533
66171W        W31156   3.708   5.693  13.487
66172W        W31157  34.449   4.701   1.014
66173W        W31158  44.484  20.502  14.556
66174W        W31159  29.531  10.381   3.055
66175W        W31160   4.592  35.525   1.336
66176W        W31161  20.916  44.734  13.834
66177W        W31162   0.447  41.512   3.240
66178W        W31163  31.046  33.833  11.215
66179W        W31164  13.202  44.007  11.470
66180W        W31165  21.726  26.599  11.251
66181W        W31166  10.899  36.417  14.363
66182W        W31167  34.345  35.038  12.526
66183W        W31168  26.161  43.262   1.682
66184W        W31169  19.679  10.174  11.670
66185W        W31170  10.114  24.781  10.288
66186W        W31171  30.377  43.226   2.993
66187W        W31172  39.349  16.695   0.840
66188W        W31173  36.026  19.175   4.933
66189W        W31174  26.741  25.081   1.305
66190W        W31175  18.678  41.979   3.502
66191W        W31176  17.694  30.658  14.526
66192W        W31177   1.420  27.883  14.538
66193W        W31178  30.226  13.628   1.405
66194W        W31179   7.263  36.493   0.211
66195W        W31180  13.984  29.830  13.365
66196W        W31181  15.357  15.747  13.473
66197W        W31182  12.349  22.536   0.410
66198W        W31183  23.155   6.144   0.094
66199W        W31184  34.617   5.778   4.195
66200W        W31185  26.005  30.925   4.015
66201W        W31186  27.510  20.501   2.727
66202W        W31187  18.720  21.979  13.526
66203W        W31188  22.662   1.330  14.418
66204W        W31189  29.053  25.218   3.344
66205W        W31190  23.659  22.636  14.027
66206W        W31191  30.042  17.232  13.534
66207W        W31192  27.613  14.881  12.676
66208W        W31193  30.445  19.156  12.490
66209W        W31194  39.162  18.866   3.733
66210W        W31195  16.248  21.019  11.040
66211W        W31196   0.552  35.984   5.035
66212W        W31197  39.939  30.857   0.350
66213W        W31198  38.827   0.209   1.419
66214W        W31199  16.664  43.895  12.633
66215W        W31200  16.917  16.804   2.138
66216W        W31201  14.737  13.240   4.921
66217W        W31202  19.336  12.098  14.924
66218W        W31203  23.805  17.646  13.669
66219W        W31204  18.318  32.990  10.738
66220W        W31205  23.030   5.291  12.365
66221W        W31206  23.955  29.403   0.414
66222W        W31207   2.857  36.529  13.314
66223W        W31208  30.473  39.926   0.428
66224W        W31209  31.646   3.463  11.067
66225W        W31210  22.236  23.201  12.578
66226W        W31211  42.487  14.635   1.954
66227W        W31212  26.667   5.396  10.924
66228W        W31213  24.589  20.832   0.207
66229W        W31214  37.426  32.006  13.153
66230W        W31215  13.557   9.865   2.195
66231W        W31216  42.685  34.437  13.572
66232W        W31217  34.988  32.317   4.772
66233W        W31218   7.323   0.608  11.085
66234W        W31219  38.009   3.157  14.749
66235W        W31220  21.421  12.735   1.390
66236W        W31221   8.726  13.301   1.844
66237W        W31222  19.733  38.865  14.450
66238W        W31223  43.528   0.847  12.577
66239W        W31224   6.169   6.258   1.283
66240W        W31225  38.475   7.646   1.149
66241W        W31226  13.371  14.054  10.675
66242W        W31227   6.426  25.209  13.911
66243W        W31228   9.604   8.552   2.435
66244W        W31229  14.314  28.222  12.902
66245W        W31230   7.769   5.915  13.417
66246W        W31231   4.434  27.425  14.547
66247W        W31232  14.526  34.380  11.436
66248W        W31233   5.033  16.030  14.053
66249W        W31234  37.247   7.752  10.492
66250W        W31235  13.910  37.057   2.700
66251W        W31236  44.219  23.067  11.523
66252W        W31237  29.493  19.067  12.435
66253W        W31238  27.148  24.440   2.679
66254W        W31239   7.303  31.348   1.998
66255W        W31240  39.331  20.824   0.350
66256W        W31241  41.780  27.180   1.804
66257W        W31242  21.988  34.486   4.957
66258W        W31243   7.672  33.439  10.602
66259W        W31244  12.749   9.808  12.444
66260W        W31245  36.760  12.122   2.689
66261W        W31246   2.382  16.349  14.649
66262W        W31247  30.945  37.488  14.962
66263W        W31248   2.427   6.471   2.302
66264W        W31249  40.958  38.364   2.796
66265W        W31250  38.053  16.683  12.302
66266W        W31251  10.845  28.454  12.103
66267W        W31252   6.422  17.688   2.380
66268W        W31253  19.201  16.677  14.753
66269W        W31254   2.173  11.944  14.501
66270W        W31255  27.004   6.375  13.681
66271W        W31256  35.643   7.659  11.263
66272W        W31257  27.311  41.914  14.078
66273W        W31258  27.949  29.412   4.106
66274W        W31259   1.663  33.880  11.511
66275W        W31260   9.625  34.804  13.383
66276W        W31261  40.928  23.059   0.714
66277W        W31262   1.927  28.756   4.582
66278W        W31263  42.468   3.543  11.654
66279W        W31264  35.432  24.625   0.427
66280W        W31265  31.096  16.609   3.888
66281W        W31266  23.116  33.155  14.268
66282W        W31267  20.667  27.484  14.943
66283W        W31268   9.200   4.444  12.184
66284W        W31269  10.209  18.115  10.845
66285W        W31270  21.591   0.317   4.561
66286W        W31271  38.767  10.680  13.912
66287W        W31272  37.797   8.953   2.756
66288W        W31273   7.796  20.332  12.488
66289W        W31274  29.179  32.570  12.764
66290W        W31275  27.754  25.953  11.124
66291W        W31276  25.067  15.721  12.018
66292W        W31277  14.385  19.843  11.062
66293W        W31278  26.171   6.785  14.816
66294W        W31279  18.232  19.527  14.034
66295W        W31280   4.718  30.025   0.442
66296W        W31281  10.100   9.339   2.237
66297W        W31282  40.012   8.288  13.291
66298W        W31283  30.377  19.229  10.958
66299W        W31284  37.604  12.580  13.389
66300W        W31285  35.944  12.646  11.874
66301W        W31286  17.092  30.718   0.338
66302W        W31287  38.357  25.784   2.672
66303W        W31288  14.123  40.081  11.220
66304W        W31289   6.827  41.571   1.859
66305W        W31290  31.960  13.855   0.764
66306W        W31291  16.340   0.898   1.812
66307W        W31292  22.774   8.232   2.670
66308W        W31293  22.625  31.525  11.015
66309W        W31294  26.861  11.135  10.363
66310W        W31295  34.318  17.890   4.163
66311W        W31296  10.824   1.614  10.697
66312W        W31297  31.992   7.217   0.512
66313W        W31298  18.168  15.167   0.925
66314W        W31299  41.068  12.310  11.883
66315W        W31300  13.156   4.430  12.550
66316W        W31301  37.043  15.680  14.427
66317W        W31302  12.894  34.995   1.746
66318W        W31303  43.113  42.000   4.569
66319W        W31304  16.700  33.869   3.737
66320W        W31305  33.325   6.336   4.461
66321W        W31306  12.824   8.336  13.858
66322W        W31307  14.301   9.202   0.170
66323W        W31308  37.329  16.902  14.050
66324W        W31309  34.788  30.461  12.455
66325W        W31310  27.344   8.882  13.809
66326W        W31311  44.472  44.889  12.169
66327W        W31312  36.521  34.338  12.997
66328W        W31313  40.766  28.642   2.248
66329W        W31314  26.519  23.374   3.241
66330W        W31315  15.774  12.033   0.694
66331W        W31316  19.779   0.231   2.747
66332W        W31317  17.158  43.388   3.186
66333W        W31318  29.728   9.237   2.753
66334W        W31319   3.735  11.840   4.669
66335W        W31320  15.060   2.524   1.757
66336W        W31321   7.446  20.125  13.570
66337W        W31322  38.455  21.169   1.928
66338W        W31323  18.844  20.799   1.750
66339W        W31324  19.884  17.569   4.929
66340W        W31325  37.091   2.304   0.356
66341W        W31326  42.580  25.057   0.455
66342W        W31327   2.842   8.718   3.845
66343W        W31328   0.773  21.740  11.201
66344W        W31329  44.524  20.288  13.116
66345W        W31330  38.244   1.045  12.553
66346W        W31331  25.513  23.471  11.125
66347W        W31332  28.897  42.535   4.119
66348W        W31333  27.730  25.768   4.545
66349W        W31334  38.897  10.750   5.021
66350W        W31335   9.279  37.454  13.031
66351W        W31336  42.367  15.713  10.286
66352W        W31337  32.647  32.633  12.884
66353W        W31338   5.960  25.414   4.672
66354W        W31339  43.446  11.336   3.762
66355W        W31340  11.433  24.531  13.097
66356W        W31341  22.464  25.973  14.321
66357W        W31342  27.070  37.198   2.667
66358W        W31343  35.981  12.601   0.262
66359W        W31344  30.647   8.429  10.773
66360W        W31345  43.384  11.797   0.324
66361W        W31346  28.884  32.527   1.537
66362W        W31347   6.862  32.477   1.692
66363W        W31348  22.981   5.506   1.303
66364W        W31349  43.738   2.295  11.388
66365W        W31350  33.472  14.193  11.254
66366W        W31351  30.672   2.050   4.306
66367W        W31352  17.189  33.541  14.762
66368W        W31353   6.089  24.006  11.920
66369W        W31354   5.927   0.958  14.784
66370W        W31355  31.332  30.609   1.747
66371W        W31356  20.169  15.541   3.876
66372W        W31357  13.119  27.742   1.121
66373W        W31358  38.478   0.796  10.790
66374W        W31359   9.331  39.622   0.495
66375W        W31360  23.576  33.033   3.816
66376W        W31361  16.053  43.861   4.174
66377W        W31362  12.575  38.167  11.160
66378W        W31363  18.800   3.694  13.417
66379W        W31364  37.772  33.999   0.865
66380W        W31365  44.870  25.026   5.078
66381W        W31366  40.373  40.784   0.908
66382W        W31367  17.337  26.161  11.657
66383W        W31368  18.354  22.980   1.882
66384W        W31369   1.514  29.092  12.937
66385W        W31370  14.822  36.420   0.949
66386W        W31371  13.227  23.666   2.687
66387W        W31372  26.412  32.034   0.003
66388W        W31373  18.832  29.180  12.434
66389W        W31374   5.856  12.172  13.491
66390W        W31375   0.484   0.935   3.004
66391W        W31376  35.016  42.232  14.020
66392W        W31377  14.723  28.278  14.383
66393W        W31378  36.497  17.017   0.283
66394W        W31379  26.772  39.419   2.350
66395W        W31380   5.168  19.053   2.264
66396W        W31381  18.969  36.960  11.202
66397W        W31382  19.708  40.035  14.840
66398W        W31383  31.833  25.187  14.962
66399W        W31384  35.487   9.358   2.464
66400W        W31385  14.136   8.573   3.392
66401W        W31386  16.783  38.115   1.029
66402W        W31387  32.066  42.080   2.145
66403W        W31388  26.995  10.564  12.797
66404W        W31389  25.629  22.840  12.859
66405W        W31390  28.612  24.104   3.612
66406W        W31391  35.896  39.324  11.899
66407W        W31392  20.201   5.715   0.785
66408W        W31393   2.238  22.617   1.223
66409W        W31394  14.202  27.147   4.075
66410W        W31395   2.230   0.489  10.442
66411W        W31396   7.678  34.465  13.062
66412W        W31397  18.968  40.013  11.344
66413W        W31398  37.936  25.289  10.307
66414W        W31399  10.239  10.652  12.181
66415W        W31400  22.525  20.085   2.891
66416W        W31401  23.080   7.545  13.351
66417W        W31402  40.441  44.366   0.204
66418W        W31403  23.173   0.712  12.402
66419W        W31404  30.279   3.176  13.522
66420W        W31405  27.057  39.071   2.095
66421W        W31406   4.718  11.432   4.284
66422W        W31407  25.947  11.256   2.782
66423W        W31408  22.338  16.315   1.840
66424W        W31409  37.909   8.345  14.798
66425W        W31410  21.982  22.201  11.639
66426W        W31411  29.130  35.405   1.305
66427W        W31412  23.962   6.741   1.408
66428W        W31413  40.465  44.050   3.270
66429W        W31414  27.909  22.544   0.302
66430W        W31415   4.855  11.100   1.998
66431W        W31416  15.741  25.390  10.095
66432W        W31417  18.115  39.341   3.963
66433W        W31418  35.536  14.305   2.304
66434W        W31419  13.446   3.996  11.464
66435W        W31420  12.387  13.097   3.665
66436W        W31421  33.497  26.560  11.515
66437W        W31422  22.049  30.698  11.084
66438W        W31423   0.755  35.531   4.864
66439W        W31424   9.432  12.309  14.451
66440W        W31425  25.680  40.572   0.883
66441W        W31426   8.368  18.337   1.587
66442W        W31427  41.768  14.661  13.665
66443W        W31428  14.138  10.193   1.183
66444W        W31429  36.642   4.983  14.289
66445W        W31430  31.769  17.999  14.753
66446W        W31431   6.331   5.505   1.753
66447W        W31432  14.915  37.935   2.647
66448W        W31433  41.370  25.541  13.220
66449W        W31434   3.716   2.433   0.371
66450W        W31435  19.610  31.636  12.803
66451W        W31436  25.398  37.450   9.807
66452W        W31437   4.292  41.465   2.821
66453W        W31438  27.539   8.484   4.392
66454W        W31439  24.451  33.906   2.775
66455W        W31440  20.092   9.709   2.825
66456W        W31441   3.436  11.352   2.105
66457W        W31442  40.607   2.961   2.283
66458W        W31443  34.625  36.890  12.003
66459W        W31444   0.485  11.674   0.282
66460W        W31445   7.961  17.749   0.894
66461W        W31446  41.059   3.054  13.915
66462W        W31447  19.630  15.557  12.507
66463W        W31448   9.727   7.901   4.567
66464W        W31449   9.237  26.271   0.462
66465W        W31450  44.582  34.514   2.297
66466W        W31451   4.460  23.978  10.757
66467W        W31452  25.546   0.170  11.991
66468W        W31453  36.991  31.897   2.757
66469W        W31454   0.420  27.053  14.487
66470W        W31455  25.649   6.069   1.325
66471W        W31456  15.227   0.531  12.048
66472W        W31457   4.845  38.702   0.738
66473W        W31458   8.403   3.866   0.815
66474W        W31459  19.879  13.099   1.309
66475W        W31460   4.304   9.228   0.744
66476W        W31461  18.102  29.910  13.990
66477W        W31462  26.960  43.054   3.227
66478W        W31463   7.976  39.787   3.324
66479W        W31464  40.929  23.946   4.623
66480W        W31465  22.711  14.253  10.733
66481W        W31466  25.984  27.940  11.034
66482W        W31467  33.479  15.084   4.631
66483W        W31468  23.094  33.212   3.606
66484W        W31469  34.573  26.820  14.880
66485W        W31470  13.866  22.153  10.585
66486W        W31471  20.466   3.994  10.635
66487W        W31472  44.821  35.367   3.865
66488W        W31473  26.604  35.522   3.325
66489W        W31474   0.015  28.458  10.761
66490W        W31475  34.046   3.501  13.112
66491W        W31476  27.504   0.361  12.444
66492W        W31477  33.407   6.998  11.344
66493W        W31478  27.513   7.474   2.785
66494W        W31479  33.520  37.057   4.872
66495W        W31480  41.244  34.037  12.041
66496W        W31481  30.971  44.864   0.916
66497W        W31482  14.982  41.451  14.074
66498W        W31483  37.552  13.546   1.221
66499W        W31484  38.350   9.633   2.174
66500W        W31485  13.483  24.017  14.892
66501W        W31486  22.544  30.435  12.855
66502W        W31487  32.142  30.889   0.524
66503W        W31488   9.400  40.830  10.984
66504W        W31489  38.271  33.540  10.398
66505W        W31490   5.304  12.378   3.281
66506W        W31491  12.756   7.088   1.720
66507W        W31492  25.709  34.157   3.313
66508W        W31493  15.794   9.401  13.912
66509W        W31494  38.974  33.462   1.383
66510W        W31495   6.272   9.619  11.682
66511W        W31496   4.779  10.342  14.332
66512W        W31497  25.088  19.007   4.430
66513W        W31498  33.533  30.888  10.540
66514W        W31499  28.661  32.233   1.897
66515W        W31500  21.157  36.046   3.846
66516W        W31501  18.095   1.936   2.808
66517W        W31502  37.793   7.297   4.637
66518W        W31503  39.114   4.184  10.973
66519W        W31504  18.518  26.042  13.567
66520W        W31505   9.433   9.133  13.045
66521W        W31506  37.927  40.085   3.826
66522W        W31507  35.631   5.749   0.845
66523W        W31508   9.340  29.077  14.829
66524W        W31509   4.411   3.407  11.543
66525W        W31510  40.108  33.066   5.088
66526W        W31511  27.900  14.054   2.723
66527W        W31512   5.337  20.790   3.602
66528W        W31513  21.545   3.717   4.476
66529W        W31514  13.075  18.518  12.992
66530W        W31515  33.708  14.135   0.481
66531W        W31516  12.233   8.451   4.456
66532W        W31517  44.740  17.339   2.377
66533W        W31518  25.179  35.428   4.743
66534W        W31519  25.375  26.454   2.719
66535W        W31520  25.596  34.065   1.907
66536W        W31521  31.535  28.228  13.888
66537W        W31522  42.745  38.917  11.915
66538W        W31523  29.017  24.995  14.803
66539W        W31524  30.920  28.803  12.602
66540W        W31525  30.051  18.936  12.773
66541W        W31526   7.859  25.641   4.137
66542W        W31527   1.445  22.046   0.306
66543W        W31528  43.007  16.784   1.923
66544W        W31529   6.277  35.113  14.949
66545W        W31530  25.254  23.560   4.556
66546W        W31531  20.551  11.809  10.532
66547W        W31532  16.045  28.109  11.302
66548W        W31533  28.418   8.349  14.340
66549W        W31534   2.442   7.767   2.430
66550W        W31535  36.112  15.136   4.615
66551W        W31536   8.034   9.290   2.598
66552W        W31537  38.860  34.912  12.491
66553W        W31538  42.900  22.420   3.760
66554W        W31539  34.457  16.757   1.228
66555W        W31540  27.636  25.665  14.305
66556W        W31541   1.359  36.325  13.337
66557W        W31542  31.593   7.879  13.991
66558W        W31543  33.504   0.585   4.572
66559W        W31544   5.288   9.003   3.170
66560W        W31545  42.169  24.353   4.059
66561W        W31546   4.371  32.273   1.262
66562W        W31547   2.664   4.625   2.311
66563W        W31548  41.972   1.209  14.582
66564W        W31549  41.492  12.400   0.401
66565W        W31550   7.700   5.924   3.617
66566W        W31551  18.623   6.478  14.793
66567W        W31552   3.822   6.352  10.669
66568W        W31553   3.028   0.890  10.798
66569W        W31554   9.896  43.919   1.875
66570W        W31555  17.370  15.377  11.928
66571W        W31556   7.188  37.404   4.500
66572W        W31557   6.659  13.097   2.685
66573W        W31558  30.949  44.750   3.814
66574W        W31559  21.688  14.242  12.034
66575W        W31560   9.902  11.425   2.793
66576W        W31561  44.753  14.328  14.497
66577W        W31562  12.390  44.706   0.524
66578W        W31563  35.123  35.428  14.291
66579W        W31564  15.544  42.448  11.599
66580W        W31565  41.529  41.309  12.517
66581W        W31566  33.138  40.287  11.558
66582W        W31567   7.243  12.899  12.400
66583W        W31568  10.220  31.210   0.010
66584W        W31569  39.001  12.733   2.832
66585W        W31570  36.898  19.133   3.762
66586W        W31571   1.956  21.673  11.903
66587W        W31572  27.984  21.549  12.515
66588W        W31573  24.018  41.253   3.326
66589W        W31574   0.609   9.939  13.895
66590W        W31575   8.352   2.596   4.172
66591W        W31576  24.280   6.452   2.361
66592W        W31577  42.780  15.654  11.708
66593W        W31578  42.412  29.533   4.658
66594W        W31579  29.975   3.384  10.407
66595W        W31580  35.552  10.930   0.221
66596W        W31581  43.301  14.388   4.614
66597W        W31582  27.932   9.668  12.983
66598W        W31583  33.095   7.854   1.845
66599W        W31584  31.643  16.353  12.274
66600W        W31585  31.922  22.146   3.586
66601W        W31586  44.872  39.100  11.156
66602W        W31587  24.015  30.286  10.940
66603W        W31588  28.399  12.360  10.316
66604W        W31589  30.622   3.098  10.070
66605W        W31590   7.787   2.055  14.491
66606W        W31591  12.206  33.097   0.363
66607W        W31592   9.932  19.154  14.486
66608W        W31593  20.668   5.913  14.073
66609W        W31594  20.636  18.751  12.450
66610W        W31595   5.393  34.955  10.846
66611W        W31596  42.710   2.831  12.595
66612W        W31597  20.639  43.345  11.637
66613W        W31598  40.024   4.787   2.294
66614W        W31599   4.441   7.041   1.937
66615W        W31600  12.286  11.700  12.095
66616W        W31601   9.653  17.531   2.191
66617W        W31602   0.921   2.965  14.945
66618W        W31603  15.179   9.400   3.560
66619W        W31604  15.052   5.371  13.423
66620W        W31605  27.496  26.097  11.544
66621W        W31606  24.653  23.633  13.451
66622W        W31607  11.528  17.422  12.375
66623W        W31608  22.223   8.771  13.554
66624W        W31609  13.108  37.762   1.693
66625W        W31610  19.332   7.858   0.740
66626W        W31611  26.561  38.104  12.864
66627W        W31612  42.812  32.682  11.167
66628W        W31613  32.962  44.962   1.020
66629W        W31614   4.924  35.988  14.687
66630W        W31615   2.600  23.989  10.467
66631W        W31616  42.770  12.064   0.203
66632W        W31617  18.143  21.368   4.097
66633W        W31618  14.581  41.387   1.272
66634W        W31619  22.756  12.653   4.482
66635W        W31620  22.169  11.607  11.603
66636W        W31621  28.070  39.501  11.979
66637W        W31622  24.220   6.253  11.930
66638W        W31623  37.538  35.898   0.471
66639W        W31624  16.652  36.489  12.206
66640W        W31625  26.264  39.280   2.326
66641W        W31626   1.899  19.251   3.745
66642W        W31627  41.311   5.771  14.823
66643W        W31628  13.850  22.915  12.362
66644W        W31629  17.721  28.100   2.294
66645W        W31630  28.176  37.115  13.881
66646W        W31631  41.457  44.652  11.626
66647W        W31632  32.515   7.117   1.352
66648W        W31633  11.707  34.870  11.374
66649W        W31634   1.383  41.766  12.640
66650W        W31635   6.684  14.826  12.161
66651W        W31636  14.536  28.186   3.561
66652W        W31637  34.625  38.040  11.142
66653W        W31638   2.898  44.051   3.643
66654W        W31639  33.624  40.355  13.010
66655W        W31640  42.002  14.037   0.959
66656W        W31641   3.350  15.066  13.536
66657W        W31642  25.475  36.157   1.817
66658W        W31643  21.474  22.500  12.560
66659W        W31644  28.701  37.442  14.509
66660W        W31645   9.853  43.613  14.321
66661W        W31646  29.966  21.445   4.270
66662W        W31647  21.706   1.942   3.708
66663W        W31648  18.650  12.609  11.606
66664W        W31649  44.977  22.717   0.453
66665W        W31650  20.480   4.366   0.413
66666W        W31651  22.178  17.001  13.711
66667W        W31652   9.314  19.286  14.225
66668W        W31653   7.583  21.140  10.887
66669W        W31654  16.268  36.092   3.230
66670W        W31655  12.366   4.416   1.340
66671W        W31656  10.762  19.700  12.511
66672W        W31657   1.816  30.695   1.310
66673W        W31658  19.689  24.201   4.166
66674W        W31659  42.470  37.917  10.780
66675W        W31660  19.837   5.380   0.959
66676W        W31661  15.449  11.506  13.305
66677W        W31662   3.809  37.312  13.493
66678W        W31663  15.209  32.280   4.086
66679W        W31664  25.111  16.048  11.234
66680W        W31665  41.484   3.354  13.938
66681W        W31666  11.565  24.004  12.516
66682W        W31667   4.351  29.568   4.575
66683W        W31668  25.551   7.345  10.649
66684W        W31669   2.341   7.684   3.293
66685W        W31670  31.712  17.549   1.655
66686W        W31671  23.781  18.718  11.608
66687W        W31672  42.019  39.478   4.676
66688W        W31673   9.676  31.514   2.433
66689W        W31674   9.730  44.981   4.690
66690W        W31675  23.305  25.264   0.220
66691W        W31676  29.514   1.302  12.517
66692W        W31677  39.780  11.766  14.235
66693W        W31678  26.980  32.877   3.886
66694W        W31679  30.911  34.737  12.875
66695W        W31680  16.010   5.143   1.829
66696W        W31681   3.357  23.244   1.827
66697W        W31682  39.359  41.319  10.566
66698W        W31683  36.873   6.194   0.706
66699W        W31684  44.473  43.953  14.934
66700W        W31685   4.685  26.926  12.453
66701W        W31686  14.223  32.411  13.114
66702W        W31687  35.401  29.847  11.686
66703W        W31688  22.085   1.822  14.796
66704W        W31689  31.019  10.349   4.712
66705W        W31690   3.654   1.992   4.162
66706W        W31691  42.463   9.248   3.459
66707W        W31692  31.566   3.337   0.390
66708W        W31693   8.572  20.654  13.532
66709W        W31694  40.902  22.143   2.356
66710W        W31695   8.958  34.328   1.689
66711W        W31696  25.570  41.407   2.694
66712W        W31697  22.612   3.185   4.148
66713W        W31698   5.766   7.398  11.664
66714W        W31699  23.674   0.722   0.503
66715W        W31700  23.087  33.219  10.548
66716W        W31701  38.439  31.098  12.691
66717W        W31702   2.638  41.017  14.824
66718W        W31703  27.979  20.081  11.155
66719W        W31704  28.680  27.679  14.961
66720W        W31705  43.299  10.625  14.528
66721W        W31706  37.872  29.839  12.954
66722W        W31707  12.874   7.288   3.777
66723W        W31708  31.618   4.554  14.063
66724W        W31709   5.612  17.632   1.708
66725W        W31710  35.407   5.545   3.239
66726W        W31711  26.079  17.694  11.069
66727W        W31712   5.824  37.437  12.372
66728W        W31713  28.256  28.594   0.282
66729W        W31714  27.920  17.529  12.826
66730W        W31715  38.170   5.414   4.894
66731W        W31716  29.683  38.806  13.628
66732W        W31717  14.214  23.461  11.583
66733W        W31718  23.206  34.182  14.316
66734W        W31719   8.172  14.667   3.043
66735W        W31720  22.497   3.425   0.245
66736W        W31721  37.462  34.895  12.675
66737W        W31722  25.429  29.076  13.605
66738W        W31723   3.009   2.243   4.951
66739W        W31724  38.610  28.347   1.394
66740W        W31725  17.462  30.079   1.036
66741W        W31726  38.372  38.115  10.699
66742W        W31727   2.784  38.410   2.916
66743W        W31728   6.867  14.866   1.822
66744W        W31729   3.248  22.730   3.785
66745W        W31730  40.662  39.668  11.604
66746W        W31731  10.250   2.122   9.821
66747W        W31732   5.886  12.380  14.514
66748W        W31733  14.375  20.162   3.030
66749W        W31734  43.855  20.463  14.386
66750W        W31735  15.638  29.167   0.354
66751W        W31736   7.157   2.695  14.968
66752W        W31737   0.439  34.599  11.525
66753W        W31738  35.483   6.934   4.461
66754W        W31739  16.547  11.259  14.374
66755W        W31740  37.751  28.970  10.246
66756W        W31741   6.657   7.267   2.237
66757W        W31742  30.911  40.797  13.551
66758W        W31743  40.555  29.574   0.774
66759W        W31744  25.237  26.638  10.290
66760W        W31745   5.795  28.179  14.723
66761W        W31746  20.578  19.102   1.570
66762W        W31747  44.768  13.856   2.255
66763W        W31748  27.917  33.080   3.753
66764W        W31749  22.647  12.197  13.602
66765W        W31750  26.520  10.433  13.408
66766W        W31751   0.796   4.250   2.218
66767W        W31752  19.292  37.983  12.085
66768W        W31753  13.249  40.727  13.610
66769W        W31754   7.580   8.929   2.827
66770W        W31755  35.768  34.410   0.990
66771W        W31756   3.241  29.189   3.084
66772W        W31757  26.065  21.095  13.789
66773W        W31758   6.157  13.746  12.630
66774W        W31759  32.295  16.485  13.375
66775W        W31760  16.667  10.696   3.535
66776W        W31761  28.244  17.748  12.418
66777W        W31762  34.948  40.873  14.376
66778W        W31763  30.633  17.573   3.088
66779W        W31764  32.851   6.408   5.220
66780W        W31765  21.536  44.771  11.161
66781W        W31766  43.802  23.991   4.303
66782W        W31767  29.150   0.543   0.363
66783W        W31768  34.066  11.426   2.796
66784W        W31769  14.446  30.918  12.573
66785W        W31770  21.839  30.248  10.774
66786W        W31771  27.216  10.210   0.788
66787W        W31772   8.738   3.324   3.332
66788W        W31773  42.265  11.537  12.987
66789W        W31774  37.842  31.880   2.286
66790W        W31775   6.974  40.970  11.533
66791W        W31776  29.160  19.883  11.637
66792W        W31777  18.651  17.791  13.394
66793W        W31778   5.637  28.599  11.075
66794W        W31779   4.734   8.801  14.173
66795W        W31780  26.318   6.045   5.024
66796W        W31781  17.660  29.247   4.444
66797W        W31782  12.194  10.044  14.350
66798W        W31783  43.948  39.444   3.206
66799W        W31784  14.787  27.552   0.439
66800W        W31785  41.691  12.799  11.862
66801W        W31786   0.288   8.624  11.110
66802W        W31787   8.455  16.289  10.602
66803W        W31788  18.773  25.592  14.537
66804W        W31789  24.084  35.651   4.241
66805W        W31790  37.241  27.679   0.275
66806W        W31791  41.948   6.311   0.306
66807W        W31792  21.621  26.941   3.559
66808W        W31793  35.631   0.632  11.926
66809W        W31794  12.355  35.330   2.311
66810W        W31795  37.091  16.243  11.930
66811W        W31796  38.998  39.828   2.846
66812W        W31797  24.003  31.895  13.195
66813W        W31798  34.903  18.686   4.104
66814W        W31799  21.875  18.544  11.658
66815W        W31800  42.839  15.232   2.597
66816W        W31801  26.914  22.826  12.096
66817W        W31802  18.329   9.861   0.792
66818W        W31803  34.107  19.184  14.934
66819W        W31804   9.787  41.955   0.367
66820W        W31805  10.551   3.819   0.449
66821W        W31806  16.823   1.271   0.041
66822W        W31807  22.660  17.122  14.469
66823W        W31808   1.858   3.421   2.891
66824W        W31809  20.607   9.299   1.788
66825W        W31810  38.772  17.856   4.851
66826W        W31811  10.859  10.750  13.294
66827W        W31812  34.399  24.818  12.422
66828W        W31813   0.354   0.304  11.699
66829W        W31814  40.877   1.488   1.962
66830W        W31815  20.340  42.014   1.649
66831W        W31816  39.548  37.353   4.054
66832W        W31817  22.535  36.875   2.535
66833W        W31818  32.452   6.812  14.233
66834W        W31819  34.625  16.637  13.598
66835W        W31820  24.975  34.330  12.825
66836W        W31821  28.853  35.947  12.360
66837W        W31822  14.559  25.312   1.565
66838W        W31823   8.497  27.522   4.352
66839W        W31824  44.504  32.681   1.637
66840W        W31825   3.799  39.576   4.150
66841W        W31826  37.978  22.521   0.310
66842W        W31827  38.718  22.968   0.393
66843W        W31828  22.766   7.134  13.344
66844W        W31829  25.066  19.864   3.196
66845W        W31830  12.633  10.655   0.582
66846W        W31831  19.609   4.708  14.742
66847W        W31832  19.734   2.882  13.493
66848W        W31833  27.629   6.585  12.016
66849W        W31834  37.836  26.676  14.968
66850W        W31835  25.848  38.848  14.380
66851W        W31836  27.040  39.274  14.510
66852W        W31837  43.118  15.496  12.074
66853W        W31838  19.525  39.029  14.886
66854W        W31839  42.351  20.193   1.808
66855W        W31840  31.229  24.232   4.582
66856W        W31841  26.002  28.863   2.296
66857W        W31842  35.468  23.268  12.753
66858W        W31843  39.913  43.297   3.060
66859W        W31844   4.874  34.542   4.655
66860W        W31845  20.766  34.400  11.913
66861W        W31846   6.179  22.369  11.185
66862W        W31847  10.144  30.568   5.085
66863W        W31848  44.598  44.039   3.022
66864W        W31849  29.054   3.667   4.640
66865W        W31850  16.740   3.349   4.118
66866W        W31851  32.558  43.997   3.051
66867W        W31852  38.490  16.339  14.008
66868W        W31853  29.163   2.944   2.227
66869W        W31854  26.823  38.845  10.302
66870W        W31855  29.264   6.271  11.071
66871W        W31856  39.913  13.102  14.775
66872W        W31857  20.083   5.860   0.287
66873W        W31858  15.052   3.344  11.985
66874W        W31859   3.660  16.057  14.331
66875W        W31860  36.752  17.774  14.761
66876W        W31861   8.523  25.069  12.973
66877W        W31862  42.321  38.129  11.824
66878W        W31863  36.056  41.239  14.804
66879W        W31864  14.629  13.733   2.821
66880W        W31865  44.958  42.604  11.218
66881W        W31866  26.944  15.334  13.064
66882W        W31867  43.567  43.754   0.307
66883W        W31868  23.754  10.604  13.371
66884W        W31869   3.193  43.161   2.279
66885W        W31870   7.937  17.712  11.681
66886W        W31871  18.272  44.355   2.824
66887W        W31872   1.495  12.316   0.920
66888W        W31873  29.206   6.596  12.640
66889W        W31874  40.667  32.129  10.826
66890W        W31875  20.982  28.743  11.638
66891W        W31876  21.661  37.410   1.278
66892W        W31877   2.420  42.917  10.749
66893W        W31878  32.390   8.254   3.166
66894W        W31879  10.755  21.006   1.434
66895W        W31880  16.255  26.159   3.239
66896W        W31881  33.040  10.631   4.178
66897W        W31882  23.163  35.100   2.600
66898W        W31883  35.830   3.474   0.772
66899W        W31884   8.213  34.039   1.191
66900W        W31885  32.218  37.551   1.348
66901W        W31886  40.672  21.760   4.136
66902W        W31887  22.750  12.689  13.450
66903W        W31888   0.662  19.878  14.444
66904W        W31889  14.877   6.865  14.323
66905W        W31890  15.827  37.856  12.074
66906W        W31891  18.984  32.473  13.397
66907W        W31892   4.162  20.763  11.145
66908W        W31893   8.178  34.103   1.702
66909W        W31894  12.925   0.233   1.473
66910W        W31895  26.707  25.006   0.335
66911W        W31896  40.926  36.016  12.678
66912W        W31897  22.565  40.382   4.725
66913W        W31898  20.998  17.113   0.048
66914W        W31899  35.368  28.705  10.838
66915W        W31900  14.637  36.705  11.656
66916W        W31901  22.126  27.049   1.283
66917W        W31902  44.965  20.067  10.670
66918W        W31903  29.775   4.557   0.877
66919W        W31904  26.624   7.300  11.438
66920W        W31905  21.226  22.171  13.449
66921W        W31906  42.900  28.654   1.971
66922W        W31907  19.629  22.708   2.725
66923W        W31908  36.862  38.348  13.971
66924W        W31909   8.346   1.720   4.042
66925W        W31910  42.954  20.118  12.462
66926W        W31911  40.585  23.690   4.979
66927W        W31912  22.421  18.676   0.768
66928W        W31913  16.938   3.913  12.446
66929W        W31914  39.389   0.269   3.691
66930W        W31915  32.705  37.538  14.957
66931W        W31916  10.374  30.115  11.134
66932W        W31917  27.983  35.898  11.173
66933W        W31918  39.487  15.685   4.449
66934W        W31919  25.513   4.398   2.739
66935W        W31920  10.855  32.681  11.504
66936W        W31921  33.457  32.601  11.892
66937W        W31922  42.845  20.057   1.649
66938W        W31923  33.944  39.279   4.450
66939W        W31924  44.716  41.030   3.189
66940W        W31925  17.840  14.425  13.399
66941W        W31926  13.209  15.359  12.701
66942W        W31927  24.301  38.589   1.761
66943W        W31928  37.027  11.398   2.326
66944W        W31929   0.420  14.104   4.408
66945W        W31930  17.569  30.902   0.466
66946W        W31931  10.153  33.814  12.581
66947W        W31932  26.718   7.530  11.914
66948W        W31933  15.089  25.095   5.504
66949W        W31934   5.239   4.041  11.568
66950W        W31935  20.383   7.876  13.500
66951W        W31936  37.547  33.428  12.378
66952W        W31937  18.453  30.449   3.181
66953W        W31938  31.799  17.005  13.120
66954W        W31939  19.445  27.773  12.498
66955W        W31940   1.068   2.873  11.515
66956W        W31941   8.893  15.146   4.855
66957W        W31942   2.585  39.054   3.321
66958W        W31943  25.522  40.165  14.442
66959W        W31944  39.908  23.393  10.275
66960W        W31945  23.374   8.152  13.902
66961W        W31946  23.764   9.035   2.216
66962W        W31947   6.936  19.167  12.897
66963W        W31948  40.435  27.017   1.330
66964W        W31949  19.620  31.623  14.542
66965W        W31950   1.837  11.904   1.908
66966W        W31951  37.347  14.641  13.037
66967W        W31952  25.360  19.903  11.115
66968W        W31953  35.558  24.924  14.341
66969W        W31954  23.741  30.689  12.055
66970W        W31955   1.404  35.575   1.841
66971W        W31956  41.633  21.712   1.508
66972W        W31957  43.724   9.785  14.517
66973W        W31958  23.986  36.499  10.471
66974W        W31959   9.874   4.899   2.237
66975W        W31960  30.036  10.120  14.943
66976W        W31961  30.461  37.824   1.809
66977W        W31962   7.776  10.713   1.633
66978W        W31963   4.926  39.021  13.542
66979W        W31964   9.104   4.396  10.323
66980W        W31965  24.945  19.617   0.488
66981W        W31966  12.638  25.461   0.318
66982W        W31967   0.872  18.243  14.871
66983W        W31968  16.086  41.495   3.179
66984W        W31969  15.791   9.716   3.345
66985W        W31970  19.383   1.826   4.390
66986W        W31971  10.764  36.796  13.020
66987W        W31972  34.993   2.253   5.332
66988W        W31973   4.796  33.244   2.402
66989W        W31974  36.879  29.170   0.288
66990W        W31975  39.553  31.376  14.838
66991W        W31976  20.968  37.118  12.252
66992W        W31977   1.540  33.907  10.878
66993W        W31978  39.972  18.094  13.368
66994W        W31979  17.148   1.869  11.417
66995W        W31980  13.258  12.705  12.549
66996W        W31981  33.570   8.674   2.110
66997W        W31982  41.831  12.072   3.534
66998W        W31983  42.737   4.453   1.007
66999W        W31984  11.865   1.192  13.955
67000W        W31985  24.207  34.052   2.323
67001W        W31986  15.275  34.822  14.468
67002W        W31987   7.336  26.584  10.701
67003W        W31988  38.072  36.907  12.560
67004W        W31989  38.135  27.800  12.512
67005W        W31990  34.333   7.434  13.906
67006W        W31991  39.216   6.226  13.764
67007W        W31992  34.886  12.333   2.241
67008W        W31993  22.776  20.241  11.491
67009W        W31994  43.662  40.343  12.857
67010W        W31995  37.480  27.699  13.060
67011W        W31996  18.568   0.531   1.014
67012W        W31997  43.379   6.353   3.279
67013W        W31998  25.633   4.394  14.430
67014W        W31999  12.640   8.269   4.786
67015W        W32000   2.185   8.161   4.092
67016W        W32001  14.288  27.493   3.145
67017W        W32002   4.901  30.386   0.755
67018W        W32003  16.172  32.062   0.349
67019W        W32004  16.194  43.357   3.440
67020W        W32005  12.385   1.364   3.864
67021W        W32006   5.484  18.609  10.032
67022W        W32007  23.674   1.056  11.743
67023W        W32008  28.952  19.715  14.419
67024W        W32009  21.215  31.977  14.929
67025W        W32010  29.459  37.658   3.121
67026W        W32011  10.908  38.359   2.089
67027W        W32012  18.905   8.700   3.627
67028W        W32013  33.227  13.780  11.063
67029W        W32014  40.146  44.439   4.638
67030W        W32015  42.266  14.337  14.610
67031W        W32016  37.864  11.958  12.531
67032W        W32017   8.820  37.690   2.391
67033W        W32018  25.412   8.666  13.863
67034W        W32019  39.049  17.482   3.370
67035W        W32020  12.269   6.174  12.473
67036W        W32021  12.430   1.397   0.148
67037W        W32022   0.039  23.549  12.587
67038W        W32023   1.773  38.844  12.476
67039W        W32024  10.257  36.298  10.302
67040W        W32025   0.422  34.033   0.448
67041W        W32026   0.666  37.610   5.117
67042W        W32027  18.501  43.268  13.490
67043W        W32028   7.683  18.510  13.881
67044W        W32029  40.064  28.705  12.085
67045W        W32030   5.334   8.848   2.166
67046W        W32031   4.895  22.161   2.655
67047W        W32032  23.441  28.947  13.862
67048W        W32033  34.123  35.128  12.976
67049W        W32034  12.855  32.905   2.869
67050W        W32035  44.986  39.645  11.665
67051W        W32036   5.764   2.683   1.757
67052W        W32037   5.439   1.106   3.954
67053W        W32038  44.873  30.573  13.160
67054W        W32039  20.550  28.625  13.816
67055W        W32040  35.073  33.411  14.478
67056W        W32041  19.135  43.549  14.258
67057W        W32042  35.451  17.939  12.860
67058W        W32043  35.136  25.226  14.365
67059W        W32044   2.770   4.211  10.825
67060W        W32045  40.338  39.558  11.998
67061W        W32046  22.175   7.697   3.722
67062W        W32047  31.622  24.156  14.785
67063W        W32048  35.744  12.145  14.541
67064W        W32049  22.087  25.183  13.721
67065W        W32050   4.700  34.762  11.951
67066W        W32051   4.202   5.332   1.370
67067W        W32052   5.771  16.039  11.468
67068W        W32053   1.687  28.049  12.485
67069W        W32054  19.279   4.035   0.853
67070W        W32055  25.327  20.586   4.655
67071W        W32056  19.155   5.968  13.563
67072W        W32057  41.320   4.851  12.104
67073W        W32058  34.352  25.024   4.631
67074W        W32059  25.654  32.601   3.129
67075W        W32060  43.972  10.680   0.823
67076W        W32061  20.758  15.674  11.188
67077W        W32062  22.676  44.348   1.756
67078W        W32063  33.083  40.237   2.937
67079W        W32064  17.967  18.539   3.183
67080W        W32065   7.253   3.163   3.653
67081W        W32066  20.822   7.181   1.917
67082W        W32067  31.732  38.035  11.170
67083W        W32068  20.388  41.723  12.651
67084W        W32069  24.852  43.999   2.404
67085W        W32070  29.573  12.372  11.182
67086W        W32071  21.898  31.856  14.331
67087W        W32072  30.755   8.215  11.650
67088W        W32073   7.803  23.593   0.938
67089W        W32074  32.194  15.122  12.901
67090W        W32075  10.574  43.213   0.559
67091W        W32076   1.880  26.915  12.112
67092W        W32077   1.001  16.268   1.422
67093W        W32078  36.459  36.908  11.485
67094W        W32079  34.306  35.522   4.882
67095W        W32080   9.892  32.001   3.749
67096W        W32081   7.722  25.281  10.824
67097W        W32082  27.069   7.750   1.914
67098W        W32083  43.100  14.640   4.203
67099W        W32084   2.295   4.850   5.451
67100W        W32085  26.611  37.906  11.906
67101W        W32086  38.626   6.708   3.340
67102W        W32087  35.363  17.994  12.001
67103W        W32088  19.290  14.801  13.133
67104W        W32089  23.613  37.971  12.485
67105W        W32090  31.077  20.219   0.497
67106W        W32091  36.021   4.010  12.476
67107W        W32092  36.159  41.360   1.313
67108W        W32093   6.060   9.788  12.900
67109W        W32094  23.434   9.270   1.730
67110W        W32095   8.909  27.564  14.814
67111W        W32096  41.473  10.401  12.829
67112W        W32097  32.172  37.093  11.042
67113W        W32098   3.921  22.620   1.490
67114W        W32099  29.171  43.893   4.206
67115W        W32100   8.091  18.120   4.610
67116W        W32101  28.642  10.785   3.246
67117W        W32102  24.149  16.173   3.632
67118W        W32103  23.114  41.858   3.154
67119W        W32104  23.089   6.562  11.671
67120W        W32105  38.287   5.980  14.789
67121W        W32106  39.487  11.818   4.089
67122W        W32107  23.169  25.276   4.150
67123W        W32108  21.075   6.819   1.431
67124W        W32109  40.550  13.573   2.285
67125W        W32110  42.640  18.593   4.962
67126W        W32111  40.780  25.101  12.549
67127W        W32112  21.086   3.508  10.927
67128W        W32113  23.496   0.845  14.834
67129W        W32114  43.541   7.562  11.548
67130W        W32115  17.312  43.449   1.184
67131W        W32116  35.257  28.093  13.025
67132W        W32117  10.351   6.631  10.672
67133W        W32118  12.862  20.533   1.022
67134W        W32119  26.642   9.443  10.912
67135W        W32120  26.086  43.843   3.091
67136W        W32121  33.399  16.129   3.761
67137W        W32122  18.067  34.321  13.019
67138W        W32123  22.789   7.470   4.333
67139W        W32124  33.103  23.267  13.357
67140W        W32125  16.076  20.709   0.379
67141W        W32126  19.556  25.563  13.118
67142W        W32127  26.979   6.142  12.210
67143W        W32128  16.582  36.697  12.670
67144W        W32129  18.333  41.375  10.722
67145W        W32130  16.623  43.786   2.273
67146W        W32131  41.563   0.322   2.465
67147W        W32132  11.314   6.636  11.495
67148W        W32133  25.031  17.016  11.000
67149W        W32134  10.456  17.503   2.999
67150W        W32135   9.510  37.606   0.283
67151W        W32136  32.109  31.942   1.736
67152W        W32137  19.973  33.139  12.402
67153W        W32138  33.476  42.837   0.247
67154W        W32139  35.651  10.387   0.446
67155W        W32140  38.223  42.935  13.490
67156W        W32141  18.246  24.019  13.316
67157W        W32142   4.972  10.029   2.572
67158W        W32143  41.332  25.700  11.961
67159W        W32144  38.008  14.681   0.821
67160W        W32145  32.857  30.471  10.893
67161W        W32146  12.581  19.146  11.402
67162W        W32147   4.642  40.617   1.287
67163W        W32148  34.447  15.764  11.944
67164W        W32149  44.841   7.198  10.523
67165W        W32150  42.844  22.590  11.447
67166W        W32151  37.624  29.798   3.176
67167W        W32152  11.700  16.905   1.860
67168W        W32153   8.014  15.334  11.680
67169W        W32154  14.567   6.140   5.463
67170W        W32155  28.358  36.701   2.158
67171W        W32156  43.743   1.124  12.991
67172W        W32157  44.630   2.779   0.578
67173W        W32158  10.140   2.209  13.841
67174W        W32159  21.576  16.877  12.482
67175W        W32160  21.588   8.637  11.050
67176W        W32161  43.325   0.564   0.105
67177W        W32162  43.299   4.371   2.823
67178W        W32163  15.287   8.485  12.041
67179W        W32164  22.550   0.408  14.791
67180W        W32165  11.239  25.394   1.305
67181W        W32166  24.705  44.283  14.880
67182W        W32167   7.764  38.805  10.638
67183W        W32168   8.869  35.074   4.590
67184W        W32169  22.027  24.086  14.839
67185W        W32170  22.233  18.312   1.038
67186W        W32171  26.113   0.311   4.352
67187W        W32172   1.749  38.052   2.319
67188W        W32173  19.226   0.331  13.861
67189W        W32174  40.275  18.543   4.520
67190W        W32175  13.266  23.041  11.738
67191W        W32176  32.274  33.749  14.450
67192W        W32177  44.833  24.970  11.038
67193W        W32178  36.150   5.541   4.986
67194W        W32179  18.134  22.197   2.348
67195W        W32180  33.601   5.143  12.360
67196W        W32181  19.171  13.706  13.595
67197W        W32182   4.126  39.792   4.689
67198W        W32183  35.377  25.143   4.524
67199W        W32184  36.579   2.271  12.343
67200W        W32185  44.737  28.574   0.663
67201W        W32186  25.159  17.632  13.718
67202W        W32187   0.727  40.111   1.277
67203W        W32188  28.102  18.552  11.186
67204W        W32189  33.957  33.660  12.151
67205W        W32190  21.564   6.308  13.769
67206W        W32191  30.075  13.671   4.103
67207W        W32192   9.239  27.181  11.546
67208W        W32193  34.660   7.641  14.259
67209W        W32194  11.421  20.019  11.194
67210W        W32195  11.726  27.612   0.022
67211W        W32196  19.768  19.756  11.109
67212W        W32197  39.951   5.645  14.520
67213W        W32198  31.523  40.997   3.136
67214W        W32199   1.790  37.571   4.095
67215W        W32200  11.567  21.509  11.975
67216W        W32201  14.084  25.381   4.325
67217W        W32202   5.133   3.396   4.179
67218W        W32203  22.607  13.293  14.303
67219W        W32204  19.680  35.829  11.393
67220W        W32205  20.173  28.211  13.424
67221W        W32206  23.840  20.235   1.889
67222W        W32207  34.681   5.847  13.110
67223W        W32208  44.260   8.346   0.927
67224W        W32209  26.271  44.837  14.549
67225W        W32210  38.162  26.460  12.508
67226W        W32211   7.542  15.125   4.644
67227W        W32212  13.847  27.484  10.174
67228W        W32213  44.187  29.563  12.951
67229W        W32214  11.863  23.328  13.173
67230W        W32215  34.965   3.442  12.354
67231W        W32216  18.209  28.904   4.652
67232W        W32217   6.209  24.956  13.521
67233W        W32218  26.941   6.680   0.725
67234W        W32219  23.086  14.647   2.892
67235W        W32220  17.776  16.738   1.321
67236W        W32221  39.554   6.723  13.403
67237W        W32222  42.694  34.823  12.724
67238W        W32223  37.353  41.385   3.207
67239W        W32224  15.708  40.559   3.112
67240W        W32225  16.836  24.993   0.062
67241W        W32226  34.825  15.314   0.621
67242W        W32227  27.418  30.462  12.537
67243W        W32228  30.586  17.108   3.923
67244W        W32229   5.389   1.053  11.677
67245W        W32230  33.448   3.835   0.691
67246W        W32231   7.913  33.588   2.303
67247W        W32232  10.630  14.181  10.562
67248W        W32233  40.471  23.620   2.145
67249W        W32234  28.590  37.627  12.465
67250W        W32235  40.072  29.703  13.553
67251W        W32236  30.328  22.189  10.805
67252W        W32237  25.852  40.893   2.162
67253W        W32238  23.633  19.020   2.446
67254W        W32239  15.666   0.457   3.105
67255W        W32240  25.691  37.948  12.643
67256W        W32241  33.207  29.085   1.659
67257W        W32242  19.784  36.855   0.421
67258W        W32243  44.915   0.435  11.905
67259W        W32244  10.573  30.122  14.256
67260W        W32245  10.425  36.535   3.353
67261W        W32246  34.457  32.891  12.886
67262W        W32247  32.358   7.352  11.536
67263W        W32248  10.926  18.270   0.331
67264W        W32249  32.087  16.325   0.500
67265W        W32250  20.200  36.307  12.833
67266W        W32251  23.096  41.807  13.984
67267W        W32252   0.137  16.095  14.874
67268W        W32253  14.214  24.290  12.543
67269W        W32254   5.025  29.383   3.150
67270W        W32255   7.249  27.957   0.735
67271W        W32256   0.266  22.407  13.573
67272W        W32257   3.279  40.792   3.235
67273W        W32258  16.885  44.825  10.566
67274W        W32259  13.205   0.266  12.137
67275W        W32260  29.707  32.378  10.211
67276W        W32261  18.679  12.869  13.123
67277W        W32262  15.573  36.641   0.342
67278W        W32263  44.063  26.643   3.837
67279W        W32264  27.127   2.560  14.264
67280W        W32265   4.430  14.704  11.622
67281W        W32266  38.413  12.079  10.810
67282W        W32267  22.256  23.893   0.313
67283W        W32268   6.695  42.872   1.817
67284W        W32269  18.630  32.606   3.695
67285W        W32270  39.545   1.335   1.167
67286W        W32271  23.781  34.152  12.154
67287W        W32272  16.057  12.652   4.873
67288W        W32273  41.756  15.129  14.798
67289W        W32274  44.730  15.271  11.214
67290W        W32275  28.777   0.870   1.193
67291W        W32276  40.139  19.862   1.162
67292W        W32277  41.369  18.254  11.853
67293W        W32278  16.168  29.160   0.317
67294W        W32279  23.110   7.159   3.728
67295W        W32280  22.945   9.091  14.842
67296W        W32281  25.962   3.545  12.888
67297W        W32282   5.375  29.441   4.440
67298W        W32283  35.388   3.361   1.694
67299W        W32284  14.184  15.462  12.644
67300W        W32285  17.478  39.080  13.266
67301W        W32286  34.970  37.327   1.086
67302W        W32287   5.960  38.076   2.910
67303W        W32288   5.097  11.570  11.284
67304W        W32289   5.262  12.901  13.446
67305W        W32290  32.404  10.074   1.810
67306W        W32291  29.702  36.698   3.556
67307W        W32292   9.860  16.362  14.771
67308W        W32293  29.901  20.178  10.718
67309W        W32294  29.566  15.937   5.084
67310W        W32295   2.793  16.656  14.491
67311W        W32296   8.609   7.745   3.550
67312W        W32297  30.688  19.716   1.688
67313W        W32298  20.831   3.297   4.439
67314W        W32299  24.625  21.516   1.848
67315W        W32300  31.171  36.255  11.176
67316W        W32301  31.938   0.803   2.555
67317W        W32302   2.364   9.918   2.277
67318W        W32303  16.850  12.084  14.684
67319W        W32304  34.136  31.647   0.065
67320W        W32305  32.199   1.276  13.866
67321W        W32306  25.085  11.666  12.501
67322W        W32307  34.560  20.737   2.726
67323W        W32308  19.331   8.344   4.725
67324W        W32309  12.088  24.843  12.324
67325W        W32310   5.326  10.226  13.472
67326W        W32311  11.449  26.676   0.640
67327W        W32312  16.979  29.760   4.275
67328W        W32313   8.944  31.315   0.717
67329W        W32314  10.267   6.390   2.260
67330W        W32315  30.846  38.629   0.926
67331W        W32316   3.205   7.243  13.059
67332W        W32317   8.962  29.126  11.184
67333W        W32318  36.614  29.344  14.790
67334W        W32319  38.838  24.690   5.100
67335W        W32320  36.416  17.691   2.917
67336W        W32321  22.467  30.772   0.219
67337W        W32322  17.259  35.608  13.886
67338W        W32323  35.325   4.681  12.706
67339W        W32324  13.126  21.112  10.412
67340W        W32325  30.145   6.489  11.445
67341W        W32326  32.630  30.649   2.338
67342W        W32327   5.570  40.111  12.471
67343W        W32328  13.067  27.091  14.316
67344W        W32329  11.650  36.609  13.975
67345W        W32330  15.222  22.929   4.613
67346W        W32331  43.800  44.068  14.276
67347W        W32332  12.059   3.423   3.692
67348W        W32333   4.275  14.588  14.952
67349W        W32334  42.525  14.128   0.973
67350W        W32335  17.906  14.305  12.393
67351W        W32336   6.697  24.623  13.043
67352W        W32337   5.199  27.442  13.122
67353W        W32338   1.746  24.669  12.535
67354W        W32339   6.791  30.455   1.852
67355W        W32340  41.417  26.737   1.836
67356W        W32341   5.673  28.675  14.579
67357W        W32342  40.747  33.976   4.550
67358W        W32343   7.878   7.215   3.323
67359W        W32344  30.283   7.021   0.472
67360W        W32345  31.053  44.767  11.653
67361W        W32346   7.783  38.874  12.211
67362W        W32347   9.253   9.800  12.314
67363W        W32348  29.436  13.384  11.121
67364W        W32349  17.815  13.854   2.292
67365W        W32350  40.540  17.819  13.985
67366W        W32351  10.404  23.246  13.992
67367W        W32352  19.291  15.168   0.908
67368W        W32353   1.869  40.947  11.272
67369W        W32354  31.101  36.465  12.420
67370W        W32355   8.734  30.652   2.516
67371W        W32356   4.983   4.719  13.378
67372W        W32357  44.954   2.596   2.763
67373W        W32358  30.543   9.769  11.772
67374W        W32359  43.649   6.426  11.964
67375W        W32360   0.785  39.724  14.591
67376W        W32361   2.802   0.749  14.406
67377W        W32362  37.575  31.361   2.910
67378W        W32363  21.555  34.810  13.339
67379W        W32364  36.370   6.083   3.828
67380W        W32365  37.268  23.198  11.245
67381W        W32366  39.594  41.319   0.857
67382W        W32367  42.945  40.089  14.172
67383W        W32368  27.021  42.300   4.572
67384W        W32369  18.603   0.382  12.681
67385W        W32370  42.980  32.073   1.384
67386W        W32371  28.677   1.996   0.409
67387W        W32372  27.772  23.979  14.680
67388W        W32373  10.162  10.908   1.847
67389W        W32374  39.084  14.117  13.431
67390W        W32375  18.276   2.558  11.943
67391W        W32376  41.011  15.246   5.408
67392W        W32377  25.998   6.894  14.317
67393W        W32378  15.688   0.992  14.490
67394W        W32379  31.301  13.534   2.334
67395W        W32380  15.314  37.684   4.301
67396W        W32381  13.827  19.157   0.735
67397W        W32382  20.015   4.641  13.371
67398W        W32383  43.081   3.306   1.757
67399W        W32384  44.405  30.105   0.903
67400W        W32385  40.318  44.823   2.825
67401W        W32386  10.545  39.706   2.148
67402W        W32387  10.630   2.835   2.896
67403W        W32388  30.482  43.377   0.885
67404W        W32389  41.265  28.036  13.428
67405W        W32390  43.861  26.536   1.996
67406W        W32391  19.617  27.075   1.740
67407W        W32392  35.573  16.129   4.758
67408W        W32393  12.273  24.302  10.887
67409W        W32394  33.018  13.081  11.720
67410W        W32395   1.548  13.800  14.491
67411W        W32396  44.578  23.220   3.687
67412W        W32397  31.247  29.493   2.946
67413W        W32398  41.612  28.823  11.327
67414W        W32399  25.047  34.495   4.120
67415W        W32400  36.307  38.982   5.010
67416W        W32401  14.389  43.216   1.192
67417W        W32402  15.202  32.791   1.125
67418W        W32403   4.648  33.924  13.521
67419W        W32404  11.816  26.052   4.684
67420W        W32405  34.990  18.781  13.630
67421W        W32406  28.205   2.981   4.869
67422W        W32407  20.096   5.299  11.661
67423W        W32408  24.704  11.240  12.458
67424W        W32409  30.441  23.250  12.571
67425W        W32410   9.155  32.573   4.786
67426W        W32411  20.127  25.599   4.876
67427W        W32412   5.647  35.426  13.607
67428W        W32413  11.576  19.602   1.846
67429W        W32414   6.281  40.102  13.817
67430W        W32415  21.562  15.285  13.539
67431W        W32416   0.007   3.361  13.267
67432W        W32417  33.708  36.472   0.284
67433W        W32418  23.533   0.886   2.740
67434W        W32419  26.098  28.919  14.497
67435W        W32420  39.361  17.281   3.781
67436W        W32421  35.559  28.470  14.951
67437W        W32422  28.922  37.336   1.384
67438W        W32423  35.470  13.533  10.472
67439W        W32424  10.748  41.849  12.588
67440W        W32425  28.934  24.671  14.363
67441W        W32426   3.152  24.126  13.361
67442W        W32427  23.453  14.053  12.320
67443W        W32428  41.029   2.677   2.413
67444W        W32429  39.785  20.100   4.254
67445W        W32430  13.062  25.735   0.393
67446W        W32431   4.720  16.693   3.402
67447W        W32432  41.536  41.443   1.405
67448W        W32433  28.785   2.709  13.180
67449W        W32434  33.162   2.535  11.047
67450W        W32435  18.035  11.099  11.514
67451W        W32436  34.816   5.228  11.127
67452W        W32437  43.946  12.987   2.744
67453W        W32438   4.449  39.230   2.871
67454W        W32439  42.250  23.431  12.592
67455W        W32440  11.844   3.700   4.675
67456W        W32441  38.386  33.892  10.759
67457W        W32442  23.589  33.670  14.917
67458W        W32443  42.410  43.419   0.797
67459W        W32444  40.539  17.272   0.897
67460W        W32445  13.485   9.278  13.065
67461W        W32446   0.497  17.613  12.123
67462W        W32447  27.856   7.378  13.400
67463W        W32448  20.232  19.724  13.795
67464W        W32449  11.326  27.458  14.752
67465W        W32450  34.880   3.975  14.467
67466W        W32451  21.010   5.155   1.288
67467W        W32452  21.014  29.344  13.294
67468W        W32453   5.293  16.631  11.734
67469W        W32454  10.359  10.843  13.998
67470W        W32455   7.769  23.362   4.897
67471W        W32456  35.630   7.391   9.885
67472W        W32457  23.407  11.761   3.248
67473W        W32458  40.595  32.158   0.894
67474W        W32459   8.044  22.697  10.711
67475W        W32460  16.859  33.965  14.012
67476W        W32461  16.068   1.358  11.180
67477W        W32462  28.153   7.215   4.685
67478W        W32463  22.731  17.173   1.781
67479W        W32464  16.279  26.191  12.417
67480W        W32465  44.123   4.569  10.409
67481W        W32466   3.844   7.129   0.228
67482W        W32467  28.514  37.956   0.787
67483W        W32468  15.226  23.579  14.938
67484W        W32469  26.420   3.025   4.043
67485W        W32470  44.707  39.791   0.294
67486W        W32471  37.409  17.131   0.380
67487W        W32472  27.174  37.633  10.825
67488W        W32473  22.283  11.090  11.648
67489W        W32474  27.987  18.468  14.795
67490W        W32475  44.190  42.786   3.891
67491W        W32476  40.805  40.747  14.295
67492W        W32477  26.054  32.477   0.348
67493W        W32478  24.993   5.461   1.410
67494W        W32479  20.510  24.126   2.917
67495W        W32480  24.520   7.878  14.448
67496W        W32481  29.140  24.135   3.419
67497W        W32482  15.054  31.968   3.112
67498W        W32483   6.857  12.148   2.708
67499W        W32484  17.950  28.483  13.762
67500W        W32485  32.215  32.608  13.155
67501W        W32486  14.432  21.990   1.287
67502W        W32487  37.334  43.015   0.889
67503W        W32488  16.230  38.119   3.063
67504W        W32489  24.838  25.609  14.425
67505W        W32490  44.708  32.304  12.058
67506W        W32491  12.602  28.828   0.828
67507W        W32492  21.675  17.505  13.045
67508W        W32493  22.145  34.482   0.908
67509W        W32494  18.709  27.640   4.335
67510W        W32495   2.639  19.133  13.155
67511W        W32496  44.972  13.700   0.467
67512W        W32497  23.090  44.744   0.159
67513W        W32498  24.489  15.706   2.283
67514W        W32499  26.974   0.938   1.786
67515W        W32500   6.170   1.811   0.162
67516W        W32501   6.255  25.054   4.082
67517W        W32502  29.073  19.951  13.437
67518W        W32503   0.709   8.544  13.388
67519W        W32504  32.431  27.561  14.830
67520W        W32505   8.184  41.447   2.068
67521W        W32506   4.008  30.118   4.118
67522W        W32507  26.628   4.724   2.831
67523W        W32508  32.840   5.707  13.956
67524W        W32509  10.592  44.800   0.953
67525W        W32510  22.982  22.109  14.364
67526W        W32511  42.096  16.526   4.871
67527W        W32512  17.448   3.835  12.436
67528W        W32513  41.403  26.526   1.337
67529W        W32514   1.439   7.409   1.287
67530W        W32515  22.640  27.606   2.258
67531W        W32516  23.501  44.938  14.870
67532W        W32517  24.335   0.976   3.235
67533W        W32518  43.940  41.920   3.880
67534W        W32519   7.647  37.657   4.551
67535W        W32520  28.450   7.497  10.811
67536W        W32521  16.654  18.235   0.854
67537W        W32522  14.056  28.506  11.939
67538W        W32523  28.989   7.327  13.420
67539W        W32524  15.224  32.169  12.917
67540W        W32525   2.891  24.192  12.918
67541W        W32526   2.439  43.987   2.822
67542W        W32527  27.506  17.971  10.911
67543W        W32528   8.398  23.045   0.330
67544W        W32529  25.977   1.691  11.971
67545W        W32530  32.615  37.460   3.188
67546W        W32531  25.701  14.769   4.034
67547W        W32532  31.078  42.532  13.100
67548W        W32533  25.980  35.942  14.550
67549W        W32534  17.834  34.657  13.554
67550W        W32535  28.914   4.309   0.957
67551W        W32536  25.091  34.595  10.597
67552W        W32537  25.500  18.209   2.999
67553W        W32538   4.328   1.235   1.812
67554W        W32539   8.275  27.473  13.078
67555W        W32540  33.299  27.203  12.443
67556W        W32541  10.307  33.506   1.305
67557W        W32542  39.391   4.055   2.301
67558W        W32543  43.273  15.637  11.580
67559W        W32544  40.336  34.375  13.558
67560W        W32545   0.228  42.540   4.073
67561W        W32546  44.216  16.330   1.838
67562W        W32547  31.929  44.238  10.374
67563W        W32548  33.896   9.937  12.494
67564W        W32549   0.380  24.603  10.701
67565W        W32550  38.851   3.387   0.954
67566W        W32551  31.888  29.082   1.329
67567W        W32552   0.842   1.794   4.398
67568W        W32553  36.946   7.159  13.835
67569W        W32554  39.656  40.471   3.222
67570W        W32555  10.840  30.155  12.385
67571W        W32556  18.158  34.770  10.819
67572W        W32557  15.216  37.383   2.271
67573W        W32558  37.432  21.498   2.851
67574W        W32559  40.510  21.747  14.285
67575W        W32560  18.120  22.426  10.688
67576W        W32561  17.755   4.858  13.099
67577W        W32562  29.879  33.179   3.023
67578W        W32563  13.065  14.220   4.139
67579W        W32564  44.107   1.488   3.450
67580W        W32565  43.254  37.325  12.460
67581W        W32566  28.813  41.689  12.392
67582W        W32567   0.924  36.019  13.291
67583W        W32568  16.238   1.420   3.782
67584W        W32569  10.905  23.122  10.469
67585W        W32570  30.865  20.236  14.057
67586W        W32571  16.103   1.548  12.045
67587W        W32572  37.091  25.524   0.438
67588W        W32573  35.998  34.532   0.555
67589W        W32574  21.038  23.984   1.846
67590W        W32575  17.115  31.752   2.551
67591W        W32576  28.710  13.645   2.344
67592W        W32577   0.702  40.722  14.904
67593W        W32578  16.118  42.852  10.926
67594W        W32579   8.270  10.579   1.850
67595W        W32580  15.108  12.589   0.285
67596W        W32581   6.024  43.837   4.714
67597W        W32582  25.518  34.334  10.579
67598W        W32583   3.344  37.489   1.742
67599W        W32584   6.120  20.144  11.170
67600W        W32585   3.400  11.249   2.639
67601W        W32586   5.240  17.256   4.558
67602W        W32587   7.676  18.271  12.544
67603W        W32588  26.136  44.737   3.636
67604W        W32589  13.797  21.420  12.515
67605W        W32590   6.032   1.301  13.042
67606W        W32591   1.447   4.966  10.674
67607W        W32592  20.278   7.367  11.526
67608W        W32593  25.618  36.347  13.306
67609W        W32594  31.353  36.903  12.533
67610W        W32595  39.899  29.538   4.692
67611W        W32596  17.327  19.913  10.738
67612W        W32597  41.398  17.731  14.496
67613W        W32598  27.425  15.636  11.071
67614W        W32599  42.345  39.240   3.793
67615W        W32600   9.784   3.216   2.418
67616W        W32601  21.743  31.361  11.942
67617W        W32602  41.576  25.741  14.634
67618W        W32603  22.214  28.074   4.845
67619W        W32604  25.688   0.411  11.046
67620W        W32605   6.586   7.430  11.091
67621W        W32606  14.687  40.124  13.508
67622W        W32607  39.670   8.231   0.783
67623W        W32608  26.659  19.828  13.495
67624W        W32609  10.844  20.136  11.277
67625W        W32610  29.050  20.997  14.991
67626W        W32611  13.564   3.300   2.826
67627W        W32612   3.466  30.347  11.491
67628W        W32613  10.261   3.723  10.956
67629W        W32614   3.671  23.102   1.373
67630W        W32615  39.903  16.601   1.763
67631W        W32616  26.668  29.844   1.285
67632W        W32617  28.258   2.960   2.547
67633W        W32618  11.232  28.006   2.615
67634W        W32619  44.402  16.812   0.656
67635W        W32620  16.556  20.630   2.570
67636W        W32621   6.283  17.298  12.490
67637W        W32622  22.758   1.401  11.044
67638W        W32623  38.266  17.201  13.977
67639W        W32624  22.221  30.227  11.125
67640W        W32625  34.937   1.271  13.749
67641W        W32626  35.188  21.962  12.865
67642W        W32627   4.458  27.490  13.697
67643W        W32628  20.484  14.858   1.351
67644W        W32629  37.245  35.724  14.463
67645W        W32630   8.395   2.882  13.609
67646W        W32631  32.929  10.648   0.762
67647W        W32632  17.905   0.562   3.300
67648W        W32633  24.273  12.222   2.159
67649W        W32634  19.198  24.644   4.082
67650W        W32635   3.340  21.969  12.023
67651W        W32636  27.185  18.316  12.826
67652W        W32637  42.981  39.726  12.444
67653W        W32638  19.147  33.747  12.601
67654W        W32639   5.791  37.134   2.623
67655W        W32640   8.890  41.034   4.043
67656W        W32641  42.432  21.994   5.103
67657W        W32642   8.061  38.791   2.805
67658W        W32643  24.728   9.771   4.887
67659W        W32644  23.547   9.371   4.576
67660W        W32645  19.482  24.690   0.251
67661W        W32646   7.265   1.709   2.137
67662W        W32647  17.085  17.092  12.234
67663W        W32648  21.087   4.882  13.452
67664W        W32649  33.584  18.490  13.945
67665W        W32650   5.316  11.311   1.790
67666W        W32651  11.519   9.657  13.585
67667W        W32652  35.715   9.226  12.013
67668W        W32653  43.552  36.881  12.443
67669W        W32654  35.925   0.526  14.966
67670W        W32655  18.787  32.657   2.305
67671W        W32656   4.696   1.460  14.552
67672W        W32657  30.164   5.098  14.523
67673W        W32658  24.662  42.362   4.297
67674W        W32659  24.013  35.412   1.318
67675W        W32660   6.626  33.348   3.121
67676W        W32661  27.986  41.108  12.568
67677W        W32662  44.321  15.642  13.604
67678W        W32663  36.635   3.181  13.812
67679W        W32664  22.698  17.700  11.854
67680W        W32665   9.870   8.167  12.474
67681W        W32666  27.176  27.123   0.524
67682W        W32667   5.537  37.456  14.402
67683W        W32668   5.037  31.420  14.875
67684W        W32669  17.819  42.327   0.435
67685W        W32670   0.905  18.152   0.877
67686W        W32671  14.871  29.533  14.342
67687W        W32672  21.178  33.101   3.622
67688W        W32673  17.089  25.913  13.417
67689W        W32674  38.833  15.281  13.902
67690W        W32675  40.607  39.926   4.002
67691W        W32676  17.231  12.641  14.036
67692W        W32677  44.169  24.585  14.850
67693W        W32678   1.510  15.130  14.032
67694W        W32679  23.086  33.366  13.329
67695W        W32680  19.461  29.720   4.024
67696W        W32681   1.160   4.653  14.330
67697W        W32682  39.553  31.084  13.885
67698W        W32683  16.697   3.402   2.228
67699W        W32684  36.927   3.457   2.839
67700W        W32685  36.493  26.875  14.450
67701W        W32686  17.284  27.599   1.700
67702W        W32687  33.964  22.208  11.917
67703W        W32688  11.942   0.745   3.544
67704W        W32689  30.519  27.518   1.339
67705W        W32690  28.163  31.595   1.247
67706W        W32691  40.263  24.090   1.946
67707W        W32692  36.218   4.863  13.792
67708W        W32693  25.481  12.115  11.495
67709W        W32694   9.198   6.467  13.322
67710W        W32695   9.281  39.935  11.517
67711W        W32696  31.254  13.812   3.254
67712W        W32697  10.349  15.586   0.262
67713W        W32698  13.562   5.835   0.749
67714W        W32699  20.523   0.411  10.516
67715W        W32700  37.403  21.752  11.951
67716W        W32701   6.420  44.126   1.202
67717W        W32702  38.102  13.639   3.347
67718W        W32703   6.909  35.563  12.675
67719W        W32704  14.012  26.928   1.749
67720W        W32705   3.842  42.411   4.131
67721W        W32706  16.826   6.362   9.641
67722W        W32707  15.148  12.147   3.806
67723W        W32708   9.156  12.087  14.848
67724W        W32709  37.784   2.063  10.275
67725W        W32710  12.133  27.976   2.350
67726W        W32711  14.162  14.617  11.491
67727W        W32712   2.329  31.153   3.554
67728W        W32713  30.294  27.588   0.838
67729W        W32714  21.961   4.733   4.205
67730W        W32715  28.786  15.781  12.476
67731W        W32716  15.283  38.548   0.428
67732W        W32717  35.518   0.224  14.837
67733W        W32718   3.583  11.665  11.207
67734W        W32719  15.338  21.043  14.952
67735W        W32720  37.932   7.138  14.350
67736W        W32721   9.878   3.296  13.063
67737W        W32722  29.443  18.649   1.428
67738W        W32723  18.788  26.212   4.662
67739W        W32724  35.030  13.645   4.696
67740W        W32725  19.203  11.799  11.355
67741W        W32726  15.338  11.383   4.756
67742W        W32727  18.563   5.354   1.711
67743W        W32728  41.067  41.135  14.737
67744W        W32729  14.857  13.241  12.908
67745W        W32730  18.625  20.987  13.069
67746W        W32731  24.522  15.578   4.585
67747W        W32732  10.234  15.775  12.260
67748W        W32733  39.415  24.468  12.061
67749W        W32734   2.285  34.750   1.281
67750W        W32735   3.344  14.405   2.455
67751W        W32736  33.910  18.829   1.827
67752W        W32737  11.765  22.237  12.084
67753W        W32738  18.352  12.770  10.360
67754W        W32739  38.828  42.372  12.178
67755W        W32740  26.907  12.254  12.068
67756W        W32741  43.617  23.687  10.286
67757W        W32742  22.262  16.794   0.770
67758W        W32743  15.798   8.655  12.080
67759W        W32744  30.209  21.435  11.288
67760W        W32745  26.554   4.842   2.241
67761W        W32746   7.945  14.297  10.800
67762W        W32747  11.516  20.315  11.607
67763W        W32748  19.821   0.347   3.459
67764W        W32749  25.175  43.299   2.241
67765W        W32750   3.265  20.789   0.766
67766W        W32751  23.594  29.562  11.448
67767W        W32752  41.655  13.678   1.087
67768W        W32753  37.975  41.529  10.370
67769W        W32754  18.720  37.814  12.865
67770W        W32755  27.600  31.666   0.062
67771W        W32756  16.594   8.184   3.632
67772W        W32757  21.153  20.284   1.637
67773W        W32758   5.818  34.319  12.967
67774W        W32759  11.581  36.706   0.386
67775W        W32760   3.018   6.935  13.923
67776W        W32761  35.854  10.269   3.747
67777W        W32762  15.078  31.972  11.182
67778W        W32763  29.479  41.861   4.662
67779W        W32764  40.001  41.062   1.769
67780W        W32765  16.801  39.038   0.993
67781W        W32766  27.544  18.985  13.034
67782W        W32767   8.358   7.305  14.307
67783W        W32768  41.837  16.032   0.227
67784W        W32769  39.895  40.933  13.558
67785W        W32770  40.934  34.152   0.782
67786W        W32771  15.823  14.816  14.500
67787W        W32772   4.131  19.253   2.421
67788W        W32773   3.094  28.105  11.194
67789W        W32774  11.755  17.763   0.620
67790W        W32775  44.191  40.974   3.175
67791W        W32776  33.004  22.093   4.720
67792W        W32777  35.827   4.538   3.615
67793W        W32778  36.125  17.542  11.498
67794W        W32779  43.223  10.581   3.136
67795W        W32780   2.397  31.166  12.515
67796W        W32781  43.582  15.940   4.938
67797W        W32782  35.851  14.567   1.256
67798W        W32783   5.230  25.209   0.692
67799W        W32784   6.088  19.842  13.506
67800W        W32785   1.941  36.160  14.767
67801W        W32786  35.141  18.132  12.496
67802W        W32787  33.694  24.431   0.249
67803W        W32788  23.520  44.478  14.381
67804W        W32789   3.768   6.696  13.486
67805W        W32790  16.778  33.590  14.364
67806W        W32791  30.581  20.946  12.278
67807W        W32792  38.561   6.758  10.844
67808W        W32793  31.914  25.727  10.832
67809W        W32794  20.605  12.607   1.697
67810W        W32795  10.590   1.828   3.779
67811W        W32796  22.791  12.527   0.323
67812W        W32797  15.712  43.200   0.002
67813W        W32798  23.624  18.804  12.963
67814W        W32799  38.381   5.493  12.218
67815W        W32800   7.407   3.467   1.805
67816W        W32801  30.615  20.456   0.344
67817W        W32802  39.330  43.780   4.695
67818W        W32803  44.377  23.401  11.182
67819W        W32804  10.289  19.196   1.662
67820W        W32805  40.045  41.984  13.919
67821W        W32806  43.635  31.432  11.999
67822W        W32807   2.995  19.515   0.448
67823W        W32808   9.681  43.446   3.118
67824W        W32809  10.391  40.966  13.916
67825W        W32810   9.437   6.099   0.422
67826W        W32811  32.415   3.919   3.570
67827W        W32812  35.773  23.547   2.847
67828W        W32813  15.073  14.415  11.025
67829W        W32814  43.190  33.092  13.400
67830W        W32815  11.804  32.187  14.881
67831W        W32816   8.176  33.359  11.171
67832W        W32817  35.230   9.316  12.161
67833W        W32818   4.796  38.504  13.462
67834W        W32819   3.323  18.741  11.552
67835W        W32820  14.020  39.971   0.290
67836W        W32821  33.551  25.953   3.759
67837W        W32822  27.014  40.463   1.995
67838W        W32823  16.608  31.368   1.693
67839W        W32824  31.866  29.169  11.543
67840W        W32825  17.685  10.571  13.581
67841W        W32826  12.733  18.584  10.705
67842W        W32827  43.031   9.357   1.818
67843W        W32828  42.620   3.855  10.510
67844W        W32829   9.002  22.700   4.097
67845W        W32830  19.803   9.630  10.949
67846W        W32831   8.944  28.437  13.772
67847W        W32832   7.088   7.243  14.296
67848W        W32833  11.524  33.846  14.352
67849W        W32834  12.910  23.166   3.528
67850W        W32835  16.853   6.190  11.668
67851W        W32836  36.162  27.948   4.226
67852W        W32837  22.171  33.319  14.053
67853W        W32838  19.483  32.907  12.467
67854W        W32839  39.763  11.175  12.400
67855W        W32840  14.782  25.513  10.970
67856W        W32841  40.438  27.529  12.178
67857W        W32842  40.507  35.474   0.874
67858W        W32843  44.576  22.947   4.142
67859W        W32844  29.299  32.488   2.290
67860W        W32845   4.927   0.216  12.006
67861W        W32846   4.251  14.848  12.905
67862W        W32847  33.228  25.872  14.075
67863W        W32848  26.505  38.072   3.537
67864W        W32849   1.337   7.136  11.078
67865W        W32850  24.720  33.634  13.917
67866W        W32851   3.730   4.275  13.559
67867W        W32852   0.000  21.536   0.770
67868W        W32853  24.309  31.608   3.035
67869W        W32854  42.853  21.671  11.803
67870W        W32855  19.816  20.002  13.868
67871W        W32856  26.184  19.805   3.694
67872W        W32857   5.176  17.246  12.437
67873W        W32858  42.760  16.069   0.748
67874W        W32859  23.100   7.857   0.966
67875W        W32860   6.351  26.043  12.166
67876W        W32861  28.586  34.252  13.030
67877W        W32862   3.966  21.068   2.875
67878W        W32863  10.325  24.982   4.194
67879W        W32864  15.140  13.835   1.451
67880W        W32865  35.800   3.411  14.343
67881W        W32866  33.631  23.178   3.843
67882W        W32867   5.206  14.175   3.697
67883W        W32868  44.375  21.966   3.199
67884W        W32869  41.023  35.640  13.420
67885W        W32870   0.544  19.865   3.819
67886W        W32871   6.398   0.369   1.767
67887W        W32872  36.797  32.554  12.941
67888W        W32873  11.300  35.873   1.135
67889W        W32874   8.808  33.137  11.656
67890W        W32875  22.165  20.742   3.240
67891W        W32876  17.373  40.364  11.942
67892W        W32877  24.508  21.601   3.372
67893W        W32878  13.110   4.374   0.011
67894W        W32879  11.787  28.939  13.959
67895W        W32880  31.648  20.795   4.557
67896W        W32881  25.084  30.676   1.250
67897W        W32882  44.098  26.244   9.801
67898W        W32883  17.282  23.619  14.940
67899W        W32884  35.545  16.003   0.451
67900W        W32885  20.982   5.901   3.706
67901W        W32886   4.807  24.590   2.412
67902W        W32887   6.378  28.460  12.040
67903W        W32888  27.075  11.859   1.223
67904W        W32889  41.369  36.797  13.956
67905W        W32890  32.169  15.968  13.493
67906W        W32891  11.649   0.448   4.541
67907W        W32892  31.176   0.947   1.454
67908W        W32893   4.611  32.570   4.740
67909W        W32894   1.246  11.728  13.595
67910W        W32895  30.213   7.821  12.559
67911W        W32896  24.693  20.749   2.613
67912W        W32897  30.640  29.220  14.466
67913W        W32898   7.534  36.378  12.025
67914W        W32899   9.534  27.449  12.888
67915W        W32900  24.439   4.930  10.609
67916W        W32901  36.307  37.475  13.985
67917W        W32902  19.650   8.817   2.152
67918W        W32903   5.866  13.042  11.240
67919W        W32904  24.508  40.511  14.573
67920W        W32905   2.675   6.196   0.511
67921W        W32906  42.580  29.862   1.693
67922W        W32907  23.580   3.352   4.525
67923W        W32908  27.228   7.383   4.210
67924W        W32909  39.975  41.781  12.924
67925W        W32910   9.732  33.674  14.227
67926W        W32911   1.875   8.949   3.524
67927W        W32912   9.690  26.691  14.354
67928W        W32913   7.943  39.473   2.313
67929W        W32914  41.810  44.500  11.972
67930W        W32915  23.816  38.035   4.300
67931W        W32916   3.097   3.406   1.296
67932W        W32917  35.634   7.712   4.920
67933W        W32918  29.328   1.705  12.237
67934W        W32919  10.422  22.309  11.014
67935W        W32920   6.644  33.548  14.797
67936W        W32921   5.861  15.529   4.458
67937W        W32922  40.048  37.128   3.255
67938W        W32923  32.815  41.484  14.006
67939W        W32924  19.065   0.028  13.421
67940W        W32925  25.947  15.077  14.816
67941W        W32926  13.181  37.256   1.706
67942W        W32927  26.462  33.436   5.010
67943W        W32928  26.744   9.524   4.140
67944W        W32929  32.096   2.201  12.618
67945W        W32930  42.122   1.383   2.631
67946W        W32931  23.501   7.230  14.760
67947W        W32932  10.252  44.915  13.914
67948W        W32933  18.448  28.524  10.695
67949W        W32934  12.255  24.024  12.149
67950W        W32935  40.361  28.504  10.781
67951W        W32936  25.724  34.049  11.417
67952W        W32937   7.836  14.211   4.790
67953W        W32938   1.347  35.355   2.856
67954W        W32939   8.220  44.692  10.796
67955W        W32940  22.806  40.720  14.839
67956W        W32941   2.716  20.956   2.809
67957W        W32942  23.705  21.076   0.463
67958W        W32943  33.885  39.114  11.730
67959W        W32944   7.327  17.507   3.663
67960W        W32945  27.020  17.369   4.709
67961W        W32946  37.312  31.758  12.190
67962W        W32947  28.775   3.444  14.310
67963W        W32948  22.660   3.322  10.188
67964W        W32949   9.885  18.084   3.462
67965W        W32950  24.941  39.504  10.649
67966W        W32951  20.988  10.144  12.419
67967W        W32952   2.969  13.736  10.505
67968W        W32953   4.162  20.840   1.705
67969W        W32954  32.941   4.566  12.439
67970W        W32955  14.792  30.551   2.283
67971W        W32956  22.728  34.282  11.815
67972W        W32957  10.399  19.325  13.548
67973W        W32958  18.036  21.746   0.775
67974W        W32959  19.349  32.368   3.408
67975W        W32960  40.976  16.013   0.970
67976W        W32961  39.837  34.169   1.519
67977W        W32962  30.018   9.637  12.584
67978W        W32963  22.129   1.041   4.933
67979W        W32964  35.989  41.285  10.655
67980W        W32965   8.372  33.818  14.424
67981W        W32966  23.982  27.043  14.319
67982W        W32967  27.574  39.553   1.513
67983W        W32968  19.737   8.807   3.358
67984W        W32969   3.408  31.956  13.127
67985W        W32970  32.424  20.818   1.535
67986W        W32971  36.944   8.439   2.694
67987W        W32972  16.917  24.006  12.857
67988W        W32973   1.228  22.729  10.580
67989W        W32974  11.720  14.524   4.414
67990W        W32975   8.610  43.008  14.471
67991W        W32976  20.392   8.931   4.138
67992W        W32977  19.608  13.310   0.769
67993W        W32978  20.799  15.307   1.285
67994W        W32979  35.542  16.946  13.161
67995W        W32980  24.999  40.489  14.778
67996W        W32981  18.741  37.054  10.689
67997W        W32982  23.005  15.940   2.215
67998W        W32983   7.137  38.035   3.757
67999W        W32984  21.370   4.112  10.447
68000W        W32985  38.232  11.968  11.648
68001W        W32986  20.557  24.679   0.826
68002W        W32987  37.998   9.658   9.906
68003W        W32988  23.532  42.188   3.063
68004W        W32989  11.756   1.958   0.513
68005W        W32990   4.256  28.075   4.173
68006W        W32991  41.834  28.417   1.375
68007W        W32992  15.343  20.525  14.934
68008W        W32993  15.392  36.484  12.937
68009W        W32994  14.284  13.676   2.380
68010W        W32995  10.877  17.580   2.198
68011W        W32996  17.125   7.388  12.037
68012W        W32997  24.991  36.588   4.505
68013W        W32998   6.797  22.193  10.702
68014W        W32999  15.873  15.302   2.260
68015W        W33000   9.557  12.633  11.209
68016W        W33001   6.413  31.495   2.743
68017W        W33002  40.707  15.076  12.411
68018W        W33003  28.037   7.976   1.503
68019W        W33004   2.621  16.145  11.425
68020W        W33005   1.917   2.262  10.691
68021W        W33006  11.472  19.627   1.333
68022W        W33007  10.907  42.794   2.294
68023W        W33008  27.589  43.216   9.868
68024W        W33009  32.468  14.272   2.213
68025W        W33010  27.639  24.181  14.201
68026W        W33011  20.741  40.351  14.229
68027W        W33012  37.481  30.920  10.688
68028W        W33013  20.638  26.601   2.242
68029W        W33014  27.256  30.295   2.915
68030W        W33015  10.571  12.238   1.820
68031W        W33016   3.248  41.862   2.323
68032W        W33017  18.444  20.705   3.967
68033W        W33018  17.784  27.189  14.882
68034W        W33019   0.300  42.561   2.268
68035W        W33020  33.942  13.674  10.528
68036W        W33021  15.552  13.233   1.356
68037W        W33022  22.991  31.130  11.801
68038W        W33023  24.526  26.950  13.747
68039W        W33024   6.906  40.072   0.407
68040W        W33025   6.043  44.564   2.263
68041W        W33026  40.980   5.755   4.346
68042W        W33027  37.978   0.354  13.614
68043W        W33028  39.200  36.369   4.339
68044W        W33029   1.264   2.548   1.613
68045W        W33030  29.913   1.662   0.008
68046W        W33031   5.737  30.127  14.233
68047W        W33032   5.768   6.919  12.433
68048W        W33033   9.284  28.711  10.745
68049W        W33034  40.017  35.513  14.678
68050W        W33035  13.149  27.964  10.033
68051W        W33036   3.187  41.514   0.266
68052W        W33037   6.061  32.074  14.054
68053W        W33038   5.945  24.828   3.241
68054W        W33039  44.264   2.278   4.521
68055W        W33040  29.034   5.936  13.245
68056W        W33041  23.196  11.347  13.103
68057W        W33042   6.475   3.619   3.653
68058W        W33043  38.575  44.944  14.791
68059W        W33044   4.376   5.777  14.487
68060W        W33045   8.418  15.059  11.860
68061W        W33046  35.531  11.559  12.114
68062W        W33047  32.935  12.849   3.419
68063W        W33048  26.939  35.024  14.557
68064W        W33049  32.787  17.162  12.799
68065W        W33050  15.981  21.438   2.759
68066W        W33051  11.351  14.624  13.622
68067W        W33052  37.236  36.290   1.309
68068W        W33053  19.647  40.457   1.857
68069W        W33054  20.603   4.399  12.382
68070W        W33055   3.072  17.154   3.930
68071W        W33056  41.851  41.043   0.275
68072W        W33057  36.968  26.445  12.060
68073W        W33058  11.033  34.632  13.833
68074W        W33059  42.824  17.395  14.329
68075W        W33060  41.355  13.145   2.206
68076W        W33061   0.280  21.183   1.324
68077W        W33062  30.383   2.012  14.350
68078W        W33063  26.281  12.950  12.366
68079W        W33064  33.177  34.866   2.802
68080W        W33065  20.173  20.672  12.048
68081W        W33066  21.121   6.083  12.503
68082W        W33067  29.721  33.197   4.913
68083W        W33068  43.374  32.129  11.672
68084W        W33069  41.484  13.084  13.640
68085W        W33070  40.339  21.342   3.239
68086W        W33071  27.802   0.494  12.032
68087W        W33072  10.870  24.076  13.327
68088W        W33073  29.260  40.647  13.523
68089W        W33074  37.196  27.943  14.834
68090W        W33075  25.064   5.925   3.735
68091W        W33076  33.595   5.650  12.374
68092W        W33077  25.909  25.039  13.322
68093W        W33078  43.994   2.374   3.804
68094W        W33079  17.261  13.341  11.535
68095W        W33080  41.811  16.867   0.491
68096W        W33081  38.972  16.161   3.516
68097W        W33082   9.178  33.803  10.589
68098W        W33083   6.082  34.228  13.768
68099W        W33084   0.235   5.095   3.636
68100W        W33085  42.257  19.032   2.062
68101W        W33086  42.477  33.325  14.420
68102W        W33087  37.801   6.924  11.905
68103W        W33088   9.895  27.762   2.628
68104W        W33089  27.849   6.057   4.135
68105W        W33090  15.105  29.103   0.372
68106W        W33091  24.090  10.162  14.879
68107W        W33092  24.236  35.504  12.522
68108W        W33093  12.796  18.996   2.333
68109W        W33094  43.439  18.914   2.628
68110W        W33095  25.136  20.705  12.110
68111W        W33096  10.618  31.431  11.941
68112W        W33097  39.363  43.913   1.502
68113W        W33098  36.144  33.830   4.565
68114W        W33099  18.101   5.205   1.952
68115W        W33100  34.000  41.102   2.310
68116W        W33101  35.139  41.961   2.635
68117W        W33102   7.128   8.831   1.545
68118W        W33103  43.107  41.892   1.355
68119W        W33104   2.372  39.079   2.759
68120W        W33105  13.098  39.963  11.187
68121W        W33106  25.633  16.196   4.244
68122W        W33107  12.518  13.668   2.933
68123W        W33108   5.320   7.464  11.920
68124W        W33109  30.571   2.638  12.421
68125W        W33110  33.954  37.862   2.319
68126W        W33111  25.981  12.331   3.327
68127W        W33112  40.537  13.909  11.078
68128W        W33113  25.057  30.185  14.329
68129W        W33114  16.263  15.243   4.432
68130W        W33115  34.943  39.797   4.014
68131W        W33116  34.904  43.096   3.682
68132W        W33117   7.638  37.423   2.186
68133W        W33118  27.119  23.421   4.965
68134W        W33119  28.468  38.385  14.005
68135W        W33120  23.511  21.283  14.460
68136W        W33121  38.796  25.105  14.030
68137W        W33122  30.598  44.492  12.692
68138W        W33123  14.456  36.973   4.098
68139W        W33124  25.966   0.091  10.698
68140W        W33125  29.010  15.214   3.960
68141W        W33126  38.604  13.880   0.918
68142W        W33127  40.934  13.621   0.528
68143W        W33128  25.054   8.322  12.556
68144W        W33129  44.348  32.172  13.602
68145W        W33130  14.066  29.458   2.901
68146W        W33131  19.507  26.610  12.396
68147W        W33132  34.834  22.070  13.311
68148W        W33133  29.184  29.102   3.045
68149W        W33134  39.044  23.982   3.600
68150W        W33135  16.658   7.897   1.268
68151W        W33136   9.347  36.357   2.954
68152W        W33137   9.450   8.342  14.168
68153W        W33138   8.390  17.012  11.129
68154W        W33139  20.799   8.110  13.294
68155W        W33140  43.914  44.534   1.689
68156W        W33141  28.693  39.313   0.437
68157W        W33142   9.767  18.100  13.885
68158W        W33143  28.492   1.843  12.812
68159W        W33144  37.160   9.327  10.121
68160W        W33145  15.233   8.422   1.385
68161W        W33146   1.512  17.340   2.687
68162W        W33147  42.383  39.057   3.275
68163W        W33148  44.796  35.634  14.198
68164W        W33149  30.280  41.521   4.470
68165W        W33150  39.987  27.069  14.619
68166W        W33151  25.101  31.758   2.621
68167W        W33152   4.952  41.295   0.519
68168W        W33153  43.327   7.218   3.843
68169W        W33154  37.839   7.926   0.506
68170W        W33155   1.803  44.305  13.103
68171W        W33156   3.428  39.921  11.588
68172W        W33157  13.501  10.599  12.130
68173W        W33158  24.912  35.474  13.945
68174W        W33159  34.857   1.443  11.169
68175W        W33160   5.711   6.230   2.620
68176W        W33161   3.580  44.714  12.999
68177W        W33162  10.635  32.439   4.071
68178W        W33163   9.153  33.895   3.384
68179W        W33164  26.861  14.844  11.376
68180W        W33165  14.844  19.725  14.935
68181W        W33166  11.754  43.753   1.652
68182W        W33167  21.753  35.846  10.646
68183W        W33168  19.564  20.842  10.723
68184W        W33169  33.400  34.560  11.646
68185W        W33170  32.103  26.424   2.812
68186W        W33171   1.298  23.760  14.129
68187W        W33172  16.735  30.084   3.696
68188W        W33173   8.679  44.214  12.523
68189W        W33174  32.590  31.958  14.898
68190W        W33175  14.798  26.268   2.339
68191W        W33176  15.375  22.119   3.394
68192W        W33177  19.501   7.504   2.326
68193W        W33178  10.115  21.620   1.004
68194W        W33179  33.187  17.814   0.840
68195W        W33180  11.890  34.020   4.194
68196W        W33181  42.183  13.601  13.008
68197W        W33182  19.706   7.163   0.987
68198W        W33183  14.247  43.302   4.650
68199W        W33184  34.147   1.333  13.395
68200W        W33185  39.431  26.703  13.533
68201W        W33186  31.082  33.433  12.446
68202W        W33187   8.915  20.098   3.323
68203W        W33188  14.186  30.122   0.504
68204W        W33189  37.900  43.935  14.627
68205W        W33190  30.080  40.815   1.467
68206W        W33191  37.052  25.037   0.047
68207W        W33192  23.448  34.296  13.174
68208W        W33193  24.693  34.927  13.483
68209W        W33194  36.071  38.021   2.854
68210W        W33195   8.254  12.809   3.502
68211W        W33196  28.608  37.584  11.417
68212W        W33197   0.291  16.116  13.558
68213W        W33198  29.521  38.499  10.703
68214W        W33199  36.169   0.725   4.562
68215W        W33200   4.423  34.976   0.244
68216W        W33201   5.166  35.519  14.370
68217W        W33202  30.726  23.722  13.152
68218W        W33203  11.974  24.040   0.332
68219W        W33204  26.417   4.175  12.418
68220W        W33205   2.456  18.450  11.667
68221W        W33206  24.292   5.111   4.320
68222W        W33207  20.655   3.425  13.960
68223W        W33208  28.844  38.698   3.632
68224W        W33209  40.008  17.754  13.959
68225W        W33210  13.369  33.580   3.201
68226W        W33211  44.235  43.781  13.000
68227W        W33212   6.790  40.833  14.420
68228W        W33213  33.472   5.229   2.639
68229W        W33214  33.408  41.910   0.379
68230W        W33215  23.862  18.316   3.744
68231W        W33216   3.354   2.697  11.055
68232W        W33217  39.346  35.944  14.455
68233W        W33218  28.485  23.679  11.133
68234W        W33219   5.613  31.919  13.502
68235W        W33220  25.183  37.341  10.363
68236W        W33221  29.165   3.036  12.502
68237W        W33222  10.330  24.163   2.598
68238W        W33223  15.722  32.098  14.952
68239W        W33224  25.153  13.882  13.042
68240W        W33225  31.576  37.191  13.054
68241W        W33226  31.203  19.203   0.524
68242W        W33227  32.338  18.167   3.610
68243W        W33228   5.907  34.537  10.657
68244W        W33229   0.837  26.895  13.814
68245W        W33230  16.751   3.727  13.522
68246W        W33231   6.384   8.755  14.789
68247W        W33232  19.470   8.697   2.684
68248W        W33233  44.146  18.874   2.852
68249W        W33234  30.355  41.010  11.155
68250W        W33235  25.481   6.753   0.488
68251W        W33236  44.444  41.007   3.636
68252W        W33237  36.576  15.212   4.857
68253W        W33238  33.536  40.888  12.982
68254W        W33239  28.078  30.459   2.084
68255W        W33240   4.984  14.259  11.938
68256W        W33241  44.810  35.382  11.546
68257W        W33242  20.163  38.355  12.955
68258W        W33243  14.224  23.202   4.608
68259W        W33244   9.453  20.718  10.984
68260W        W33245  13.215  13.808   2.311
68261W        W33246  30.070  30.102   1.134
68262W        W33247   4.122   3.514   1.333
68263W        W33248  39.347  22.772  12.120
68264W        W33249  12.538   2.155   1.457
68265W        W33250   5.664  28.967   0.858
68266W        W33251  29.584  14.410   0.759
68267W        W33252  27.861  37.860   1.834
68268W        W33253  28.123  39.949  11.688
68269W        W33254  37.871  44.763  10.503
68270W        W33255  11.937   9.582   3.086
68271W        W33256  19.146  40.878  11.960
68272W        W33257  30.565   9.985  14.873
68273W        W33258  26.773  13.255   4.571
68274W        W33259  30.965  30.901   1.457
68275W        W33260   0.006  43.798  14.933
68276W        W33261  16.065  40.255  14.398
68277W        W33262   1.450  24.100   0.847
68278W        W33263   5.375  18.885  13.861
68279W        W33264  31.030  14.646  13.206
68280W        W33265  13.592  29.313   4.167
68281W        W33266  33.212  37.354   1.516
68282W        W33267  18.429  17.634   4.619
68283W        W33268   3.218   0.482   1.352
68284W        W33269   3.970   6.441  13.914
68285W        W33270  32.552  13.734   1.934
68286W        W33271  14.762  38.384  12.695
68287W        W33272  14.749  19.495   0.938
68288W        W33273  41.920   1.628  13.007
68289W        W33274   2.193  32.987   4.800
68290W        W33275  36.169  40.008  13.593
68291W        W33276  19.097  28.417   2.157
68292W        W33277  13.251  21.685   4.150
68293W        W33278  40.409  29.661   1.796
68294W        W33279  37.337   7.073   3.513
68295W        W33280  41.079  31.987   4.294
68296W        W33281  32.513  11.178  12.214
68297W        W33282   2.983  34.021   1.334
68298W        W33283   8.632  12.181   3.432
68299W        W33284   2.154  40.461  13.434
68300W        W33285   4.295   4.713   3.902
68301W        W33286  14.709  20.010   0.921
68302W        W33287   2.566  31.982   3.286
68303W        W33288  41.468  10.283   1.255
68304W        W33289  28.287   3.393   0.304
68305W        W33290  39.875   8.810   3.279
68306W        W33291  32.519  21.515  13.004
68307W        W33292  12.872  17.893   3.870
68308W        W33293   4.857  40.652   2.236
68309W        W33294   1.063  33.814   2.633
68310W        W33295  28.803  41.303   0.280
68311W        W33296  12.782  26.042   1.718
68312W        W33297  32.937  32.433  13.873
68313W        W33298  34.806  27.739  12.468
68314W        W33299  38.359   9.721  12.534
68315W        W33300  21.699  37.061   4.600
68316W        W33301   2.166  18.204   1.325
68317W        W33302  13.439  21.134  14.974
68318W        W33303  32.213   7.852  14.870
68319W        W33304  33.981  19.293  12.555
68320W        W33305  28.963  20.492  14.842
68321W        W33306  17.685  41.530   2.249
68322W        W33307  19.646  15.958  10.748
68323W        W33308  10.483  34.415   4.179
68324W        W33309  29.955   9.219   4.543
68325W        W33310  24.021  28.040   3.823
68326W        W33311  32.945  40.201   4.626
68327W        W33312  21.333  28.592   2.876
68328W        W33313  37.139  30.523   0.413
68329W        W33314  28.928  42.585   2.271
68330W        W33315   4.418  18.174   4.380
68331W        W33316  38.403  27.932  10.827
68332W        W33317  38.409  42.674  12.077
68333W        W33318   7.744  24.257   1.148
68334W        W33319  22.588  44.440  14.185
68335W        W33320  36.538   7.020  12.146
68336W        W33321  43.767   8.088   0.908
68337W        W33322  25.309  11.695   4.818
68338W        W33323  11.330   6.763  14.830
68339W        W33324  41.102  40.547   1.401
68340W        W33325   0.469  39.021   2.398
68341W        W33326   8.696   9.454   2.005
68342W        W33327  36.162   5.675  14.812
68343W        W33328   4.682  39.161  11.624
68344W        W33329  44.031  39.223  13.759
68345W        W33330  22.869  27.414   3.945
68346W        W33331  36.607  31.093   4.538
68347W        W33332  39.497   4.505   1.360
68348W        W33333  37.132   2.833  10.984
68349W        W33334  21.585   1.639   1.463
68350W        W33335  21.276  38.783  11.072
68351W        W33336  43.650  23.439  14.834
68352W        W33337   1.872  24.557  10.830
68353W        W33338   9.581  16.430  13.761
68354W        W33339  33.627  43.381   1.468
68355W        W33340  11.878  27.749  11.664
68356W        W33341  12.627  16.419   2.813
68357W        W33342  33.936  30.990   4.133
68358W        W33343  28.747  15.772  14.395
68359W        W33344  33.400  28.726   2.148
68360W        W33345  18.195  28.457  14.239
68361W        W33346   8.187  13.575   1.701
68362W        W33347  22.768  20.156   1.909
68363W        W33348   1.528  16.462   0.977
68364W        W33349  40.929  14.127  13.400
68365W        W33350  20.092  36.945  12.047
68366W        W33351  40.884  33.868  14.322
68367W        W33352   9.955  13.634  13.353
68368W        W33353  33.292  40.813  11.601
68369W        W33354  10.707   2.914  13.131
68370W        W33355  19.724  41.686   2.425
68371W        W33356  34.446  33.165  11.073
68372W        W33357   3.579  36.891  11.365
68373W        W33358   8.241  13.026   4.769
68374W        W33359  37.517  15.745   2.658
68375W        W33360  42.001  37.372  13.064
68376W        W33361  43.076  42.517   2.216
68377W        W33362  17.869   8.880  10.948
68378W        W33363   1.520   9.738  10.651
68379W        W33364   5.395   7.756  10.735
68380W        W33365  28.659  38.997   2.662
68381W        W33366  12.613  19.432  14.048
68382W        W33367   2.229   1.026  11.913
68383W        W33368  21.761  43.529  11.534
68384W        W33369  20.476   4.695  14.557
68385W        W33370  29.495   1.405   0.131
68386W        W33371   6.378  30.128  13.495
68387W        W33372  24.184  23.809  13.635
68388W        W33373  34.290  31.965  14.328
68389W        W33374  30.826   5.221  13.762
68390W        W33375  27.541   5.955  12.789
68391W        W33376  27.132  34.882   3.893
68392W        W33377  11.424   1.976  12.247
68393W        W33378  24.293  16.122  13.028
68394W        W33379  14.096  12.394   4.603
68395W        W33380  27.934   9.723   0.877
68396W        W33381  25.054   0.359  13.437
68397W        W33382  27.432  19.332  13.843
68398W        W33383   2.524  16.722  13.151
68399W        W33384   9.309  24.965  10.754
68400W        W33385  10.615   3.518   4.600
68401W        W33386  18.686  44.368  13.023
68402W        W33387  25.034   9.311  12.889
68403W        W33388  23.554  41.928   4.413
68404W        W33389  39.322  27.237   4.224
68405W        W33390  44.029  12.318  11.128
68406W        W33391  33.617  12.182  13.750
68407W        W33392  40.942  20.174   2.905
68408W        W33393  30.588  44.920   2.220
68409W        W33394  28.670  12.561   3.706
68410W        W33395  40.508  28.095  12.539
68411W        W33396  25.044  37.976   3.273
68412W        W33397  43.484  43.967   2.724
68413W        W33398  38.904  15.136   1.705
68414W        W33399  22.987   8.143   3.993
68415W        W33400  37.860  18.894  10.963
68416W        W33401  40.444  38.741  13.361
68417W        W33402  43.025  26.189   0.025
68418W        W33403   0.657   0.469   2.239
68419W        W33404  16.874  40.288   1.761
68420W        W33405  39.009  15.868   0.974
68421W        W33406   4.472  21.484   3.623
68422W        W33407   7.512  41.447  12.864
68423W        W33408  11.326  29.437  11.682
68424W        W33409  15.059  17.083   4.145
68425W        W33410  12.566  38.328   2.897
68426W        W33411  42.571  32.593  12.514
68427W        W33412  25.544  37.239  12.496
68428W        W33413  27.750  26.624   4.196
68429W        W33414  26.581  31.904  13.042
68430W        W33415  26.928  34.295  12.967
68431W        W33416   6.421  24.936  12.168
68432W        W33417  20.097  38.328   3.802
68433W        W33418  24.861  11.311  11.973
68434W        W33419  35.929  36.008  12.638
68435W        W33420  12.441   6.017  14.401
68436W        W33421  35.898  31.257   2.399
68437W        W33422  36.701  33.918  14.310
68438W        W33423  41.833  36.944  13.380
68439W        W33424  37.477   5.516  11.650
68440W        W33425  20.626  28.354  11.698
68441W        W33426  19.625  16.382   3.189
68442W        W33427   4.827  29.256  13.594
68443W        W33428  17.664  24.657  11.565
68444W        W33429   6.394  42.519  14.546
68445W        W33430   0.367  43.942   2.733
68446W        W33431  32.931  13.118   0.835
68447W        W33432  31.215  13.299   4.546
68448W        W33433   3.933   6.448  13.056
68449W        W33434  26.002  36.950  10.686
68450W        W33435  20.087  23.148  10.895
68451W        W33436  40.103  42.230   2.424
68452W        W33437  13.877   4.183   2.309
68453W        W33438  35.677  37.028  11.146
68454W        W33439  39.393   5.539   3.355
68455W        W33440  31.414   1.890  14.869
68456W        W33441  38.962   8.677   2.305
68457W        W33442  34.666   2.691  10.799
68458W        W33443  12.667   2.209   4.169
68459W        W33444  12.859  14.069   1.382
68460W        W33445  26.977   3.824  10.351
68461W        W33446  12.785   3.832  14.090
68462W        W33447   9.949  22.524   0.807
68463W        W33448   5.359  20.966   3.106
68464W        W33449  29.545  14.238  13.232
68465W        W33450   4.895   1.434   4.612
68466W        W33451  12.907   4.329   0.493
68467W        W33452  20.024   9.650   0.262
68468W        W33453   0.337  25.111  12.440
68469W        W33454  12.701  40.871   4.560
68470W        W33455  37.065  23.238  14.236
68471W        W33456   7.260   0.982   0.400
68472W        W33457  38.463  40.165  12.587
68473W        W33458   8.702  43.142   3.374
68474W        W33459  32.850   0.490   2.508
68475W        W33460  17.303   9.085   0.600
68476W        W33461  38.380   5.819   3.805
68477W        W33462  42.418   1.438  10.874
68478W        W33463  28.563   1.563  13.608
68479W        W33464  15.549  43.851   4.246
68480W        W33465  25.012  38.545  10.705
68481W        W33466  21.259   1.183   2.844
68482W        W33467  31.650  29.432   2.577
68483W        W33468  17.023  22.633  12.269
68484W        W33469  35.512  26.416  11.180
68485W        W33470  15.919  36.956  11.556
68486W        W33471  37.015  38.917   1.915
68487W        W33472  32.950  43.453   0.196
68488W        W33473  25.081  37.585  13.435
68489W        W33474  18.102   4.089  13.843
68490W        W33475  20.362  22.634  11.169
68491W        W33476  16.757  16.700  10.774
68492W        W33477  43.090  42.947   1.252
68493W        W33478  44.356  15.274   4.558
68494W        W33479  11.358  31.885   1.515
68495W        W33480  27.553  19.517  12.442
68496W        W33481  28.497  12.335  11.816
68497W        W33482  41.652  25.643   1.380
68498W        W33483  11.602   8.849  11.905
68499W        W33484  14.154   8.423  10.617
68500W        W33485  18.681  12.017   0.346
68501W        W33486  16.023  35.111   3.266
68502W        W33487  20.393  23.700   3.182
68503W        W33488  10.198  38.454   0.880
68504W        W33489  21.801  18.718  14.004
68505W        W33490  22.098  33.777  13.805
68506W        W33491   4.315  42.795  10.861
68507W        W33492   5.981  42.452  10.817
68508W        W33493   5.473  37.283  12.908
68509W        W33494  25.591  31.909   2.607
68510W        W33495  14.140   8.396  11.537
68511W        W33496   9.184  34.595  13.512
68512W        W33497  20.522  27.449  13.799
68513W        W33498  19.305  13.543  14.055
68514W        W33499  24.066  41.198   4.234
68515W        W33500  44.504  10.110   1.642
68516W        W33501  21.178  27.969  14.365
68517W        W33502   6.403   0.551   4.873
68518W        W33503  30.473  25.929   2.333
68519W        W33504  16.336   7.581   4.081
68520W        W33505  30.407  28.086   4.258
68521W        W33506   8.302  26.570   0.444
68522W        W33507  23.398  31.956   4.080
68523W        W33508  22.190  40.567  11.555
68524W        W33509   2.282  44.458  12.985
68525W        W33510   4.692   8.790  12.477
68526W        W33511  12.895  19.276  14.483
68527W        W33512  30.347  32.733  11.072
68528W        W33513  34.626  39.013   2.178
68529W        W33514  37.576  27.529  13.897
68530W        W33515  39.634  20.903  11.163
68531W        W33516  31.112  21.166   1.208
68532W        W33517  30.039  39.439   0.891
68533W        W33518  16.892  24.174   4.109
68534W        W33519  30.966   0.271  11.611
68535W        W33520  25.932  28.947  13.541
68536W        W33521  22.088  16.331   2.331
68537W        W33522   1.099   9.820   3.172
68538W        W33523   1.299   6.389  14.796
68539W        W33524  21.255  20.483   5.081
68540W        W33525  28.552  10.578  11.668
68541W        W33526  32.376   7.008   2.613
68542W        W33527   9.431  40.447  12.519
68543W        W33528  34.126  18.651  11.041
68544W        W33529  42.303   3.185  14.289
68545W        W33530   9.969  43.961  10.687
68546W        W33531  37.879   4.656   3.775
68547W        W33532  22.442  34.043  10.563
68548W        W33533  33.589   6.515  14.019
68549W        W33534  13.603  33.693  11.571
68550W        W33535  40.807  18.530  11.629
68551W        W33536  32.433  38.426   1.238
68552W        W33537  27.108  40.910  12.554
68553W        W33538  32.887   4.245   2.764
68554W        W33539  15.588  19.922   2.996
68555W        W33540   6.591  17.212   2.241
68556W        W33541  25.257  37.918   2.117
68557W        W33542  24.452  12.699   2.194
68558W        W33543  43.899   7.120   1.324
68559W        W33544  21.191  39.349  11.876
68560W        W33545  14.692  40.301   0.754
68561W        W33546  22.200  10.371   1.823
68562W        W33547  11.581   3.209   1.375
68563W        W33548  13.310  17.026  12.566
68564W        W33549  44.705  37.947   2.882
68565W        W33550  27.657  21.810   0.954
68566W        W33551  36.630  28.432  10.726
68567W        W33552  32.497  19.457   3.221
68568W        W33553  17.614  39.908  12.035
68569W        W33554  23.287  35.960  11.667
68570W        W33555   6.642  18.698   4.381
68571W        W33556  17.828   6.834  12.143
68572W        W33557   1.840  35.277   1.829
68573W        W33558   4.773  35.508  14.803
68574W        W33559  14.736   5.274   2.458
68575W        W33560  27.028   8.302  14.596
68576W        W33561  21.640  10.035   2.273
68577W        W33562  41.082  17.635   1.487
68578W        W33563  44.923  39.461  14.516
68579W        W33564  20.995  21.474   3.606
68580W        W33565  24.603  17.153  11.295
68581W        W33566   1.299  27.074   3.745
68582W        W33567  43.128  22.132  12.921
68583W        W33568  10.746  17.615  13.354
68584W        W33569  41.231  31.221  12.016
68585W        W33570   6.722  18.656   1.007
68586W        W33571  14.843   3.496   0.847
68587W        W33572  26.892  17.771   1.675
68588W        W33573   2.759  32.116   1.344
68589W        W33574  25.878  29.390  12.006
68590W        W33575  44.420   1.515  10.496
68591W        W33576   9.588  16.917  11.610
68592W        W33577  36.170  44.862   0.818
68593W        W33578   6.424  35.818   4.174
68594W        W33579  17.032   7.803   2.746
68595W        W33580   1.432  24.707   0.230
68596W        W33581  16.068  13.015  10.765
68597W        W33582  18.805  30.477  11.094
68598W        W33583  32.351  13.080   3.573
68599W        W33584  36.951  25.619  14.569
68600W        W33585   0.439  20.386   0.741
68601W        W33586  44.062  13.192   3.719
68602W        W33587  33.055   2.549  13.037
68603W        W33588  43.627  21.043  13.081
68604W        W33589  23.667  25.986   1.896
68605W        W33590  41.075  39.970  14.680
68606W        W33591  10.877  41.723   2.228
68607W        W33592   3.624  43.468  11.925
68608W        W33593  18.325  17.799   0.913
68609W        W33594  26.027  30.418  14.138
68610W        W33595   8.175  27.516   3.955
68611W        W33596  44.275  22.060   4.488
68612W        W33597  10.547  25.086  11.086
68613W        W33598   1.107  44.537  13.447
68614W        W33599  31.035  38.863  13.927
68615W        W33600   8.448  24.499  14.355
68616W        W33601  38.405  36.032  14.599
68617W        W33602   0.627  19.794  13.373
68618W        W33603  31.013  22.639  12.907
68619W        W33604   5.338  41.950  11.459
68620W        W33605  21.143   9.119   0.334
68621W        W33606  33.256  42.421  13.445
68622W        W33607  29.897  44.744  14.789
68623W        W33608  39.588  28.659   4.335
68624W        W33609  22.231  39.920  11.043
68625W        W33610   4.475  10.123   2.665
68626W        W33611   5.613  26.566  12.010
68627W        W33612  33.441  28.953   4.513
68628W        W33613  18.061  33.540   4.648
68629W        W33614  30.415  38.857  10.809
68630W        W33615   4.707  28.189   0.343
68631W        W33616  25.901  14.616  12.464
68632W        W33617  27.618  26.277   4.599
68633W        W33618  36.905   7.338  10.426
68634W        W33619  42.265   5.018  11.223
68635W        W33620  41.430  27.216  14.542
68636W        W33621   7.516   5.761  12.899
68637W        W33622  26.561   0.569   5.558
68638W        W33623   4.957  16.213  13.472
68639W        W33624  27.460  19.759  10.453
68640W        W33625  30.257  24.729   2.706
68641W        W33626  30.658   6.898   2.819
68642W        W33627  36.969  34.212  13.347
68643W        W33628  30.072   7.083  14.580
68644W        W33629  22.046  15.686  10.786
68645W        W33630   4.379  29.079  14.907
68646W        W33631  27.033  25.801   4.080
68647W        W33632  25.064  24.219  11.731
68648W        W33633   4.385   7.436   2.308
68649W        W33634  19.716  40.658  14.870
68650W        W33635  39.509   1.965   4.218
68651W        W33636  17.632  22.205   2.258
68652W        W33637  10.704  18.769  12.589
68653W        W33638  18.791  35.886   4.359
68654W        W33639  14.113  10.241  14.072
68655W        W33640   6.640  40.273   1.292
68656W        W33641  17.517  42.004   0.737
68657W        W33642  12.312  11.734   4.170
68658W        W33643  23.899  25.281  11.193
68659W        W33644  20.588  12.111   0.481
68660W        W33645  14.397  38.419  11.248
68661W        W33646   1.721  29.822   0.224
68662W        W33647   9.231   1.799   1.836
68663W        W33648  19.757  14.145   3.284
68664W        W33649  41.306  19.495   4.052
68665W        W33650  41.679  29.529  14.959
68666W        W33651  32.620  41.470   4.206
68667W        W33652  32.795  28.042   4.724
68668W        W33653  12.582  17.580  13.601
68669W        W33654  28.645  16.774   2.511
68670W        W33655  41.822  14.626  14.476
68671W        W33656  35.671  15.676   3.178
68672W        W33657   6.133  27.753   0.238
68673W        W33658   6.879  25.611  13.377
68674W        W33659  35.101  44.965   2.535
68675W        W33660  18.612  20.316  14.726
68676W        W33661  17.018  39.748  13.934
68677W        W33662  25.041  36.982   0.773
68678W        W33663   5.119   3.574  10.797
68679W        W33664  18.070  31.137   4.204
68680W        W33665  28.282   0.952  12.853
68681W        W33666  32.925   2.085  11.983
68682W        W33667  28.887  27.600   0.469
68683W        W33668  43.274  26.882   3.691
68684W        W33669  24.594  13.689   3.340
68685W        W33670   6.156   4.515  11.550
68686W        W33671   2.903   2.025   2.916
68687W        W33672  15.789   6.818  12.224
68688W        W33673  36.871  20.949   3.164
68689W        W33674  44.794  44.989   3.929
68690W        W33675  21.432  11.978   4.614
68691W        W33676   7.233  12.408   3.692
68692W        W33677  15.319  16.155   3.193
68693W        W33678  18.421  37.116   3.778
68694W        W33679   2.094  21.753  12.409
68695W        W33680  19.748  19.593  11.607
68696W        W33681  20.627   0.814  10.847
68697W        W33682  32.717  44.371   2.705
68698W        W33683  44.060  11.763  11.630
68699W        W33684  31.155  16.817   4.367
68700W        W33685  33.618  37.605   1.685
68701W        W33686  41.695  12.566  12.507
68702W        W33687  38.573  40.280   0.994
68703W        W33688  32.197   8.684   2.408
68704W        W33689  13.636   7.345  12.284
68705W        W33690   8.339  14.287  10.442
68706W        W33691   9.895  28.556  14.186
68707W        W33692   2.988  29.649   4.228
68708W        W33693   1.504   4.365   0.538
68709W        W33694   0.444  13.202  10.740
68710W        W33695  28.036  25.259   9.572
68711W        W33696  44.260  20.258   1.383
68712W        W33697  22.472  13.345   4.596
68713W        W33698  24.527   3.268   4.638
68714W        W33699  23.765  19.627   3.674
68715W        W33700  31.584  43.248  12.028
68716W        W33701   0.262   9.966  11.603
68717W        W33702  38.152  11.577  10.741
68718W        W33703  36.367  42.607  14.934
68719W        W33704   9.211  43.750   2.327
68720W        W33705   0.670  15.412   0.847
68721W        W33706   1.124  11.447   4.501
68722W        W33707  32.406  37.300  12.132
68723W        W33708  30.185  29.598   1.337
68724W        W33709  34.723  16.393   2.774
68725W        W33710   9.417  26.240  14.158
68726W        W33711   3.377  24.397   2.735
68727W        W33712  35.943  32.343  10.759
68728W        W33713  24.599  37.850  13.405
68729W        W33714  43.169  31.604  11.956
68730W        W33715  27.540   4.938   1.925
68731W        W33716  30.859  12.887   3.093
68732W        W33717  28.017  27.943  12.990
68733W        W33718   2.886  12.797   4.527
68734W        W33719  10.179  31.218   1.908
68735W        W33720  44.298  27.300   2.282
68736W        W33721  24.973  30.821  12.318
68737W        W33722  11.463  21.365   0.896
68738W        W33723  22.712  44.262   4.809
68739W        W33724  20.942  18.229   1.220
68740W        W33725   0.487  27.252   3.229
68741W        W33726   6.116  28.898  10.378
68742W        W33727  27.259  43.467  11.970
68743W        W33728  39.601  22.026  13.873
68744W        W33729  17.680  21.214   4.345
68745W        W33730  11.812  24.917   0.319
68746W        W33731  15.320   3.688   1.229
68747W        W33732  16.355  16.415  13.393
68748W        W33733  43.425  25.057  13.538
68749W        W33734  10.094   7.276  12.945
68750W        W33735  33.993  23.729  12.007
68751W        W33736   1.923  32.982   4.316
68752W        W33737   9.206  10.234  11.596
68753W        W33738   6.538   0.881  11.157
68754W        W33739  28.245  34.394   2.726
68755W        W33740  12.616  12.410  14.957
68756W        W33741   2.294  26.279   1.781
68757W        W33742  26.469  37.363  13.361
68758W        W33743  20.703   3.818   1.132
68759W        W33744  11.640  19.196  11.005
68760W        W33745   7.897  42.378  11.860
68761W        W33746  16.276  37.927  12.359
68762W        W33747  28.894  14.168   1.221
68763W        W33748  34.911  13.078   0.887
68764W        W33749   5.387  19.651   0.920
68765W        W33750  30.359  37.657   3.872
68766W        W33751   5.318  38.472   3.056
68767W        W33752   7.064  23.639  14.324
68768W        W33753  15.395   8.488   0.260
68769W        W33754  26.183  42.762   0.186
68770W        W33755  29.006  27.037   0.636
68771W        W33756  38.458  33.407   1.326
68772W        W33757   8.361  20.452  13.976
68773W        W33758  40.215   2.260   0.396
68774W        W33759  36.436  30.061   0.485
68775W        W33760   7.364  12.410  11.574
68776W        W33761   3.306   5.162   1.633
68777W        W33762  41.257  14.662  10.172
68778W        W33763  14.280   9.730   3.340
68779W        W33764   9.972   2.844   2.087
68780W        W33765  21.771   3.453   0.966
68781W        W33766   3.419  13.946  10.315
68782W        W33767   2.948  33.435   3.631
68783W        W33768  29.153  32.918  10.941
68784W        W33769  33.485  13.348   4.215
68785W        W33770  27.244   7.317  14.520
68786W        W33771  43.101  44.029  10.792
68787W        W33772  13.101  33.381   4.578
68788W        W33773  27.286  32.952  14.700
68789W        W33774  16.397  15.987  12.480
68790W        W33775  43.873  38.587   3.744
68791W        W33776  23.719  29.085   3.609
68792W        W33777   4.168   1.729   2.603
68793W        W33778  24.458  41.146   1.278
68794W        W33779  13.281  10.536   3.636
68795W        W33780   3.351  28.501   0.804
68796W        W33781  11.818   1.912  11.503
68797W        W33782   3.210  33.763   0.946
68798W        W33783  41.299  35.863   1.323
68799W        W33784  25.220  17.276   1.972
68800W        W33785  17.298   9.975   3.589
68801W        W33786  19.276  28.030  14.066
68802W        W33787  39.002  28.696   2.098
68803W        W33788  31.540  18.832   0.004
68804W        W33789  42.840  43.589  11.937
68805W        W33790   3.947  22.782  12.007
68806W        W33791  30.078  35.445   1.712
68807W        W33792   4.810  17.780  10.699
68808W        W33793  44.416  15.259  10.786
68809W        W33794  32.582   5.310  11.514
68810W        W33795  28.980  12.331   1.041
68811W        W33796  15.835  26.446   4.098
68812W        W33797  19.709  10.330  14.813
68813W        W33798  25.537  20.497   4.165
68814W        W33799   4.347  24.990   1.245
68815W        W33800  13.249   7.449  13.918
68816W        W33801  15.515  34.129   2.388
68817W        W33802  12.723  24.155  11.950
68818W        W33803  36.612  40.083  11.151
68819W        W33804  21.700  10.397  14.765
68820W        W33805  22.793  40.731  13.932
68821W        W33806   5.749  31.368   1.204
68822W        W33807  25.436  13.269  13.987
68823W        W33808   2.714  16.872  10.575
68824W        W33809  37.478  21.702  14.680
68825W        W33810  11.118  19.141   4.494
68826W        W33811  42.681  34.401   4.041
68827W        W33812   1.453  13.996   3.316
68828W        W33813   2.578  15.109   3.291
68829W        W33814   3.956  43.345  12.492
68830W        W33815  37.633  41.010  12.055
68831W        W33816  17.056  38.185   1.461
68832W        W33817  43.906  11.719   0.243
68833W        W33818  13.160  30.118   0.696
68834W        W33819   1.165   1.981   4.036
68835W        W33820  29.145  42.799  12.683
68836W        W33821   4.881  33.030  14.826
68837W        W33822  37.949  44.084  14.130
68838W        W33823  42.936  21.191   4.300
68839W        W33824  25.318  33.978   0.220
68840W        W33825  16.884  19.402   5.133
68841W        W33826  23.472  40.449   4.121
68842W        W33827  27.741   4.346  12.054
68843W        W33828  39.885  43.686   0.301
68844W        W33829  30.137  23.089  13.747
68845W        W33830  44.830  22.971   0.003
68846W        W33831  31.166  28.099  10.219
68847W        W33832   7.388   3.563   9.779
68848W        W33833  20.246  25.794  12.109
68849W        W33834  24.086   8.330   1.107
68850W        W33835  25.204   8.403   3.134
68851W        W33836  25.562  40.153   4.711
68852W        W33837  25.881   8.406  12.465
68853W        W33838  26.736  18.249   0.889
68854W        W33839  43.532   0.000   2.779
68855W        W33840  25.237  13.322  10.807
68856W        W33841  16.589   3.977   1.447
68857W        W33842  24.950  14.151  14.811
68858W        W33843  34.002  16.600  12.577
68859W        W33844   8.916   5.076   2.538
68860W        W33845  25.804  29.181   1.373
68861W        W33846   2.031   5.477  13.958
68862W        W33847  42.271  35.661  13.858
68863W        W33848  29.670  38.874   1.032
68864W        W33849  27.164  44.531  13.880
68865W        W33850  31.800   7.542   4.519
68866W        W33851   5.943   2.556  10.770
68867W        W33852  42.009  38.128   3.301
68868W        W33853   6.743   9.656  14.879
68869W        W33854   3.977  25.469  12.645
68870W        W33855  18.493  13.322   0.822
68871W        W33856  22.372  37.540   0.320
68872W        W33857  19.537   5.927   2.294
68873W        W33858  37.538  22.733  12.110
68874W        W33859   1.594  19.803   1.671
68875W        W33860  15.668  24.438  12.356
68876W        W33861  11.440  36.296  13.459
68877W        W33862  10.915  19.274  13.464
68878W        W33863  32.017   8.352   1.709
68879W        W33864   8.908   1.639   4.766
68880W        W33865  32.973  33.692  13.530
68881W        W33866  19.769  28.649  10.701
68882W        W33867  44.233  30.021   4.128
68883W        W33868  32.952  44.790  11.633
68884W        W33869   4.993   0.324   2.807
68885W        W33870  38.441   0.033   0.742
68886W        W33871  39.985  29.462   2.004
68887W        W33872  36.159   9.752  13.450
68888W        W33873   8.977  18.723   3.763
68889W        W33874  26.884  38.089  11.479
68890W        W33875  42.606  22.168   1.582
68891W        W33876  11.099   8.738  11.015
68892W        W33877  27.179  43.202   3.676
68893W        W33878   1.158  28.183  14.948
68894W        W33879  21.018  38.615  14.677
68895W        W33880  33.587  20.087  12.440
68896W        W33881  22.055  31.215  13.882
68897W        W33882  35.242  11.165   1.687
68898W        W33883  19.051   2.659   5.006
68899W        W33884  18.140   0.306   3.687
68900W        W33885  28.140  10.945  13.971
68901W        W33886  38.960  15.564  12.453
68902W        W33887  24.998  16.336  13.806
68903W        W33888   9.753  44.366  13.000
68904W        W33889  14.857   0.956  11.111
68905W        W33890  28.107  25.541  11.993
68906W        W33891  43.335   2.934   0.319
68907W        W33892   7.945  26.888   4.815
68908W        W33893   0.255  23.280  10.627
68909W        W33894  39.672  23.178  10.705
68910W        W33895  34.877  25.699  12.157
68911W        W33896  26.072  27.518  13.314
68912W        W33897  20.202   5.739   3.193
68913W        W33898  36.584  38.897  12.413
68914W        W33899  13.316  23.952   0.844
68915W        W33900  17.293  13.630  11.988
68916W        W33901  33.886  28.771   2.829
68917W        W33902  18.501  42.266  14.284
68918W        W33903  30.812  35.453   0.578
68919W        W33904   7.473  39.501  12.153
68920W        W33905  43.456  20.129   0.835
68921W        W33906   0.310  42.040   2.271
68922W        W33907  22.560  40.857  10.797
68923W        W33908   2.561  43.699   4.314
68924W        W33909  41.557  32.608  12.561
68925W        W33910  43.831  26.353  13.666
68926W        W33911  14.236  26.444   4.424
68927W        W33912   5.662  33.132   0.527
68928W        W33913  19.042  14.158  14.872
68929W        W33914   9.251  31.817  13.238
68930W        W33915   7.105  21.616   2.490
68931W        W33916  17.751   4.173  11.193
68932W        W33917  10.955  31.132   2.090
68933W        W33918   6.919  21.671   0.924
68934W        W33919  10.737  16.221  13.021
68935W        W33920  12.603  27.973   1.180
68936W        W33921  11.769  25.230   0.876
68937W        W33922  11.600   4.430   1.767
68938W        W33923  42.374  13.383   1.776
68939W        W33924  14.358  15.124  13.008
68940W        W33925  10.616  19.861   4.108
68941W        W33926   6.393   6.035   1.679
68942W        W33927  22.934  30.142   2.036
68943W        W33928  37.482  24.695   4.142
68944W        W33929  43.840  41.079  13.305
68945W        W33930  14.340  40.982   4.156
68946W        W33931  41.455  34.501  12.093
68947W        W33932  21.147  26.432   3.879
68948W        W33933  17.254  32.053   4.652
68949W        W33934   2.217   3.995   0.428
68950W        W33935  22.169  22.700  11.632
68951W        W33936  30.971  28.396  14.361
68952W        W33937  12.768  36.877  13.477
68953W        W33938  28.910  37.991  10.485
68954W        W33939  18.506  27.160   0.784
68955W        W33940  18.809   1.038  13.871
68956W        W33941  18.518  31.211  10.049
68957W        W33942  39.657   2.384   2.889
68958W        W33943   3.262  36.053  10.869
68959W        W33944   7.751  43.549   0.500
68960W        W33945  36.773   4.437  12.633
68961W        W33946  31.099   2.801  11.704
68962W        W33947   3.898  16.971   1.412
68963W        W33948  39.556  28.498  12.950
68964W        W33949  15.700  22.489  13.564
68965W        W33950  28.527  24.010   2.644
68966W        W33951  21.565  32.620   0.866
68967W        W33952   5.320   7.144  12.306
68968W        W33953  12.893  42.980  13.005
68969W        W33954  32.174  22.189  11.751
68970W        W33955  32.407  36.252  14.365
68971W        W33956   4.002  27.407   3.542
68972W        W33957  33.138  38.534   3.655
68973W        W33958   7.969  19.227   5.000
68974W        W33959  23.027   9.709  11.194
68975W        W33960   4.362  11.100   1.181
68976W        W33961  24.304  40.951  12.885
68977W        W33962  13.824  17.737  13.060
68978W        W33963   3.556   7.392   2.665
68979W        W33964  36.455  12.482   4.047
68980W        W33965  30.486   3.501   1.479
68981W        W33966  16.827   8.703  11.785
68982W        W33967  31.079   7.387  12.156
68983W        W33968   9.926   8.222  13.982
68984W        W33969  44.096  10.677   2.502
68985W        W33970  12.894  19.309   2.748
68986W        W33971  19.337  14.625   4.582
68987W        W33972  25.021  18.491  13.365
68988W        W33973   5.777  14.705  13.721
68989W        W33974  33.335  25.200  11.276
68990W        W33975  17.852   1.812   4.152
68991W        W33976  11.745  44.518   1.254
68992W        W33977  13.052  19.039   4.140
68993W        W33978  33.280  31.974   0.825
68994W        W33979  20.891  23.199  10.452
68995W        W33980  35.448   2.836  12.812
68996W        W33981  30.069  38.445   4.556
68997W        W33982  29.591  10.336   3.566
68998W        W33983  39.631  15.173   3.612
68999W        W33984  41.048  39.102   4.440
69000W        W33985   0.716  36.209   2.265
69001W        W33986  44.074   1.133   3.837
69002W        W33987  28.714  31.610  14.008
69003W        W33988   8.920  42.273  11.587
69004W        W33989  38.100   9.096  12.549
69005W        W33990  15.133  15.704   4.560
69006W        W33991  40.621  35.930   1.922
69007W        W33992  38.079  37.230  14.819
69008W        W33993  18.793  22.457  14.915
69009W        W33994  33.166  10.395   3.650
69010W        W33995  11.653  34.580   2.156
69011W        W33996  37.564  34.804  10.833
69012W        W33997  23.467  40.120  12.948
69013W        W33998  17.818  16.858  10.689
69014W        W33999  35.055  33.986  13.456
69015W        W34000  30.210  20.140  11.211
69016W        W34001  18.136   2.430  10.770
69017W        W34002  13.516  39.542   3.781
69018W        W34003   1.874  20.535   1.253
69019W        W34004  21.742  22.565   2.396
69020W        W34005   8.598   8.106   1.726
69021W        W34006   7.680  31.699  13.936
69022W        W34007  40.549  26.416   1.918
69023W        W34008  18.363   1.966   4.563
69024W        W34009  18.222   6.734   2.812
69025W        W34010   1.901  40.504   0.729
69026W        W34011   6.772   5.226   1.736
69027W        W34012  41.736  20.642  14.519
69028W        W34013  17.499  34.290   1.897
69029W        W34014  12.198  44.569  12.517
69030W        W34015  12.280  23.049  11.982
69031W        W34016  30.503  40.685  10.789
69032W        W34017  10.778  14.490  10.949
69033W        W34018   8.465  38.055   3.485
69034W        W34019  26.270   6.710  13.291
69035W        W34020  10.856  12.820   0.421
69036W        W34021  34.047  15.635  12.228
69037W        W34022  31.938  41.949  11.253
69038W        W34023   6.254  37.059  10.935
69039W        W34024  21.500  29.248   3.691
69040W        W34025  44.867  36.437  11.276
69041W        W34026  10.350  14.681   1.256
69042W        W34027  35.038   1.864   2.903
69043W        W34028  31.469  37.770  13.358
69044W        W34029   3.161  40.994   0.798
69045W        W34030  10.637  38.405   4.482
69046W        W34031  18.847  28.469   0.412
69047W        W34032  17.591  24.004   2.132
69048W        W34033  27.986  32.040   0.078
69049W        W34034  35.980  32.353  13.431
69050W        W34035  22.355  30.370  14.909
69051W        W34036   5.124  10.250  11.599
69052W        W34037  42.083  10.600   2.381
69053W        W34038   5.435  29.115  11.552
69054W        W34039  40.968  33.724  10.212
69055W        W34040   9.790  24.511  12.076
69056W        W34041  30.254   8.467  13.805
69057W        W34042  17.770  22.562  11.051
69058W        W34043   0.836   7.205   3.618
69059W        W34044  13.609  22.750  14.741
69060W        W34045  29.538  43.100  12.505
69061W        W34046  39.665  28.269  14.028
69062W        W34047  26.678  29.449  12.978
69063W        W34048  21.163  36.142  12.410
69064W        W34049  37.755  44.954  12.895
69065W        W34050   1.690  18.963   1.336
69066W        W34051   2.877   4.159  13.187
69067W        W34052  35.482  20.685  11.090
69068W        W34053  16.637  21.584  14.525
69069W        W34054  34.994  29.997   4.111
69070W        W34055  18.933  18.999   2.475
69071W        W34056  16.262  37.931  10.938
69072W        W34057   4.393  32.458  11.977
69073W        W34058  20.261  43.394  14.059
69074W        W34059  41.156  33.626   3.669
69075W        W34060  30.308   4.797   5.071
69076W        W34061  41.109  19.235  13.036
69077W        W34062  18.553  38.307  12.925
69078W        W34063  31.896   1.736  14.971
69079W        W34064   9.188  29.923  13.017
69080W        W34065  30.059  41.846   2.746
69081W        W34066   8.490  15.813   1.853
69082W        W34067  22.293  33.644   3.342
69083W        W34068  30.172   1.913  13.480
69084W        W34069  16.957   7.186  14.978
69085W        W34070  22.585  37.550   3.634
69086W        W34071  20.679  29.443   3.223
69087W        W34072   4.807   4.051  10.211
69088W        W34073  30.989   1.534   3.076
69089W        W34074   4.278  10.780  10.507
69090W        W34075  17.164  43.230  13.191
69091W        W34076  31.091  15.941   5.304
69092W        W34077  33.593  41.574  11.122
69093W        W34078  41.524  29.525   2.868
69094W        W34079  14.215  44.028   0.867
69095W        W34080  44.569   0.859  12.462
69096W        W34081   8.132  38.031  10.646
69097W        W34082  41.470  13.415   1.771
69098W        W34083  40.771  16.097   2.306
69099W        W34084   4.464  36.109  13.907
69100W        W34085  31.156  43.771  11.564
69101W        W34086  35.630  11.897  11.744
69102W        W34087  44.460  15.603  14.123
69103W        W34088   2.670  30.691  13.222
69104W        W34089  18.401  25.718  11.083
69105W        W34090  37.250  39.497  12.240
69106W        W34091  23.489  17.602  14.478
69107W        W34092  20.128  13.728  11.054
69108W        W34093  24.430  13.160  13.890
69109W        W34094  39.986  13.130  11.673
69110W        W34095  31.833   6.040   1.818
69111W        W34096   7.220  24.903   1.023
69112W        W34097  21.947  31.542   4.649
69113W        W34098  12.609  22.680   4.863
69114W        W34099  42.975  22.210  14.259
69115W        W34100  26.025   3.924  14.450
69116W        W34101   1.015  20.552   0.257
69117W        W34102  15.955  41.458  13.796
69118W        W34103  31.590   2.925  11.941
69119W        W34104  14.738   1.546   0.754
69120W        W34105  14.147   5.936   2.630
69121W        W34106  34.934  20.488   4.353
69122W        W34107  13.730   5.740  12.433
69123W        W34108  11.897  43.900  13.998
69124W        W34109  10.873  14.368   4.053
69125W        W34110  28.786  44.268  13.442
69126W        W34111  36.082  14.883   3.209
69127W        W34112  41.602  41.085  14.006
69128W        W34113  44.502  34.459   5.525
69129W        W34114  30.446  18.108  10.582
69130W        W34115   6.016  37.131  13.507
69131W        W34116   1.341  37.999  14.030
69132W        W34117  40.961  36.215   2.273
69133W        W34118  21.347  19.609   1.224
69134W        W34119   2.202  13.887  12.073
69135W        W34120  29.039  13.768   3.605
69136W        W34121  39.945  37.304  13.822
69137W        W34122  35.993  17.242  13.960
69138W        W34123  25.504   5.547   1.449
69139W        W34124  21.692  18.303  11.240
69140W        W34125  20.001   4.441  14.510
69141W        W34126   8.954   8.832   0.368
69142W        W34127  12.159  32.876  11.186
69143W        W34128  20.244  28.443  10.736
69144W        W34129  41.627  21.245  10.409
69145W        W34130  44.400   8.157   1.392
69146W        W34131   1.424   9.153  14.537
69147W        W34132  26.856   6.267   0.378
69148W        W34133   2.981   8.432  12.063
69149W        W34134   7.356  16.186  11.583
69150W        W34135  12.229  41.700  12.768
69151W        W34136  19.567  21.554   2.010
69152W        W34137  18.718  39.897  14.409
69153W        W34138  13.627   5.598   3.290
69154W        W34139   5.314  21.367   2.769
69155W        W34140  18.674  14.902   3.829
69156W        W34141  40.110   6.693  13.959
69157W        W34142   2.769   8.618   0.348
69158W        W34143   1.348  16.464  11.587
69159W        W34144  41.555  38.470   0.906
69160W        W34145   6.688  44.898  14.998
69161W        W34146  17.708  41.071  14.869
69162W        W34147  37.478  12.073  13.525
69163W        W34148  42.554   7.457   2.268
69164W        W34149  34.597   8.404  11.693
69165W        W34150  22.268   2.101   2.153
69166W        W34151   0.833  26.261  13.000
69167W        W34152   9.802  31.017  11.914
69168W        W34153  34.955  11.664  11.520
69169W        W34154  28.536  18.538   1.876
69170W        W34155  33.471  17.985  11.115
69171W        W34156  17.918  33.392   3.402
69172W        W34157  27.027  44.038  13.840
69173W        W34158  20.615  11.713  11.479
69174W        W34159   5.863  31.676   2.175
69175W        W34160  40.922  29.089  11.751
69176W        W34161  20.722  17.670   3.115
69177W        W34162  23.667  23.664  11.165
69178W        W34163   2.019   1.243  13.637
69179W        W34164   3.388  24.771  11.906
69180W        W34165   7.091  27.616  10.891
69181W        W34166  42.618  38.338   2.860
69182W        W34167   6.853  13.544   2.597
69183W        W34168  18.540  18.187   0.661
69184W        W34169  34.780  34.546   2.679
69185W        W34170   8.363  42.955  13.492
69186W        W34171  22.030  25.921  12.158
69187W        W34172  20.051  44.717  13.473
69188W        W34173  11.300  17.873  14.953
69189W        W34174   6.199  34.341   1.788
69190W        W34175  37.961  30.508   3.648
69191W        W34176  30.756  44.298  14.528
69192W        W34177  12.613   1.863   0.470
69193W        W34178  33.061  34.802  11.955
69194W        W34179  12.841  31.966   0.471
69195W        W34180  40.253  30.563  11.225
69196W        W34181  16.744  16.098  14.478
69197W        W34182  30.212   6.606   2.816
69198W        W34183  34.547  34.474   4.577
69199W        W34184  31.565  31.342   3.377
69200W        W34185  40.503  33.502  12.944
69201W        W34186   4.248   4.190   0.660
69202W        W34187  19.948   5.877  14.368
69203W        W34188   2.301  10.704  14.816
69204W        W34189  26.549   6.440  12.437
69205W        W34190  22.734  40.313   0.204
69206W        W34191  19.882  11.593   1.997
69207W        W34192   0.096   3.005   3.117
69208W        W34193   3.573  18.156  10.673
69209W        W34194   1.845  39.547  13.520
69210W        W34195   2.442  26.580   1.350
69211W        W34196   7.425  33.260  12.697
69212W        W34197   2.956  13.664   4.020
69213W        W34198   1.344  20.660   0.661
69214W        W34199  29.675   0.840  14.396
69215W        W34200  35.069  23.426   2.283
69216W        W34201   0.863  18.763  14.766
69217W        W34202  34.103  20.340  14.079
69218W        W34203  37.076  15.511   1.740
69219W        W34204  23.650   4.156  10.706
69220W        W34205  34.207  36.960  11.062
69221W        W34206  32.142  20.064  12.537
69222W        W34207  10.084  12.207  14.010
69223W        W34208  24.059  44.062   5.335
69224W        W34209   3.772  13.350  13.031
69225W        W34210   2.421   9.390   1.207
69226W        W34211  11.139  37.900  11.511
69227W        W34212  24.221  12.294   1.388
69228W        W34213   4.850  17.457   2.326
69229W        W34214  14.466  34.429  12.494
69230W        W34215  27.004  26.117  10.284
69231W        W34216  19.317  17.809   0.431
69232W        W34217  44.431  14.014   4.044
69233W        W34218  10.732  15.086   0.920
69234W        W34219  44.380  25.185  12.914
69235W        W34220  31.157  35.843  12.032
69236W        W34221   9.624   7.743  11.291
69237W        W34222  29.874  10.333   2.592
69238W        W34223  29.624  28.182   2.419
69239W        W34224  12.590  25.473   4.877
69240W        W34225  11.803  32.177   2.212
69241W        W34226  41.661  19.517  11.551
69242W        W34227   4.702   3.498  11.964
69243W        W34228   1.377  16.679   4.677
69244W        W34229  38.230  20.257   3.292
69245W        W34230   4.811  38.149  14.788
69246W        W34231  16.095  39.407   4.471
69247W        W34232   5.594  42.348   0.177
69248W        W34233   9.446  19.585  12.842
69249W        W34234  17.300  12.079  11.978
69250W        W34235  11.273   5.451   2.313
69251W        W34236  22.722   1.192  10.547
69252W        W34237  22.517   3.847   3.460
69253W        W34238  11.628  13.220  14.032
69254W        W34239  34.102   5.539   0.866
69255W        W34240  10.407  33.775   2.773
69256W        W34241  16.222  10.716   0.287
69257W        W34242   8.264   0.330   3.790
69258W        W34243  43.074  34.873   3.220
69259W        W34244  31.838   5.564  11.468
69260W        W34245   0.894  37.020  14.968
69261W        W34246  30.037  15.260   4.602
69262W        W34247  37.414  13.887   4.133
69263W        W34248  18.372  25.122  11.707
69264W        W34249  18.218  18.534  11.678
69265W        W34250   3.501  31.966   1.253
69266W        W34251  25.650   2.074   2.232
69267W        W34252  14.277  32.513   1.990
69268W        W34253   4.459  14.584  12.112
69269W        W34254  20.964  27.722   4.169
69270W        W34255  19.750  37.026  14.944
69271W        W34256  44.494  38.063   1.894
69272W        W34257  19.460  23.258   1.209
69273W        W34258  24.140  19.729   3.175
69274W        W34259  18.474  37.848   3.240
69275W        W34260  41.167   4.322   3.551
69276W        W34261  12.611  43.351  10.694
69277W        W34262  19.877  10.331   0.740
69278W        W34263  43.745  27.691  12.455
69279W        W34264  39.565  40.524  13.723
69280W        W34265   6.673  25.591   2.067
69281W        W34266  32.059  19.516   0.300
69282W        W34267  39.863  20.038   0.736
69283W        W34268  11.644  34.398   1.686
69284W        W34269  44.713   0.494   2.021
69285W        W34270  37.968  31.007  12.498
69286W        W34271  38.995  21.946   2.084
69287W        W34272  34.877  20.660  14.914
69288W        W34273  28.426  23.092   2.406
69289W        W34274  11.556   2.489  12.186
69290W        W34275  43.016  30.538  14.309
69291W        W34276   1.416   7.214   0.286
69292W        W34277  18.266  22.540   1.608
69293W        W34278  16.667  29.644   5.545
69294W        W34279  24.965  12.185   4.085
69295W        W34280  44.869  16.275  14.443
69296W        W34281  17.820  29.037  11.554
69297W        W34282  27.631  21.549   1.430
69298W        W34283  32.690  30.881  14.914
69299W        W34284  40.260  41.504   1.966
69300W        W34285  10.589  39.026  10.018
69301W        W34286   7.229  41.928  12.955
69302W        W34287  16.833  31.663  14.455
69303W        W34288  31.148  22.429  10.973
69304W        W34289  38.709  38.420  14.534
69305W        W34290  39.389  44.519   4.126
69306W        W34291  20.523  40.554   4.815
69307W        W34292  37.090  39.051   3.850
69308W        W34293  27.659  20.330  14.671
69309W        W34294   9.666  11.668  10.739
69310W        W34295  33.833  34.125   4.180
69311W        W34296   4.689  25.444   2.129
69312W        W34297  27.548  29.170  14.795
69313W        W34298  23.344   2.246  10.760
69314W        W34299  13.712   6.504   3.717
69315W        W34300  30.796  16.766  10.727
69316W        W34301  18.203  18.326  14.307
69317W        W34302   6.681  24.969  12.642
69318W        W34303   7.514  27.998   4.101
69319W        W34304  44.476  24.687   9.882
69320W        W34305  19.190  21.770  12.848
69321W        W34306  21.640  14.301   4.311
69322W        W34307   0.991  16.732  11.969
69323W        W34308   7.488  24.695  13.462
69324W        W34309  20.511  32.405   1.215
69325W        W34310   3.797  41.696  11.647
69326W        W34311  14.762  36.894   2.755
69327W        W34312  25.526  23.493  14.543
69328W        W34313   0.502  29.012   1.314
69329W        W34314  39.330  11.259   2.351
69330W        W34315  38.607  28.391   2.299
69331W        W34316   1.667   8.145   4.539
69332W        W34317  17.643  20.950  14.925
69333W        W34318  12.978  21.798   2.841
69334W        W34319  39.816  44.703  11.536
69335W        W34320  41.271  40.749   0.920
69336W        W34321  30.944   3.904   2.121
69337W        W34322  31.302  28.829  13.455
69338W        W34323  22.206  24.153   1.247
69339W        W34324   2.418   2.808   0.663
69340W        W34325   7.168   4.917  12.419
69341W        W34326  14.773  23.577   0.761
69342W        W34327   0.761  12.145   1.592
69343W        W34328  39.522  36.444   0.628
69344W        W34329  11.588  38.619  12.723
69345W        W34330  37.878  20.774   4.428
69346W        W34331  42.998  38.806   1.341
69347W        W34332  27.087  42.889   4.069
69348W        W34333  27.195  11.278  13.746
69349W        W34334  19.556  26.092  13.231
69350W        W34335   1.750   5.328  11.160
69351W        W34336  32.312  34.304   1.629
69352W        W34337  38.794  44.161  14.049
69353W        W34338  44.689  31.519  10.611
69354W        W34339  44.221  41.440  12.276
69355W        W34340  39.698   5.720  13.302
69356W        W34341   3.257  34.612  11.081
69357W        W34342  29.247  26.661  10.801
69358W        W34343   2.765   7.401   3.170
69359W        W34344  43.988  22.526   2.795
69360W        W34345  19.720  43.124  10.687
69361W        W34346  18.055  34.836  13.116
69362W        W34347  40.484  31.837   1.448
69363W        W34348  27.327  41.416   1.591
69364W        W34349  27.651  16.283  13.154
69365W        W34350  23.136  19.297  10.708
69366W        W34351  16.696  13.806   3.074
69367W        W34352  38.213  18.239   1.341
69368W        W34353  18.495  15.333  11.085
69369W        W34354  22.606   2.909   0.821
69370W        W34355  36.612   6.664   0.801
69371W        W34356  32.347  21.858  11.395
69372W        W34357  43.121   5.780   4.044
69373W        W34358   8.675  36.047   1.912
69374W        W34359  31.092  43.266  12.597
69375W        W34360  21.495  41.528  11.634
69376W        W34361  16.519  26.667   0.319
69377W        W34362  40.308   0.988  10.766
69378W        W34363  27.398  18.164   3.204
69379W        W34364  14.058   7.899  11.554
69380W        W34365   8.785   4.705   1.706
69381W        W34366  24.064  11.192   2.278
69382W        W34367  14.073  15.601   3.349
69383W        W34368   9.476   3.243  11.006
69384W        W34369  11.892  12.434  10.805
69385W        W34370  11.024  32.731  12.990
69386W        W34371  34.064  34.400   1.373
69387W        W34372  35.046   1.842   0.661
69388W        W34373   5.481  31.526   0.783
69389W        W34374  18.107  35.018   2.723
69390W        W34375  15.818  17.059   4.514
69391W        W34376  24.096  36.828  13.393
69392W        W34377  27.037  40.318  11.230
69393W        W34378  39.688  34.358  10.921
69394W        W34379  28.196   6.405   4.381
69395W        W34380  28.741  12.854  14.004
69396W        W34381  25.286   1.923   1.227
69397W        W34382  39.233  14.811   2.739
69398W        W34383  43.023  24.677  10.703
69399W        W34384  43.043   4.340  12.612
69400W        W34385  44.862  35.875  12.479
69401W        W34386  34.852  13.825   0.248
69402W        W34387   8.289   2.782   4.638
69403W        W34388  32.766   6.440  13.340
69404W        W34389   6.051  39.928   0.474
69405W        W34390  27.083   9.700  10.727
69406W        W34391  39.298  34.869  11.656
69407W        W34392   9.779  35.768  14.945
69408W        W34393  33.332   4.427  10.324
69409W        W34394  35.927  20.301  14.238
69410W        W34395  18.047  32.087   4.282
69411W        W34396  18.669   0.423  14.550
69412W        W34397  38.521   5.809  12.619
69413W        W34398  10.111  14.629   0.763
69414W        W34399  18.753  43.782  11.171
69415W        W34400  25.476  33.549  11.276
69416W        W34401   4.395   0.730  12.445
69417W        W34402  20.673  23.798   1.405
69418W        W34403  28.618  19.697   4.597
69419W        W34404  38.651   0.537   2.727
69420W        W34405  26.930   4.377  14.699
69421W        W34406  10.863  42.783   3.647
69422W        W34407  16.976  44.123   0.766
69423W        W34408  42.080  10.793  13.601
69424W        W34409  41.444   6.308   3.016
69425W        W34410  42.957  19.455  13.644
69426W        W34411  20.576   1.917   1.374
69427W        W34412  24.270  37.148  12.109
69428W        W34413  24.837  24.714  13.370
69429W        W34414  22.675   9.724  11.975
69430W        W34415   3.801  33.385   1.142
69431W        W34416  41.956  28.695  12.476
69432W        W34417   1.153  26.152   1.403
69433W        W34418   9.043  24.489   3.144
69434W        W34419  24.481  19.539   2.244
69435W        W34420  35.957   5.929  12.548
69436W        W34421  42.722  22.255  10.055
69437W        W34422  18.965  44.321   0.150
69438W        W34423  10.256  18.930   0.267
69439W        W34424   2.948  13.282  13.361
69440W        W34425  28.640  43.858   3.993
69441W        W34426  22.237  39.066  13.040
69442W        W34427  33.600  11.466  10.296
69443W        W34428  25.490  32.907   0.021
69444W        W34429  31.887   0.425  14.801
69445W        W34430  22.122   5.305   4.273
69446W        W34431  27.013   2.498  10.118
69447W        W34432   7.843  43.054  13.487
69448W        W34433  26.720  32.073   4.070
69449W        W34434   2.139  24.704   2.898
69450W        W34435  44.611  30.981   1.422
69451W        W34436  33.125  39.598  10.685
69452W        W34437  34.489   5.157   0.732
69453W        W34438  40.724  20.482   4.982
69454W        W34439   3.973  21.174  12.496
69455W        W34440  41.592  23.376  10.902
69456W        W34441   4.275   5.761  12.124
69457W        W34442  13.353   4.163  13.144
69458W        W34443  25.227  36.258  12.994
69459W        W34444   2.859  42.328   3.764
69460W        W34445  27.523  18.092   2.283
69461W        W34446  10.422  17.197  14.434
69462W        W34447   9.130   2.858  14.870
69463W        W34448  26.145  36.815   2.696
69464W        W34449  41.056  31.662  11.513
69465W        W34450  39.582  16.684   0.196
69466W        W34451  19.042  39.526  11.493
69467W        W34452  19.255  16.731   3.147
69468W        W34453  24.917   0.800   4.199
69469W        W34454  25.852  37.193   1.299
69470W        W34455  19.647  33.163   3.292
69471W        W34456  29.962  30.017  10.837
69472W        W34457  29.208   6.856   1.451
69473W        W34458  18.560  19.500   0.335
69474W        W34459  44.308  28.744   4.680
69475W        W34460   1.743   4.934   0.493
69476W        W34461   4.767  37.670  13.864
69477W        W34462  16.742   3.435  14.481
69478W        W34463   7.658  26.634   5.153
69479W        W34464  24.680  31.349  14.895
69480W        W34465   9.383  21.134   2.186
69481W        W34466   1.719  35.996   0.801
69482W        W34467   6.782   7.806  14.313
69483W        W34468   7.158  18.299  13.878
69484W        W34469  36.347  26.738   0.823
69485W        W34470  13.866  27.212   0.903
69486W        W34471  24.394  37.821  12.913
69487W        W34472  30.987   8.905   0.848
69488W        W34473  18.070  16.065  11.792
69489W        W34474  24.109   7.354  12.921
69490W        W34475  10.164  12.367  10.737
69491W        W34476  43.278  23.542   3.133
69492W        W34477  29.713  31.398  10.216
69493W        W34478  10.062  39.512   0.790
69494W        W34479   7.787  42.527   0.369
69495W        W34480  16.626   8.158   2.666
69496W        W34481   8.666  16.702  12.509
69497W        W34482  40.899   5.141  12.011
69498W        W34483  31.009   5.758  11.123
69499W        W34484  15.523   3.285  13.942
69500W        W34485  32.972  40.523  11.971
69501W        W34486  32.253  43.339   1.325
69502W        W34487  18.616  36.394   0.287
69503W        W34488   2.052  37.142  11.402
69504W        W34489   5.932   5.401  13.349
69505W        W34490   8.219   4.462   2.245
69506W        W34491  39.724  34.995  13.444
69507W        W34492  23.563   6.824   4.131
69508W        W34493  40.510   2.820  13.053
69509W        W34494   4.726  34.535   0.733
69510W        W34495  24.050   4.934  13.707
69511W        W34496  36.324  30.347   4.158
69512W        W34497   3.861   7.123  10.093
69513W        W34498  23.305  23.295   1.410
69514W        W34499  44.333  27.458  13.511
69515W        W34500  43.252  11.676  12.127
69516W        W34501  12.889   0.520   4.438
69517W        W34502  16.320  24.196   0.948
69518W        W34503  19.381  11.273  13.489
69519W        W34504  38.505  12.980   2.676
69520W        W34505   0.544   7.293   2.785
69521W        W34506  21.228  27.718   2.730
69522W        W34507   8.475  11.478   4.357
69523W        W34508   1.975  26.203  14.793
69524W        W34509  43.332  34.009   4.116
69525W        W34510  40.882  40.515  12.491
69526W        W34511  26.889  26.132   3.627
69527W        W34512  34.689  17.319   1.251
69528W        W34513   6.186  44.939  11.108
69529W        W34514  12.645  38.914   1.744
69530W        W34515  32.831  13.818   0.158
69531W        W34516  36.910  22.766  14.904
69532W        W34517  19.545  19.086   0.345
69533W        W34518  28.169   3.391   3.612
69534W        W34519  15.291   4.251   4.951
69535W        W34520  27.271  43.892  13.387
69536W        W34521  27.410  42.812   2.338
69537W        W34522   1.217  17.240  14.980
69538W        W34523  17.560  13.720   1.832
69539W        W34524  41.768  26.252   3.234
69540W        W34525   2.213  43.475  11.591
69541W        W34526  20.514  44.733  14.218
69542W        W34527  29.942  12.669  12.968
69543W        W34528  26.098  21.330   2.740
69544W        W34529  32.829  43.434   0.675
69545W        W34530  32.550  21.196   1.893
69546W        W34531  32.619   1.680  13.307
69547W        W34532  19.116   9.773   4.732
69548W        W34533  16.049  14.129  11.197
69549W        W34534  26.556  19.304   1.217
69550W        W34535  31.119   0.769   1.960
69551W        W34536  28.953  15.710  11.988
69552W        W34537  11.126  13.236   2.843
69553W        W34538   7.326  28.901  13.078
69554W        W34539  35.503   4.196  12.845
69555W        W34540  41.380   0.513   0.247
69556W        W34541  32.830   2.477  12.333
69557W        W34542  39.903   4.307   4.115
69558W        W34543  13.255   6.614   0.029
69559W        W34544  34.272  36.109  13.000
69560W        W34545  31.292  35.337  11.190
69561W        W34546  30.774  38.974   3.739
69562W        W34547  35.453  13.828  11.444
69563W        W34548  21.958  20.215  14.340
69564W        W34549  41.198  12.859  11.668
69565W        W34550   6.661   9.538   4.537
69566W        W34551  16.576  30.941  12.106
69567W        W34552  31.058  18.539  14.825
69568W        W34553  18.183  35.460   3.998
69569W        W34554  19.386   6.076  10.685
69570W        W34555  18.579  41.422   4.215
69571W        W34556  17.636   7.785  14.771
69572W        W34557   2.844  30.199  13.299
69573W        W34558   1.061  13.636   4.105
69574W        W34559  16.038  22.065   3.798
69575W        W34560   4.939  44.877   1.271
69576W        W34561   1.371  17.684  14.452
69577W        W34562   4.913  22.177   3.698
69578W        W34563  39.945   4.908   0.242
69579W        W34564  18.777  34.081   4.443
69580W        W34565   4.401  38.802   2.185
69581W        W34566  15.617   4.537   0.899
69582W        W34567   3.669   5.360  14.776
69583W        W34568  14.791  20.832   3.407
69584W        W34569   1.716   3.633  10.719
69585W        W34570   7.554  33.533   2.682
69586W        W34571  17.456  43.311  13.626
69587W        W34572  30.920  23.246   2.084
69588W        W34573   6.001  11.692  11.754
69589W        W34574  19.710  33.200   0.310
69590W        W34575  33.426  29.391  13.282
69591W        W34576  29.885   7.838   4.592
69592W        W34577   1.355   7.950  11.672
69593W        W34578  23.484  18.608  13.418
69594W        W34579  13.189  18.782  10.583
69595W        W34580   1.475  27.474   4.044
69596W        W34581  43.973   4.825  10.828
69597W        W34582   2.994  11.649  12.158
69598W        W34583  43.068  30.339   0.712
69599W        W34584   3.532  32.048   2.470
69600W        W34585   2.024  10.341   1.562
69601W        W34586  16.257   9.898  12.169
69602W        W34587  37.946  32.576  13.698
69603W        W34588   2.435  30.347  14.222
69604W        W34589  15.337  39.037   3.581
69605W        W34590  13.397  36.947   2.658
69606W        W34591  36.931  37.827  10.775
69607W        W34592  12.680  11.806  14.289
69608W        W34593  29.219  24.343   2.102
69609W        W34594  35.055   6.117   4.928
69610W        W34595   3.286  24.927   2.730
69611W        W34596  13.055  40.997  11.446
69612W        W34597  15.203  30.459  12.600
69613W        W34598  20.595  10.298  14.909
69614W        W34599  38.611  12.316   0.295
69615W        W34600   2.109  21.475   3.100
69616W        W34601   4.561   2.545   1.936
69617W        W34602   3.896  41.591  12.134
69618W        W34603  25.756  35.958   2.250
69619W        W34604  38.382  18.703   1.228
69620W        W34605   6.862   3.521   0.062
69621W        W34606  26.569  12.053  11.673
69622W        W34607  30.905   3.006   0.736
69623W        W34608   1.090  31.401   0.706
69624W        W34609  30.147  24.153   0.356
69625W        W34610   0.568   5.698  12.077
69626W        W34611  25.016  12.623   4.364
69627W        W34612  35.842  41.498  13.551
69628W        W34613  24.657  20.744  12.350
69629W        W34614   7.173  29.451   1.773
69630W        W34615  32.920  25.047   0.502
69631W        W34616  33.076  24.766  11.956
69632W        W34617  19.843  34.401   1.442
69633W        W34618   2.444  21.587   2.709
69634W        W34619   9.593  14.329   1.760
69635W        W34620  37.924  10.961  12.483
69636W        W34621  16.180  13.448  14.102
69637W        W34622   1.171  18.116   2.273
69638W        W34623  21.228  24.287   1.374
69639W        W34624  15.006  32.440   2.838
69640W        W34625   9.621  34.860   3.213
69641W        W34626   4.364   9.103  13.984
69642W        W34627  43.238  22.180   4.546
69643W        W34628  21.742   7.364   2.462
69644W        W34629  44.304  24.732   3.399
69645W        W34630   2.851  19.610  12.153
69646W        W34631   5.168   5.159  14.446
69647W        W34632  10.270  29.369  12.543
69648W        W34633  44.671  11.199   0.218
69649W        W34634  13.091  19.700   2.468
69650W        W34635   5.445  14.066  12.151
69651W        W34636  37.572   6.363   5.327
69652W        W34637  40.521  19.177  11.077
69653W        W34638  19.455   6.009   3.804
69654W        W34639  35.126  29.158  14.381
69655W        W34640  31.427  16.598   1.685
69656W        W34641  36.519  22.283  13.966
69657W        W34642   5.455   9.416  10.231
69658W        W34643   8.116  16.746   2.014
69659W        W34644  15.581   4.946   3.153
69660W        W34645  21.583   0.725   3.128
69661W        W34646   3.767   0.957   2.420
69662W        W34647  20.013  38.992  13.993
69663W        W34648   4.803  43.398  12.472
69664W        W34649   3.990  43.380   1.277
69665W        W34650  24.912  19.385   4.146
69666W        W34651  10.851  11.506   4.248
69667W        W34652   0.277  10.796  11.563
69668W        W34653   3.973  40.874  13.462
69669W        W34654  39.532  24.865   3.283
69670W        W34655  35.742  15.161  12.494
69671W        W34656  44.943   3.489   1.802
69672W        W34657  36.000  28.050  13.517
69673W        W34658  41.505   6.335  13.467
69674W        W34659  36.960  37.870   3.403
69675W        W34660  26.983   8.284   4.573
69676W        W34661  13.055  18.226   2.670
69677W        W34662  33.551   2.981  14.811
69678W        W34663  11.176  43.035   3.233
69679W        W34664   6.824  35.558  13.533
69680W        W34665  27.870  12.000  13.918
69681W        W34666  26.879  22.621  12.603
69682W        W34667   4.871  26.890   3.233
69683W        W34668  29.649  44.494   2.325
69684W        W34669  28.000  21.632  11.406
69685W        W34670  13.251   7.127   2.169
69686W        W34671  28.686  16.550  11.216
69687W        W34672  40.392  29.446   1.256
69688W        W34673  44.759   7.098   0.711
69689W        W34674  29.552   4.809   0.460
69690W        W34675  31.005  16.659  11.567
69691W        W34676  27.745  23.161  11.658
69692W        W34677  13.625   9.174   3.566
69693W        W34678   0.021  38.667  10.944
69694W        W34679  24.073  13.315  12.441
69695W        W34680  37.073  44.793   3.429
69696W        W34681   8.672  33.222  11.161
69697W        W34682   4.981  33.997  13.936
69698W        W34683  12.600  43.351  12.080
69699W        W34684  10.252  31.660  11.024
69700W        W34685   1.471   8.161  12.891
69701W        W34686  17.626   9.723  14.805
69702W        W34687  31.326  20.234  14.304
69703W        W34688  18.731  27.122   2.140
69704W        W34689  19.400  25.755   0.258
69705W        W34690  36.965  25.689   2.636
69706W        W34691  34.013  23.546  11.115
69707W        W34692  38.579  33.712   0.044
69708W        W34693  16.053  14.486   2.050
69709W        W34694  42.300   8.847  12.958
69710W        W34695  22.865  30.551  10.248
69711W        W34696  11.719   8.191   2.749
69712W        W34697  32.976  22.643  13.981
69713W        W34698   0.749  19.375   3.734
69714W        W34699   7.489  15.579   3.185
69715W        W34700  33.867   0.899  10.768
69716W        W34701  44.366  43.538  10.673
69717W        W34702  41.771  28.138  13.384
69718W        W34703   6.209  20.205  11.699
69719W        W34704  42.506  19.806  10.666
69720W        W34705  32.416  14.760   3.966
69721W        W34706  40.406   0.339   2.779
69722W        W34707  14.814  12.330   2.038
69723W        W34708  22.056  39.468  11.779
69724W        W34709  39.653  32.297   2.342
69725W        W34710  12.089   4.930   0.900
69726W        W34711  28.674  31.467  12.493
69727W        W34712   2.148  29.623  13.843
69728W        W34713   7.067  16.586  11.444
69729W        W34714   8.711  31.650   2.558
69730W        W34715  30.702  31.518   2.828
69731W        W34716  11.922   6.840  11.954
69732W        W34717  25.999  31.898  13.287
69733W        W34718  44.004   4.489  12.384
69734W        W34719   1.745  27.953   4.963
69735W        W34720   9.317  14.183  14.033
69736W        W34721  32.355  31.065   1.415
69737W        W34722  15.673   0.065   1.921
69738W        W34723   9.155  42.717  10.493
69739W        W34724   4.930  40.038  13.245
69740W        W34725  15.539  10.168  10.618
69741W        W34726   5.653  20.762  13.380
69742W        W34727   0.746  33.110   0.026
69743W        W34728  22.264   4.364   3.224
69744W        W34729  31.962  30.790   4.671
69745W        W34730  20.614   2.390   1.599
69746W        W34731  37.858  22.814   0.933
69747W        W34732  43.709  37.489   4.616
69748W        W34733  31.561   8.905   3.167
69749W        W34734   8.300   3.755   0.327
69750W        W34735  27.479  41.578   0.176
69751W        W34736  29.278  31.450   4.707
69752W        W34737  14.597  12.272  12.112
69753W        W34738  31.656   8.454   0.348
69754W        W34739  31.570  39.618   0.964
69755W        W34740  11.868  18.087  10.482
69756W        W34741  40.935  12.650  11.224
69757W        W34742   1.290  26.300   3.251
69758W        W34743  20.947   3.636   0.445
69759W        W34744  30.807  19.975  12.588
69760W        W34745  41.445  10.249  13.814
69761W        W34746  23.621   0.916   1.339
69762W        W34747  11.414  24.497   1.409
69763W        W34748   4.441  15.848  10.942
69764W        W34749  27.006  35.780  12.046
69765W        W34750  28.152  38.504   4.576
69766W        W34751  15.374  15.224   4.697
69767W        W34752  29.031  21.277   0.476
69768W        W34753  43.589  18.976  11.672
69769W        W34754  26.448  30.298   1.345
69770W        W34755  28.757  32.734   2.016
69771W        W34756  21.130  25.930  12.935
69772W        W34757  40.571  40.271  10.379
69773W        W34758  38.983  20.863  12.078
69774W        W34759  28.342   2.536  11.693
69775W        W34760  27.708  37.590   4.285
69776W        W34761  22.183  42.790   0.287
69777W        W34762  41.828   7.520  14.756
69778W        W34763  29.451  32.933  12.488
69779W        W34764   6.789  44.340   1.941
69780W        W34765  38.500   4.971   2.698
69781W        W34766  34.115  31.859   1.660
69782W        W34767  12.295  42.884   0.455
69783W        W34768  21.199  33.020  13.878
69784W        W34769  30.917  24.517   1.354
69785W        W34770  27.565   4.504  11.611
69786W        W34771  10.180  10.074  12.452
69787W        W34772  27.527  36.744   4.408
69788W        W34773  40.075  17.791  12.495
69789W        W34774  39.932  26.664   2.791
69790W        W34775   9.798  22.824   4.509
69791W        W34776  10.920   5.978  10.142
69792W        W34777   5.835  35.808   0.727
69793W        W34778   3.920  18.725  13.165
69794W        W34779  42.392  15.222   1.282
69795W        W34780   5.817   9.376  14.346
69796W        W34781  40.068  14.168   0.415
69797W        W34782  41.062  43.050  11.033
69798W        W34783  40.444  27.648   0.846
69799W        W34784   8.991  19.868  10.699
69800W        W34785   6.080  29.429  11.006
69801W        W34786   4.403  23.255   1.890
69802W        W34787  14.639   3.910  12.511
69803W        W34788  21.915   1.253  12.950
69804W        W34789   3.220  24.216  12.493
69805W        W34790  21.700  19.111  14.435
69806W        W34791   4.790  20.101  13.302
69807W        W34792  23.702  26.256   2.848
69808W        W34793  10.462  18.533   0.538
69809W        W34794  26.887  40.550  12.874
69810W        W34795  36.479   4.572  10.492
69811W        W34796  20.269  36.243  13.748
69812W        W34797  22.712  23.928  14.393
69813W        W34798  25.642  16.082  12.158
69814W        W34799  28.596   3.644   2.221
69815W        W34800  23.906  29.904   2.351
69816W        W34801  11.355  30.608  13.837
69817W        W34802  22.142  31.353   0.661
69818W        W34803  17.853  13.274  14.097
69819W        W34804  16.077  39.354  13.854
69820W        W34805   0.219  26.795  14.018
69821W        W34806  18.704  20.645   0.844
69822W        W34807  44.687  12.185   2.864
69823W        W34808   9.183  17.982  11.160
69824W        W34809  33.492  35.090   1.840
69825W        W34810  40.374  31.568  13.836
69826W        W34811  18.719  23.687  14.972
69827W        W34812  14.713   7.733   0.445
69828W        W34813  25.032   7.094  14.416
69829W        W34814  10.337  31.193   0.876
69830W        W34815  10.378   9.245  12.069
69831W        W34816  24.932  15.633  10.556
69832W        W34817  10.166  21.696  11.529
69833W        W34818   5.283  25.719   0.782
69834W        W34819   1.285   3.639   2.664
69835W        W34820   9.739   9.989  13.086
69836W        W34821  21.167   6.806   2.066
69837W        W34822  21.292  44.185   2.119
69838W        W34823  19.414   7.954  11.090
69839W        W34824  15.428  12.546  10.805
69840W        W34825  25.457  25.388  11.063
69841W        W34826   0.525   2.891  14.600
69842W        W34827  30.380  28.960  14.061
69843W        W34828  41.624  13.540  12.205
69844W        W34829  31.898   1.362  11.155
69845W        W34830  30.136  36.917  14.746
69846W        W34831  28.936   3.683   4.145
69847W        W34832  36.565   1.771  12.476
69848W        W34833   0.923   4.841   5.114
69849W        W34834  22.339  41.454  14.547
69850W        W34835  29.943   3.250  13.915
69851W        W34836  37.495  32.423  13.443
69852W        W34837  21.471  38.515   2.383
69853W        W34838  31.594  30.858   3.213
69854W        W34839  25.371  41.311   1.249
69855W        W34840  28.762  34.621  14.382
69856W        W34841  23.191  30.629   1.967
69857W        W34842   6.609  34.523   1.531
69858W        W34843  14.508  31.829  11.891
69859W        W34844  39.503   8.959   0.265
69860W        W34845  35.552   2.519  13.190
69861W        W34846  27.933  32.641  10.647
69862W        W34847   5.477  42.389   1.046
69863W        W34848  35.853  10.404   4.242
69864W        W34849  42.182  19.262  12.016
69865W        W34850  15.083  39.028  14.339
69866W        W34851  36.649  42.131  13.632
69867W        W34852  23.790   7.742  12.484
69868W        W34853  10.863  15.842  11.470
69869W        W34854   6.986  23.506  12.078
69870W        W34855   6.384  39.536   4.895
69871W        W34856  18.227  35.882   4.302
69872W        W34857   2.566  33.088  12.460
69873W        W34858   8.353  13.168  14.975
69874W        W34859   9.826  36.571   1.727
69875W        W34860   8.070   4.042   5.085
69876W        W34861  37.053   5.433   1.447
69877W        W34862  34.463   4.302   2.063
69878W        W34863  17.301  16.560   3.282
69879W        W34864  15.596  33.261   1.879
69880W        W34865  26.643   3.806   0.253
69881W        W34866  10.638   9.484   0.925
69882W        W34867  43.959  20.229   4.132
69883W        W34868  18.571   9.064   1.178
69884W        W34869  20.705  19.097  14.331
69885W        W34870  20.504   9.146  14.695
69886W        W34871  27.484  23.992   0.254
69887W        W34872  38.250  24.455  11.586
69888W        W34873  30.273  28.294   3.326
69889W        W34874  32.404  17.256  13.951
69890W        W34875  38.128  34.168   1.214
69891W        W34876  26.263   0.832   2.920
69892W        W34877  31.679   2.984   0.028
69893W        W34878  15.542   3.210   2.162
69894W        W34879   4.320  13.245   2.832
69895W        W34880  43.643   4.520  12.029
69896W        W34881  22.324  35.980   3.676
69897W        W34882   2.613  24.588   2.218
69898W        W34883  37.514  20.695  11.059
69899W        W34884   2.255  42.937  14.956
69900W        W34885  12.845  30.049  11.482
69901W        W34886   9.859   9.301  11.787
69902W        W34887  15.763  33.400  11.190
69903W        W34888  38.059  19.997  13.290
69904W        W34889  21.324   6.730  13.059
69905W        W34890  30.655   5.645  12.039
69906W        W34891  37.998   3.401   3.577
69907W        W34892   2.791  19.936   3.721
69908W        W34893  18.254  34.079  13.460
69909W        W34894  22.453  23.435   0.205
69910W        W34895  38.382  40.291   1.917
69911W        W34896  30.773  40.261   4.106
69912W        W34897  10.313  25.089  12.522
69913W        W34898  20.548  18.551   0.423
69914W        W34899  13.832  20.457  13.427
69915W        W34900  12.730  39.794  11.548
69916W        W34901   3.031   5.205  10.835
69917W        W34902  27.508  34.873  13.588
69918W        W34903  40.852  14.702   1.156
69919W        W34904  32.597  42.238   0.035
69920W        W34905  42.333  33.988  13.449
69921W        W34906  33.134  26.182  10.793
69922W        W34907  11.037  32.954   2.805
69923W        W34908   9.161  42.979   4.155
69924W        W34909  40.421  39.876   3.311
69925W        W34910  25.122  37.792   4.627
69926W        W34911  17.655  21.302   1.797
69927W        W34912  25.585  22.196   2.655
69928W        W34913  38.575   9.685   3.180
69929W        W34914  14.574  12.840  13.029
69930W        W34915  39.362  31.260  14.372
69931W        W34916  10.017  25.381  12.212
69932W        W34917   8.886   1.986   0.148
69933W        W34918  21.974   6.680  12.530
69934W        W34919  36.477  17.250  10.385
69935W        W34920   8.570   8.285   0.300
69936W        W34921  24.628  15.559   0.495
69937W        W34922   8.348  40.475  14.779
69938W        W34923  42.360  19.506   1.163
69939W        W34924  36.378  28.942  13.965
69940W        W34925  40.015   5.123  11.511
69941W        W34926   5.363   6.505  12.844
69942W        W34927  11.591  22.430  13.952
69943W        W34928  24.228   8.230  10.756
69944W        W34929  36.476   8.367  12.473
69945W        W34930  42.296  22.636   4.504
69946W        W34931  40.329  19.676  11.969
69947W        W34932  16.998  27.640   2.134
69948W        W34933  10.144  20.174  12.928
69949W        W34934  41.940  16.518  12.141
69950W        W34935  29.587  28.354  11.583
69951W        W34936  39.302  11.600  14.416
69952W        W34937  11.352   6.285   3.106
69953W        W34938  11.720   7.296   5.021
69954W        W34939  20.302  16.261   5.046
69955W        W34940  42.999  41.464   3.177
69956W        W34941  29.999   5.353  12.383
69957W        W34942   6.317   5.691   3.064
69958W        W34943  28.361  19.506   3.576
69959W        W34944  16.973  34.379   1.897
69960W        W34945  16.245   7.983   4.949
69961W        W34946  24.763  41.858   2.586
69962W        W34947  30.799  11.647   4.094
69963W        W34948  25.015  35.191  11.453
69964W        W34949  33.085  12.429   4.646
69965W        W34950   2.386  38.623  10.594
69966W        W34951  33.602  19.816   2.536
69967W        W34952   2.764  29.234   2.853
69968W        W34953  19.683  36.319   2.684
69969W        W34954   3.249  31.190   4.016
69970W        W34955  33.900  12.808   4.979
69971W        W34956  42.918  44.232   4.578
69972W        W34957  11.228  41.449   1.130
69973W        W34958  31.348  27.088  11.566
69974W        W34959  41.004  27.579  13.422
69975W        W34960  44.825  40.790   2.372
69976W        W34961  29.212  32.818   2.874
69977W        W34962  23.913  31.588  11.010
69978W        W34963  39.498  35.454  12.488
69979W        W34964  20.576   0.989   1.262
69980W        W34965  15.583  12.377   0.261
69981W        W34966  27.712  34.012   1.407
69982W        W34967   5.955   3.772  14.997
69983W        W34968  38.973  31.203   4.055
69984W        W34969  20.478  40.348  10.610
69985W        W34970  24.614  37.763   2.725
69986W        W34971  14.748  30.015  13.017
69987W        W34972  17.846  17.679   0.775
69988W        W34973   0.014  36.778   2.733
69989W        W34974  36.114  24.990   2.801
69990W        W34975  34.902  26.652   1.948
69991W        W34976  22.608   6.748   4.729
69992W        W34977   4.842   2.916  13.482
69993W        W34978  25.227  36.580  13.570
69994W        W34979  10.428   1.793   4.822
69995W        W34980  12.663   5.322  12.937
69996W        W34981  37.025  12.956   3.823
69997W        W34982  21.381   8.392   3.681
69998W        W34983  33.596   4.302   2.598
69999W        W34984  31.934  40.529  14.693
70000W        W34985   5.841  41.029   3.847
70001W        W34986  33.345  38.038   1.689
70002W        W34987   7.230   0.761  12.975
70003W        W34988  42.235  37.419   3.090
70004W        W34989  16.011  27.502   0.057
70005W        W34990  16.318   8.776  11.983
70006W        W34991  30.477  41.975  12.556
70007W        W34992   1.984   8.028   2.401
70008W        W34993  26.926  18.515  12.364
70009W        W34994  33.048  16.620  11.290
70010W        W34995   5.165   4.694  14.195
70011W        W34996  41.868  41.325   4.148
70012W        W34997  29.402   8.279   1.406
70013W        W34998  23.654  30.377   1.325
70014W        W34999   6.401  15.194  13.367
70015W        W35000  24.568  20.189   4.462
70016W        W35001  14.531  39.254  12.935
70017W        W35002  37.392  37.974   4.450
70018W        W35003  31.610  34.396   3.320
70019W        W35004  14.662  12.817   3.878
70020W        W35005  21.469  16.023  11.598
70021W        W35006   0.075  23.581  10.188
70022W        W35007   0.002  24.053   3.741
70023W        W35008  40.608   3.496   2.257
70024W        W35009  11.327  37.520  11.186
70025W        W35010  30.783  32.701   2.444
70026W        W35011  43.886  34.017  13.304
70027W        W35012   3.285   8.893   3.674
70028W        W35013   0.234  33.520   3.704
70029W        W35014   7.510  38.843   3.088
70030W        W35015  20.223  15.549   0.219
70031W        W35016  42.805  35.058  14.206
70032W        W35017  27.867  37.111  14.313
70033W        W35018   8.581  19.349   3.457
70034W        W35019  30.982  26.111  13.453
70035W        W35020  38.709  24.504   0.172
70036W        W35021   7.803  13.701   3.154
70037W        W35022  31.547  13.462  12.509
70038W        W35023  22.138  26.009   1.673
70039W        W35024  37.130   5.173  11.444
70040W        W35025  32.628  19.544  14.204
70041W        W35026  26.066   7.468  14.803
70042W        W35027  35.402  35.886   4.027
70043W        W35028  19.131  29.879   4.404
70044W        W35029  14.544   6.301   1.518
70045W        W35030  21.172  21.037  14.899
70046W        W35031  17.726  28.434   4.120
70047W        W35032  43.552   3.237   4.070
70048W        W35033   4.107   8.042   1.084
70049W        W35034  37.985  43.525  14.003
70050W        W35035  42.826  43.083   3.104
70051W        W35036  13.144  38.741   2.694
70052W        W35037  42.387  33.715   1.361
70053W        W35038   2.702  36.629  11.119
70054W        W35039   8.046  27.802  12.751
70055W        W35040   8.263  42.752  10.589
70056W        W35041  32.363  34.503   2.694
70057W        W35042  38.901  16.892  12.039
70058W        W35043   7.480  22.131  11.204
70059W        W35044   3.708  22.206   1.729
70060W        W35045   0.179  26.461   4.914
70061W        W35046  23.469  24.167   4.503
70062W        W35047  34.037  20.291   4.232
70063W        W35048  19.198  12.438  12.124
70064W        W35049  27.830  43.957   1.263
70065W        W35050   8.775   3.977   0.447
70066W        W35051  12.191  43.460  14.032
70067W        W35052  10.080  31.515   4.598
70068W        W35053  32.009  10.867  12.146
70069W        W35054   5.897  17.759   3.257
70070W        W35055  42.298  24.480   4.545
70071W        W35056  40.407  32.298  10.411
70072W        W35057  40.805  26.174   2.287
70073W        W35058  29.578  35.189   4.502
70074W        W35059  17.608  19.499   0.165
70075W        W35060  27.069  31.830   1.174
70076W        W35061   9.125  13.831  13.705
70077W        W35062   4.316   7.990  13.193
70078W        W35063   0.241  34.138   2.312
70079W        W35064  18.594  14.354  11.153
70080W        W35065  42.090  30.540  13.397
70081W        W35066  21.720  36.834   3.750
70082W        W35067   8.129  40.338  12.990
70083W        W35068  26.251  29.481   1.284
70084W        W35069  32.452  37.459  11.254
70085W        W35070  37.482  19.208   4.888
70086W        W35071   8.338  27.620  11.495
70087W        W35072  33.809  22.668   4.884
70088W        W35073  43.047  19.233   4.410
70089W        W35074  24.788  32.465   4.154
70090W        W35075  15.705  27.111   1.124
70091W        W35076  44.389   1.291   0.301
70092W        W35077  27.587  11.266   4.107
70093W        W35078  19.027  32.410  14.383
70094W        W35079  22.228  30.894  13.057
70095W        W35080   1.216  21.083   1.394
70096W        W35081  34.583  37.319   0.732
70097W        W35082  11.332   3.255   2.470
70098W        W35083  18.515  18.250   1.195
70099W        W35084   3.457  23.187   3.702
70100W        W35085  43.881  20.135   3.109
70101W        W35086  24.262  14.672  13.501
70102W        W35087  10.358  42.352   0.973
70103W        W35088   5.716  29.024   3.260
70104W        W35089  14.483  30.067   2.151
70105W        W35090  42.968  24.929   3.171
70106W        W35091  19.943  39.933  11.685
70107W        W35092  12.157   8.866  11.055
70108W        W35093  30.073  39.027   1.805
70109W        W35094  43.045  43.544   3.079
70110W        W35095   3.169  35.879   2.853
70111W        W35096  38.947  33.428  14.233
70112W        W35097  15.092   4.267   4.403
70113W        W35098   3.013  38.245  11.972
70114W        W35099   8.794  43.941  12.971
70115W        W35100  17.664  30.712  11.601
70116W        W35101  22.650  17.245  12.106
70117W        W35102  43.819  43.003   3.595
70118W        W35103  28.147   5.907   3.689
70119W        W35104   0.802  22.182  10.955
70120W        W35105  14.252  36.652   1.743
70121W        W35106   3.295   6.904   4.574
70122W        W35107  23.076  31.420  13.883
70123W        W35108   6.655   6.199   2.355
70124W        W35109  31.533  28.445  12.464
70125W        W35110  12.352  18.094  13.031
70126W        W35111   9.860  10.382   3.702
70127W        W35112  35.450  19.747  14.853
70128W        W35113   7.334  21.814   3.675
70129W        W35114  36.969  10.451   0.457
70130W        W35115  37.760   2.930   1.606
70131W        W35116   5.854  26.830   2.569
70132W        W35117  20.809  23.336   3.165
70133W        W35118  34.579  37.263  14.449
70134W        W35119  15.572  15.680   3.206
70135W        W35120  23.613  39.433  11.681
70136W        W35121   5.483  29.189   1.283
70137W        W35122   5.113  21.583  11.909
70138W        W35123   4.002  41.802  11.209
70139W        W35124  18.839   0.031   4.438
70140W        W35125   5.721   6.516   4.153
70141W        W35126  20.735   7.463   2.335
70142W        W35127  26.315  43.915   2.201
70143W        W35128  31.155   1.619   4.912
70144W        W35129   6.883  37.790   1.979
70145W        W35130  30.060  41.364  10.445
70146W        W35131   1.494  29.973   2.773
70147W        W35132   1.749  21.547   2.146
70148W        W35133  17.706  16.620   3.607
70149W        W35134   3.634  21.093   3.264
70150W        W35135  16.548   4.808  12.905
70151W        W35136  41.941  10.390   4.401
70152W        W35137   5.157  29.342  11.186
70153W        W35138  13.861  16.690  12.317
70154W        W35139  18.801  22.164   4.139
70155W        W35140  35.543  24.715   0.932
70156W        W35141  10.368   5.846  12.984
70157W        W35142   1.656  37.640   5.126
70158W        W35143  16.242  17.566  12.903
70159W        W35144  42.385  44.082  11.528
70160W        W35145  40.075  22.972  12.938
70161W        W35146  28.387   5.884  14.031
70162W        W35147  17.174  12.346   1.276
70163W        W35148  11.907  14.401  11.862
70164W        W35149  10.633  40.118  14.730
70165W        W35150   6.671  41.432  13.211
70166W        W35151   4.817   9.197   3.232
70167W        W35152  41.025  40.054   3.682
70168W        W35153  38.311  42.868  14.910
70169W        W35154  42.461   7.103   0.973
70170W        W35155  24.281  43.365  12.408
70171W        W35156   1.300  24.737  12.988
70172W        W35157  23.996  22.492  10.610
70173W        W35158  28.432  40.270   2.398
70174W        W35159   2.207  41.629   2.308
70175W        W35160  35.267  20.006   3.753
70176W        W35161  16.564  26.603   3.305
70177W        W35162   0.207  18.276   5.182
70178W        W35163  18.124  22.230   2.861
70179W        W35164  35.996  40.982   2.918
70180W        W35165  40.268  31.595   1.859
70181W        W35166  43.785  44.945  11.708
70182W        W35167  36.168  35.002  11.424
70183W        W35168  40.792  35.470   0.148
70184W        W35169  22.978  13.793  12.439
70185W        W35170  12.438   7.838   3.629
70186W        W35171  32.162   5.896  12.401
70187W        W35172   0.251  43.539  10.648
70188W        W35173  39.174  26.683   1.714
70189W        W35174  10.885  16.070  14.788
70190W        W35175   1.579   4.710  14.018
70191W        W35176   6.648  27.434   2.217
70192W        W35177  18.083  44.526  13.428
70193W        W35178   5.865  43.605   1.772
70194W        W35179  29.998   8.616   1.762
70195W        W35180  27.917   8.856   3.646
70196W        W35181  23.595   4.710   1.357
70197W        W35182  13.926  26.038  10.615
70198W        W35183   0.330  33.514  10.425
70199W        W35184  37.920  29.956  14.115
70200W        W35185  22.047  21.635   1.654
70201W        W35186  29.817   0.136   3.655
70202W        W35187  24.522  35.991  13.476
70203W        W35188  25.069  30.477  11.920
70204W        W35189  18.076  15.902  14.527
70205W        W35190  10.346  20.592  14.463
70206W        W35191  15.023  11.931  14.338
70207W        W35192  21.103  21.602   2.211
70208W        W35193  25.699  15.303   2.755
70209W        W35194   8.805  20.175  12.279
70210W        W35195  34.315  44.812  13.560
70211W        W35196   7.178  24.200   0.824
70212W        W35197   2.235   7.661  12.096
70213W        W35198  36.565  31.545  13.369
70214W        W35199  15.535   3.398   1.615
70215W        W35200  40.811  22.921  12.399
70216W        W35201  31.390  41.864  10.502
70217W        W35202   5.371  43.573   4.142
70218W        W35203  33.975   4.322   3.852
70219W        W35204  24.775  14.551  13.530
70220W        W35205  37.937   4.416  13.890
70221W        W35206  37.346  36.129  11.488
70222W        W35207  33.904  32.579  12.163
70223W        W35208   1.351   4.166   2.816
70224W        W35209  24.522  39.685  12.496
70225W        W35210  30.799  15.647  11.638
70226W        W35211  29.028   6.978  14.416
70227W        W35212  30.486   0.467  13.615
70228W        W35213  14.097  35.810   3.539
70229W        W35214  19.608  23.766  11.893
70230W        W35215   6.118  20.733  13.630
70231W        W35216  11.665   1.261  14.877
70232W        W35217  13.156  27.753  14.547
70233W        W35218   3.770  24.784   2.880
70234W        W35219   6.794  40.600  11.180
70235W        W35220   9.165  25.476  10.836
70236W        W35221  26.914  14.309   1.243
70237W        W35222  44.651  34.058   3.391
70238W        W35223   2.196  44.934   0.531
70239W        W35224  29.390  34.573  11.054
70240W        W35225   3.091  29.376  10.706
70241W        W35226  32.432  37.384  13.039
70242W        W35227  31.634  23.569  10.348
70243W        W35228  21.715   7.007   4.677
70244W        W35229  35.998  36.397   2.321
70245W        W35230  38.351  26.499   3.666
70246W        W35231   6.081  42.208   0.324
70247W        W35232  28.402   7.800  12.998
70248W        W35233   7.380   1.841   4.552
70249W        W35234  34.017  32.911  13.547
70250W        W35235  11.247   1.047  13.064
70251W        W35236  37.014  18.635  14.955
70252W        W35237  29.728   4.180   9.973
70253W        W35238  38.447  22.997  12.507
70254W        W35239  21.298  40.254  11.025
70255W        W35240  34.863   0.731  11.522
70256W        W35241  25.653  32.496  14.209
70257W        W35242  11.805   4.026  11.558
70258W        W35243   0.034  32.757  10.889
70259W        W35244  29.349  18.341   4.408
70260W        W35245  33.369  25.135  14.611
70261W        W35246  26.486  26.493  11.074
70262W        W35247  33.684  26.123  10.817
70263W        W35248  37.482  20.243  14.353
70264W        W35249  38.620   0.462   0.982
70265W        W35250  10.199  16.826   2.221
70266W        W35251  42.462  33.850   2.731
70267W        W35252  19.286  12.627  14.987
70268W        W35253   1.858  35.036   1.347
70269W        W35254  22.760  44.483   0.700
70270W        W35255   3.298  20.183   2.995
70271W        W35256   4.484  35.892  12.584
70272W        W35257   2.485  19.726  14.431
70273W        W35258  40.047  42.901   2.749
70274W        W35259  10.177  23.037  10.763
70275W        W35260  27.419  41.786  12.358
70276W        W35261   5.864  37.382  11.016
70277W        W35262  31.377  41.292  12.990
70278W        W35263  27.016  22.168   3.299
70279W        W35264   2.311  40.151   4.574
70280W        W35265   8.401   0.261  10.708
70281W        W35266   0.407   2.469  10.729
70282W        W35267  43.386  44.238   0.419
70283W        W35268  35.310  38.931   1.298
70284W        W35269  37.585  13.387   4.065
70285W        W35270  26.225  26.613  14.276
70286W        W35271   7.180   1.081   1.859
70287W        W35272   1.945  35.677  14.961
70288W        W35273  38.345  21.327  10.295
70289W        W35274  13.941  19.354   3.909
70290W        W35275   1.548  33.048  14.525
70291W        W35276  12.011  31.715  14.954
70292W        W35277  15.499  44.840   4.116
70293W        W35278   1.679  22.971  10.622
70294W        W35279  24.076  27.230   2.174
70295W        W35280  31.466  17.832  11.205
70296W        W35281  44.305   6.499  10.735
70297W        W35282  11.448  26.917   3.736
70298W        W35283  24.050  35.844   0.278
70299W        W35284   1.501  39.990  10.804
70300W        W35285   7.313  25.716  11.012
70301W        W35286   7.670  38.577  14.839
70302W        W35287   0.524  23.307  11.598
70303W        W35288  17.824   5.564   0.361
70304W        W35289  39.439   0.225  14.800
70305W        W35290  43.166  41.373   2.663
70306W        W35291  30.511  39.337   4.415
70307W        W35292   0.359  26.782  11.020
70308W        W35293  16.331  10.113   3.696
70309W        W35294  26.442  13.078   3.310
70310W        W35295  23.975  38.443  10.720
70311W        W35296  11.626  10.455   4.664
70312W        W35297  28.532  25.188  11.890
70313W        W35298  21.515  30.307  14.462
70314W        W35299  13.230  34.617   0.463
70315W        W35300  33.425  39.384  11.646
70316W        W35301  30.408  15.564   2.126
70317W        W35302  14.211   6.505  14.798
70318W        W35303  37.272   2.774  12.118
70319W        W35304  18.265  38.884   4.186
70320W        W35305  14.400  36.806  14.317
70321W        W35306  42.397  34.862  13.555
70322W        W35307  22.330  39.127  10.038
70323W        W35308  12.751  32.520  14.757
70324W        W35309  43.262  17.709  10.363
70325W        W35310  41.964  12.104  14.228
70326W        W35311   8.118  31.164   1.784
70327W        W35312   4.725  21.520  12.676
70328W        W35313  24.086  20.999  13.482
70329W        W35314  44.901  44.743   2.580
70330W        W35315  15.633  22.613   0.313
70331W        W35316  18.283  31.049  14.565
70332W        W35317  32.162  27.943  11.521
70333W        W35318  23.951  14.584   2.783
70334W        W35319  32.899  15.761   1.687
70335W        W35320  13.220  42.846   2.738
70336W        W35321  21.448  32.379   5.008
70337W        W35322  37.886  13.746   4.255
70338W        W35323  34.159  17.093  12.682
70339W        W35324  20.524  41.907  13.496
70340W        W35325  17.147   6.456  13.379
70341W        W35326  15.091  11.232  14.902
70342W        W35327  29.781  18.451   4.084
70343W        W35328  29.505  19.211   2.129
70344W        W35329  12.945  15.263   1.794
70345W        W35330   0.611  40.591  14.412
70346W        W35331  29.068  13.234   4.351
70347W        W35332  21.790  44.829  13.029
70348W        W35333  12.165  28.114   3.401
70349W        W35334  42.284   6.657  11.378
70350W        W35335  27.273  25.141  12.698
70351W        W35336  32.338  13.935   3.839
70352W        W35337   5.843  23.256   3.377
70353W        W35338  22.506  26.222  13.470
70354W        W35339  19.047   3.938   3.763
70355W        W35340  33.963  44.118  13.607
70356W        W35341  20.282   9.858  12.626
70357W        W35342  21.021  14.824  11.593
70358W        W35343   0.461   3.250   2.816
70359W        W35344  12.650   4.404  12.459
70360W        W35345  42.652   0.238   2.659
70361W        W35346  33.819   5.294  14.575
70362W        W35347  29.398  42.888   0.356
70363W        W35348  38.373  19.450   0.802
70364W        W35349   3.782  35.569  14.725
70365W        W35350  21.704  13.668   4.771
70366W        W35351  35.658  13.051   3.660
70367W        W35352  39.004  29.376   1.873
70368W        W35353  17.432  38.500   2.854
70369W        W35354   5.517  15.330  14.964
70370W        W35355  10.188  38.148  14.371
70371W        W35356  11.410  20.335  13.642
70372W        W35357  41.719  17.075   3.096
70373W        W35358  15.555   5.360  13.540
70374W        W35359  37.145  30.457   2.654
70375W        W35360  34.092  42.703  13.554
70376W        W35361  38.269  32.063  12.617
70377W        W35362  33.004  36.987   2.365
70378W        W35363  33.563  42.994  10.097
70379W        W35364  24.131  41.258  12.518
70380W        W35365  17.362  38.686   5.070
70381W        W35366  23.109   3.265   1.874
70382W        W35367   5.305  42.115  12.836
70383W        W35368  18.451  36.760  13.632
70384W        W35369  32.104  30.774   4.176
70385W        W35370  11.431  31.303   2.241
70386W        W35371  43.809  30.742  12.652
70387W        W35372  42.072   9.361  10.615
70388W        W35373  20.787  25.704  13.328
70389W        W35374  43.750  34.128   2.228
70390W        W35375  44.055   5.672   1.245
70391W        W35376  41.884  37.940  12.039
70392W        W35377  23.177   4.951   2.855
70393W        W35378  35.172  14.494  14.478
70394W        W35379  25.282  33.931  13.047
70395W        W35380  14.581   8.779   0.931
70396W        W35381  30.658  29.496  14.925
70397W        W35382   3.259   2.734  13.010
70398W        W35383  11.453  30.986   2.672
70399W        W35384  43.827   2.420  11.878
70400W        W35385  30.586  35.609  10.494
70401W        W35386  22.687  16.278  10.663
70402W        W35387   6.058   6.886   5.000
70403W        W35388  34.194  11.752  12.058
70404W        W35389  24.251  24.590   1.358
70405W        W35390   2.546  38.417   1.312
70406W        W35391   2.388  36.361   1.313
70407W        W35392   2.463  38.481   2.046
70408W        W35393  22.570   7.534  14.041
70409W        W35394  32.837   2.572   1.429
70410W        W35395  20.400   8.843   1.549
70411W        W35396  35.273  43.188  11.614
70412W        W35397  17.113  38.247   2.513
70413W        W35398  31.556   3.991   3.245
70414W        W35399  30.379  11.248  11.473
70415W        W35400   0.358  39.645   1.165
70416W        W35401  34.718  22.820   3.815
70417W        W35402  16.663  29.746  13.035
70418W        W35403  39.419  15.849   1.913
70419W        W35404  29.934  19.268  11.182
70420W        W35405  30.517   0.225  11.006
70421W        W35406  25.519  20.106   0.909
70422W        W35407  42.408  17.734  12.180
70423W        W35408   8.550  28.267  12.015
70424W        W35409  30.432   7.760  11.766
70425W        W35410   0.415  31.731   1.405
70426W        W35411  33.057  31.401  14.399
70427W        W35412  26.698   9.324   0.469
70428W        W35413  21.803   9.826   2.710
70429W        W35414  27.664  32.695   0.672
70430W        W35415  21.051  21.269   4.085
70431W        W35416  25.233  24.112  14.401
70432W        W35417   4.981  31.685  11.051
70433W        W35418  43.934   5.964  14.431
70434W        W35419  17.959  39.953  11.228
70435W        W35420   1.677  31.838  10.363
70436W        W35421   2.355   7.074   0.959
70437W        W35422  44.505  44.376  12.020
70438W        W35423   8.467  26.281   3.185
70439W        W35424  26.980  35.945   4.297
70440W        W35425  31.404  41.689  12.003
70441W        W35426  36.051  41.460   2.351
70442W        W35427  34.281  38.129   4.061
70443W        W35428  22.256   6.615   0.788
70444W        W35429  33.335   6.771  11.784
70445W        W35430   3.225  43.937  10.613
70446W        W35431  23.909   1.680   4.814
70447W        W35432  26.028   6.726   0.418
70448W        W35433  42.075  15.236   3.619
70449W        W35434  27.663   6.692  13.411
70450W        W35435  19.850  29.488  13.066
70451W        W35436  25.969  28.646   1.351
70452W        W35437  40.314  32.613   0.789
70453W        W35438  23.077  43.759  14.237
70454W        W35439   4.544  19.072  11.997
70455W        W35440  13.994  24.548  12.934
70456W        W35441  34.634  14.083  11.106
70457W        W35442  25.718  28.459   1.757
70458W        W35443  10.460  32.572  14.427
70459W        W35444   0.626  14.838   3.692
70460W        W35445   4.052   6.504  12.560
70461W        W35446  24.255  11.342  12.901
70462W        W35447  40.648  15.069   4.454
70463W        W35448  35.026   8.647  14.717
70464W        W35449  15.534  43.554  10.092
70465W        W35450   6.284  11.874  13.565
70466W        W35451  29.466  41.576  14.317
70467W        W35452  35.935  18.181  12.002
70468W        W35453  24.461  15.215  12.664
70469W        W35454   1.664  26.580   2.525
70470W        W35455  26.711  38.849   4.084
70471W        W35456   8.782  40.102  14.788
70472W        W35457  33.015  39.949   1.880
70473W        W35458  22.926  42.889   2.188
70474W        W35459  32.975  19.638   0.774
70475W        W35460  27.627  31.479  11.582
70476W        W35461   8.101  20.139   2.095
70477W        W35462   0.718  15.278  14.443
70478W        W35463   3.478  40.500  13.947
70479W        W35464   0.829  38.053  11.580
70480W        W35465  14.331  31.900   4.061
70481W        W35466  39.802  20.897  12.485
70482W        W35467  11.776  23.498  12.651
70483W        W35468  28.889  38.569   0.901
70484W        W35469  34.585  23.326  14.229
70485W        W35470  41.716  22.022  12.341
70486W        W35471  19.785  34.456  12.980
70487W        W35472  19.035  29.968  12.139
70488W        W35473  36.858  36.772  11.982
70489W        W35474  34.005   9.309  11.194
70490W        W35475  32.646  28.584   4.351
70491W        W35476  25.572  35.811   3.683
70492W        W35477  26.206  42.210  11.000
70493W        W35478   2.300  34.965   4.019
70494W        W35479   5.366   0.832   0.366
70495W        W35480  10.303  43.736  12.101
70496W        W35481  11.016   6.956   9.682
70497W        W35482  24.972   0.653   4.682
70498W        W35483  21.800  23.278  12.861
70499W        W35484   0.914   3.557   1.676
70500W        W35485  15.069  43.336   3.779
70501W        W35486  16.728   8.203  14.054
70502W        W35487  37.954  21.012   1.278
70503W        W35488  23.763  39.492   1.466
70504W        W35489  26.104   1.459  13.858
70505W        W35490  37.649  26.516  12.487
70506W        W35491  33.662  37.925  12.006
70507W        W35492   6.839  11.332   3.102
70508W        W35493  35.518  18.325   4.769
70509W        W35494  28.229  43.637  14.339
70510W        W35495  11.934   2.772   2.656
70511W        W35496  26.475   3.731  14.711
70512W        W35497  18.800  25.935   0.829
70513W        W35498  37.741  42.240   2.024
70514W        W35499  38.468  15.772   2.844
70515W        W35500  15.114   7.743  13.116
70516W        W35501  31.578  11.165  12.041
70517W        W35502  17.866  20.372   0.403
70518W        W35503  15.076  20.606   0.371
70519W        W35504   1.849   2.745  10.422
70520W        W35505  28.370  28.262  12.000
70521W        W35506  21.301   6.408   0.267
70522W        W35507  29.453  44.716   1.861
70523W        W35508  24.976  43.468  10.729
70524W        W35509  39.174  11.572  10.717
70525W        W35510  26.022   2.295   0.780
70526W        W35511  24.968  25.394  12.989
70527W        W35512  24.670  16.519  13.038
70528W        W35513   1.123  33.404   4.107
70529W        W35514  25.285  23.375   3.330
70530W        W35515  34.998  13.739  10.326
70531W        W35516  29.701   8.435  12.054
70532W        W35517  30.474   5.748   4.630
70533W        W35518  17.000   1.016  11.520
70534W        W35519  41.303  32.570   3.818
70535W        W35520  35.836  24.951   0.536
70536W        W35521  32.633   7.133   3.494
70537W        W35522  43.552   5.479   3.974
70538W        W35523  21.510   0.763   3.660
70539W        W35524  30.774  29.936  13.886
70540W        W35525  23.659   0.792  12.566
70541W        W35526   7.439  21.798   0.823
70542W        W35527   3.012  37.155  12.047
70543W        W35528   1.897  21.084  14.948
70544W        W35529  32.543  36.456  14.884
70545W        W35530  35.036   9.786   5.359
70546W        W35531  11.885   4.637   1.273
70547W        W35532   2.794  37.357  14.526
70548W        W35533  26.951   6.526   2.490
70549W        W35534  10.925  37.932  14.472
70550W        W35535  36.831  37.563  12.494
70551W        W35536   3.134   3.745  14.295
70552W        W35537   0.244  12.129   1.451
70553W        W35538  25.126  34.925   0.747
70554W        W35539  38.397  19.513  11.461
70555W        W35540  32.587  33.328   3.313
70556W        W35541   6.624  20.945   0.786
70557W        W35542  23.693  40.295  13.439
70558W        W35543   8.749  30.371   0.830
70559W        W35544  28.613  21.735   4.132
70560W        W35545   5.136  33.955   4.051
70561W        W35546  39.715  20.741  11.662
70562W        W35547  43.385  43.479  14.882
70563W        W35548  35.599  17.168   0.236
70564W        W35549   4.563   8.792   9.782
70565W        W35550  11.091   8.442   0.250
70566W        W35551   0.010  43.010   4.058
70567W        W35552   9.178  23.755   1.061
70568W        W35553   6.812  28.950   0.352
70569W        W35554  17.775   7.516   4.094
70570W        W35555  25.672  15.793   0.884
70571W        W35556  32.935   4.039  14.314
70572W        W35557  12.227  32.585   1.003
70573W        W35558  20.132  31.801   1.319
70574W        W35559   3.296  39.064   1.820
70575W        W35560  26.278  33.773  11.946
70576W        W35561  27.403  21.348  12.066
70577W        W35562  33.026  21.380   4.769
70578W        W35563  10.685   2.418  11.157
70579W        W35564  19.575  28.322  10.053
70580W        W35565  25.576  10.619   0.834
70581W        W35566  25.694  42.004   1.770
70582W        W35567  35.848   6.016   3.783
70583W        W35568  31.015  25.533   2.791
70584W        W35569  10.839  36.973   4.638
70585W        W35570  22.119   5.258   3.342
70586W        W35571  23.134  39.962   2.675
70587W        W35572  19.787  29.383  11.659
70588W        W35573   8.034  41.276  12.972
70589W        W35574  14.593  39.132   0.439
70590W        W35575  17.734  37.862  12.013
70591W        W35576  37.012  20.696   2.672
70592W        W35577  44.302  14.502  10.319
70593W        W35578   0.556  34.932   1.794
70594W        W35579  36.849  31.086  10.659
70595W        W35580   3.993  30.020   1.150
70596W        W35581   5.231  32.906  10.639
70597W        W35582   6.822  38.868   1.465
70598W        W35583  31.336  21.997  10.734
70599W        W35584  28.594  19.625   0.858
70600W        W35585  32.650  40.147  14.095
70601W        W35586  10.771  11.340   4.757
70602W        W35587   5.474  19.302   2.792
70603W        W35588   7.475  16.007   4.669
70604W        W35589   9.865  14.347  11.209
70605W        W35590  17.778   4.640  13.585
70606W        W35591   1.235   9.676  11.611
70607W        W35592  23.061  40.862  13.511
70608W        W35593  12.659  17.615  12.551
70609W        W35594  38.809   0.188   0.405
70610W        W35595   9.333  23.762   2.027
70611W        W35596  27.644  43.080  12.882
70612W        W35597  19.562  24.977  11.993
70613W        W35598   3.612  24.719   2.375
70614W        W35599  17.703   1.920   2.249
70615W        W35600  15.614  22.404   4.657
70616W        W35601  15.670   8.209   3.658
70617W        W35602  37.396   2.393  11.057
70618W        W35603  20.073  34.945   0.732
70619W        W35604  38.894   7.809  11.077
70620W        W35605  17.352   4.538  11.926
70621W        W35606  12.052  35.051   0.871
70622W        W35607  29.776  14.906   4.305
70623W        W35608  38.045  32.474  12.201
70624W        W35609  22.935  31.171   3.984
70625W        W35610  30.133  40.386  14.292
70626W        W35611  17.054  26.771   3.389
70627W        W35612   0.179   8.109  11.150
70628W        W35613  12.091   6.245   5.020
70629W        W35614  27.080  44.049   1.737
70630W        W35615  33.137  11.787   3.167
70631W        W35616  36.882  25.994  10.524
70632W        W35617  14.313  33.826  10.734
70633W        W35618   9.746  14.812  11.420
70634W        W35619  20.623  38.518  10.415
70635W        W35620   5.341  16.617   3.866
70636W        W35621  19.149  29.535  13.255
70637W        W35622  21.047   8.529  12.636
70638W        W35623  26.958  18.546  11.580
70639W        W35624  15.078  33.597   3.831
70640W        W35625  12.272  31.217   0.858
70641W        W35626   9.772   6.291  10.128
70642W        W35627   8.112  44.868   3.621
70643W        W35628  30.070   4.667  11.114
70644W        W35629  24.145  16.024  14.839
70645W        W35630  21.702   1.507  13.793
70646W        W35631  32.432  26.913  10.801
70647W        W35632   8.605  18.604  10.831
70648W        W35633  38.821  33.293   4.160
70649W        W35634   8.075  16.712  13.248
70650W        W35635  34.552  32.741   0.872
70651W        W35636  41.498   0.843  13.175
70652W        W35637   9.344   3.315   2.090
70653W        W35638  39.979  10.715  13.582
70654W        W35639  42.624  27.420   1.737
70655W        W35640  13.109   9.068  11.432
70656W        W35641  29.961  32.822  10.272
70657W        W35642  25.772   7.806   0.061
70658W        W35643  43.519  43.819  11.040
70659W        W35644  26.631   3.420   2.385
70660W        W35645  24.531   8.806  13.812
70661W        W35646  28.700  18.914   1.213
70662W        W35647  22.715  30.589   2.172
70663W        W35648  42.416   0.327   1.238
70664W        W35649   4.217  12.835   3.144
70665W        W35650   2.694  15.430  10.839
70666W        W35651   9.960   7.410  12.106
70667W        W35652  17.092  31.139  11.048
70668W        W35653  25.147  18.770  12.914
70669W        W35654   8.862  34.915  10.693
70670W        W35655  21.251  23.970  11.573
70671W        W35656  26.930  18.612  14.313
70672W        W35657  14.222   4.936  13.350
70673W        W35658   4.970  37.779  12.413
70674W        W35659  24.766   8.163   0.363
70675W        W35660  37.603  24.136  10.567
70676W        W35661  38.104  16.234  12.015
70677W        W35662  27.788   9.677  14.362
70678W        W35663   4.822   5.181  11.614
70679W        W35664  27.134  29.463  13.311
70680W        W35665   7.179  35.871   0.872
70681W        W35666  19.518  33.688   0.330
70682W        W35667  24.007   1.723  14.507
70683W        W35668  36.860  24.940   1.069
70684W        W35669  13.334  30.808  11.973
70685W        W35670  38.810  28.147   0.285
70686W        W35671  18.231  39.016   1.707
70687W        W35672   5.374   9.104  12.221
70688W        W35673  11.688  34.091   1.277
70689W        W35674   6.154   1.361   4.332
70690W        W35675   0.709  36.456   1.439
70691W        W35676   9.785  31.203   3.283
70692W        W35677   0.970  25.293  11.820
70693W        W35678  33.619   1.551  12.714
70694W        W35679  21.072  15.098   0.419
70695W        W35680  23.470  16.678   0.480
70696W        W35681  29.795  41.425   4.642
70697W        W35682  44.993   0.394   4.669
70698W        W35683  12.486  20.340   2.735
70699W        W35684   5.871  38.045   2.383
70700W        W35685  23.116  28.509   1.627
70701W        W35686   6.243   6.891   0.647
70702W        W35687  39.033  37.086  11.620
70703W        W35688  15.191  12.184   2.422
70704W        W35689  32.610  34.850  11.105
70705W        W35690  31.127  39.997   2.342
70706W        W35691  21.095  37.951  13.860
70707W        W35692  26.698   6.975  13.140
70708W        W35693  12.087  16.955  12.376
70709W        W35694   7.252   5.614  11.609
70710W        W35695  30.493  17.667  14.195
70711W        W35696  30.633  21.326   1.497
70712W        W35697  20.752  21.826   2.819
70713W        W35698  17.339   9.748  11.053
70714W        W35699  39.344  35.374   1.778
70715W        W35700  17.223  32.147   0.509
70716W        W35701  31.536  32.571   1.848
70717W        W35702  31.951   2.225  13.139
70718W        W35703   5.846  14.581  11.469
70719W        W35704  20.567  28.845   4.504
70720W        W35705  32.854  43.860   3.993
70721W        W35706  17.213  23.536   1.304
70722W        W35707  25.579  23.182  14.009
70723W        W35708  22.068  24.163   3.701
70724W        W35709  21.861  29.632  14.946
70725W        W35710  22.989   3.326  14.970
70726W        W35711  31.103  43.351  13.515
70727W        W35712  24.865   8.952  13.210
70728W        W35713  33.067  13.083   0.339
70729W        W35714  41.839   6.844   1.315
70730W        W35715   9.824  30.732  11.018
70731W        W35716  29.036  11.697  11.897
70732W        W35717   3.222  15.177   0.343
70733W        W35718   9.656  11.964   4.564
70734W        W35719  26.412  33.607   2.839
70735W        W35720  25.920  44.823   4.107
70736W        W35721  34.614  43.273   2.669
70737W        W35722  20.492  11.342   4.780
70738W        W35723   5.941  11.579   2.450
70739W        W35724   8.502  24.660  13.308
70740W        W35725  23.867  24.047   0.568
70741W        W35726  26.977  29.359  14.184
70742W        W35727   9.979   1.704   0.780
70743W        W35728   1.622  10.529   1.814
70744W        W35729  11.689  32.992   1.723
70745W        W35730  42.370  29.617   0.791
70746W        W35731   2.462   3.357  14.927
70747W        W35732  42.838  11.417  10.282
70748W        W35733  38.975  33.540  11.122
70749W        W35734  22.606   2.823   2.347
70750W        W35735  17.238  32.182   1.044
70751W        W35736  20.274  17.327   4.234
70752W        W35737  39.142  38.683  14.476
70753W        W35738  19.762   8.853  13.983
70754W        W35739   3.792  26.721  12.962
70755W        W35740  40.113   0.690   2.054
70756W        W35741  38.505  22.784  11.216
70757W        W35742  14.555  18.492  14.236
70758W        W35743  16.171  17.556  12.398
70759W        W35744   8.141  33.760  13.643
70760W        W35745  12.421  36.301  14.781
70761W        W35746  20.837  34.346  12.818
70762W        W35747  24.248   6.776  14.841
70763W        W35748  26.457  10.636  11.552
70764W        W35749  13.271  14.370  13.382
70765W        W35750  26.470  21.661   0.013
70766W        W35751   9.422  36.974   4.608
70767W        W35752  37.044  37.554  12.980
70768W        W35753  38.989  33.879  11.519
70769W        W35754  44.839  42.079  13.758
70770W        W35755  40.249   4.178   3.750
70771W        W35756  40.646  19.999   0.386
70772W        W35757  40.043  17.385   1.315
70773W        W35758   2.409   2.766   2.834
70774W        W35759  15.540   0.517  13.117
70775W        W35760   8.104  18.764  10.830
70776W        W35761  16.724   5.825   3.966
70777W        W35762  37.971  25.448  14.419
70778W        W35763  38.425  44.203   3.093
70779W        W35764  41.786  42.374  13.482
70780W        W35765  28.013  30.646  14.668
70781W        W35766  12.816  34.873  14.311
70782W        W35767  12.846  11.236  13.049
70783W        W35768  43.756  35.791   0.825
70784W        W35769  16.457  11.125   2.850
70785W        W35770  21.682  26.463   4.474
70786W        W35771  27.222  12.013   2.696
70787W        W35772  23.769  27.578   4.013
70788W        W35773  16.532   2.927   3.201
70789W        W35774  43.947  15.751  14.980
70790W        W35775  31.374   4.218   3.681
70791W        W35776  10.216  23.784   3.410
70792W        W35777  37.516  18.137  14.495
70793W        W35778  15.261  34.751  12.992
70794W        W35779  26.652  43.587  11.157
70795W        W35780  39.391  33.128  13.822
70796W        W35781  25.178  41.880   4.577
70797W        W35782  36.031  24.231  11.097
70798W        W35783  38.883   5.129  14.829
70799W        W35784  11.441  29.923   1.836
70800W        W35785  38.549  28.933   4.083
70801W        W35786  12.262  41.823  13.262
70802W        W35787  23.522  30.885  12.497
70803W        W35788  34.458  12.534  13.755
70804W        W35789  25.076  42.612  12.921
70805W        W35790  24.489  23.492   4.142
70806W        W35791  32.168   9.348   1.855
70807W        W35792  34.272  26.190   3.132
70808W        W35793  13.707  34.686   0.252
70809W        W35794  26.249  18.879  10.473
70810W        W35795   5.182  44.874  14.948
70811W        W35796  41.865  17.810   0.458
70812W        W35797  27.009  13.752  10.752
70813W        W35798  44.987  27.184  10.927
70814W        W35799  29.576  16.551  14.937
70815W        W35800  11.879  22.623  11.235
70816W        W35801   2.873  39.387  10.670
70817W        W35802  38.973  42.299   1.177
70818W        W35803  37.190  43.573   1.865
70819W        W35804  28.906  15.179   2.026
70820W        W35805  44.989  25.203   1.809
70821W        W35806  38.510  14.311   4.580
70822W        W35807   0.356  22.757   2.648
70823W        W35808   9.865  31.517  10.718
70824W        W35809  28.897  23.638   2.781
70825W        W35810   4.303  33.345   1.781
70826W        W35811  13.009  41.323  10.715
70827W        W35812  18.720  15.503  13.520
70828W        W35813  23.751  42.525  14.452
70829W        W35814  30.862  38.679   1.590
70830W        W35815  15.131  27.137  13.148
70831W        W35816  24.260  32.798  12.908
70832W        W35817  37.549  22.208   3.147
70833W        W35818  34.468  35.041   0.947
70834W        W35819  13.864  19.082  14.861
70835W        W35820  15.279  35.084  10.694
70836W        W35821   4.855  10.069   4.744
70837W        W35822  22.043   9.285  13.861
70838W        W35823  34.134  25.919   0.246
70839W        W35824  42.160   0.221  12.282
70840W        W35825  19.099   1.176  11.956
70841W        W35826  37.604   5.307  12.436
70842W        W35827   0.836  41.221   3.799
70843W        W35828   8.668  10.653  14.427
70844W        W35829  18.657   5.480  12.948
70845W        W35830  16.018  29.985  11.684
70846W        W35831  25.061  41.055   2.797
70847W        W35832  35.934  25.943  10.497
70848W        W35833  28.711   4.298  11.735
70849W        W35834  44.554  14.238  10.699
70850W        W35835  14.492  12.189   2.997
70851W        W35836  22.313  16.835   5.094
70852W        W35837  21.529  30.860   0.186
70853W        W35838  28.767  22.754  10.938
70854W        W35839  21.349  33.991  11.547
70855W        W35840  21.685   7.821  10.689
70856W        W35841  30.108  18.173  12.039
70857W        W35842  28.014  14.059  11.537
70858W        W35843  37.466  30.464  10.977
70859W        W35844  44.897  23.617   2.725
70860W        W35845   6.295  26.067  14.117
70861W        W35846  35.325  33.643   2.613
70862W        W35847   0.033  19.234   4.893
70863W        W35848   3.483  11.377  11.623
70864W        W35849  15.793  25.080   3.418
70865W        W35850   0.363  13.986  11.899
70866W        W35851  38.090   3.783   3.884
70867W        W35852   9.405  12.312   4.250
70868W        W35853  14.219  40.890   2.288
70869W        W35854  34.911   1.253  11.641
70870W        W35855  32.714   5.209  14.924
70871W        W35856   7.395  42.839   2.280
70872W        W35857  33.566  11.371   0.975
70873W        W35858  16.826  30.650   4.261
70874W        W35859   7.444  14.077  14.565
70875W        W35860  16.413  19.506   4.933
70876W        W35861  27.339  18.874  14.095
70877W        W35862   1.761   9.354   2.772
70878W        W35863  37.796  37.167  12.126
70879W        W35864  37.850  11.258   0.126
70880W        W35865  27.329  11.250  11.947
70881W        W35866  21.074  29.630   2.389
70882W        W35867  15.939  15.132  13.728
70883W        W35868  43.877  21.789   1.876
70884W        W35869  33.420   2.288  11.989
70885W        W35870  22.685  10.342   3.627
70886W        W35871  12.243  20.627  12.753
70887W        W35872  42.498  18.393  14.305
70888W        W35873  16.594  11.818   1.682
70889W        W35874  11.097   1.975   3.695
70890W        W35875  22.255   4.009  14.819
70891W        W35876  15.998  19.631   3.177
70892W        W35877   2.404  39.169  10.681
70893W        W35878  42.130  43.059  14.026
70894W        W35879  38.430  23.293  11.162
70895W        W35880  42.730   4.393  11.679
70896W        W35881  23.146  11.404   0.319
70897W        W35882  12.182   0.401  13.123
70898W        W35883  33.818  26.939   0.455
70899W        W35884  24.976  15.025  14.858
70900W        W35885  11.195  23.831   0.783
70901W        W35886  28.136   9.926   2.241
70902W        W35887  28.375  27.660   1.926
70903W        W35888   4.892  22.066  13.547
70904W        W35889  40.451  44.220   1.499
70905W        W35890  15.678  25.734  10.497
70906W        W35891   2.351  19.830   2.072
70907W        W35892  31.437  14.850  13.793
70908W        W35893  16.039  36.895   0.548
70909W        W35894   7.221  26.720  12.642
70910W        W35895   0.819  40.632   1.288
70911W        W35896  15.658  41.167  11.188
70912W        W35897   5.482  20.327   1.361
70913W        W35898  15.238  13.197   3.626
70914W        W35899  25.235   2.971   0.770
70915W        W35900  31.086  41.081   0.010
70916W        W35901  37.521  13.292   0.619
70917W        W35902  11.660  29.613   3.001
70918W        W35903  40.724   1.743   3.980
70919W        W35904  37.301  36.093   2.910
70920W        W35905  43.183  21.873   2.178
70921W        W35906  27.490  24.866   2.715
70922W        W35907  19.306  11.638  10.386
70923W        W35908  22.672  42.086  14.734
70924W        W35909  44.012  30.927   4.178
70925W        W35910  37.615  42.113  14.480
70926W        W35911  44.952  16.042  10.736
70927W        W35912  14.587  37.040  10.879
70928W        W35913  19.611  14.932  10.581
70929W        W35914  42.853  41.260   1.916
70930W        W35915  24.644  29.871  14.310
70931W        W35916   1.953  31.926  14.359
70932W        W35917  34.944  40.868   2.074
70933W        W35918  38.988  40.941  11.852
70934W        W35919  23.006  43.956   3.250
70935W        W35920  10.826  26.143   2.882
70936W        W35921   8.241  21.436  14.793
70937W        W35922  14.560   8.228  14.376
70938W        W35923  11.615  19.994  13.976
70939W        W35924  28.253  32.860  11.398
70940W        W35925  35.788  30.066   4.935
70941W        W35926  12.705  13.289   3.256
70942W        W35927  40.379  31.867  12.644
70943W        W35928  38.580  44.445  11.437
70944W        W35929  33.572  35.561   0.277
70945W        W35930  41.684  21.174   3.125
70946W        W35931  43.466  35.019  12.326
70947W        W35932  15.593   2.508   3.178
70948W        W35933  24.227  22.265  12.492
70949W        W35934  11.267  30.202  12.090
70950W        W35935   2.626   3.825  14.693
70951W        W35936  34.607  37.771  12.007
70952W        W35937   7.173   6.262  10.469
70953W        W35938  15.312  32.683   0.227
70954W        W35939  32.579  26.735  13.473
70955W        W35940  44.725  10.654  13.841
70956W        W35941  40.146   7.088  13.631
70957W        W35942  29.710  38.347  13.409
70958W        W35943  27.622   3.114   3.645
70959W        W35944  16.041  33.883  12.711
70960W        W35945   1.640  35.806  14.523
70961W        W35946   9.836   4.331  14.928
70962W        W35947  12.195  35.909   0.681
70963W        W35948  31.136  12.782   3.953
70964W        W35949  20.095  30.975   3.683
70965W        W35950   3.200   4.219  13.956
70966W        W35951  22.785  14.311   3.289
70967W        W35952  31.875  22.060   1.175
70968W        W35953  11.895   4.165   0.487
70969W        W35954   8.149  31.041  13.576
70970W        W35955  12.266  31.984  13.629
70971W        W35956   2.351  20.737  13.571
70972W        W35957   4.768   4.401  10.577
70973W        W35958   2.699  43.750   3.268
70974W        W35959  33.861  34.903   3.595
70975W        W35960  11.665  37.493   0.030
70976W        W35961  27.442  32.700   4.114
70977W        W35962  38.226  33.431  12.590
70978W        W35963   2.474  21.919  14.890
70979W        W35964  38.786  29.604   3.676
70980W        W35965   1.831  25.745   2.736
70981W        W35966  13.271   8.245  10.994
70982W        W35967  13.264  16.221  11.601
70983W        W35968  12.910   1.248   4.498
70984W        W35969  44.096  21.562   0.002
70985W        W35970  27.720   5.597  14.839
70986W        W35971  31.362  13.645  10.881
70987W        W35972  13.891  41.567  10.965
70988W        W35973  14.698  17.005   0.460
70989W        W35974   8.273  26.166  11.688
70990W        W35975  35.981  16.757   4.089
70991W        W35976   2.450   8.672  11.129
70992W        W35977   3.311  35.013   1.783
70993W        W35978   4.676   8.343  13.005
70994W        W35979  43.104  10.234   0.453
70995W        W35980   2.046  25.516  12.720
70996W        W35981  17.772   3.769  12.039
70997W        W35982   3.646  19.707  11.475
70998W        W35983   5.323  31.145   4.793
70999W        W35984  19.160  31.418  12.605
71000W        W35985  12.572  25.274  11.163
71001W        W35986  39.982  29.610  14.043
71002W        W35987  22.936  34.467   1.271
71003W        W35988  36.372  25.147  13.819
71004W        W35989  11.230  22.621   4.520
71005W        W35990  29.470  31.981   2.971
71006W        W35991  23.533  37.378   3.843
71007W        W35992  27.676   8.410   0.138
71008W        W35993  42.603  16.395  13.503
71009W        W35994  12.899   4.227   4.598
71010W        W35995   3.504  32.576  11.499
71011W        W35996  17.601  23.581   0.367
71012W        W35997  33.520  31.617   4.628
71013W        W35998  23.430  22.805   1.238
71014W        W35999   0.968   5.082   0.059
71015W        W36000   3.380  23.531  12.555
71016W        W36001  20.186   2.232  11.674
71017W        W36002  34.366   0.372   2.490
71018W        W36003  41.015  20.477  10.678
71019W        W36004  25.452  28.674   1.331
71020W        W36005  35.785  27.534   0.867
71021W        W36006  38.105  41.071  12.365
71022W        W36007  36.405  39.402  13.829
71023W        W36008  35.929  38.664  10.930
71024W        W36009  23.592  12.209  10.635
71025W        W36010  16.646  24.298   1.336
71026W        W36011   7.785   1.419  12.832
71027W        W36012  18.861  34.609  13.550
71028W        W36013  25.981  16.003  13.423
71029W        W36014  15.940  23.807  11.026
71030W        W36015   2.771  22.112   0.773
71031W        W36016  44.162  37.525   0.352
71032W        W36017  44.750  44.535  13.291
71033W        W36018  26.073  32.141  11.170
71034W        W36019  23.968  35.329  11.515
71035W        W36020   0.777  12.723  14.020
71036W        W36021  40.345  37.509   3.067
71037W        W36022  35.782  38.266  14.768
71038W        W36023  26.708  21.663   4.230
71039W        W36024  19.609  32.020  13.154
71040W        W36025  10.812  12.742  13.089
71041W        W36026  11.106  31.276  12.874
71042W        W36027  34.894  43.488   4.282
71043W        W36028  14.234   4.422   3.410
71044W        W36029   1.254  12.789  14.833
71045W        W36030  17.128  32.871  13.334
71046W        W36031  33.905   6.771   4.479
71047W        W36032  16.063  12.139   4.996
71048W        W36033  34.032  28.521  10.674
71049W        W36034  10.442  10.756  14.726
71050W        W36035  36.323  31.334   0.003
71051W        W36036   1.462   1.458  12.425
71052W        W36037   9.380  29.398   2.180
71053W        W36038   9.706   9.914  12.580
71054W        W36039  35.793  19.938  11.071
71055W        W36040   6.665   5.983  14.301
71056W        W36041  27.069  42.714   1.954
71057W        W36042  31.026  41.290  14.524
71058W        W36043  36.381   4.065  10.683
71059W        W36044  21.237  30.600  11.615
71060W        W36045   2.673   9.488  13.482
71061W        W36046  18.043  22.969   1.412
71062W        W36047  34.439  44.053   3.232
71063W        W36048  31.672  41.837   2.380
71064W        W36049  12.790   9.778   1.307
71065W        W36050  36.968  21.765  14.527
71066W        W36051  17.009  29.520   3.080
71067W        W36052  22.673   3.328  11.069
71068W        W36053   4.894  19.444  11.972
71069W        W36054  20.689  11.635  11.981
71070W        W36055   8.315  18.736  13.002
71071W        W36056  24.094  28.224  11.172
71072W        W36057  12.698   2.941   1.908
71073W        W36058  44.787  21.017   3.259
71074W        W36059  26.111  26.739   3.629
71075W        W36060   2.609  29.374  12.070
71076W        W36061   6.179  23.682  11.189
71077W        W36062   4.874  16.573  12.618
71078W        W36063   0.980  35.546  13.097
71079W        W36064  21.155  32.751  10.824
71080W        W36065  22.226  33.973   0.719
71081W        W36066  19.057  21.124   0.263
71082W        W36067   6.846   3.365  11.534
71083W        W36068  33.066  15.089  13.191
71084W        W36069   1.352   0.989  12.611
71085W        W36070  11.545  30.638  14.901
71086W        W36071  18.565   3.371  13.083
71087W        W36072  19.032   0.461   2.798
71088W        W36073   4.443  13.175   4.840
71089W        W36074  23.630   6.192   0.323
71090W        W36075  14.388  22.751   1.821
71091W        W36076  13.479   4.767  13.803
71092W        W36077  12.724  34.509   4.660
71093W        W36078   8.809  29.939  10.672
71094W        W36079  28.714  33.387  13.531
71095W        W36080  12.486  36.717   0.730
71096W        W36081  34.501  34.366   4.071
71097W        W36082   2.257  27.431  13.505
71098W        W36083   4.825  10.027   1.745
71099W        W36084  38.637  12.144   1.657
71100W        W36085   6.583  15.119   4.164
71101W        W36086  17.849  33.087   2.854
71102W        W36087  23.983   4.655  11.372
71103W        W36088  29.320  39.366  14.847
71104W        W36089  40.492   4.383  11.186
71105W        W36090  18.675  37.989  13.622
71106W        W36091  11.651  27.069   2.823
71107W        W36092  41.762  19.176   0.248
71108W        W36093  27.472  10.308   3.097
71109W        W36094   1.671  30.097   0.847
71110W        W36095  12.718   1.755   3.202
71111W        W36096   8.375  22.027   1.333
71112W        W36097   2.311  32.550  10.697
71113W        W36098  18.348  44.905   4.559
71114W        W36099  29.408  14.177   1.232
71115W        W36100  37.012  33.107   2.222
71116W        W36101  23.140  33.431  13.835
71117W        W36102  40.335  22.316   0.767
71118W        W36103   8.149  22.693  12.920
71119W        W36104  23.667  20.312  11.616
71120W        W36105  35.560  38.031  11.169
71121W        W36106  16.570  21.082   3.118
71122W        W36107  13.725  11.034  11.251
71123W        W36108  26.669  22.639  11.235
71124W        W36109  31.696  21.659   3.295
71125W        W36110  16.258   5.288   0.988
71126W        W36111  38.268  35.087   3.716
71127W        W36112  19.849  24.127  12.143
71128W        W36113  18.718   0.418   0.058
71129W        W36114  28.289  38.048   4.874
71130W        W36115  23.861   4.141   0.366
71131W        W36116   4.931   1.942  10.917
71132W        W36117  23.986  38.910  12.489
71133W        W36118  24.935  17.297  12.825
71134W        W36119  27.320   4.348   2.410
71135W        W36120  39.572  13.797   1.907
71136W        W36121  23.115   0.150   2.285
71137W        W36122  17.729  23.699  11.537
71138W        W36123  33.103  11.199   1.913
71139W        W36124  12.613  28.117   2.555
71140W        W36125  10.291  35.771   4.199
71141W        W36126  24.838  19.075   3.250
71142W        W36127  33.313  20.535  14.325
71143W        W36128  42.949  25.685   0.935
71144W        W36129  42.447  32.960   0.893
71145W        W36130  10.641  25.360   4.654
71146W        W36131   0.253  19.180   3.639
71147W        W36132  11.885  43.020   2.659
71148W        W36133  35.460  19.348  13.435
71149W        W36134   9.279  14.189   3.523
71150W        W36135   0.414  38.617  13.274
71151W        W36136  43.367  27.744  13.265
71152W        W36137  11.353  12.802   2.437
71153W        W36138  40.357  44.614  13.798
71154W        W36139  41.060  30.717  11.970
71155W        W36140   3.452  27.438   3.241
71156W        W36141  24.781  40.967  13.085
71157W        W36142  18.142   0.899  14.540
71158W        W36143  30.931  20.957   2.233
71159W        W36144  15.569  35.156  11.107
71160W        W36145  22.793  15.240   2.558
71161W        W36146  12.824  23.074   4.038
71162W        W36147   4.617  40.937   4.594
71163W        W36148   3.429  30.849  11.564
71164W        W36149   0.408  33.417  14.798
71165W        W36150  30.598  31.934   0.656
71166W        W36151  16.752  44.785   2.293
71167W        W36152   6.804   0.311   3.228
71168W        W36153  11.729  13.628  14.952
71169W        W36154  28.041   8.723  12.059
71170W        W36155  14.158  13.601   1.239
71171W        W36156   2.870  25.449  13.314
71172W        W36157   2.684  39.869  12.092
71173W        W36158  32.094   2.254   2.749
71174W        W36159  18.610  10.654   0.057
71175W        W36160   0.178  38.923  14.744
71176W        W36161  11.128   5.458   5.013
71177W        W36162   4.759  24.271   4.632
71178W        W36163   1.999  42.754   2.362
71179W        W36164  15.381  17.475  13.452
71180W        W36165   5.598  33.538   1.138
71181W        W36166   7.844   3.116  14.210
71182W        W36167  27.579  18.488   1.947
71183W        W36168   9.664  12.121   3.314
71184W        W36169  38.118   5.985   0.861
71185W        W36170  22.165  31.598   1.126
71186W        W36171   7.931  25.425  14.390
71187W        W36172  26.147  31.586   1.103
71188W        W36173  33.292  11.621   4.414
71189W        W36174  28.690   3.307   3.484
71190W        W36175  33.891   5.446  13.195
71191W        W36176  41.723  32.988   3.954
71192W        W36177  16.813  21.070   0.815
71193W        W36178  19.678  43.223  13.336
71194W        W36179  24.640  38.613   4.680
71195W        W36180  19.993   6.001   3.902
71196W        W36181  15.649  17.626   1.714
71197W        W36182  24.541  17.331  10.819
71198W        W36183  21.236  21.064  13.374
71199W        W36184   8.882   7.985  11.355
71200W        W36185  18.228  34.172   0.322
71201W        W36186   4.745  37.875  10.671
71202W        W36187  15.217  14.727   1.917
71203W        W36188  32.048  44.474  14.888
71204W        W36189   8.688   4.251  12.151
71205W        W36190  11.236  41.940   3.784
71206W        W36191  31.403   1.462  11.081
71207W        W36192  21.953  25.017  13.257
71208W        W36193  18.699  19.528   2.164
71209W        W36194  11.920  22.574  12.528
71210W        W36195  13.236  39.160  12.574
71211W        W36196  31.859  18.097   4.838
71212W        W36197  41.549  30.658  13.909
71213W        W36198  26.238  22.842   4.600
71214W        W36199  38.866  38.821   3.706
71215W        W36200  20.149  30.429   1.688
71216W        W36201   5.691  10.580  13.346
71217W        W36202  30.724   0.285  12.077
71218W        W36203   3.135   2.756  14.727
71219W        W36204   1.398  20.919  13.081
71220W        W36205   7.313  15.710  11.151
71221W        W36206  26.455  35.043  14.386
71222W        W36207  44.523   2.817  11.523
71223W        W36208  13.714  34.526  12.012
71224W        W36209  20.699  42.081   4.796
71225W        W36210  43.642  19.272  14.966
71226W        W36211  33.392  23.704  13.527
71227W        W36212  26.217  26.240   4.933
71228W        W36213  23.179   5.751   2.516
71229W        W36214  34.318   2.945   4.301
71230W        W36215  17.230  28.976   3.110
71231W        W36216  34.447  34.008   3.395
71232W        W36217  22.547  21.579  12.621
71233W        W36218  26.999  37.883   4.960
71234W        W36219   1.668  32.827  12.880
71235W        W36220  44.723  39.765   2.243
71236W        W36221  30.869  29.956  12.903
71237W        W36222  25.562  41.732   2.202
71238W        W36223  10.245   1.907   4.173
71239W        W36224  39.752  10.149  14.364
71240W        W36225  12.281  26.309   0.160
71241W        W36226  10.757   6.441  13.565
71242W        W36227  11.654  40.070   3.196
71243W        W36228  25.712  27.204   2.309
71244W        W36229  42.278   4.161   2.661
71245W        W36230  38.890  36.833   1.656
71246W        W36231  18.730   0.045   1.237
71247W        W36232  26.771  12.211  13.929
71248W        W36233  18.144  41.443  11.586
71249W        W36234  18.130  10.609  11.711
71250W        W36235  15.263  31.873   3.756
71251W        W36236   4.373  18.047   1.804
71252W        W36237   7.309   7.335   4.668
71253W        W36238  15.230  10.167  14.882
71254W        W36239   8.486  31.980   2.214
71255W        W36240  12.174  12.599  14.239
71256W        W36241   9.845  40.274  12.148
71257W        W36242  15.326  26.481   2.696
71258W        W36243  29.356  40.391  13.981
71259W        W36244  16.611  11.882  10.787
71260W        W36245  23.159   3.647   0.898
71261W        W36246   6.015  31.638   4.338
71262W        W36247   8.679  35.540  12.418
71263W        W36248   7.372  21.319   3.789
71264W        W36249  15.830  41.745  14.923
71265W        W36250  16.130  28.577  11.495
71266W        W36251  19.864   7.741  13.396
71267W        W36252  25.520   0.188  13.570
71268W        W36253  26.774  27.891   3.326
71269W        W36254   5.858  37.311  11.884
71270W        W36255   8.910   2.010  11.482
71271W        W36256  25.211  28.705   4.991
71272W        W36257  13.970  10.631   2.471
71273W        W36258  42.203  22.470   4.003
71274W        W36259  11.072  37.415  11.619
71275W        W36260  42.456  41.933  11.253
71276W        W36261  34.821  33.601  11.975
71277W        W36262   4.459   9.973   3.664
71278W        W36263  37.609   6.379  13.864
71279W        W36264   1.973  18.461   2.030
71280W        W36265  26.890  22.544   1.714
71281W        W36266  38.307   6.651   3.783
71282W        W36267  38.415   4.150   3.141
71283W        W36268  36.625  31.464  14.592
71284W        W36269  31.061   3.798   3.593
71285W        W36270  36.013  36.734   4.849
71286W        W36271  41.135  33.204  11.486
71287W        W36272   7.112   5.161   0.746
71288W        W36273   3.281  32.221   2.888
71289W        W36274  18.835  10.465   0.489
71290W        W36275  44.712  20.667   2.869
71291W        W36276  21.206   9.187   1.224
71292W        W36277  16.304  25.431  12.596
71293W        W36278  38.994  23.287   1.788
71294W        W36279   1.862  37.513  14.491
71295W        W36280  27.583  25.569  12.788
71296W        W36281  21.131  19.507  12.142
71297W        W36282   2.636  40.635  13.125
71298W        W36283   5.450  26.972  12.968
71299W        W36284  11.226  15.249   0.685
71300W        W36285  40.076  41.594  12.451
71301W        W36286  32.875  33.019   4.660
71302W        W36287  11.127  12.429   2.749
71303W        W36288  17.539  43.088  12.851
71304W        W36289  15.693  35.506   3.333
71305W        W36290   3.299   0.746   1.786
71306W        W36291   9.260   2.730  11.464
71307W        W36292  20.769   1.463  11.605
71308W        W36293  31.025  30.418  13.114
71309W        W36294  44.418  38.649  11.782
71310W        W36295  34.650  30.497   1.234
71311W        W36296  16.472  12.637  12.313
71312W        W36297  44.431  38.931  13.582
71313W        W36298  22.510  39.219  12.624
71314W        W36299   6.327   0.482   3.332
71315W        W36300  31.399  29.095   3.272
71316W        W36301   6.927  43.747  11.502
71317W        W36302  26.805  27.378  11.247
71318W        W36303   7.680  32.616  11.758
71319W        W36304  44.423  31.887   2.745
71320W        W36305  14.496  32.615   3.062
71321W        W36306  32.389  38.088   0.815
71322W        W36307  24.541  10.275  14.071
71323W        W36308   3.494  19.843   4.288
71324W        W36309  26.551   6.969   0.914
71325W        W36310  42.776  24.034  13.457
71326W        W36311  34.411  13.106   5.117
71327W        W36312   6.129   3.765   4.032
71328W        W36313   5.436  10.668  11.692
71329W        W36314  39.964  31.040  14.855
71330W        W36315  22.018  39.487  12.439
71331W        W36316   3.462  41.297   3.126
71332W        W36317  21.272  24.131   0.416
71333W        W36318  38.324  14.155   1.316
71334W        W36319  10.266  18.818  12.094
71335W        W36320  25.031  37.015  14.808
71336W        W36321   9.703  10.337   0.049
71337W        W36322  30.624   1.642   1.162
71338W        W36323  37.517  42.917  14.464
71339W        W36324  15.177  13.342  12.540
71340W        W36325  30.141  44.507  11.255
71341W        W36326  42.207  15.645   2.344
71342W        W36327  43.032  10.598   3.704
71343W        W36328  24.018  41.993   3.146
71344W        W36329  25.073  34.627  13.735
71345W        W36330  14.197  43.568   2.823
71346W        W36331  24.735  34.986  13.999
71347W        W36332   8.965  22.602   0.778
71348W        W36333   2.841  42.991   1.698
71349W        W36334   6.958  17.155   1.416
71350W        W36335  41.810  27.416   2.712
71351W        W36336  30.463  24.879   3.140
71352W        W36337   1.328  22.041   3.303
71353W        W36338  34.572  31.072  13.502
71354W        W36339  28.043   5.868  12.333
71355W        W36340   5.946  37.090  13.003
71356W        W36341  36.116  24.722   4.193
71357W        W36342   9.880  27.520   3.128
71358W        W36343   7.500  29.196  11.831
71359W        W36344  38.621  44.837  12.085
71360W        W36345  35.939  18.689   0.237
71361W        W36346  20.704  36.618   0.453
71362W        W36347  18.134  33.448  14.555
71363W        W36348  35.102   7.346   5.161
71364W        W36349   8.803  27.958  10.722
71365W        W36350  43.316  40.227   3.758
71366W        W36351   2.894  14.649   2.576
71367W        W36352  20.711  21.315   3.185
71368W        W36353  22.997  34.527  13.065
71369W        W36354  20.222  29.731   9.518
71370W        W36355  37.832  18.986   4.519
71371W        W36356  25.442  35.570  13.930
71372W        W36357   6.844  38.756  11.131
71373W        W36358  17.168   9.424   1.370
71374W        W36359  38.296   6.853  14.543
71375W        W36360  33.524  42.478  10.693
71376W        W36361   0.527  13.774   3.272
71377W        W36362  32.558   0.576   3.698
71378W        W36363  40.763  19.286  13.889
71379W        W36364  22.294  11.240  12.563
71380W        W36365  21.479   3.909   4.962
71381W        W36366  30.045   2.873  11.914
71382W        W36367   8.378  44.900   4.142
71383W        W36368   5.341  39.579   4.934
71384W        W36369  11.417  20.797   3.317
71385W        W36370  36.998  11.851  13.407
71386W        W36371  32.655  12.781   1.607
71387W        W36372  29.188  39.243  13.348
71388W        W36373  29.721  36.385   2.713
71389W        W36374  37.164  12.390   1.808
71390W        W36375  29.053  26.071  14.595
71391W        W36376  35.344  41.607  13.460
71392W        W36377  23.160  20.978  13.045
71393W        W36378  37.107  40.650   0.346
71394W        W36379  10.420  15.311  11.069
71395W        W36380  17.087  43.923  12.958
71396W        W36381  20.844  44.212  14.878
71397W        W36382  24.934   2.765   3.070
71398W        W36383  42.291  28.858  13.376
71399W        W36384  28.747  43.675   0.307
71400W        W36385  39.215  39.819   3.684
71401W        W36386  22.530  19.134  12.909
71402W        W36387  22.410  41.986  11.983
71403W        W36388  33.343  21.101   4.145
71404W        W36389  42.115   4.401  14.841
71405W        W36390  24.031  10.728  11.179
71406W        W36391  42.963  32.422  11.597
71407W        W36392  43.323   2.593   2.362
71408W        W36393  41.330  32.519   1.914
71409W        W36394  12.565   3.911   2.219
71410W        W36395  31.522   3.093  10.372
71411W        W36396   9.624  30.575   2.664
71412W        W36397  18.058  14.381  14.623
71413W        W36398  16.303  31.509  13.551
71414W        W36399  36.612  35.098  11.870
71415W        W36400  34.480  39.914  11.555
71416W        W36401   1.177  30.448   1.784
71417W        W36402  35.564  19.071   0.219
71418W        W36403  18.556  36.368  13.966
71419W        W36404  26.173  28.239   0.453
71420W        W36405   0.875   8.033   4.932
71421W        W36406  24.603  41.845   3.564
71422W        W36407  41.973  37.491   0.406
71423W        W36408  31.121  35.293   4.210
71424W        W36409  44.469  29.208   3.702
71425W        W36410  10.889  44.785   3.885
71426W        W36411  44.825   4.477   1.582
71427W        W36412  33.365   6.205   9.891
71428W        W36413  29.240  13.524  11.655
71429W        W36414   9.330  28.364   2.198
71430W        W36415   2.471  25.969   2.754
71431W        W36416  25.498   1.922  12.145
71432W        W36417  20.848   8.315   4.642
71433W        W36418   1.020  28.107   1.151
71434W        W36419  27.731  27.013   2.290
71435W        W36420  34.085  33.936   2.792
71436W        W36421   8.890  16.364   3.531
71437W        W36422   8.842   7.133  14.437
71438W        W36423  21.198  17.749   2.953
71439W        W36424  42.804  10.694  12.815
71440W        W36425  25.759  22.281   1.183
71441W        W36426  11.373   1.026  11.262
71442W        W36427   5.369   2.975  14.831
71443W        W36428  20.716  18.638   1.886
71444W        W36429  20.648  15.467  14.897
71445W        W36430  20.192  41.513  11.244
71446W        W36431  39.876   1.491  12.492
71447W        W36432  19.740   8.487  14.388
71448W        W36433  24.038   9.183   4.692
71449W        W36434  26.721  33.524   0.334
71450W        W36435  42.321  29.096  12.901
71451W        W36436  41.352  14.658   1.011
71452W        W36437   7.574   7.590  11.478
71453W        W36438  14.642  23.054  10.696
71454W        W36439  31.995  37.801   0.961
71455W        W36440  29.169  13.761   1.468
71456W        W36441  43.916  44.362   3.220
71457W        W36442  31.952  25.117   1.761
71458W        W36443  21.012  30.666   3.749
71459W        W36444  40.030  44.733   4.222
71460W        W36445  34.323  31.961  11.590
71461W        W36446  21.625  30.420   5.138
71462W        W36447  37.008   9.210   4.128
71463W        W36448   0.175   6.666   1.974
71464W        W36449  12.275  26.943  10.658
71465W        W36450  32.932  41.569  13.107
71466W        W36451  23.583  23.950   4.045
71467W        W36452   4.480  26.640   0.256
71468W        W36453  14.193  32.609  14.597
71469W        W36454  30.534   5.742   0.849
71470W        W36455  13.182  33.940  12.983
71471W        W36456   7.492  34.412   4.117
71472W        W36457  38.391  28.233   4.561
71473W        W36458  44.801  41.726  11.264
71474W        W36459  20.196  16.652  14.355
71475W        W36460  20.031  37.627   0.807
71476W        W36461   2.447  36.247  13.477
71477W        W36462  28.518  14.362   4.597
71478W        W36463  10.344   8.600   2.780
71479W        W36464  42.533   7.524   4.166
71480W        W36465   9.865  39.022  14.441
71481W        W36466  15.890  43.815  10.446
71482W        W36467  33.136  11.786  14.372
71483W        W36468  35.324   8.876  13.814
71484W        W36469  42.787   4.788  14.037
71485W        W36470  30.559  33.234   0.010
71486W        W36471  43.568  30.883  10.412
71487W        W36472  44.209   2.421  11.505
71488W        W36473  17.201  28.069   2.474
71489W        W36474  21.247  13.401   4.091
71490W        W36475  20.270  41.002  11.699
71491W        W36476  22.127  24.600   4.024
71492W        W36477  18.628  21.573  12.974
71493W        W36478  18.813  34.360   1.329
71494W        W36479  12.243  31.295   3.123
71495W        W36480  33.521  13.361  10.992
71496W        W36481  23.463  39.087   1.443
71497W        W36482   0.527  18.441  11.925
71498W        W36483   2.717   0.521   3.604
71499W        W36484  12.868  28.619   0.217
71500W        W36485  43.983   5.899   2.797
71501W        W36486  29.109   4.534  11.525
71502W        W36487  14.563  15.141  12.518
71503W        W36488  25.546  39.882   2.260
71504W        W36489   0.302  38.439   4.530
71505W        W36490  37.680  15.766  13.976
71506W        W36491  35.983   6.174  13.052
71507W        W36492  26.317  13.250  11.522
71508W        W36493   3.496  33.076   1.790
71509W        W36494  15.312   6.225  13.065
71510W        W36495  27.620  44.972  10.363
71511W        W36496  18.794  35.142  14.707
71512W        W36497   4.933  37.909   1.211
71513W        W36498  14.292   2.833   1.870
71514W        W36499  13.308  22.591   0.947
71515W        W36500  28.545  36.228  14.220
71516W        W36501  28.067  30.021  12.993
71517W        W36502  23.287  42.470   4.732
71518W        W36503  13.629  21.689  13.891
71519W        W36504  32.582  39.888  13.555
71520W        W36505  20.770   5.762   2.979
71521W        W36506  33.369  16.230  11.337
71522W        W36507  36.048  34.022   3.721
71523W        W36508  28.623   4.366  12.239
71524W        W36509  19.877  14.264   2.773
71525W        W36510  35.328  32.048  14.386
71526W        W36511  28.698  21.548   3.611
71527W        W36512  40.371  22.090   2.370
71528W        W36513  12.881  35.022  10.630
71529W        W36514  15.119  22.699  11.211
71530W        W36515   3.919  22.714   4.274
71531W        W36516  41.211  12.237  11.197
71532W        W36517   4.447  15.365  12.156
71533W        W36518  15.177  39.941   2.822
71534W        W36519  37.033   7.563   3.973
71535W        W36520  30.204  39.348   0.399
71536W        W36521  12.071   4.262  11.161
71537W        W36522  27.238  25.560  12.378
71538W        W36523   3.417  30.653   0.258
71539W        W36524  19.950  38.055   4.207
71540W        W36525   6.777  23.887   0.706
71541W        W36526  20.506  18.782  13.639
71542W        W36527  17.249  16.839   3.755
71543W        W36528   8.474   3.003  11.104
71544W        W36529  27.981  32.070  14.012
71545W        W36530   2.227  22.007   4.415
71546W        W36531   7.155  15.250  13.866
71547W        W36532  16.336  27.295  13.401
71548W        W36533  23.096  38.604  11.105
71549W        W36534  40.118   2.208  12.921
71550W        W36535  39.127   3.401   4.930
71551W        W36536  17.818  24.959  13.515
71552W        W36537  31.630  13.397   3.259
71553W        W36538  29.567  36.022  11.147
71554W        W36539  30.503   1.262   2.726
71555W        W36540  43.654  22.424  10.991
71556W        W36541  16.632  25.840   2.634
71557W        W36542  32.305  14.102   1.053
71558W        W36543  10.900  28.411  13.685
71559W        W36544  24.737  34.138   3.196
71560W        W36545  36.798   6.373   1.183
71561W        W36546  34.331  39.385  11.260
71562W        W36547  24.507  39.503  14.314
71563W        W36548   4.758  37.646  11.608
71564W        W36549  15.807  15.413   9.939
71565W        W36550  14.301   5.768  13.645
71566W        W36551  20.172  34.762   4.587
71567W        W36552  21.701   4.941   4.595
71568W        W36553  20.576  14.502   2.184
71569W        W36554  44.436  13.266  13.643
71570W        W36555  37.141  44.957   4.707
71571W        W36556  26.085   4.271   0.725
71572W        W36557  30.122  15.917   0.411
71573W        W36558  43.662  40.025  13.537
71574W        W36559  22.694  39.776  10.810
71575W        W36560  22.154   5.812   1.272
71576W        W36561  44.353   0.339   1.254
71577W        W36562  24.026   3.160   4.852
71578W        W36563  12.414  40.118  11.939
71579W        W36564  27.536   2.951  14.342
71580W        W36565   9.680  35.128  12.529
71581W        W36566  25.974  25.576   4.285
71582W        W36567   4.726  11.376   3.338
71583W        W36568  27.492   0.708   3.103
71584W        W36569   2.437  15.090  13.604
71585W        W36570  39.806  41.267  11.526
71586W        W36571  12.691  16.203  14.686
71587W        W36572  19.383  16.127  14.083
71588W        W36573  28.520  26.696  14.557
71589W        W36574  19.197   0.268  14.832
71590W        W36575  34.932  43.942   3.435
71591W        W36576  42.170  19.577  11.590
71592W        W36577   5.590  16.830  14.898
71593W        W36578   7.798  23.784   1.415
71594W        W36579   5.092  35.296   3.152
71595W        W36580  25.286  38.891   0.957
71596W        W36581  15.037   8.107   0.327
71597W        W36582   1.005  10.922   4.394
71598W        W36583  29.929  19.756   3.596
71599W        W36584   2.284  29.705   2.326
71600W        W36585  15.355  40.990   0.965
71601W        W36586  41.307  26.041   0.496
71602W        W36587  37.094  34.392   2.639
71603W        W36588  29.814  27.606   0.651
71604W        W36589  24.070  14.647  13.005
71605W        W36590   0.051  37.994  14.323
71606W        W36591  23.069   9.789   2.404
71607W        W36592  13.263  30.074   1.775
71608W        W36593  10.285   2.701  11.333
71609W        W36594  44.431  24.386  10.312
71610W        W36595   2.703  31.543   3.530
71611W        W36596  42.386  16.770  13.794
71612W        W36597  16.751  19.012  10.344
71613W        W36598  29.001  24.344  11.663
71614W        W36599  36.271  24.323   0.561
71615W        W36600  26.731  19.559  14.330
71616W        W36601  23.214   6.684  14.943
71617W        W36602  13.625  31.866  11.583
71618W        W36603  31.147   3.333  11.189
71619W        W36604  40.424   1.896   4.359
71620W        W36605  37.487   5.792  12.626
71621W        W36606  26.782  34.087  10.284
71622W        W36607  39.245  37.044   3.746
71623W        W36608  20.676   1.955  10.716
71624W        W36609  22.228  42.981   4.507
71625W        W36610  11.939   5.370  13.978
71626W        W36611  28.869  44.019  12.999
71627W        W36612  38.438  26.677  11.226
71628W        W36613  14.085   4.657   4.214
71629W        W36614  17.086  11.614  10.633
71630W        W36615  31.231   2.769  14.903
71631W        W36616  16.215   5.816   1.821
71632W        W36617   8.963   6.706  13.714
71633W        W36618  23.601  25.148   1.492
71634W        W36619  17.474  43.879   0.836
71635W        W36620   3.093  22.126   2.387
71636W        W36621   1.947  24.069  11.191
71637W        W36622  33.079  31.414  12.988
71638W        W36623  35.846   2.827   0.338
71639W        W36624  22.598  13.629   4.078
71640W        W36625  36.854  34.413  13.901
71641W        W36626  44.544  37.461   3.160
71642W        W36627  28.082  11.876   2.069
71643W        W36628   7.955   5.739   2.248
71644W        W36629  27.017   3.085  10.779
71645W        W36630  27.490  32.185   3.360
71646W        W36631  28.888  29.273   2.013
71647W        W36632  33.021  39.789  13.346
71648W        W36633   3.953   3.231  10.647
71649W        W36634  44.897  38.726   4.368
71650W        W36635   3.874   4.279   3.923
71651W        W36636  24.180  11.540  10.935
71652W        W36637  29.475  30.516  13.390
71653W        W36638  27.082  19.695   4.090
71654W        W36639   0.897  40.029   1.776
71655W        W36640  44.897  23.925  13.347
71656W        W36641   2.076  42.300   4.494
71657W        W36642  11.240  18.278  13.426
71658W        W36643  19.587  21.755  14.046
71659W        W36644  10.104  32.897   2.157
71660W        W36645  13.960  34.013  11.720
71661W        W36646  39.021   8.423  14.666
71662W        W36647  37.492  30.101   0.380
71663W        W36648  16.946  17.348   2.882
71664W        W36649  31.486  10.005  10.275
71665W        W36650  19.113  23.487   0.785
71666W        W36651   8.268  38.265   1.630
71667W        W36652  17.646   5.722  14.440
71668W        W36653  26.462  32.628  14.377
71669W        W36654  18.774  20.591  11.880
71670W        W36655  23.098  36.499   3.748
71671W        W36656   3.347  43.451  11.485
71672W        W36657  17.653   5.190  14.435
71673W        W36658  27.916   5.664   0.339
71674W        W36659  13.137  38.297   3.519
71675W        W36660  10.915   8.412  13.108
71676W        W36661  29.183  20.384   2.100
71677W        W36662  36.880   5.051  12.051
71678W        W36663  24.703  27.478   1.810
71679W        W36664  34.888  35.013   0.597
71680W        W36665  25.038  29.044  13.276
71681W        W36666  21.715  32.562   3.873
71682W        W36667  13.308  41.093  12.633
71683W        W36668   0.843  14.914   4.840
71684W        W36669   7.409  37.089   3.335
71685W        W36670  25.055   1.012  14.590
71686W        W36671  20.947  37.341   4.228
71687W        W36672  21.144  44.794  11.580
71688W        W36673   1.708   2.319  12.461
71689W        W36674   2.954  34.149  12.060
71690W        W36675  14.235  36.328  14.445
71691W        W36676  36.597   5.219   2.873
71692W        W36677   7.271  24.218   1.728
71693W        W36678  17.060  36.104   2.270
71694W        W36679  10.968  36.967   1.491
71695W        W36680  14.774  20.709  12.930
71696W        W36681  14.456  11.719  11.472
71697W        W36682  10.101  33.934   3.193
71698W        W36683  34.584  33.901  11.554
71699W        W36684  30.130   6.808  11.865
71700W        W36685  44.514   9.350  14.245
71701W        W36686  34.631  34.962  10.725
71702W        W36687  16.062   6.357   1.414
71703W        W36688   9.992   1.190   1.715
71704W        W36689  27.468  11.633  14.564
71705W        W36690  35.586  43.371  11.230
71706W        W36691  34.342  40.530  14.806
71707W        W36692  26.810  37.413  12.133
71708W        W36693  35.749  14.315   2.762
71709W        W36694  38.988  14.617   0.330
71710W        W36695  44.886  30.348   0.976
71711W        W36696  37.528   7.204  13.079
71712W        W36697  20.601   1.040  12.217
71713W        W36698  28.822  33.693   4.809
71714W        W36699  38.477  37.091   3.223
71715W        W36700  11.556  36.402  12.546
71716W        W36701  30.851  15.906   1.845
71717W        W36702   1.167  10.130   3.717
71718W        W36703  14.303   6.245   0.534
71719W        W36704  43.329  33.827  11.183
71720W        W36705  35.635   5.235  13.357
71721W        W36706  42.043  14.254   3.626
71722W        W36707  33.619  33.552   0.222
71723W        W36708  16.039  11.781  14.352
71724W        W36709  31.982  30.573  12.616
71725W        W36710  18.818  14.670  12.177
71726W        W36711  28.719  22.939  11.409
71727W        W36712   2.782   1.740   3.332
71728W        W36713   6.227  37.978  13.353
71729W        W36714  39.033  10.980  10.238
71730W        W36715  15.413  31.085   0.489
71731W        W36716  27.593  15.230   0.037
71732W        W36717  29.843  11.504   2.319
71733W        W36718  12.779  11.849  10.845
71734W        W36719  44.967  29.391  13.287
71735W        W36720  19.794   5.260   4.486
71736W        W36721  17.825  32.974   4.617
71737W        W36722  37.756  21.755  11.110
71738W        W36723  21.364   5.721  10.414
71739W        W36724  18.785   2.805   0.655
71740W        W36725   3.367  20.574  13.880
71741W        W36726  44.375  40.512   0.253
71742W        W36727   6.836  22.482  12.511
71743W        W36728   7.185   6.150  12.940
71744W        W36729  21.719  38.407  14.921
71745W        W36730  40.921  29.468   1.165
71746W        W36731  43.544  10.673  13.049
71747W        W36732  32.336   1.842   0.887
71748W        W36733   3.873  24.056  10.737
71749W        W36734  35.206  34.479  13.327
71750W        W36735  34.112  19.057   3.628
71751W        W36736  32.689  43.876   0.379
71752W        W36737   9.273  41.787  10.441
71753W        W36738   7.330  17.222   2.946
71754W        W36739  11.154  37.839   1.433
71755W        W36740  37.289  25.011  11.064
71756W        W36741  16.412  14.637   1.163
71757W        W36742  41.894  27.751   2.244
71758W        W36743   7.555  29.992   2.060
71759W        W36744  24.087  12.313   0.369
71760W        W36745  43.359  19.564   4.142
71761W        W36746  28.244  20.303   1.791
71762W        W36747   5.618   9.799  11.885
71763W        W36748  12.833  33.905  13.364
71764W        W36749  17.029  32.911   4.193
71765W        W36750  13.082  14.425   0.292
71766W        W36751  12.001   8.119   0.346
71767W        W36752  38.806  16.583  11.585
71768W        W36753  27.914  20.750  11.498
71769W        W36754   4.278  38.350   4.090
71770W        W36755  33.162  34.156  11.289
71771W        W36756  25.126  30.265   2.694
71772W        W36757  14.014  44.047   2.836
71773W        W36758   7.143  18.663   0.183
71774W        W36759   3.267  42.030   3.602
71775W        W36760  35.684  12.135   1.934
71776W        W36761  38.029   1.034   4.928
71777W        W36762  41.166   9.941   4.590
71778W        W36763   3.310  35.501   1.889
71779W        W36764  19.224  15.652  12.805
71780W        W36765  13.165  30.379   4.486
71781W        W36766   1.640  28.001   3.449
71782W        W36767  22.523  33.678   2.353
71783W        W36768  18.193   3.499  12.298
71784W        W36769  31.682  38.062  12.945
71785W        W36770  29.971   5.019   4.764
71786W        W36771   0.546  38.967   1.893
71787W        W36772   2.411  43.652  11.126
71788W        W36773   3.218   2.768   4.481
71789W        W36774  32.603  13.295   1.385
71790W        W36775   4.708   7.495   1.272
71791W        W36776  11.170  12.085   3.137
71792W        W36777  10.111   1.268   3.285
71793W        W36778  28.505  35.687   2.158
71794W        W36779  41.533  26.488  12.504
71795W        W36780   0.769  11.375  10.136
71796W        W36781  25.590  20.610   0.760
71797W        W36782  40.450   0.341  13.229
71798W        W36783  38.032  14.797  14.392
71799W        W36784  39.587   4.211   0.433
71800W        W36785  40.719  15.632  12.426
71801W        W36786   5.445  34.837  11.375
71802W        W36787  20.786  38.648   1.287
71803W        W36788  44.154  36.762   4.645
71804W        W36789  23.261  23.262   0.297
71805W        W36790   9.219  32.362  13.389
71806W        W36791   6.658  42.044   4.112
71807W        W36792  19.508  17.011   2.727
71808W        W36793  43.097  18.147  14.940
71809W        W36794  34.349  14.553   1.238
71810W        W36795  34.397  35.108  11.186
71811W        W36796   0.730  10.371  13.527
71812W        W36797  32.545  27.210   4.786
71813W        W36798   8.916   5.867  12.880
71814W        W36799  27.229  21.841  12.039
71815W        W36800  14.690  20.992  11.585
71816W        W36801  41.995  27.532  13.939
71817W        W36802   6.156  30.151  12.589
71818W        W36803  22.142  37.930  14.977
71819W        W36804  12.568  24.234  14.729
71820W        W36805  15.321  37.605  11.614
71821W        W36806  38.730  32.218   3.254
71822W        W36807   9.090  42.964  14.271
71823W        W36808  30.688   1.214   9.777
71824W        W36809  15.527  38.671   4.090
71825W        W36810  15.855  34.352   5.101
71826W        W36811  16.473   7.706  13.837
71827W        W36812  37.690  36.904   3.075
71828W        W36813  40.826  20.018  11.197
71829W        W36814  25.032  22.721  11.480
71830W        W36815  36.339  43.175   1.954
71831W        W36816  38.547  11.549   0.855
71832W        W36817  26.553  20.436   2.180
71833W        W36818  41.897   4.561  13.471
71834W        W36819   8.678  15.342   1.768
71835W        W36820  27.006  41.343  13.011
71836W        W36821  42.257  37.134  13.599
71837W        W36822  22.801  15.774  12.867
71838W        W36823   6.848  43.239   4.602
71839W        W36824  43.499  26.939   1.645
71840W        W36825  38.292  29.400   2.304
71841W        W36826  17.082  39.830  14.807
71842W        W36827   6.454   7.213  11.941
71843W        W36828  42.920  12.592  12.527
71844W        W36829  31.798   9.777  10.653
71845W        W36830  34.676  36.377  14.415
71846W        W36831  27.718  36.849  13.864
71847W        W36832  24.046   6.656  10.709
71848W        W36833  21.183  38.725  12.478
71849W        W36834  40.301  12.340  11.492
71850W        W36835  17.226  24.977  10.361
71851W        W36836  26.196  34.964   0.762
71852W        W36837  22.340   1.587   4.246
71853W        W36838  11.881  40.224  11.657
71854W        W36839  36.335  31.861   1.961
71855W        W36840  34.330  26.052   2.258
71856W        W36841  30.228   1.104  11.040
71857W        W36842  16.102  11.080   3.696
71858W        W36843   8.133  26.231   4.588
71859W        W36844  22.429  30.650   0.731
71860W        W36845   6.720  44.817   1.709
71861W        W36846   1.717   8.863  11.633
71862W        W36847  37.893  21.207   3.304
71863W        W36848  23.421  22.772  12.443
71864W        W36849  35.065  16.254  13.357
71865W        W36850  19.267   8.119  11.566
71866W        W36851   5.452  36.006   1.029
71867W        W36852  31.450  19.987   1.888
71868W        W36853  14.692  24.826   1.434
71869W        W36854   0.622  30.657  13.517
71870W        W36855  33.530  30.424  13.894
71871W        W36856  18.078  24.458  14.303
71872W        W36857  42.192  19.957  13.951
71873W        W36858  41.593   7.048   3.966
71874W        W36859  29.509  11.095   0.851
71875W        W36860  23.538  10.666   2.862
71876W        W36861  14.941  13.417   3.977
71877W        W36862  10.411  27.401   0.290
71878W        W36863  29.639  12.385  13.795
71879W        W36864  22.860  18.649  11.602
71880W        W36865  30.642  31.378  11.864
71881W        W36866  14.573   5.400   2.003
71882W        W36867  23.467  34.227  10.710
71883W        W36868  15.441  30.498   4.143
71884W        W36869  27.435   6.719   4.631
71885W        W36870   4.220  27.208  11.230
71886W        W36871  11.868  42.242  12.504
71887W        W36872   8.260   1.282   4.897
71888W        W36873  38.014   4.357   2.804
71889W        W36874  27.567  23.105   1.021
71890W        W36875  43.981  30.139  11.617
71891W        W36876  35.851  25.468   2.812
71892W        W36877  43.446  25.775   0.730
71893W        W36878  43.005  43.250  13.799
71894W        W36879  11.684  15.849   1.816
71895W        W36880  41.701  11.895  13.807
71896W        W36881  42.092  11.715   1.775
71897W        W36882   8.507   0.570  11.105
71898W        W36883  35.651  36.509  11.048
71899W        W36884  27.905  42.441   3.228
71900W        W36885  29.459  23.582  11.589
71901W        W36886  27.743  34.636  14.530
71902W        W36887  26.768  40.800   2.324
71903W        W36888  33.087   0.300   4.776
71904W        W36889  41.515  42.520  12.989
71905W        W36890  10.630  36.054   0.437
71906W        W36891   4.325  39.551  14.114
71907W        W36892   7.388  41.806  11.285
71908W        W36893  10.941  27.793  10.105
71909W        W36894  26.697  13.269   5.072
71910W        W36895  22.306  20.446   4.989
71911W        W36896  42.883  14.547  14.256
71912W        W36897  19.079  11.218  10.679
71913W        W36898  15.285   9.918  14.409
71914W        W36899  17.779   3.463  12.581
71915W        W36900  41.228  31.539   1.846
71916W        W36901  27.241  17.571  11.066
71917W        W36902  24.308  34.608   2.243
71918W        W36903  30.653  21.705  11.598
71919W        W36904   0.481  41.383   0.372
71920W        W36905  33.515  36.935   0.429
71921W        W36906  42.759  41.436   4.037
71922W        W36907  38.845  37.793  14.409
71923W        W36908  13.295  20.483  14.794
71924W        W36909  13.583  40.445   2.173
71925W        W36910   9.903  29.164   3.177
71926W        W36911  19.584  30.181  10.640
71927W        W36912  27.860  19.707  10.804
71928W        W36913   9.912  31.010   2.325
71929W        W36914  40.081  27.927  14.926
71930W        W36915  22.729  28.418   4.195
71931W        W36916  44.505   6.985  13.783
71932W        W36917  42.619  29.077  11.132
71933W        W36918  41.527   5.116   9.963
71934W        W36919  31.314  38.913  11.478
71935W        W36920  26.736   9.266  14.949
71936W        W36921  28.968  19.612   2.700
71937W        W36922  16.800  35.497   0.710
71938W        W36923   9.781  36.630   0.793
71939W        W36924  38.790  44.972  10.732
71940W        W36925   0.026  20.535   3.331
71941W        W36926  25.155  21.732  11.177
71942W        W36927  12.770  37.137   4.904
71943W        W36928  32.645   7.139  11.179
71944W        W36929  24.170   5.712   2.786
71945W        W36930   7.388  38.403   0.233
71946W        W36931  37.753  36.175   0.876
71947W        W36932  22.688  32.863   3.655
71948W        W36933  19.644  44.053  13.125
71949W        W36934   0.755  17.396  10.345
71950W        W36935   2.546  11.720   1.390
71951W        W36936  18.315  26.440   1.224
71952W        W36937  39.517  32.445  10.708
71953W        W36938  39.802  13.337  12.945
71954W        W36939  36.467  34.573  10.206
71955W        W36940  11.306  30.542  14.353
71956W        W36941  41.961  44.490   1.648
71957W        W36942  10.763  28.839  12.960
71958W        W36943   3.286  31.970  12.130
71959W        W36944  36.952   9.610   1.649
71960W        W36945  44.900  13.307   4.675
71961W        W36946  25.545   8.776   3.301
71962W        W36947   2.326   6.772  14.322
71963W        W36948  34.053  37.611  12.228
71964W        W36949  12.916  29.523  12.139
71965W        W36950  10.707  21.108  11.451
71966W        W36951  30.595  38.262   3.282
71967W        W36952  34.335  35.356  10.578
71968W        W36953  34.583  35.615   2.140
71969W        W36954  24.705  40.537   2.739
71970W        W36955  22.197  19.744   3.143
71971W        W36956  37.974  30.756   1.273
71972W        W36957  12.388  30.258   1.748
71973W        W36958  34.813  33.170   0.926
71974W        W36959  39.276  40.834  14.398
71975W        W36960  30.891  31.849   5.153
71976W        W36961   5.249   4.221   3.559
71977W        W36962  38.457  32.155  12.139
71978W        W36963  40.516   1.477  11.679
71979W        W36964  13.197   5.156   0.300
71980W        W36965  19.508   5.688  11.911
71981W        W36966   2.766  40.502   1.871
71982W        W36967  30.302  44.427  11.724
71983W        W36968   6.649  28.527  11.134
71984W        W36969  26.247   4.985  11.569
71985W        W36970   3.451   8.124   1.457
71986W        W36971  32.511  22.049  12.175
71987W        W36972  42.055  32.848  13.856
71988W        W36973  20.997  10.135   1.357
71989W        W36974   5.897  20.152   3.792
71990W        W36975  29.551   9.458   3.257
71991W        W36976  32.499   5.716  12.041
71992W        W36977  21.757  33.456  13.176
71993W        W36978  29.406  14.166  14.369
71994W        W36979  21.432  10.903   1.483
71995W        W36980  20.969  39.463  14.263
71996W        W36981  14.154  15.747  11.768
71997W        W36982  31.028   3.435   3.090
71998W        W36983  41.233   2.981   2.803
71999W        W36984   9.045   7.351  10.710
72000W        W36985   4.919  34.777  10.651
72001W        W36986  28.892  27.095   4.633
72002W        W36987  33.862  20.735  12.932
72003W        W36988  36.288   1.302   0.493
72004W        W36989   9.610  30.198   1.268
72005W        W36990  12.582  39.385  10.724
72006W        W36991  44.981   2.706  14.511
72007W        W36992  30.015  32.600  12.492
72008W        W36993  37.945  35.599   3.811
72009W        W36994   4.953   4.861   1.547
72010W        W36995  37.341  35.653   2.106
72011W        W36996  43.691  15.969  11.550
72012W        W36997  26.503  23.195  14.281
72013W        W36998  18.815  22.723  11.256
72014W        W36999  15.631  38.577  12.575
72015W        W37000  25.956   5.809   0.398
72016W        W37001  17.271   8.714  12.121
72017W        W37002  32.449  40.899   1.780
72018W        W37003  30.969  43.325   1.029
72019W        W37004  44.537  35.079   1.766
72020W        W37005  38.922  40.057   3.328
72021W        W37006  25.985  27.986   1.748
72022W        W37007  14.610  29.333   0.329
72023W        W37008  33.858  14.922  11.054
72024W        W37009  27.760  11.193   1.793
72025W        W37010  20.321  38.488  12.496
72026W        W37011   8.906  35.493   2.539
72027W        W37012  40.940  30.432   4.673
72028W        W37013  44.661   5.272   0.755
72029W        W37014  38.605  24.627  12.957
72030W        W37015  41.645  18.138   4.176
72031W        W37016  28.376  16.945   1.386
72032W        W37017  17.339   8.010  10.242
72033W        W37018  41.514  15.609  10.525
72034W        W37019  14.534   4.952   0.789
72035W        W37020  16.745  32.656   0.327
72036W        W37021  37.435   4.750  10.664
72037W        W37022   8.127  22.273   3.291
72038W        W37023  16.816  28.643   2.366
72039W        W37024   6.355  17.248   4.813
72040W        W37025  38.813  21.658   3.527
72041W        W37026   7.885  19.338  13.423
72042W        W37027  36.083  37.428   2.235
72043W        W37028  32.204  20.841   2.286
72044W        W37029  22.119  16.759   2.661
72045W        W37030  31.971  32.799   1.680
72046W        W37031  15.222  41.374   3.926
72047W        W37032  23.676  43.432  14.346
72048W        W37033  20.229  38.089  13.900
72049W        W37034  26.811  40.026   4.560
72050W        W37035  38.794  40.083  11.972
72051W        W37036  31.568  22.566  12.187
72052W        W37037  43.790  19.755  11.194
72053W        W37038  25.855   5.382  12.013
72054W        W37039  39.598  11.909  14.734
72055W        W37040  18.187  19.278   3.590
72056W        W37041   5.718  21.653   2.566
72057W        W37042  12.551  44.736  13.252
72058W        W37043  23.640   3.889   4.151
72059W        W37044   7.443  42.308   1.503
72060W        W37045  41.959  32.064   4.208
72061W        W37046  29.464   4.522  12.370
72062W        W37047  19.710  23.655   3.667
72063W        W37048  36.890  38.095  12.430
72064W        W37049  27.616   3.936  12.845
72065W        W37050  31.604  21.406   2.827
72066W        W37051   8.712  14.427  14.754
72067W        W37052  29.375  24.428   1.287
72068W        W37053  22.626   2.668  12.942
72069W        W37054  13.863   3.324   2.406
72070W        W37055  37.205  33.957  14.638
72071W        W37056   8.652  19.797  14.442
72072W        W37057  38.632  25.524  12.326
72073W        W37058  12.245  40.335   4.828
72074W        W37059   4.745  36.621   4.344
72075W        W37060  41.902  17.696  12.852
72076W        W37061  13.412  25.219  10.597
72077W        W37062  44.887  11.270  10.725
72078W        W37063  31.633  35.922   4.567
72079W        W37064  40.764  26.461   4.146
72080W        W37065  42.583  39.131   0.891
72081W        W37066   8.139  44.396  11.671
72082W        W37067  41.354  13.846  14.291
72083W        W37068  44.543  44.695   3.565
72084W        W37069  39.813   5.031   1.873
72085W        W37070  38.515  37.431   4.032
72086W        W37071  25.593  30.651   1.409
72087W        W37072  13.231  17.287   2.698
72088W        W37073  16.104   5.272  13.615
72089W        W37074  26.419  34.416   2.798
72090W        W37075  32.447  18.090  13.635
72091W        W37076   4.813  40.536   2.717
72092W        W37077  31.582  24.515   2.737
72093W        W37078  33.933   0.223   3.332
72094W        W37079  35.909  21.315   0.822
72095W        W37080   8.427  11.504   0.885
72096W        W37081   6.493  18.205   2.538
72097W        W37082  34.058  13.297   2.797
72098W        W37083  30.467  14.083  11.224
72099W        W37084  17.419  37.597  11.711
72100W        W37085  11.955  19.261  12.558
72101W        W37086   8.759  13.144   4.643
72102W        W37087   6.332   1.896  12.566
72103W        W37088  11.351  25.805   4.879
72104W        W37089  41.536  44.426   4.432
72105W        W37090  32.233  14.076   3.247
72106W        W37091   2.921  31.226   2.614
72107W        W37092   9.669  20.242  11.762
72108W        W37093  38.829  32.013  14.471
72109W        W37094  18.616  32.278   1.309
72110W        W37095  42.270   6.431  13.968
72111W        W37096  35.619  17.125   2.703
72112W        W37097  11.340  25.272   2.694
72113W        W37098  11.307  12.456   4.132
72114W        W37099  17.804   1.853   3.246
72115W        W37100  12.226  44.059  13.391
72116W        W37101   3.524  14.743   0.377
72117W        W37102  17.985  16.720  11.915
72118W        W37103  40.321   3.424  13.778
72119W        W37104  36.443  33.435   1.460
72120W        W37105  33.126  14.547  11.502
72121W        W37106  29.024  41.024   1.431
72122W        W37107  36.745  13.771   4.722
72123W        W37108  13.877   5.402   1.016
72124W        W37109  44.075  34.448   0.955
72125W        W37110  30.110  13.754   0.414
72126W        W37111   2.268  12.834  10.789
72127W        W37112  30.899  44.979  10.700
72128W        W37113  27.210  32.071   2.160
72129W        W37114  13.908  43.338   1.301
72130W        W37115  10.700  31.115  10.639
72131W        W37116   1.046   3.186   2.744
72132W        W37117  38.272  43.160   1.460
72133W        W37118  33.655  35.017  13.892
72134W        W37119   7.390   4.411   2.820
72135W        W37120  25.630   0.754   1.622
72136W        W37121  39.655  23.066  13.884
72137W        W37122  28.593  29.947   0.146
72138W        W37123  14.553   5.577  11.342
72139W        W37124  41.966  34.566  14.293
72140W        W37125  39.604  21.673  14.264
72141W        W37126  29.578  43.047  13.990
72142W        W37127  25.399  16.049  11.677
72143W        W37128  23.019  40.835  10.466
72144W        W37129   7.740  36.083  12.541
72145W        W37130   8.376  42.700  11.091
72146W        W37131   5.130  17.367   1.705
72147W        W37132  17.661  25.373   2.432
72148W        W37133  12.706   0.334  10.728
72149W        W37134   9.677  14.983   4.534
72150W        W37135  11.115  38.485  14.560
72151W        W37136  25.422  11.143   2.767
72152W        W37137  39.939  38.238  12.192
72153W        W37138  37.588   7.492  10.197
72154W        W37139   2.174  20.206   2.380
72155W        W37140   7.221   7.366  12.364
72156W        W37141  30.440   7.758   0.736
72157W        W37142  38.776  38.134   2.120
72158W        W37143  22.194  30.721  13.824
72159W        W37144   3.072   0.378   0.869
72160W        W37145  32.844   4.318  11.534
72161W        W37146  30.085  26.719  12.072
72162W        W37147  30.113  35.434  10.664
72163W        W37148  18.156  40.511  13.869
72164W        W37149  25.520  13.118  12.816
72165W        W37150  34.567  35.064   1.967
72166W        W37151  24.775  21.284   2.825
72167W        W37152   7.847  36.915   4.061
72168W        W37153   4.500  39.030   3.373
72169W        W37154  29.705  36.486  11.304
72170W        W37155  13.685  25.217  11.599
72171W        W37156  37.138  44.302  12.507
72172W        W37157  26.243   5.257  10.151
72173W        W37158   1.273  36.742   0.667
72174W        W37159  10.119   7.849   3.728
72175W        W37160  37.399  14.041  10.664
72176W        W37161  23.550  14.895   3.595
72177W        W37162  42.460   6.959   1.940
72178W        W37163  39.452  17.677   3.126
72179W        W37164  35.366   7.257  13.112
72180W        W37165  19.515  14.126  12.996
72181W        W37166  20.065  44.886  11.117
72182W        W37167  25.673  28.135  10.673
72183W        W37168  33.108  15.544   0.341
72184W        W37169  28.761   6.192  11.061
72185W        W37170  33.043   9.593   2.387
72186W        W37171   2.344  25.660  10.714
72187W        W37172  15.969  28.615  14.864
72188W        W37173   5.468  44.959   0.403
72189W        W37174  10.200   1.913   1.292
72190W        W37175  27.363  29.009  11.911
72191W        W37176  23.571  30.822  14.404
72192W        W37177   2.075  39.195   5.029
72193W        W37178  17.068  37.815   4.897
72194W        W37179  40.026  24.272   9.887
72195W        W37180  33.228  37.765  11.088
72196W        W37181  21.060  33.650   0.675
72197W        W37182  27.117  28.105  12.804
72198W        W37183  40.399  14.721  12.149
72199W        W37184  22.284   7.486  13.612
72200W        W37185  33.530  28.560   4.933
72201W        W37186  25.485  36.817  10.715
72202W        W37187  37.580  10.344  14.530
72203W        W37188  24.677  12.654  14.254
72204W        W37189  42.471  24.549  11.784
72205W        W37190   2.174  36.436   3.093
72206W        W37191  18.124  27.132  10.645
72207W        W37192   2.675  13.773   0.079
72208W        W37193  18.541  22.726  14.003
72209W        W37194  44.170   8.291  12.326
72210W        W37195  36.389  12.096  12.311
72211W        W37196   2.335  34.557   4.835
72212W        W37197   0.488  22.945   4.069
72213W        W37198   3.778  17.479   1.391
72214W        W37199  20.580  15.902   0.357
72215W        W37200  17.547  14.647   1.867
72216W        W37201   0.193  30.288  12.841
72217W        W37202   1.044   4.327   1.297
72218W        W37203  29.747  38.905   2.188
72219W        W37204  26.393   3.616  11.158
72220W        W37205  21.752   0.841   4.589
72221W        W37206  20.139   4.479  12.625
72222W        W37207  34.888   7.732   0.916
72223W        W37208   9.625  38.360   3.560
72224W        W37209  11.720  17.317  11.179
72225W        W37210  10.201  20.160   0.712
72226W        W37211  18.627   9.259   2.307
72227W        W37212  39.385   5.918   3.722
72228W        W37213   9.154  34.562   3.308
72229W        W37214  30.426  21.542   2.756
72230W        W37215  27.158  34.430   4.189
72231W        W37216  27.500  12.347  10.653
72232W        W37217  18.204   0.642  12.418
72233W        W37218  31.643   9.187  13.551
72234W        W37219  15.777   2.406  13.792
72235W        W37220  35.371  20.180  11.223
72236W        W37221  35.241  13.342   1.204
72237W        W37222  29.873  27.702  10.645
72238W        W37223  17.556  36.046   3.654
72239W        W37224  12.019  30.183  13.391
72240W        W37225   8.762  31.798   0.846
72241W        W37226  16.689  25.602   1.174
72242W        W37227  24.965  27.956   1.907
72243W        W37228  33.483   8.859   3.526
72244W        W37229  10.741  23.759  14.441
72245W        W37230  44.499  40.833   2.773
72246W        W37231  28.657  25.089   2.201
72247W        W37232  20.972  20.878  13.885
72248W        W37233   3.345   2.832   0.213
72249W        W37234  22.610  22.497  14.358
72250W        W37235  42.401   9.275   1.908
72251W        W37236  13.286  41.234  13.580
72252W        W37237  18.435  11.837  10.270
72253W        W37238   6.020   8.102   2.583
72254W        W37239  17.068  23.588  13.453
72255W        W37240   8.883  21.850   3.746
72256W        W37241  42.440   1.210   4.626
72257W        W37242  38.955  38.859  10.666
72258W        W37243  42.861  23.687   3.539
72259W        W37244  26.055  31.653  13.824
72260W        W37245  44.320  26.511  14.390
72261W        W37246   1.720  18.435   1.503
72262W        W37247  28.688  11.878  11.020
72263W        W37248  33.087  33.581   0.909
72264W        W37249  24.136  19.065   4.870
72265W        W37250   9.935  11.663  14.940
72266W        W37251  14.807  38.318   3.621
72267W        W37252  18.419  25.133  11.170
72268W        W37253   7.813   1.521  10.533
72269W        W37254  29.423   7.695  11.629
72270W        W37255  27.917  44.748  13.087
72271W        W37256  14.051  25.339  12.499
72272W        W37257  17.152  15.653   1.844
72273W        W37258  26.630  39.405   1.297
72274W        W37259  28.539  11.448  10.770
72275W        W37260  22.564  16.553   0.384
72276W        W37261  41.102   7.790  11.612
72277W        W37262   5.230  29.851   4.698
72278W        W37263   5.844   3.489   2.254
72279W        W37264  16.563  44.808   1.409
72280W        W37265  35.303  44.740   3.134
72281W        W37266  14.808   8.011   3.657
72282W        W37267  25.913   2.434   1.705
72283W        W37268   3.582  29.216  10.699
72284W        W37269  21.066  16.364  12.996
72285W        W37270  34.892  18.456   0.465
72286W        W37271  14.667  10.730   0.312
72287W        W37272  34.743  35.393  13.327
72288W        W37273  41.177  22.187   2.826
72289W        W37274  33.441  13.909  11.776
72290W        W37275  28.094   5.643  10.762
72291W        W37276  15.284  43.777  11.557
72292W        W37277  38.073   5.838   3.173
72293W        W37278   1.486  40.583  12.003
72294W        W37279  10.906   7.876  11.545
72295W        W37280  32.974   0.995   0.218
72296W        W37281  27.494  34.504   1.613
72297W        W37282  18.844  41.418  10.805
72298W        W37283  43.522   0.506   2.756
72299W        W37284  18.795  34.119  13.802
72300W        W37285  33.044  34.897  12.995
72301W        W37286  28.934  36.465  10.688
72302W        W37287  38.765  10.883  14.393
72303W        W37288  40.565  32.657  10.756
72304W        W37289  21.785  16.590  14.867
72305W        W37290   5.167  18.655   4.653
72306W        W37291  21.473  27.586   1.188
72307W        W37292  26.095  21.018   1.476
72308W        W37293  16.159  12.549  12.729
72309W        W37294   7.649  21.048  10.393
72310W        W37295  25.200   4.218  12.632
72311W        W37296  14.408  35.424  14.879
72312W        W37297  31.664  36.412   3.818
72313W        W37298   8.166   0.016   1.747
72314W        W37299  10.315  32.844  13.954
72315W        W37300  40.288  25.237  12.461
72316W        W37301  30.175  43.355   2.203
72317W        W37302  33.507  27.349   3.766
72318W        W37303  14.757  23.092   1.621
72319W        W37304  31.481  26.062  12.127
72320W        W37305  34.691  44.536  10.223
72321W        W37306  21.645   4.520   2.221
72322W        W37307  19.830   4.370   2.254
72323W        W37308  41.296  38.874  14.678
72324W        W37309  42.379   9.385  13.336
72325W        W37310  30.411  27.043   0.346
72326W        W37311  17.632  26.354   2.661
72327W        W37312  29.820  20.248   0.858
72328W        W37313  42.804  37.914  12.952
72329W        W37314  29.981  37.355  13.742
72330W        W37315   5.030  41.955   3.185
72331W        W37316  28.458   6.220  11.488
72332W        W37317  30.713   7.873  12.615
72333W        W37318  16.279  38.876  12.567
72334W        W37319  42.471  38.514   2.388
72335W        W37320  36.782  11.686   3.208
72336W        W37321  42.373   7.229   4.556
72337W        W37322  17.213  34.351   2.753
72338W        W37323  44.467  39.339  10.924
72339W        W37324  21.174   7.842  10.868
72340W        W37325  32.136  14.828  10.667
72341W        W37326  16.045  18.821  11.541
72342W        W37327  16.716  35.414  10.676
72343W        W37328  15.314  24.082   4.462
72344W        W37329  34.025  33.179  13.073
72345W        W37330  34.923  40.481   2.872
72346W        W37331  20.093  37.042  13.334
72347W        W37332  17.721  29.119   2.455
72348W        W37333  42.973  27.482  13.057
72349W        W37334  15.537  36.067  10.721
72350W        W37335  26.620   1.476   1.346
72351W        W37336   0.722   4.829  12.366
72352W        W37337   6.486  21.004   2.180
72353W        W37338  22.348  42.685   3.215
72354W        W37339   4.404  24.560   3.794
72355W        W37340  15.813   6.835   0.979
72356W        W37341  22.708   2.948   0.204
72357W        W37342  18.306  42.462   0.248
72358W        W37343  40.771  40.853   4.516
72359W        W37344   9.843  25.555   3.113
72360W        W37345  38.745  18.004   9.719
72361W        W37346  23.936  26.495   2.442
72362W        W37347   6.770  28.832   1.926
72363W        W37348  17.228  21.614   1.734
72364W        W37349  24.606  36.541   3.338
72365W        W37350  13.658   8.235   4.411
72366W        W37351  26.183  29.942   1.585
72367W        W37352  15.174  10.949  14.440
72368W        W37353  24.013   8.878  14.466
72369W        W37354  20.557  35.664  14.496
72370W        W37355  11.211  24.012  14.307
72371W        W37356  28.999  20.441  13.490
72372W        W37357  16.180   4.709   4.062
72373W        W37358  23.237  34.909   1.250
72374W        W37359  43.777  22.545   2.279
72375W        W37360  11.494  15.671   5.035
72376W        W37361  22.788  24.203  13.527
72377W        W37362  17.279   5.335  12.591
72378W        W37363  24.146  32.988   0.645
72379W        W37364   7.784   6.960   4.879
72380W        W37365  28.520  11.892  10.523
72381W        W37366  37.239  15.500   0.290
72382W        W37367  37.468  22.867   4.565
72383W        W37368  36.394  41.369   3.615
72384W        W37369  20.481   9.897   0.280
72385W        W37370  44.872  43.320  12.849
72386W        W37371  42.088  44.327   3.670
72387W        W37372   6.820  41.122   2.128
72388W        W37373   4.742  10.517  12.558
72389W        W37374   8.295  17.240   4.365
72390W        W37375   5.221  37.363   1.402
72391W        W37376  18.910  19.498   1.355
72392W        W37377  32.030  30.407  12.140
72393W        W37378  38.680  36.959  14.827
72394W        W37379  18.458  28.712   3.675
72395W        W37380  25.661  37.016  12.032
72396W        W37381  44.295  23.099   2.333
72397W        W37382  27.889  24.536  12.965
72398W        W37383  27.990  41.522  13.493
72399W        W37384  34.615  43.449  12.156
72400W        W37385   0.340   4.758   3.253
72401W        W37386  10.846  30.969  13.260
72402W        W37387   4.419  20.518   1.333
72403W        W37388  44.008   2.870  10.625
72404W        W37389  37.115   8.345   0.219
72405W        W37390   8.335  19.020   4.240
72406W        W37391  11.316  35.956  12.653
72407W        W37392  36.203  27.615  14.795
72408W        W37393  20.765  23.160   2.203
72409W        W37394  35.907  24.951   3.734
72410W        W37395   7.184  36.990   1.400
72411W        W37396  39.728  27.732  14.555
72412W        W37397  10.303  41.567  14.284
72413W        W37398  15.055  26.995   1.765
72414W        W37399  26.846  40.337   0.754
72415W        W37400   9.702   2.009  13.406
72416W        W37401  32.653  42.976   1.218
72417W        W37402   7.072  16.588  14.703
72418W        W37403  24.408  26.922  11.010
72419W        W37404  39.027   7.664  14.244
72420W        W37405   7.747  44.973  13.648
72421W        W37406  12.216  40.606   0.035
72422W        W37407  15.275  23.220  11.139
72423W        W37408  33.615   0.820  11.227
72424W        W37409  11.065   0.742  13.444
72425W        W37410  29.607  19.584  10.080
72426W        W37411  39.560  16.305   0.574
72427W        W37412   0.694  27.092   1.256
72428W        W37413  41.421  21.651  13.010
72429W        W37414  44.702  29.231  13.883
72430W        W37415  42.185  38.736  12.960
72431W        W37416  32.694  18.560   3.497
72432W        W37417  25.073  36.995  12.562
72433W        W37418  43.550  30.205   0.840
72434W        W37419  15.228  14.709   3.506
72435W        W37420  41.911  19.694   0.975
72436W        W37421   4.263   9.291   1.908
72437W        W37422  25.643  24.499   1.205
72438W        W37423  37.428  11.543  13.337
72439W        W37424  12.751  38.422   1.922
72440W        W37425  25.583  44.092  14.381
72441W        W37426  12.597  13.124  12.030
72442W        W37427   5.270   8.947  10.391
72443W        W37428   3.574  23.266  11.172
72444W        W37429  15.969  10.081  10.344
72445W        W37430  31.706  14.067   3.599
72446W        W37431  41.936  20.643   4.795
72447W        W37432   7.240  19.071  12.478
72448W        W37433  15.284  38.071   0.646
72449W        W37434   1.925  10.870  12.248
72450W        W37435  16.250  24.181   0.321
72451W        W37436   1.792  24.367   0.381
72452W        W37437  32.443  36.155  11.267
72453W        W37438  43.160  12.472  10.689
72454W        W37439  33.009  17.494  13.590
72455W        W37440  19.371  30.464   9.611
72456W        W37441  24.501  15.342   2.720
72457W        W37442  23.167  27.673  14.697
72458W        W37443   5.403  26.848   2.833
72459W        W37444  13.898  35.406   0.698
72460W        W37445   9.343  39.499  11.226
72461W        W37446  26.640   2.665   2.838
72462W        W37447  12.590  35.419   1.852
72463W        W37448   9.039   6.500   5.287
72464W        W37449  11.503   6.911  10.160
72465W        W37450  11.109   2.400   1.226
72466W        W37451   8.328  42.941   1.406
72467W        W37452   3.468   1.780   3.724
72468W        W37453  30.362  34.946  12.532
72469W        W37454  44.318  34.049   4.169
72470W        W37455  21.323  14.007   0.840
72471W        W37456  41.011  44.528  11.165
72472W        W37457  38.110  15.046  13.446
72473W        W37458  29.347  23.025   1.472
72474W        W37459  37.265  37.116   0.858
72475W        W37460   4.731  17.719   3.684
72476W        W37461  38.587  26.167   1.784
72477W        W37462  41.347   1.201  11.883
72478W        W37463   2.372  15.588  13.527
72479W        W37464  33.573   3.209  14.343
72480W        W37465  19.753   7.388  12.665
72481W        W37466  30.248  44.394   1.670
72482W        W37467  27.173  14.228   2.283
72483W        W37468  22.607  43.157   9.755
72484W        W37469  37.653  25.070  14.825
72485W        W37470  40.325  19.148  12.012
72486W        W37471   9.033  12.836  10.007
72487W        W37472   2.429   4.190  12.925
72488W        W37473  37.477  27.750  14.355
72489W        W37474   4.564  13.335   1.251
72490W        W37475   5.224   9.733  11.529
72491W        W37476  39.517   9.374   2.252
72492W        W37477  16.245  16.564   2.478
72493W        W37478  21.667  29.525   3.259
72494W        W37479   8.789   3.801   3.151
72495W        W37480   2.734  27.547   2.497
72496W        W37481  32.105  11.451   3.981
72497W        W37482  14.538  20.843   1.228
72498W        W37483   5.802   2.619   1.217
72499W        W37484  25.516  13.068   3.224
72500W        W37485  22.262  20.951   2.244
72501W        W37486   8.705   1.194  11.490
72502W        W37487   6.249   0.831  12.098
72503W        W37488   7.712  10.014  12.692
72504W        W37489  15.141  27.848   1.317
72505W        W37490   6.115  37.497  14.115
72506W        W37491  28.680  12.795  11.577
72507W        W37492  26.178  15.520   2.718
72508W        W37493  18.501  38.046   4.780
72509W        W37494  29.164  33.701  13.460
72510W        W37495  24.212  18.102  11.136
72511W        W37496  14.251  11.004   0.472
72512W        W37497  42.920  10.848  13.757
72513W        W37498  43.849   6.742  10.679
72514W        W37499  11.815  43.042   3.571
72515W        W37500  18.754  27.347  11.385
72516W        W37501   9.079  28.244   3.699
72517W        W37502  31.437  20.722  14.503
72518W        W37503  41.180   1.939   4.172
72519W        W37504  13.108   7.679   9.810
72520W        W37505  26.617  41.049  12.630
72521W        W37506   9.853  38.862  10.622
72522W        W37507  24.132  42.699  13.327
72523W        W37508  44.190  40.202  10.178
72524W        W37509  35.994   9.340   2.597
72525W        W37510  41.081   4.016  11.017
72526W        W37511  11.630  39.202  14.091
72527W        W37512  31.533  20.491   0.822
72528W        W37513  27.408  36.456  14.067
72529W        W37514  20.936  35.154   1.660
72530W        W37515  24.153  14.109   2.676
72531W        W37516   0.898   1.755   2.237
72532W        W37517   0.320  44.868  11.289
72533W        W37518  26.076  24.602  10.428
72534W        W37519  23.099   0.195  12.377
72535W        W37520   3.759   2.522   2.838
72536W        W37521  44.506  35.531  10.807
72537W        W37522   1.189   7.605   3.795
72538W        W37523  39.276  16.620  14.780
72539W        W37524  20.000  32.729   0.302
72540W        W37525  33.876  30.671  11.334
72541W        W37526  33.599  36.900  11.917
72542W        W37527  24.739  33.374   1.002
72543W        W37528  37.088  26.701   3.195
72544W        W37529  37.343  33.925  13.077
72545W        W37530  17.856  25.659  14.353
72546W        W37531  43.388   3.064  14.810
72547W        W37532  22.140  40.971   0.277
72548W        W37533  16.630  31.639   1.219
72549W        W37534  39.666  41.902   0.089
72550W        W37535   7.338  17.679   3.172
72551W        W37536   1.357   8.703   1.224
72552W        W37537  38.448  15.941  13.647
72553W        W37538  26.490  37.573  13.824
72554W        W37539   1.419  41.844   4.143
72555W        W37540  43.725  21.342  10.879
72556W        W37541  42.290  19.430   2.389
72557W        W37542  35.009  30.440   4.662
72558W        W37543  19.868   1.019  14.506
72559W        W37544  31.047  42.029   4.605
72560W        W37545  23.969  35.962  12.576
72561W        W37546  36.632  34.135   4.653
72562W        W37547  40.375  18.016   0.313
72563W        W37548  21.724  24.031  14.318
72564W        W37549  24.788  28.836   2.613
72565W        W37550  38.599  19.606  13.879
72566W        W37551  34.984  31.628  12.134
72567W        W37552  14.104  35.567   4.957
72568W        W37553  28.034  22.458   5.032
72569W        W37554  39.861  12.850  14.320
72570W        W37555  38.783  34.447  11.309
72571W        W37556  16.953   2.717   5.103
72572W        W37557  25.414   8.856  11.990
72573W        W37558   9.176  17.253  13.760
72574W        W37559  41.520  12.831  10.713
72575W        W37560  33.943  28.693  12.557
72576W        W37561   8.982  16.736   1.465
72577W        W37562  27.858   2.031  12.057
72578W        W37563  42.746  42.945   2.194
72579W        W37564  22.220  14.853  11.556
72580W        W37565  10.130   1.436  12.497
72581W        W37566  32.676  12.171  13.315
72582W        W37567   3.697  14.102   1.793
72583W        W37568  27.549   3.872   3.302
72584W        W37569  21.072  13.437   3.216
72585W        W37570  16.071  13.624  11.262
72586W        W37571  13.628   2.477  14.475
72587W        W37572  35.195  16.158   1.185
72588W        W37573  31.908  33.655  14.061
72589W        W37574  26.022  22.850  14.143
72590W        W37575   5.649  25.050   2.743
72591W        W37576  12.208   8.348   2.892
72592W        W37577   4.652  19.644   2.658
72593W        W37578  34.854  38.594  13.983
72594W        W37579  34.451  13.027  13.579
72595W        W37580  33.191  27.259  14.866
72596W        W37581  23.577  31.267  14.656
72597W        W37582  14.378  30.979   3.767
72598W        W37583  39.312  36.544  11.172
72599W        W37584  42.769  10.285  12.478
72600W        W37585  22.466  19.691  12.559
72601W        W37586  28.964  18.744   1.640
72602W        W37587  36.602  14.793   0.421
72603W        W37588   5.644  13.107  13.110
72604W        W37589  14.751  19.217   1.375
72605W        W37590   9.382  28.271  12.796
72606W        W37591  43.887  14.441   2.329
72607W        W37592  17.539   9.903   2.175
72608W        W37593  28.891   8.384   1.463
72609W        W37594  30.316  14.295  11.661
72610W        W37595  28.774  28.500  10.328
72611W        W37596  12.561  19.719   3.698
72612W        W37597  41.232  28.973  13.457
72613W        W37598   7.410  34.623   1.838
72614W        W37599  27.366  19.217   1.421
72615W        W37600  13.478  21.986   0.156
72616W        W37601  34.553   5.278   2.165
72617W        W37602  44.318   1.506   0.780
72618W        W37603  28.923  38.386   2.335
72619W        W37604  15.548  36.154   0.113
72620W        W37605   5.826  25.567  12.013
72621W        W37606  28.489  26.825   3.394
72622W        W37607  35.834  36.979  14.940
72623W        W37608   6.777  29.202   3.146
72624W        W37609  29.099  13.774  11.247
72625W        W37610  15.716  39.835  14.548
72626W        W37611   4.440  38.988   0.334
72627W        W37612  16.759  16.608  14.413
72628W        W37613  37.635  27.211  12.033
72629W        W37614   1.422   5.951  13.454
72630W        W37615  23.898  38.280   1.757
72631W        W37616  26.062  31.787  14.507
72632W        W37617  31.104  15.782  11.251
72633W        W37618  28.608   1.239  14.044
72634W        W37619  43.244  11.287  14.431
72635W        W37620  38.355  15.068   4.123
72636W        W37621  38.193  25.380   9.875
72637W        W37622  22.927   3.717   0.296
72638W        W37623   9.656   8.829  11.989
72639W        W37624  18.339  33.069   3.704
72640W        W37625   2.381   4.866  11.558
72641W        W37626  31.036   6.224  11.335
72642W        W37627  24.951  15.033  12.608
72643W        W37628   4.139  33.398   2.826
72644W        W37629  34.499  42.287  14.834
72645W        W37630  33.585  23.564   9.860
72646W        W37631  42.998   6.369  14.541
72647W        W37632  35.555  39.010  11.047
72648W        W37633  22.770  20.887   0.844
72649W        W37634  12.268  27.977  10.674
72650W        W37635  15.774  15.438   5.065
72651W        W37636  34.632  35.519   1.120
72652W        W37637  41.357  35.372   1.481
72653W        W37638  13.716  20.481  11.489
72654W        W37639  31.119  11.325  11.199
72655W        W37640  44.958  17.580  14.249
72656W        W37641   5.091  44.395  14.540
72657W        W37642  19.691  36.012  11.884
72658W        W37643   6.293   9.551   4.141
72659W        W37644  32.896  10.829  13.810
72660W        W37645  22.168  35.374   4.997
72661W        W37646   1.748  15.704   1.844
72662W        W37647   8.076   4.814   1.909
72663W        W37648  11.446  33.689   3.322
72664W        W37649  16.810  35.050  11.874
72665W        W37650  35.139   5.102  11.507
72666W        W37651  14.597   5.967  12.137
72667W        W37652  38.338   3.692  10.737
72668W        W37653  44.990  27.969  11.437
72669W        W37654  10.899  21.841   1.799
72670W        W37655   0.254  35.135  11.123
72671W        W37656   2.937  10.146   0.452
72672W        W37657  23.616  23.640   4.479
72673W        W37658  28.427  12.139   2.403
72674W        W37659   3.897  23.529  12.469
72675W        W37660   0.235   0.536   3.305
72676W        W37661  21.725  13.021   5.125
72677W        W37662   5.841   9.435   5.000
72678W        W37663  38.062   6.974   0.010
72679W        W37664  22.650  41.419  10.758
72680W        W37665   8.611  18.971  13.863
72681W        W37666  39.252  40.261   1.830
72682W        W37667   4.842  42.574  14.314
72683W        W37668  10.180  22.025  13.525
72684W        W37669   0.851   4.068   0.786
72685W        W37670  39.584   9.077  13.446
72686W        W37671  23.668  23.547   0.414
72687W        W37672  12.585  28.879  10.289
72688W        W37673  42.985   9.536   3.985
72689W        W37674  21.735  43.866  13.055
72690W        W37675  43.678  42.985  11.216
72691W        W37676   0.427  29.195   0.471
72692W        W37677  29.588  41.237  10.266
72693W        W37678  32.631  24.151  11.520
72694W        W37679  12.036  12.205   2.237
72695W        W37680  24.526  16.176   3.270
72696W        W37681  13.199  41.826  10.458
72697W        W37682   0.447  40.812   2.738
72698W        W37683  12.664  29.034  12.016
72699W        W37684  16.562   3.529  11.336
72700W        W37685  17.138  39.619   4.186
72701W        W37686  28.607  18.695   3.348
72702W        W37687   0.491  29.129  12.191
72703W        W37688  42.975   7.531  10.669
72704W        W37689   4.901  33.661  11.233
72705W        W37690   0.400  20.046  14.875
72706W        W37691  42.918  43.826  12.569
72707W        W37692  39.039  43.876   2.325
72708W        W37693  37.991  15.323   1.278
72709W        W37694   2.613   2.660   0.010
72710W        W37695   2.774  36.486   4.496
72711W        W37696  41.727   6.486  13.959
72712W        W37697  10.632  19.738   0.927
72713W        W37698  36.848   7.384  14.800
72714W        W37699  14.353  35.835  13.553
72715W        W37700  25.519  42.120  14.948
72716W        W37701  18.236  27.061  12.024
72717W        W37702  30.172   4.479  13.378
72718W        W37703   4.930  33.477  13.495
72719W        W37704  25.413  44.532   2.746
72720W        W37705  41.276  32.155  14.606
72721W        W37706  15.395  25.049  12.852
72722W        W37707  22.918  24.633  12.424
72723W        W37708   1.959  40.850   3.668
72724W        W37709  14.267  21.301  13.495
72725W        W37710  23.149  12.082   2.735
72726W        W37711  36.642  31.565   3.685
72727W        W37712   1.886  24.178  12.724
72728W        W37713  10.161   4.240  13.066
72729W        W37714  26.443  30.119  14.339
72730W        W37715  24.288   6.754  12.670
72731W        W37716   4.309   1.229  12.397
72732W        W37717  32.480  33.333   3.830
72733W        W37718  29.701  22.115  12.350
72734W        W37719  22.793  21.065   3.145
72735W        W37720  14.626  26.117  11.579
72736W        W37721  28.283  39.097  10.643
72737W        W37722  29.001  22.091   4.063
72738W        W37723  36.364   9.377  13.152
72739W        W37724  20.858  27.631   2.354
72740W        W37725  44.838  14.874  13.409
72741W        W37726  11.899  12.738  11.557
72742W        W37727  39.854  14.289  13.947
72743W        W37728  28.105   3.991  12.955
72744W        W37729  41.909  33.471   4.168
72745W        W37730   4.678  37.649   1.677
72746W        W37731  26.227  44.073  12.568
72747W        W37732  39.967  15.835  11.528
72748W        W37733  16.290  17.277  11.496
72749W        W37734  10.258  37.675   3.146
72750W        W37735  32.125  16.835   2.399
72751W        W37736  43.417   7.336  13.074
72752W        W37737   7.157  27.652  14.379
72753W        W37738   0.316  35.407   1.663
72754W        W37739  27.454  19.121  14.880
72755W        W37740   5.745   6.320   3.125
72756W        W37741  28.515  20.249  13.501
72757W        W37742  12.651  15.492  10.137
72758W        W37743  42.514  15.704  14.872
72759W        W37744  13.489  39.143  11.637
72760W        W37745  11.770   5.781   0.620
72761W        W37746  40.254  43.728   1.402
72762W        W37747  32.628  38.767  12.358
72763W        W37748   5.944  29.390  12.776
72764W        W37749  20.494  12.797   0.460
72765W        W37750   1.927  23.307  12.821
72766W        W37751  25.789  26.580   0.249
72767W        W37752  44.967  11.350  14.793
72768W        W37753   0.972   7.934   3.411
72769W        W37754  33.480  34.948  12.204
72770W        W37755  35.804  25.070  14.991
72771W        W37756  19.730  18.535   1.947
72772W        W37757   1.250   7.485  11.439
72773W        W37758  35.139   1.615  13.363
72774W        W37759   9.775  13.521   3.254
72775W        W37760  41.918  35.784   1.077
72776W        W37761  32.134  38.612   2.146
72777W        W37762  31.367  21.266  12.472
72778W        W37763  24.635  40.934   3.540
72779W        W37764   4.409   1.135  10.470
72780W        W37765   4.156  34.849  12.590
72781W        W37766  18.715  43.777  13.444
72782W        W37767  43.111   9.825  14.127
72783W        W37768   7.946   5.449  14.380
72784W        W37769  23.687  40.511   2.196
72785W        W37770  34.014  26.562   4.778
72786W        W37771  27.562  38.740   2.910
72787W        W37772  27.593  44.394  12.686
72788W        W37773  28.239  43.428  11.153
72789W        W37774  35.350   2.239   3.160
72790W        W37775   8.905   0.297  10.900
72791W        W37776   8.029  11.704  14.314
72792W        W37777  29.715  43.548   2.373
72793W        W37778  32.605  35.071   0.933
72794W        W37779   1.508  28.960   3.751
72795W        W37780  27.754  19.033   3.670
72796W        W37781  25.412  18.707   2.989
72797W        W37782  21.008  17.694   4.389
72798W        W37783  16.570  23.624  12.453
72799W        W37784   6.197   8.149   3.834
72800W        W37785  25.968  34.909   2.946
72801W        W37786  27.393  21.254   3.779
72802W        W37787  20.014  28.510  13.825
72803W        W37788  30.525  22.928   0.053
72804W        W37789  37.557  21.236  13.757
72805W        W37790   4.988  24.447   1.251
72806W        W37791   0.967  18.556   4.131
72807W        W37792   0.015  20.496  10.356
72808W        W37793  17.127  35.016   4.094
72809W        W37794  22.019  18.056  11.547
72810W        W37795  20.020  43.825  13.861
72811W        W37796  27.931  19.018   0.837
72812W        W37797  37.299  15.365   4.509
72813W        W37798  11.272   3.283   1.788
72814W        W37799  37.892  38.965  11.952
72815W        W37800  25.767   0.527  14.389
72816W        W37801  31.428  15.208  12.877
72817W        W37802  12.262  32.176   1.911
72818W        W37803  13.217  13.228   3.251
72819W        W37804   0.874   8.583   1.077
72820W        W37805  33.446  17.265  13.452
72821W        W37806  39.534   9.831   3.160
72822W        W37807   6.271  39.641   0.942
72823W        W37808  26.458  44.036  12.109
72824W        W37809  26.214  22.807  11.131
72825W        W37810   4.850  36.860  12.586
72826W        W37811  10.770  24.521   0.383
72827W        W37812  17.663  25.893  14.816
72828W        W37813  40.539  18.932   4.319
72829W        W37814  15.084  34.881   1.124
72830W        W37815   4.954  29.122   1.413
72831W        W37816  28.034  41.814   3.271
72832W        W37817  14.445  34.283  10.937
72833W        W37818   1.776  36.623  14.599
72834W        W37819   4.148  29.978  13.951
72835W        W37820  17.000  30.902   1.482
72836W        W37821  29.221  26.071   3.145
72837W        W37822   3.966  40.801  14.408
72838W        W37823  11.346  23.909  12.050
72839W        W37824  43.701  29.095   0.954
72840W        W37825  22.702  34.670   3.706
72841W        W37826  35.962  21.735  13.410
72842W        W37827  19.235  39.285  13.298
72843W        W37828  44.856  34.498   1.165
72844W        W37829   7.785  33.011   4.439
72845W        W37830  24.523   6.418   0.136
72846W        W37831   7.039  23.674  13.474
72847W        W37832  15.752   5.915   0.418
72848W        W37833  38.511   1.023   4.024
72849W        W37834  36.939   4.141   4.637
72850W        W37835   0.864  19.264   0.011
72851W        W37836  18.037  14.588   0.373
72852W        W37837  27.878  28.949  12.034
72853W        W37838   1.036   0.046   1.407
72854W        W37839  36.978   0.334  12.641
72855W        W37840  24.626   6.291   4.881
72856W        W37841  28.882  43.291   1.686
72857W        W37842  34.729  27.036  11.989
72858W        W37843  29.914  26.147   3.811
72859W        W37844  36.973   4.156  13.929
72860W        W37845  42.504   2.666   2.215
72861W        W37846  12.812   8.431   3.228
72862W        W37847  28.619  44.335  11.155
72863W        W37848  14.824  17.806   3.535
72864W        W37849  18.604   4.525  12.018
72865W        W37850  32.397  14.182   1.705
72866W        W37851   9.371  35.595  12.981
72867W        W37852  16.571  18.915   1.379
72868W        W37853  25.624  38.743  14.840
72869W        W37854  27.428  33.154   3.902
72870W        W37855   8.172  23.049  12.400
72871W        W37856  30.217   4.285   9.835
72872W        W37857  41.458  44.519  14.297
72873W        W37858  26.278  28.034  11.483
72874W        W37859  12.698   3.249  12.188
72875W        W37860  27.939  40.415   2.415
72876W        W37861   6.284  36.856   2.751
72877W        W37862  26.795  21.371  10.700
72878W        W37863  19.500  14.095  13.967
72879W        W37864  10.574  26.571   2.676
72880W        W37865  26.118  32.552  13.987
72881W        W37866  39.816  11.106   2.241
72882W        W37867   6.244  44.832  14.756
72883W        W37868  15.044  16.070   2.757
72884W        W37869  39.323  22.238  14.315
72885W        W37870  15.250  44.024   2.187
72886W        W37871  18.983  12.191   1.769
72887W        W37872  33.099  18.273  14.737
72888W        W37873  19.796  28.408  14.874
72889W        W37874  11.651  18.212   3.381
72890W        W37875   2.815  43.534   1.628
72891W        W37876  20.566   7.800  12.062
72892W        W37877  14.235  43.297  12.744
72893W        W37878  43.465   5.666  11.015
72894W        W37879   4.985  41.063   1.285
72895W        W37880   7.868  29.779  14.399
72896W        W37881   6.150  31.067   1.389
72897W        W37882   3.459  37.371   1.254
72898W        W37883   7.521  16.405   0.379
72899W        W37884  41.865  41.566   0.168
72900W        W37885  19.277   2.059   3.172
72901W        W37886  27.256   6.265   3.419
72902W        W37887   1.152  33.892   4.311
72903W        W37888  29.523  14.736   3.472
72904W        W37889  14.146  40.840  14.025
72905W        W37890   9.552  25.773  11.624
72906W        W37891  31.389  10.033   4.529
72907W        W37892  43.751  17.158   2.666
72908W        W37893  28.056  13.935  13.365
72909W        W37894   6.391   9.657   0.251
72910W        W37895  16.231  43.379   3.978
72911W        W37896   9.426  15.645  11.953
72912W        W37897  40.953  23.554   1.425
72913W        W37898  43.431  39.402  11.863
72914W        W37899  23.175  41.779  11.599
72915W        W37900  41.978  18.769   0.474
72916W        W37901  23.796   8.636   3.635
72917W        W37902  31.105  18.794  13.520
72918W        W37903  33.720   1.327  12.027
72919W        W37904  44.183  42.260  13.228
72920W        W37905  13.655  14.244   2.399
72921W        W37906  20.186  24.143   4.332
72922W        W37907  21.595  33.993  11.997
72923W        W37908   0.135  26.857   4.569
72924W        W37909  41.342   3.910   4.558
72925W        W37910   3.571  18.146  11.993
72926W        W37911  29.564  19.632  11.191
72927W        W37912   9.739   5.166  14.378
72928W        W37913   1.378  19.289  14.034
72929W        W37914  18.540  44.324  13.599
72930W        W37915  19.285  35.085   5.075
72931W        W37916  20.530  42.795   3.681
72932W        W37917  34.728  18.591  11.819
72933W        W37918  13.662  43.011  11.009
72934W        W37919  20.145  40.530   2.619
72935W        W37920  28.113  32.154  10.654
72936W        W37921  15.804  20.214   5.009
72937W        W37922  35.319  26.486   4.174
72938W        W37923  25.111   1.907  13.040
72939W        W37924  27.870  42.461   0.595
72940W        W37925  32.894  18.690  10.680
72941W        W37926   0.271  29.524   3.764
72942W        W37927  41.351  20.604  13.817
72943W        W37928  10.480  35.456   0.287
72944W        W37929   9.093  31.034  10.578
72945W        W37930  14.627  36.087   2.376
72946W        W37931  38.257   4.223   0.228
72947W        W37932  10.554  21.620  13.564
72948W        W37933  29.600   3.182  11.872
72949W        W37934   4.821  10.138  14.834
72950W        W37935  20.652   1.847  12.910
72951W        W37936   5.665  18.655   3.030
72952W        W37937  36.480  19.426  14.704
72953W        W37938  43.945  39.279   4.512
72954W        W37939  32.446  18.081   4.128
72955W        W37940  31.489  40.421  10.793
72956W        W37941  14.083  20.855   0.297
72957W        W37942   5.295  13.216   2.391
72958W        W37943  34.246  37.365  14.068
72959W        W37944  41.959   0.648  13.338
72960W        W37945  37.685   0.143  11.465
72961W        W37946   1.906  37.882  10.541
72962W        W37947  22.181  31.679  12.164
72963W        W37948  30.243  41.091   3.242
72964W        W37949  16.597  43.556   2.725
72965W        W37950  38.011   7.976  11.186
72966W        W37951  31.617  31.571  12.665
72967W        W37952   1.250  24.691   0.701
72968W        W37953   9.682  18.274  14.813
72969W        W37954   4.339  38.766   1.650
72970W        W37955  40.980   3.073  12.997
72971W        W37956  18.926   7.411   0.384
72972W        W37957  41.203  22.535  13.073
72973W        W37958  13.349  40.966  10.510
72974W        W37959  13.662  31.387  14.356
72975W        W37960  44.593  25.500  14.434
72976W        W37961  10.413  44.319   1.129
72977W        W37962  22.678  21.688  12.121
72978W        W37963  12.290   3.341   0.611
72979W        W37964  44.793  39.045  10.628
72980W        W37965  40.083   0.528  14.682
72981W        W37966  21.011  30.084  14.801
72982W        W37967  19.822   1.439  10.477
72983W        W37968   8.636  30.065   1.277
72984W        W37969   9.093  25.612   4.701
72985W        W37970  17.029  31.635   3.593
72986W        W37971  15.612  25.617  13.896
72987W        W37972   8.798  14.483   3.596
72988W        W37973  34.962  39.617   0.890
72989W        W37974  28.430   9.067  14.911
72990W        W37975  41.102  30.091  10.245
72991W        W37976  29.065  21.225   4.708
72992W        W37977  25.880   9.936  11.086
72993W        W37978  22.104   9.801  13.856
72994W        W37979   4.537  38.244   4.526
72995W        W37980   3.335  35.085   0.842
72996W        W37981  11.346  25.674  11.315
72997W        W37982  25.692   7.372   4.146
72998W        W37983  17.809   1.432  14.840
72999W        W37984  27.233  26.948  13.472
73000W        W37985  29.139  35.878  11.422
73001W        W37986  11.751  31.743   0.839
73002W        W37987  15.949  30.279   1.005
73003W        W37988  19.719   1.518   0.464
73004W        W37989  14.053  37.632   2.781
73005W        W37990   8.262  11.650  12.885
73006W        W37991  37.846   1.882  14.532
73007W        W37992  40.605  10.600  14.544
73008W        W37993  40.274   8.276  14.496
73009W        W37994  39.641  24.233  13.660
73010W        W37995  31.581   2.315   1.147
73011W        W37996  28.945  12.140  11.652
73012W        W37997  39.590  28.026   1.710
73013W        W37998  36.377  32.762  10.973
73014W        W37999   9.295   0.516  11.500
73015W        W38000   1.891  36.080  12.948
73016W        W38001   3.828  19.229  13.332
73017W        W38002  20.574  15.491  12.515
73018W        W38003  23.225  42.472   0.835
73019W        W38004  35.393   1.495  13.813
73020W        W38005  26.728   1.390  13.334
73021W        W38006  13.061  11.363  14.303
73022W        W38007   7.134  20.617  14.707
73023W        W38008  24.459   0.279   2.243
73024W        W38009  15.195  38.618  12.899
73025W        W38010  10.129  29.635  11.148
73026W        W38011  10.699  26.399  13.402
73027W        W38012  15.824  22.443  14.445
73028W        W38013  13.371  17.085  13.109
73029W        W38014  18.881  11.972  10.966
73030W        W38015  23.453  41.242  11.184
73031W        W38016  43.316  24.385  10.999
73032W        W38017   9.170  35.831  12.479
73033W        W38018  39.594  28.105  14.915
73034W        W38019  23.988   2.625   1.183
73035W        W38020  44.848  27.132  13.367
73036W        W38021   1.350  43.021   3.207
73037W        W38022  12.679  15.280  11.078
73038W        W38023  43.259  13.934  12.444
73039W        W38024  34.262  28.423   2.726
73040W        W38025  15.157  28.971   0.886
73041W        W38026  10.764  44.489   1.475
73042W        W38027  23.184  15.417  12.820
73043W        W38028  14.499  17.104  12.311
73044W        W38029  24.765   2.673  14.451
73045W        W38030   6.708  17.329   3.610
73046W        W38031  31.523  10.952   1.212
73047W        W38032  14.097  27.042  12.161
73048W        W38033  18.217  24.668   3.738
73049W        W38034  40.823   0.356   3.112
73050W        W38035  41.090  36.926   0.447
73051W        W38036  25.141   3.742  12.457
73052W        W38037  42.328  10.116   4.653
73053W        W38038   8.382  30.953   4.592
73054W        W38039  25.083  35.784  13.047
73055W        W38040  18.615   1.489   1.495
73056W        W38041   3.870  21.502  11.456
73057W        W38042  35.428  11.476  11.568
73058W        W38043   9.166   6.205  14.970
73059W        W38044   6.418  31.736   2.226
73060W        W38045   9.202  24.675  12.419
73061W        W38046  22.217  42.964  12.835
73062W        W38047  32.008   1.955  10.991
73063W        W38048  18.892   5.399   3.536
73064W        W38049  10.854  37.095  10.660
73065W        W38050  37.293  27.031  13.308
73066W        W38051  25.678  30.997   0.476
73067W        W38052   2.550   3.406  13.724
73068W        W38053  31.967   4.850  13.802
73069W        W38054  11.534  44.936  13.124
73070W        W38055   9.645  32.203   0.361
73071W        W38056  14.004  18.678  13.674
73072W        W38057  40.444  20.576   3.651
73073W        W38058  12.869   4.266  12.929
73074W        W38059   3.381   3.336  13.842
73075W        W38060   2.015  13.159  12.003
73076W        W38061  24.714   0.791   1.405
73077W        W38062  41.079   8.217   0.525
73078W        W38063   7.661   8.100   4.622
73079W        W38064  36.967  34.142  12.795
73080W        W38065  11.195  29.112   3.566
73081W        W38066  12.066  23.619  11.426
73082W        W38067   0.510  22.699   4.524
73083W        W38068  32.343  41.045   4.311
73084W        W38069  37.096  26.317   0.276
73085W        W38070   3.442  33.083  14.014
73086W        W38071   5.883  28.080   2.375
73087W        W38072  41.872  15.502   1.972
73088W        W38073  37.311  35.046   1.301
73089W        W38074  29.994  19.201  13.248
73090W        W38075   7.667  32.055   4.045
73091W        W38076  42.612   4.226  14.807
73092W        W38077  37.099  40.381  13.607
73093W        W38078  13.056  18.433  11.999
73094W        W38079  16.386  25.410   2.740
73095W        W38080  14.121  42.334   1.399
73096W        W38081  15.887  39.571   3.133
73097W        W38082  41.366  12.060   0.036
73098W        W38083  22.186  10.118   4.481
73099W        W38084   0.010  13.916  13.585
73100W        W38085  28.697   0.467   2.888
73101W        W38086  31.762  38.288   0.476
73102W        W38087  25.364  32.305   3.438
73103W        W38088  22.720  24.687  11.921
73104W        W38089  18.610  21.650   4.202
73105W        W38090  32.615  23.095  13.180
73106W        W38091  41.495  32.106   3.987
73107W        W38092  34.651   4.450   0.199
73108W        W38093  33.961  27.950  11.577
73109W        W38094  10.124  10.742  10.567
73110W        W38095   0.930   2.709   1.207
73111W        W38096  41.965  34.863  13.854
73112W        W38097  28.889  36.516  14.884
73113W        W38098  25.134   8.360   2.190
73114W        W38099  38.353  26.135  14.491
73115W        W38100  19.782  26.268  11.471
73116W        W38101  35.001  27.070   3.566
73117W        W38102  23.740  15.829   2.015
73118W        W38103  31.735  29.396   4.421
73119W        W38104   1.990  23.430  14.722
73120W        W38105  39.199  27.080   4.705
73121W        W38106  32.458  14.155  12.580
73122W        W38107  10.229  22.212  13.060
73123W        W38108  16.879  38.652   1.745
73124W        W38109   5.865  31.088   4.765
73125W        W38110   9.774   2.239   2.773
73126W        W38111  17.353  43.861   1.834
73127W        W38112  38.662  31.634   0.729
73128W        W38113  17.678  40.618   5.059
73129W        W38114   2.271  11.264   1.703
73130W        W38115  41.566  16.700   0.937
73131W        W38116  10.286   2.482  12.455
73132W        W38117  30.827   2.759   0.265
73133W        W38118  37.896  23.887  12.520
73134W        W38119   8.251  34.425   4.815
73135W        W38120  23.655  28.765   3.209
73136W        W38121  34.803   8.687   2.566
73137W        W38122  18.283  38.817  10.846
73138W        W38123   3.445  13.708  11.781
73139W        W38124  13.201   8.126   2.430
73140W        W38125   8.716  44.310   3.830
73141W        W38126   9.254  38.409   1.726
73142W        W38127   4.405  31.809  10.241
73143W        W38128  18.592  18.457  13.974
73144W        W38129  30.445   4.467   3.798
73145W        W38130  44.279  43.704  14.339
73146W        W38131   3.762  26.823   4.148
73147W        W38132  36.396   3.240  13.332
73148W        W38133  10.246  31.723   1.842
73149W        W38134  34.863  13.368   5.111
73150W        W38135   6.372  17.516  13.827
73151W        W38136   7.955  14.375   2.693
73152W        W38137  36.365  30.811   0.053
73153W        W38138   7.988   3.173  13.732
73154W        W38139   4.027  24.109   4.247
73155W        W38140  33.470  26.033   0.775
73156W        W38141  33.700  43.950   0.169
73157W        W38142  29.884  26.253  14.860
73158W        W38143  44.410  13.581   3.723
73159W        W38144  28.561  13.627   0.868
73160W        W38145  30.879  31.861  13.054
73161W        W38146  15.111  35.001   2.811
73162W        W38147  33.328  15.111  13.658
73163W        W38148  11.780  30.775  12.616
73164W        W38149  30.959  11.575   9.988
73165W        W38150  44.971   6.358  13.327
73166W        W38151  40.530  29.516  12.445
73167W        W38152  43.013  19.274  12.622
73168W        W38153   1.696  42.005   3.271
73169W        W38154  23.152  38.375  12.447
73170W        W38155  28.165   1.290   2.303
73171W        W38156   2.323   5.471   2.379
73172W        W38157  28.406   0.195   5.037
73173W        W38158  26.203   7.160   2.705
73174W        W38159  10.379  13.108  14.572
73175W        W38160  24.143   6.086   4.068
73176W        W38161  22.935   1.741  12.520
73177W        W38162  35.443  24.051  11.241
73178W        W38163  24.129  20.024  10.771
73179W        W38164  19.093  33.563   1.734
73180W        W38165  27.932  14.718  11.094
73181W        W38166  39.096   4.133  14.634
73182W        W38167  16.405   6.249  14.949
73183W        W38168  30.858   5.666   0.452
73184W        W38169   0.197  29.967   1.651
73185W        W38170  26.705  17.115  10.727
73186W        W38171  24.445  30.077  11.197
73187W        W38172   6.206  13.694  11.661
73188W        W38173  22.986  40.884   2.614
73189W        W38174  25.954   5.399   1.694
73190W        W38175  15.782  10.613   3.109
73191W        W38176  27.929  11.751  14.358
73192W        W38177  19.261  32.532  10.746
73193W        W38178   1.702   1.115   1.679
73194W        W38179  27.046  32.472   3.215
73195W        W38180  36.955  28.122   2.748
73196W        W38181   6.965  25.668   1.615
73197W        W38182  43.806  38.364   2.389
73198W        W38183  38.215  31.258   4.785
73199W        W38184  43.593  36.631   4.926
73200W        W38185  41.583  24.535   9.952
73201W        W38186  14.059  30.705  14.821
73202W        W38187  18.213  32.863  11.988
73203W        W38188  17.053  44.274   3.597
73204W        W38189  33.450  14.483   3.854
73205W        W38190   3.002   7.354  14.828
73206W        W38191  29.686  44.526  13.380
73207W        W38192  43.802  12.428   4.130
73208W        W38193  39.480  21.794   2.332
73209W        W38194   0.888   9.197  14.803
73210W        W38195  39.015  44.303  12.676
73211W        W38196  27.525  27.689   4.822
73212W        W38197  39.483   6.023   3.158
73213W        W38198  13.628   4.766   3.583
73214W        W38199   9.821  14.909  13.118
73215W        W38200   6.423  15.391  11.430
73216W        W38201  24.571  31.947  12.197
73217W        W38202  38.555   5.337  10.304
73218W        W38203  11.209  16.912   3.411
73219W        W38204   8.810   7.378  13.032
73220W        W38205   8.510   9.581   0.747
73221W        W38206   9.069  26.110   4.543
73222W        W38207   5.496  33.783  14.349
73223W        W38208  16.210   5.221   2.628
73224W        W38209  16.523  27.663   2.309
73225W        W38210  32.417  24.490  14.836
73226W        W38211  21.522  25.112   5.081
73227W        W38212  16.290  35.976  13.434
73228W        W38213   1.817  41.406   1.099
73229W        W38214  15.281  41.784   3.620
73230W        W38215  12.279  30.193   0.835
73231W        W38216  33.336   2.975  11.293
73232W        W38217   8.430   5.243  14.401
73233W        W38218  31.036  41.954  12.258
73234W        W38219  30.245  16.733  10.880
73235W        W38220  18.828  23.082   2.773
73236W        W38221  32.680  13.137   5.043
73237W        W38222   9.784  24.440  11.192
73238W        W38223  22.821  13.808   3.150
73239W        W38224  28.653  33.097  13.971
73240W        W38225  41.336  20.755   0.249
73241W        W38226  44.416   0.198   3.679
73242W        W38227  24.129  16.368  12.442
73243W        W38228  40.081   6.600  11.710
73244W        W38229  40.332   5.221   2.255
73245W        W38230  16.027  33.562   1.881
73246W        W38231  41.553  21.709   2.303
73247W        W38232  41.355  22.975  14.447
73248W        W38233  15.012  34.685  14.894
73249W        W38234  18.023  38.188  13.335
73250W        W38235  15.319  25.682  13.457
73251W        W38236  13.172   0.619  10.830
73252W        W38237  28.374  23.548   2.809
73253W        W38238  34.874  25.976   1.260
73254W        W38239  34.844  11.617  13.763
73255W        W38240   0.706  17.300   4.801
73256W        W38241  37.913  17.827   1.410
73257W        W38242  11.637   9.449  10.766
73258W        W38243  21.081  27.444   0.253
73259W        W38244   6.157  29.906  13.969
73260W        W38245  42.078  32.061  14.014
73261W        W38246  40.235  41.582  11.585
73262W        W38247  24.608  20.684  11.825
73263W        W38248  31.769  40.865  10.783
73264W        W38249  28.424  35.895   2.638
73265W        W38250  12.690  24.607   0.852
73266W        W38251  35.468  16.588   1.303
73267W        W38252  39.956  31.675   1.107
73268W        W38253  35.799   2.824   2.724
73269W        W38254   8.660  30.245  11.071
73270W        W38255  22.511  32.764   5.264
73271W        W38256  38.357  35.051  11.337
73272W        W38257   4.988  40.466  10.285
73273W        W38258  43.697  11.664   0.724
73274W        W38259   3.699   4.175  14.077
73275W        W38260   9.856  14.575  13.513
73276W        W38261  29.751  44.485  10.347
73277W        W38262  29.460  32.569  10.675
73278W        W38263  43.536  22.768   2.730
73279W        W38264  14.058  18.716  10.766
73280W        W38265  19.642  31.712  11.907
73281W        W38266  19.771  25.764  13.565
73282W        W38267  20.307   7.357   1.884
73283W        W38268  11.146  12.868   3.785
73284W        W38269  41.116  37.328  11.975
73285W        W38270  39.584  30.349  11.816
73286W        W38271   4.919  18.470  14.257
73287W        W38272  24.565  35.972  14.015
73288W        W38273  34.367  23.733  13.910
73289W        W38274  41.094  31.648   3.294
73290W        W38275   7.639  26.187   1.970
73291W        W38276  22.039  33.740  12.038
73292W        W38277  42.835   1.797   0.976
73293W        W38278  41.989  14.153   1.890
73294W        W38279  26.664  23.762  13.449
73295W        W38280  20.124  21.533  11.530
73296W        W38281  42.955  20.841   2.677
73297W        W38282  17.222  35.523  10.474
73298W        W38283  19.440  44.405   2.217
73299W        W38284  29.353  19.573  12.656
73300W        W38285  43.381  40.767   3.856
73301W        W38286  18.724   4.806   4.564
73302W        W38287   5.973  24.077  13.803
73303W        W38288  38.544  38.594   0.480
73304W        W38289  14.179  15.760  13.069
73305W        W38290  11.289  16.411   3.543
73306W        W38291  36.166  35.548  11.114
73307W        W38292  31.489  31.392  11.921
73308W        W38293  38.977   3.557   1.775
73309W        W38294  36.974   3.438   1.874
73310W        W38295   0.013  44.805  14.080
73311W        W38296  24.945  17.487  11.149
73312W        W38297  37.534  20.075   1.243
73313W        W38298  44.093   7.424   0.282
73314W        W38299  18.856  30.148  12.611
73315W        W38300  24.275  42.740  14.350
73316W        W38301   2.738  32.043  13.850
73317W        W38302  16.467  18.189   3.258
73318W        W38303  20.910  42.648   4.062
73319W        W38304   4.603   8.214   4.654
73320W        W38305  13.340  33.450   4.113
73321W        W38306   9.907  30.182   1.715
73322W        W38307   2.826  15.825  13.457
73323W        W38308  26.006  31.336  13.441
73324W        W38309   1.990  14.951  11.161
73325W        W38310  17.150  15.169   2.575
73326W        W38311  26.502  11.536  11.732
73327W        W38312  19.096   9.541  11.197
73328W        W38313  17.547  19.761  13.691
73329W        W38314  41.378  15.614   5.435
73330W        W38315  29.036  25.777  11.889
73331W        W38316  11.397   3.085  14.894
73332W        W38317  15.605  10.535  14.737
73333W        W38318  18.463  41.965   4.396
73334W        W38319  16.727  24.749  13.776
73335W        W38320  15.704  32.541  11.682
73336W        W38321  24.210  22.061  11.117
73337W        W38322  23.444   2.207   3.439
73338W        W38323  32.583  25.668  11.513
73339W        W38324  43.022  21.881   9.880
73340W        W38325  24.332  26.457   2.806
73341W        W38326  38.443  17.002   4.719
73342W        W38327  43.387  18.459  12.926
73343W        W38328  10.187  13.276  11.576
73344W        W38329  25.026  26.084  11.164
73345W        W38330   0.951  26.612   4.990
73346W        W38331  36.321  29.953   3.249
73347W        W38332  21.843   2.263   2.412
73348W        W38333  24.999  16.274   0.304
73349W        W38334   0.661  25.738   0.083
73350W        W38335  38.405  44.849   2.209
73351W        W38336   0.039  44.316   2.876
73352W        W38337   8.113   8.882   4.758
73353W        W38338   7.932  31.083   0.897
73354W        W38339   4.074   6.183   3.791
73355W        W38340   9.857  14.739   1.374
73356W        W38341   7.159   4.195  11.712
73357W        W38342  29.656   3.012  12.344
73358W        W38343  16.075  39.322  11.570
73359W        W38344  14.778  40.512   0.273
73360W        W38345  29.208  22.833  11.225
73361W        W38346  29.510  27.992  13.290
73362W        W38347  40.633  44.867  11.192
73363W        W38348  25.515  16.188   2.296
73364W        W38349  10.838  29.919   0.985
73365W        W38350  22.318  18.055  11.974
73366W        W38351   2.979  14.818   4.205
73367W        W38352   7.142   5.036  14.319
73368W        W38353  42.956  23.953   3.096
73369W        W38354  39.295   6.194  10.778
73370W        W38355  18.941  22.945  14.898
73371W        W38356  13.576   7.053  10.028
73372W        W38357   6.679  16.686   1.928
73373W        W38358  27.899  37.512  13.115
73374W        W38359  36.339  25.076   2.266
73375W        W38360  41.803  21.576   0.272
73376W        W38361  23.261  12.906  11.060
73377W        W38362  29.940  23.083   3.299
73378W        W38363   4.188  28.562   2.368
73379W        W38364  30.027  11.135   0.757
73380W        W38365  37.659  13.413   4.564
73381W        W38366  30.533  41.261   2.287
73382W        W38367   4.863   6.520   3.622
73383W        W38368   4.861  15.293  10.445
73384W        W38369  41.998  19.206   0.765
73385W        W38370  11.825  31.919   4.199
73386W        W38371  33.527  27.018  10.794
73387W        W38372  24.619  15.094   3.806
73388W        W38373  42.996   0.310  12.078
73389W        W38374  12.345  12.637  12.002
73390W        W38375   1.359  41.481   0.809
73391W        W38376   4.514   3.187  12.755
73392W        W38377  24.498  32.886   4.179
73393W        W38378  31.987  11.901  11.845
73394W        W38379  14.308  44.308  12.905
73395W        W38380  18.663   4.880   1.280
73396W        W38381   0.195  13.202  12.555
73397W        W38382  29.647  22.176  14.646
73398W        W38383  43.483  37.320   3.702
73399W        W38384  15.170  29.489   1.169
73400W        W38385   0.992  15.640   9.995
73401W        W38386  19.037   5.152   2.356
73402W        W38387  32.948  38.515  14.597
73403W        W38388  17.731  11.908  11.640
73404W        W38389   9.167  23.770  14.309
73405W        W38390  14.191  21.648   3.074
73406W        W38391   0.790  31.975   4.537
73407W        W38392  26.786   6.521   3.446
73408W        W38393  27.839  36.065   3.756
73409W        W38394  44.442   1.240  11.484
73410W        W38395   3.757   5.698   3.619
73411W        W38396  25.135   3.621   1.920
73412W        W38397   8.457   4.357  14.496
73413W        W38398  25.973  20.005   4.191
73414W        W38399  22.967  13.088   3.658
73415W        W38400  18.850  26.728   4.806
73416W        W38401  38.353  35.682  12.522
73417W        W38402  31.016  25.548   0.094
73418W        W38403  13.756  36.841  12.383
73419W        W38404   9.248  19.697  11.147
73420W        W38405  12.627  43.137  13.424
73421W        W38406  13.081   2.401   2.364
73422W        W38407  32.499  41.273  12.115
73423W        W38408  28.991  26.337   2.302
73424W        W38409  29.085  16.648   0.839
73425W        W38410  34.797  39.522  14.937
73426W        W38411  21.079   8.945  13.539
73427W        W38412  33.234  35.981  14.380
73428W        W38413  22.155  10.585   3.632
73429W        W38414  39.607  26.131  14.911
73430W        W38415  14.044  13.938   4.117
73431W        W38416   1.211   7.168  13.382
73432W        W38417   7.217  24.210  13.441
73433W        W38418   5.224   1.074   2.701
73434W        W38419  18.498  15.520   0.727
73435W        W38420  18.688  36.310   2.174
73436W        W38421  40.807  30.628  12.579
73437W        W38422  34.219  17.348  13.698
73438W        W38423  20.688   9.150  14.223
73439W        W38424  39.225  11.234  11.098
73440W        W38425  43.009  28.467   0.460
73441W        W38426   1.686   8.425  13.593
73442W        W38427  22.634  17.210  13.438
73443W        W38428  41.443   4.236   4.121
73444W        W38429  43.872  31.018  11.686
73445W        W38430  28.197  32.465  11.079
73446W        W38431   8.921  13.646  10.771
73447W        W38432   3.548   5.997   4.949
73448W        W38433   3.467  38.201   1.020
73449W        W38434  19.810   0.774   3.128
73450W        W38435  36.039   1.738   0.692
73451W        W38436  22.233  37.868  11.575
73452W        W38437  29.456  40.445   3.475
73453W        W38438   4.348  38.460  12.610
73454W        W38439   8.968  24.191   1.268
73455W        W38440  40.839  36.436  12.373
73456W        W38441  23.364  25.284  11.017
73457W        W38442  25.663  17.213   4.125
73458W        W38443  33.591  13.596   4.681
73459W        W38444   0.845   3.173   3.604
73460W        W38445  22.248   7.112  13.253
73461W        W38446  12.346  25.928  13.515
73462W        W38447   9.915  34.031   2.722
73463W        W38448  42.607  10.067   0.403
73464W        W38449  20.010  14.628   3.411
73465W        W38450  41.883  31.599   0.737
73466W        W38451  14.471  15.341   1.018
73467W        W38452  39.735  18.152  12.369
73468W        W38453  24.987  16.163   1.479
73469W        W38454  12.639   4.930   4.041
73470W        W38455  33.437   4.375   0.363
73471W        W38456  16.668  12.442   4.748
73472W        W38457  10.614  30.116  14.770
73473W        W38458  19.059   5.787  13.071
73474W        W38459  10.227  41.063  11.679
73475W        W38460  12.361   0.456   4.282
73476W        W38461  15.279  25.672   2.250
73477W        W38462   2.135  17.272  11.852
73478W        W38463  32.177  18.065   2.120
73479W        W38464   1.591  23.759  12.892
73480W        W38465   8.604  14.677  10.687
73481W        W38466  24.687  33.856  14.441
73482W        W38467  17.966   0.313   5.121
73483W        W38468  41.340   7.822   2.814
73484W        W38469  29.139  35.386   2.186
73485W        W38470  17.924  16.812  13.310
73486W        W38471  34.708   5.780  11.095
73487W        W38472  19.642  10.228   4.899
73488W        W38473  17.642   7.343  13.549
73489W        W38474  33.103   6.844  13.372
73490W        W38475  35.570  27.514   3.050
73491W        W38476  44.898   8.712  13.715
73492W        W38477  36.509   8.890   0.825
73493W        W38478  35.102  21.189  12.845
73494W        W38479   2.516  28.599   3.949
73495W        W38480  40.840  28.247   3.991
73496W        W38481  27.994  37.562   0.479
73497W        W38482  11.861   9.062  14.485
73498W        W38483  33.017   5.649  10.735
73499W        W38484  38.491  13.466   2.509
73500W        W38485  44.256   9.757  13.460
73501W        W38486  20.833   0.190   3.609
73502W        W38487  27.119  44.676   3.668
73503W        W38488  11.733  30.684  13.487
73504W        W38489   8.817  41.565   0.917
73505W        W38490  36.545   0.714  11.952
73506W        W38491  36.658  26.954   2.761
73507W        W38492  24.772  42.181  12.002
73508W        W38493  34.970   2.912  12.551
73509W        W38494   8.222  39.450   4.579
73510W        W38495  23.269   0.018  14.329
73511W        W38496  32.395   0.411  14.744
73512W        W38497  13.748  36.803   0.114
73513W        W38498   7.856  43.383  13.898
73514W        W38499  14.841  42.075   3.548
73515W        W38500  25.234  13.201  14.471
73516W        W38501  15.256   2.342   3.856
73517W        W38502  35.774  38.298  13.834
73518W        W38503  16.163  24.503   1.399
73519W        W38504   7.222   0.918  14.462
73520W        W38505   4.735  27.580  10.478
73521W        W38506  35.412   3.719  12.650
73522W        W38507   7.276   9.847   3.968
73523W        W38508   4.844  43.024  12.066
73524W        W38509  34.816  27.228   4.546
73525W        W38510  26.135  19.071   0.518
73526W        W38511  25.727  37.798   0.856
73527W        W38512  36.088  12.345   1.016
73528W        W38513   3.107  22.677   0.786
73529W        W38514  25.298  41.602   0.002
73530W        W38515  23.020  24.687  13.465
73531W        W38516  42.326  23.734   1.678
73532W        W38517  33.018  23.085  11.506
73533W        W38518  36.535  16.641  13.947
73534W        W38519  40.382   9.807   1.612
73535W        W38520  30.636   0.827   1.801
73536W        W38521   5.887  23.013   2.404
73537W        W38522  12.181  19.927   4.538
73538W        W38523  11.773  43.518  14.377
73539W        W38524  24.935  43.528   5.044
73540W        W38525  40.906  33.327   5.077
73541W        W38526  44.935  23.728  13.809
73542W        W38527   9.748  41.749   4.872
73543W        W38528  17.563   2.011  12.919
73544W        W38529  10.369  11.631   0.275
73545W        W38530  44.070  14.387   2.802
73546W        W38531  20.924  26.598   0.327
73547W        W38532  12.746   7.612   1.610
73548W        W38533  22.403  20.011   0.736
73549W        W38534  33.829  24.137   1.330
73550W        W38535  25.610  16.348  11.232
73551W        W38536  12.892  41.141  14.505
73552W        W38537  19.229  40.968  13.132
73553W        W38538  10.260  40.507   2.057
73554W        W38539  20.998  25.458   4.605
73555W        W38540  19.686  27.858   3.439
73556W        W38541  38.567  26.394   3.207
73557W        W38542  43.662  23.104   4.474
73558W        W38543  26.360  24.541  14.734
73559W        W38544   2.912  11.260   2.847
73560W        W38545  36.668  21.923  11.215
73561W        W38546  33.407  39.334   3.355
73562W        W38547  18.647   0.515  14.051
73563W        W38548   2.274  11.635   0.929
73564W        W38549  22.308   0.179   1.219
73565W        W38550   9.099  28.057   2.867
73566W        W38551  14.608  18.965  14.419
73567W        W38552  27.947  13.544  10.693
73568W        W38553  41.628   0.169  11.087
73569W        W38554  25.461  23.673  12.872
73570W        W38555  28.187  27.896   3.899
73571W        W38556  31.428  35.951   3.725
73572W        W38557   8.148   8.280  14.322
73573W        W38558  17.777  36.578   4.649
73574W        W38559  12.293   8.824   3.569
73575W        W38560  28.160   2.757  14.998
73576W        W38561   4.846  42.518   4.196
73577W        W38562   0.329  29.036   2.674
73578W        W38563  33.321  23.071   1.095
73579W        W38564  28.489  17.803  11.048
73580W        W38565   7.214  24.585   4.679
73581W        W38566  15.015  12.198   1.108
73582W        W38567  17.560  17.794   1.431
73583W        W38568   5.484  24.637   3.646
73584W        W38569   9.743  41.498  10.554
73585W        W38570   7.301   3.654  10.267
73586W        W38571  25.174   9.125  12.405
73587W        W38572  33.428  28.190   0.007
73588W        W38573  43.813  10.864   1.705
73589W        W38574   3.798  35.469   1.266
73590W        W38575  12.474  37.293  13.568
73591W        W38576  21.694  43.417  14.040
73592W        W38577   3.316  40.589  10.622
73593W        W38578  15.441  32.000  11.997
73594W        W38579  43.374   7.179  10.684
73595W        W38580  40.676   9.021   4.893
73596W        W38581  38.090  41.454   0.772
73597W        W38582  27.687  18.788  14.496
73598W        W38583  20.668   8.843   0.971
73599W        W38584   2.248  10.693   2.870
73600W        W38585  21.140  11.372   1.346
73601W        W38586  38.299  10.252   1.533
73602W        W38587   5.476   4.294   2.615
73603W        W38588  32.980   5.939   5.022
73604W        W38589   9.663  41.515  11.901
73605W        W38590  38.050  36.076   2.168
73606W        W38591  22.574   4.951   0.021
73607W        W38592  33.782  26.141   2.236
73608W        W38593  31.376  27.372   4.855
73609W        W38594  26.052   4.289   1.249
73610W        W38595   3.102  39.280   1.367
73611W        W38596   4.711  40.040  12.040
73612W        W38597   3.428  44.597  14.307
73613W        W38598  24.643  23.863  10.440
73614W        W38599  38.850  37.403  12.552
73615W        W38600  38.036  42.982  14.463
73616W        W38601  33.801  36.864   3.785
73617W        W38602  22.996  10.454  10.697
73618W        W38603   8.841  14.838  13.439
73619W        W38604  18.508  31.888   4.214
73620W        W38605  34.884  41.765   0.003
73621W        W38606  12.278  28.644   1.614
73622W        W38607  19.238   2.204  12.153
73623W        W38608  39.045  41.921   4.614
73624W        W38609  15.535  42.040   2.782
73625W        W38610   4.994   5.723   1.695
73626W        W38611  14.420  41.268   4.583
73627W        W38612  28.581  27.894  10.953
73628W        W38613  23.891  23.558  14.937
73629W        W38614  44.945  19.223   4.384
73630W        W38615   3.203  39.638  13.587
73631W        W38616  33.112  32.125  10.706
73632W        W38617  17.108  22.012   2.787
73633W        W38618   4.650  31.243  12.776
73634W        W38619   2.965  41.924   2.751
73635W        W38620   1.603  25.333   1.443
73636W        W38621  22.842  10.561  12.376
73637W        W38622  21.235  44.288  12.335
73638W        W38623  27.670  13.119   0.847
73639W        W38624  24.007   4.846  10.343
73640W        W38625  15.225   0.683  13.982
73641W        W38626   4.377  43.425  11.581
73642W        W38627  40.636   4.140  12.468
73643W        W38628  28.647  25.633   2.608
73644W        W38629  10.638  43.395  13.027
73645W        W38630   2.456  15.915   9.911
73646W        W38631  13.599  23.511  10.676
73647W        W38632  14.761  37.505  10.687
73648W        W38633  30.053   9.380   0.581
73649W        W38634  20.331  43.843   0.557
73650W        W38635   6.864  39.089  14.492
73651W        W38636  37.543   9.291   1.718
73652W        W38637  32.751   5.821   2.098
73653W        W38638  35.825  24.289   1.204
73654W        W38639  25.012  17.856   3.280
73655W        W38640  32.933   9.333   1.395
73656W        W38641  24.481  20.679  13.442
73657W        W38642  35.024  17.547   4.641
73658W        W38643  18.794  24.104   4.713
73659W        W38644  23.096  23.203   3.275
73660W        W38645  27.415  17.969  12.248
73661W        W38646  13.972  27.289  14.999
73662W        W38647   5.396  22.335  13.513
73663W        W38648   5.367  38.547   0.856
73664W        W38649  34.423  21.066  13.749
73665W        W38650   7.355  44.576   5.046
73666W        W38651  11.126  14.202   1.315
73667W        W38652  36.761   1.797   4.700
73668W        W38653   4.727  10.778  10.801
73669W        W38654  32.537  43.513  14.433
73670W        W38655   2.527   3.253  10.626
73671W        W38656  21.475  12.760  12.385
73672W        W38657  41.274  29.573  14.609
73673W        W38658   6.990   9.357   4.120
73674W        W38659  32.103  36.469  11.521
73675W        W38660  28.649  35.511   1.677
73676W        W38661  15.856  21.734  13.942
73677W        W38662  21.240  19.703   3.605
73678W        W38663   9.825  24.786  10.726
73679W        W38664  27.083  31.782  12.962
73680W        W38665  30.224  15.144   2.597
73681W        W38666  31.718  12.692  11.110
73682W        W38667  15.804   6.284  12.925
73683W        W38668  19.744   1.885  10.760
73684W        W38669  40.261  30.120   2.086
73685W        W38670  27.808  25.846   0.954
73686W        W38671  34.971  22.687   2.012
73687W        W38672  27.397  36.173   3.176
73688W        W38673  29.892  13.197  12.023
73689W        W38674  32.826   3.274   0.906
73690W        W38675   0.933   6.749   1.356
73691W        W38676  40.899  13.842   5.154
73692W        W38677   2.777  34.348   2.207
73693W        W38678  32.904  34.999  11.505
73694W        W38679  13.730  18.564   3.795
73695W        W38680  27.166  27.825   4.447
73696W        W38681  40.032  25.127  12.897
73697W        W38682  30.876  36.441   3.427
73698W        W38683  28.374  22.759   4.091
73699W        W38684   8.344  21.768   0.885
73700W        W38685  26.291  37.511  12.034
73701W        W38686  33.641  41.959   1.254
73702W        W38687  18.147  44.781   3.731
73703W        W38688   4.688  22.280   0.440
73704W        W38689  13.822  21.465  11.573
73705W        W38690  37.899  26.917  13.330
73706W        W38691   5.396  13.374  11.134
73707W        W38692  26.886   3.467  11.221
73708W        W38693  33.556  26.409  13.439
73709W        W38694  30.622   1.091  11.367
73710W        W38695  37.851  34.566  12.582
73711W        W38696  19.631   5.229  14.807
73712W        W38697  41.174  21.116   4.518
73713W        W38698  31.878  16.335  14.334
73714W        W38699  10.435   4.808  11.963
73715W        W38700  42.961  32.380   4.094
73716W        W38701  32.226  42.384  11.441
73717W        W38702  13.827  19.940  13.471
73718W        W38703  11.254  22.795   0.775
73719W        W38704  28.148  12.255  11.430
73720W        W38705   9.931  36.759  13.446
73721W        W38706  23.227  16.848  12.639
73722W        W38707  30.929   9.682   2.248
73723W        W38708  34.102  24.257  12.003
73724W        W38709  19.641  16.767   0.482
73725W        W38710  35.677   9.806   2.295
73726W        W38711  14.718  38.658   0.233
73727W        W38712  22.488   6.932   0.403
73728W        W38713  29.242   2.162  12.502
73729W        W38714  21.728  21.580   0.828
73730W        W38715  39.405  29.661  12.464
73731W        W38716   7.977   1.240   2.660
73732W        W38717  15.620  13.419   0.247
73733W        W38718  18.301   9.719  11.317
73734W        W38719   4.726   6.952  12.171
73735W        W38720  32.575  22.779  11.109
73736W        W38721  25.432  41.548   3.185
73737W        W38722  14.640  32.416  14.401
73738W        W38723   8.896  33.381  10.694
73739W        W38724  22.999  19.705  12.394
73740W        W38725  10.054  13.629   3.984
73741W        W38726   2.227  14.131  12.530
73742W        W38727  38.743  17.200   2.638
73743W        W38728  21.523   0.860  14.930
73744W        W38729  37.259  32.020   4.103
73745W        W38730  13.404  21.109  11.592
73746W        W38731  34.158  39.098   2.391
73747W        W38732  21.785   2.728  14.812
73748W        W38733  31.059  27.772   4.981
73749W        W38734  38.589   8.652   4.056
73750W        W38735  15.037  29.635   0.267
73751W        W38736  13.474  17.681  11.711
73752W        W38737   2.230  42.943   0.549
73753W        W38738   5.218  28.066   9.924
73754W        W38739  14.710  21.516   3.701
73755W        W38740  13.736  22.931   1.976
73756W        W38741  15.833  32.605  14.967
73757W        W38742  39.913  15.734  11.038
73758W        W38743   3.326  22.638  13.677
73759W        W38744  19.073  17.012   3.537
73760W        W38745  19.801   3.227   3.527
73761W        W38746  22.702  35.996  10.246
73762W        W38747  15.886  26.468   2.739
73763W        W38748  11.340   6.115   0.305
73764W        W38749  27.216  16.130  11.039
73765W        W38750   1.524   5.546  11.592
73766W        W38751  20.527  39.292   0.004
73767W        W38752  24.065  37.343  13.562
73768W        W38753  16.317  41.822  12.909
73769W        W38754  31.936  26.251  10.828
73770W        W38755   9.386   6.880   2.969
73771W        W38756  31.927  10.137   3.230
73772W        W38757  30.528   0.265   3.076
73773W        W38758   2.349  14.087  13.446
73774W        W38759  34.507  30.336  11.639
73775W        W38760  10.788   0.785   1.154
73776W        W38761  33.458   6.750   0.529
73777W        W38762  11.404  32.455  13.406
73778W        W38763  40.592  25.474   0.324
73779W        W38764  34.590  38.072   0.600
73780W        W38765   5.322  40.407   2.642
73781W        W38766  25.639   0.750  12.811
73782W        W38767  30.097  21.003  10.224
73783W        W38768  15.608   6.268   1.642
73784W        W38769   4.415   7.237  13.989
73785W        W38770  29.127  35.411  14.071
73786W        W38771   0.291  23.070   0.186
73787W        W38772  42.240  42.305  10.447
73788W        W38773  31.700  39.267   0.178
73789W        W38774  31.345  35.010   2.200
73790W        W38775  30.650  17.226  14.430
73791W        W38776  34.619  41.289  14.341
73792W        W38777   8.843   4.725   3.288
73793W        W38778  14.158  43.134  12.277
73794W        W38779  31.530   8.936   1.818
73795W        W38780  20.816  15.010   4.443
73796W        W38781   4.029   5.113   3.664
73797W        W38782   2.925  30.899  10.765
73798W        W38783  33.672  24.510   3.703
73799W        W38784  29.172   7.850  13.454
73800W        W38785  41.446   6.930   4.886
73801W        W38786  42.317   2.990   4.049
73802W        W38787   1.288  10.224  12.310
73803W        W38788  44.870  15.009  10.749
73804W        W38789  39.273  18.381   3.688
73805W        W38790  13.595  34.308  13.966
73806W        W38791  28.969  33.132   3.209
73807W        W38792  11.385   5.055   1.501
73808W        W38793   7.742  20.244  11.200
73809W        W38794  16.612   2.675   0.198
73810W        W38795   4.822  35.855  14.184
73811W        W38796   9.516  41.571   4.398
73812W        W38797   6.820  18.497  12.140
73813W        W38798  15.311   8.188   0.776
73814W        W38799  24.286  23.110   1.670
73815W        W38800  23.463  31.062   1.879
73816W        W38801  13.845  42.364  12.536
73817W        W38802  37.436  31.345   0.800
73818W        W38803  19.183  20.305  14.630
73819W        W38804  10.327  30.708   3.205
73820W        W38805  28.565   9.270  10.948
73821W        W38806  17.638  16.824   4.912
73822W        W38807  33.003   8.682  13.037
73823W        W38808  18.966   3.856  14.057
73824W        W38809  43.578  40.901   0.548
73825W        W38810  25.715   7.454  13.886
73826W        W38811  30.951  23.299   3.994
73827W        W38812  43.455  16.768   1.649
73828W        W38813  27.993   2.694  13.495
73829W        W38814   1.113   4.493  14.839
73830W        W38815  43.916  21.666   3.114
73831W        W38816  33.444  27.720  12.957
73832W        W38817  27.570   8.759   1.326
73833W        W38818  13.073   4.182  14.524
73834W        W38819  17.190  40.470  11.492
73835W        W38820   9.722   1.941   1.591
73836W        W38821  16.138  22.568   3.796
73837W        W38822   9.871  28.790  12.006
73838W        W38823  28.994  36.390  12.637
73839W        W38824  23.263  23.658  13.433
73840W        W38825  13.182  24.905   3.841
73841W        W38826   1.528  42.755   4.113
73842W        W38827  31.897  32.168   0.870
73843W        W38828  37.743  40.724   0.465
73844W        W38829  28.343  13.188  10.940
73845W        W38830  14.820  29.684  10.825
73846W        W38831  31.829  22.032  13.190
73847W        W38832   6.557  23.047   0.762
73848W        W38833  44.907  37.084   3.137
73849W        W38834  30.304  25.140   0.490
73850W        W38835  40.774  37.656  14.780
73851W        W38836  33.665  42.249   4.667
73852W        W38837  29.699  36.923   1.419
73853W        W38838  29.118   4.284  12.072
73854W        W38839  20.048   2.489   0.380
73855W        W38840  21.770  43.102  14.455
73856W        W38841   2.524  35.587  11.820
73857W        W38842  44.341   1.194  14.265
73858W        W38843  18.792  43.717   3.282
73859W        W38844  41.464  35.769  14.080
73860W        W38845  44.772  26.947   2.305
73861W        W38846  43.890  25.402  11.891
73862W        W38847   9.439  42.578   4.851
73863W        W38848  18.045   2.206  12.748
73864W        W38849  13.229   0.763   0.086
73865W        W38850  44.962  43.381   3.454
73866W        W38851  13.746  35.573   3.211
73867W        W38852  37.016  34.364  11.453
73868W        W38853  28.481  17.620  14.737
73869W        W38854  40.565  44.071  11.464
73870W        W38855  30.020   3.252  13.093
73871W        W38856  41.328  27.165   4.953
73872W        W38857  23.158  26.955   1.221
73873W        W38858  37.526  35.643   3.061
73874W        W38859  24.400   0.416   1.202
73875W        W38860  20.237   7.125  12.307
73876W        W38861  38.754   7.749  12.459
73877W        W38862  36.825  29.036  12.795
73878W        W38863  30.389   2.023   0.908
73879W        W38864  22.606  41.239  11.240
73880W        W38865  26.015  44.947  12.615
73881W        W38866  34.921   0.700  13.832
73882W        W38867  15.225   4.568  14.623
73883W        W38868  28.126  32.966  14.727
73884W        W38869  16.390  38.848  14.980
73885W        W38870   5.931  27.155  10.942
73886W        W38871  41.037  12.687  13.114
73887W        W38872  27.057  38.372   3.711
73888W        W38873  15.832   1.215  10.741
73889W        W38874  25.114   9.081  13.862
73890W        W38875  35.104  27.424  13.805
73891W        W38876  40.220  15.828  12.614
73892W        W38877  21.213  36.662   1.402
73893W        W38878   9.302  41.331  14.487
73894W        W38879  20.526  37.225  11.984
73895W        W38880   0.496  20.644  11.855
73896W        W38881  40.226  18.355  11.833
73897W        W38882  17.240  40.227  13.917
73898W        W38883  21.015  33.094  13.031
73899W        W38884   9.885  22.550   4.057
73900W        W38885   1.508  41.305  12.801
73901W        W38886   9.550   6.841  11.188
73902W        W38887  17.439  19.697  12.816
73903W        W38888  37.035   4.650   0.277
73904W        W38889  17.653   4.134   2.923
73905W        W38890  44.055   5.659   4.025
73906W        W38891  34.351  39.418   1.419
73907W        W38892  11.342  44.986  14.723
73908W        W38893  41.607  17.290  11.906
73909W        W38894   1.837   1.923   4.549
73910W        W38895   2.427   3.362  13.040
73911W        W38896  35.758  40.467  12.185
73912W        W38897  11.955  36.957   4.221
73913W        W38898  26.628  27.518   1.268
73914W        W38899  28.870   6.006   0.398
73915W        W38900  18.360  20.881  13.564
73916W        W38901  39.036  25.635   3.162
73917W        W38902  26.021  14.372   1.720
73918W        W38903  39.374  34.608  12.095
73919W        W38904  22.737   7.167   0.871
73920W        W38905   2.008  33.080   1.608
73921W        W38906   3.677  36.325   0.303
73922W        W38907   4.222  27.229  12.442
73923W        W38908  26.617   8.766  12.465
73924W        W38909  10.945  31.320   3.498
73925W        W38910   1.415  21.969   1.280
73926W        W38911   6.637  10.335  13.855
73927W        W38912  30.052  42.033   1.766
73928W        W38913   3.235  21.610   0.215
73929W        W38914  26.684   4.871   1.184
73930W        W38915  29.502  37.098   0.945
73931W        W38916  37.468  14.333  12.560
73932W        W38917  24.622   1.714   0.743
73933W        W38918   4.759  44.400   2.767
73934W        W38919  31.474  14.647  11.793
73935W        W38920  33.224   2.882  10.667
73936W        W38921   5.724   9.709   4.595
73937W        W38922  39.552  42.072   0.593
73938W        W38923   2.403  40.579   0.002
73939W        W38924  40.013  24.287   0.254
73940W        W38925  37.400   9.776   1.889
73941W        W38926  15.716  32.976  11.445
73942W        W38927  26.669  41.835   1.349
73943W        W38928  19.066  35.959   1.647
73944W        W38929  18.322  29.697  14.440
73945W        W38930  25.754  16.678   4.012
73946W        W38931  41.972   3.726   2.873
73947W        W38932  18.820  16.790   4.675
73948W        W38933  44.525  17.318  14.348
73949W        W38934   9.187  35.071   4.147
73950W        W38935  24.808   1.108   3.790
73951W        W38936  16.571   5.055  11.217
73952W        W38937   6.821  24.586   1.490
73953W        W38938  39.926  29.540  12.519
73954W        W38939  21.559  34.923  12.101
73955W        W38940  28.155  11.598  10.272
73956W        W38941  34.996  14.374  12.581
73957W        W38942   9.536  36.082  14.361
73958W        W38943  10.710  14.821  11.427
73959W        W38944  41.139  26.012  10.314
73960W        W38945  26.067   4.706  12.406
73961W        W38946  20.397  40.672   0.690
73962W        W38947  30.677  34.977  13.921
73963W        W38948  28.041  22.113   3.315
73964W        W38949  37.429  14.750   3.820
73965W        W38950   9.841   6.401   0.509
73966W        W38951  41.325  23.297  14.902
73967W        W38952  34.951   4.984  12.491
73968W        W38953   6.716  31.994   1.873
73969W        W38954  11.327  19.481   0.846
73970W        W38955  24.672  35.032  12.126
73971W        W38956  39.271   3.211   2.692
73972W        W38957  33.847  12.669   0.844
73973W        W38958   9.356  26.497   4.352
73974W        W38959  27.349  35.472  12.887
73975W        W38960  32.456  28.965  10.135
73976W        W38961  20.137  11.662  11.294
73977W        W38962   7.813  11.854   1.373
73978W        W38963   7.964  14.635  13.922
73979W        W38964  22.325   6.976   1.732
73980W        W38965   9.222  10.201   2.860
73981W        W38966   1.839  33.308  13.644
73982W        W38967  15.282  14.155   0.621
73983W        W38968   1.099  36.897  11.497
73984W        W38969  15.357  27.017   2.635
73985W        W38970  20.680   6.613   3.271
73986W        W38971  37.391  41.453  11.082
73987W        W38972   7.177  12.714  14.520
73988W        W38973   0.212  13.604  14.956
73989W        W38974  21.541  44.911  13.481
73990W        W38975   2.140  27.677  14.983
73991W        W38976  42.652  20.513   3.705
73992W        W38977   2.926  31.048  12.428
73993W        W38978  15.651  22.271   2.959
73994W        W38979   4.760  42.829  11.573
73995W        W38980  34.303  39.462   3.288
73996W        W38981  26.456  30.189   3.243
73997W        W38982  34.443   7.730   0.646
73998W        W38983  29.457  27.881  11.416
73999W        W38984  42.992  30.829   0.048
74000W        W38985  20.749  33.532  13.015
74001W        W38986  10.228  12.132  14.949
74002W        W38987   9.206   8.731   2.683
74003W        W38988  33.851  38.699  10.791
74004W        W38989  15.617   9.921   4.201
74005W        W38990  28.003  33.841  14.784
74006W        W38991  11.229  34.070   2.495
74007W        W38992  14.027   1.316   1.317
74008W        W38993  19.068  16.276   3.268
74009W        W38994  25.488  37.705  12.224
74010W        W38995  44.741  36.026  13.796
74011W        W38996  29.664   2.765   2.370
74012W        W38997  25.278  22.585  14.555
74013W        W38998  23.178  16.849  13.189
74014W        W38999  20.682  41.621  11.156
74015W        W39000  14.673   1.833  11.124
74016W        W39001  36.959   5.283   1.945
74017W        W39002  24.074   9.302   0.930
74018W        W39003  32.432   4.491  14.509
74019W        W39004   8.127  22.502   2.793
74020W        W39005   1.523  37.213   4.824
74021W        W39006  42.969  11.746  11.662
74022W        W39007  23.444  19.276  13.069
74023W        W39008  42.583   5.165   3.823
74024W        W39009  43.491  28.482  13.869
74025W        W39010  26.641  43.299  12.885
74026W        W39011  22.436  26.674  11.864
74027W        W39012  22.874  10.623   0.166
74028W        W39013   0.898  12.223   2.091
74029W        W39014  43.854  43.008  11.910
74030W        W39015  19.636   1.846   0.931
74031W        W39016  18.980  18.986   1.429
74032W        W39017   6.715  10.480   0.157
74033W        W39018  13.267  24.624  12.390
74034W        W39019  13.576  35.556  10.497
74035W        W39020  38.889  31.522   4.612
74036W        W39021   5.430   1.583   3.734
74037W        W39022  42.844  34.016  13.329
74038W        W39023  15.455  32.312  10.968
74039W        W39024  19.743  35.329   0.442
74040W        W39025  43.781  39.945   3.236
74041W        W39026   3.994  41.721  14.352
74042W        W39027  33.866  28.937   2.288
74043W        W39028  43.256  43.491   2.621
74044W        W39029  39.859  20.196   2.934
74045W        W39030  30.507  10.571  10.169
74046W        W39031  18.267  38.342  14.362
74047W        W39032  31.225   0.202  14.020
74048W        W39033  31.621  42.846   2.231
74049W        W39034  25.262  19.375  14.393
74050W        W39035  19.930   3.448   2.217
74051W        W39036  43.944  29.242  12.520
74052W        W39037  31.985  38.865  13.898
74053W        W39038  25.036  42.048  11.435
74054W        W39039  10.358  25.697   0.783
74055W        W39040  44.707  38.605  11.350
74056W        W39041  20.746   2.448  13.740
74057W        W39042   1.519   9.371   2.323
74058W        W39043   6.424  13.640   1.297
74059W        W39044  16.436  15.807   4.156
74060W        W39045  19.304  38.844   4.354
74061W        W39046   6.272  27.999  14.730
74062W        W39047   9.722  34.063  13.906
74063W        W39048  30.274  27.625   0.317
74064W        W39049  39.566  26.188  13.593
74065W        W39050   8.395  11.506   1.423
74066W        W39051   0.129  42.753   3.615
74067W        W39052   3.270  37.588   2.750
74068W        W39053   9.181  34.823  14.911
74069W        W39054   7.285  44.514  13.353
74070W        W39055  15.393   1.989   4.736
74071W        W39056   9.350   6.854   5.077
74072W        W39057  29.214  33.665   3.578
74073W        W39058  10.304   1.946   0.395
74074W        W39059  39.401  21.899  13.398
74075W        W39060  19.876   0.916  11.730
74076W        W39061  27.202  40.408   4.645
74077W        W39062  16.104  14.752  14.050
74078W        W39063   5.321  40.247  11.039
74079W        W39064  38.100  40.884  13.857
74080W        W39065  43.511  23.191  13.818
74081W        W39066  30.935  29.711   4.133
74082W        W39067  18.068  24.312   2.174
74083W        W39068  14.622  14.543   1.231
74084W        W39069  11.197  34.906   0.673
74085W        W39070  22.924   5.556   2.930
74086W        W39071  41.085  14.567   0.141
74087W        W39072  12.272  18.719  11.404
74088W        W39073  13.839  16.871   0.356
74089W        W39074  40.813  39.783  13.021
74090W        W39075  11.487  26.603   5.017
74091W        W39076  42.154  28.371   3.775
74092W        W39077   4.729   6.197  14.425
74093W        W39078   8.370  35.139  14.768
74094W        W39079  18.633  16.116   2.290
74095W        W39080  32.884  22.956   3.772
74096W        W39081  22.816   1.069   5.024
74097W        W39082   7.172  26.017   2.686
74098W        W39083   0.395   3.484  12.165
74099W        W39084  14.273  31.397   1.457
74100W        W39085  29.892  11.363  13.379
74101W        W39086  40.268  21.465  11.967
74102W        W39087  37.135   8.476  11.043
74103W        W39088  17.613  16.601  14.306
74104W        W39089  16.660  17.749   2.100
74105W        W39090  40.249  36.874   3.663
74106W        W39091   2.389  31.010   0.204
74107W        W39092  16.332  28.292  12.099
74108W        W39093  24.370  14.331   5.080
74109W        W39094   9.461  32.765   1.268
74110W        W39095   0.944  26.347  11.494
74111W        W39096  19.026  17.563   1.394
74112W        W39097   9.125  29.325   0.243
74113W        W39098  24.243   7.702  14.833
74114W        W39099  34.162  36.751   0.845
74115W        W39100  26.530   6.337  13.937
74116W        W39101  23.255  37.517  14.226
74117W        W39102  22.466  25.075  13.396
74118W        W39103  29.068  27.189  13.104
74119W        W39104  19.764  38.383   0.455
74120W        W39105  37.578  22.036  10.664
74121W        W39106  35.900  36.825   4.285
74122W        W39107  17.873  38.671  13.424
74123W        W39108   0.040  18.342   3.924
74124W        W39109  44.232  24.444  13.670
74125W        W39110  12.630  31.481  14.165
74126W        W39111  22.680   3.438   0.751
74127W        W39112   1.782  11.291   3.561
74128W        W39113   7.077  39.779   2.288
74129W        W39114   1.773  23.964   2.342
74130W        W39115  35.806  28.537  11.108
74131W        W39116  15.624  19.625  13.027
74132W        W39117  16.328  14.734  14.535
74133W        W39118   7.882  15.330  13.134
74134W        W39119  15.173  22.261  11.729
74135W        W39120   8.715  18.112   2.423
74136W        W39121  35.412  22.470   1.894
74137W        W39122  13.060   7.555   5.088
74138W        W39123   1.039  38.037   0.313
74139W        W39124  42.728  35.025   2.334
74140W        W39125  41.722  20.192   4.664
74141W        W39126   9.626  44.770   3.828
74142W        W39127  30.395  35.630   2.831
74143W        W39128  34.043  34.302   4.634
74144W        W39129  14.091  39.138  14.162
74145W        W39130  37.631  11.646  14.808
74146W        W39131  42.866  37.876  13.810
74147W        W39132   7.507  40.947  11.574
74148W        W39133  28.072  33.823  11.003
74149W        W39134  38.590  12.244   3.383
74150W        W39135   7.372   1.744   3.664
74151W        W39136   6.654  13.858   4.450
74152W        W39137  36.071   0.008   1.740
74153W        W39138   6.226   3.142   3.683
74154W        W39139  18.649   2.871   4.712
74155W        W39140  38.605   9.690   3.708
74156W        W39141  33.025  14.046  11.487
74157W        W39142  18.638  18.788  13.590
74158W        W39143  26.993  31.987  13.934
74159W        W39144  43.502   8.766   4.576
74160W        W39145  44.017  10.371  13.013
74161W        W39146  15.626   0.035   2.794
74162W        W39147   4.813   7.695  11.037
74163W        W39148   7.117   5.459  12.991
74164W        W39149   2.692  14.986  14.996
74165W        W39150  34.503  37.072  14.931
74166W        W39151  40.081   2.796   4.120
74167W        W39152  33.089   3.294  14.882
74168W        W39153  10.719  20.513  13.919
74169W        W39154  39.748  40.773   4.517
74170W        W39155  37.163  44.233   4.271
74171W        W39156  35.347  37.805  11.571
74172W        W39157   7.703  30.242  12.924
74173W        W39158  26.158  20.494   1.519
74174W        W39159  11.342  26.515   1.642
74175W        W39160  16.785  32.919   2.860
74176W        W39161  34.951  44.162  13.079
74177W        W39162  14.353  21.244   4.276
74178W        W39163  16.136  13.060  11.296
74179W        W39164  41.998  11.575  12.320
74180W        W39165  36.569  19.984  10.737
74181W        W39166  25.341  17.413   1.470
74182W        W39167   8.298  14.680  14.360
74183W        W39168  10.816   1.889   0.130
74184W        W39169  40.484  29.197   2.167
74185W        W39170  27.988  17.090  13.715
74186W        W39171  26.482  29.622  14.425
74187W        W39172   6.018  11.830  13.068
74188W        W39173  23.849  19.250   3.318
74189W        W39174   0.680  37.394  14.689
74190W        W39175  21.943  21.806   3.751
74191W        W39176   6.239  15.914  14.808
74192W        W39177  28.567  17.273   2.318
74193W        W39178   8.937  30.093  13.433
74194W        W39179  41.287  40.510   4.087
74195W        W39180  33.147  26.118  12.199
74196W        W39181  26.565  12.815   4.844
74197W        W39182  11.557  40.876  12.043
74198W        W39183  43.035  29.040   1.134
74199W        W39184  38.499  28.812  14.542
74200W        W39185  22.817  15.840  11.956
74201W        W39186  37.952  26.918  12.318
74202W        W39187  43.160  44.473  11.050
74203W        W39188   0.863  27.602   1.298
74204W        W39189   8.430   8.405   5.086
74205W        W39190  10.867  35.541   3.198
74206W        W39191  26.267   5.810  13.329
74207W        W39192   4.708  21.202   4.003
74208W        W39193   1.861  40.879  14.384
74209W        W39194  24.440  38.859  11.620
74210W        W39195  23.662  19.443   4.970
74211W        W39196  25.780  19.766  11.393
74212W        W39197  43.461  17.672  13.506
74213W        W39198   0.784   1.795   1.733
74214W        W39199  25.531  38.085   4.419
74215W        W39200   2.868   3.044   0.895
74216W        W39201   6.136   9.132   3.891
74217W        W39202   6.742  10.827  12.042
74218W        W39203   6.803   7.443   4.144
74219W        W39204   4.165  44.062   0.177
74220W        W39205  23.241   1.000   3.187
74221W        W39206  41.567  42.578   2.239
74222W        W39207  23.929  18.828   1.660
74223W        W39208  30.373  33.507   2.492
74224W        W39209  18.050  31.976  11.078
74225W        W39210   1.846  36.385   3.637
74226W        W39211  31.433  21.490   1.492
74227W        W39212   3.700  37.876  12.465
74228W        W39213   2.870  29.609  11.108
74229W        W39214  22.380  37.406   4.105
74230W        W39215  13.675  43.648   2.764
74231W        W39216  13.725  10.812   1.753
74232W        W39217  23.029  43.973  11.108
74233W        W39218  28.981   8.394  14.332
74234W        W39219  12.190  35.433   4.579
74235W        W39220   5.390  39.317  14.407
74236W        W39221  41.038  21.914  14.797
74237W        W39222  25.729   6.315  12.890
74238W        W39223  34.189  25.242   1.043
74239W        W39224  38.895  16.024   1.453
74240W        W39225  26.590  15.575   0.027
74241W        W39226   7.854   4.732   3.415
74242W        W39227  38.012   8.167  12.611
74243W        W39228  36.872  18.577   2.892
74244W        W39229   7.797  12.282   2.920
74245W        W39230  16.860   2.310   2.503
74246W        W39231  39.438  14.856   0.527
74247W        W39232  31.520  35.569   0.242
74248W        W39233  44.909  38.467   1.483
74249W        W39234  28.804  37.570   0.938
74250W        W39235   6.716  31.771   5.036
74251W        W39236  40.507  14.327   1.855
74252W        W39237   2.984  11.224   2.333
74253W        W39238  37.447  20.727  14.470
74254W        W39239  15.378  13.053  10.786
74255W        W39240  32.559   3.849  13.124
74256W        W39241  10.265  19.186   1.161
74257W        W39242  22.553  21.114   1.265
74258W        W39243   5.287   6.358   3.377
74259W        W39244  35.923  42.475   3.292
74260W        W39245   1.512  26.546  12.630
74261W        W39246  26.714  34.228   4.815
74262W        W39247  29.860  32.009  11.602
74263W        W39248   6.300  25.662   3.331
74264W        W39249   8.307  32.258   3.712
74265W        W39250  13.141  35.489  13.027
74266W        W39251  27.618  30.641   0.846
74267W        W39252  35.802  13.957  13.950
74268W        W39253  14.354  34.913  11.540
74269W        W39254   3.084  14.122  13.803
74270W        W39255  10.649  40.877   0.256
74271W        W39256  14.800  28.958   3.444
74272W        W39257  23.631  35.817  14.049
74273W        W39258  39.583  27.799  12.146
74274W        W39259   2.016  13.667  12.508
74275W        W39260  39.026   3.293  12.809
74276W        W39261  17.790   8.894  11.451
74277W        W39262   0.989  13.335  14.611
74278W        W39263  35.755   2.384  11.627
74279W        W39264  43.431   8.399  12.995
74280W        W39265  25.326   0.754  11.242
74281W        W39266  38.741  28.605  13.393
74282W        W39267  34.959  44.520   2.271
74283W        W39268  33.424   8.135   0.281
74284W        W39269   0.829  20.687  13.325
74285W        W39270  16.789   5.436   0.361
74286W        W39271  29.469  27.002  12.818
74287W        W39272  40.783   3.232  10.607
74288W        W39273  32.185   3.578   2.456
74289W        W39274  25.490  42.344  12.430
74290W        W39275  25.043  29.514   4.613
74291W        W39276  34.076  25.017  12.962
74292W        W39277  20.870  33.635  14.330
74293W        W39278  12.876  20.478  11.117
74294W        W39279  23.286   5.208  11.370
74295W        W39280  13.563  28.521   4.520
74296W        W39281  40.760   8.482  13.628
74297W        W39282  33.845   7.304   1.797
74298W        W39283   2.504  39.999   9.955
74299W        W39284   9.351  30.624  10.780
74300W        W39285  44.948  14.991   0.343
74301W        W39286   6.027  40.438   1.799
74302W        W39287  38.566   6.471  13.158
74303W        W39288  19.310  20.206   0.631
74304W        W39289  32.464  39.982   4.596
74305W        W39290  22.482   6.360   1.916
74306W        W39291  41.592  27.154  11.986
74307W        W39292   5.498  23.660   3.823
74308W        W39293   6.866  44.907  13.392
74309W        W39294  16.191   1.214   4.262
74310W        W39295  33.271  24.208  10.812
74311W        W39296   8.132  11.856   0.189
74312W        W39297  30.680  23.514  13.851
74313W        W39298  23.073  35.033  13.163
74314W        W39299   6.020  17.640   2.028
74315W        W39300  19.740   8.264   2.851
74316W        W39301  29.827  39.246  14.818
74317W        W39302   4.413  19.067   1.857
74318W        W39303  32.604  44.315  13.763
74319W        W39304  23.778  27.230   2.816
74320W        W39305  36.102  27.432  11.639
74321W        W39306  11.827  24.255  13.464
74322W        W39307   4.859  25.641   1.588
74323W        W39308  42.420  28.886  11.586
74324W        W39309  18.858  33.961   1.960
74325W        W39310  26.578  13.347   2.308
74326W        W39311  42.461  28.437   3.330
74327W        W39312  37.446   0.683  13.514
74328W        W39313   7.458  35.470  14.136
74329W        W39314  11.957   6.448   0.922
74330W        W39315   5.440  44.199  13.289
74331W        W39316   1.257   8.741   0.301
74332W        W39317  24.785  32.122  11.193
74333W        W39318  15.055   7.658  14.009
74334W        W39319  25.766  13.411   3.844
74335W        W39320  10.801  35.791   4.149
74336W        W39321  30.400  34.587  11.480
74337W        W39322  40.470   7.826   0.878
74338W        W39323  22.767   4.470  10.483
74339W        W39324  16.443  30.609  11.737
74340W        W39325  23.565  12.699  14.787
74341W        W39326  13.812  40.001   2.894
74342W        W39327  35.051   0.298   1.614
74343W        W39328   2.503  11.300   2.172
74344W        W39329   0.932  12.712   0.443
74345W        W39330  18.559  22.225  14.520
74346W        W39331   6.623  13.689   3.537
74347W        W39332   8.692   4.891   1.235
74348W        W39333  22.969   2.281  12.992
74349W        W39334  24.991  43.434   3.109
74350W        W39335  26.574  30.405   3.685
74351W        W39336  28.603  32.970   0.021
74352W        W39337  16.779  32.470   4.318
74353W        W39338  10.170  43.094   5.113
74354W        W39339  41.583   1.843   2.500
74355W        W39340  13.562   8.937   0.001
74356W        W39341  35.582  36.839  12.511
74357W        W39342  31.427  40.540   1.631
74358W        W39343   9.828  27.110  10.403
74359W        W39344  11.781  27.895  12.150
74360W        W39345  12.888  11.613   0.145
74361W        W39346  38.361   3.187   2.417
74362W        W39347  13.786  10.526  11.101
74363W        W39348  26.645   0.750   0.763
74364W        W39349  42.835  13.656  12.423
74365W        W39350  22.522  31.512  12.524
74366W        W39351  25.696  32.184  10.804
74367W        W39352  25.410  22.672  12.357
74368W        W39353  11.716  38.926   1.749
74369W        W39354  36.430  40.112  12.760
74370W        W39355  15.658  42.121   0.897
74371W        W39356  26.242   0.326   3.064
74372W        W39357   5.915  23.232   1.944
74373W        W39358  44.466   4.163   2.356
74374W        W39359  43.843  20.330   2.624
74375W        W39360   5.211  34.482  13.769
74376W        W39361   2.895  43.749  14.436
74377W        W39362   8.994  17.780   0.852
74378W        W39363  27.584  40.604   0.298
74379W        W39364  13.368  43.708   2.080
74380W        W39365  29.663  27.097  13.277
74381W        W39366  22.893  37.105  14.346
74382W        W39367  34.035  34.236   3.210
74383W        W39368  16.039  34.695   4.538
74384W        W39369  37.485  19.930  10.560
74385W        W39370  38.377  10.374   0.020
74386W        W39371  28.414  23.572  13.977
74387W        W39372  42.578  38.430  11.167
74388W        W39373   7.432  39.308   0.326
74389W        W39374  24.180  40.419   4.777
74390W        W39375  24.286  27.602   4.090
74391W        W39376  25.927  18.677   4.761
74392W        W39377  22.118  10.013   0.998
74393W        W39378  35.924  23.684   3.323
74394W        W39379   7.239  12.719  12.877
74395W        W39380  40.523  21.201   0.118
74396W        W39381  31.717   0.315  13.962
74397W        W39382   3.488   1.260   3.676
74398W        W39383  43.924  16.532   1.405
74399W        W39384  44.354  28.698   0.989
74400W        W39385   4.467  11.558   1.429
74401W        W39386  36.034  18.138  13.454
74402W        W39387  22.684   1.059   0.417
74403W        W39388  18.613  44.918  11.366
74404W        W39389  26.193  15.307  12.026
74405W        W39390  22.802  23.459   1.222
74406W        W39391  26.726  15.612   3.277
74407W        W39392  33.037   0.087  12.048
74408W        W39393   9.199  16.356   1.203
74409W        W39394  42.599  22.251  10.562
74410W        W39395  27.169  34.121  11.096
74411W        W39396  42.058  40.518  12.267
74412W        W39397  29.828  17.062   1.264
74413W        W39398  40.931  13.965   2.781
74414W        W39399   3.769  20.744   3.746
74415W        W39400  43.476  22.353   1.371
74416W        W39401  20.538  17.814   2.269
74417W        W39402  15.151  36.566   2.704
74418W        W39403  19.729  18.013  10.220
74419W        W39404  33.905  38.890  11.275
74420W        W39405   3.815  34.898   0.914
74421W        W39406   5.405  30.091  11.173
74422W        W39407  20.559   0.925   0.412
74423W        W39408  25.193  25.543   2.258
74424W        W39409  43.280  21.718  12.610
74425W        W39410  42.035  33.934   3.617
74426W        W39411  39.379  23.083   1.463
74427W        W39412  31.202  16.803  13.562
74428W        W39413  15.553  17.650  11.576
74429W        W39414   1.812  35.095  13.460
74430W        W39415   3.514  25.277  11.777
74431W        W39416   0.778  44.493   2.259
74432W        W39417  42.872  40.029   3.600
74433W        W39418  40.585  25.948  13.921
74434W        W39419  18.313  33.947   1.165
74435W        W39420   0.832  23.676  13.346
74436W        W39421  39.317  37.157  13.318
74437W        W39422  14.193   9.707  12.468
74438W        W39423  39.146   6.293   0.162
74439W        W39424   2.586  39.375   1.373
74440W        W39425  31.698   3.910  12.018
74441W        W39426  36.521   6.962  14.739
74442W        W39427   6.865   4.862  13.455
74443W        W39428  17.921  35.331   3.259
74444W        W39429  14.881  29.926   1.850
74445W        W39430   7.427  38.061   3.303
74446W        W39431  14.190  15.766   0.814
74447W        W39432   5.163  16.229   4.136
74448W        W39433  10.287  39.709   4.260
74449W        W39434  14.045  43.451  11.876
74450W        W39435   7.809  21.041   1.442
74451W        W39436   7.384  23.431   1.192
74452W        W39437  42.897  10.206   3.382
74453W        W39438  35.514  17.053  14.201
74454W        W39439  23.238  11.803  14.811
74455W        W39440  38.886  32.015  12.383
74456W        W39441  30.128   4.314   0.027
74457W        W39442   3.750  30.910  14.831
74458W        W39443   5.723   7.331   1.290
74459W        W39444  39.796  30.991  12.410
74460W        W39445  16.031  29.037   1.204
74461W        W39446  27.994  15.769   0.981
74462W        W39447   6.917  10.568   4.524
74463W        W39448  33.783  42.016  10.592
74464W        W39449  17.143  19.281   3.730
74465W        W39450   9.077  13.433  13.359
74466W        W39451  40.134  17.324  13.174
74467W        W39452   3.675  27.507   2.664
74468W        W39453  31.377   6.388   1.137
74469W        W39454  25.979  37.972  11.349
74470W        W39455  31.920  37.469  12.108
74471W        W39456  41.907  40.510   1.752
74472W        W39457  10.853   8.261   9.876
74473W        W39458  37.655  37.700  13.934
74474W        W39459   4.373  43.714  12.657
74475W        W39460  21.247   4.922   0.831
74476W        W39461  29.384  15.723   4.633
74477W        W39462  20.139   7.917  14.861
74478W        W39463  41.432  27.496  14.990
74479W        W39464  20.041  20.167   4.125
74480W        W39465  12.222   3.558  14.723
74481W        W39466  30.614  40.788  13.127
74482W        W39467  29.769  31.663   4.716
74483W        W39468   8.981   2.721   0.816
74484W        W39469  33.118  26.525  11.878
74485W        W39470   3.520  14.711   4.610
74486W        W39471   2.210  21.797   2.255
74487W        W39472  34.903   5.561  10.220
74488W        W39473   5.916   7.883   0.895
74489W        W39474   7.067   9.062   3.589
74490W        W39475   4.370   7.648   3.813
74491W        W39476  38.007  34.048  10.424
74492W        W39477  32.142  27.540   4.882
74493W        W39478  12.520  31.447  10.334
74494W        W39479  22.934  34.120  10.635
74495W        W39480  10.587  20.730  13.475
74496W        W39481  32.518   4.423   3.615
74497W        W39482  11.230   2.814   0.294
74498W        W39483  23.249   7.284  12.078
74499W        W39484  26.915  15.516   4.205
74500W        W39485  27.172  35.839   4.899
74501W        W39486  24.085  34.373  13.797
74502W        W39487  22.206   4.901   1.419
74503W        W39488   3.594  21.907   4.089
74504W        W39489  27.098  36.879   1.691
74505W        W39490  33.380  22.759   3.635
74506W        W39491  10.011  41.438   2.653
74507W        W39492  20.152  41.274   4.475
74508W        W39493   1.303  16.230  11.108
74509W        W39494  14.023  38.459  14.776
74510W        W39495  15.552  20.430   2.817
74511W        W39496  21.142   3.287   0.133
74512W        W39497   6.885  34.417   2.928
74513W        W39498  25.165   4.457  14.231
74514W        W39499  23.707  17.044  14.996
74515W        W39500  12.592   5.356   1.790
74516W        W39501  19.089  27.401   4.083
74517W        W39502   5.253  13.010   0.658
74518W        W39503  44.508  42.283  12.078
74519W        W39504  25.713  44.199  13.376
74520W        W39505   8.182   2.413   3.261
74521W        W39506  21.701  19.836  14.859
74522W        W39507  16.200  16.644  11.983
74523W        W39508   7.151  29.960   1.707
74524W        W39509   6.351  14.231  11.578
74525W        W39510  43.445   8.640   0.217
74526W        W39511  17.600  26.007  12.076
74527W        W39512  32.486   4.079   1.426
74528W        W39513   6.902  35.910   3.333
74529W        W39514   1.547  27.695  12.823
74530W        W39515   6.046  25.086   1.770
74531W        W39516  19.816  27.890  14.918
74532W        W39517   3.964  19.740   3.255
74533W        W39518  43.178   6.264   4.203
74534W        W39519  30.179  31.957   4.577
74535W        W39520  43.839  18.798  14.943
74536W        W39521  10.288  23.016  14.479
74537W        W39522  24.653   9.080  12.395
74538W        W39523  32.131  43.733  13.504
74539W        W39524  10.259  44.917  10.811
74540W        W39525  28.580  42.241   2.122
74541W        W39526   3.384   0.505  13.320
74542W        W39527   1.252  26.843  14.574
74543W        W39528  11.258   5.588  13.623
74544W        W39529  17.617   8.317   2.103
74545W        W39530   1.781  38.878   1.331
74546W        W39531  30.691   4.361  13.274
74547W        W39532  29.160  10.085  14.989
74548W        W39533  11.288  30.186   4.541
74549W        W39534  43.334  34.747  11.478
74550W        W39535  29.428  32.579   1.109
74551W        W39536  37.401  22.525   1.823
74552W        W39537  34.377  14.208   2.922
74553W        W39538  22.681  25.105  12.515
74554W        W39539  21.775   9.377   4.606
74555W        W39540  40.401  37.402  12.404
74556W        W39541  10.836  28.067   0.452
74557W        W39542  40.369  15.352  12.693
74558W        W39543  19.338   7.916   2.060
74559W        W39544  13.582  42.363  12.987
74560W        W39545   0.878  43.336   1.870
74561W        W39546  28.482  39.904   1.344
74562W        W39547  16.861   9.364  13.936
74563W        W39548  36.057  18.190   1.933
74564W        W39549   3.291  41.842   4.084
74565W        W39550  17.976  41.176  12.584
74566W        W39551  12.252  13.134   4.516
74567W        W39552   4.015  37.708   0.265
74568W        W39553  36.479  18.443  13.447
74569W        W39554  38.269  13.101  12.943
74570W        W39555  36.254  39.740   3.809
74571W        W39556  30.933  29.194  13.414
74572W        W39557   4.521  17.351  10.716
74573W        W39558  30.414  36.157   0.400
74574W        W39559  13.672  43.141   2.638
74575W        W39560   7.719  35.824   0.698
74576W        W39561  27.613  32.397   0.236
74577W        W39562  22.464   7.657   3.228
74578W        W39563  39.972  40.971   4.068
74579W        W39564  26.007  40.503  12.465
74580W        W39565  18.026  12.415   1.810
74581W        W39566  20.277  22.580  12.103
74582W        W39567  30.611  20.207   2.321
74583W        W39568  26.903  33.706   0.829
74584W        W39569  33.508   1.423  13.233
74585W        W39570   2.343  28.587   0.423
74586W        W39571   2.743   1.040   4.854
74587W        W39572  10.720  24.159  12.832
74588W        W39573   7.286   8.260  14.834
74589W        W39574  20.770   0.759   4.851
74590W        W39575  15.204   3.869   3.121
74591W        W39576  30.767  25.284  12.960
74592W        W39577  31.961  35.880  13.492
74593W        W39578  38.484  13.251  10.442
74594W        W39579   0.032  31.030   3.421
74595W        W39580  13.178  10.453  10.389
74596W        W39581  20.633   8.370   1.896
74597W        W39582  39.813  20.929   0.556
74598W        W39583  10.746   0.599  10.641
74599W        W39584   7.335  11.935  13.510
74600W        W39585  42.259   9.370   4.431
74601W        W39586  15.365  29.248  14.927
74602W        W39587   0.888  21.256   4.088
74603W        W39588  23.636  32.529   3.619
74604W        W39589  15.716  42.392  12.543
74605W        W39590  18.929  25.328   2.352
74606W        W39591  29.387  17.526   2.356
74607W        W39592   4.320  16.696  12.526
74608W        W39593  35.839   2.468  12.397
74609W        W39594  28.719  33.101   0.846
74610W        W39595  44.044  18.301  11.499
74611W        W39596  14.720  32.919   4.195
74612W        W39597  29.952  24.386  14.229
74613W        W39598  39.122  28.094   3.592
74614W        W39599  26.273  22.020  13.670
74615W        W39600  13.048  24.166   2.740
74616W        W39601  13.779  35.198   0.234
74617W        W39602  36.471  44.272   3.770
74618W        W39603  20.118  19.974  14.279
74619W        W39604  19.663  16.465   1.859
74620W        W39605   3.240   8.181  11.472
74621W        W39606   6.304  20.334  12.195
74622W        W39607  17.060  23.254   3.177
74623W        W39608  16.828  26.084  11.506
74624W        W39609  32.050  30.606   3.202
74625W        W39610  40.865  30.455   0.051
74626W        W39611  21.755  38.665  11.706
74627W        W39612  24.543  44.244   2.782
74628W        W39613  24.050   1.280  11.270
74629W        W39614   1.234  19.759  12.474
74630W        W39615   1.076  34.622  13.022
74631W        W39616   1.405  23.161   0.842
74632W        W39617   1.682   6.377   4.132
74633W        W39618  44.396  16.018  14.979
74634W        W39619  34.624  20.972   4.086
74635W        W39620   5.614  17.439   2.935
74636W        W39621  44.546  24.151   9.883
74637W        W39622  14.392  17.390  12.941
74638W        W39623  38.856  16.250  12.464
74639W        W39624  22.812  24.612   1.147
74640W        W39625   5.785   3.199   1.816
74641W        W39626  28.869   7.614   0.989
74642W        W39627  32.035  14.913  12.395
74643W        W39628   1.244  18.552   3.617
74644W        W39629  12.695  27.714  14.775
74645W        W39630  22.594  29.388   3.238
74646W        W39631  24.723  15.019  11.868
74647W        W39632   9.867   9.368   0.322
74648W        W39633   4.688  19.677   0.367
74649W        W39634   0.861   6.863   4.123
74650W        W39635  38.471  39.216  11.588
74651W        W39636  37.045  35.598   2.864
74652W        W39637  22.200   4.461  10.423
74653W        W39638  24.311  44.476  11.367
74654W        W39639   0.569  16.641   4.251
74655W        W39640  41.324  40.803  12.506
74656W        W39641  38.463   3.201  13.924
74657W        W39642   6.633  36.411  11.215
74658W        W39643  41.066  30.380   2.830
74659W        W39644  39.020  12.186  12.959
74660W        W39645  33.860  16.741   0.347
74661W        W39646  24.679  34.093   1.214
74662W        W39647  14.595  27.550  13.900
74663W        W39648  38.997  11.342   1.062
74664W        W39649  18.895  25.567   3.157
74665W        W39650  34.667  13.474   3.429
74666W        W39651   7.869   7.678  11.913
74667W        W39652   1.739  10.399  12.148
74668W        W39653  14.229  20.992   1.870
74669W        W39654   2.277  11.591   3.244
74670W        W39655  26.603  30.331  12.431
74671W        W39656  35.309   1.313   3.602
74672W        W39657  28.034  27.147  10.849
74673W        W39658  20.979   4.950   1.787
74674W        W39659  24.961  37.825  11.198
74675W        W39660   3.787  17.539   0.383
74676W        W39661   0.769  43.610   2.780
74677W        W39662  13.304  20.274   1.156
74678W        W39663  43.659  27.002   1.172
74679W        W39664  20.753  38.599   0.306
74680W        W39665  10.352  19.534   2.714
74681W        W39666   6.421  21.164  13.454
74682W        W39667   0.334  39.867   4.047
74683W        W39668  23.032  16.059  13.814
74684W        W39669  23.998  14.010   2.172
74685W        W39670  43.046  26.101  13.216
74686W        W39671  39.498   6.869   1.192
74687W        W39672  24.468  26.984   1.862
74688W        W39673  22.981  23.706  12.516
74689W        W39674  37.921  23.027  11.383
74690W        W39675  11.290   8.189   3.059
74691W        W39676  25.942   3.941  11.908
74692W        W39677   4.720  30.876   0.807
74693W        W39678  11.184   2.930  12.875
74694W        W39679  31.096  16.079   3.703
74695W        W39680  19.633  23.628   2.777
74696W        W39681  34.136  23.274   4.449
74697W        W39682  23.545  33.413  12.548
74698W        W39683   7.796  21.030   3.676
74699W        W39684  41.821  10.630   0.412
74700W        W39685  44.908  17.330  13.334
74701W        W39686  43.545  10.159  12.985
74702W        W39687  43.978  15.643   1.081
74703W        W39688  28.967  21.421   3.211
74704W        W39689  44.668  28.705  12.560
74705W        W39690  30.971  35.587   3.778
74706W        W39691   2.734  30.106  11.093
74707W        W39692  42.221  16.110   3.144
74708W        W39693  30.823  27.939   4.553
74709W        W39694  43.444   2.452   4.718
74710W        W39695  44.887   2.447  11.496
74711W        W39696   7.359   7.128   1.997
74712W        W39697  27.048   9.185  10.684
74713W        W39698  10.243  36.899  11.656
74714W        W39699   1.661  31.094  12.144
74715W        W39700   2.136   2.219   1.999
74716W        W39701  38.935  42.324   3.435
74717W        W39702  28.830  16.287   1.369
74718W        W39703  27.444  27.297  14.387
74719W        W39704   1.126  23.980  10.568
74720W        W39705  27.699  35.330   1.256
74721W        W39706  18.251  43.478   2.960
74722W        W39707  40.334   1.943   9.984
74723W        W39708  37.397   8.672   3.719
74724W        W39709  34.084  35.576   1.905
74725W        W39710  36.607   0.883   0.413
74726W        W39711   0.693  39.114  10.298
74727W        W39712   8.412  10.599   2.786
74728W        W39713  35.844   0.861  13.923
74729W        W39714  34.530  12.188   2.648
74730W        W39715  36.484  31.111   1.291
74731W        W39716  39.987  41.927  11.056
74732W        W39717  36.415  30.349  12.447
74733W        W39718   8.843   4.212  14.937
74734W        W39719  34.037  39.099   0.047
74735W        W39720  10.078  15.321   4.595
74736W        W39721   4.825  26.152   1.481
74737W        W39722  44.915  23.732   1.190
74738W        W39723   5.961  22.815  12.425
74739W        W39724  33.314   4.292   3.079
74740W        W39725  18.203  12.707  13.323
74741W        W39726   7.452  31.516  13.509
74742W        W39727   7.684  18.268  13.433
74743W        W39728  33.175  19.673  13.844
74744W        W39729  28.546  34.115   3.976
74745W        W39730   7.481  37.086   4.843
74746W        W39731  28.097  41.221   2.037
74747W        W39732  25.128  10.761  13.188
74748W        W39733  44.275  12.823  14.829
74749W        W39734  12.289  32.544  10.780
74750W        W39735   7.736  31.031  12.435
74751W        W39736  12.221   6.925   0.956
74752W        W39737  43.573  23.303   2.746
74753W        W39738  31.667  28.712  13.862
74754W        W39739   5.496  39.452  12.110
74755W        W39740  42.066  23.427   0.416
74756W        W39741  31.420  23.671  11.349
74757W        W39742   2.421   5.900  14.553
74758W        W39743  40.121  24.454   2.462
74759W        W39744  21.811  30.369   4.634
74760W        W39745   0.135  33.983   2.796
74761W        W39746  26.922  29.037  12.771
74762W        W39747  16.659  23.630   4.914
74763W        W39748  23.290   7.625  12.540
74764W        W39749  37.580  40.061   2.853
74765W        W39750  37.394  28.634  11.995
74766W        W39751   1.965  38.906  10.749
74767W        W39752   0.718  12.268  11.143
74768W        W39753  27.552  36.703   0.043
74769W        W39754  44.726   0.860  11.100
74770W        W39755  43.514  43.752   3.225
74771W        W39756  16.265  43.251   1.734
74772W        W39757   7.849  10.057   3.249
74773W        W39758   5.891  13.308  12.673
74774W        W39759  30.288  43.828   0.755
74775W        W39760   0.273  11.719   1.771
74776W        W39761  38.007  18.075   3.693
74777W        W39762  33.009  40.035   2.394
74778W        W39763  23.569  16.614  13.442
74779W        W39764   9.501   3.810  13.396
74780W        W39765  41.454  43.960   4.827
74781W        W39766   5.467  23.107  11.083
74782W        W39767  39.471  29.915   3.539
74783W        W39768  43.463  37.553   2.423
74784W        W39769   7.845  38.360  10.354
74785W        W39770  34.506  24.150  14.220
74786W        W39771   2.361  31.342   0.867
74787W        W39772   3.369  26.208  14.856
74788W        W39773  11.215  17.212   4.255
74789W        W39774  28.512  23.143  12.103
74790W        W39775  30.550  35.379   3.272
74791W        W39776   1.440  39.781  14.737
74792W        W39777  11.473   5.160   9.580
74793W        W39778   5.785  32.945  14.425
74794W        W39779   9.229  14.319   3.029
74795W        W39780  14.060  41.892   2.720
74796W        W39781  32.966  37.366  13.047
74797W        W39782  20.029  33.644   0.396
74798W        W39783   1.419  36.955  14.781
74799W        W39784  23.474  22.952   0.686
74800W        W39785   7.245  36.499   1.241
74801W        W39786   5.114  26.493  11.945
74802W        W39787  22.978   8.088  12.567
74803W        W39788   4.371   2.507   4.708
74804W        W39789  37.189   7.700   2.796
74805W        W39790  14.194  11.926  12.951
74806W        W39791  20.022  27.901   2.004
74807W        W39792  34.792  15.880   2.777
74808W        W39793  35.578   4.461   4.229
74809W        W39794  40.996  18.664  10.721
74810W        W39795  44.833  29.838  12.016
74811W        W39796   4.351  23.076   2.730
74812W        W39797  10.567   6.340  13.082
74813W        W39798  32.369  32.481   1.783
74814W        W39799  11.830   1.724  13.936
74815W        W39800   8.305  32.771   3.774
74816W        W39801  13.072  21.241   1.236
74817W        W39802  15.721  32.631   1.233
74818W        W39803   5.688   3.147   1.223
74819W        W39804  34.658  15.189   4.900
74820W        W39805  20.569  21.641  10.238
74821W        W39806  22.563  14.296  13.699
74822W        W39807  31.226  36.711   1.762
74823W        W39808  15.303   2.361   4.392
74824W        W39809  17.292   0.063  11.519
74825W        W39810  23.999   5.900   4.528
74826W        W39811  29.354  42.266   0.988
74827W        W39812  42.291  41.276   3.869
74828W        W39813  24.230  24.033   0.073
74829W        W39814  28.513  31.657   3.410
74830W        W39815  32.486  40.193  14.644
74831W        W39816   3.507   4.485   2.302
74832W        W39817  43.542  18.360   3.254
74833W        W39818  19.258   8.310   0.492
74834W        W39819  37.950   1.006   0.310
74835W        W39820  31.564  16.405   0.643
74836W        W39821  41.323  31.780  11.956
74837W        W39822  25.673  32.470  11.239
74838W        W39823  19.206  16.213  14.993
74839W        W39824  31.619   1.984   4.155
74840W        W39825  17.320  18.027   1.819
74841W        W39826  40.732   0.835   0.403
74842W        W39827  25.038  26.612   4.220
74843W        W39828   7.083  28.720   1.168
74844W        W39829  13.212  14.716  11.939
74845W        W39830  27.723  44.543   0.446
74846W        W39831   3.827  11.556   4.247
74847W        W39832   4.207  12.175  10.478
74848W        W39833  19.431  35.047   2.672
74849W        W39834   8.628  18.622  13.426
74850W        W39835  27.583  40.760  14.792
74851W        W39836  20.234  18.495  11.207
74852W        W39837  17.321   6.258  14.360
74853W        W39838   3.855  34.328  13.244
74854W        W39839  14.456  18.653  12.348
74855W        W39840  20.269  29.982   2.681
74856W        W39841  14.066   0.060   4.048
74857W        W39842  10.699  20.688   3.186
74858W        W39843   2.998  16.628   3.242
74859W        W39844  18.323  11.297   0.180
74860W        W39845  29.582  11.902  12.024
74861W        W39846  31.883  43.761  10.161
74862W        W39847  41.297  26.548   3.330
74863W        W39848  21.592  44.438  14.431
74864W        W39849  33.596  12.098  11.535
74865W        W39850   5.405  27.831  11.242
74866W        W39851  21.495  42.510  11.563
74867W        W39852   4.367  21.823  12.991
74868W        W39853  23.751  15.813   1.026
74869W        W39854  23.493  17.782   0.397
74870W        W39855  41.430  10.519   4.531
74871W        W39856  28.255  23.876  13.056
74872W        W39857  17.242  18.662  11.553
74873W        W39858  20.274  17.730  11.562
74874W        W39859  39.898  40.740   0.242
74875W        W39860  18.601  44.768  13.359
74876W        W39861  13.062  31.612  10.357
74877W        W39862   9.376   5.463   3.388
74878W        W39863  28.143  23.524   2.351
74879W        W39864  32.832  17.614  12.500
74880W        W39865   2.218  12.902  14.488
74881W        W39866  44.046   1.765  10.772
74882W        W39867  44.217   0.484   3.299
74883W        W39868  32.499  11.167   2.630
74884W        W39869  31.550  15.853  11.471
74885W        W39870  28.689  38.840  13.840
74886W        W39871  40.442  25.153  13.440
74887W        W39872  36.855  12.597   2.853
74888W        W39873  34.555  13.866   0.664
74889W        W39874  42.726   9.542   0.415
74890W        W39875  36.093  11.271   1.550
74891W        W39876  20.202  15.187  11.749
74892W        W39877  43.857  40.810   2.194
74893W        W39878  35.009  10.177   2.699
74894W        W39879  28.978   4.172  13.026
74895W        W39880  41.729   5.259  10.455
74896W        W39881  32.522  39.414   3.430
74897W        W39882  14.635   3.513   3.695
74898W        W39883  22.287   5.797  14.823
74899W        W39884  35.081  40.803  11.631
74900W        W39885  37.564   2.805   3.166
74901W        W39886  18.234  21.724  12.069
74902W        W39887  35.530  15.634  12.351
74903W        W39888  44.599  32.873  12.494
74904W        W39889  41.391   5.662  13.919
74905W        W39890   7.395  34.907   1.391
74906W        W39891  22.091   1.187   4.419
74907W        W39892   0.660   1.341   1.947
74908W        W39893  32.574   7.108   4.449
74909W        W39894  36.527  38.956   4.551
74910W        W39895  27.935  33.904  13.795
74911W        W39896   4.665  11.790  14.449
74912W        W39897   5.790  28.236   2.856
74913W        W39898  34.919   7.684  11.896
74914W        W39899  12.889  11.073   4.156
74915W        W39900  35.321   6.003  14.421
74916W        W39901  35.423   9.856   1.841
74917W        W39902   9.290   6.468   3.669
74918W        W39903   8.797  34.083   2.475
74919W        W39904   4.403  28.924  11.526
74920W        W39905  33.652  17.055  12.541
74921W        W39906   2.304  13.342  14.197
74922W        W39907  30.120  28.065   1.665
74923W        W39908  14.171  31.119  10.567
74924W        W39909   1.749  22.432  12.010
74925W        W39910  28.275   3.713  11.643
74926W        W39911  26.403  22.636   1.811
74927W        W39912  42.076   8.783   0.849
74928W        W39913  30.557  39.938  14.481
74929W        W39914   4.895  18.266   2.787
74930W        W39915  43.885  38.942   1.596
74931W        W39916  10.674  34.271  12.921
74932W        W39917  15.185   5.937  14.858
74933W        W39918   4.295  16.985  13.395
74934W        W39919  15.125   3.326   3.823
74935W        W39920  16.364  25.297  13.097
74936W        W39921   6.535  28.946  12.058
74937W        W39922  35.605  39.872   2.654
74938W        W39923  18.030  27.226   4.101
74939W        W39924  34.544  34.965   1.453
74940W        W39925  20.065  34.912  12.983
74941W        W39926   1.959  27.383   4.226
74942W        W39927  19.683  24.616  12.893
74943W        W39928  41.517  11.849  11.149
74944W        W39929  13.096   1.847  12.605
74945W        W39930  20.645  38.353   4.534
74946W        W39931  29.122  15.775  10.238
74947W        W39932  12.198   5.975  13.498
74948W        W39933  15.940   9.780  11.214
74949W        W39934  13.543  39.021   2.881
74950W        W39935  40.257  15.584   1.511
74951W        W39936  43.555  28.170  12.026
74952W        W39937  14.418   5.190  14.626
74953W        W39938  43.928  34.564  14.006
74954W        W39939   9.939  32.141   4.630
74955W        W39940  14.319  24.704  13.773
74956W        W39941  23.601  13.203   0.732
74957W        W39942  30.486  35.162   3.743
74958W        W39943  17.384  22.081  13.556
74959W        W39944  42.808   2.274  11.481
74960W        W39945   0.403  14.668  14.066
74961W        W39946  18.028  33.917  14.870
74962W        W39947  26.609  38.891   2.299
74963W        W39948  26.414  12.322  14.338
74964W        W39949  20.538  39.966  10.954
74965W        W39950  29.309   3.146   1.724
74966W        W39951  22.195  42.195   3.222
74967W        W39952   9.034  20.335   1.165
74968W        W39953  40.866  41.680  11.988
74969W        W39954  41.747  24.542   4.396
74970W        W39955  31.374  34.571   2.877
74971W        W39956  38.609  10.857  13.083
74972W        W39957   1.787  20.552  14.807
74973W        W39958   7.437   3.851   4.930
74974W        W39959  21.035   9.797   3.172
74975W        W39960  39.851   1.820  10.838
74976W        W39961  16.348  37.420  12.411
74977W        W39962  16.454  28.881   4.492
74978W        W39963   3.712  31.143   3.154
74979W        W39964  43.783   0.491  14.368
74980W        W39965  33.380  20.580  11.714
74981W        W39966   4.764  43.517   0.962
74982W        W39967  41.822  34.879  14.781
74983W        W39968  26.483  18.294  11.619
74984W        W39969  40.664  26.232  14.895
74985W        W39970  37.119   5.162   0.432
74986W        W39971   4.651  31.719  13.960
74987W        W39972   8.858  41.414  14.233
74988W        W39973  23.177   7.586   2.837
74989W        W39974  29.059   3.941   3.169
74990W        W39975   9.154  23.618   4.727
74991W        W39976  12.736  19.573  10.719
74992W        W39977  30.077  30.820   4.698
74993W        W39978   5.356   6.207  12.414
74994W        W39979  29.176  19.032   0.304
74995W        W39980   4.956  27.981  13.800
74996W        W39981  11.438   9.805  14.927
74997W        W39982  18.090  36.827   0.835
74998W        W39983  33.358  43.937   4.033
74999W        W39984   9.687  14.607   3.034
75000W        W39985  30.188  21.995   2.802
75001W        W39986  21.784  38.815  13.009
75002W        W39987  43.400  42.563   3.883
75003W        W39988   0.391  15.291   3.604
75004W        W39989   1.751   7.986   3.234
75005W        W39990  14.719  37.814   4.034
75006W        W39991  34.610  33.383  11.527
75007W        W39992  32.101  36.992  13.711
75008W        W39993   5.286  28.151  12.485
75009W        W39994  15.537  29.946   0.969
75010W        W39995  27.138   7.403  14.002
75011W        W39996  17.830  13.662  12.042
75012W        W39997  28.707  10.285   0.204
75013W        W39998  39.931   3.613   0.781
75014W        W39999  34.422  43.751  13.419
75015W        W40000  10.688  31.564   2.293
75016W        W40001  41.016  25.192   3.032
75017W        W40002  39.671  36.736  13.414
75018W        W40003  40.310  42.088   3.282
75019W        W40004  17.524   0.349  11.082
75020W        W40005  26.730  15.164   4.787
75021W        W40006  11.142  24.734   2.330
75022W        W40007  33.661  35.449  11.505
75023W        W40008  44.272  44.175  14.517
75024W        W40009  20.644   8.885  13.799
75025W        W40010  24.320  31.114  13.951
75026W        W40011  15.007  14.808   0.972
75027W        W40012   5.694   0.825  10.773
75028W        W40013  41.355  32.380  11.283
75029W        W40014  29.944  26.663   3.692
75030W        W40015  15.578  29.400   2.634
75031W        W40016  35.855  39.611   1.307
75032W        W40017   4.245  13.152  10.531
75033W        W40018   8.682  27.170   0.802
75034W        W40019  21.532  43.946   3.235
75035W        W40020  34.007  32.071  14.759
75036W        W40021  12.641   5.919  12.224
75037W        W40022  43.622  15.575   4.576
75038W        W40023   0.069   7.970  14.853
75039W        W40024   0.584  32.573   1.878
75040W        W40025   5.282  39.476   3.003
75041W        W40026   6.069   8.714   1.043
75042W        W40027  25.600  11.321   2.302
75043W        W40028  18.868   0.741  11.286
75044W        W40029  24.558  15.233  11.429
75045W        W40030   5.285  16.890  10.797
75046W        W40031  17.930  20.347  13.466
75047W        W40032  29.134   5.214  14.454
75048W        W40033  34.348  17.085   3.718
75049W        W40034  41.355  35.925  12.945
75050W        W40035  43.437  29.422  11.450
75051W        W40036  27.384  23.627  14.753
75052W        W40037   5.937  32.072   0.539
75053W        W40038   2.516  43.510   1.189
75054W        W40039  44.251   3.208  12.207
75055W        W40040  17.258  17.771  14.887
75056W        W40041   8.337  41.065  13.339
75057W        W40042  22.585  44.856   3.569
75058W        W40043  37.035  41.012   3.691
75059W        W40044  14.316   3.488  11.750
75060W        W40045   3.969   1.737   0.849
75061W        W40046  10.310  12.329   1.323
75062W        W40047  39.422  11.737  13.390
75063W        W40048  39.892  27.449  14.962
75064W        W40049  29.955  18.819  10.378
75065W        W40050  17.839  24.491  12.033
75066W        W40051  32.847  42.524   1.453
75067W        W40052  32.394  10.753  14.871
75068W        W40053  34.639  20.574  10.688
75069W        W40054  19.760  10.754   1.016
75070W        W40055  13.269  15.925   4.108
75071W        W40056   7.111  42.395   3.695
75072W        W40057  27.973  42.955   3.187
75073W        W40058  31.506   2.674   2.015
75074W        W40059  41.339   5.087   3.703
75075W        W40060   1.756   0.868  13.400
75076W        W40061  29.570   2.047  14.962
75077W        W40062  32.337   9.725  14.410
75078W        W40063  31.190  21.714   1.878
75079W        W40064  30.646   3.833   4.116
75080W        W40065   5.484  32.939   4.859
75081W        W40066  24.127  22.804  13.845
75082W        W40067  41.013  38.849   3.993
75083W        W40068  32.649  27.647   5.036
75084W        W40069  39.785   9.143   3.680
75085W        W40070  23.321  15.014  12.000
75086W        W40071  24.968  41.567   2.963
75087W        W40072  13.812  44.487  11.948
75088W        W40073  36.326  29.138  11.708
75089W        W40074   6.348  27.526   3.513
75090W        W40075  11.456  35.007   3.621
75091W        W40076   7.118  28.008  14.767
75092W        W40077  38.798  34.383   4.763
75093W        W40078  35.009  32.906  14.486
75094W        W40079  20.074   4.926  14.820
75095W        W40080  38.147  29.763  11.179
75096W        W40081  44.709  40.474   4.762
75097W        W40082  22.033  17.688   1.749
75098W        W40083  28.917  30.641  14.772
75099W        W40084  38.539  11.864   2.613
75100W        W40085  23.883  21.209   1.650
75101W        W40086   7.025  24.524   4.079
75102W        W40087  14.391  13.671  11.657
75103W        W40088  37.963   8.188   3.234
75104W        W40089  41.864  24.453   0.181
75105W        W40090  23.688  37.052  14.903
75106W        W40091  27.005   7.993   1.445
75107W        W40092  15.061  36.058  10.903
75108W        W40093  41.620   4.265   1.999
75109W        W40094   1.820   1.363   1.237
75110W        W40095   5.967   4.284   2.812
75111W        W40096   2.143  23.032   2.360
75112W        W40097  36.336   0.840  12.602
75113W        W40098   9.812  24.280  10.704
75114W        W40099  28.184  21.491  14.794
75115W        W40100  32.947  26.571   3.343
75116W        W40101   1.039  31.605  14.753
75117W        W40102  21.731   6.934   2.142
75118W        W40103  41.846  16.661  12.627
75119W        W40104  32.574  21.855   2.760
75120W        W40105  44.208  15.228   5.473
75121W        W40106  13.458  25.977  12.433
75122W        W40107  14.624  24.643  12.576
75123W        W40108  30.851  42.855   4.906
75124W        W40109  30.767  33.541   2.066
75125W        W40110  31.713  34.186   0.379
75126W        W40111  15.385  34.485  12.558
75127W        W40112   8.300   3.563  13.701
75128W        W40113  21.627   4.297   1.753
75129W        W40114  11.385  44.883   4.618
75130W        W40115  25.754  19.496   3.782
75131W        W40116  44.110  23.137   4.694
75132W        W40117  20.667   7.000  11.581
75133W        W40118  37.256   7.638  13.097
75134W        W40119  18.729  11.730   1.784
75135W        W40120  27.324  42.997  13.318
75136W        W40121   0.486  42.283   0.492
75137W        W40122  31.244  13.581  14.542
75138W        W40123   0.287  27.812   4.694
75139W        W40124  36.845  21.725   0.946
75140W        W40125   2.957   0.368  13.061
75141W        W40126   7.395  42.900  13.288
75142W        W40127  16.584  12.433   0.538
75143W        W40128  19.864   7.337   1.465
75144W        W40129  25.479  23.023   1.717
75145W        W40130   8.310  34.713  13.359
75146W        W40131  37.447   9.447  11.778
75147W        W40132   1.791  44.949  11.436
75148W        W40133   2.487  26.103  13.507
75149W        W40134  11.267   9.361   2.711
75150W        W40135   4.262  30.136   4.564
75151W        W40136  43.047  36.526   1.222
75152W        W40137   4.527   3.069   2.936
75153W        W40138  41.700  28.559   3.626
75154W        W40139  15.014  40.780  12.780
75155W        W40140  42.409  12.639  13.545
75156W        W40141   2.330  34.389  13.759
75157W        W40142  16.222  41.987   3.323
75158W        W40143   0.970  15.255  12.599
75159W        W40144  37.405   3.179   1.870
75160W        W40145   8.628  16.776  10.703
75161W        W40146  16.160  14.816   0.419
75162W        W40147  15.333   0.269   0.291
75163W        W40148  22.040  11.440   4.071
75164W        W40149   2.048  30.574   4.091
75165W        W40150  42.899   1.296  11.715
75166W        W40151  20.017  12.960  11.437
75167W        W40152   4.017  32.375   0.245
75168W        W40153  40.791  29.940   1.316
75169W        W40154  43.840  18.523  14.498
75170W        W40155  31.486   4.832  13.099
75171W        W40156  29.514  21.234   4.994
75172W        W40157   2.781  37.338  12.483
75173W        W40158  12.219  44.382  12.984
75174W        W40159   4.359  44.210  11.164
75175W        W40160   2.481  15.432   0.814
75176W        W40161  22.799   6.380   3.865
75177W        W40162  36.386  33.098  11.495
75178W        W40163  18.229   5.705   1.954
75179W        W40164  20.816  29.274  10.172
75180W        W40165  30.809  40.283   3.368
75181W        W40166  33.122   7.762   0.479
75182W        W40167  34.398  34.095  12.553
75183W        W40168  38.956  13.845   3.798
75184W        W40169   2.501  40.992  12.411
75185W        W40170  26.636  43.355   1.419
75186W        W40171  26.586  13.856   1.385
75187W        W40172  42.264  12.080  10.610
75188W        W40173  12.143  13.742   0.951
75189W        W40174  19.698  23.499   0.826
75190W        W40175  15.502  28.201  13.615
75191W        W40176  31.489  30.766  10.712
75192W        W40177  20.871  31.595   1.547
75193W        W40178   1.882   6.299  11.979
75194W        W40179  28.143  18.485   4.263
75195W        W40180  27.938  27.096   4.566
75196W        W40181  33.867  28.735  14.340
75197W        W40182   9.455  26.034   2.249
75198W        W40183  31.821  27.898   4.149
75199W        W40184  13.277  25.925   3.388
75200W        W40185  28.897   4.853   1.825
75201W        W40186  36.053  24.693   1.449
75202W        W40187   6.822  35.472  11.413
75203W        W40188  42.439   7.216  12.154
75204W        W40189  12.075   9.340   3.544
75205W        W40190  26.527  18.509   4.107
75206W        W40191  44.723   4.184   1.185
75207W        W40192  11.043  33.560  12.108
75208W        W40193  38.005  20.675  12.094
75209W        W40194  17.315  10.646   1.598
75210W        W40195  17.504   1.764   4.746
75211W        W40196  32.680  15.149   2.344
75212W        W40197  31.025  17.263  10.665
75213W        W40198  44.055  35.712  13.792
75214W        W40199  44.021   0.275   2.757
75215W        W40200   2.736  18.961   2.814
75216W        W40201  30.591  11.603   0.783
75217W        W40202  28.728  40.030  13.292
75218W        W40203   6.922  14.673   0.249
75219W        W40204  25.842  44.757  13.082
75220W        W40205  37.404  19.250   4.368
75221W        W40206   0.842  16.946  14.085
75222W        W40207  21.509   1.225  11.063
75223W        W40208  28.143  15.296  10.025
75224W        W40209  18.188  10.961   1.721
75225W        W40210   5.032  16.967  12.023
75226W        W40211  28.193  15.304   2.466
75227W        W40212   5.908  17.304  11.561
75228W        W40213  14.777  10.831   3.578
75229W        W40214   6.732  10.144  13.382
75230W        W40215  10.070  36.080   1.784
75231W        W40216  44.154  36.809  13.625
75232W        W40217   9.309  18.302   0.179
75233W        W40218   5.278  39.362   1.967
75234W        W40219  24.515   9.125  12.890
75235W        W40220  42.730  30.685   3.588
75236W        W40221  34.597  17.829   4.580
75237W        W40222  39.005   0.954  14.215
75238W        W40223  42.812   0.481   3.309
75239W        W40224  11.760  29.448  12.114
75240W        W40225  36.035  24.730  11.144
75241W        W40226  25.678   7.485  10.126
75242W        W40227   1.479  44.097   1.458
75243W        W40228  12.832   7.439   2.094
75244W        W40229  23.448  10.935  12.897
75245W        W40230  43.290  24.072  13.416
75246W        W40231  31.347   3.328   1.339
75247W        W40232  14.701  22.829   1.185
75248W        W40233   0.051  32.066   4.011
75249W        W40234  25.331  25.581  13.577
75250W        W40235  31.957  13.193  12.641
75251W        W40236  36.774  24.513   4.994
75252W        W40237  30.592  37.882  13.277
75253W        W40238  19.659  37.947  10.503
75254W        W40239  43.974  33.505   0.909
75255W        W40240   0.263  17.957   4.152
75256W        W40241  22.728  14.498   3.754
75257W        W40242  21.962  30.081  14.647
75258W        W40243  27.385  44.850  12.516
75259W        W40244   1.583  21.537   3.043
75260W        W40245   9.304   7.597   0.509
75261W        W40246  31.628  23.633   2.997
75262W        W40247  30.865   3.357   5.062
75263W        W40248  16.093  12.316   0.375
75264W        W40249  26.483  11.075   0.403
75265W        W40250  24.023  41.345   1.520
75266W        W40251  19.159  15.791   0.290
75267W        W40252  34.525  40.991   3.973
75268W        W40253   6.185  40.218   2.475
75269W        W40254  16.252  20.464   0.806
75270W        W40255  32.883  41.404   3.762
75271W        W40256  38.019  13.596   0.096
75272W        W40257  33.388   1.153   0.492
75273W        W40258  35.838  23.481  13.888
75274W        W40259  41.963   9.254   1.614
75275W        W40260  26.710  22.099  13.406
75276W        W40261  25.417   8.822   1.856
75277W        W40262  37.199  12.319   0.756
75278W        W40263  24.687  40.066   3.715
75279W        W40264   4.665  10.774  13.457
75280W        W40265  41.418   4.939  10.732
75281W        W40266   9.224   7.439  14.584
75282W        W40267   1.129   2.297  11.126
75283W        W40268   6.002  25.024  14.137
75284W        W40269   5.406  40.709  14.138
75285W        W40270  25.210  25.888  11.630
75286W        W40271  32.623  18.450  14.912
75287W        W40272  10.170  29.400   1.640
75288W        W40273   6.555  16.056  11.970
75289W        W40274  17.262  23.111  14.206
75290W        W40275  17.256  17.652   2.624
75291W        W40276   6.270   1.547   0.925
75292W        W40277  22.124  20.936   4.800
75293W        W40278  26.693   9.323   1.983
75294W        W40279   6.510  13.719   2.223
75295W        W40280   0.280  33.483   2.833
75296W        W40281  42.351  13.156   0.839
75297W        W40282  35.962  29.131   3.928
75298W        W40283  15.799   4.296  13.968
75299W        W40284  28.182  20.261   2.702
75300W        W40285  24.284   3.283   2.381
75301W        W40286  12.962  17.452   2.262
75302W        W40287   1.196  35.416   3.380
75303W        W40288  29.569  15.651   2.169
75304W        W40289  22.903  30.069  14.274
75305W        W40290  12.795  26.474   3.202
75306W        W40291   8.653  32.559   4.595
75307W        W40292  25.509   4.142  11.531
75308W        W40293   7.281  27.229  12.554
75309W        W40294  29.643  26.133  14.398
75310W        W40295  17.655  25.991   3.042
75311W        W40296  11.877  22.235  14.364
75312W        W40297  42.335  31.019  12.838
75313W        W40298  41.595  31.880   2.079
75314W        W40299  10.410  31.918   3.733
75315W        W40300  10.198  19.245  10.560
75316W        W40301  37.622  44.481   4.382
75317W        W40302  17.177  25.581   2.228
75318W        W40303  39.871  37.766   0.294
75319W        W40304   8.797  19.882  13.429
75320W        W40305   5.302   2.216  11.139
75321W        W40306   9.756  36.573   3.793
75322W        W40307  37.495  20.061   0.326
75323W        W40308  25.777  18.807  11.030
75324W        W40309  33.183  16.817   0.806
75325W        W40310  32.033  15.793  11.604
75326W        W40311  40.100  26.140  13.425
75327W        W40312  23.721  41.513   4.647
75328W        W40313  37.531  23.253   1.136
75329W        W40314   4.288  43.029   3.698
75330W        W40315  25.034  41.418   2.446
75331W        W40316  37.356   4.178  12.083
75332W        W40317  25.289  23.555  11.597
75333W        W40318  41.113  27.358   2.732
75334W        W40319   4.943  33.666   4.498
75335W        W40320  26.915  40.626   3.428
75336W        W40321  29.610  19.180  12.914
75337W        W40322   8.384   6.740   2.674
75338W        W40323   8.766  31.881  14.494
75339W        W40324  21.123  15.302  11.389
75340W        W40325  35.644   3.237  11.592
75341W        W40326  29.123  23.689  11.169
75342W        W40327  36.509  36.606   4.618
75343W        W40328  39.659   6.808  14.834
75344W        W40329  38.965  37.838  13.489
75345W        W40330  23.196  13.655   1.797
75346W        W40331  29.237  13.216   4.856
75347W        W40332   1.079   2.917   3.214
75348W        W40333  33.695  19.019  10.357
75349W        W40334  22.006  15.493  13.420
75350W        W40335   4.048   9.621   3.675
75351W        W40336  18.866  14.103   1.850
75352W        W40337   3.339   1.603   0.373
75353W        W40338  13.101  18.026  13.987
75354W        W40339   6.620  19.283  10.604
75355W        W40340  14.649  22.217   4.829
75356W        W40341  29.742  32.289   0.157
75357W        W40342  23.672  28.228   3.162
75358W        W40343  18.333  22.042   1.820
75359W        W40344   7.667  31.346   4.641
75360W        W40345  20.172  19.404  11.163
75361W        W40346  11.381  25.218   0.299
75362W        W40347  29.404  28.313   1.966
75363W        W40348   1.425   6.341   4.637
75364W        W40349  31.356  18.115   1.155
75365W        W40350  19.033  18.600  13.310
75366W        W40351  34.687  38.032  12.873
75367W        W40352  17.888  36.685   2.162
75368W        W40353  41.871  16.357   0.632
75369W        W40354  33.335  28.514   3.706
75370W        W40355  13.941  32.004  11.976
75371W        W40356  44.063  20.973  10.922
75372W        W40357   1.591  22.176   3.727
75373W        W40358  13.178   1.860  11.039
75374W        W40359  13.996   9.480  10.716
75375W        W40360  14.647  38.132  11.594
75376W        W40361   4.894  11.417   4.779
75377W        W40362  12.973  33.852  14.557
75378W        W40363   6.785  22.610   0.918
75379W        W40364  33.544  14.217   4.297
75380W        W40365  39.299  33.464   0.533
75381W        W40366   4.607   7.693  11.830
75382W        W40367  12.876   5.182   4.421
75383W        W40368  10.459   5.674  11.582
75384W        W40369  27.270  11.109  10.666
75385W        W40370   0.363  29.496   1.444
75386W        W40371  39.573   6.768   4.533
75387W        W40372   2.266  44.516   4.233
75388W        W40373  29.466   7.259   2.698
75389W        W40374  44.050  17.602   3.859
75390W        W40375  33.646  29.386   4.070
75391W        W40376   2.938  26.170   4.823
75392W        W40377  17.180  16.080   1.053
75393W        W40378   6.484   0.906  13.937
75394W        W40379   7.781  42.997  11.589
75395W        W40380   2.282  30.864  12.931
75396W        W40381  20.155  20.168  11.874
75397W        W40382  21.569  31.107   1.059
75398W        W40383   6.160  12.837  14.519
75399W        W40384  41.295  27.062   3.561
75400W        W40385  37.448  18.128  11.029
75401W        W40386   4.781  26.475  11.152
75402W        W40387  33.007  13.522   1.155
75403W        W40388   2.295  18.890   4.877
75404W        W40389   3.771   4.871   9.797
75405W        W40390  41.548  34.055  11.614
75406W        W40391  27.813  29.105  14.356
75407W        W40392  32.188  13.442   0.504
75408W        W40393  23.694  39.879   0.295
75409W        W40394   8.094  13.616   0.763
75410W        W40395  17.194   6.961   2.653
75411W        W40396  12.040  34.960  10.422
75412W        W40397  20.229  23.471  12.103
75413W        W40398  29.204  34.438  10.534
75414W        W40399  17.749  19.971   4.102
75415W        W40400   6.265  13.161  11.637
75416W        W40401   2.303  17.066  11.397
75417W        W40402  42.588  38.895  13.779
75418W        W40403  28.517  34.586  11.073
75419W        W40404  42.518   3.407  12.946
75420W        W40405  27.030  10.030  14.694
75421W        W40406  39.373  19.522  11.995
75422W        W40407   1.088  37.380  12.397
75423W        W40408   5.555  29.930  14.946
75424W        W40409  16.757  21.941  14.870
75425W        W40410  42.626   7.403   1.374
75426W        W40411  40.857   8.744  11.645
75427W        W40412   5.212   8.038  14.078
75428W        W40413  21.971  32.606   2.582
75429W        W40414  36.024  29.794  12.587
75430W        W40415  22.259  32.900  11.127
75431W        W40416  17.045  19.022   2.363
75432W        W40417  27.003  38.776   4.521
75433W        W40418  41.741  34.007   3.200
75434W        W40419  14.461  32.224  12.663
75435W        W40420  44.293  18.320   0.435
75436W        W40421  33.017  14.395   2.713
75437W        W40422   7.935  24.461  14.337
75438W        W40423  21.570  20.147  12.789
75439W        W40424   4.431  20.623  11.587
75440W        W40425  29.679   8.214   1.849
75441W        W40426  21.865  28.407  12.945
75442W        W40427  42.541  11.338   1.391
75443W        W40428  38.464  41.408  10.477
75444W        W40429  19.132  34.217  12.391
75445W        W40430  42.436  16.215  11.152
75446W        W40431  36.366  30.380  11.317
75447W        W40432  38.673   8.927  10.386
75448W        W40433  42.445   3.171   2.365
75449W        W40434  28.642  22.619  14.855
75450W        W40435  40.194  37.781   3.865
75451W        W40436   7.130  15.188   3.753
75452W        W40437   1.710  23.596  11.167
75453W        W40438  30.578  36.632   0.453
75454W        W40439  19.972  10.229   2.853
75455W        W40440  14.102   0.688   4.982
75456W        W40441  31.634  35.831   2.594
75457W        W40442  24.812  28.510  14.828
75458W        W40443  31.510  44.527  13.556
75459W        W40444  10.440  19.321  14.319
75460W        W40445  13.548  19.477   4.343
75461W        W40446  16.103   7.922   1.278
75462W        W40447   1.248  14.394  12.126
75463W        W40448  23.319   5.731   3.302
75464W        W40449  30.198   8.353  12.105
75465W        W40450  32.059  28.667  13.136
75466W        W40451  31.898  11.681  10.955
75467W        W40452  43.727  41.451   3.551
75468W        W40453  41.891  36.734   2.733
75469W        W40454  26.693  40.148   1.757
75470W        W40455   1.354  37.007   3.224
75471W        W40456  39.343  44.907   2.339
75472W        W40457   3.412  40.478  14.803
75473W        W40458   6.820   3.089  10.652
75474W        W40459  21.037  11.667   0.861
75475W        W40460  30.436  39.677  10.427
75476W        W40461   4.113  39.719  13.063
75477W        W40462  29.636  37.563   0.482
75478W        W40463   0.723  20.302   1.181
75479W        W40464   9.235   1.458  13.121
75480W        W40465  21.279  16.757   2.339
75481W        W40466  10.403  32.986   1.249
75482W        W40467   4.132  41.692   0.277
75483W        W40468  13.141  39.354  10.742
75484W        W40469  26.504  21.283  13.517
75485W        W40470  16.276   8.551   2.751
75486W        W40471  44.168   8.143   4.927
75487W        W40472   5.675  43.359  14.066
75488W        W40473  19.284   1.764   0.396
75489W        W40474  11.256   0.046   2.667
75490W        W40475  12.439  26.491  11.562
75491W        W40476  19.322  43.730  11.162
75492W        W40477   8.411  17.310  14.936
75493W        W40478  28.407  44.879  11.616
75494W        W40479  37.905  14.292   1.644
75495W        W40480  11.190   7.626  10.721
75496W        W40481   0.861  42.898   3.270
75497W        W40482  21.634   1.983  11.925
75498W        W40483  17.109  30.016   0.677
75499W        W40484   1.951   8.632  12.023
75500W        W40485  42.057   8.121   2.938
75501W        W40486  23.588   1.973  14.776
75502W        W40487  20.535  28.344   4.495
75503W        W40488  22.643  17.669  13.968
75504W        W40489  38.375  20.468  10.643
75505W        W40490  39.360   3.242   1.880
75506W        W40491  12.607  16.640   4.741
75507W        W40492  11.731  42.199   0.951
75508W        W40493   7.660  10.250  14.002
75509W        W40494  13.606  40.914  11.917
75510W        W40495  26.714  27.122   3.748
75511W        W40496  39.974  35.351   0.726
75512W        W40497  41.755  32.780  13.414
75513W        W40498   0.494   0.796  12.964
75514W        W40499   6.588   5.324   2.206
75515W        W40500  28.585  29.980   2.675
75516W        W40501  20.474  16.307   3.996
75517W        W40502  31.537  19.146  13.503
75518W        W40503   1.042   2.805  10.596
75519W        W40504  29.252  20.981   3.214
75520W        W40505  20.179  40.497   3.606
75521W        W40506  14.657  35.596  14.437
75522W        W40507  20.488  31.059  11.499
75523W        W40508  30.940  24.369  11.696
75524W        W40509   9.135  11.977   4.503
75525W        W40510  18.717  11.918  13.759
75526W        W40511  19.289  23.285  13.003
75527W        W40512  35.861  14.242  13.529
75528W        W40513  13.304  11.809   3.132
75529W        W40514  24.447  16.620  13.916
75530W        W40515  23.453  41.289   0.875
75531W        W40516  30.875  38.919  10.086
75532W        W40517  32.476   3.256   2.144
75533W        W40518  27.097  19.746  12.571
75534W        W40519  34.142  25.861  10.646
75535W        W40520  39.018  24.635   2.966
75536W        W40521   4.350  35.392   4.760
75537W        W40522   0.370   3.487  10.797
75538W        W40523  18.182  44.923  14.831
75539W        W40524  34.137  32.371   2.493
75540W        W40525  40.440   0.023  14.570
75541W        W40526  25.484   5.397  13.323
75542W        W40527  13.066  17.104  12.125
75543W        W40528   7.835  17.703   3.354
75544W        W40529  15.413  44.714  12.555
75545W        W40530  42.724  33.229   2.775
75546W        W40531  21.176  13.165   0.006
75547W        W40532  35.519  28.488  13.908
75548W        W40533  38.551   2.813   0.768
75549W        W40534  44.313   2.778   3.770
75550W        W40535  22.806   4.118  14.890
75551W        W40536  31.653  35.155   4.162
75552W        W40537   0.447  21.580   0.006
75553W        W40538   4.453  22.122  12.415
75554W        W40539   8.630  44.306  14.521
75555W        W40540   9.590  24.110   0.903
75556W        W40541  38.676  35.407   4.482
75557W        W40542   8.981  22.190   0.458
75558W        W40543  34.444  11.358   2.270
75559W        W40544  23.568  37.552  14.942
75560W        W40545   6.206  41.278  12.999
75561W        W40546  26.753  11.327  12.894
75562W        W40547   5.875   5.702   0.439
75563W        W40548  30.314   5.305  13.642
75564W        W40549  12.555  24.082   3.656
75565W        W40550  26.116  42.738  11.055
75566W        W40551  39.394  12.609  12.054
75567W        W40552  43.366  17.863   3.207
75568W        W40553  29.433   1.621  10.280
75569W        W40554  34.648  25.059  14.283
75570W        W40555   3.225   4.301   1.821
75571W        W40556   3.652  19.183  12.815
75572W        W40557   4.817   0.741  14.391
75573W        W40558  30.027  14.659   0.752
75574W        W40559  14.199  38.627  14.298
75575W        W40560  43.893  41.928  11.139
75576W        W40561   4.945  39.308  11.213
75577W        W40562   6.216  31.690   0.314
75578W        W40563  24.475  35.923   0.013
75579W        W40564  40.778  28.494  14.869
75580W        W40565  44.628  31.498   0.493
75581W        W40566   1.850   2.833   4.133
75582W        W40567  11.522  22.353  11.522
75583W        W40568   1.957  33.384  11.488
75584W        W40569  28.943  44.996  11.622
75585W        W40570   8.594  28.260  13.447
75586W        W40571   4.694  40.546  12.156
75587W        W40572  30.173   9.501  13.062
75588W        W40573  16.281  28.611   3.258
75589W        W40574   6.583  21.228  12.477
75590W        W40575  37.139  16.748  12.693
75591W        W40576  11.213  37.058  12.971
75592W        W40577  11.172  44.450   2.716
75593W        W40578  43.965  25.888  12.773
75594W        W40579  35.529  37.464   1.433
75595W        W40580  30.904   4.850  11.524
75596W        W40581  34.319  17.167   0.911
75597W        W40582   1.801  41.842   3.776
75598W        W40583  41.344   2.720  13.309
75599W        W40584  31.022  24.937  11.138
75600W        W40585   9.950   4.262   4.047
75601W        W40586   3.176  26.969  12.352
75602W        W40587  18.650  10.992   0.428
75603W        W40588   3.798  15.296   5.003
75604W        W40589  27.412  33.978   3.352
75605W        W40590  43.145   6.945  13.939
75606W        W40591  19.277  32.921  13.408
75607W        W40592  40.990  43.518   1.902
75608W        W40593  41.429  25.439   0.947
75609W        W40594  20.503  23.968  14.373
75610W        W40595  22.419  44.366  13.327
75611W        W40596  16.286   2.198   1.344
75612W        W40597  29.580  30.649   4.603
75613W        W40598  36.969  22.004  12.054
75614W        W40599  38.900  35.843  10.944
75615W        W40600  32.361  12.264  10.699
75616W        W40601   4.301   2.921  13.151
75617W        W40602   7.470  14.318  11.501
75618W        W40603  27.664  31.738   9.953
75619W        W40604  25.082  31.608   1.258
75620W        W40605  23.737  15.721   1.528
75621W        W40606  42.440  30.429   0.611
75622W        W40607  29.874  41.337  12.902
75623W        W40608   6.765   7.132   2.726
75624W        W40609  13.932  11.750  10.836
75625W        W40610  30.147  12.625  13.806
75626W        W40611  35.547  31.010  12.810
75627W        W40612  26.756  27.835  11.495
75628W        W40613  29.908  37.912   4.620
75629W        W40614  20.758  43.173   3.438
75630W        W40615  14.990  12.715   4.254
75631W        W40616   0.809  33.438   2.882
75632W        W40617  40.305  25.484   1.748
75633W        W40618  39.052  16.984  14.461
75634W        W40619  31.560  31.768   3.081
75635W        W40620  17.123  31.330   1.208
75636W        W40621  15.197   4.668  10.754
75637W        W40622  17.798  19.657  14.711
75638W        W40623  21.064   5.153   0.332
75639W        W40624  24.492  39.690   2.771
75640W        W40625  24.935  38.591   3.950
75641W        W40626  43.429   1.772  12.553
75642W        W40627  25.106   1.509  12.145
75643W        W40628  42.290  26.522   0.333
75644W        W40629  26.158  10.569   4.581
75645W        W40630  27.634   7.480  13.870
75646W        W40631  13.553   2.025  14.919
75647W        W40632  39.897  13.631   1.148
75648W        W40633  21.669  16.999   2.716
75649W        W40634  12.243   0.956   3.164
75650W        W40635  41.939  17.515   2.885
75651W        W40636   2.887  26.927  13.712
75652W        W40637   0.032   2.937  11.610
75653W        W40638  16.169   8.011   2.844
75654W        W40639  36.549  35.649   2.953
75655W        W40640   5.165  40.445   0.449
75656W        W40641  13.670  13.419   1.143
75657W        W40642   6.968   5.899   1.319
75658W        W40643  37.841   9.583   2.089
75659W        W40644  14.306  12.170  11.695
75660W        W40645  33.476  27.216   2.435
75661W        W40646  16.747  20.431  12.829
75662W        W40647  34.589   3.249   1.254
75663W        W40648  28.407   4.659  14.946
75664W        W40649  19.530  26.882   3.315
75665W        W40650   4.936  13.144   0.288
75666W        W40651  40.435  31.471   4.517
75667W        W40652   3.423  42.499   1.208
75668W        W40653   4.462   4.457   1.636
75669W        W40654  27.851  40.408   3.607
75670W        W40655  38.780  12.457   4.289
75671W        W40656   3.540  14.732  14.302
75672W        W40657  42.433  34.765  12.223
75673W        W40658  43.004  23.058  12.034
75674W        W40659   7.971  22.091   3.770
75675W        W40660  17.245  41.745  11.223
75676W        W40661  38.418   4.843   1.261
75677W        W40662  32.485  43.029  14.237
75678W        W40663  37.187  28.466  10.740
75679W        W40664  44.389  44.514   3.075
75680W        W40665  25.012  22.657  10.987
75681W        W40666  34.293   0.402   3.012
75682W        W40667  13.328  32.833  14.560
75683W        W40668  40.804  35.193   3.909
75684W        W40669  12.871  27.473   3.369
75685W        W40670  28.207  10.219  11.731
75686W        W40671  40.425   4.268  13.378
75687W        W40672   2.116   7.838   2.862
75688W        W40673   0.392  43.037  10.540
75689W        W40674  33.351  41.781  10.714
75690W        W40675  27.960   9.854  12.030
75691W        W40676   2.720  28.555   0.796
75692W        W40677   1.775   3.495   3.420
75693W        W40678  27.676  24.270   1.921
75694W        W40679  31.480   2.969  10.997
75695W        W40680  13.661   7.133   1.805
75696W        W40681   3.676  15.042  12.194
75697W        W40682  43.195  27.773  11.963
75698W        W40683   3.789  34.490   0.237
75699W        W40684  15.316  12.609   2.749
75700W        W40685  17.218  39.968  11.629
75701W        W40686  22.083  26.500  13.549
75702W        W40687   6.522  42.355  11.166
75703W        W40688  26.409  25.198  13.409
75704W        W40689  19.820  17.243  11.027
75705W        W40690  23.144  26.292   1.739
75706W        W40691  35.217  14.113   2.687
75707W        W40692  22.571   8.940  12.620
75708W        W40693  18.537  30.251  13.992
75709W        W40694   6.803  21.476  11.124
75710W        W40695  37.117  35.976  10.684
75711W        W40696   7.335  21.772  11.547
75712W        W40697  22.826  41.748   1.809
75713W        W40698   7.852  25.387  10.282
75714W        W40699   7.342  35.076   3.172
75715W        W40700   7.270  18.161   4.971
75716W        W40701  10.632  14.567   4.484
75717W        W40702  21.260   3.615   3.166
75718W        W40703  12.103   9.201  14.063
75719W        W40704  43.722  24.570   2.115
75720W        W40705  30.190   7.641  14.856
75721W        W40706  40.554  32.918   2.285
75722W        W40707  42.507  21.166   4.003
75723W        W40708   7.912   0.478  13.603
75724W        W40709  34.310  13.739   3.682
75725W        W40710   1.926  26.113   4.536
75726W        W40711  22.434  31.100  13.501
75727W        W40712  30.177  29.395  11.039
75728W        W40713  26.675   8.393   1.437
75729W        W40714  25.745  17.335  13.329
75730W        W40715  14.779  18.963  12.629
75731W        W40716  30.908   7.841   4.825
75732W        W40717   0.532  28.587  13.458
75733W        W40718  16.631  42.462   3.307
75734W        W40719  13.877  43.452  13.574
75735W        W40720  11.517  41.339  11.737
75736W        W40721   1.726  24.569   0.838
75737W        W40722  44.734  40.943  13.859
75738W        W40723  13.557  33.997   2.885
75739W        W40724  37.044  25.761   1.282
75740W        W40725   8.675   6.112  12.492
75741W        W40726  38.998  41.913  11.998
75742W        W40727  22.447  34.425   4.683
75743W        W40728  21.984  41.363  13.125
75744W        W40729  17.037  39.745   1.678
75745W        W40730  34.848  27.978   0.895
75746W        W40731   5.788   1.351   4.720
75747W        W40732   7.550  27.427   1.415
75748W        W40733  36.049  31.057  14.071
75749W        W40734  34.098  22.521   3.909
75750W        W40735  15.663  30.612   1.711
75751W        W40736  12.870   5.315   2.793
75752W        W40737   7.430  21.040  14.862
75753W        W40738   2.232   7.814  13.868
75754W        W40739  17.681  40.564  11.314
75755W        W40740  33.091  15.080  11.553
75756W        W40741  10.774  43.558   1.355
75757W        W40742  44.714  29.983   1.297
75758W        W40743   7.296  32.172  14.985
75759W        W40744  35.808  13.330   2.795
75760W        W40745  27.404  14.979   0.452
75761W        W40746   0.331  43.431   1.833
75762W        W40747  18.616  35.534   0.657
75763W        W40748  33.779  43.732   5.068
75764W        W40749  39.058  20.128   0.009
75765W        W40750  11.628   9.608  10.252
75766W        W40751  23.401  13.021  13.907
75767W        W40752  15.679   9.861  12.952
75768W        W40753   4.322  20.746  14.919
75769W        W40754  44.350  44.675   5.256
75770W        W40755  40.054  11.272  14.055
75771W        W40756  11.187  17.721  13.096
75772W        W40757  22.633  18.214   0.666
75773W        W40758  16.571  11.411  10.563
75774W        W40759  31.842  43.371   4.164
75775W        W40760  28.834  20.057   4.255
75776W        W40761   4.410  34.190   1.345
75777W        W40762  19.262  24.078   4.929
75778W        W40763   1.476  34.758   0.602
75779W        W40764  25.640  29.654   2.317
75780W        W40765  23.698   3.912  12.162
75781W        W40766  15.838  39.787   1.242
75782W        W40767  26.479  36.440   0.474
75783W        W40768  39.989   9.321   2.048
75784W        W40769  26.435  20.177  12.167
75785W        W40770   2.993   5.920  11.502
75786W        W40771  24.043  33.779  11.880
75787W        W40772  26.465  26.228   0.938
75788W        W40773  44.731  22.541  13.502
75789W        W40774  24.337  21.758   0.286
75790W        W40775  15.628   6.509   3.296
75791W        W40776  31.186  23.125  11.492
75792W        W40777  36.796  22.687  14.263
75793W        W40778  13.019  33.022  14.980
75794W        W40779  35.084  39.055  14.874
75795W        W40780  10.597  38.793   0.816
75796W        W40781  38.328  11.528  13.741
75797W        W40782  31.992  14.216   2.771
75798W        W40783  14.776  41.766   0.811
75799W        W40784   2.444   3.183  14.258
75800W        W40785   3.918  39.761  11.559
75801W        W40786  40.888  15.612   2.235
75802W        W40787  17.151   7.135   4.436
75803W        W40788  11.937  30.294  14.885
75804W        W40789   7.772  12.689   0.760
75805W        W40790  23.580  20.740   5.535
75806W        W40791  14.806  40.754   3.158
75807W        W40792  38.462  10.514  13.483
75808W        W40793  34.860  32.866   3.676
75809W        W40794  18.823  30.907   3.975
75810W        W40795   1.455  24.510   4.192
75811W        W40796   1.829   9.217   0.352
75812W        W40797  16.412  13.820  12.868
75813W        W40798  41.566  31.367   3.209
75814W        W40799  12.635  32.399  12.523
75815W        W40800  10.146  25.183  13.528
75816W        W40801   0.365  38.059   2.170
75817W        W40802   2.021  14.186   2.914
75818W        W40803  16.664   1.266   4.026
75819W        W40804  13.190   3.311   1.256
75820W        W40805  31.148  33.887  12.727
75821W        W40806   2.207  28.402   4.292
75822W        W40807  44.847  39.164  12.536
75823W        W40808   7.790  44.904  12.531
75824W        W40809  13.685   8.361   2.270
75825W        W40810  33.902  28.088  14.797
75826W        W40811  11.328   1.409   3.371
75827W        W40812  19.977  34.183   2.699
75828W        W40813   0.724   0.272  13.013
75829W        W40814  32.067   3.186  10.175
75830W        W40815  14.307   6.327  11.398
75831W        W40816  42.198  27.063  13.002
75832W        W40817   9.755  11.374  14.486
75833W        W40818  11.319  23.539   4.606
75834W        W40819  38.711  32.471   4.980
75835W        W40820  35.375  12.096   1.416
75836W        W40821  12.672   2.439  14.063
75837W        W40822   9.674  33.706   1.841
75838W        W40823  16.503   3.119  13.012
75839W        W40824  12.751  27.529  14.305
75840W        W40825   8.715  38.831  12.241
75841W        W40826  14.062  20.446  14.028
75842W        W40827   7.181  14.783  12.664
75843W        W40828  13.213  37.285   0.756
75844W        W40829  16.918  11.232   0.206
75845W        W40830  23.770  27.920   1.209
75846W        W40831   7.463  41.589   4.209
75847W        W40832  39.549  39.961  12.591
75848W        W40833  18.306   2.163  11.173
75849W        W40834   2.540   9.911  12.039
75850W        W40835  10.359  36.917  10.774
75851W        W40836  37.286  13.144  12.915
75852W        W40837  30.523  35.720   4.573
75853W        W40838  19.211   2.870  13.578
75854W        W40839   7.183   8.874  12.024
75855W        W40840   6.001  13.605  13.085
75856W        W40841  40.877  34.152  14.777
75857W        W40842   8.919  41.830   2.225
75858W        W40843  27.249   0.479  13.510
75859W        W40844  16.776  35.574  14.769
75860W        W40845  43.070  13.715   0.571
75861W        W40846  34.682  30.996   4.862
75862W        W40847   4.863  31.368   3.330
75863W        W40848   2.992  44.668  14.558
75864W        W40849  26.174  15.288  12.924
75865W        W40850  38.270  38.415   3.706
75866W        W40851  19.472  29.509   3.160
75867W        W40852  22.188   7.152   2.646
75868W        W40853  12.684  26.735  13.068
75869W        W40854  22.419  14.399   2.203
75870W        W40855  15.116  14.427   4.303
75871W        W40856  28.588   6.175   3.615
75872W        W40857   4.881  41.592  12.176
75873W        W40858  31.587  31.614   0.443
75874W        W40859   5.388  24.634   4.952
75875W        W40860   4.711   2.374  14.403
75876W        W40861  21.161   7.391   3.789
75877W        W40862   8.381  22.215  12.101
75878W        W40863  26.699  27.051   0.368
75879W        W40864  12.232   4.559  14.470
75880W        W40865  28.161  29.176  12.446
75881W        W40866  44.883  18.061  11.489
75882W        W40867  11.557  21.390   5.034
75883W        W40868  32.877  31.495   2.238
75884W        W40869  35.184   7.067   2.457
75885W        W40870  16.250  25.916   9.803
75886W        W40871   7.706  13.441  12.982
75887W        W40872  28.498  19.893  12.437
75888W        W40873  11.868  42.057   2.224
75889W        W40874  37.865   8.101   4.063
75890W        W40875   5.776  20.330   4.251
75891W        W40876  37.110  13.283   1.443
75892W        W40877  44.662  41.438  13.266
75893W        W40878   3.275  11.291  10.170
75894W        W40879  34.609   4.377   4.639
75895W        W40880   5.370  40.862   2.344
75896W        W40881   2.789   3.400  11.065
75897W        W40882  10.395  31.179  11.057
75898W        W40883   1.646  37.344  12.547
75899W        W40884  10.158  23.517   1.388
75900W        W40885  42.253  10.115  12.510
75901W        W40886   8.749   9.696   0.257
75902W        W40887  37.670  14.676  11.923
75903W        W40888  18.004  31.425   2.272
75904W        W40889   0.696   2.702   2.198
75905W        W40890  12.748  31.055  12.538
75906W        W40891  12.646   3.982   4.232
75907W        W40892  24.434  38.920  14.427
75908W        W40893  18.878  29.635  10.726
75909W        W40894  22.469  43.411  12.937
75910W        W40895  19.189  21.219   2.093
75911W        W40896  12.936   2.341  11.023
75912W        W40897  25.756  41.030  12.901
75913W        W40898  27.459   3.383  12.057
75914W        W40899  36.883  21.465   3.132
75915W        W40900  29.225   6.440  13.143
75916W        W40901  13.544  44.579   0.422
75917W        W40902  11.216  30.258  12.954
75918W        W40903   0.611  34.397  12.962
75919W        W40904  20.082  21.099   2.820
75920W        W40905  40.505  16.301   2.688
75921W        W40906  43.106   9.906   4.307
75922W        W40907  16.796   9.756  10.361
75923W        W40908  22.765  30.945   9.912
75924W        W40909   4.419  28.638   0.239
75925W        W40910   4.363  16.602   0.615
75926W        W40911  32.013  32.066   3.066
75927W        W40912  20.004  33.348   2.145
75928W        W40913   6.159  36.025   4.656
75929W        W40914  29.629  18.666  12.700
75930W        W40915  31.708  30.148  14.507
75931W        W40916   8.497  42.665   3.417
75932W        W40917  37.304  18.616  14.485
75933W        W40918   1.325   7.656  14.361
75934W        W40919  25.034  32.950   1.045
75935W        W40920  23.619  17.139  12.469
75936W        W40921  16.792  13.841   0.641
75937W        W40922  33.793  31.542   2.041
75938W        W40923  20.645  16.723  11.377
75939W        W40924   4.942   5.755   0.862
75940W        W40925  10.524  22.474  10.281
75941W        W40926   7.861  38.298   1.278
75942W        W40927  43.198  22.563  14.561
75943W        W40928  21.528   4.496  10.783
75944W        W40929  38.735  16.544   3.237
75945W        W40930  23.729   4.212  14.134
75946W        W40931  12.711  21.708  11.535
75947W        W40932   2.655  34.988  10.764
75948W        W40933   5.814  13.311   2.718
75949W        W40934  24.459  43.683   3.347
75950W        W40935   4.091  24.545   2.484
75951W        W40936   7.248  29.453   2.599
75952W        W40937  36.754   2.923   3.416
75953W        W40938  35.625  11.048   3.633
75954W        W40939  18.095   3.041  12.052
75955W        W40940   5.499  13.596  13.021
75956W        W40941  13.830  31.861   2.901
75957W        W40942   6.794   0.047   2.516
75958W        W40943  42.918  31.190  12.559
75959W        W40944   1.264  16.205   1.942
75960W        W40945   9.080  17.233   1.383
75961W        W40946  27.122  13.390  13.459
75962W        W40947  39.296  34.413  14.521
75963W        W40948   2.428   2.286  10.790
75964W        W40949  35.426   4.153  11.772
75965W        W40950  37.497  42.038   4.551
75966W        W40951  32.467  39.730  14.912
75967W        W40952  26.798   4.448   3.251
75968W        W40953  10.223  36.617   2.529
75969W        W40954  38.501  32.558  14.442
75970W        W40955  29.535  15.612  12.984
75971W        W40956  13.304  35.647   1.328
75972W        W40957   5.100  42.363   2.520
75973W        W40958  28.285   2.916   2.001
75974W        W40959   0.367  17.875  10.712
75975W        W40960  12.195  25.234  14.236
75976W        W40961  12.270  44.451  11.574
75977W        W40962   3.897  29.592  10.467
75978W        W40963  40.865  19.020  11.429
75979W        W40964  31.284   3.409  10.699
75980W        W40965  18.822   1.771  13.846
75981W        W40966   4.767  36.460   0.853
75982W        W40967  12.113  25.087  12.799
75983W        W40968  36.468   0.582  10.959
75984W        W40969  25.643  38.083   3.932
75985W        W40970  41.037   0.190   4.462
75986W        W40971  20.718  17.023  11.775
75987W        W40972  13.217  38.293   4.013
75988W        W40973  44.912  18.344   2.581
75989W        W40974  43.574   4.798   0.962
75990W        W40975  29.459   3.253  12.858
75991W        W40976   9.851   0.408  10.686
75992W        W40977  23.620  34.384   2.711
75993W        W40978  12.386  31.414   1.335
75994W        W40979   1.036  11.806   2.802
75995W        W40980  13.328   4.270   4.307
75996W        W40981  14.343  40.882  12.464
75997W        W40982  38.889   8.021   4.597
75998W        W40983  42.578  25.139  12.974
75999W        W40984  11.364   3.290   4.206
76000W        W40985  36.481  14.739   4.605
76001W        W40986  37.117  44.018  13.094
76002W        W40987   3.835  24.976  12.634
76003W        W40988  35.817   4.844   0.828
76004W        W40989  25.914  27.520  11.344
76005W        W40990   5.284   5.561   3.425
76006W        W40991  29.287  39.516  12.384
76007W        W40992  18.615  23.190  14.233
76008W        W40993  28.606  11.058   2.633
76009W        W40994  27.224  11.632   3.085
76010W        W40995   0.194   1.461  14.862
76011W        W40996  26.541  13.604   3.228
76012W        W40997  37.981  43.024   1.862
76013W        W40998  43.098  39.013   0.872
76014W        W40999  32.068   1.798   4.622
76015W        W41000   7.708  17.215   3.305
76016W        W41001  39.218  20.676  11.365
76017W        W41002  17.919  38.264   2.807
76018W        W41003  39.696   4.812  11.928
76019W        W41004  11.889  39.666   4.145
76020W        W41005  36.614  41.022  13.886
76021W        W41006   8.485   0.500   4.754
76022W        W41007   8.234  26.608  10.855
76023W        W41008  36.984   3.145   2.420
76024W        W41009  25.761  44.142   5.181
76025W        W41010   6.115  26.509  12.183
76026W        W41011  19.207  26.217   2.549
76027W        W41012  30.691  13.688   2.282
76028W        W41013   6.486   3.600  11.232
76029W        W41014  23.631  12.690  12.364
76030W        W41015  28.817  36.904   2.265
76031W        W41016   9.211  39.456  11.726
76032W        W41017   3.481   7.258  11.760
76033W        W41018  25.405  28.906   5.433
76034W        W41019  41.357   9.575  14.806
76035W        W41020  14.399  44.895  11.695
76036W        W41021  40.030  30.499  13.064
76037W        W41022  10.112  13.576  13.847
76038W        W41023  37.055   5.414  12.371
76039W        W41024  40.562   8.975  12.448
76040W        W41025   4.893  13.309  13.424
76041W        W41026  22.661  25.254  11.539
76042W        W41027  36.103   2.615  11.241
76043W        W41028  26.228   6.950  12.383
76044W        W41029  26.403  30.672   0.923
76045W        W41030   3.711  26.623   2.800
76046W        W41031   6.823  12.408   3.178
76047W        W41032   5.946  40.438   0.371
76048W        W41033   2.046   0.883   3.636
76049W        W41034   3.331  18.517   1.350
76050W        W41035  12.161  23.959   1.037
76051W        W41036  18.001  42.049  10.778
76052W        W41037  40.565   8.322   1.773
76053W        W41038  37.862  19.266   4.075
76054W        W41039  42.996  14.673   1.118
76055W        W41040  20.789  16.303   0.583
76056W        W41041   5.039  23.923  10.468
76057W        W41042  36.278  27.164  14.074
76058W        W41043  12.006   4.791  14.058
76059W        W41044   8.190  40.971   4.575
76060W        W41045  39.397  31.629   0.297
76061W        W41046   0.515  33.073   3.819
76062W        W41047  26.413  11.296  11.112
76063W        W41048  32.540  43.448  11.453
76064W        W41049  32.655  30.154  14.249
76065W        W41050  41.388  18.208   3.364
76066W        W41051  31.386  27.949   0.256
76067W        W41052  29.686  39.823  13.979
76068W        W41053   9.687   6.250  12.565
76069W        W41054   2.806   4.544  12.804
76070W        W41055  30.974  23.122  14.843
76071W        W41056  28.953   9.665  11.938
76072W        W41057  16.087  35.495  12.140
76073W        W41058  14.076   3.933  14.420
76074W        W41059   7.235  10.244  13.437
76075W        W41060  35.514  36.956  13.555
76076W        W41061  33.872  19.244  14.440
76077W        W41062  11.634  12.584   0.007
76078W        W41063  20.275  16.754   4.882
76079W        W41064  32.991  13.611   2.195
76080W        W41065  17.759   2.162  13.448
76081W        W41066  35.075   5.128   3.737
76082W        W41067   6.600   1.532   1.328
76083W        W41068  36.323  19.946   4.662
76084W        W41069  32.043   4.958   0.875
76085W        W41070   1.367   6.737   1.643
76086W        W41071  43.942  25.008   4.849
76087W        W41072   1.069  30.690  10.920
76088W        W41073  25.507  14.897  11.642
76089W        W41074  43.482  43.243   3.206
76090W        W41075  37.890  15.964  11.639
76091W        W41076   4.086  23.182   0.053
76092W        W41077  38.068   6.292   3.446
76093W        W41078   2.410  31.548  13.833
76094W        W41079  33.377  36.178   1.874
76095W        W41080  44.705   3.946   4.150
76096W        W41081   7.059   6.710  12.251
76097W        W41082   2.887  14.193   2.827
76098W        W41083  28.487  31.770  12.861
76099W        W41084   9.783  18.816  11.704
76100W        W41085  24.910  24.163  11.256
76101W        W41086  10.810  29.421   3.701
76102W        W41087  32.131  42.882  10.261
76103W        W41088  40.032  15.338   2.291
76104W        W41089  12.256  25.373  12.326
76105W        W41090  18.006   6.962   3.271
76106W        W41091  36.409  22.168   4.115
76107W        W41092  43.953   3.127   2.689
76108W        W41093  15.358   3.846   4.603
76109W        W41094  42.037  26.936  11.809
76110W        W41095  39.955  11.731   4.287
76111W        W41096  12.508  18.821   0.921
76112W        W41097  37.403  22.021   0.921
76113W        W41098  33.345  21.660  10.178
76114W        W41099  43.948  30.546   0.805
76115W        W41100  12.304  41.595   2.696
76116W        W41101  44.433  36.930   3.217
76117W        W41102  33.676  41.553   4.111
76118W        W41103  34.982  35.460   2.450
76119W        W41104   1.882  44.441   0.726
76120W        W41105  12.264   5.074  14.432
76121W        W41106   2.227  42.909  13.899
76122W        W41107  32.079  38.331  11.641
76123W        W41108   9.401  33.850  11.414
76124W        W41109   1.371  33.952   0.010
76125W        W41110  35.427  32.600  14.352
76126W        W41111  25.952  10.670  11.559
76127W        W41112  43.452  15.057   3.348
76128W        W41113  34.530   7.726  12.809
76129W        W41114  38.001  29.244   1.854
76130W        W41115   4.302   9.456  14.394
76131W        W41116  34.136   3.315  12.634
76132W        W41117  28.565  24.889   3.125
76133W        W41118  14.617  21.580  12.953
76134W        W41119  44.503  40.393  12.095
76135W        W41120  23.018  42.494  12.890
76136W        W41121  14.101  12.414   3.932
76137W        W41122  23.544   4.775  10.102
76138W        W41123  25.700  21.748  11.165
76139W        W41124  23.314  26.764   1.850
76140W        W41125  26.117  39.652   4.060
76141W        W41126   8.444   9.080   2.869
76142W        W41127   2.794  43.312   0.739
76143W        W41128   2.544  31.640   1.253
76144W        W41129  37.137  27.219   2.789
76145W        W41130  36.405  31.842  14.877
76146W        W41131  14.623  29.175   2.223
76147W        W41132  23.147  18.533  12.976
76148W        W41133   6.468  28.116   5.154
76149W        W41134  20.600  32.971   2.922
76150W        W41135  29.710  22.717   0.742
76151W        W41136  40.860  19.583  14.690
76152W        W41137  36.816  22.312  14.649
76153W        W41138  27.963  44.857   3.701
76154W        W41139  15.352  25.632   9.817
76155W        W41140  40.475   6.748   4.885
76156W        W41141  41.520  35.339  12.591
76157W        W41142  25.230  31.172   2.200
76158W        W41143  41.313  23.263   4.183
76159W        W41144  32.513   8.545   1.733
76160W        W41145  11.571  26.955  12.110
76161W        W41146  26.151  14.284  13.019
76162W        W41147  19.306  23.348   1.790
76163W        W41148  35.665  14.808   3.513
76164W        W41149  25.527  34.638  13.977
76165W        W41150  13.702  34.581   3.165
76166W        W41151   6.945  32.627  13.004
76167W        W41152  42.388  14.841   0.389
76168W        W41153  40.928  19.002  13.492
76169W        W41154  43.532  11.728   4.092
76170W        W41155   0.269   8.154   2.309
76171W        W41156  17.234   0.872  10.581
76172W        W41157  20.184  40.521   3.109
76173W        W41158  38.084  25.119  12.139
76174W        W41159  36.828  19.530  14.330
76175W        W41160  44.360  14.815   3.654
76176W        W41161  43.517  15.115   2.229
76177W        W41162   0.063  24.968   2.309
76178W        W41163  19.716  15.084   2.239
76179W        W41164  14.892  36.668   3.188
76180W        W41165  40.494  33.507   3.223
76181W        W41166  40.095   7.243  14.127
76182W        W41167  30.892   0.315   0.076
76183W        W41168  29.026  33.140  14.329
76184W        W41169  41.979   5.715  14.421
76185W        W41170  35.119  16.893  12.852
76186W        W41171  32.122  43.286   4.579
76187W        W41172  25.721  32.946   0.882
76188W        W41173   1.598  14.457   1.287
76189W        W41174   0.314  36.978  13.897
76190W        W41175  22.084  43.271   1.421
76191W        W41176  34.263  33.901   4.379
76192W        W41177  22.943  24.200  12.020
76193W        W41178  42.376  16.082  10.655
76194W        W41179  41.563  18.758   4.593
76195W        W41180  36.750  15.478   2.821
76196W        W41181  22.611  34.036   3.330
76197W        W41182   4.691   5.266   2.766
76198W        W41183   1.344  40.759  11.286
76199W        W41184  11.610   6.440  14.011
76200W        W41185  38.433   6.345   1.039
76201W        W41186  13.674  38.892  11.214
76202W        W41187  14.186  35.432   1.825
76203W        W41188  13.596  43.467  12.113
76204W        W41189   1.544  28.471  11.615
76205W        W41190  11.282  14.085  11.611
76206W        W41191  17.233  12.121  10.723
76207W        W41192  38.108  40.931  11.856
76208W        W41193  29.941  13.568  11.047
76209W        W41194   6.188   9.253  10.754
76210W        W41195  28.148  41.959  12.858
76211W        W41196   4.247  21.324  12.936
76212W        W41197  40.222  44.408  10.627
76213W        W41198  22.113   7.674   0.788
76214W        W41199  12.536   2.034  11.147
76215W        W41200  25.634  37.549   2.177
76216W        W41201  44.251  16.360  14.029
76217W        W41202  21.716  27.350  12.887
76218W        W41203  21.942   2.739   0.825
76219W        W41204  33.877  14.035   4.669
76220W        W41205  23.075  37.890   2.722
76221W        W41206  36.438  23.929  14.781
76222W        W41207  14.199  18.924  14.084
76223W        W41208   7.556   6.683  11.329
76224W        W41209  20.684  38.583   2.654
76225W        W41210  27.570  33.086   1.013
76226W        W41211  12.652   1.569  14.411
76227W        W41212  16.467  19.703   4.130
76228W        W41213  11.758  36.660  13.032
76229W        W41214  17.307  34.531   3.222
76230W        W41215   1.777  14.309   3.902
76231W        W41216  12.792   6.583   1.643
76232W        W41217  29.858  35.575  11.090
76233W        W41218  29.097   6.415   0.612
76234W        W41219  35.086   6.108   1.715
76235W        W41220  21.230  43.848   2.828
76236W        W41221  13.789  34.099   3.349
76237W        W41222  23.998  21.349   2.481
76238W        W41223  42.559  26.253  11.966
76239W        W41224  36.985  17.278   3.767
76240W        W41225  18.991  30.044   0.901
76241W        W41226  20.100   6.906  14.805
76242W        W41227  31.078  39.818   2.839
76243W        W41228  33.311  37.097   1.957
76244W        W41229  38.298  25.317  11.163
76245W        W41230  44.503  24.022   0.157
76246W        W41231  34.132  21.509  11.125
76247W        W41232  20.932   4.430  14.511
76248W        W41233  23.933  19.226  12.945
76249W        W41234   0.671  36.898  10.334
76250W        W41235  22.529   9.252   4.770
76251W        W41236   2.999  26.653  14.557
76252W        W41237  33.453  22.950  14.074
76253W        W41238  43.418  43.825   1.352
76254W        W41239   9.017  39.345  14.461
76255W        W41240  43.421  44.049   0.904
76256W        W41241  30.204  36.471  11.222
76257W        W41242  13.054  43.315   0.866
76258W        W41243  38.470   4.722   3.699
76259W        W41244  30.559  13.635   0.974
76260W        W41245   9.839   9.127  14.406
76261W        W41246   4.232  11.585   2.467
76262W        W41247  15.720   7.829   1.984
76263W        W41248  27.677   9.043   9.996
76264W        W41249  13.442  36.299   2.717
76265W        W41250  31.626  13.602   4.405
76266W        W41251  15.936   6.925   4.458
76267W        W41252  22.576  36.105   4.930
76268W        W41253  40.722   3.423   0.358
76269W        W41254  13.837  31.062  11.209
76270W        W41255  30.967  35.785  11.188
76271W        W41256   0.249  24.557   1.692
76272W        W41257  36.564  21.729   1.392
76273W        W41258  26.106  27.024  11.579
76274W        W41259  24.458  32.249  10.771
76275W        W41260  27.545  19.500   3.738
76276W        W41261  21.255   6.886   0.918
76277W        W41262  22.122  33.424   0.890
76278W        W41263  17.667  11.320  12.388
76279W        W41264  13.205  41.923   2.268
76280W        W41265  35.645  18.555   1.840
76281W        W41266   3.231  37.569  12.596
76282W        W41267  13.495   6.204  12.397
76283W        W41268  18.623   8.275  13.316
76284W        W41269  20.555  13.359  10.681
76285W        W41270  17.629  39.773  12.521
76286W        W41271  17.159  16.263   2.083
76287W        W41272   5.634  18.206  14.782
76288W        W41273  12.214  13.173  13.815
76289W        W41274  35.594  38.122   4.151
76290W        W41275  32.225  23.724   0.355
76291W        W41276  38.824  15.185  11.512
76292W        W41277  27.724  26.603  11.602
76293W        W41278  33.506  31.537  11.728
76294W        W41279  24.198  39.769   1.420
76295W        W41280   5.891   1.910   4.385
76296W        W41281  20.209  29.211   2.017
76297W        W41282  11.637  38.641  13.490
76298W        W41283  12.738  39.362   4.758
76299W        W41284  26.732  23.981  12.996
76300W        W41285  11.371   9.636  12.540
76301W        W41286  30.016  44.574   1.256
76302W        W41287  40.962  25.572  13.997
76303W        W41288  17.146  43.705   3.649
76304W        W41289  34.861   9.252   1.678
76305W        W41290   0.528  43.755   4.424
76306W        W41291  44.589  34.072   1.970
76307W        W41292  41.551  20.057   0.001
76308W        W41293  22.036  24.495  13.122
76309W        W41294  30.981  39.074   0.707
76310W        W41295  26.021  22.673   1.424
76311W        W41296  21.421   3.466   2.014
76312W        W41297   4.283  30.957  14.988
76313W        W41298  33.344  18.682  11.581
76314W        W41299  27.996  43.073   1.190
76315W        W41300  18.075  35.974   2.199
76316W        W41301  17.191   8.475   2.342
76317W        W41302  27.519  35.176   3.058
76318W        W41303   5.323  36.922   2.665
76319W        W41304  39.011  22.228  13.487
76320W        W41305  22.190   1.357  11.669
76321W        W41306  41.443  37.962  14.463
76322W        W41307  31.524  25.561   0.344
76323W        W41308   1.241   3.147  13.873
76324W        W41309  35.431  17.288   0.722
76325W        W41310  37.318   4.069   4.258
76326W        W41311   6.266   7.944  14.257
76327W        W41312   6.215  19.138  12.207
76328W        W41313  36.561  19.916   1.715
76329W        W41314  13.652  35.228   1.234
76330W        W41315  27.328  10.169  10.670
76331W        W41316  14.247  11.886   0.760
76332W        W41317   3.448  33.723  12.842
76333W        W41318  13.638   1.250   3.197
76334W        W41319  14.207   1.283   2.134
76335W        W41320  38.396   1.352  11.450
76336W        W41321  22.635   9.989  13.874
76337W        W41322  12.825   7.972  14.542
76338W        W41323  14.135  27.795  13.793
76339W        W41324   5.933  24.451  10.748
76340W        W41325  36.912   0.701  11.487
76341W        W41326  34.978  34.840   2.214
76342W        W41327  37.881   9.734   5.448
76343W        W41328  24.293  42.569   0.362
76344W        W41329  14.692  20.543  14.490
76345W        W41330  42.126  34.333   3.960
76346W        W41331   8.724  17.077   0.334
76347W        W41332  38.365   9.278   4.262
76348W        W41333  44.538  18.436  11.592
76349W        W41334   0.700  33.387   1.969
76350W        W41335   9.658  13.542   2.288
76351W        W41336   8.192  43.808  13.860
76352W        W41337  38.329  11.720   1.699
76353W        W41338  43.589   2.714  13.504
76354W        W41339   4.439  19.125   2.792
76355W        W41340  30.679   1.934   3.808
76356W        W41341   0.176  29.861   1.137
76357W        W41342  32.153   5.271  12.918
76358W        W41343  41.753  29.603   1.823
76359W        W41344  25.058  12.737   4.965
76360W        W41345  15.151   4.770   1.033
76361W        W41346  39.459   8.028  10.702
76362W        W41347  19.405  28.545  11.088
76363W        W41348  38.518  10.239  10.714
76364W        W41349  12.898  42.881   4.339
76365W        W41350  10.382  40.890  11.152
76366W        W41351  23.495   7.301  10.768
76367W        W41352  39.290  23.659  12.930
76368W        W41353  36.849  19.673  11.389
76369W        W41354  41.538   1.250  13.495
76370W        W41355  18.789  23.263  11.395
76371W        W41356  11.083  19.203  11.570
76372W        W41357  35.564   1.938   1.825
76373W        W41358  27.949  22.433  13.614
76374W        W41359  37.475  37.983  10.821
76375W        W41360  22.027  34.457  12.414
76376W        W41361  32.602  40.468   1.003
76377W        W41362  10.839  17.256  12.084
76378W        W41363  28.908  30.111   2.248
76379W        W41364   1.034   3.241  10.289
76380W        W41365  23.784  18.346   0.829
76381W        W41366  28.591  33.969  10.819
76382W        W41367  25.220  28.078   4.698
76383W        W41368   7.782   2.442   0.722
76384W        W41369  37.651   5.212  10.708
76385W        W41370  27.227   4.673   0.456
76386W        W41371  15.390  24.459   2.756
76387W        W41372   7.742  19.548  11.215
76388W        W41373   7.716  12.333   2.408
76389W        W41374  34.176  15.740  10.938
76390W        W41375   7.677   7.267   1.016
76391W        W41376  29.359  26.067   2.006
76392W        W41377  16.580  15.746  12.978
76393W        W41378  38.650  31.694   1.866
76394W        W41379  13.239   0.853   4.633
76395W        W41380  44.124  27.563  10.909
76396W        W41381  10.685   8.435   0.603
76397W        W41382  34.965  29.258   9.948
76398W        W41383  32.618  25.586   1.229
76399W        W41384   8.701  17.189  12.388
76400W        W41385  15.715   1.520  14.344
76401W        W41386  20.594  34.313   1.003
76402W        W41387  39.970  27.591  13.299
76403W        W41388  19.557  39.113  10.728
76404W        W41389  38.430  33.055  13.562
76405W        W41390  13.991   6.908   2.330
76406W        W41391  31.988  17.664  12.053
76407W        W41392   9.549  28.636   3.679
76408W        W41393   3.347  10.924   0.333
76409W        W41394  40.386  37.073  13.030
76410W        W41395  22.268  17.726   2.203
76411W        W41396  39.909  21.276   1.453
76412W        W41397  44.327  14.869   0.938
76413W        W41398   8.530   6.831   3.538
76414W        W41399  34.672  44.930  14.260
76415W        W41400  13.212  39.693  13.575
76416W        W41401  37.969   2.506  12.681
76417W        W41402   9.187  38.093   2.464
76418W        W41403   7.127   0.673   3.743
76419W        W41404  40.025  36.443  11.809
76420W        W41405  20.684  32.590  14.438
76421W        W41406  30.125  21.207  12.175
76422W        W41407   0.929   5.728  13.409
76423W        W41408  17.153  16.537  14.013
76424W        W41409  30.039  28.386  12.940
76425W        W41410   4.104  28.051  11.158
76426W        W41411  31.365  22.705   2.650
76427W        W41412  36.099   3.033   0.764
76428W        W41413   7.883  20.110  14.844
76429W        W41414  39.308   7.646   4.229
76430W        W41415   8.802   2.948   0.312
76431W        W41416  38.027  22.491  14.300
76432W        W41417   9.467  32.180  12.936
76433W        W41418  44.612  20.724   4.271
76434W        W41419  43.440  34.334  11.198
76435W        W41420  40.328  25.778   2.538
76436W        W41421  21.529  25.970   4.555
76437W        W41422  30.399  27.140   2.809
76438W        W41423  25.633  35.304   0.295
76439W        W41424   9.083   9.148  14.064
76440W        W41425  13.778  27.047  10.860
76441W        W41426  12.799  23.254  11.872
76442W        W41427  21.012  14.149   0.316
76443W        W41428  43.982  28.583  10.100
76444W        W41429   7.272  18.033   0.857
76445W        W41430  29.132  25.730   0.337
76446W        W41431  40.292  28.749   2.417
76447W        W41432  20.983  17.231   2.214
76448W        W41433   0.961  25.094  10.387
76449W        W41434  36.847  38.929  11.924
76450W        W41435  33.220   5.168   2.132
76451W        W41436  42.497   0.553  10.824
76452W        W41437   9.815  36.507  10.588
76453W        W41438   6.759   8.317  12.524
76454W        W41439  22.721  43.839  10.711
76455W        W41440  44.258  43.510   0.716
76456W        W41441   5.910  19.770   0.909
76457W        W41442  23.002  40.456   3.891
76458W        W41443  39.864  29.222  13.661
76459W        W41444  43.548  26.195  11.003
76460W        W41445  36.980  27.000  12.271
76461W        W41446  33.690  40.760   3.617
76462W        W41447  28.149  42.506  13.578
76463W        W41448  27.805  21.574  13.840
76464W        W41449   5.053  18.905  11.995
76465W        W41450   2.703   7.953   4.778
76466W        W41451  29.794  24.067   0.941
76467W        W41452   6.700   0.287   3.807
76468W        W41453  11.607   3.203   3.764
76469W        W41454  42.104  29.013  14.505
76470W        W41455  21.721   0.257  12.092
76471W        W41456   3.935  29.097   2.534
76472W        W41457  32.831  33.572   2.429
76473W        W41458  10.981  10.342   2.439
76474W        W41459  39.207  30.503   0.689
76475W        W41460  17.692  37.634   0.708
76476W        W41461   7.219  17.511  10.556
76477W        W41462  10.411  40.937  12.496
76478W        W41463  37.653  41.361   4.114
76479W        W41464   6.172  26.950  14.827
76480W        W41465  19.883   0.386  11.883
76481W        W41466  28.247  43.317   1.968
76482W        W41467   3.593  22.011   2.246
76483W        W41468  19.628  22.103   3.600
76484W        W41469  12.659  29.489  11.705
76485W        W41470  20.457   3.676   3.389
76486W        W41471   4.223  34.596  14.947
76487W        W41472   5.198  18.856   0.022
76488W        W41473   9.219  33.143   2.380
76489W        W41474  39.504  25.907   3.303
76490W        W41475  30.688  26.956  13.177
76491W        W41476  37.390  31.873   0.943
76492W        W41477  32.631  24.691   3.515
76493W        W41478   0.790  17.649   0.749
76494W        W41479  43.821  27.315   4.351
76495W        W41480  19.122  21.278  11.157
76496W        W41481  24.605  16.369  10.548
76497W        W41482   8.612  18.286  12.168
76498W        W41483  32.163  22.533   2.287
76499W        W41484  31.561  34.395   4.353
76500W        W41485  35.924  30.540   1.710
76501W        W41486  26.418  43.237   3.155
76502W        W41487  17.437   1.009  13.875
76503W        W41488  33.188  37.872  12.937
76504W        W41489   5.055  38.062   4.225
76505W        W41490  31.036  34.602   1.124
76506W        W41491  38.359  34.066   4.032
76507W        W41492  32.144  27.692  11.029
76508W        W41493   9.219  37.740   2.841
76509W        W41494   2.442  37.481   0.632
76510W        W41495  38.289   7.288  13.382
76511W        W41496  38.785  32.290   9.919
76512W        W41497  17.629  34.494   4.516
76513W        W41498  36.558  20.225  13.379
76514W        W41499  12.093  11.820  12.564
76515W        W41500   2.083   7.813  14.844
76516W        W41501  32.455  31.934   3.323
76517W        W41502  29.517  18.205   0.194
76518W        W41503  15.672   8.718   3.938
76519W        W41504  34.054   5.559   3.328
76520W        W41505  29.447  12.159  11.617
76521W        W41506  23.119  32.139  12.195
76522W        W41507  31.585  30.172  12.550
76523W        W41508  20.077   3.596   3.773
76524W        W41509  36.511  23.623   3.557
76525W        W41510  41.203   0.714   3.126
76526W        W41511  36.238  21.914   4.529
76527W        W41512  43.512   3.951  13.798
76528W        W41513  42.611  33.701   3.646
76529W        W41514  15.812   7.869  14.439
76530W        W41515  33.677  22.601   0.319
76531W        W41516  39.850  25.526  12.058
76532W        W41517  14.406  10.788  13.510
76533W        W41518  13.733  36.112   2.303
76534W        W41519  33.406  34.568  13.960
76535W        W41520   1.472   7.374   3.446
76536W        W41521  29.882  34.753   4.372
76537W        W41522  24.000   4.518   0.001
76538W        W41523  23.023  23.101  11.663
76539W        W41524  13.284  14.624   0.796
76540W        W41525  37.010  34.487   4.535
76541W        W41526  29.208  38.816   1.243
76542W        W41527  24.039  33.901  11.335
76543W        W41528  27.769   2.498   1.309
76544W        W41529  19.182  17.179  14.866
76545W        W41530  44.023  42.364  14.081
76546W        W41531  29.648  41.091  12.467
76547W        W41532   8.505  23.584  11.248
76548W        W41533  44.512  30.933  10.689
76549W        W41534  22.318  34.059  13.263
76550W        W41535   6.500  35.299   2.690
76551W        W41536   9.423  17.208  10.723
76552W        W41537  36.786  15.610  12.991
76553W        W41538  13.722  43.396  13.073
76554W        W41539  40.914   0.960   3.857
76555W        W41540  11.225  43.286   1.400
76556W        W41541  28.253  39.503   2.059
76557W        W41542  10.793   5.373   0.438
76558W        W41543  22.628  17.754   4.590
76559W        W41544  23.379   7.875  11.129
76560W        W41545  28.474  22.821   1.173
76561W        W41546  38.972  34.400   2.885
76562W        W41547  41.948   8.853  12.221
76563W        W41548  16.948  23.491   1.745
76564W        W41549  39.935   1.956   2.842
76565W        W41550  23.232  44.204  12.485
76566W        W41551  10.133  30.939   0.445
76567W        W41552   0.491  38.838   4.167
76568W        W41553  16.402  34.597  13.405
76569W        W41554  17.101   4.222  11.032
76570W        W41555  24.324   6.250   3.635
76571W        W41556   3.706  35.246  13.285
76572W        W41557  35.594  12.810  14.983
76573W        W41558  35.883  44.337   2.322
76574W        W41559  23.343  32.617  10.530
76575W        W41560   6.488  34.309   3.786
76576W        W41561  34.496  41.168  13.345
76577W        W41562  41.729  40.258  14.724
76578W        W41563  39.448  41.057   1.521
76579W        W41564  36.215   2.199   2.929
76580W        W41565  24.197   1.317  14.227
76581W        W41566   0.543  33.656   3.290
76582W        W41567  17.158   8.513  10.336
76583W        W41568  23.467  42.792  11.080
76584W        W41569  36.857  37.041  14.115
76585W        W41570   5.071  39.783   3.708
76586W        W41571  24.055  36.879  11.707
76587W        W41572  43.012  40.229  11.823
76588W        W41573  43.390  15.359  11.172
76589W        W41574   5.870  17.045  13.027
76590W        W41575  17.686  18.227  12.279
76591W        W41576  26.233  38.913  11.971
76592W        W41577  27.154  16.351   3.898
76593W        W41578  15.849   5.868   1.395
76594W        W41579  13.789  10.377  14.966
76595W        W41580  36.422   1.450   1.872
76596W        W41581  36.310  39.624  11.989
76597W        W41582   8.829   0.210   1.355
76598W        W41583   2.304  16.939  14.423
76599W        W41584  32.842  21.545  10.551
76600W        W41585  32.383   0.665   2.298
76601W        W41586  32.748  41.878  14.318
76602W        W41587   9.813  20.423   4.246
76603W        W41588  36.327  39.346  12.443
76604W        W41589   1.692  35.125   2.554
76605W        W41590  18.664   5.964  13.851
76606W        W41591  17.320   7.288  12.535
76607W        W41592  20.369  39.809   4.920
76608W        W41593   1.615  27.858   2.383
76609W        W41594   7.923  44.684   4.366
76610W        W41595  11.144  43.320  12.999
76611W        W41596  26.588  15.602   1.938
76612W        W41597  37.608  38.403  14.518
76613W        W41598  11.395  17.314  12.853
76614W        W41599  13.269  29.632  13.483
76615W        W41600  29.765  16.535  10.870
76616W        W41601  40.533   6.262  13.335
76617W        W41602  34.600   5.435   4.596
76618W        W41603  13.612  30.658   4.568
76619W        W41604  42.523  36.509  12.871
76620W        W41605  44.809  27.248   4.682
76621W        W41606   7.717  27.447  13.888
76622W        W41607  35.819   7.355  12.467
76623W        W41608  17.278  10.324   2.277
76624W        W41609  12.965  27.098  11.175
76625W        W41610  22.780  30.088  14.778
76626W        W41611   3.697  30.990  11.979
76627W        W41612  43.505   6.197  11.534
76628W        W41613   5.920  18.973   4.465
76629W        W41614  16.213  37.438  14.311
76630W        W41615  21.831  44.269   4.477
76631W        W41616  14.271  23.503  14.509
76632W        W41617   9.374  43.061   3.699
76633W        W41618  10.084   0.072   3.841
76634W        W41619  27.272   8.226  10.687
76635W        W41620  41.067  16.243   2.708
76636W        W41621  36.010  27.542   2.235
76637W        W41622   2.217  18.534  14.829
76638W        W41623  40.296   3.163  13.358
76639W        W41624  29.358  41.343  12.944
76640W        W41625  39.937  18.590  11.494
76641W        W41626  36.949  36.627  12.886
76642W        W41627  33.035  37.636  14.546
76643W        W41628  43.009  44.200   4.008
76644W        W41629   5.631  33.294  12.938
76645W        W41630   9.329   5.824  13.887
76646W        W41631  20.715  30.027   4.381
76647W        W41632  10.664  38.255   0.852
76648W        W41633  42.811  13.070   1.795
76649W        W41634  16.218  17.078   2.364
76650W        W41635  44.238   1.344  14.779
76651W        W41636  36.236   8.660  13.918
76652W        W41637  37.735  27.409  13.403
76653W        W41638   9.240   4.879  14.218
76654W        W41639  10.479   1.715   0.873
76655W        W41640   6.360  41.411   1.582
76656W        W41641  43.020  29.444  11.984
76657W        W41642   6.427  30.613   1.385
76658W        W41643  44.355  12.153   1.842
76659W        W41644  13.243  38.555   2.173
76660W        W41645  11.183  29.048  14.644
76661W        W41646   0.201  13.170   2.417
76662W        W41647  22.742  42.941  12.853
76663W        W41648  35.918  21.215  10.752
76664W        W41649   5.280  26.780   0.817
76665W        W41650  35.444  13.769   1.410
76666W        W41651   2.438  28.848   3.005
76667W        W41652   4.432  18.419  14.431
76668W        W41653   7.747  20.668   0.381
76669W        W41654  44.964  43.005  11.953
76670W        W41655  23.719   9.652   0.751
76671W        W41656  15.714  19.033   1.738
76672W        W41657  34.271  17.402  13.151
76673W        W41658   0.848  13.983  10.228
76674W        W41659  37.441   5.787   1.396
76675W        W41660  16.243  23.735   0.030
76676W        W41661   3.488  16.686   1.609
76677W        W41662  20.183  29.533   3.876
76678W        W41663  17.746  19.690  14.186
76679W        W41664  28.620  24.522   2.756
76680W        W41665  17.017  13.400   2.320
76681W        W41666  36.482  40.127  11.914
76682W        W41667   5.562  27.536  12.399
76683W        W41668  29.118  10.582   3.324
76684W        W41669   4.559   5.659   3.145
76685W        W41670  25.058   4.199  11.248
76686W        W41671  29.924  44.862   1.682
76687W        W41672  40.557  42.840  10.704
76688W        W41673   8.621   1.265   1.689
76689W        W41674  26.667  39.324   3.214
76690W        W41675  29.564  17.944   4.130
76691W        W41676  25.500  31.399   2.607
76692W        W41677   2.732  20.191   1.242
76693W        W41678   4.301   7.096  13.486
76694W        W41679  37.122  14.646  14.485
76695W        W41680  10.846  38.059  12.422
76696W        W41681   5.765  32.053   4.741
76697W        W41682  11.212  22.959  14.344
76698W        W41683  18.733  39.445   4.730
76699W        W41684  16.614  20.532   2.071
76700W        W41685  34.458  28.588  12.470
76701W        W41686  23.475  26.606   0.789
76702W        W41687  28.131   6.248   3.330
76703W        W41688  40.806  38.960   1.866
76704W        W41689  35.091  34.652   1.386
76705W        W41690  13.147  28.649  14.785
76706W        W41691  30.535  40.286  11.867
76707W        W41692  19.560  10.199   1.128
76708W        W41693  16.635  16.101  10.740
76709W        W41694  34.928  37.560  12.449
76710W        W41695  21.542  28.616  13.884
76711W        W41696  41.055  37.577   4.013
76712W        W41697  15.730  12.694  11.639
76713W        W41698   7.686   9.717   2.249
76714W        W41699   1.486  35.434  12.359
76715W        W41700  37.581  27.229   5.263
76716W        W41701  37.897  39.534   1.969
76717W        W41702  30.191  19.179   3.588
76718W        W41703  33.989  38.555   4.084
76719W        W41704  43.391  42.198   0.949
76720W        W41705  40.051  33.398   1.679
76721W        W41706  39.821  37.996   1.428
76722W        W41707  13.106  11.833  13.430
76723W        W41708  39.907  44.618  13.572
76724W        W41709  16.739  35.987   4.316
76725W        W41710   8.878  42.175  12.087
76726W        W41711  16.170  18.337  11.572
76727W        W41712  28.118  29.537  13.837
76728W        W41713  15.865  10.292  12.065
76729W        W41714   5.696  20.190  11.581
76730W        W41715  27.151   5.084   0.141
76731W        W41716  10.629  42.821   0.923
76732W        W41717   6.327  26.273  11.316
76733W        W41718   9.073  24.458   0.068
76734W        W41719   0.695   1.739  13.080
76735W        W41720  41.710  20.823   3.826
76736W        W41721  35.065  15.692  12.591
76737W        W41722  12.348  39.663  14.498
76738W        W41723  37.037   0.194   0.907
76739W        W41724  41.238   8.829   3.693
76740W        W41725   6.103  40.276  11.982
76741W        W41726   6.286   6.931   2.727
76742W        W41727   5.166  28.574   2.138
76743W        W41728  27.998  39.899   1.531
76744W        W41729   5.723  15.229  10.720
76745W        W41730  12.296   1.212  14.432
76746W        W41731  15.650  18.053   3.356
76747W        W41732  33.607  12.400  11.937
76748W        W41733  10.673  14.263  12.650
76749W        W41734  17.173  23.774   3.109
76750W        W41735  13.751  28.404  10.558
76751W        W41736  12.578  30.389  13.493
76752W        W41737  32.016  34.354   9.819
76753W        W41738  19.566   5.860  13.986
76754W        W41739  42.375  20.706  11.174
76755W        W41740  35.676  17.773   0.807
76756W        W41741  43.097  22.154   1.729
76757W        W41742  19.535  18.069  12.453
76758W        W41743  40.089  32.164   0.992
76759W        W41744  40.157  34.900   3.000
76760W        W41745  25.640   9.576  14.903
76761W        W41746  18.730  30.549   1.820
76762W        W41747  39.332  27.167   1.399
76763W        W41748  17.207  15.053   2.026
76764W        W41749   3.047   4.001  12.101
76765W        W41750   9.685  16.329   0.960
76766W        W41751  16.136   0.470   3.719
76767W        W41752   6.932  14.865   1.264
76768W        W41753  27.511   0.152   5.276
76769W        W41754  27.462   3.180  13.820
76770W        W41755  17.561  35.446  12.221
76771W        W41756  31.239   8.755   1.301
76772W        W41757  26.646  37.145   1.732
76773W        W41758  32.378   8.065   1.472
76774W        W41759  12.636  29.384   1.755
76775W        W41760  39.018  23.391   3.645
76776W        W41761  16.593  33.407   3.540
76777W        W41762  17.468  10.441  12.344
76778W        W41763  43.961  26.584   5.514
76779W        W41764   0.760  36.129  13.756
76780W        W41765   9.207  27.137   1.505
76781W        W41766   4.900  39.169   3.089
76782W        W41767  22.074  43.895   1.719
76783W        W41768  39.917  12.664   3.181
76784W        W41769   1.488  11.954   0.012
76785W        W41770  33.072  12.328  14.502
76786W        W41771  34.202  38.062   1.260
76787W        W41772  20.088  26.081  13.856
76788W        W41773  22.599  30.730   1.236
76789W        W41774  39.811  33.379  11.107
76790W        W41775  29.097  32.895  11.976
76791W        W41776  29.782  30.390   3.753
76792W        W41777   0.732   2.293  12.462
76793W        W41778   7.609  25.360  12.217
76794W        W41779  13.104  34.403   1.406
76795W        W41780  32.361  31.392   0.796
76796W        W41781  27.881  21.620   3.283
76797W        W41782  12.062   3.281   2.604
76798W        W41783  21.493   9.794   1.315
76799W        W41784  35.759  11.498   3.453
76800W        W41785  26.943  42.311   0.269
76801W        W41786   8.459  26.170   3.696
76802W        W41787  18.081   7.343   4.476
76803W        W41788  33.357  21.623  11.519
76804W        W41789  41.780  42.289  12.593
76805W        W41790   2.256  10.166  14.806
76806W        W41791  44.928  28.882  11.561
76807W        W41792  10.082  29.143  10.330
76808W        W41793  33.145   1.269   3.787
76809W        W41794   5.775  36.855  11.021
76810W        W41795  22.516  32.489  10.975
76811W        W41796  26.767   8.196  10.861
76812W        W41797  42.010   3.395  13.885
76813W        W41798   1.828  36.394   4.569
76814W        W41799   2.859   7.309   2.663
76815W        W41800  31.174   7.841  14.858
76816W        W41801  29.475  24.605  11.562
76817W        W41802   7.639  43.895  10.745
76818W        W41803  19.605  20.637   2.945
76819W        W41804  31.028  32.940   4.928
76820W        W41805   9.159  38.035   4.178
76821W        W41806   7.361   4.529  12.774
76822W        W41807   0.826  21.061  14.154
76823W        W41808  33.075  29.657   0.914
76824W        W41809  10.627   9.948  13.594
76825W        W41810   7.337  23.245   1.992
76826W        W41811  25.992  10.696   1.480
76827W        W41812  23.474  34.478   0.418
76828W        W41813  24.507  42.508  11.607
76829W        W41814   3.094  19.024  11.934
76830W        W41815  14.791  14.380  13.996
76831W        W41816  14.067  32.610   4.183
76832W        W41817   4.019  17.241   0.008
76833W        W41818  10.105  42.307   9.913
76834W        W41819  17.648  17.292   1.363
76835W        W41820  40.679   0.424  12.203
76836W        W41821  25.018  21.591  10.656
76837W        W41822  17.431   0.758  13.392
76838W        W41823  32.028  41.006   2.034
76839W        W41824  35.317  39.967   0.727
76840W        W41825  24.624  40.349   1.728
76841W        W41826  26.876  19.031   1.508
76842W        W41827  17.582  11.867  12.361
76843W        W41828  37.249  32.818  11.129
76844W        W41829  22.382   6.460   5.098
76845W        W41830  16.343  28.954  10.584
76846W        W41831  34.339  13.726   3.136
76847W        W41832   3.982  19.947   4.101
76848W        W41833   6.160  31.037   2.887
76849W        W41834  31.546  17.219   2.268
76850W        W41835  30.435   0.189  10.500
76851W        W41836   7.729   1.034  14.545
76852W        W41837  16.685  30.881   1.881
76853W        W41838   1.229  40.871   4.007
76854W        W41839  17.979  43.982   0.695
76855W        W41840  43.913  29.740   0.149
76856W        W41841   1.810  24.291   1.262
76857W        W41842  13.117  44.712  11.996
76858W        W41843  26.661  30.051   1.776
76859W        W41844  34.029  13.284   0.546
76860W        W41845  14.313  44.198   3.664
76861W        W41846  12.766  22.109  11.882
76862W        W41847  32.163  22.822   0.876
76863W        W41848  30.513  29.126  12.637
76864W        W41849  20.309   7.430   1.228
76865W        W41850  39.370  32.399   1.167
76866W        W41851  19.555   6.605  14.448
76867W        W41852   6.196  36.667  11.260
76868W        W41853  26.074  33.984  13.319
76869W        W41854  36.344  31.973  14.324
76870W        W41855   2.011   0.879   1.260
76871W        W41856  44.676  38.021   1.368
76872W        W41857  33.627  16.658   2.584
76873W        W41858   6.018  42.804   2.677
76874W        W41859  30.343  34.580   4.158
76875W        W41860  36.288  43.017  13.790
76876W        W41861  26.741  21.054  14.421
76877W        W41862   4.156   2.803  11.180
76878W        W41863  33.821  11.595  14.017
76879W        W41864  20.369  14.352  11.619
76880W        W41865  12.688  11.497   1.199
76881W        W41866  35.993   2.088  13.327
76882W        W41867   3.219   6.869  11.981
76883W        W41868  28.976  44.532   1.383
76884W        W41869  29.327  43.243   9.917
76885W        W41870  37.934  36.374  11.053
76886W        W41871   7.043  40.155   4.664
76887W        W41872  32.852  12.804  13.022
76888W        W41873  26.692  39.912  10.140
76889W        W41874  31.412   9.626  11.737
76890W        W41875  29.946  25.710  10.774
76891W        W41876  13.361  19.755  13.449
76892W        W41877  25.894  29.467   4.939
76893W        W41878  40.785  27.410   1.862
76894W        W41879   3.526  31.475  12.947
76895W        W41880   6.195  23.591   3.241
76896W        W41881  40.337  17.340  14.013
76897W        W41882  36.553  44.222   1.773
76898W        W41883  38.881  40.973  13.402
76899W        W41884  27.638  43.510   3.777
76900W        W41885   7.599  27.519   2.289
76901W        W41886   2.279  26.732   4.981
76902W        W41887  17.296  26.446   1.009
76903W        W41888  27.083  32.958   4.378
76904W        W41889  13.366  18.966   0.716
76905W        W41890  31.376  29.127  13.919
76906W        W41891  34.333   7.957   3.298
76907W        W41892  19.666  37.863   0.466
76908W        W41893   2.243  19.486  14.854
76909W        W41894  31.342   0.583  11.468
76910W        W41895  14.440  20.680   4.368
76911W        W41896  26.883  34.654   5.131
76912W        W41897  23.974  19.550   4.140
76913W        W41898   1.713  42.954  13.935
76914W        W41899  23.717   8.323  10.752
76915W        W41900  28.660  25.640  13.566
76916W        W41901   3.427  30.536  10.993
76917W        W41902  28.868  42.330   0.765
76918W        W41903  27.646  21.569   0.473
76919W        W41904   5.343  16.803   4.796
76920W        W41905  30.142  38.620  13.418
76921W        W41906   9.903  32.597  12.318
76922W        W41907  34.011   7.076  10.723
76923W        W41908  22.701  40.754  11.775
76924W        W41909   2.211  26.919  14.491
76925W        W41910  16.143  42.868   2.692
76926W        W41911   1.940  43.797  11.211
76927W        W41912  35.675  23.846  11.626
76928W        W41913  38.846  22.091   0.366
76929W        W41914  22.439  17.075  12.937
76930W        W41915  21.157  42.913  10.836
76931W        W41916  15.307  25.973  10.239
76932W        W41917  10.458  14.208  12.200
76933W        W41918  29.904  10.240   1.801
76934W        W41919   6.373  19.506   0.737
76935W        W41920  29.027  17.167  14.014
76936W        W41921  22.645  28.866  12.605
76937W        W41922   3.276  16.356   2.437
76938W        W41923  38.782  23.508   0.935
76939W        W41924  22.285  17.412   4.418
76940W        W41925  35.429  43.105   4.997
76941W        W41926   8.126  35.838   4.583
76942W        W41927  25.497  11.193   3.705
76943W        W41928  15.119  13.399  11.320
76944W        W41929  31.981  38.712   3.033
76945W        W41930   9.334  44.970  14.283
76946W        W41931   4.870  27.407   3.241
76947W        W41932  27.406  26.523   1.425
76948W        W41933   7.405   8.920   0.326
76949W        W41934  17.946  28.664   3.712
76950W        W41935  33.126  40.315  14.324
76951W        W41936  21.721  16.236   4.600
76952W        W41937  28.456  37.003   0.850
76953W        W41938   2.465  26.081  14.958
76954W        W41939  25.484  37.977   2.953
76955W        W41940  44.039  35.030   5.077
76956W        W41941   8.343  39.803  14.828
76957W        W41942  36.873   7.619   4.926
76958W        W41943   9.216  28.912  13.910
76959W        W41944  28.612  33.991   0.829
76960W        W41945  39.431  20.918   4.930
76961W        W41946  32.515  35.143   2.329
76962W        W41947  24.114  27.244  14.795
76963W        W41948  26.498  29.563   1.754
76964W        W41949  37.997  40.993   1.672
76965W        W41950  35.077  20.122   0.901
76966W        W41951   8.268  24.310  13.615
76967W        W41952  22.742  40.902   3.395
76968W        W41953  13.096  28.988  10.263
76969W        W41954  40.406  33.427   5.341
76970W        W41955  15.047  11.943  12.461
76971W        W41956  30.438  17.757   4.576
76972W        W41957  28.174   5.920   1.248
76973W        W41958  34.738  24.716  11.277
76974W        W41959  24.159   0.917   1.282
76975W        W41960  11.166  14.564  14.100
76976W        W41961  36.949   6.197  10.614
76977W        W41962  20.490  14.099  11.177
76978W        W41963  16.576  30.027  12.400
76979W        W41964  12.156  34.084   2.187
76980W        W41965  44.999  42.253  12.889
76981W        W41966  22.335  40.997  14.786
76982W        W41967   6.623  22.567  14.011
76983W        W41968  18.256   7.019  10.672
76984W        W41969  17.927   6.872  13.427
76985W        W41970   4.900   0.230  14.490
76986W        W41971  26.441   6.481   0.873
76987W        W41972   8.621  15.937  11.853
76988W        W41973  41.014  15.502  10.433
76989W        W41974  18.787   6.176   2.735
76990W        W41975   7.684  20.033   2.818
76991W        W41976   0.070  42.872  14.900
76992W        W41977  17.990  23.668  13.738
76993W        W41978  42.413  23.028  14.515
76994W        W41979  27.350  44.136   0.477
76995W        W41980  40.443  20.835   3.205
76996W        W41981  11.708   4.225   4.802
76997W        W41982  20.088   5.899  13.265
76998W        W41983   6.274   7.314   3.142
76999W        W41984  34.020  11.444   3.742
77000W        W41985  14.350   2.229  11.913
77001W        W41986  22.088   3.198   0.012
77002W        W41987  33.444   1.611  10.248
77003W        W41988  34.982  18.440  14.496
77004W        W41989  19.071  20.770   2.755
77005W        W41990  41.715   0.980   0.313
77006W        W41991  37.103  44.762   0.619
77007W        W41992   5.186  42.199  11.954
77008W        W41993  17.499   0.246   3.368
77009W        W41994  27.781  39.701   1.957
77010W        W41995   4.980  42.847   2.731
77011W        W41996  19.702  37.048  13.003
77012W        W41997  29.520  43.169   0.763
77013W        W41998  30.573  43.868  14.313
77014W        W41999  16.398   1.759  10.984
77015W        W42000  33.036  24.240  13.062
77016W        W42001   7.343  30.625  11.591
77017W        W42002  11.269  15.154  10.671
77018W        W42003  28.087  17.452  12.002
77019W        W42004  12.175  39.250  13.146
77020W        W42005  19.233  24.923   2.433
77021W        W42006  10.160  13.226   0.868
77022W        W42007  34.022  27.456   0.391
77023W        W42008  36.899  26.633  11.100
77024W        W42009   7.922  32.529  14.549
77025W        W42010  22.122  15.018   3.329
77026W        W42011  23.027  31.840   3.290
77027W        W42012  38.233  34.665   1.318
77028W        W42013  18.231  31.499  14.260
77029W        W42014  42.291  22.185   5.579
77030W        W42015  36.104   0.885   2.843
77031W        W42016  35.824  41.734   1.554
77032W        W42017  17.765  29.520   3.544
77033W        W42018  33.408   8.710  13.388
77034W        W42019  14.360  41.504  13.527
77035W        W42020  25.390   9.852  11.258
77036W        W42021  29.425  17.726  15.000
77037W        W42022  12.798  40.540  11.074
77038W        W42023  12.846  14.851  14.363
77039W        W42024  28.124  14.379  14.481
77040W        W42025  27.726  16.020   0.606
77041W        W42026  13.411  29.497   0.328
77042W        W42027   2.408  16.313   3.939
77043W        W42028  42.567  31.149   5.040
77044W        W42029  32.565  38.329   2.261
77045W        W42030   4.751  28.419  13.341
77046W        W42031  16.697   1.861   2.729
77047W        W42032  36.440  10.814  13.001
77048W        W42033  43.506  38.926   1.220
77049W        W42034  37.694  38.607  13.677
77050W        W42035  17.551  20.115   2.636
77051W        W42036   5.158  25.150   2.901
77052W        W42037  40.453  14.294  13.468
77053W        W42038  26.898  32.747  12.884
77054W        W42039   4.905  26.427  10.118
77055W        W42040  34.666  18.525  13.258
77056W        W42041  18.953   9.412  12.533
77057W        W42042  11.109  14.099   3.281
77058W        W42043  42.100   8.104  13.043
77059W        W42044  44.482  42.893   1.487
77060W        W42045  17.667  24.248  12.441
77061W        W42046  43.151  29.454  10.134
77062W        W42047  20.614  17.674   1.025
77063W        W42048  36.596  26.599  12.402
77064W        W42049  23.307   8.330   4.366
77065W        W42050  39.150  28.098  13.991
77066W        W42051  34.615  26.218  11.991
77067W        W42052  34.787  27.541  11.985
77068W        W42053  44.402   9.992  12.980
77069W        W42054   9.298  10.303  14.633
77070W        W42055  27.044  35.803   0.912
77071W        W42056  24.610  13.190   2.239
77072W        W42057  30.916  12.603   0.135
77073W        W42058  35.097  10.298  12.845
77074W        W42059  12.197  39.900   1.262
77075W        W42060   9.187  40.957   2.698
77076W        W42061  39.161   3.017   0.753
77077W        W42062  28.879   0.031  12.948
77078W        W42063  26.614  34.019   2.002
77079W        W42064   3.192  30.129  12.011
77080W        W42065  37.359  26.618   4.602
77081W        W42066  37.969   8.852   1.869
77082W        W42067   9.333  17.185  14.395
77083W        W42068  20.703  29.755   0.527
77084W        W42069  20.809   1.947   3.250
77085W        W42070  17.864  40.582   1.076
77086W        W42071   2.887  12.212  10.986
77087W        W42072  14.641  15.818  14.903
77088W        W42073  22.084   0.448   4.731
77089W        W42074  14.197  27.119   5.010
77090W        W42075  16.057  32.955  12.974
77091W        W42076  29.596  42.864  11.156
77092W        W42077  31.221   9.466  13.286
77093W        W42078  31.532  38.784   1.346
77094W        W42079  34.458  38.908  14.064
77095W        W42080   7.586  23.854   5.083
77096W        W42081  40.532  19.254   2.858
77097W        W42082  42.324   3.914   4.165
77098W        W42083  30.702  38.487  14.040
77099W        W42084   1.042   1.410  13.365
77100W        W42085  44.408   8.618   0.446
77101W        W42086   9.470  29.889   3.372
77102W        W42087   6.189  34.892   4.144
77103W        W42088   3.259   3.222  11.085
77104W        W42089  33.422  40.659   1.719
77105W        W42090  26.513   9.335   0.959
77106W        W42091  17.116  16.125   2.604
77107W        W42092  31.481  24.961  14.082
77108W        W42093  26.802   4.685   0.127
77109W        W42094  35.047  14.917   0.391
77110W        W42095  27.911  26.200   0.209
77111W        W42096  44.009  22.546   0.240
77112W        W42097   2.265   7.087  11.024
77113W        W42098  31.578   6.469   2.619
77114W        W42099  44.390   9.315  13.225
77115W        W42100  32.007   0.781  12.510
77116W        W42101  17.735  32.058  11.927
77117W        W42102  32.241  26.315   4.349
77118W        W42103   7.619  25.909   4.573
77119W        W42104  23.078  16.519   3.699
77120W        W42105  30.935   6.396   4.566
77121W        W42106   8.332  10.643   0.255
77122W        W42107   5.316  28.555  14.030
77123W        W42108  33.849   9.896   1.962
77124W        W42109  39.535  35.966   0.405
77125W        W42110  16.958  28.116  13.048
77126W        W42111  30.979  17.229   4.634
77127W        W42112  17.585  22.562  13.728
77128W        W42113   6.041  17.216   1.726
77129W        W42114   8.973   4.846   4.599
77130W        W42115  36.944  26.673  13.482
77131W        W42116  25.446  34.960  11.282
77132W        W42117  38.284  38.694  10.041
77133W        W42118  12.441  36.035   2.869
77134W        W42119  27.655  41.086  13.416
77135W        W42120   8.133  32.634   4.521
77136W        W42121  43.386  41.430  12.225
77137W        W42122  22.044  43.776   0.159
77138W        W42123   8.362  28.077  14.361
77139W        W42124   7.636  13.683   1.008
77140W        W42125  19.096  32.697  12.941
77141W        W42126  13.077  22.957  13.135
77142W        W42127   9.248  34.414   4.631
77143W        W42128   3.860  12.491   2.773
77144W        W42129  34.384  41.539   1.457
77145W        W42130   7.917  30.075  13.446
77146W        W42131  19.766  33.819   2.337
77147W        W42132  18.011   1.192   4.992
77148W        W42133  21.729  19.550  13.487
77149W        W42134  18.522  40.491  12.471
77150W        W42135  22.674  30.994   3.576
77151W        W42136  42.590  11.668  10.680
77152W        W42137  26.563   6.288  13.406
77153W        W42138   2.139  20.767  11.100
77154W        W42139  38.071   9.323   1.714
77155W        W42140  40.762  29.415   2.570
77156W        W42141   9.300  30.936   4.032
77157W        W42142  18.749  35.912  10.941
77158W        W42143  35.639   2.415   4.692
77159W        W42144  41.014  25.136   0.199
77160W        W42145   9.305  36.668  10.661
77161W        W42146  30.666  22.512  13.275
77162W        W42147  25.510  13.842   2.865
77163W        W42148   8.854  28.316   3.236
77164W        W42149   8.767  13.920  14.866
77165W        W42150  11.423   9.335   1.161
77166W        W42151  30.280  23.934   0.834
77167W        W42152  34.668  17.477   1.740
77168W        W42153  38.893  13.439   0.847
77169W        W42154  20.441  26.914   0.734
77170W        W42155  40.339   7.387   3.724
77171W        W42156   1.049  40.175  14.510
77172W        W42157  21.043  21.151   0.425
77173W        W42158   3.988  13.738   0.382
77174W        W42159  36.156  23.900   1.992
77175W        W42160  37.256  23.547   1.893
77176W        W42161  10.184  41.532  14.822
77177W        W42162  15.723  43.528   3.858
77178W        W42163  18.241   2.380   0.713
77179W        W42164   3.379  19.846   0.351
77180W        W42165  21.203  34.909   3.643
77181W        W42166  40.827  13.276  14.283
77182W        W42167  11.915  14.820  14.485
77183W        W42168  41.481  10.705  12.343
77184W        W42169  22.940  42.376  10.643
77185W        W42170   3.557  29.252  14.325
77186W        W42171  22.723  44.245  12.368
77187W        W42172  14.710  30.984  11.193
77188W        W42173  36.103  30.428   0.350
77189W        W42174  14.153  36.300   4.853
77190W        W42175  11.489  36.787   2.681
77191W        W42176  41.754  44.338  13.300
77192W        W42177   8.369   9.127   1.746
77193W        W42178   2.738   9.953  12.565
77194W        W42179  25.433  11.919   0.450
77195W        W42180  33.783  29.021  11.526
77196W        W42181  37.130  43.032   1.359
77197W        W42182  10.352   1.778  11.192
77198W        W42183  37.018  17.017   2.752
77199W        W42184   9.650  31.997   1.678
77200W        W42185  20.247  18.795   2.735
77201W        W42186  11.603  39.941  12.918
77202W        W42187  39.056  34.909  14.295
77203W        W42188  23.464  29.221   0.472
77204W        W42189  37.640   0.731  11.966
77205W        W42190  30.427   4.681   1.792
77206W        W42191  38.162  12.204   1.871
77207W        W42192  11.842  39.457   1.291
77208W        W42193   2.881   4.821  11.442
77209W        W42194  18.151  20.041  14.760
77210W        W42195  27.063  28.554   0.249
77211W        W42196  35.827   6.753   9.475
77212W        W42197  42.606   7.040  12.676
77213W        W42198  12.616  33.172  14.045
77214W        W42199  36.798  25.166  12.505
77215W        W42200  25.114   1.074   2.991
77216W        W42201  20.755  22.696  10.321
77217W        W42202  28.262  10.089   4.724
77218W        W42203  37.324  42.525  12.028
77219W        W42204   3.906  30.061   1.650
77220W        W42205  12.793  28.646   3.238
77221W        W42206  43.856  11.295  11.669
77222W        W42207   8.898  23.569  13.521
77223W        W42208  36.978  24.109   4.055
77224W        W42209   3.847  40.495   2.703
77225W        W42210   6.433  19.455   2.205
77226W        W42211  18.645   9.994   4.744
77227W        W42212  22.228  30.887  14.773
77228W        W42213   3.745  36.418  13.883
77229W        W42214  14.102  14.647   1.312
77230W        W42215  42.458  22.153  14.428
77231W        W42216  27.395   1.413   0.961
77232W        W42217   3.235  37.970   1.897
77233W        W42218  25.669  39.790   3.831
77234W        W42219  29.513  17.402  14.007
77235W        W42220  17.848   2.909  14.024
77236W        W42221   2.480  17.998   2.300
77237W        W42222  23.768  22.530   4.458
77238W        W42223  35.902  37.891  12.389
77239W        W42224  38.022  30.019   3.409
77240W        W42225  23.030   4.201  12.682
77241W        W42226  15.298  30.119  14.998
77242W        W42227  11.849  34.897   1.640
77243W        W42228  11.284  29.638  10.896
77244W        W42229  44.517  37.953  14.361
77245W        W42230  31.437  38.875  10.630
77246W        W42231  39.026  44.761  11.139
77247W        W42232  26.324  26.603   2.468
77248W        W42233   6.284  36.047   0.627
77249W        W42234  10.624  19.172   4.670
77250W        W42235  34.582   8.602  12.591
77251W        W42236  33.635   0.840   2.337
77252W        W42237  40.507  27.082  11.964
77253W        W42238  19.504  15.822  12.074
77254W        W42239  43.412  27.406   1.443
77255W        W42240   1.982  28.154  11.542
77256W        W42241  44.681  14.101   0.375
77257W        W42242  23.016  32.422  10.901
77258W        W42243   3.991  27.706   1.234
77259W        W42244  16.665  12.684  14.450
77260W        W42245  33.907  43.349  10.386
77261W        W42246  22.123  11.726  12.491
77262W        W42247  42.883   1.948   4.524
77263W        W42248  17.656  39.594   0.811
77264W        W42249  19.828  28.680   0.338
77265W        W42250  44.920   6.868  13.498
77266W        W42251  13.535  42.392   0.424
77267W        W42252  37.101  29.688   1.210
77268W        W42253  28.965  10.961  14.571
77269W        W42254  29.479  13.931   2.770
77270W        W42255  11.764  39.842  10.795
77271W        W42256   2.085  14.194  13.894
77272W        W42257  31.191  11.612  12.440
77273W        W42258   9.249   4.402   0.830
77274W        W42259  15.258  20.821   0.817
77275W        W42260  17.823   9.911   4.533
77276W        W42261  41.516  37.666   0.816
77277W        W42262  16.992  38.765  10.408
77278W        W42263  22.657  39.801  14.505
77279W        W42264  22.065  26.992  13.641
77280W        W42265  32.302  17.154  13.024
77281W        W42266  16.759  19.649  13.385
77282W        W42267  40.753  31.617  14.182
77283W        W42268  10.924  42.058  13.584
77284W        W42269  28.869  35.194  13.289
77285W        W42270   3.989   3.688  11.353
77286W        W42271   1.298  11.839   4.186
77287W        W42272  12.728  23.608   1.733
77288W        W42273  10.018  41.486   4.524
77289W        W42274  28.811  21.636  13.919
77290W        W42275  14.845  30.815  13.523
77291W        W42276  31.866  31.083  11.711
77292W        W42277  15.920   0.977   3.865
77293W        W42278  14.166   6.991  14.972
77294W        W42279  32.818  11.651   1.850
77295W        W42280  19.530  18.504   1.458
77296W        W42281  19.245  22.184  10.571
77297W        W42282  34.979  23.166   1.813
77298W        W42283  24.564   2.944   5.495
77299W        W42284  43.878  41.003   1.294
77300W        W42285  20.239  41.244  12.663
77301W        W42286   8.533  43.883   1.266
77302W        W42287  35.568  25.677  11.643
77303W        W42288  20.289  44.350   2.616
77304W        W42289  38.420  19.956  10.688
77305W        W42290   6.148  16.503   1.670
77306W        W42291   8.798  39.804  14.374
77307W        W42292  16.980  29.525   0.846
77308W        W42293  43.964  33.028  10.783
77309W        W42294   2.759  10.063  11.244
77310W        W42295  36.417  26.263   4.752
77311W        W42296  40.007  36.059  12.801
77312W        W42297  18.634  41.495   3.692
77313W        W42298  14.780  15.458   3.604
77314W        W42299  21.479  44.798   4.621
77315W        W42300   4.800  27.376   1.461
77316W        W42301  43.322  36.580   4.472
77317W        W42302  17.141   3.988   3.685
77318W        W42303  20.204  18.194   0.235
77319W        W42304   9.868  26.602  11.156
77320W        W42305   9.730  13.185  13.987
77321W        W42306  17.197  43.467  12.743
77322W        W42307  15.825   0.053   3.764
77323W        W42308  28.180  15.351   0.706
77324W        W42309  35.315  32.777   3.215
77325W        W42310  26.010   4.279   3.679
77326W        W42311   0.667  26.709   2.184
77327W        W42312  24.070  20.749   1.855
77328W        W42313  10.021  28.362   3.724
77329W        W42314  43.621  16.156  10.748
77330W        W42315  35.913  42.401  11.261
77331W        W42316   7.796   4.811   3.935
77332W        W42317   3.989   6.379  12.033
77333W        W42318  27.596  12.825   2.823
77334W        W42319  25.810  25.483   4.765
77335W        W42320  18.018  43.035   3.002
77336W        W42321  36.552  35.603  11.967
77337W        W42322  22.253   2.040  14.368
77338W        W42323  23.390  16.137  13.429
77339W        W42324  44.729  28.463   4.776
77340W        W42325  44.514  10.396  14.847
77341W        W42326  18.071   5.123  11.549
77342W        W42327  24.695  13.095  13.399
77343W        W42328  29.524  12.014  12.644
77344W        W42329  31.331  25.096   0.110
77345W        W42330  14.770  31.582   3.299
77346W        W42331  39.325   2.728  11.748
77347W        W42332  32.627   8.312  13.430
77348W        W42333  18.606   2.685   4.223
77349W        W42334  27.584   6.219  11.049
77350W        W42335  31.942  39.437  13.950
77351W        W42336  11.766   8.916   3.633
77352W        W42337  32.533  18.153  14.141
77353W        W42338   5.483   1.936  12.025
77354W        W42339   3.385  26.168  12.453
77355W        W42340   9.565  35.390   4.437
77356W        W42341  38.626   7.266  13.787
77357W        W42342  36.213  25.706   0.390
77358W        W42343  24.468  44.544   3.241
77359W        W42344  24.499  37.864   1.370
77360W        W42345  44.617  26.670  12.086
77361W        W42346   2.290  43.514   2.635
77362W        W42347  18.793  11.479  11.124
77363W        W42348  44.398  36.191  14.594
77364W        W42349   6.319  38.592   3.614
77365W        W42350  42.221  40.524  11.788
77366W        W42351   7.458  37.025  11.050
77367W        W42352  23.751   5.699  10.477
77368W        W42353  34.952   6.829   4.527
77369W        W42354  28.610  27.695   4.090
77370W        W42355   1.730  27.900  11.152
77371W        W42356   1.647   6.353  12.897
77372W        W42357   8.921  37.110  11.081
77373W        W42358  38.983  12.547   0.020
77374W        W42359  25.259   8.592  14.505
77375W        W42360  31.181  32.109  13.448
77376W        W42361  34.487  11.832  14.987
77377W        W42362   2.798  35.364   4.565
77378W        W42363  34.115  40.105  13.967
77379W        W42364  39.001   6.604  11.540
77380W        W42365   6.370  31.379   3.299
77381W        W42366  37.987  31.279   1.196
77382W        W42367  41.191  35.378  13.880
77383W        W42368  33.895  17.927   3.527
77384W        W42369   7.730   4.395   2.126
77385W        W42370  28.731  21.081  10.527
77386W        W42371   0.107   4.912  13.090
77387W        W42372  24.986  34.161  11.714
77388W        W42373  24.657  37.073   3.301
77389W        W42374  28.004  27.418  14.071
77390W        W42375  17.850  23.086   1.870
77391W        W42376  19.553  12.660   0.454
77392W        W42377  11.495   2.189  11.769
77393W        W42378  14.109  40.434   1.449
77394W        W42379  11.788  23.266  11.891
77395W        W42380  41.146  37.330  10.844
77396W        W42381  10.822  12.928  12.605
77397W        W42382   3.735  43.631   1.632
77398W        W42383   0.388  36.535  13.619
77399W        W42384  26.937  26.551   3.150
77400W        W42385  40.800  24.139  14.330
77401W        W42386  30.245  20.988   1.436
77402W        W42387  24.415  33.343   5.405
77403W        W42388  12.746  15.736   1.715
77404W        W42389  15.870  15.971  11.702
77405W        W42390   2.526   1.515   4.785
77406W        W42391  15.199  41.774   1.686
77407W        W42392  21.226  16.185   2.586
77408W        W42393  10.942   6.426   3.395
77409W        W42394  35.993  37.879   3.920
77410W        W42395  27.715   8.520  13.846
77411W        W42396  42.993  25.001   0.154
77412W        W42397  24.477  34.841  11.128
77413W        W42398  17.120  30.718  14.005
77414W        W42399  43.493   2.490   3.875
77415W        W42400  35.490   4.675  14.505
77416W        W42401   6.187  22.737  10.786
77417W        W42402   2.596  12.657  10.320
77418W        W42403  13.215  20.453  12.164
77419W        W42404  20.645  32.139  13.105
77420W        W42405  31.987  28.946  10.372
77421W        W42406  26.160  16.269   2.162
77422W        W42407   1.813  26.577   0.302
77423W        W42408  43.172  10.400  13.902
77424W        W42409   5.305  24.014  12.427
77425W        W42410  16.734  18.711  12.353
77426W        W42411   4.023  28.460   1.874
77427W        W42412  37.228  26.198  12.884
77428W        W42413   0.887   9.885  13.460
77429W        W42414  18.694   2.017   1.456
77430W        W42415  23.669  37.671  11.338
77431W        W42416  19.806  21.992   2.633
77432W        W42417  40.280  40.544  11.370
77433W        W42418  44.777  20.962   3.825
77434W        W42419  30.161  33.659   1.396
77435W        W42420  10.752  21.006   3.609
77436W        W42421  15.139  18.824  12.010
77437W        W42422   3.285  41.834   5.024
77438W        W42423  13.363  32.850  11.527
77439W        W42424  27.045  25.147   2.672
77440W        W42425  17.904   9.759  11.701
77441W        W42426   5.194  37.086   4.968
77442W        W42427  14.683  39.735   2.933
77443W        W42428  30.834  44.391   4.863
77444W        W42429   8.658  42.666  12.140
77445W        W42430   8.405   0.891  14.979
77446W        W42431   0.710  41.444   1.886
77447W        W42432  12.157  18.540   2.742
77448W        W42433   0.226  29.161  14.098
77449W        W42434  25.663  38.906   4.385
77450W        W42435  33.930  44.695   2.611
77451W        W42436  31.178  25.463  11.124
77452W        W42437  32.007  16.833  14.130
77453W        W42438  18.524  44.754   2.596
77454W        W42439  20.046  14.426  12.965
77455W        W42440  16.797  31.650   0.338
77456W        W42441  44.757  42.475  12.486
77457W        W42442  16.213   5.455   1.466
77458W        W42443  22.354  24.451  10.763
77459W        W42444  33.544  18.108  14.987
77460W        W42445  44.938   0.889   2.338
77461W        W42446   2.896  38.988  13.293
77462W        W42447  11.276   4.054   3.810
77463W        W42448  28.898  13.114  12.024
77464W        W42449  37.358  42.277  12.499
77465W        W42450   4.024  41.931   2.786
77466W        W42451  35.097  32.511   2.775
77467W        W42452  42.834  11.331  14.736
77468W        W42453   9.282  41.567   4.878
77469W        W42454   7.927   2.832  13.364
77470W        W42455  17.302  31.151   0.079
77471W        W42456  39.970  42.929   4.386
77472W        W42457  44.262   4.263   3.277
77473W        W42458  38.726   9.435  11.089
77474W        W42459  13.483  33.631  14.309
77475W        W42460  38.246  27.339  13.408
77476W        W42461  40.762  18.963   0.290
77477W        W42462  16.688  17.481   4.127
77478W        W42463  13.793   6.111  13.836
77479W        W42464  19.420   7.637  11.686
77480W        W42465   3.254  37.252  11.224
77481W        W42466  32.363  18.141   0.906
77482W        W42467   8.824  28.421   0.062
77483W        W42468   5.134  24.806  14.703
77484W        W42469  21.615  10.135   0.851
77485W        W42470  14.866   2.804  14.321
77486W        W42471  16.700  17.257   2.229
77487W        W42472  24.594  11.766  11.710
77488W        W42473   1.733   7.800  10.780
77489W        W42474  30.173  24.000   1.382
77490W        W42475   5.751  39.516  13.487
77491W        W42476   3.747  38.911  10.577
77492W        W42477   2.627  22.709  11.883
77493W        W42478  14.409  25.145   3.193
77494W        W42479  22.734   1.489  11.597
77495W        W42480  23.804   9.470  12.487
77496W        W42481  27.433  40.622  13.466
77497W        W42482  23.722  43.206  11.197
77498W        W42483   5.025  23.657   1.890
77499W        W42484  25.112  40.233   3.284
77500W        W42485  21.081  32.647   2.661
77501W        W42486  26.668  41.091   1.632
77502W        W42487   5.446  24.739  11.606
77503W        W42488  14.164  44.825   0.373
77504W        W42489  12.047  18.545  13.194
77505W        W42490  40.270  33.495  10.861
77506W        W42491  31.476  42.283  13.896
77507W        W42492  10.319   1.779  10.670
77508W        W42493  41.819   1.147   0.839
77509W        W42494  34.345  23.790   1.810
77510W        W42495   7.794  16.356   2.092
77511W        W42496  41.725  44.036   1.835
77512W        W42497  23.339  41.528   0.415
77513W        W42498   6.887  39.601  10.955
77514W        W42499  16.249  38.143   4.452
77515W        W42500  44.297   6.629   1.939
77516W        W42501   7.872  37.839   2.390
77517W        W42502   6.914  26.711   0.338
77518W        W42503  41.619  38.531   2.439
77519W        W42504  29.355  43.451  11.730
77520W        W42505  36.833   3.797   3.241
77521W        W42506  26.443   7.706   4.590
77522W        W42507  29.002   1.373   0.932
77523W        W42508  44.006  31.486   0.363
77524W        W42509  25.013   4.293   2.664
77525W        W42510  29.926  27.193  12.651
77526W        W42511   5.714  14.763  10.482
77527W        W42512  33.402  11.381  12.005
77528W        W42513  23.265  30.498   4.690
77529W        W42514   1.524   6.162  14.366
77530W        W42515  23.215  27.989   2.296
77531W        W42516  39.283   3.458  13.571
77532W        W42517  25.702  36.670   4.259
77533W        W42518   6.176  37.124   4.650
77534W        W42519  30.669  14.542   0.409
77535W        W42520  35.084  24.404  13.982
77536W        W42521   9.391  38.062  13.667
77537W        W42522  23.189  31.669  11.910
77538W        W42523   4.891  44.016  11.000
77539W        W42524   8.097  40.939   1.877
77540W        W42525  18.390  38.539   2.684
77541W        W42526  27.095  25.242  10.628
77542W        W42527  40.087  17.920   2.278
77543W        W42528  19.993  32.913  12.866
77544W        W42529  35.975  16.284  12.889
77545W        W42530   0.880  27.883   0.274
77546W        W42531  17.136  19.645   9.966
77547W        W42532  41.347  14.656  12.195
77548W        W42533  22.561  26.638  10.565
77549W        W42534  41.843  33.364  13.806
77550W        W42535  15.552  24.244   3.507
77551W        W42536  36.107  10.124  13.121
77552W        W42537   5.224   9.485   3.370
77553W        W42538  15.319  35.297  13.000
77554W        W42539   4.730   6.089   1.239
77555W        W42540  42.865  24.692   2.716
77556W        W42541  32.163   4.599  12.442
77557W        W42542  42.906   5.947   0.378
77558W        W42543  41.512   9.023  14.570
77559W        W42544  22.649  42.930  10.487
77560W        W42545   2.174   1.816  11.614
77561W        W42546  14.153  39.530  12.665
77562W        W42547  25.035  11.556   2.778
77563W        W42548  35.539  29.640  12.294
77564W        W42549  29.995  21.496   2.451
77565W        W42550  42.288  40.067   4.221
77566W        W42551  38.757  11.641  14.016
77567W        W42552  33.358  39.868   4.087
77568W        W42553   6.751   8.854  10.551
77569W        W42554  10.409   5.677  12.488
77570W        W42555   4.229  42.911   1.520
77571W        W42556  12.764   2.680  13.592
77572W        W42557  40.841  41.965  12.398
77573W        W42558  20.203  10.319   0.340
77574W        W42559  35.357   5.319   4.128
77575W        W42560  40.000  27.909   3.876
77576W        W42561  10.780   8.859   0.304
77577W        W42562   1.943  41.798  13.282
77578W        W42563  34.009  41.033  12.940
77579W        W42564  30.545  22.573  11.643
77580W        W42565  38.006  39.626   0.713
77581W        W42566  26.150  42.413   4.915
77582W        W42567  43.678   6.073   9.906
77583W        W42568  20.910  29.021  12.215
77584W        W42569  19.180  20.260  13.032
77585W        W42570   1.876  28.468   1.293
77586W        W42571   0.287  23.608  11.956
77587W        W42572   5.889  44.845   2.770
77588W        W42573  22.602  31.958   2.335
77589W        W42574  17.200   7.729   1.241
77590W        W42575  13.584  42.384  12.078
77591W        W42576  32.969  32.595   4.012
77592W        W42577  19.565  28.078   2.180
77593W        W42578  34.872  33.053  12.479
77594W        W42579   6.197   0.516   9.824
77595W        W42580  31.049  20.032   4.352
77596W        W42581   4.325  28.713  13.145
77597W        W42582  29.086  30.096  11.126
77598W        W42583  25.454  18.691   0.789
77599W        W42584   2.766  40.524   2.764
77600W        W42585  29.592  15.366  10.740
77601W        W42586  14.206   0.402  10.993
77602W        W42587  14.211  26.920   1.236
77603W        W42588  34.066  22.749  14.964
77604W        W42589  24.500  39.501  12.020
77605W        W42590   4.821  28.615  12.857
77606W        W42591  43.024   6.412   3.707
77607W        W42592  32.805  42.953   2.889
77608W        W42593  16.397  26.441   2.836
77609W        W42594  35.559  30.550  14.477
77610W        W42595   3.775   5.936  12.139
77611W        W42596  32.179  43.849   1.236
77612W        W42597  18.977  20.781   2.252
77613W        W42598  10.887  38.149  14.965
77614W        W42599  17.679  26.242  12.903
77615W        W42600  33.100  43.227   4.572
77616W        W42601   7.371   9.220  12.529
77617W        W42602  33.135  31.392   2.715
77618W        W42603   5.887  14.298  11.953
77619W        W42604   5.906  31.440  11.573
77620W        W42605  18.010  24.773  10.748
77621W        W42606  33.047  11.288   0.885
77622W        W42607  39.753  32.106  14.403
77623W        W42608   8.994  31.996   1.291
77624W        W42609   6.858  34.035  13.811
77625W        W42610   2.694  33.462  13.345
77626W        W42611  31.222  30.590   2.265
77627W        W42612   7.440  42.721   2.780
77628W        W42613   1.002   9.774   1.767
77629W        W42614  24.300   1.398   4.626
77630W        W42615  21.029   0.321   0.365
77631W        W42616  17.072  35.896   2.733
77632W        W42617  16.127   8.333   0.953
77633W        W42618  10.572  20.687   1.842
77634W        W42619  23.777  15.718   9.902
77635W        W42620  22.346  22.047  14.350
77636W        W42621  28.001  36.481  14.937
77637W        W42622  19.458  16.757  13.611
77638W        W42623  10.350  36.142   2.366
77639W        W42624  30.570  43.751   0.334
77640W        W42625  15.221  18.318   4.685
77641W        W42626  20.290  32.032   4.559
77642W        W42627  27.309   3.193   0.480
77643W        W42628  15.058   1.374  12.060
77644W        W42629   6.018  21.766   1.802
77645W        W42630   6.651   1.899   5.054
77646W        W42631   8.248  25.196  10.607
77647W        W42632  17.500  27.069   3.222
77648W        W42633  21.702   3.312   3.218
77649W        W42634  32.142  37.534  14.401
77650W        W42635   8.724  15.757   0.031
77651W        W42636   9.951  40.235  13.289
77652W        W42637   9.758   2.721   4.242
77653W        W42638   1.683   0.316   3.178
77654W        W42639  44.764  22.515   3.510
77655W        W42640  12.977  22.660   3.399
77656W        W42641  13.631  22.555  13.930
77657W        W42642  21.770  35.533   1.663
77658W        W42643  14.843  29.167  13.982
77659W        W42644  32.171  24.514   3.610
77660W        W42645   8.200  16.371   2.403
77661W        W42646  44.422  27.724  10.505
77662W        W42647  41.659  23.214   2.690
77663W        W42648  38.986  10.574  13.445
77664W        W42649  34.423   4.493  14.309
77665W        W42650  24.527   9.887   1.238
77666W        W42651  27.093  32.948  12.390
77667W        W42652   1.787   6.623   3.182
77668W        W42653   4.284   2.985  14.880
77669W        W42654  23.641  15.713  12.237
77670W        W42655  15.263   4.232  13.801
77671W        W42656  14.480  21.622   2.606
77672W        W42657  17.591  35.518   2.316
77673W        W42658  13.265   8.635  14.712
77674W        W42659  21.782  12.251  14.903
77675W        W42660  33.952  18.376  12.890
77676W        W42661  37.653  29.121  10.952
77677W        W42662  41.671   8.915  11.143
77678W        W42663   2.886   7.466   4.681
77679W        W42664  37.393  25.112  13.335
77680W        W42665  39.126  31.897  10.122
77681W        W42666   5.926   4.353  14.274
77682W        W42667  29.899  43.916   1.075
77683W        W42668   6.713  39.643  11.448
77684W        W42669  12.715  17.619  11.037
77685W        W42670  35.123   7.821   1.365
77686W        W42671  31.383  33.727   2.660
77687W        W42672   5.443   1.920   2.584
77688W        W42673  30.149   6.817  12.367
77689W        W42674  24.915  10.787   2.244
77690W        W42675   1.560  17.982  12.502
77691W        W42676   7.457  26.279  11.928
77692W        W42677  30.565  27.071   4.262
77693W        W42678  42.361  28.382  12.494
77694W        W42679  31.526  22.645   4.632
77695W        W42680  33.916  34.429  13.920
77696W        W42681  15.998  36.920  14.163
77697W        W42682  40.886  28.126   5.014
77698W        W42683  44.002  41.193  10.517
77699W        W42684  42.829  12.633  14.283
77700W        W42685  32.604  38.926   3.244
77701W        W42686  39.443  23.619   3.892
77702W        W42687  35.104   4.732   1.623
77703W        W42688  14.578   7.790   4.075
77704W        W42689   2.900   4.482  12.303
77705W        W42690  22.919  32.268   0.889
77706W        W42691   0.725   6.911   3.167
77707W        W42692   2.231  16.543  11.418
77708W        W42693  28.146  16.525   3.114
77709W        W42694  29.736  18.661   0.434
77710W        W42695  28.687   0.345  10.570
77711W        W42696  19.361  19.867   3.585
77712W        W42697  15.353  12.015  11.540
77713W        W42698   5.399   7.011   2.812
77714W        W42699  10.837   1.225  13.326
77715W        W42700  41.923   2.831  14.915
77716W        W42701  11.171  28.034  12.963
77717W        W42702  39.752  20.568   5.145
77718W        W42703  43.071  32.503  12.454
77719W        W42704  15.306   9.398  13.600
77720W        W42705   6.799  29.345  11.433
77721W        W42706  34.934  19.720  14.985
77722W        W42707  27.386  13.064  13.095
77723W        W42708  40.022  13.620  14.776
77724W        W42709  12.652   8.552   1.752
77725W        W42710  26.193  32.605   3.572
77726W        W42711   6.910  31.143   0.323
77727W        W42712   4.818   6.484   2.358
77728W        W42713  27.713  35.011   1.665
77729W        W42714   9.253  21.997  13.747
77730W        W42715  33.619  35.694   3.625
77731W        W42716  18.195  30.009   3.803
77732W        W42717  41.202  11.135  13.326
77733W        W42718   1.736  37.337   0.523
77734W        W42719  13.882  17.834   3.181
77735W        W42720   9.893  13.308   1.311
77736W        W42721   0.493  13.677  12.333
77737W        W42722   1.132  28.647  14.676
77738W        W42723  39.055  18.745  12.431
77739W        W42724   5.083  32.398  14.065
77740W        W42725  10.442  39.902  12.254
77741W        W42726  33.638  22.058   0.277
77742W        W42727  20.017  10.801   0.516
77743W        W42728   5.538  18.806  13.022
77744W        W42729  15.021   3.873  13.448
77745W        W42730  30.130  39.918   2.259
77746W        W42731  32.089   9.712  13.947
77747W        W42732  24.618  40.276  13.561
77748W        W42733   4.150  10.702   4.259
77749W        W42734  24.384  27.471   4.991
77750W        W42735   1.787  28.688   4.084
77751W        W42736  31.151  40.548  11.192
77752W        W42737  27.809  38.200  11.235
77753W        W42738  27.894  37.136   4.528
77754W        W42739   4.853  28.923   2.933
77755W        W42740  43.172  44.684   4.110
77756W        W42741  31.595   1.259   1.339
77757W        W42742   0.712   3.229  12.597
77758W        W42743  23.844  11.178  11.031
77759W        W42744  23.837  34.426   5.081
77760W        W42745   9.655  44.624  14.470
77761W        W42746   8.751   6.376   4.871
77762W        W42747  26.119  11.401   2.318
77763W        W42748   6.937  16.253  12.980
77764W        W42749  29.573  15.294  12.585
77765W        W42750  35.990  16.738   1.386
77766W        W42751  11.264  25.640   3.450
77767W        W42752   8.388  33.354   2.400
77768W        W42753  17.056  21.288   3.275
77769W        W42754   0.534   6.658   4.517
77770W        W42755  41.013  37.328   0.120
77771W        W42756  35.670  40.098   1.284
77772W        W42757  39.300   8.966   3.690
77773W        W42758  18.316  42.541  12.660
77774W        W42759  43.749  13.096  11.057
77775W        W42760  20.517   3.296  13.462
77776W        W42761   8.104  12.744  12.808
77777W        W42762  15.767  40.677  11.261
77778W        W42763   4.108  23.084   2.285
77779W        W42764  36.734  22.835   4.242
77780W        W42765   8.192  23.245  11.500
77781W        W42766  33.064  29.152  12.486
77782W        W42767  12.932  21.421   4.956
77783W        W42768  12.187  37.378   2.339
77784W        W42769  15.155  12.676   3.739
77785W        W42770  23.309  11.751   1.242
77786W        W42771  25.514  12.084   3.178
77787W        W42772  24.974  41.312   1.944
77788W        W42773   4.022  14.775   0.512
77789W        W42774  33.855  40.876  12.418
77790W        W42775   4.277   6.341  10.415
77791W        W42776  24.580  33.584  12.803
77792W        W42777   3.695  12.054  12.870
77793W        W42778  33.417  42.173   3.721
77794W        W42779  41.257  25.504   2.667
77795W        W42780  39.836  40.877  11.182
77796W        W42781  36.553   3.548  12.014
77797W        W42782  28.150  41.768   1.398
77798W        W42783  13.885  22.563  14.373
77799W        W42784   8.090   2.413  11.900
77800W        W42785   9.662  28.036  11.478
77801W        W42786  19.349  11.453  12.061
77802W        W42787  23.674  22.806   4.026
77803W        W42788  35.314  42.785  14.179
77804W        W42789  33.982  37.614  11.735
77805W        W42790  41.928   2.741  14.373
77806W        W42791  41.926  31.174  11.558
77807W        W42792  26.254  40.973   0.296
77808W        W42793  29.355   4.399  14.300
77809W        W42794  37.162   5.236   2.918
77810W        W42795  38.335   9.660  12.008
77811W        W42796  28.128  32.172   2.529
77812W        W42797  37.019   6.492  11.541
77813W        W42798  37.944   6.812   2.126
77814W        W42799  24.237  27.679  13.877
77815W        W42800  21.811  43.447  14.823
77816W        W42801  30.983  28.880   0.251
77817W        W42802   6.963   2.121   1.816
77818W        W42803  30.918  39.725  10.643
77819W        W42804  21.759  13.194  12.445
77820W        W42805   3.956  36.686  10.742
77821W        W42806  17.650  40.327   2.634
77822W        W42807  22.616  23.517   0.688
77823W        W42808  28.010  17.123  11.389
77824W        W42809  13.317  28.667  10.611
77825W        W42810  18.771  22.643   1.699
77826W        W42811   6.874   4.705   0.835
77827W        W42812  21.302   2.842  12.570
77828W        W42813  23.133   4.652  12.422
77829W        W42814  38.371  23.105   4.826
77830W        W42815  40.889  34.940  13.852
77831W        W42816  12.725  32.792   0.506
77832W        W42817  29.390  26.638   1.431
77833W        W42818  16.150  21.108   3.668
77834W        W42819  35.821   8.133  12.979
77835W        W42820   0.521  41.268  13.766
77836W        W42821  19.476  30.788  11.589
77837W        W42822  19.598  11.168   0.750
77838W        W42823  18.826  17.175   3.953
77839W        W42824  39.003  44.513  10.677
77840W        W42825  23.154   5.629   0.236
77841W        W42826  16.916  35.442  13.053
77842W        W42827  20.177  25.377   3.028
77843W        W42828  41.510   9.339  13.798
77844W        W42829   9.614  11.764  11.624
77845W        W42830  25.922  25.626  14.401
77846W        W42831  13.545   3.052  13.288
77847W        W42832  22.548  31.373  13.947
77848W        W42833  11.218  31.327   2.975
77849W        W42834   2.539   3.899  11.615
77850W        W42835  20.993  27.922   1.697
77851W        W42836  12.585   5.741   2.877
77852W        W42837  26.537  34.221  12.649
77853W        W42838   3.651   6.693   1.400
77854W        W42839   0.315  28.131   2.693
77855W        W42840   3.793  20.813  10.227
77856W        W42841  15.582  39.002   0.389
77857W        W42842  43.611  14.569   4.244
77858W        W42843   0.177  26.696   2.589
77859W        W42844   7.334  29.823  14.387
77860W        W42845   2.383  15.631  14.463
77861W        W42846  41.510  32.163   4.529
77862W        W42847  38.875  26.104  14.379
77863W        W42848  28.132  14.467   0.861
77864W        W42849  11.321  38.111  11.968
77865W        W42850  28.536   9.508   3.437
77866W        W42851  34.060  26.626  13.383
77867W        W42852  44.818  42.750   1.845
77868W        W42853   7.917   0.112   1.239
77869W        W42854  16.284  39.015   2.466
77870W        W42855   4.018  26.630   3.210
77871W        W42856  28.174   5.642   4.102
77872W        W42857  23.166  38.341  14.793
77873W        W42858   8.415   7.400  12.031
77874W        W42859  27.459  29.229  13.921
77875W        W42860  33.168  25.405  12.366
77876W        W42861   1.374  40.505   0.868
77877W        W42862  43.191  21.665  14.891
77878W        W42863  30.474  28.711  10.422
77879W        W42864  34.640  18.137  11.488
77880W        W42865   0.205  11.516  11.038
77881W        W42866  32.975  27.013   4.529
77882W        W42867  23.234  42.073   1.758
77883W        W42868   2.559  34.543   1.754
77884W        W42869   1.534  13.174  12.929
77885W        W42870  41.458  16.480  12.923
77886W        W42871  37.531  27.989  13.476
77887W        W42872   2.240   2.401   0.983
77888W        W42873   4.445  11.220   0.214
77889W        W42874  36.791  20.329  13.906
77890W        W42875  22.678  36.382   2.420
77891W        W42876  14.275  30.050  11.171
77892W        W42877   0.985  41.850  11.819
77893W        W42878   1.263   0.213  13.769
77894W        W42879  25.387  25.183  13.250
77895W        W42880  33.867   1.196   1.387
77896W        W42881  16.099  15.262   3.530
77897W        W42882  19.326  29.956  12.583
77898W        W42883  35.637  26.244  11.980
77899W        W42884  34.498  40.231   2.713
77900W        W42885  31.607   0.779  11.850
77901W        W42886   6.968  40.463   2.885
77902W        W42887  30.893  10.677  10.493
77903W        W42888  20.760  44.265  13.967
77904W        W42889   2.218  37.375   4.321
77905W        W42890   4.761  15.566  14.977
77906W        W42891  26.659  42.511  13.475
77907W        W42892  27.577  39.028  14.953
77908W        W42893  28.869  22.246   1.953
77909W        W42894   5.440   2.460  14.774
77910W        W42895  43.366  20.388  12.604
77911W        W42896   8.107  27.620   2.258
77912W        W42897  43.903  21.122   3.824
77913W        W42898  12.877  30.410   1.751
77914W        W42899  20.299   5.587   1.762
77915W        W42900  20.684  30.083  12.869
77916W        W42901  13.569  40.837   2.968
77917W        W42902   6.905   5.338   2.635
77918W        W42903   1.531  24.220  13.973
77919W        W42904   7.763  19.997   4.554
77920W        W42905  30.565  29.855   1.097
77921W        W42906   2.936  20.298  14.014
77922W        W42907   4.201   7.577   1.287
77923W        W42908  23.684  29.437  12.548
77924W        W42909   4.954  23.487  12.560
77925W        W42910  39.666  18.495  14.952
77926W        W42911  42.567  26.250   3.570
77927W        W42912  24.758   6.773  12.461
77928W        W42913   0.630  19.212   3.211
77929W        W42914  27.900  31.699   4.959
77930W        W42915  44.910   4.708   2.453
77931W        W42916   5.096  31.434  14.020
77932W        W42917  14.018  10.631  12.063
77933W        W42918  26.635   3.409  10.734
77934W        W42919  36.105  36.089  14.019
77935W        W42920  16.289   7.924  13.387
77936W        W42921  43.949  39.610  13.450
77937W        W42922  26.514  41.795   3.334
77938W        W42923  38.573  36.439  14.906
77939W        W42924  11.012  26.870  12.205
77940W        W42925  15.024  28.244  14.913
77941W        W42926   9.919   6.222   3.235
77942W        W42927  18.736  38.109  10.828
77943W        W42928  34.600   2.790   1.492
77944W        W42929  16.710  21.088   4.492
77945W        W42930   7.901  20.715   0.923
77946W        W42931  38.589  44.882   3.223
77947W        W42932  14.534  14.808   4.932
77948W        W42933  39.392   9.734   2.660
77949W        W42934  30.102  17.257   0.330
77950W        W42935   5.515   5.942  11.622
77951W        W42936  21.286   0.657  12.742
77952W        W42937  22.857  12.831  10.026
77953W        W42938  31.075  23.154   2.556
77954W        W42939  36.302  38.100  14.353
77955W        W42940   2.296  39.738   0.166
77956W        W42941  19.671  37.567  13.096
77957W        W42942  12.367  36.647   4.272
77958W        W42943  41.394  12.911   0.360
77959W        W42944  14.558  18.494  10.890
77960W        W42945  14.524  30.895  14.414
77961W        W42946  23.781  25.901   0.463
77962W        W42947  13.126   1.499   2.644
77963W        W42948  44.364   2.712   2.007
77964W        W42949  26.660  22.274  11.583
77965W        W42950   6.155  24.495   2.337
77966W        W42951  22.196  19.931   4.081
77967W        W42952  38.267  27.234   2.862
77968W        W42953  13.493   6.920  14.010
77969W        W42954  34.015   0.539   2.146
77970W        W42955  38.021  15.290   3.198
77971W        W42956  12.071  13.056  12.888
77972W        W42957  35.568   3.649   3.771
77973W        W42958  27.281  22.776  10.582
77974W        W42959   9.989  23.719  13.891
77975W        W42960  17.032  14.259   4.657
77976W        W42961   1.779  15.023   0.044
77977W        W42962   1.244  28.060   4.518
77978W        W42963  11.686  31.408  10.590
77979W        W42964   6.255   0.057   2.417
77980W        W42965  17.257  22.246  10.737
77981W        W42966  18.130  11.563   3.829
77982W        W42967  24.632   2.299   1.567
77983W        W42968  19.898   3.600  14.236
77984W        W42969   5.340  41.810   3.714
77985W        W42970  14.714   9.199   1.423
77986W        W42971   2.013   8.464   3.712
77987W        W42972  16.181  10.802  10.368
77988W        W42973  19.164  25.649   1.664
77989W        W42974   3.068  27.895   2.304
77990W        W42975  34.135   4.697  10.413
77991W        W42976  24.515  26.118   4.760
77992W        W42977  36.308  20.480   0.863
77993W        W42978   1.741  16.350  14.204
77994W        W42979  22.703  10.056  11.002
77995W        W42980  12.213   9.984   3.292
77996W        W42981  24.613  30.723   3.147
77997W        W42982  35.815  33.115   0.625
77998W        W42983  39.722  14.062   2.383
77999W        W42984  32.531  41.778   1.889
78000W        W42985  38.327  23.172  13.736
78001W        W42986   3.903  32.425  12.904
78002W        W42987   6.155   2.395   1.595
78003W        W42988  42.748  16.014   0.229
78004W        W42989  14.148  28.101   3.215
78005W        W42990  29.472  44.684   0.880
78006W        W42991  44.696   4.349  11.087
78007W        W42992   6.238  36.920   0.405
78008W        W42993   3.861   5.155  10.226
78009W        W42994  40.543  27.852   3.151
78010W        W42995  22.092  12.321   0.304
78011W        W42996  21.128  22.868  12.840
78012W        W42997   2.963  25.083  11.085
78013W        W42998  28.369  33.953   9.812
78014W        W42999   5.400  19.474  14.272
78015W        W43000  10.653   6.206  12.113
78016W        W43001  35.083  25.914  12.958
78017W        W43002  15.763  23.351   0.980
78018W        W43003   6.165   0.961   3.549
78019W        W43004   4.205  20.713   2.217
78020W        W43005  32.603   5.893  14.368
78021W        W43006  32.410  41.753   2.396
78022W        W43007   9.692   3.922   0.261
78023W        W43008  36.324  14.088   3.370
78024W        W43009  39.031  17.697  11.652
78025W        W43010  24.218   7.195   1.392
78026W        W43011  37.997  44.957   1.006
78027W        W43012   2.142  26.267  12.930
78028W        W43013  22.457  12.865  10.756
78029W        W43014  40.843   7.870   1.497
78030W        W43015   1.306   4.720   4.511
78031W        W43016  33.500   9.851   0.023
78032W        W43017   1.485  12.845  11.198
78033W        W43018  11.653  23.314   2.285
78034W        W43019  18.231  10.308  13.074
78035W        W43020  36.254  28.079   3.319
78036W        W43021   2.702   7.401   4.185
78037W        W43022  39.989  39.112  14.816
78038W        W43023  24.586  43.191   3.312
78039W        W43024   3.177  31.161   2.142
78040W        W43025   7.134  35.862  10.747
78041W        W43026  22.549   8.223   2.204
78042W        W43027  10.832  14.994  10.962
78043W        W43028   2.444  36.929   3.799
78044W        W43029  16.635  40.629   3.211
78045W        W43030  32.352  24.027  11.941
78046W        W43031  12.302   8.798   2.415
78047W        W43032  33.099  27.437   2.160
78048W        W43033  15.746  19.953   3.518
78049W        W43034  21.963  39.023  12.068
78050W        W43035  34.998   3.712  14.908
78051W        W43036  13.179  20.716   3.881
78052W        W43037   6.982  17.248   0.023
78053W        W43038  38.042  34.542  10.213
78054W        W43039  42.930   2.852   1.949
78055W        W43040  33.479  22.085   2.220
78056W        W43041  33.272  38.915  14.419
78057W        W43042  25.627  12.402  12.190
78058W        W43043  29.344  20.536  11.160
78059W        W43044   1.226  18.679  12.905
78060W        W43045  33.615  37.676  12.466
78061W        W43046  42.146  14.260  10.281
78062W        W43047  26.699  29.941  13.902
78063W        W43048   4.278  40.804  10.714
78064W        W43049  36.590  16.613  11.558
78065W        W43050   1.351  15.672   2.184
78066W        W43051  38.105   8.854  14.558
78067W        W43052  20.731  11.773   4.619
78068W        W43053  29.318  14.823   0.402
78069W        W43054  13.161   7.968  11.647
78070W        W43055  43.537  42.679  11.635
78071W        W43056  11.592  37.651  13.054
78072W        W43057  14.270  35.097   0.453
78073W        W43058  20.942  12.562  11.794
78074W        W43059  42.261  38.053  11.285
78075W        W43060  39.849  29.999   2.349
78076W        W43061  38.945   2.818  13.027
78077W        W43062  38.820  43.288   0.365
78078W        W43063  29.651  43.605  12.545
78079W        W43064  40.371   2.402   5.114
78080W        W43065  20.772  13.228   2.855
78081W        W43066  37.308  43.456   4.587
78082W        W43067   6.035  44.842  13.887
78083W        W43068  17.700   3.906  12.902
78084W        W43069  43.408  10.680  12.137
78085W        W43070  42.079  43.975  10.691
78086W        W43071  10.322  36.133  11.248
78087W        W43072   0.917  10.770  14.971
78088W        W43073  20.963  40.919   1.454
78089W        W43074  35.189   5.033   0.357
78090W        W43075  14.222  14.735   3.376
78091W        W43076  26.225  15.537   3.387
78092W        W43077  25.985  13.198   4.246
78093W        W43078  12.956  37.884   2.764
78094W        W43079  39.908  10.207  12.026
78095W        W43080  13.209  32.537   0.001
78096W        W43081  43.999  18.026  12.515
78097W        W43082   2.446  12.718  13.062
78098W        W43083  21.263  43.700   2.330
78099W        W43084  27.957  36.752   2.868
78100W        W43085  39.571  13.644   0.710
78101W        W43086  40.493   9.664  11.226
78102W        W43087   5.187  35.941   3.626
78103W        W43088   7.321  20.668   2.196
78104W        W43089   3.823  11.100  12.473
78105W        W43090  40.614  34.099  10.287
78106W        W43091  10.151  34.005   0.439
78107W        W43092  33.963  34.156  12.304
78108W        W43093  13.892   9.439   3.129
78109W        W43094  20.140   3.259  13.823
78110W        W43095  34.669  16.222  14.990
78111W        W43096  35.521  19.500   2.281
78112W        W43097  36.796  15.178  13.372
78113W        W43098  17.463  20.460   2.148
78114W        W43099   6.700   0.267  14.590
78115W        W43100  37.837  23.520   3.229
78116W        W43101  16.213  23.110   4.741
78117W        W43102  32.912  35.526   3.618
78118W        W43103  27.752   4.652  12.473
78119W        W43104  13.123   4.693  14.552
78120W        W43105  12.068  44.804  12.078
78121W        W43106  18.354   1.744   4.110
78122W        W43107  11.318  40.528  11.006
78123W        W43108  29.229  13.639  14.418
78124W        W43109  37.096  23.979  11.896
78125W        W43110   3.392  23.302  13.142
78126W        W43111  34.318   3.817  12.632
78127W        W43112   7.290  13.196   4.320
78128W        W43113   5.784  21.262   2.953
78129W        W43114   9.711  14.576   2.219
78130W        W43115   1.336  44.724  13.896
78131W        W43116   3.817  25.140   2.142
78132W        W43117   0.335  33.130  14.099
78133W        W43118  35.792  10.907   4.110
78134W        W43119  39.018  28.772  10.631
78135W        W43120  31.592  12.700   2.607
78136W        W43121  22.464  20.986  14.399
78137W        W43122  44.252  20.799   2.651
78138W        W43123  28.916  27.461   3.740
78139W        W43124  35.189  21.154  13.360
78140W        W43125  19.190  25.798  13.429
78141W        W43126  11.235  35.417   1.361
78142W        W43127   7.066  17.153   3.978
78143W        W43128  39.416  33.622  11.380
78144W        W43129  44.915  36.858  12.751
78145W        W43130  29.146  18.553  12.531
78146W        W43131  39.651  31.802  13.066
78147W        W43132  18.636  25.603   1.709
78148W        W43133  15.141  11.920   1.896
78149W        W43134  22.709   3.824  12.520
78150W        W43135  34.025  23.008  12.843
78151W        W43136  41.974  40.476  12.795
78152W        W43137   0.980  43.620   0.401
78153W        W43138   4.570  18.339   2.393
78154W        W43139  26.194  34.482   2.170
78155W        W43140  28.958   5.909  10.305
78156W        W43141  25.713  11.820   4.463
78157W        W43142  44.158  12.656   1.798
78158W        W43143  30.912  42.505  14.906
78159W        W43144  25.574  33.424   0.403
78160W        W43145  15.839  20.401   2.152
78161W        W43146   2.999   4.956  10.395
78162W        W43147  38.592  23.468   2.875
78163W        W43148  38.020  38.344  13.354
78164W        W43149  17.152   9.345  13.394
78165W        W43150  33.182  21.224   9.932
78166W        W43151  19.930  43.042   0.771
78167W        W43152  31.350  27.064  14.309
78168W        W43153   1.792  20.266   1.680
78169W        W43154  11.660  13.849  14.468
78170W        W43155   0.155   1.051   0.652
78171W        W43156  42.391  22.458  12.404
78172W        W43157  30.154  25.740   3.594
78173W        W43158  14.692  21.803  14.766
78174W        W43159   6.368  39.541   4.331
78175W        W43160   7.661   2.797  13.819
78176W        W43161  41.617  39.867  12.619
78177W        W43162  20.307  28.216   2.750
78178W        W43163  16.868  18.864   1.872
78179W        W43164   5.619   5.342   0.173
78180W        W43165   5.239  31.046   0.718
78181W        W43166  38.790  29.724   5.060
78182W        W43167  26.488  35.995   3.615
78183W        W43168  14.164   9.224  10.281
78184W        W43169  38.035  30.988  13.919
78185W        W43170  35.334   4.399  11.275
78186W        W43171  17.693   0.061   3.810
78187W        W43172  20.253  40.862  13.016
78188W        W43173   9.555  11.234  13.592
78189W        W43174  42.108  35.661   2.767
78190W        W43175   2.449  32.275   1.765
78191W        W43176  28.658   6.691  11.601
78192W        W43177  29.392   4.799  14.668
78193W        W43178  31.418  31.070  12.858
78194W        W43179  43.852  37.830   2.100
78195W        W43180   9.210  20.564  14.915
78196W        W43181  32.053  43.246  13.243
78197W        W43182  25.550   7.228  14.376
78198W        W43183  27.940  40.213   0.362
78199W        W43184  32.885  26.658  10.916
78200W        W43185  20.491  20.335  14.430
78201W        W43186  11.273  21.101   3.722
78202W        W43187  10.153  39.790  10.976
78203W        W43188   3.656  20.235  12.477
78204W        W43189  31.961   2.794   2.831
78205W        W43190  37.295  36.289  13.946
78206W        W43191  39.128  24.590   0.445
78207W        W43192  29.705  14.041   4.088
78208W        W43193  28.595  27.105  11.947
78209W        W43194  44.403  34.638  10.323
78210W        W43195  43.744   2.941  12.632
78211W        W43196  34.644  41.297  12.854
78212W        W43197  37.983   1.329  14.807
78213W        W43198  31.026  21.030  11.159
78214W        W43199  28.203  35.469   1.404
78215W        W43200  42.359  20.076  12.367
78216W        W43201  30.788  29.445  12.989
78217W        W43202   9.926  10.915   4.519
78218W        W43203   9.150  29.059   0.704
78219W        W43204  33.420  39.032  12.621
78220W        W43205  16.309  41.018  14.962
78221W        W43206   8.430  20.644   1.856
78222W        W43207   4.635  23.012  14.885
78223W        W43208  32.710  12.778  11.187
78224W        W43209  37.747  24.041  11.070
78225W        W43210   5.792  35.335  14.904
78226W        W43211  21.541  14.284   3.362
78227W        W43212   2.597  28.077   4.117
78228W        W43213  42.898  42.360  12.668
78229W        W43214  22.148  36.486  11.465
78230W        W43215   6.752  43.272  11.402
78231W        W43216  28.784  20.114   0.894
78232W        W43217  43.564  17.766  14.015
78233W        W43218  17.604  38.088   4.671
78234W        W43219   0.033   8.557   2.049
78235W        W43220  32.115  40.474  12.945
78236W        W43221  26.751   2.846   1.832
78237W        W43222  18.330  12.851  10.867
78238W        W43223  19.626   4.375   3.165
78239W        W43224  10.745  44.809   1.894
78240W        W43225   4.964  37.447  12.021
78241W        W43226  20.448  30.988  14.253
78242W        W43227  14.694  32.046  13.102
78243W        W43228  43.928  36.197  11.729
78244W        W43229   1.255  32.608  13.959
78245W        W43230  10.277  30.610   2.312
78246W        W43231  20.724  43.294   1.116
78247W        W43232  21.615  20.499   1.745
78248W        W43233  26.543  22.457  12.056
78249W        W43234  30.952  25.932  12.555
78250W        W43235  19.376  18.387   5.037
78251W        W43236  28.190  11.642   5.062
78252W        W43237  25.674  21.689  14.971
78253W        W43238  37.355  15.102   1.820
78254W        W43239   7.105  27.607  11.687
78255W        W43240  32.875  23.089   4.669
78256W        W43241   4.491   5.728   1.523
78257W        W43242  30.040  14.341  13.330
78258W        W43243  29.679  29.915  12.574
78259W        W43244  21.547  21.229   0.487
78260W        W43245  11.560  42.787  14.880
78261W        W43246  25.979  27.037  13.977
78262W        W43247   2.922  19.322   4.638
78263W        W43248  17.421   9.823  11.551
78264W        W43249  41.912  44.775  12.405
78265W        W43250  11.623  36.266  10.867
78266W        W43251   1.729  32.720  12.374
78267W        W43252   8.151   2.373  14.767
78268W        W43253   5.191  34.850   1.441
78269W        W43254  35.158  35.643  12.933
78270W        W43255  43.786  35.029   1.318
78271W        W43256  14.777   1.984  12.593
78272W        W43257  21.737  12.295   1.077
78273W        W43258  34.455  35.590  11.007
78274W        W43259  14.704  22.598  12.989
78275W        W43260  18.031   9.402   2.918
78276W        W43261   4.709  25.614  13.094
78277W        W43262  36.652   5.396   5.030
78278W        W43263  22.541  15.214   4.225
78279W        W43264  37.925  16.805  10.416
78280W        W43265  16.716  36.540  11.194
78281W        W43266  34.590  24.956   4.183
78282W        W43267  40.508  29.122  12.103
78283W        W43268  18.083  39.519   2.600
78284W        W43269   2.018   8.323  14.954
78285W        W43270   3.955   3.869   4.669
78286W        W43271  36.098  26.611   4.461
78287W        W43272  19.685  32.403   2.681
78288W        W43273  42.234   2.193  12.048
78289W        W43274   3.100  12.523  13.848
78290W        W43275  10.788  39.415   0.403
78291W        W43276  23.606  29.609  13.064
78292W        W43277  13.307   1.776  13.902
78293W        W43278   2.715  19.998   1.738
78294W        W43279  38.887  37.203   0.308
78295W        W43280  23.245  34.818  13.947
78296W        W43281  12.969  11.391  12.553
78297W        W43282  43.914   1.234   2.800
78298W        W43283  40.459  25.667   0.822
78299W        W43284   7.184  14.305  13.441
78300W        W43285  24.945  13.107   1.015
78301W        W43286  38.667  13.021   4.293
78302W        W43287  10.376  19.715   0.477
78303W        W43288  19.077  17.329  11.420
78304W        W43289  16.792  35.106  11.116
78305W        W43290   8.936   9.285  11.054
78306W        W43291   2.260  30.697   2.160
78307W        W43292  20.750  23.017   4.488
78308W        W43293   2.999  25.399  10.683
78309W        W43294  37.083  36.436  10.437
78310W        W43295  40.766  11.168  12.411
78311W        W43296  36.931  42.487  11.659
78312W        W43297  29.768  19.651   2.202
78313W        W43298   9.255  35.845  14.761
78314W        W43299  27.169  21.741  10.665
78315W        W43300  29.448  20.968   4.477
78316W        W43301  19.180  30.818  12.018
78317W        W43302  35.411  14.170  12.334
78318W        W43303  43.375  14.751  14.287
78319W        W43304  16.771  43.832  10.809
78320W        W43305  43.706  10.243  11.962
78321W        W43306  40.390  15.719  11.260
78322W        W43307  28.913  38.040  13.312
78323W        W43308  25.385  43.960  13.054
78324W        W43309  38.390  29.180  13.618
78325W        W43310  26.734  18.838   5.002
78326W        W43311  30.588   4.078  12.829
78327W        W43312  26.248  22.087   3.904
78328W        W43313  22.699   2.645   1.261
78329W        W43314   3.361   9.862   4.960
78330W        W43315  35.269  22.034   0.932
78331W        W43316  22.683  31.429  14.438
78332W        W43317  24.606  22.424  12.172
78333W        W43318  37.487   3.168  14.867
78334W        W43319  44.090  18.690   4.003
78335W        W43320   7.724  11.065  10.625
78336W        W43321  41.326  39.497   4.177
78337W        W43322  11.157  39.388   0.000
78338W        W43323  42.026  14.604   1.674
78339W        W43324  33.199  17.337   0.139
78340W        W43325  27.082  35.574   1.348
78341W        W43326  28.332  32.237   4.516
78342W        W43327  18.948  44.229   2.282
78343W        W43328  11.845  43.130   2.157
78344W        W43329  44.816   1.936  11.983
78345W        W43330   3.722  37.916  11.523
78346W        W43331  29.928  34.369  12.938
78347W        W43332  25.343   0.781   3.341
78348W        W43333  42.486  40.537   4.242
78349W        W43334   7.089   9.439  13.943
78350W        W43335  29.347  33.184  11.645
78351W        W43336  40.874   5.558  11.090
78352W        W43337  11.337  24.906  12.384
78353W        W43338  42.470  30.226  11.992
78354W        W43339  43.595   5.958   4.175
78355W        W43340  21.211   6.519  11.925
78356W        W43341  42.415  41.368   0.924
78357W        W43342   2.758  38.369  12.479
78358W        W43343  27.199  14.349  12.560
78359W        W43344  10.218  11.058  11.859
78360W        W43345  29.689   4.276  14.734
78361W        W43346  25.586  25.068  10.694
78362W        W43347  36.163  16.279   1.530
78363W        W43348  13.735  16.756  13.310
78364W        W43349  16.383   4.468  12.107
78365W        W43350  20.286  31.952   4.059
78366W        W43351  23.438  16.072   4.117
78367W        W43352  21.590   9.241  12.469
78368W        W43353   7.525  39.743  12.616
78369W        W43354  21.318  29.004   4.117
78370W        W43355  10.154   1.730  11.705
78371W        W43356  35.146  40.090  12.539
78372W        W43357   2.456  23.836   1.756
78373W        W43358  12.686  40.225  12.383
78374W        W43359  42.019  28.583  11.458
78375W        W43360  35.062  13.084   4.746
78376W        W43361  15.928  27.630  11.137
78377W        W43362  37.906  32.546   0.690
78378W        W43363  14.217  31.904  13.307
78379W        W43364  38.931  31.205   3.129
78380W        W43365  36.447   5.290  13.130
78381W        W43366  11.714  28.920  10.774
78382W        W43367  19.202  39.023   3.144
78383W        W43368  14.571  21.702  12.063
78384W        W43369  36.864   7.707  13.796
78385W        W43370  15.252  25.406  10.785
78386W        W43371  34.498  30.679   0.399
78387W        W43372  27.047  20.982  12.056
78388W        W43373  34.426   6.199  12.341
78389W        W43374  12.290   1.810   1.169
78390W        W43375  16.866  26.460   0.665
78391W        W43376   3.973  12.493  12.469
78392W        W43377  15.558  32.016  14.459
78393W        W43378   1.827  36.543  13.164
78394W        W43379   4.790  41.363  13.568
78395W        W43380  31.387  17.296   0.795
78396W        W43381  44.782   7.248  11.500
78397W        W43382  11.143  20.661  14.825
78398W        W43383   9.371  25.473   4.290
78399W        W43384  19.250  19.713  12.171
78400W        W43385  37.365  39.542  13.466
78401W        W43386  37.031  33.382  11.574
78402W        W43387  14.859  28.102   0.414
78403W        W43388   3.321  10.660  12.037
78404W        W43389  32.506  16.978   1.265
78405W        W43390  14.681  10.015   2.779
78406W        W43391  43.786  33.266  12.162
78407W        W43392  12.860  38.312  11.567
78408W        W43393  21.296   1.783   0.452
78409W        W43394  40.067  16.285   0.769
78410W        W43395  20.088  26.636  13.723
78411W        W43396  14.808   3.598  14.867
78412W        W43397  19.590  22.180  13.729
78413W        W43398  34.163  10.763  12.903
78414W        W43399   9.732   1.647   4.136
78415W        W43400  39.460  21.537   1.458
78416W        W43401  44.525   6.766  12.582
78417W        W43402  31.507   4.397  11.872
78418W        W43403  29.637  29.221  13.018
78419W        W43404  13.337   0.351  11.220
78420W        W43405  19.578  44.752  11.426
78421W        W43406   0.286   7.357   3.746
78422W        W43407  15.186  34.841   0.364
78423W        W43408  26.020  11.154   0.605
78424W        W43409  39.728   8.629   3.745
78425W        W43410   0.983  32.287  10.778
78426W        W43411  38.472  39.426  12.053
78427W        W43412   4.234  31.042   3.031
78428W        W43413  44.348  40.870   1.125
78429W        W43414  21.587   9.577  13.908
78430W        W43415  25.920   1.891  12.467
78431W        W43416  35.154  36.825  12.040
78432W        W43417  12.451  22.042   0.244
78433W        W43418   8.403  18.097  13.425
78434W        W43419   5.862   2.879   2.243
78435W        W43420  44.618  31.338  12.056
78436W        W43421  38.946   0.514   3.808
78437W        W43422  19.060  42.054  12.476
78438W        W43423  37.259  11.170  13.030
78439W        W43424  16.845  26.682  14.534
78440W        W43425  11.117   2.436  13.984
78441W        W43426   7.188   3.679  12.961
78442W        W43427  21.556  37.822   3.028
78443W        W43428  20.081  20.471  12.520
78444W        W43429  25.124  33.023  11.051
78445W        W43430  16.161  40.332  10.730
78446W        W43431  44.553  23.752   3.724
78447W        W43432  10.380  12.350   4.211
78448W        W43433  32.159  31.603  14.348
78449W        W43434  26.495  42.338  13.940
78450W        W43435  33.547  32.982  13.273
78451W        W43436  27.550  10.176  14.390
78452W        W43437  22.499  14.325  10.274
78453W        W43438  30.977  11.350  12.047
78454W        W43439  15.789  43.404   1.019
78455W        W43440  24.596  22.674   1.522
78456W        W43441  12.155  15.638  11.986
78457W        W43442  29.397  29.654  12.943
78458W        W43443   2.386   6.451  10.705
78459W        W43444  12.614  19.094   3.102
78460W        W43445  27.992  35.179  11.574
78461W        W43446   3.909  29.662  11.603
78462W        W43447   0.901  10.388  14.011
78463W        W43448  12.713  40.342   0.796
78464W        W43449  14.394  14.665   3.874
78465W        W43450   5.493  24.737  10.731
78466W        W43451  27.934   3.131  14.031
78467W        W43452  32.434  28.534   3.488
78468W        W43453  14.321  44.817   4.472
78469W        W43454  28.745  34.860  14.836
78470W        W43455  13.749  21.233  14.142
78471W        W43456  12.217  15.034   1.625
78472W        W43457  42.889  16.083  13.203
78473W        W43458  26.605  30.551   2.890
78474W        W43459  17.757  34.120  13.395
78475W        W43460  36.113  44.741  13.909
78476W        W43461  11.910   2.053  13.535
78477W        W43462  15.697  16.590   2.712
78478W        W43463  18.216  23.729   0.724
78479W        W43464   6.359  36.538  14.884
78480W        W43465  37.686  23.903   3.526
78481W        W43466  34.283  12.595  11.020
78482W        W43467  10.474   0.895  14.316
78483W        W43468  10.595  44.190  12.184
78484W        W43469  20.246   1.800   0.400
78485W        W43470   0.837  24.757  11.694
78486W        W43471  18.603   1.086  13.334
78487W        W43472  37.738   5.241   3.679
78488W        W43473  25.127  17.197   2.520
78489W        W43474   5.031  32.813  11.105
78490W        W43475  40.673   3.227   1.821
78491W        W43476  25.216   4.612  12.972
78492W        W43477  28.478  34.823  11.568
78493W        W43478  33.580  33.422   3.206
78494W        W43479   6.622   4.372   3.445
78495W        W43480  39.508  29.484   1.803
78496W        W43481   4.341  25.391   5.106
78497W        W43482  25.658   9.807  12.213
78498W        W43483  13.693  30.941   1.938
78499W        W43484   8.734  34.564   4.648
78500W        W43485  38.932  31.412  11.037
78501W        W43486   1.942  12.331  12.426
78502W        W43487   4.702  44.425  14.184
78503W        W43488  16.923  27.694   1.227
78504W        W43489  37.498  19.660   4.052
78505W        W43490  44.992  19.039  11.529
78506W        W43491  18.758  25.273  10.240
78507W        W43492  24.058  21.644  14.831
78508W        W43493  25.440  25.587   4.393
78509W        W43494   0.491  38.269  14.690
78510W        W43495  39.249   3.379  10.734
78511W        W43496  34.121  41.471  12.104
78512W        W43497  18.076  39.602  12.718
78513W        W43498  35.875  17.087  11.514
78514W        W43499  42.165  25.696  12.540
78515W        W43500  16.282  28.721  13.046
78516W        W43501   0.694  13.855  11.514
78517W        W43502  26.422  13.128  13.998
78518W        W43503  36.287  17.996  14.819
78519W        W43504  16.256   3.217  12.553
78520W        W43505  34.423  23.628  14.953
78521W        W43506  39.976   2.362  11.563
78522W        W43507  41.354  20.900  14.731
78523W        W43508  44.493  16.554  13.241
78524W        W43509  36.472  35.763  13.783
78525W        W43510  36.602  41.125  14.789
78526W        W43511  43.470   9.596   2.278
78527W        W43512  15.004  23.474  10.796
78528W        W43513  18.167  32.331  11.954
78529W        W43514  43.354  28.710   0.769
78530W        W43515  21.620  17.398  14.419
78531W        W43516  38.128  41.400  12.886
78532W        W43517  36.923  18.454   3.392
78533W        W43518   0.565  10.365  11.652
78534W        W43519  20.496  10.342  13.294
78535W        W43520  36.504  20.962   1.758
78536W        W43521  27.217  21.729   4.077
78537W        W43522  39.773  21.229   1.999
78538W        W43523  19.501  21.074   5.038
78539W        W43524  30.162  33.292  11.905
78540W        W43525  41.377  41.911  10.593
78541W        W43526  35.012  26.210  14.309
78542W        W43527  19.829  33.563  14.062
78543W        W43528   6.506  18.084  10.318
78544W        W43529   2.652  38.812   4.694
78545W        W43530  17.936  30.844  12.583
78546W        W43531  40.002  35.637   1.198
78547W        W43532  10.669  36.489   0.751
78548W        W43533  14.379  16.057  12.654
78549W        W43534  39.856  34.619   1.252
78550W        W43535  13.834  43.105  14.331
78551W        W43536  22.217  28.519   4.171
78552W        W43537  22.635  23.796  12.099
78553W        W43538  23.006  35.490  11.930
78554W        W43539  21.155   7.760   2.413
78555W        W43540  20.231  28.052   0.557
78556W        W43541  17.753  40.561  14.780
78557W        W43542  25.904   6.918   0.885
78558W        W43543  13.066  27.426   9.793
78559W        W43544   8.837   6.435   1.409
78560W        W43545  42.957  18.722  13.106
78561W        W43546  23.469  38.628   3.548
78562W        W43547  20.131  10.056  14.906
78563W        W43548  13.793  20.152   1.039
78564W        W43549  39.081  14.793  14.484
78565W        W43550  17.109   5.433   0.981
78566W        W43551  15.555   9.846  12.075
78567W        W43552   2.816  31.109   4.331
78568W        W43553  27.533  34.546  10.523
78569W        W43554   3.515   2.674   1.742
78570W        W43555  30.554  13.297  14.761
78571W        W43556  29.667  41.101  14.328
78572W        W43557  25.758   7.207   1.345
78573W        W43558  11.124  41.881  14.099
78574W        W43559  15.595  19.494  13.880
78575W        W43560   5.891  10.064   2.806
78576W        W43561   2.412  13.398   2.798
78577W        W43562  37.806  29.102  14.760
78578W        W43563  35.524  13.200  11.170
78579W        W43564  27.131   9.628   3.274
78580W        W43565  36.861  35.902   2.030
78581W        W43566  13.224   7.557   2.439
78582W        W43567  35.686  37.402  11.498
78583W        W43568   8.710  10.426   3.578
78584W        W43569   6.120   3.480   4.492
78585W        W43570  32.887  21.564  14.947
78586W        W43571  27.998  26.089   2.635
78587W        W43572  44.466   4.313  12.505
78588W        W43573  42.795   0.303   2.143
78589W        W43574  41.002   9.241  12.488
78590W        W43575  11.411  43.891  13.806
78591W        W43576   7.463  35.784  11.949
78592W        W43577  15.541  20.296   1.504
78593W        W43578  23.631  17.290   3.218
78594W        W43579  41.459  13.849  10.710
78595W        W43580   2.030  24.321   3.597
78596W        W43581  32.544  20.880   1.027
78597W        W43582  29.528  35.514  12.393
78598W        W43583  31.040  40.371  12.069
78599W        W43584   9.553  22.377  11.478
78600W        W43585  33.503  43.175   3.672
78601W        W43586  33.865  26.649   1.726
78602W        W43587  21.910   4.817  10.697
78603W        W43588  35.460  13.324  13.474
78604W        W43589  11.710  19.831  11.619
78605W        W43590  14.882   3.674  14.360
78606W        W43591  41.785  27.756  10.378
78607W        W43592  22.473  23.175  13.312
78608W        W43593  40.449   5.157   3.633
78609W        W43594  23.133  36.877   1.302
78610W        W43595   6.331   7.637  13.311
78611W        W43596  27.668  37.992  14.797
78612W        W43597   1.349  20.170   1.975
78613W        W43598  19.218  10.713  10.674
78614W        W43599  40.244   6.810   1.883
78615W        W43600  23.940  21.059  14.254
78616W        W43601  26.489   5.689   0.464
78617W        W43602   5.886  40.129  14.938
78618W        W43603  33.143  16.078   1.250
78619W        W43604  27.206   3.658   0.271
78620W        W43605  24.159  12.820  12.568
78621W        W43606  42.455  12.940   2.609
78622W        W43607  26.596  38.838  11.129
78623W        W43608  16.823  15.147  13.066
78624W        W43609  30.692  33.698  12.846
78625W        W43610  27.105   4.731  10.509
78626W        W43611  34.734  18.558   2.304
78627W        W43612  40.115  28.011   1.834
78628W        W43613   8.184  36.838   2.235
78629W        W43614  21.928  12.324   3.334
78630W        W43615  13.292  39.253   4.151
78631W        W43616  40.330  19.148   1.656
78632W        W43617   9.779  32.590   1.838
78633W        W43618   5.428   6.937  14.890
78634W        W43619   5.925  37.113  10.551
78635W        W43620   6.443  22.507   1.297
78636W        W43621   1.012  13.170  14.125
78637W        W43622  38.105  16.035  10.986
78638W        W43623  20.054  20.191  11.079
78639W        W43624  11.535  35.789  13.453
78640W        W43625   9.055  16.165   0.208
78641W        W43626   5.102  23.134  14.653
78642W        W43627   2.790   6.918   3.379
78643W        W43628  29.595  21.752   1.241
78644W        W43629   7.694   5.412  11.881
78645W        W43630  25.677  17.687  12.932
78646W        W43631  38.390  42.360  10.689
78647W        W43632   4.524  30.673   5.043
78648W        W43633  18.336  24.677  12.964
78649W        W43634  36.327   8.242  14.508
78650W        W43635  23.006   8.662   4.100
78651W        W43636  26.501  34.173   4.358
78652W        W43637  32.986  38.050  10.703
78653W        W43638  17.802  33.373   4.220
78654W        W43639   0.510  32.678  12.605
78655W        W43640   9.088  41.974   0.799
78656W        W43641  41.229  35.285   1.961
78657W        W43642   7.969  40.139  13.998
78658W        W43643  10.158   5.508  14.276
78659W        W43644   1.454  30.919  11.685
78660W        W43645  26.452  13.389  12.019
78661W        W43646  25.742  19.052  12.521
78662W        W43647  35.115  36.626  13.332
78663W        W43648   7.792  33.486  13.018
78664W        W43649  15.126  41.826  14.879
78665W        W43650   0.238  24.367  13.379
78666W        W43651  14.555  32.083   3.075
78667W        W43652  41.229  37.105   4.734
78668W        W43653   2.229   5.198  12.868
78669W        W43654  28.974  33.934  13.883
78670W        W43655  44.793   0.276  12.372
78671W        W43656   0.259  10.386  10.767
78672W        W43657  22.275  15.226  10.529
78673W        W43658  39.445  26.557  12.775
78674W        W43659   6.317  40.582   4.170
78675W        W43660  43.491  36.774   3.600
78676W        W43661  23.989  36.620  14.173
78677W        W43662  29.410  22.720   0.306
78678W        W43663  37.397  33.960  12.516
78679W        W43664  19.271   1.257   0.508
78680W        W43665  42.369   3.892  13.071
78681W        W43666  27.261  28.667   1.196
78682W        W43667  34.335  20.398  13.011
78683W        W43668  13.441  38.538   1.295
78684W        W43669  40.254   7.789   3.414
78685W        W43670  16.053   3.780   5.168
78686W        W43671  25.893   0.353  13.901
78687W        W43672  25.315  11.203  12.395
78688W        W43673  34.092  14.956   4.320
78689W        W43674  12.371  27.548   0.991
78690W        W43675  25.749  14.309   4.787
78691W        W43676  25.099   4.721   4.259
78692W        W43677  23.432  13.112  13.061
78693W        W43678  14.502  32.961   1.844
78694W        W43679  39.579  10.352  11.579
78695W        W43680  23.082  20.055   4.170
78696W        W43681  27.152  16.243   0.900
78697W        W43682  32.196   0.955  12.988
78698W        W43683  44.988  43.734  12.518
78699W        W43684  36.106  36.355  10.866
78700W        W43685  10.207  20.206  13.766
78701W        W43686  16.216  27.314  14.561
78702W        W43687  28.510  13.530  12.040
78703W        W43688  43.426  44.258   3.180
78704W        W43689  14.125  23.457  12.991
78705W        W43690  42.578  26.593  10.767
78706W        W43691   8.207   5.617  13.427
78707W        W43692  36.965  14.082   0.642
78708W        W43693  10.173   0.470   2.908
78709W        W43694   5.116   5.298   1.980
78710W        W43695  13.561  40.843  11.393
78711W        W43696  36.431  44.392  14.427
78712W        W43697  42.769  13.362  13.726
78713W        W43698  38.312   7.343  14.756
78714W        W43699  36.864   7.352  13.358
78715W        W43700  34.216  44.297  14.862
78716W        W43701   1.205  43.266   2.737
78717W        W43702  10.404  12.785  12.307
78718W        W43703  14.148   1.819   4.486
78719W        W43704  42.969  13.745  11.084
78720W        W43705   9.815  32.858  14.556
78721W        W43706  22.439  15.854  10.492
78722W        W43707  20.215  40.372   4.113
78723W        W43708  41.229  28.159   4.345
78724W        W43709  39.396  17.825  13.091
78725W        W43710  27.105  42.990   1.044
78726W        W43711  21.975  28.328  13.818
78727W        W43712  36.132  42.936   4.226
78728W        W43713  40.422  38.957   0.592
78729W        W43714  23.172  22.520  10.132
78730W        W43715   4.882   3.194  11.555
78731W        W43716  14.582  37.372  13.201
78732W        W43717  40.711  42.335  10.672
78733W        W43718  38.107  10.197   9.802
78734W        W43719  40.855  43.308  10.648
78735W        W43720   2.992  25.733   4.563
78736W        W43721  26.580  23.513   1.027
78737W        W43722  36.923  27.750  11.581
78738W        W43723  29.012  36.199  14.483
78739W        W43724  43.446  39.837  11.583
78740W        W43725   2.291  19.342  10.919
78741W        W43726  32.193  31.122  14.921
78742W        W43727  41.087  22.304  13.905
78743W        W43728   9.074  12.389  11.535
78744W        W43729  14.175  32.136  14.375
78745W        W43730  31.817  18.193   3.507
78746W        W43731  22.110  31.571   3.613
78747W        W43732  41.066   9.172   2.792
78748W        W43733  29.672   3.948   1.365
78749W        W43734  34.255  19.075  12.912
78750W        W43735  26.014  43.447   3.391
78751W        W43736  26.652  39.307   1.840
78752W        W43737  13.351  22.161   2.731
78753W        W43738  35.371  32.996   3.700
78754W        W43739  31.573  44.713   2.275
78755W        W43740  19.980   4.418   0.406
78756W        W43741   8.353  17.129  11.621
78757W        W43742  14.945  23.107  14.874
78758W        W43743  20.030  28.196  12.207
78759W        W43744   2.183  21.196   0.392
78760W        W43745   0.348  18.674   3.693
78761W        W43746  44.841  38.362   0.952
78762W        W43747  38.588  24.520  11.994
78763W        W43748   3.271   6.655   1.072
78764W        W43749  41.603  15.074  12.068
78765W        W43750  18.997  25.520   3.687
78766W        W43751  18.397  43.468  10.740
78767W        W43752  27.643  14.348  11.312
78768W        W43753  35.045  35.489   0.767
78769W        W43754  13.688  28.022   5.271
78770W        W43755  17.044  40.458  12.847
78771W        W43756  26.943  37.145  13.458
78772W        W43757  28.159  34.967  12.975
78773W        W43758  22.158  27.225  11.127
78774W        W43759  36.769   9.009  10.279
78775W        W43760  28.166  32.585  12.673
78776W        W43761  10.896  10.212  12.997
78777W        W43762  39.362   1.520  13.341
78778W        W43763  41.069  34.403   5.487
78779W        W43764  14.045  29.559   3.768
78780W        W43765  24.772   3.865   2.816
78781W        W43766  35.986  16.970  14.441
78782W        W43767   5.756  31.182   1.842
78783W        W43768   7.215  34.064   3.145
78784W        W43769  25.068  38.106  13.393
78785W        W43770   1.738  14.244  14.284
78786W        W43771  28.188  30.279   2.859
78787W        W43772   2.072  31.389   0.381
78788W        W43773  15.207  12.838  12.493
78789W        W43774  35.544  30.319  13.996
78790W        W43775  32.467  38.300  14.487
78791W        W43776  12.517  33.304   1.266
78792W        W43777  40.083   2.452   3.713
78793W        W43778  17.612  14.620  14.456
78794W        W43779  20.996  28.609   4.319
78795W        W43780   9.931  21.445   4.088
78796W        W43781  34.172  32.493  10.600
78797W        W43782  17.066  34.601  11.925
78798W        W43783  33.366  36.621   3.765
78799W        W43784  37.737   3.768   4.264
78800W        W43785   1.970  21.528   0.718
78801W        W43786  27.675  27.735  14.320
78802W        W43787   2.030  26.998   3.257
78803W        W43788  22.540  26.711  13.663
78804W        W43789   0.954  40.347   3.098
78805W        W43790  25.416  41.335   0.422
78806W        W43791  41.927  30.654   4.962
78807W        W43792   3.659  37.271   2.837
78808W        W43793  18.762   4.579   3.103
78809W        W43794  37.389   3.030  11.678
78810W        W43795   7.642  12.763   0.274
78811W        W43796  30.352  18.798  13.162
78812W        W43797  18.165   2.374   1.684
78813W        W43798  22.619  29.143  10.707
78814W        W43799  33.900  42.520   4.299
78815W        W43800  13.519  35.760   5.184
78816W        W43801  44.393  40.554  13.914
78817W        W43802  42.063  23.925   0.239
78818W        W43803  19.810  18.991  14.915
78819W        W43804  18.372   8.961  10.248
78820W        W43805  28.573   2.583   4.926
78821W        W43806  31.599   3.785  13.373
78822W        W43807  44.911   3.445  11.512
78823W        W43808  11.076  31.445  13.373
78824W        W43809  23.648   9.864  12.131
78825W        W43810  14.115  31.459   0.411
78826W        W43811  22.636   5.900   3.771
78827W        W43812   4.461  24.468   1.268
78828W        W43813  43.274   1.043   4.752
78829W        W43814  27.817   5.776  11.179
78830W        W43815  18.680   6.987  14.680
78831W        W43816  25.045  36.403   2.555
78832W        W43817  10.211  17.959   2.919
78833W        W43818   4.699  37.353  12.456
78834W        W43819  40.654  22.898  12.916
78835W        W43820   3.280  31.350  11.571
78836W        W43821  39.980  40.614  10.758
78837W        W43822  18.860   6.453   0.350
78838W        W43823  27.509  36.567  14.555
78839W        W43824  38.336  12.682   4.092
78840W        W43825  23.020  29.131  14.104
78841W        W43826   3.887  17.648   4.933
78842W        W43827  36.831   2.322  13.860
78843W        W43828  18.852  40.534   3.840
78844W        W43829  34.104  12.238  13.477
78845W        W43830  10.364  38.522   2.755
78846W        W43831  16.741  19.225   4.155
78847W        W43832  21.138  15.716  12.628
78848W        W43833  27.449   7.743  14.315
78849W        W43834  23.237  35.490   0.250
78850W        W43835  34.591  25.802   3.586
78851W        W43836  37.879  24.646   3.818
78852W        W43837  23.095  40.806   1.625
78853W        W43838  19.708  27.791   4.697
78854W        W43839  24.203  21.129  14.694
78855W        W43840  37.041  10.941   3.626
78856W        W43841  23.974  16.897  13.317
78857W        W43842   5.086  18.231   1.079
78858W        W43843  38.307   5.842   1.747
78859W        W43844  28.128   6.578  11.674
78860W        W43845  38.751  42.238  13.823
78861W        W43846   5.297  26.030   0.278
78862W        W43847  19.527   6.982  10.769
78863W        W43848  18.371  35.091   0.411
78864W        W43849  25.920  24.024   2.710
78865W        W43850  16.722  19.605  11.844
78866W        W43851   1.372  43.520  11.966
78867W        W43852  23.906  35.492  10.585
78868W        W43853  29.254   9.705   4.158
78869W        W43854   3.427   8.155  14.848
78870W        W43855   0.258  37.366  11.445
78871W        W43856  35.264   8.661   2.304
78872W        W43857  37.959  20.171  12.032
78873W        W43858  27.643  30.067  10.473
78874W        W43859  29.743   9.837   4.250
78875W        W43860  30.339  30.301   3.213
78876W        W43861   6.109   4.356   0.937
78877W        W43862  18.515  20.908  11.573
78878W        W43863  18.009  21.754   2.663
78879W        W43864  22.818   5.857   3.314
78880W        W43865   1.972  23.108   4.615
78881W        W43866  43.367  26.557   1.206
78882W        W43867   9.955   8.594  11.526
78883W        W43868  41.365   5.358  12.124
78884W        W43869   9.824  10.705  11.883
78885W        W43870  27.956  25.124   2.786
78886W        W43871  30.357  24.991  13.107
78887W        W43872  20.522  33.879  12.392
78888W        W43873  12.994  44.000   0.731
78889W        W43874  39.868  26.837   0.732
78890W        W43875  22.095   0.549   1.529
78891W        W43876  22.154  29.612   0.386
78892W        W43877  26.639  13.164  13.459
78893W        W43878  22.457  13.103   3.694
78894W        W43879  44.958  30.595   1.417
78895W        W43880  43.013   3.790  12.660
78896W        W43881  31.903  31.640   0.851
78897W        W43882  21.633   8.131   1.299
78898W        W43883  24.733  38.988  10.661
78899W        W43884  16.259  42.920   3.723
78900W        W43885  34.079   1.202  12.395
78901W        W43886   1.328  36.887   2.276
78902W        W43887  39.557  11.403  14.852
78903W        W43888  14.629  21.064  14.386
78904W        W43889  29.218  19.146  13.865
78905W        W43890  20.975  44.496   4.177
78906W        W43891  11.783   7.110  14.251
78907W        W43892   2.058  12.794  12.662
78908W        W43893   1.115   6.192   2.821
78909W        W43894  35.802   2.895  14.445
78910W        W43895  15.355  33.723  13.947
78911W        W43896  22.142  22.924  10.651
78912W        W43897  37.958  38.571   0.461
78913W        W43898  17.163  20.322  11.507
78914W        W43899  30.007  22.765  11.586
78915W        W43900  36.096  14.690  13.605
78916W        W43901  17.682  20.173   3.633
78917W        W43902  43.477  22.079   4.097
78918W        W43903  19.590  32.436   1.178
78919W        W43904   3.017   2.883   1.363
78920W        W43905  29.939  44.824  11.614
78921W        W43906  38.498  39.574  11.244
78922W        W43907  31.553  10.274  12.603
78923W        W43908  20.482  23.650   2.293
78924W        W43909  30.997  13.536   3.653
78925W        W43910  34.315  16.261  11.138
78926W        W43911  11.692  33.852   2.670
78927W        W43912  19.830  21.529   2.901
78928W        W43913  11.134   2.810  14.513
78929W        W43914  19.114  24.663  12.246
78930W        W43915   5.424  15.571  14.503
78931W        W43916  41.384   3.409   2.480
78932W        W43917  42.475   3.770  10.989
78933W        W43918  36.903  20.165   2.678
78934W        W43919   2.528   9.690  10.497
78935W        W43920  35.926  40.996  13.455
78936W        W43921   8.327  13.475   4.549
78937W        W43922  38.923  32.921   2.771
78938W        W43923  25.981  35.920   0.958
78939W        W43924  40.835  13.035  12.446
78940W        W43925  10.119   2.974   5.029
78941W        W43926  32.346   3.974   2.155
78942W        W43927  19.824  11.149  14.699
78943W        W43928   2.510   2.784   1.191
78944W        W43929  43.319  40.855  14.490
78945W        W43930   1.954  12.172  14.909
78946W        W43931  44.947   9.368   1.416
78947W        W43932  14.150  38.191   1.932
78948W        W43933  34.994  31.563   0.341
78949W        W43934  19.564   7.792  12.970
78950W        W43935   1.983  14.449  13.455
78951W        W43936  23.313  38.037   3.681
78952W        W43937  15.110  23.247  14.419
78953W        W43938  21.330  27.731  10.264
78954W        W43939   3.419   5.924   2.486
78955W        W43940  17.876  18.144   4.133
78956W        W43941  24.619  23.092   2.684
78957W        W43942  27.166  13.653   0.581
78958W        W43943  44.912  27.581  12.296
78959W        W43944   7.042  13.130  14.198
78960W        W43945   8.778  14.132   4.647
78961W        W43946  17.770  17.013   1.763
78962W        W43947  31.554  17.143   3.856
78963W        W43948  28.434   9.177  11.745
78964W        W43949  38.003  12.818   0.863
78965W        W43950  35.612  16.804   0.698
78966W        W43951   0.855  27.413  12.121
78967W        W43952  29.700   9.576   0.953
78968W        W43953   1.525  30.675  14.515
78969W        W43954  30.638  10.030   4.584
78970W        W43955  27.724   8.006  13.971
78971W        W43956  12.218  38.152   0.350
78972W        W43957  44.727  28.818  10.544
78973W        W43958   7.383  12.837  13.898
78974W        W43959  16.856  19.670   0.921
78975W        W43960  15.616  33.576   3.685
78976W        W43961   0.422  23.759  10.535
78977W        W43962  20.518  42.794  14.924
78978W        W43963   1.799  38.147  14.286
78979W        W43964  39.456  13.684   5.134
78980W        W43965  33.463  40.442   2.638
78981W        W43966   6.359  16.586  10.836
78982W        W43967  14.917  30.205  13.470
78983W        W43968  30.992  24.049  10.811
78984W        W43969   9.777  44.866   2.388
78985W        W43970  20.754   9.452   0.293
78986W        W43971  13.796  34.490   0.725
78987W        W43972   7.758  12.446  11.148
78988W        W43973  19.766  30.189  12.510
78989W        W43974   2.536  31.439   2.899
78990W        W43975  33.432  39.066  11.245
78991W        W43976  40.841  12.742  13.585
78992W        W43977  41.178  44.406   0.987
78993W        W43978  10.185  21.805   2.384
78994W        W43979   3.006   0.888   3.879
78995W        W43980   7.391  18.224  11.157
78996W        W43981  14.626  16.059  10.409
78997W        W43982  15.740   3.357   5.101
78998W        W43983  40.943  40.092  13.431
78999W        W43984  44.111  39.506   2.731
79000W        W43985  40.779  28.006  13.620
79001W        W43986  36.555  31.525  10.672
79002W        W43987   9.696  21.795   3.190
79003W        W43988  16.848  13.159  13.916
79004W        W43989  13.290  42.970   1.902
79005W        W43990  37.782  42.338   4.203
79006W        W43991  23.238  20.752   4.725
79007W        W43992   8.172  26.372   0.893
79008W        W43993  29.066  30.159   2.729
79009W        W43994  44.938  19.515   5.705
79010W        W43995  39.756  35.941   2.685
79011W        W43996  28.029  12.019  10.586
79012W        W43997  33.540  20.324   3.568
79013W        W43998  39.648  37.764  11.798
79014W        W43999  43.085  14.251   2.698
79015W        W44000  11.934  43.739  14.831
79016W        W44001  19.668  16.111   4.067
79017W        W44002  42.653  16.157  11.649
79018W        W44003  44.918  18.153  10.994
79019W        W44004   2.911  21.930   2.826
79020W        W44005  40.573  23.635   0.202
79021W        W44006   8.961  37.546   0.343
79022W        W44007  24.801   3.318  11.233
79023W        W44008  16.016  32.965   4.682
79024W        W44009  13.131  32.208   0.957
79025W        W44010  36.311  17.797   3.400
79026W        W44011  35.528   7.190   4.899
79027W        W44012  11.129  38.532   4.552
79028W        W44013  16.643   4.958   2.227
79029W        W44014  37.314  10.328  11.436
79030W        W44015  37.491   0.526   4.098
79031W        W44016  31.634  25.054  13.084
79032W        W44017  19.290  40.931   3.441
79033W        W44018  41.744  28.028   0.915
79034W        W44019  36.909  18.839  12.440
79035W        W44020  28.030  38.366   4.101
79036W        W44021  12.395   9.816   4.258
79037W        W44022  31.743  36.477   4.384
79038W        W44023  17.262  22.771   3.200
79039W        W44024  33.613  35.926   2.468
79040W        W44025  17.247   2.533  11.975
79041W        W44026  34.135  19.075  11.704
79042W        W44027  31.140  28.556  11.621
79043W        W44028  39.361   9.386  13.070
79044W        W44029   8.804  42.980  11.743
79045W        W44030  33.091  34.107   0.080
79046W        W44031   7.534  44.307   2.010
79047W        W44032  31.530  22.045  14.730
79048W        W44033   5.654  25.477   2.166
79049W        W44034  11.015   3.667   2.486
79050W        W44035  20.251   1.011   1.696
79051W        W44036  21.671  24.492   0.404
79052W        W44037  38.947  17.482  14.363
79053W        W44038  16.583  34.636   4.528
79054W        W44039  26.728  22.940   3.472
79055W        W44040  28.687  13.511  11.119
79056W        W44041  19.998  42.502   1.686
79057W        W44042   1.807  34.568  13.449
79058W        W44043   3.700  32.346   0.704
79059W        W44044  15.731   5.498  12.671
79060W        W44045   5.097  16.232   1.797
79061W        W44046  37.342  11.140   0.049
79062W        W44047  41.332   1.302   2.241
79063W        W44048  18.103  19.044   1.405
79064W        W44049  35.016  30.678  14.724
79065W        W44050  10.652  19.086  13.008
79066W        W44051  35.834   5.664   1.858
79067W        W44052  15.641   3.345  10.928
79068W        W44053  27.996  14.578  11.600
79069W        W44054  33.969   1.711   0.004
79070W        W44055  14.132   1.887   1.084
79071W        W44056   5.172  29.474   2.169
79072W        W44057  35.380  40.403   3.106
79073W        W44058  35.610   0.781  11.268
79074W        W44059  34.509  12.080   0.430
79075W        W44060  23.652  14.841   0.630
79076W        W44061   5.684  39.315  13.998
79077W        W44062  11.651  29.207   3.329
79078W        W44063   1.497  26.051  14.927
79079W        W44064  13.220  42.040   4.448
79080W        W44065  23.964  33.164  14.299
79081W        W44066  17.018  36.542   3.227
79082W        W44067  30.707  30.719   2.359
79083W        W44068   3.719  34.047  10.648
79084W        W44069  17.088   8.280  11.962
79085W        W44070  42.766   3.440  14.400
79086W        W44071  35.884  14.131  11.655
79087W        W44072  43.214   1.421   3.101
79088W        W44073  28.412   1.372   2.742
79089W        W44074   3.673  10.507  14.801
79090W        W44075   0.457  18.481   4.204
79091W        W44076  42.989  12.961   1.314
79092W        W44077   7.179  41.508   4.631
79093W        W44078  22.300   0.277  13.886
79094W        W44079  32.481  44.527   4.487
79095W        W44080  34.395  37.908   2.691
79096W        W44081   7.264  37.732  13.131
79097W        W44082  32.425   0.834  13.943
79098W        W44083  10.561  24.404   4.857
79099W        W44084  14.699   5.858   1.799
79100W        W44085  12.138  22.105  12.433
79101W        W44086  37.659  37.975  14.803
79102W        W44087  19.351  31.424  11.094
79103W        W44088  25.474   5.568   4.232
79104W        W44089   9.858  35.042   3.709
79105W        W44090  44.875  39.791   1.290
79106W        W44091  15.530  24.566   4.511
79107W        W44092   2.027   1.915   0.989
79108W        W44093  21.360  41.761  13.772
79109W        W44094   6.905  34.108   4.714
79110W        W44095  24.866  13.301  10.432
79111W        W44096   2.660  24.508   1.313
79112W        W44097  13.824   8.267  13.851
79113W        W44098  40.276  29.211   2.632
79114W        W44099  30.138   2.486   0.892
79115W        W44100   0.928  15.378   2.254
79116W        W44101  33.503  19.605   2.079
79117W        W44102   1.937  35.531  12.617
79118W        W44103  36.698  10.084  13.801
79119W        W44104   9.259  33.817  14.056
79120W        W44105  28.413  32.460   0.297
79121W        W44106  20.157  14.182  14.856
79122W        W44107   2.779  20.010  13.592
79123W        W44108  18.295  26.971  13.482
79124W        W44109  15.128  25.690   1.225
79125W        W44110  16.378  36.800  11.742
79126W        W44111  33.098  44.295   4.314
79127W        W44112  30.436  19.636   3.594
79128W        W44113  29.936   1.367   5.082
79129W        W44114  16.571  16.212   3.855
79130W        W44115  11.228  11.768   0.094
79131W        W44116  31.416  25.874  13.593
79132W        W44117   5.825  14.630  14.665
79133W        W44118  30.268  10.897   1.241
79134W        W44119   5.623  41.465  11.422
79135W        W44120   7.263  36.189  11.183
79136W        W44121  14.538  13.697   4.173
79137W        W44122   1.701   9.855   0.979
79138W        W44123  14.792  44.320  13.089
79139W        W44124   2.884   8.894   1.872
79140W        W44125   5.132  18.938   3.998
79141W        W44126  29.444   4.689  11.882
79142W        W44127  32.332  12.439   4.283
79143W        W44128  20.229   4.091  10.187
79144W        W44129  19.812  40.498  11.209
79145W        W44130  15.379  26.121  13.824
79146W        W44131  44.400  40.512   0.775
79147W        W44132  24.210   7.468  14.291
79148W        W44133  34.693  14.610  14.343
79149W        W44134  15.703  11.765   5.063
79150W        W44135  40.713  24.254   3.176
79151W        W44136   9.516   5.244   1.302
79152W        W44137   6.422  21.562  10.792
79153W        W44138   5.182   3.242   1.135
79154W        W44139   3.802   8.648   0.290
79155W        W44140   0.741  19.815  10.029
79156W        W44141  35.035  42.064  12.151
79157W        W44142   3.520  27.972  10.285
79158W        W44143  31.469  39.540  14.229
79159W        W44144  13.996  15.883  11.020
79160W        W44145   2.462   8.067   0.785
79161W        W44146  20.172  38.886  12.934
79162W        W44147  42.509  20.820   0.916
79163W        W44148  44.999  15.539  14.034
79164W        W44149   3.662  16.849  11.542
79165W        W44150  44.293  25.351   4.171
79166W        W44151  24.048  24.678   4.956
79167W        W44152   5.984  28.041   0.924
79168W        W44153   3.760  31.895   3.689
79169W        W44154   7.716  36.594  12.562
79170W        W44155  14.045   4.130   0.868
79171W        W44156  34.981   9.845  12.590
79172W        W44157  33.034   6.699   1.863
79173W        W44158  35.491  11.137   1.212
79174W        W44159  34.806  38.321  10.741
79175W        W44160   4.754   9.479   0.804
79176W        W44161  18.054  23.919  11.189
79177W        W44162   8.424  15.167  14.514
79178W        W44163  34.057  12.237  11.332
79179W        W44164  43.555  13.907  13.475
79180W        W44165  24.276  34.634  13.388
79181W        W44166  44.899   5.694   2.350
79182W        W44167   6.914  40.740   1.228
79183W        W44168  40.343  20.036   1.672
79184W        W44169  42.944  27.715  14.917
79185W        W44170  38.853  21.800   2.549
79186W        W44171  42.196  40.063  11.206
79187W        W44172  31.979  34.834  14.304
79188W        W44173  42.389  29.721   3.421
79189W        W44174  34.236  24.303  12.498
79190W        W44175   4.458  15.803  11.449
79191W        W44176  34.622   5.061  13.438
79192W        W44177  40.999  43.289  13.706
79193W        W44178  19.565  38.439  12.130
79194W        W44179   6.769  32.413  10.695
79195W        W44180  37.228  17.122  12.060
79196W        W44181   6.411  29.067  11.217
79197W        W44182  22.716   1.363   2.213
79198W        W44183   2.818   6.960   4.848
79199W        W44184   4.410  22.127   3.858
79200W        W44185  40.194   8.290   0.881
79201W        W44186  22.345  43.660   2.871
79202W        W44187   1.578  17.730  13.174
79203W        W44188  42.379  36.068   0.934
79204W        W44189   5.663  14.734   0.839
79205W        W44190   7.269  32.933  11.978
79206W        W44191  34.562  21.768   3.781
79207W        W44192  13.675  31.835  10.727
79208W        W44193  26.055  21.108  13.275
79209W        W44194  10.279  33.055  14.425
79210W        W44195   1.997  16.881   0.448
79211W        W44196   0.412  17.697  14.453
79212W        W44197  13.755   2.358  12.558
79213W        W44198  26.457   9.913  13.079
79214W        W44199  16.180  14.064  12.482
79215W        W44200  22.212   0.225   4.248
79216W        W44201  21.313   3.145   2.421
79217W        W44202  42.902  18.822   4.138
79218W        W44203  40.926   9.437   2.372
79219W        W44204  25.270   6.735  12.428
79220W        W44205  25.962  33.352  14.403
79221W        W44206   5.976  13.029   0.043
79222W        W44207  38.526  42.308   1.492
79223W        W44208  12.722  19.068  10.916
79224W        W44209  12.606  23.651  13.102
79225W        W44210  10.408   7.613  13.419
79226W        W44211  40.984  28.409   0.769
79227W        W44212  16.506   3.651   9.437
79228W        W44213   3.503  22.334  11.568
79229W        W44214  29.021  26.761  10.330
79230W        W44215   6.025  32.440  12.475
79231W        W44216  35.412   0.992  12.926
79232W        W44217   9.341  20.531  13.030
79233W        W44218  21.117  15.268  11.892
79234W        W44219  38.922  20.339   9.804
79235W        W44220  20.060  10.284   4.104
79236W        W44221  23.062  29.557   0.408
79237W        W44222  43.507  24.808  14.141
79238W        W44223  20.675  30.365   3.382
79239W        W44224  44.226   9.487  12.774
79240W        W44225  11.848  15.217   3.772
79241W        W44226  41.733  36.501   1.901
79242W        W44227  33.395  35.935  13.426
79243W        W44228  10.974  26.982   1.375
79244W        W44229  23.914   2.433  14.773
79245W        W44230  17.598  16.403  13.252
79246W        W44231   3.171   6.833   1.536
79247W        W44232  23.991   2.551  12.091
79248W        W44233   5.164   0.426  10.335
79249W        W44234   2.135  24.992  11.040
79250W        W44235  40.540  24.466   2.161
79251W        W44236  35.437  37.102  10.688
79252W        W44237  41.256  17.213  12.384
79253W        W44238   1.246  44.045  13.344
79254W        W44239  33.552  21.365   3.741
79255W        W44240  34.816   7.390   1.401
79256W        W44241  17.110  44.332   2.276
79257W        W44242  39.539  44.656  13.921
79258W        W44243   8.644  24.200  14.931
79259W        W44244  42.413  13.429  10.658
79260W        W44245   3.995  10.710  13.235
79261W        W44246   7.724  26.699   0.922
79262W        W44247  37.376   4.804   3.741
79263W        W44248   4.398  34.883   1.988
79264W        W44249  24.556  24.996  13.045
79265W        W44250  34.523  30.598   4.536
79266W        W44251   5.017  14.320  11.415
79267W        W44252   1.042  40.389   4.028
79268W        W44253  13.402  43.851   3.169
79269W        W44254  18.035  20.380  11.562
79270W        W44255  16.702  33.237   2.401
79271W        W44256  33.772  26.926  12.309
79272W        W44257  25.529  12.165   4.814
79273W        W44258  34.465  24.040  12.887
79274W        W44259  36.897  24.753  10.841
79275W        W44260  26.490  23.586   1.638
79276W        W44261   3.031  17.388  11.005
79277W        W44262   8.867  35.495  11.921
79278W        W44263   0.886  15.120  10.596
79279W        W44264  17.566  44.801  12.116
79280W        W44265  40.764  10.767   2.786
79281W        W44266  22.798  19.732   0.494
79282W        W44267  28.173  13.492   4.453
79283W        W44268   7.462   0.803   2.240
79284W        W44269   7.725  34.417   4.943
79285W        W44270  36.492   5.831  12.569
79286W        W44271  31.619  28.959  11.099
79287W        W44272   7.402  29.159  13.548
79288W        W44273  43.588  25.179   1.300
79289W        W44274  21.256   5.450  13.473
79290W        W44275   0.308  11.840  13.926
79291W        W44276  17.917  26.594  10.004
79292W        W44277  32.466  37.581   0.885
79293W        W44278  32.602   1.367   0.938
79294W        W44279  12.747  33.510   1.666
79295W        W44280   9.806  40.705   0.715
79296W        W44281  16.793  26.627  12.006
79297W        W44282  21.176   4.166  14.143
79298W        W44283   0.066   5.427  11.573
79299W        W44284  16.471  36.934  14.403
79300W        W44285  23.244  41.263   2.873
79301W        W44286   0.464   3.987  10.814
79302W        W44287  11.080  28.916   1.369
79303W        W44288   9.483  22.864   4.093
79304W        W44289  10.940  22.133   0.459
79305W        W44290   3.995  35.455   3.796
79306W        W44291  34.847  16.407   4.101
79307W        W44292  43.485  26.532  11.561
79308W        W44293  43.776  32.066  12.820
79309W        W44294   6.725  30.706  11.201
79310W        W44295  15.977  18.525  12.019
79311W        W44296  29.004  32.460  11.723
79312W        W44297   5.728  44.965  10.352
79313W        W44298  41.916  32.224  11.549
79314W        W44299  14.697  44.697  10.672
79315W        W44300  38.921  18.861   4.995
79316W        W44301   8.353  16.836   0.652
79317W        W44302  31.000  43.366  14.972
79318W        W44303  11.111  28.724  13.333
79319W        W44304  11.364   5.833  14.820
79320W        W44305  10.793  12.588   4.033
79321W        W44306  43.257   0.084   0.823
79322W        W44307   2.865  42.732  13.447
79323W        W44308  15.129  42.576  10.725
79324W        W44309  12.402  27.588  13.914
79325W        W44310  41.041  19.225   0.672
79326W        W44311  27.746  23.941  12.888
79327W        W44312  12.946   4.850  11.465
79328W        W44313  38.493  20.049   4.278
79329W        W44314  29.915   1.824  11.522
79330W        W44315  27.574  28.540   3.901
79331W        W44316  23.101  27.630  12.508
79332W        W44317  10.905   1.832  14.110
79333W        W44318  39.462  42.101  12.105
79334W        W44319  10.279  39.054   2.740
79335W        W44320  27.760  41.437   4.350
79336W        W44321  14.559  36.054  10.806
79337W        W44322  23.417  36.966  12.536
79338W        W44323  16.129   1.731   0.267
79339W        W44324   0.771  23.820  11.136
79340W        W44325  19.165   4.472   4.649
79341W        W44326  38.909   4.575  10.696
79342W        W44327  34.082   0.023   2.229
79343W        W44328  32.481   7.826   4.988
79344W        W44329  35.025   5.642  13.970
79345W        W44330  26.965  14.695  11.863
79346W        W44331  12.820  36.081  13.773
79347W        W44332  13.575  12.805  12.938
79348W        W44333  26.387   1.145  12.012
79349W        W44334  14.564  11.237   1.818
79350W        W44335  37.308  27.238  14.287
79351W        W44336  21.557  13.782   4.285
79352W        W44337  19.190  20.848   0.873
79353W        W44338  11.840  41.506  14.740
79354W        W44339  16.631  29.044  11.989
79355W        W44340  39.496  17.157  12.438
79356W        W44341  16.275  18.715   2.695
79357W        W44342   5.516   6.471  11.070
79358W        W44343  10.313   8.970  11.452
79359W        W44344  11.131  27.567  10.525
79360W        W44345  42.515  31.454   0.033
79361W        W44346  12.928  38.832   0.252
79362W        W44347   7.895  42.401   0.877
79363W        W44348  43.572  18.622  13.444
79364W        W44349   1.209   9.308   1.903
79365W        W44350  19.971   5.453  12.139
79366W        W44351  21.268  23.101   3.160
79367W        W44352  14.609  26.091   1.849
79368W        W44353   9.639  12.732  13.101
79369W        W44354   7.889   5.638   3.213
79370W        W44355  36.822  10.673  14.734
79371W        W44356  28.418  37.227   2.232
79372W        W44357   1.759   3.856  14.093
79373W        W44358  26.237  14.788  13.045
79374W        W44359  32.531  28.118   1.082
79375W        W44360  26.118  36.537  12.526
79376W        W44361  44.319  20.944  13.974
79377W        W44362   9.456   1.147  14.490
79378W        W44363  24.933  30.756   2.696
79379W        W44364  15.545   4.439  13.331
79380W        W44365  32.594  35.021  11.976
79381W        W44366   2.438  25.960   4.743
79382W        W44367  24.056  33.536   0.080
79383W        W44368  41.937   4.206  13.059
79384W        W44369   7.861  23.775  12.021
79385W        W44370   5.258  26.252  13.945
79386W        W44371  42.916  16.312   2.106
79387W        W44372   9.794  38.678  14.836
79388W        W44373  26.007  30.399   3.115
79389W        W44374  40.909  41.883  11.521
79390W        W44375  43.282  16.020  11.924
79391W        W44376   5.402  13.113  14.372
79392W        W44377   3.392  26.158   3.773
79393W        W44378  31.757  37.992  14.963
79394W        W44379  15.310  18.207  14.846
79395W        W44380   5.340   5.678   0.501
79396W        W44381  39.142  24.063  12.596
79397W        W44382  17.153   0.681   1.630
79398W        W44383   4.885  30.877  12.507
79399W        W44384   3.714  32.379  14.801
79400W        W44385  39.639   7.303   1.422
79401W        W44386  11.775  35.485  14.996
79402W        W44387  20.921  39.023  13.976
79403W        W44388  28.118  35.538  14.026
79404W        W44389  41.503  42.889   0.230
79405W        W44390  43.678  37.626   3.334
79406W        W44391  23.185  44.409   0.953
79407W        W44392   2.960  42.027   1.848
79408W        W44393  34.287  41.891   0.604
79409W        W44394  13.718   2.468  13.880
79410W        W44395  42.072  34.441  14.798
79411W        W44396  23.702   7.252   1.299
79412W        W44397  34.509   5.711   3.016
79413W        W44398  43.415   4.358   0.142
79414W        W44399  12.784   0.733   4.875
79415W        W44400  43.046  26.225   3.794
79416W        W44401  22.523  17.309   3.185
79417W        W44402  41.485  12.485   3.805
79418W        W44403  15.535  39.341   0.807
79419W        W44404  44.506  22.922  11.059
79420W        W44405  27.428  23.094   2.378
79421W        W44406  15.820   3.532   1.209
79422W        W44407  18.338  22.290  13.788
79423W        W44408  41.474  29.999  13.371
79424W        W44409  18.119   5.462  11.959
79425W        W44410   4.562  30.227  13.060
79426W        W44411  33.853  18.221  11.974
79427W        W44412   2.736   1.876  10.803
79428W        W44413  27.129  14.392  11.470
79429W        W44414  33.934   7.100  13.945
79430W        W44415  35.898  19.134   0.952
79431W        W44416  20.236   0.035  12.104
79432W        W44417  22.633  29.078  14.520
79433W        W44418   2.297  25.345   0.533
79434W        W44419   5.803  20.059  14.865
79435W        W44420  14.085  44.949   1.753
79436W        W44421  14.576   8.635  11.641
79437W        W44422  18.210  38.784  12.171
79438W        W44423  26.076  25.974  12.803
79439W        W44424  34.501   6.293  14.332
79440W        W44425   6.418  11.371  12.947
79441W        W44426  41.775  10.667   1.397
79442W        W44427  24.118  16.065   2.304
79443W        W44428  25.437  19.207  12.941
79444W        W44429  26.549   8.806  14.739
79445W        W44430  20.601  39.813  14.088
79446W        W44431  18.240  33.530   2.005
79447W        W44432  23.780  23.522  13.478
79448W        W44433  38.355   3.247   1.036
79449W        W44434   2.719  30.937   2.212
79450W        W44435  15.645  18.795   4.133
79451W        W44436  21.698  38.088   4.421
79452W        W44437  27.779  40.910   2.358
79453W        W44438  10.752   0.762   0.656
79454W        W44439  43.682  26.896   3.389
79455W        W44440  20.602   5.920   1.379
79456W        W44441   8.851   2.609   4.502
79457W        W44442  16.172  33.006  11.656
79458W        W44443  11.129  41.915   0.854
79459W        W44444  28.608   5.374  11.835
79460W        W44445   5.768  35.822   1.462
79461W        W44446   8.096  24.286   0.750
79462W        W44447  30.680  41.408  11.161
79463W        W44448   3.761  42.907  13.327
79464W        W44449  33.407  26.597   0.458
79465W        W44450   3.730  21.146  11.113
79466W        W44451  13.230  33.353  11.306
79467W        W44452  38.327   4.231  12.032
79468W        W44453  15.203   2.290  13.059
79469W        W44454  21.439  42.498  10.665
79470W        W44455   3.270  30.346  14.004
79471W        W44456   9.361  29.107  12.595
79472W        W44457  43.757  22.976  12.358
79473W        W44458  40.910   5.379   3.636
79474W        W44459  41.992   3.174   4.550
79475W        W44460  11.553  20.924  11.537
79476W        W44461   2.957   3.285  12.960
79477W        W44462  16.858  37.354  11.081
79478W        W44463   0.501  38.240  14.155
79479W        W44464  17.243  37.282  14.522
79480W        W44465  18.301  22.197   0.916
79481W        W44466  18.111  21.234   0.589
79482W        W44467  18.040  29.665   3.088
79483W        W44468   5.330  11.907   1.683
79484W        W44469  32.939  24.609  10.674
79485W        W44470  41.226  32.863   4.227
79486W        W44471  17.188  15.366  14.365
79487W        W44472   5.661  17.822   0.156
79488W        W44473  28.586  16.267  11.633
79489W        W44474  28.925   2.768   4.130
79490W        W44475  11.751  25.754  13.393
79491W        W44476   3.978  26.376  14.213
79492W        W44477   0.263   9.708   0.682
79493W        W44478   8.398   0.963   2.498
79494W        W44479  36.251  15.710   1.149
79495W        W44480  22.962   1.053   1.852
79496W        W44481  27.182  27.697  14.839
79497W        W44482   9.775  43.672   0.355
79498W        W44483  13.611  44.516   1.872
79499W        W44484   2.989  40.929   3.710
79500W        W44485  41.901  41.031   1.648
79501W        W44486   0.512   6.393   0.825
79502W        W44487  22.172  34.850  12.032
79503W        W44488  12.160  24.587  11.862
79504W        W44489  19.051  40.860   1.478
79505W        W44490  25.609  44.589   2.262
79506W        W44491  13.049   5.601   9.823
79507W        W44492  27.091  44.462   2.740
79508W        W44493  33.511  18.896  13.453
79509W        W44494  39.226  13.068   3.163
79510W        W44495  36.830  43.265   4.712
79511W        W44496   8.463  33.366   0.723
79512W        W44497  18.957  34.520  11.545
79513W        W44498  24.099  22.305  13.997
79514W        W44499  24.246  20.225  13.962
79515W        W44500  13.260  31.638   4.048
79516W        W44501   4.959  15.075   1.917
79517W        W44502  38.310  37.045  12.076
79518W        W44503  28.184  12.706  11.110
79519W        W44504  17.795  10.712   3.916
79520W        W44505  11.782  44.790   0.822
79521W        W44506   5.177  20.312   2.691
79522W        W44507  19.612   4.698  12.448
79523W        W44508  16.559  33.369  14.848
79524W        W44509  12.720  18.790  12.220
79525W        W44510  39.527   1.519   3.136
79526W        W44511  24.845  39.875   4.178
79527W        W44512   2.900  12.219   2.986
79528W        W44513  12.235   8.285   0.783
79529W        W44514  43.696  44.307  11.008
79530W        W44515   2.912  16.849  13.470
79531W        W44516  19.520  14.683   1.617
79532W        W44517   9.574  42.403  13.074
79533W        W44518   7.927   6.656   3.151
79534W        W44519   7.829  12.763   3.131
79535W        W44520  15.509  39.145   2.663
79536W        W44521  37.774  26.898   4.475
79537W        W44522   3.704   8.154   0.282
79538W        W44523  27.273  21.439  13.390
79539W        W44524  26.785  19.903   2.096
79540W        W44525  23.279  21.689  14.209
79541W        W44526  10.928  40.146   1.612
79542W        W44527  27.265  37.530   4.556
79543W        W44528  25.839  12.363  10.309
79544W        W44529  23.422  20.037  12.590
79545W        W44530   7.749  43.707   4.140
79546W        W44531  34.526  14.163  13.378
79547W        W44532  11.790   1.555  10.558
79548W        W44533  41.302  37.906   2.349
79549W        W44534   2.286   7.302   2.322
79550W        W44535  10.788  20.516  13.052
79551W        W44536  11.738  44.054   4.576
79552W        W44537  41.860   9.696   0.456
79553W        W44538  32.401   5.933   1.703
79554W        W44539  19.157   8.988  11.114
79555W        W44540  29.455  13.800  14.925
79556W        W44541  19.347   1.499   1.825
79557W        W44542  40.435  37.890   3.397
79558W        W44543   8.227  15.571   4.714
79559W        W44544   8.317   0.922   1.433
79560W        W44545  19.569  36.495   1.150
79561W        W44546  41.834   7.279   1.723
79562W        W44547  42.955  14.085  11.488
79563W        W44548  33.186  12.742   1.966
79564W        W44549  39.518  39.242   2.822
79565W        W44550  12.319   5.882   4.153
79566W        W44551  36.481  28.436  14.508
79567W        W44552  20.356  28.463  12.955
79568W        W44553  10.175  43.408  11.713
79569W        W44554  30.707  16.691  13.342
79570W        W44555   1.844  10.373   4.701
79571W        W44556  15.302  29.721  11.124
79572W        W44557  44.325  42.495   1.211
79573W        W44558  35.843  42.981  13.085
79574W        W44559   7.694  39.243  10.945
79575W        W44560  31.416   5.637  11.772
79576W        W44561  37.633  35.466  12.052
79577W        W44562  17.829  30.065  13.502
79578W        W44563  13.383   1.370   3.622
79579W        W44564  29.789  24.922   2.791
79580W        W44565  33.905  43.597  13.540
79581W        W44566  17.429  30.810   1.209
79582W        W44567  41.087  27.606   5.145
79583W        W44568  32.443  32.681  13.725
79584W        W44569  16.788  41.265  14.850
79585W        W44570  42.416  20.693  13.061
79586W        W44571   3.043   3.320  10.607
79587W        W44572  35.514  31.169   3.295
79588W        W44573  25.171  44.260  11.129
79589W        W44574  44.290  24.201  14.214
79590W        W44575   4.193   6.257   2.336
79591W        W44576  19.417  36.638   0.685
79592W        W44577  27.924  43.388   2.853
79593W        W44578  36.888   5.714   4.675
79594W        W44579   3.709  16.357  14.764
79595W        W44580  43.246  30.362   1.752
79596W        W44581  12.496  34.063  14.349
79597W        W44582  35.842  31.396   0.570
79598W        W44583  37.143  16.798   3.618
79599W        W44584  40.535  24.280  12.539
79600W        W44585  36.888   6.156   0.200
79601W        W44586  19.293  24.295  13.057
79602W        W44587  17.318   3.676   3.321
79603W        W44588   9.483   3.272  12.678
79604W        W44589  13.226  29.177   4.994
79605W        W44590   9.159  21.484   0.907
79606W        W44591  31.428  37.637  11.214
79607W        W44592  30.027  18.530   3.131
79608W        W44593  43.701  44.061   1.755
79609W        W44594  44.225  43.819  10.251
79610W        W44595  43.524  21.940  11.618
79611W        W44596  18.693   4.234   3.477
79612W        W44597  19.959  15.111   0.278
79613W        W44598  43.823   7.602  12.844
79614W        W44599  16.038  20.013  11.121
79615W        W44600  40.484  26.498   1.413
79616W        W44601  35.117  25.440  14.890
79617W        W44602  32.702  36.522   0.373
79618W        W44603  22.031  13.274  13.006
79619W        W44604   5.378  11.774  12.366
79620W        W44605  37.056   9.904  13.465
79621W        W44606  40.444  23.771  12.510
79622W        W44607  43.016  16.934  14.470
79623W        W44608  21.024  40.252  10.579
79624W        W44609  24.578  16.806  10.852
79625W        W44610  13.150   9.408   3.662
79626W        W44611  30.248  10.663  11.065
79627W        W44612   9.471  33.820  14.669
79628W        W44613  16.731  34.174   2.856
79629W        W44614   6.865  17.694   0.859
79630W        W44615  29.544  11.688   3.559
79631W        W44616  14.167  21.687   0.298
79632W        W44617  31.154  39.539  14.878
79633W        W44618  41.756  37.098   4.706
79634W        W44619  22.069  38.275   1.920
79635W        W44620  38.031  14.018  11.738
79636W        W44621   3.524  10.465   1.190
79637W        W44622  26.930  42.092   3.301
79638W        W44623  13.274  27.166  10.698
79639W        W44624  26.928  12.356  14.449
79640W        W44625  44.815  34.996   4.762
79641W        W44626  17.031  42.996   1.288
79642W        W44627  40.992   2.523   3.722
79643W        W44628   5.451  25.989  13.450
79644W        W44629  22.295  32.792  12.829
79645W        W44630  24.180  10.455  12.923
79646W        W44631  19.364  30.231   4.100
79647W        W44632  25.437   2.260  12.901
79648W        W44633  17.623  43.250   3.368
79649W        W44634  17.231  41.515  14.385
79650W        W44635   8.870  19.998   0.254
79651W        W44636  10.583  34.132  12.408
79652W        W44637  14.183  26.807  10.652
79653W        W44638  25.244  33.010   2.558
79654W        W44639  18.933  32.150  11.589
79655W        W44640   2.512  34.907  13.996
79656W        W44641  38.728  33.529  10.672
79657W        W44642  44.446   4.299  10.081
79658W        W44643  40.988  11.134  12.860
79659W        W44644   4.319  36.373   4.108
79660W        W44645  18.093  44.276  11.977
79661W        W44646  15.741  22.063   1.014
79662W        W44647  21.605  30.524   4.151
79663W        W44648  19.296  41.500   0.356
79664W        W44649  17.878   2.889  10.808
79665W        W44650   7.812  13.963  12.929
79666W        W44651  11.717  12.607   2.124
79667W        W44652  21.026  11.844  10.747
79668W        W44653  33.411   6.137   3.606
79669W        W44654   9.397  42.631  12.651
79670W        W44655  26.587  32.568   1.218
79671W        W44656  39.004  37.524   2.671
79672W        W44657   2.810   2.373   1.352
79673W        W44658   2.829  43.491  14.875
79674W        W44659  21.632  12.361   0.575
79675W        W44660  16.453  22.167   1.671
79676W        W44661  23.920  31.455  11.497
79677W        W44662  23.868  33.765   0.956
79678W        W44663  28.420  14.832   2.196
79679W        W44664   0.070   6.702   0.838
79680W        W44665  26.094   0.294  14.799
79681W        W44666   5.294  18.099  13.443
79682W        W44667  32.509  29.461   0.057
79683W        W44668  43.163   6.364  12.149
79684W        W44669  14.524  29.924  11.612
79685W        W44670   6.145  29.510   2.488
79686W        W44671  43.030  11.875   3.208
79687W        W44672  13.566  26.649  12.659
79688W        W44673  35.143  34.853  10.813
79689W        W44674   3.451  22.782  13.169
79690W        W44675  15.749  19.544  12.136
79691W        W44676   4.684  26.453  12.223
79692W        W44677   2.146  26.218  13.907
79693W        W44678  11.588  32.978  12.122
79694W        W44679  38.904  22.725  14.385
79695W        W44680  14.883  18.774   3.075
79696W        W44681  16.126  35.009   0.651
79697W        W44682  14.582  35.941  13.068
79698W        W44683   2.878  12.811  11.596
79699W        W44684  24.959  40.436   0.309
79700W        W44685  34.439  43.963   1.629
79701W        W44686   7.663   3.432  12.375
79702W        W44687  11.464  25.657   0.035
79703W        W44688   6.439  36.119   3.328
79704W        W44689   5.295  34.850   2.970
79705W        W44690   5.323  18.532   3.725
79706W        W44691   2.857   9.162   2.355
79707W        W44692  27.568   9.177  11.511
79708W        W44693  32.046   3.521   3.414
79709W        W44694  32.852  34.376  12.147
79710W        W44695   9.284  10.204  13.191
79711W        W44696  25.937  34.507   3.686
79712W        W44697  18.665  30.433   0.950
79713W        W44698  23.115  41.717   2.648
79714W        W44699  34.310  40.690  13.433
79715W        W44700   8.412   9.313  11.053
79716W        W44701  19.172  23.438  14.897
79717W        W44702   3.982  26.425   0.240
79718W        W44703  37.856  25.085   2.399
79719W        W44704  20.751  29.322  12.596
79720W        W44705   7.851   3.326   9.772
79721W        W44706  40.971   8.655  14.879
79722W        W44707  36.564  27.038   0.436
79723W        W44708  16.124  22.569   1.776
79724W        W44709  34.562  33.110   3.263
79725W        W44710  15.331  24.691   3.735
79726W        W44711   9.735  38.525   4.496
79727W        W44712  42.178  30.837   0.394
79728W        W44713  31.971   6.573  11.665
79729W        W44714  24.746  11.073   0.386
79730W        W44715  36.161  19.036  13.044
79731W        W44716   5.815  40.596   2.402
79732W        W44717  44.733   1.786   1.308
79733W        W44718  20.199  28.034  10.085
79734W        W44719  26.981  44.374   1.345
79735W        W44720  23.396  42.221  14.136
79736W        W44721  25.393  23.122  14.956
79737W        W44722  38.518  33.758  12.282
79738W        W44723   8.141  21.748   4.142
79739W        W44724   1.030   9.187   9.951
79740W        W44725  15.205   9.880   2.635
79741W        W44726   4.640  18.767   4.031
79742W        W44727  31.105  21.881   4.681
79743W        W44728  33.773  39.511  12.603
79744W        W44729  18.329  33.900  11.197
79745W        W44730   0.261  32.529  14.575
79746W        W44731  38.337  24.772   4.062
79747W        W44732  35.708  20.300   0.100
79748W        W44733  17.110   4.381   1.112
79749W        W44734  22.395  44.384   2.226
79750W        W44735   2.288  16.315   4.429
79751W        W44736  37.834  42.536  14.267
79752W        W44737  29.444  37.976  12.427
79753W        W44738  34.683  24.240  10.776
79754W        W44739   2.850  41.748  13.428
79755W        W44740  13.112  13.873  13.318
79756W        W44741  27.176  30.550   2.124
79757W        W44742  11.558   3.778   0.363
79758W        W44743  16.127  28.416  14.396
79759W        W44744  24.224   3.434   3.351
79760W        W44745  24.260  35.381   2.546
79761W        W44746  29.690  43.527  13.338
79762W        W44747   6.198  32.330   0.942
79763W        W44748  20.046  36.089   0.168
79764W        W44749   5.410   1.529   2.193
79765W        W44750  27.698   3.204  12.507
79766W        W44751  42.998  20.750  10.854
79767W        W44752  18.721  13.516  13.339
79768W        W44753  39.543  28.648  14.346
79769W        W44754  28.772  36.932   0.410
79770W        W44755   5.094   4.179  13.907
79771W        W44756  31.149  17.684   0.492
79772W        W44757  13.580   8.363  13.415
79773W        W44758   7.720  38.101   1.743
79774W        W44759  24.647  32.617   3.657
79775W        W44760  40.139  32.558   0.101
79776W        W44761   2.808   6.167  13.474
79777W        W44762  36.933  24.139  14.479
79778W        W44763  19.704   8.230  13.386
79779W        W44764  33.100  39.700   4.580
79780W        W44765  18.567  13.694   1.744
79781W        W44766  24.025  11.362   0.095
79782W        W44767  22.310  26.819  10.136
79783W        W44768  35.088  33.905  14.396
79784W        W44769  19.119  38.548   0.846
79785W        W44770   3.777  34.601   4.696
79786W        W44771  16.070  21.586  12.224
79787W        W44772  22.487  11.948  10.691
79788W        W44773  15.523  13.628   1.775
79789W        W44774  36.932   1.501  11.084
79790W        W44775  43.939  27.251   3.082
79791W        W44776  17.412  25.168   5.004
79792W        W44777   9.373   2.941   3.334
79793W        W44778  29.873  43.799  12.962
79794W        W44779  44.248  21.983   2.340
79795W        W44780  18.141  28.926  10.740
79796W        W44781  34.533  35.352   4.062
79797W        W44782   2.832  21.327  11.075
79798W        W44783  41.682  36.011   3.447
79799W        W44784  29.653  17.969  10.646
79800W        W44785  27.992  38.427  12.612
79801W        W44786  15.253  32.510   4.862
79802W        W44787  40.356  37.316  13.506
79803W        W44788  42.444  18.049   4.881
79804W        W44789  20.641  12.363   0.035
79805W        W44790  16.458  44.436  12.715
79806W        W44791  28.716  19.254  12.033
79807W        W44792  39.088  42.843   4.447
79808W        W44793  42.363  27.143  14.558
79809W        W44794  37.357  15.335   0.780
79810W        W44795   0.256   0.670  14.277
79811W        W44796  36.830  24.866   1.569
79812W        W44797   6.795  29.682  12.830
79813W        W44798  38.474  24.969   0.326
79814W        W44799  18.715   3.824   0.919
79815W        W44800  23.974  12.193  11.496
79816W        W44801  23.706   3.413   3.467
79817W        W44802  41.588  17.634   1.434
79818W        W44803  23.925  37.550  12.218
79819W        W44804   9.001  43.465   4.275
79820W        W44805  35.561  25.079  12.044
79821W        W44806  14.957  23.515   1.982
79822W        W44807   2.396  44.262  11.669
79823W        W44808   4.436   0.299  11.099
79824W        W44809  44.809  33.946   3.860
79825W        W44810   8.667   0.349   2.999
79826W        W44811  19.209  14.755   2.724
79827W        W44812  14.283   4.696  11.990
79828W        W44813   8.605  14.114   1.178
79829W        W44814   7.855  16.956   4.711
79830W        W44815   9.787  17.564   1.166
79831W        W44816  33.359  33.962  13.239
79832W        W44817   3.481  41.861   2.803
79833W        W44818  28.425  19.217   3.128
79834W        W44819   4.201  35.080  13.455
79835W        W44820  31.707   8.827   2.300
79836W        W44821  20.242   4.880  11.380
79837W        W44822  36.528  11.179   0.362
79838W        W44823  10.070   6.823   3.741
79839W        W44824  36.656  44.927   4.940
79840W        W44825  22.226   4.773   4.623
79841W        W44826  32.975  16.014   4.471
79842W        W44827  32.664  35.325   4.021
79843W        W44828   9.900  40.194  14.975
79844W        W44829  19.144  20.983  12.555
79845W        W44830  28.676   1.737  14.948
79846W        W44831  29.637   9.271   4.107
79847W        W44832  30.626  15.025  13.313
79848W        W44833  22.846  40.864  12.533
79849W        W44834  11.629  38.097   2.268
79850W        W44835  24.583   5.977   0.943
79851W        W44836  19.038   3.712   3.288
79852W        W44837  35.545  34.592  11.108
79853W        W44838  39.566  24.053   1.177
79854W        W44839   7.889  39.580   0.290
79855W        W44840  29.357  36.895  13.288
79856W        W44841  20.572  40.000   0.428
79857W        W44842   0.215   2.722  14.973
79858W        W44843  26.282  24.170  11.222
79859W        W44844  38.506  30.435   0.505
79860W        W44845  23.437  27.377   1.352
79861W        W44846   2.091  23.604   2.152
79862W        W44847  13.629  24.713   4.039
79863W        W44848  17.549   0.466  13.866
79864W        W44849  28.984  26.876   3.140
79865W        W44850  15.672  18.051   0.726
79866W        W44851  28.963  44.769  13.400
79867W        W44852  33.052  26.099   4.224
79868W        W44853   6.237   9.297   3.400
79869W        W44854   5.313  29.703   0.338
79870W        W44855  11.722  13.231  11.550
79871W        W44856   8.243  32.545  10.619
79872W        W44857   8.930  37.892  13.518
79873W        W44858  20.764  15.962  14.879
79874W        W44859  44.093  11.272  12.120
79875W        W44860  19.723   6.964   3.198
79876W        W44861  37.548  39.808   1.634
79877W        W44862  43.207   4.335  11.834
79878W        W44863  16.730  23.671   3.321
79879W        W44864  36.988  28.347   1.774
79880W        W44865  34.373   1.859   1.353
79881W        W44866  18.474  28.027  14.306
79882W        W44867  18.784  38.850  13.504
79883W        W44868   1.906   7.486   1.642
79884W        W44869   7.419  44.483   0.334
79885W        W44870  12.760   7.991   0.105
79886W        W44871   8.570  39.019  13.261
79887W        W44872  11.629  35.826   3.214
79888W        W44873  12.329  36.082  14.327
79889W        W44874  27.002  39.578  13.888
79890W        W44875  23.541  23.552  13.943
79891W        W44876  17.977  28.156  13.330
79892W        W44877  12.844  15.196   0.563
79893W        W44878  32.883  19.547   3.706
79894W        W44879  15.703  43.348  10.560
79895W        W44880   7.454  44.800  12.018
79896W        W44881   2.034  41.194  12.590
79897W        W44882  20.757  21.227  13.526
79898W        W44883  34.688  33.987  12.977
79899W        W44884  19.476  43.345   3.801
79900W        W44885  42.543  27.074  11.058
79901W        W44886  30.309  30.381   4.563
79902W        W44887  25.619   7.699  14.575
79903W        W44888  18.876  25.070  12.498
79904W        W44889  15.683  14.279  12.505
79905W        W44890  30.526  27.917   2.353
79906W        W44891  27.818   9.365   3.391
79907W        W44892  36.383  22.937  11.182
79908W        W44893  13.043  29.151  12.825
79909W        W44894  33.440  20.479   1.825
79910W        W44895  28.367  21.975  11.434
79911W        W44896   5.955  20.309   0.300
79912W        W44897   5.676  44.292  11.607
79913W        W44898  44.587  41.414  12.641
79914W        W44899  41.678  18.406  10.249
79915W        W44900  25.905  30.527   0.920
79916W        W44901  28.409  29.150   0.407
79917W        W44902  17.993  37.763   0.023
79918W        W44903  14.765   9.739  10.737
79919W        W44904  34.465  38.500  11.978
79920W        W44905  40.774  34.156   5.135
79921W        W44906  32.736  29.672   2.833
79922W        W44907  14.613  37.901   1.809
79923W        W44908  38.836  31.976  13.355
79924W        W44909  13.102  16.800   1.422
79925W        W44910   2.990  18.245   2.211
79926W        W44911  10.010  43.762  12.537
79927W        W44912  24.736   6.134   3.342
79928W        W44913  26.752  21.743   2.112
79929W        W44914   1.319  19.016  14.988
79930W        W44915  28.756  13.636   4.140
79931W        W44916  30.833  30.126   3.197
79932W        W44917  38.591   6.222   3.555
79933W        W44918   2.726  44.239  14.448
79934W        W44919  23.536  26.010   3.291
79935W        W44920  32.057  26.594  13.497
79936W        W44921  40.806  32.557  12.069
79937W        W44922   3.312  13.147   0.224
79938W        W44923  23.638  23.398   3.996
79939W        W44924  14.070  26.485   1.460
79940W        W44925   9.738  33.609  10.511
79941W        W44926  15.324  38.775   2.163
79942W        W44927  30.438   2.353   2.957
79943W        W44928  41.937  43.220   2.752
79944W        W44929   0.749   8.405   3.235
79945W        W44930  22.676  39.905  10.287
79946W        W44931  37.595  16.154  12.016
79947W        W44932   4.267  44.102  14.143
79948W        W44933   2.479  23.021  11.074
79949W        W44934  17.842  25.674   0.734
79950W        W44935  24.211  21.269   2.022
79951W        W44936  11.148   2.911   2.972
79952W        W44937  16.031  33.305   4.259
79953W        W44938  30.841  29.181   4.216
79954W        W44939  27.902  37.540  14.962
79955W        W44940  40.989  15.230   0.375
79956W        W44941  13.381  22.654  13.473
79957W        W44942  43.190  28.624  14.864
79958W        W44943  18.885  39.870   0.879
79959W        W44944  44.153  10.214  10.760
79960W        W44945  38.785  38.361  12.600
79961W        W44946  21.671  13.079   2.325
79962W        W44947  41.713  22.472   4.186
79963W        W44948  44.431   8.613  13.015
79964W        W44949  29.641  32.133   4.901
79965W        W44950  14.857  29.613  13.357
79966W        W44951  34.890   0.794  10.757
79967W        W44952   2.358  27.132  12.031
79968W        W44953  22.977  43.869   1.281
79969W        W44954  31.337   6.311  14.519
79970W        W44955  31.497  26.129   0.297
79971W        W44956  24.108  43.364   1.921
79972W        W44957   4.812  19.047   1.262
79973W        W44958  19.735  19.285   3.076
79974W        W44959  16.079   6.976  12.619
79975W        W44960  18.448  11.126  14.181
79976W        W44961  16.592  43.632   0.445
79977W        W44962  41.155   1.574   2.642
79978W        W44963  31.749  23.188  12.108
79979W        W44964  34.611  14.071   3.381
79980W        W44965  23.130  17.493  13.862
79981W        W44966  10.247  28.144  13.136
79982W        W44967   5.798  43.839   3.231
79983W        W44968  24.109   6.174   4.965
79984W        W44969  32.109  42.855   1.150
79985W        W44970  32.572   6.630  11.140
79986W        W44971   5.965   9.948   0.173
79987W        W44972  16.142   9.278   1.376
79988W        W44973  14.635  28.823   0.244
79989W        W44974  24.396  21.287  10.196
79990W        W44975  11.757  12.765   1.260
79991W        W44976  44.441  33.619  10.566
79992W        W44977   5.718  31.572   0.311
79993W        W44978   5.324  43.504  11.311
79994W        W44979  36.466  21.576  14.823
79995W        W44980   2.117  42.625  11.872
79996W        W44981  44.498  36.005  10.593
79997W        W44982  19.120  11.485  12.525
79998W        W44983  16.834   5.166  14.908
79999W        W44984   7.187   0.746  10.600
80000W        W44985  29.860  28.412   2.913
80001W        W44986   8.181   4.234  12.157
80002W        W44987  35.164  39.146   3.093
80003W        W44988   8.563  11.216  13.935
80004W        W44989   7.212   5.751   2.660
80005W        W44990  10.396  23.179   2.331
80006W        W44991  19.273  42.914  13.451
80007W        W44992  38.083   3.001  12.584
80008W        W44993  25.649  20.709  11.653
80009W        W44994  42.721  21.995   0.238
80010W        W44995   7.655  23.965  14.335
80011W        W44996  39.151  42.640   3.950
80012W        W44997  42.645  41.973   4.357
80013W        W44998  38.014  17.125  13.509
80014W        W44999  17.197  30.868  11.476
80015W        W45000  25.365  43.506   4.089
80016W        W45001  28.920   0.895   4.617
80017W        W45002  12.275   0.722  14.267
80018W        W45003  32.036  35.073   4.499
80019W        W45004  10.873  16.597  14.791
80020W        W45005  35.084   2.692   4.586
80021W        W45006   6.906  12.315  10.761
80022W        W45007  13.269   8.394  10.501
80023W        W45008  35.043   0.329   4.255
80024W        W45009  15.387   5.245   0.880
80025W        W45010  25.654  23.012   2.826
80026W        W45011  36.522  11.663   2.754
80027W        W45012  39.965  19.558  11.619
80028W        W45013  44.749  36.463  13.056
80029W        W45014  43.762  31.362  10.663
80030W        W45015  31.893   0.061  14.416
80031W        W45016  37.944  42.386  11.954
80032W        W45017  28.255  23.891  14.823
80033W        W45018  10.500  38.015  11.106
80034W        W45019  19.044   0.751  14.720
80035W        W45020   8.140  19.651   4.315
80036W        W45021  36.554  42.569  10.902
80037W        W45022  36.013  28.537   3.223
80038W        W45023  21.187  10.710   2.614
80039W        W45024   4.337  31.566   2.930
80040W        W45025  44.973  35.395  14.629
80041W        W45026  41.676   8.389  10.675
80042W        W45027  34.821  24.120   1.378
80043W        W45028  16.251   2.850   3.659
80044W        W45029  17.201  31.858  11.357
80045W        W45030   4.982  19.944  11.942
80046W        W45031   4.226  18.165  11.291
80047W        W45032  13.530  21.287  10.705
80048W        W45033  31.099  42.398  10.512
80049W        W45034   9.475   1.809   0.722
80050W        W45035  23.152   8.852  13.912
80051W        W45036  44.432  33.075  12.039
80052W        W45037  22.016  28.628   0.293
80053W        W45038  23.743  10.257   1.826
80054W        W45039  24.201   4.131   4.637
80055W        W45040  27.392  15.604  14.718
80056W        W45041   9.310  36.856   0.769
80057W        W45042   5.085  18.207  10.678
80058W        W45043  34.658  39.364  10.840
80059W        W45044  32.071  36.171  10.825
80060W        W45045  33.019  38.377  13.409
80061W        W45046   6.902  36.583  13.635
80062W        W45047  16.544   0.022  12.066
80063W        W45048  40.240  42.471  12.514
80064W        W45049   8.679  27.016   1.640
80065W        W45050  40.413  21.582   1.389
80066W        W45051  41.275  42.659  14.445
80067W        W45052  44.355  44.408   3.964
80068W        W45053   2.137  19.212  13.478
80069W        W45054  39.770  17.617  13.347
80070W        W45055   0.052  20.733   4.624
80071W        W45056  13.554  13.597  12.646
80072W        W45057   6.704  32.338   4.548
80073W        W45058   2.749  28.968   4.229
80074W        W45059  30.220  27.099   1.422
80075W        W45060  40.214  39.705   3.741
80076W        W45061  43.090  23.358  10.288
80077W        W45062  36.032  15.608  12.494
80078W        W45063   4.992  30.005  11.811
80079W        W45064  19.526  40.056   1.501
80080W        W45065  19.061  17.358   0.313
80081W        W45066  32.433  26.265  14.235
80082W        W45067  23.126  42.307  12.414
80083W        W45068   6.903  37.607   4.088
80084W        W45069  27.041  28.573  12.546
80085W        W45070  25.844  27.033  11.132
80086W        W45071  40.471  17.181  13.537
80087W        W45072   3.267   9.083  13.064
80088W        W45073  38.125  10.416   2.800
80089W        W45074  33.321   3.649   4.611
80090W        W45075  13.968  28.174   0.052
80091W        W45076  20.035  30.702  14.476
80092W        W45077  23.572  12.570   0.301
80093W        W45078   4.948  29.532   0.645
80094W        W45079  39.501   0.423   2.222
80095W        W45080  17.911   7.689   2.912
80096W        W45081  23.337   8.727   2.159
80097W        W45082  43.419  31.147  11.460
80098W        W45083  11.334  32.679   0.426
80099W        W45084  12.857   5.845  14.665
80100W        W45085  35.489   5.914   2.145
80101W        W45086  15.897   4.497  14.797
80102W        W45087  21.714   1.530   0.659
80103W        W45088  38.848  20.755   3.825
80104W        W45089   8.888  29.989  12.417
80105W        W45090  35.489  16.812  11.697
80106W        W45091  21.288   5.447   4.141
80107W        W45092  26.209  29.429  11.105
80108W        W45093  27.948  31.428  13.399
80109W        W45094  42.375  14.675   3.440
80110W        W45095  44.530  19.713   1.800
80111W        W45096  32.929   5.913   3.618
80112W        W45097   4.253   9.741  12.699
80113W        W45098   5.441   8.279  12.052
80114W        W45099  40.628  31.887   2.318
80115W        W45100  27.581  14.022  12.133
80116W        W45101  12.115  16.606  14.243
80117W        W45102  18.631  37.387   4.151
80118W        W45103  24.278   3.299  14.490
80119W        W45104  16.777   1.874   0.373
80120W        W45105   9.395  31.735  12.700
80121W        W45106  34.650  33.650  13.361
80122W        W45107   7.734  33.985  13.840
80123W        W45108  30.551  20.772  10.752
80124W        W45109  39.909  36.980   1.035
80125W        W45110  30.150  21.597  11.784
80126W        W45111  41.824  13.603  14.349
80127W        W45112  44.932  30.306   2.749
80128W        W45113  16.645  30.939  10.761
80129W        W45114  12.581  24.671   1.429
80130W        W45115  13.893  22.128  10.065
80131W        W45116  30.618  42.231  13.792
80132W        W45117  23.288  15.486  11.180
80133W        W45118   0.564   9.736   4.949
80134W        W45119  27.176  38.411  14.485
80135W        W45120  35.459   2.686   3.420
80136W        W45121   0.978   9.287  14.313
80137W        W45122  13.282  37.438  11.951
80138W        W45123  16.367   2.373  13.195
80139W        W45124   2.264   9.147   2.759
80140W        W45125  20.730  31.701   4.189
80141W        W45126   2.929   0.824   2.836
80142W        W45127  35.545  42.150   3.115
80143W        W45128   3.269   3.969  11.644
80144W        W45129  25.218  22.089   3.868
80145W        W45130  30.549   2.292   5.332
80146W        W45131  21.678   8.934  10.621
80147W        W45132  33.000  15.838  14.867
80148W        W45133  40.132  21.121   4.483
80149W        W45134  37.067  42.423  13.735
80150W        W45135  14.248  18.542   1.094
80151W        W45136  20.765  14.548  11.218
80152W        W45137  10.555  32.036   1.192
80153W        W45138  31.394  22.997  14.349
80154W        W45139  44.867   7.881  12.039
80155W        W45140  10.300  43.479  10.800
80156W        W45141  36.386  32.023  13.332
80157W        W45142   5.113   7.794   3.096
80158W        W45143   5.265  15.512   0.438
80159W        W45144  31.897  24.270   1.432
80160W        W45145  40.579  30.439   2.377
80161W        W45146  14.721  43.943  14.211
80162W        W45147   7.892  19.044   0.209
80163W        W45148  29.680  42.042  14.294
80164W        W45149  21.271  32.803  14.339
80165W        W45150  38.443  44.072   0.944
80166W        W45151  42.972  39.512   0.789
80167W        W45152  44.891   8.144  11.599
80168W        W45153  28.559  34.627  12.072
80169W        W45154   5.166  17.116   2.672
80170W        W45155  19.969  29.951   1.816
80171W        W45156  33.906   0.169  12.392
80172W        W45157  36.105  18.528   0.687
80173W        W45158  41.582  37.641  10.849
80174W        W45159   6.759  10.582   3.620
80175W        W45160  40.526   2.734   3.869
80176W        W45161   9.153  35.811  11.559
80177W        W45162  22.675  24.005   2.916
80178W        W45163  14.014  35.039  13.160
80179W        W45164  30.471   2.199   4.819
80180W        W45165  35.011  30.405  13.842
80181W        W45166  34.971  38.792   9.856
80182W        W45167   8.347  13.207   0.570
80183W        W45168   8.814  17.199  11.398
80184W        W45169  35.330  16.944  12.164
80185W        W45170  27.287  33.058   4.843
80186W        W45171  36.092  15.988   3.223
80187W        W45172  21.135  24.706  11.265
80188W        W45173  34.369  17.342  11.890
80189W        W45174  27.848  12.591   4.032
80190W        W45175  26.533  14.566   3.221
80191W        W45176  31.341   4.176  11.431
80192W        W45177  14.471   7.371   0.152
80193W        W45178   8.167  29.262   4.686
80194W        W45179  12.835  41.616  14.336
80195W        W45180  23.689  42.295   1.760
80196W        W45181  14.706  41.963  11.265
80197W        W45182  18.880  36.629  12.396
80198W        W45183   2.013  22.184   1.919
80199W        W45184  41.432  36.669   0.780
80200W        W45185  27.642  42.301  13.971
80201W        W45186  43.768  28.459  13.013
80202W        W45187  40.473  30.388   1.419
80203W        W45188  32.071  13.374   2.327
80204W        W45189   8.859  37.899   1.187
80205W        W45190  43.715   8.379  14.444
80206W        W45191  15.186   7.234   0.905
80207W        W45192  19.540  35.960  12.370
80208W        W45193  37.852  41.102   4.726
80209W        W45194   0.689  29.526  11.903
80210W        W45195  20.987  23.213  10.958
80211W        W45196  19.576  41.982  12.499
80212W        W45197  42.714  42.478  10.563
80213W        W45198  22.108   7.180   3.739
80214W        W45199  33.671  34.138  11.900
80215W        W45200  37.038  16.761  10.537
80216W        W45201  38.577  21.984   1.371
80217W        W45202  30.716   5.311   3.863
80218W        W45203  10.731   0.335  13.249
80219W        W45204  42.051   9.329  12.922
80220W        W45205  42.400  32.682   1.339
80221W        W45206  39.368  14.075  13.014
80222W        W45207  11.711  20.081   0.861
80223W        W45208  40.891  31.912  12.647
80224W        W45209  26.884  35.314   1.727
80225W        W45210   5.478  27.154  12.052
80226W        W45211  32.532  20.422  11.268
80227W        W45212  30.550   3.369  13.129
80228W        W45213   8.348  14.061   0.580
80229W        W45214  31.833  32.931  11.548
80230W        W45215  13.749   4.945   0.338
80231W        W45216  34.889  41.143   9.982
80232W        W45217  34.163   9.888   4.970
80233W        W45218   6.905  27.537  14.849
80234W        W45219  11.287  30.907   1.752
80235W        W45220  16.124  25.028  13.513
80236W        W45221  11.297   1.766  10.572
80237W        W45222  24.422  35.592  10.569
80238W        W45223  17.832  41.274  10.613
80239W        W45224  35.706  31.710  11.692
80240W        W45225  20.705  25.024   4.630
80241W        W45226  19.185  11.831   0.367
80242W        W45227   3.957  35.992   4.139
80243W        W45228  42.684  39.817  13.815
80244W        W45229  39.855  26.039   2.400
80245W        W45230   8.824   9.197  11.924
80246W        W45231  19.844  34.357   4.495
80247W        W45232   7.701   7.955   1.721
80248W        W45233  19.174  34.537  10.635
80249W        W45234  18.647  12.982  11.244
80250W        W45235  15.764  23.635   2.967
80251W        W45236  24.618  12.816   3.645
80252W        W45237   1.952  25.918   0.821
80253W        W45238   0.012  43.318   2.461
80254W        W45239  13.952  29.403   4.537
80255W        W45240  21.683  11.529   4.574
80256W        W45241   2.865  29.039  14.914
80257W        W45242  27.682  21.240  14.764
80258W        W45243  28.949  41.315   1.878
80259W        W45244  30.631   5.299   4.403
80260W        W45245  37.420  14.807  14.910
80261W        W45246  18.615   6.643   1.128
80262W        W45247  13.183   5.107   2.446
80263W        W45248  33.246   6.113   5.435
80264W        W45249   1.693  40.112  11.282
80265W        W45250  39.570  17.785   0.442
80266W        W45251   4.446   5.419  11.359
80267W        W45252  32.895  31.914  12.098
80268W        W45253  26.447  14.605  11.181
80269W        W45254  31.934  32.270   4.621
80270W        W45255  20.309  40.889  13.946
80271W        W45256  30.144  19.227  14.252
80272W        W45257  10.574  43.404   2.894
80273W        W45258   5.757  36.910   4.417
80274W        W45259  11.318   4.754  10.935
80275W        W45260  40.047  11.201  11.436
80276W        W45261  21.821   6.298   0.892
80277W        W45262  13.974  32.223   1.704
80278W        W45263  20.640  29.576   4.111
80279W        W45264  38.160   2.816  11.242
80280W        W45265  10.160  34.847   3.230
80281W        W45266  21.571   1.974  12.471
80282W        W45267   2.402   0.956  10.215
80283W        W45268   4.414  11.111  11.368
80284W        W45269  23.662  17.846   0.893
80285W        W45270   9.789  37.458   3.324
80286W        W45271  28.936  23.290  12.885
80287W        W45272  34.469  29.061   4.074
80288W        W45273  36.543   8.237  13.843
80289W        W45274  39.345  32.009  11.617
80290W        W45275  32.122  31.505   1.314
80291W        W45276  32.362   0.911  10.724
80292W        W45277   3.662  18.055   3.415
80293W        W45278  20.853  23.374   5.485
80294W        W45279   5.508  18.076   2.341
80295W        W45280  37.725   2.597   1.998
80296W        W45281  24.206  15.083   0.976
80297W        W45282  37.396   7.894   3.254
80298W        W45283   7.348   1.215  11.756
80299W        W45284  20.676  31.854   2.363
80300W        W45285  26.697   7.450   0.866
80301W        W45286   7.444  36.586  13.377
80302W        W45287   0.318  35.465   4.054
80303W        W45288  10.951  38.304   4.069
80304W        W45289   7.809  29.905  10.853
80305W        W45290   0.396   1.881  14.361
80306W        W45291  36.513  21.984   2.722
80307W        W45292   6.238  18.204   4.631
80308W        W45293  42.899  30.143   1.407
80309W        W45294  30.457   0.788  10.443
80310W        W45295  44.013  32.218   1.454
80311W        W45296   9.547  35.343   1.778
80312W        W45297   1.434   9.716  11.145
80313W        W45298  42.787  21.190  12.026
80314W        W45299   3.275  43.827  13.807
80315W        W45300  24.081  43.014   4.180
80316W        W45301  22.602  39.307   4.610
80317W        W45302  22.667   5.002   1.617
80318W        W45303   1.799  22.729  12.448
80319W        W45304  16.335  42.691  13.072
80320W        W45305  38.365  40.850  14.290
80321W        W45306  36.040  12.368   4.367
80322W        W45307   3.928  25.523  13.538
80323W        W45308  13.669  17.814   1.372
80324W        W45309  36.965  17.791   3.717
80325W        W45310  40.579  19.819   4.130
80326W        W45311  28.069   5.871  12.854
80327W        W45312  21.991  21.570  13.514
80328W        W45313  41.558  18.745  12.987
80329W        W45314  41.433   6.390  10.661
80330W        W45315  28.358   7.720   4.739
80331W        W45316   2.674  33.940  11.565
80332W        W45317  14.845  24.913   4.506
80333W        W45318  14.221  38.844   0.237
80334W        W45319  19.389   6.370  11.430
80335W        W45320  38.491  21.009  12.467
80336W        W45321  23.749  10.833   0.421
80337W        W45322  41.298  18.158   0.388
80338W        W45323   4.503  34.375  11.453
80339W        W45324  36.500  19.042   4.132
80340W        W45325  16.715  15.092  10.261
80341W        W45326  17.603  43.319   2.854
80342W        W45327   4.195  27.023   0.484
80343W        W45328   1.481  30.535  12.835
80344W        W45329  35.281  26.154   3.291
80345W        W45330  12.215  22.990  13.016
80346W        W45331  43.012  29.958  11.982
80347W        W45332  28.842  18.026   1.310
80348W        W45333   7.261  40.829  11.137
80349W        W45334  44.435  20.687   1.869
80350W        W45335   2.122  11.414  11.505
80351W        W45336  27.449  23.119   0.510
80352W        W45337   7.985   2.667   2.846
80353W        W45338  16.565  41.557   3.356
80354W        W45339  26.147  42.844   2.949
80355W        W45340  18.643  39.386   2.880
80356W        W45341  31.519  20.623  12.633
80357W        W45342  29.686  14.557   3.928
80358W        W45343  11.136  32.581   0.902
80359W        W45344  44.216  15.528   3.284
80360W        W45345  40.970  14.243   0.947
80361W        W45346  10.872   9.821  12.435
80362W        W45347   0.483  12.158  11.603
80363W        W45348  20.123   0.678  10.706
80364W        W45349  39.483  18.407   4.168
80365W        W45350  27.114  20.091   3.368
80366W        W45351   6.375  10.913  13.217
80367W        W45352  22.442  43.410  11.555
80368W        W45353  18.289  33.153  13.411
80369W        W45354   1.210  42.947  10.545
80370W        W45355  21.753  28.350   2.680
80371W        W45356  35.005  19.085   0.870
80372W        W45357  22.236  43.522  13.396
80373W        W45358   7.849  15.581  14.880
80374W        W45359  35.872   3.458   3.304
80375W        W45360   9.797  37.911  12.476
80376W        W45361  28.128   1.661  13.310
80377W        W45362   2.346  23.023  14.053
80378W        W45363  34.161  13.268   3.307
80379W        W45364  44.294  28.211   4.632
80380W        W45365  21.577  13.552  11.112
80381W        W45366  24.448  19.533  13.774
80382W        W45367  36.773  29.599   2.191
80383W        W45368  16.983   6.362   2.362
80384W        W45369  32.609  29.369  12.601
80385W        W45370  31.014  43.799   3.260
80386W        W45371   0.051  21.519  10.660
80387W        W45372  23.155  44.531   1.889
80388W        W45373  22.344   2.940  11.511
80389W        W45374  21.075   0.967  11.089
80390W        W45375   1.736  21.156  14.324
80391W        W45376   4.000  42.244   3.217
80392W        W45377  14.856  38.835  14.764
80393W        W45378   3.779   2.773  12.958
80394W        W45379  32.499  10.491   1.237
80395W        W45380   3.181  23.355   0.530
80396W        W45381  16.767  31.132   0.313
80397W        W45382  13.252  31.065   1.332
80398W        W45383   3.196   4.138   9.998
80399W        W45384  15.281  18.884   3.380
80400W        W45385   8.215  21.244   4.558
80401W        W45386  30.531  35.060  13.012
80402W        W45387  19.664  13.802  10.782
80403W        W45388  38.621  27.184  12.094
80404W        W45389  44.018   7.400  12.419
80405W        W45390  30.991  44.276  12.458
80406W        W45391  36.764  30.048  12.103
80407W        W45392  25.213  21.677   4.634
80408W        W45393  40.327  41.556   4.459
80409W        W45394  13.689  27.092  11.872
80410W        W45395  42.473  21.947  11.594
80411W        W45396   6.846  36.113  12.639
80412W        W45397  13.184  14.321   2.168
80413W        W45398  36.806  24.621   0.253
80414W        W45399  26.243  19.705  14.305
80415W        W45400  34.050  14.736  10.611
80416W        W45401  16.441  33.331   4.604
80417W        W45402  40.734  39.903   0.952
80418W        W45403  37.654  40.418   0.906
80419W        W45404  42.269  18.044  11.773
80420W        W45405  43.237  38.918  13.510
80421W        W45406  26.976  23.735  13.877
80422W        W45407  18.614  39.942  12.157
80423W        W45408  27.645  14.449   2.351
80424W        W45409   4.868  35.023   0.613
80425W        W45410  13.321   3.295   2.337
80426W        W45411  42.704  30.097  11.558
80427W        W45412  12.078  11.748  14.874
80428W        W45413  40.441  22.215   4.286
80429W        W45414  40.760  12.038   1.232
80430W        W45415  38.533  41.693  11.984
80431W        W45416  29.395  33.074  12.976
80432W        W45417  44.549  17.041  13.039
80433W        W45418  33.123  18.785   3.267
80434W        W45419  17.260   2.486   2.878
80435W        W45420  36.523  23.721   2.557
80436W        W45421  35.962  43.740  12.515
80437W        W45422  42.753   3.355  10.896
80438W        W45423  19.969  26.818  14.187
80439W        W45424  27.204  39.670   4.590
80440W        W45425  33.610  18.005  12.695
80441W        W45426  44.703  25.139   2.675
80442W        W45427   9.461   0.351  13.779
80443W        W45428  14.311   9.195   3.252
80444W        W45429   2.287  34.427  13.233
80445W        W45430  39.079   2.967  12.395
80446W        W45431  35.495  31.890  14.853
80447W        W45432  22.230  22.418  12.076
80448W        W45433  24.532  27.598   3.222
80449W        W45434  22.639  19.514   4.802
80450W        W45435  31.524  10.684  12.295
80451W        W45436  37.406  12.376  12.038
80452W        W45437   0.714  34.104   4.056
80453W        W45438   5.714  35.058   2.713
80454W        W45439  41.947  20.181   3.324
80455W        W45440  31.171   7.302   0.443
80456W        W45441   9.383  43.562  14.904
80457W        W45442  33.806  30.574  12.538
80458W        W45443  22.747  38.252   2.513
80459W        W45444   7.311   5.155  13.397
80460W        W45445   5.601  42.446   2.407
80461W        W45446  42.451   0.409   4.050
80462W        W45447   1.537  17.089   1.775
80463W        W45448  38.091   7.264   2.449
80464W        W45449  44.629   8.869   2.870
80465W        W45450  25.760  35.432   4.795
80466W        W45451   2.254   3.773   0.903
80467W        W45452  41.954  43.037  10.969
80468W        W45453  32.421  40.742   3.518
80469W        W45454  33.134  32.446   1.297
80470W        W45455  39.017  37.551  13.966
80471W        W45456  38.708   7.479   2.845
80472W        W45457  36.951  31.635   3.242
80473W        W45458   4.840  12.286   1.153
80474W        W45459   5.309  12.842  13.938
80475W        W45460  32.347   8.040   4.035
80476W        W45461  11.401   4.197  12.736
80477W        W45462  25.080  41.232   0.806
80478W        W45463  35.955   1.458  12.490
80479W        W45464   8.581  35.157   0.560
80480W        W45465   1.740  42.767  12.176
80481W        W45466  36.053  39.262   3.829
80482W        W45467  43.388  38.059   2.331
80483W        W45468   1.644  29.655  12.126
80484W        W45469  11.365  37.036  10.494
80485W        W45470  31.517  11.899   0.443
80486W        W45471  15.054  24.067   2.700
80487W        W45472  23.090  37.859  14.974
80488W        W45473  41.467  34.496   2.567
80489W        W45474   5.392  11.149   1.258
80490W        W45475  19.091  23.739   0.344
80491W        W45476  31.481  18.172  10.517
80492W        W45477  14.732  23.567  14.749
80493W        W45478  31.536  15.768   3.584
80494W        W45479  20.360  34.515  12.892
80495W        W45480  25.684  23.511  13.524
80496W        W45481  18.272  39.414  13.154
80497W        W45482  23.243  16.726  14.511
80498W        W45483  38.570   3.834   1.844
80499W        W45484   3.506  17.398  13.980
80500W        W45485  13.340   1.543  12.956
80501W        W45486  12.386   8.827   2.910
80502W        W45487   7.781  33.239   3.052
80503W        W45488  20.198  28.699   2.001
80504W        W45489  29.372  43.973  14.061
80505W        W45490  43.797   6.237   4.585
80506W        W45491  32.966  24.165  14.472
80507W        W45492  13.712  22.799  11.821
80508W        W45493  10.677   3.975   1.771
80509W        W45494  27.792  34.216   1.902
80510W        W45495  10.832   6.665  11.355
80511W        W45496   5.196  32.599  14.542
80512W        W45497   8.683  35.877   3.311
80513W        W45498  17.354  16.648  11.486
80514W        W45499  42.791   6.908   4.578
80515W        W45500   2.346  31.258   2.069
80516W        W45501  42.130  20.159   2.843
80517W        W45502   1.081  37.116   4.471
80518W        W45503   6.738  25.067  11.773
80519W        W45504  17.747  37.351  11.413
80520W        W45505   2.125   2.114  11.174
80521W        W45506   8.256  10.325  11.485
80522W        W45507   3.764   5.298   3.259
80523W        W45508  25.086   3.239  13.867
80524W        W45509  40.626  34.822  14.292
80525W        W45510  22.711  28.162  14.168
80526W        W45511  27.658  28.054   2.202
80527W        W45512  14.077  14.514  13.902
80528W        W45513   7.960  25.517   1.776
80529W        W45514  18.694  43.059  11.649
80530W        W45515  36.001  44.515   3.722
80531W        W45516  21.507  16.198  11.122
80532W        W45517  26.135  16.543   2.651
80533W        W45518  44.077   5.939  13.478
80534W        W45519  41.963  30.028  12.095
80535W        W45520  23.999  11.090   0.889
80536W        W45521   7.972  24.276  11.998
80537W        W45522  32.888   9.737  14.276
80538W        W45523  43.779  10.162   1.121
80539W        W45524  12.676  41.373   4.418
80540W        W45525  23.134  33.882  14.787
80541W        W45526  29.869  24.224   4.939
80542W        W45527  13.214  44.978   0.540
80543W        W45528  35.977  22.469  12.903
80544W        W45529  15.840  29.403   1.773
80545W        W45530  22.502  22.840   5.060
80546W        W45531   1.256   0.548   2.093
80547W        W45532  31.045  21.579  10.889
80548W        W45533  16.053  22.042  11.111
80549W        W45534  27.941  36.158   0.327
80550W        W45535  16.116  44.924   1.695
80551W        W45536  39.075  43.793   3.863
80552W        W45537   9.201   3.422   3.086
80553W        W45538   4.379  29.522  12.489
80554W        W45539  16.760  19.483  11.348
80555W        W45540  44.704  17.553  12.931
80556W        W45541  15.323  16.776  14.402
80557W        W45542  16.571  34.546  11.998
80558W        W45543  21.808  10.523  11.952
80559W        W45544  14.366  13.223  10.850
80560W        W45545  25.135  26.030  13.379
80561W        W45546  22.095  17.738   2.678
80562W        W45547  26.414   1.889  12.624
80563W        W45548  39.586  35.485  13.390
80564W        W45549  30.464  18.742  11.150
80565W        W45550  39.392  22.628   0.714
80566W        W45551  23.757  14.834  13.527
80567W        W45552   6.711  26.706  13.457
80568W        W45553   4.283  16.902   2.678
80569W        W45554  37.522  11.426   3.201
80570W        W45555  10.369  37.242   4.507
80571W        W45556  10.385  14.269   1.873
80572W        W45557   9.278  36.280   0.009
80573W        W45558  43.245  32.004   1.824
80574W        W45559   7.199  38.422   2.944
80575W        W45560  25.459  18.096   4.040
80576W        W45561  11.696  42.594  10.692
80577W        W45562   0.408   4.701   5.001
80578W        W45563  41.843  29.345  13.988
80579W        W45564   8.223  16.459  12.376
80580W        W45565  30.709  42.767   4.210
80581W        W45566  20.759  41.911   0.985
80582W        W45567   6.453  35.657   3.545
80583W        W45568  20.075  16.517   1.206
80584W        W45569  21.580  30.598   1.178
80585W        W45570   5.635   3.963   0.885
80586W        W45571  14.886  27.837  14.215
80587W        W45572  31.060   0.940  10.709
80588W        W45573  16.416  14.650   2.646
80589W        W45574  43.571  39.036  13.874
80590W        W45575  30.525  26.162   0.548
80591W        W45576  30.672  40.242   2.287
80592W        W45577  10.538  23.743  13.115
80593W        W45578  17.302   1.392  14.879
80594W        W45579  40.518   9.876  13.392
80595W        W45580  10.146  26.928   3.931
80596W        W45581  15.231  21.563   4.484
80597W        W45582   2.806   0.078   4.504
80598W        W45583  16.114  20.697  12.001
80599W        W45584  40.758  37.849  12.988
80600W        W45585  15.641   9.160   1.199
80601W        W45586  29.148  42.912   2.602
80602W        W45587   9.675  35.846  13.537
80603W        W45588  30.681  42.246  12.941
80604W        W45589  11.784  38.436   0.454
80605W        W45590   9.158  23.917  12.445
80606W        W45591   0.680   6.372   4.106
80607W        W45592  37.742  36.444   4.165
80608W        W45593  34.531  22.806   1.759
80609W        W45594  16.186  23.957  12.282
80610W        W45595   4.643  22.984   2.293
80611W        W45596  24.052  13.112   1.024
80612W        W45597  12.093  17.345   4.202
80613W        W45598  10.145  12.784   4.111
80614W        W45599  22.986  27.585   0.361
80615W        W45600  11.106   6.377  13.927
80616W        W45601   2.229  41.391  13.505
80617W        W45602  20.677  37.137   0.407
80618W        W45603  19.026   6.148  14.956
80619W        W45604   7.660  15.114   3.753
80620W        W45605  18.921  36.642  14.942
80621W        W45606  13.220  36.892  12.486
80622W        W45607  11.132  44.796   0.179
80623W        W45608   5.547   4.310   2.005
80624W        W45609  17.838  13.593   3.163
80625W        W45610  36.410  43.337   0.898
80626W        W45611  35.589  38.863   3.069
80627W        W45612  19.625  39.115   4.700
80628W        W45613  42.580   1.340  13.853
80629W        W45614   8.901  24.249   2.699
80630W        W45615   7.835  29.393  11.508
80631W        W45616  20.841  36.800   3.449
80632W        W45617  24.971  35.000   3.122
80633W        W45618  32.779  27.155  12.578
80634W        W45619  10.155   7.648   3.242
80635W        W45620  40.773   8.417   3.215
80636W        W45621  15.485  19.531   3.351
80637W        W45622   5.876  40.111   1.351
80638W        W45623  25.921   4.815  14.482
80639W        W45624  23.684  36.362  11.516
80640W        W45625  33.066  40.094   3.702
80641W        W45626  18.269  20.723  11.148
80642W        W45627  21.225   0.007   4.217
80643W        W45628  37.816  44.196  11.102
80644W        W45629  13.673   1.338  10.573
80645W        W45630  11.204  20.154   2.696
80646W        W45631  41.900   1.671   4.827
80647W        W45632  39.360   2.226   1.715
80648W        W45633  13.381  41.967   3.939
80649W        W45634  17.708  34.875  11.428
80650W        W45635  26.969   5.791  11.511
80651W        W45636   0.323  39.404  10.863
80652W        W45637   8.797  38.105   1.683
80653W        W45638  28.122  35.026  13.943
80654W        W45639  20.482  14.348  13.789
80655W        W45640  37.589  13.169   1.607
80656W        W45641  16.260  16.807  10.614
80657W        W45642  20.766   9.576  14.498
80658W        W45643  18.576  15.816  11.181
80659W        W45644  23.998  15.546   2.365
80660W        W45645   4.805  39.150   5.005
80661W        W45646  12.703   4.126  12.019
80662W        W45647   0.665   4.201  13.397
80663W        W45648  42.883  41.259   1.405
80664W        W45649  31.356  38.499   1.747
80665W        W45650  14.048   9.222  12.882
80666W        W45651  10.546  30.139  10.623
80667W        W45652  29.644  32.581  12.987
80668W        W45653  24.790  34.562   0.921
80669W        W45654  31.435  37.441   1.859
80670W        W45655  17.932  15.159  13.920
80671W        W45656  13.775   3.963   1.257
80672W        W45657  20.642   6.604  13.357
80673W        W45658  28.152  12.639  12.159
80674W        W45659  40.275  24.641  14.946
80675W        W45660   6.658  23.408   3.309
80676W        W45661  24.675  12.693  11.217
80677W        W45662  12.045  40.021  11.179
80678W        W45663  23.792  37.346  11.740
80679W        W45664  30.858  22.094   1.071
80680W        W45665  41.583  33.927  13.937
80681W        W45666   8.627  27.099   2.918
80682W        W45667   1.295  21.694   3.678
80683W        W45668   2.281   7.265   0.070
80684W        W45669  43.587  32.406  12.461
80685W        W45670  18.269  38.420   3.695
80686W        W45671  17.788  13.896   3.600
80687W        W45672  13.178  15.738   0.041
80688W        W45673  24.394  27.941  13.406
80689W        W45674  16.828   3.675  14.947
80690W        W45675  34.918  32.989  10.940
80691W        W45676  22.624  25.136   1.894
80692W        W45677  37.435   4.683  12.088
80693W        W45678  19.578  28.804  10.248
80694W        W45679   1.186  29.043   1.912
80695W        W45680  25.662  30.570  14.500
80696W        W45681  26.602  30.425  11.928
80697W        W45682  41.115  21.284  10.287
80698W        W45683   6.361  25.585   3.840
80699W        W45684   6.829  35.114  12.377
80700W        W45685  39.062  21.517   5.190
80701W        W45686  41.510  35.689  11.314
80702W        W45687  20.501  35.775   1.399
80703W        W45688  11.184  31.322  11.970
80704W        W45689  28.414  32.641   3.281
80705W        W45690  25.015  16.046  14.825
80706W        W45691   0.714   5.902  13.858
80707W        W45692  30.552  33.677  11.188
80708W        W45693  34.830  39.557   3.237
80709W        W45694  14.363  12.535  12.528
80710W        W45695  44.794  30.593   3.599
80711W        W45696  24.212  34.044   5.092
80712W        W45697  22.529  20.265   1.460
80713W        W45698  22.298  43.331   0.026
80714W        W45699  40.914  29.533  11.488
80715W        W45700  27.512  13.429   4.135
80716W        W45701  32.888  29.102  14.919
80717W        W45702  44.235  28.960   2.741
80718W        W45703   8.582  13.835   4.268
80719W        W45704   1.866   7.649  14.380
80720W        W45705  22.204   3.133  11.024
80721W        W45706   7.924   0.706   2.572
80722W        W45707  10.382  34.415   0.690
80723W        W45708  19.289  14.823  10.971
80724W        W45709  24.903  40.625  11.623
80725W        W45710  40.458  32.877   1.321
80726W        W45711   9.829  15.427   0.272
80727W        W45712  44.368  23.244  14.212
80728W        W45713  20.387  42.749   3.136
80729W        W45714   7.989  35.663   2.798
80730W        W45715  41.396   2.823   4.879
80731W        W45716   9.594   1.328   4.814
80732W        W45717   0.434   1.068   1.159
80733W        W45718  13.258  12.359  13.545
80734W        W45719  15.050  39.392   2.726
80735W        W45720  21.134  41.240   4.676
80736W        W45721  14.798  11.164  12.999
80737W        W45722  22.722  16.936  12.506
80738W        W45723  36.354  44.527   2.411
80739W        W45724  37.206  43.025   4.298
80740W        W45725   2.421  38.807  13.270
80741W        W45726  16.712  43.922  13.598
80742W        W45727  11.940  24.072  11.210
80743W        W45728  44.452  13.188  10.536
80744W        W45729   9.262  35.563   4.055
80745W        W45730  29.420   4.517  12.911
80746W        W45731  20.703  17.726  11.231
80747W        W45732  35.058  28.496  11.660
80748W        W45733  38.904  21.577  14.889
80749W        W45734  40.051  42.149   3.715
80750W        W45735  31.362  25.390  13.819
80751W        W45736  42.176  40.816  10.835
80752W        W45737  42.345  10.100  14.922
80753W        W45738  31.727  23.737   1.744
80754W        W45739  42.450   3.121  13.793
80755W        W45740   2.955  21.422   2.798
80756W        W45741  28.820  22.585   3.829
80757W        W45742  21.564  25.027   3.073
80758W        W45743  42.269   5.164  11.984
80759W        W45744  21.290  23.076   0.293
80760W        W45745  26.418  24.189  11.744
80761W        W45746  23.515  23.035  11.527
80762W        W45747  23.418   0.907  13.352
80763W        W45748   4.300  26.643   5.064
80764W        W45749  32.138   6.005  10.270
80765W        W45750   9.134   5.202   0.033
80766W        W45751  29.034  29.657   2.858
80767W        W45752  17.016  13.797  11.580
80768W        W45753  19.450  28.138   0.832
80769W        W45754  26.740  21.200  11.613
80770W        W45755  29.053  40.853   2.800
80771W        W45756  26.134  18.654   3.769
80772W        W45757  39.006  29.049  12.313
80773W        W45758  11.066   6.722   0.773
80774W        W45759  34.777   9.398  12.372
80775W        W45760  38.298  10.646   3.407
80776W        W45761   8.901  34.542   2.738
80777W        W45762  36.896  11.365   4.502
80778W        W45763  41.361  13.758  12.607
80779W        W45764  36.417  44.944  13.548
80780W        W45765  39.836  23.618   0.890
80781W        W45766  35.183  22.730   4.098
80782W        W45767  29.507  42.851   3.723
80783W        W45768  42.957   9.097   1.380
80784W        W45769   5.685   4.412   0.635
80785W        W45770  30.103   2.149   0.049
80786W        W45771   3.299  15.875  14.964
80787W        W45772  22.685  24.665   3.154
80788W        W45773  22.216  38.831   2.696
80789W        W45774  20.265   8.811   3.286
80790W        W45775  14.319   6.982  10.696
80791W        W45776  35.304  27.057   3.134
80792W        W45777  12.099   7.887  10.997
80793W        W45778  23.818  11.360  12.024
80794W        W45779  11.269  27.800  12.322
80795W        W45780   4.390   9.793  11.746
80796W        W45781  14.298  31.861   2.658
80797W        W45782  27.602   6.749  11.084
80798W        W45783  42.936  30.021   4.126
80799W        W45784  28.009  17.978  11.184
80800W        W45785  11.310   5.613   0.456
80801W        W45786  19.970   5.959  11.964
80802W        W45787  21.187  41.805   3.902
80803W        W45788  17.569  13.644   2.722
80804W        W45789   4.513  11.123  13.833
80805W        W45790  23.778  15.870   3.802
80806W        W45791  39.021  12.079   0.514
80807W        W45792   1.707  26.425  12.113
80808W        W45793  10.785  42.763  11.219
80809W        W45794  21.147   6.410   0.766
80810W        W45795  33.038  39.513   2.164
80811W        W45796   3.995  12.369  14.149
80812W        W45797  13.845  24.718   1.751
80813W        W45798  30.639  43.474  12.442
80814W        W45799   3.813  21.401  11.955
80815W        W45800   4.754  19.574   1.290
80816W        W45801  40.116  43.004   3.428
80817W        W45802  35.592  21.217   4.610
80818W        W45803  31.979  29.673  11.513
80819W        W45804   0.726   0.800   0.236
80820W        W45805  11.404  21.106   1.724
80821W        W45806  44.572  22.400  11.072
80822W        W45807  11.669   1.176   4.607
80823W        W45808  36.662   5.705   4.118
80824W        W45809   1.780  37.498  11.682
80825W        W45810  37.556  19.096  11.374
80826W        W45811  29.013  38.530  10.656
80827W        W45812  43.814   1.431   0.613
80828W        W45813  26.924  40.560  13.410
80829W        W45814  10.240  44.474   0.266
80830W        W45815   0.865  12.410  14.484
80831W        W45816   3.702  27.634  12.860
80832W        W45817  31.077  23.081  13.861
80833W        W45818  21.706   9.272   1.751
80834W        W45819  23.492  37.921  12.992
80835W        W45820  35.992  15.773  13.679
80836W        W45821  15.715  40.008   1.725
80837W        W45822  37.917  13.240   3.699
80838W        W45823  40.580  38.013  11.942
80839W        W45824  35.597   1.711   0.429
80840W        W45825  22.705  29.856   3.402
80841W        W45826   8.172  28.562  14.489
80842W        W45827   9.793  12.042  12.038
80843W        W45828  43.812  18.158  13.020
80844W        W45829  34.121  36.063  12.072
80845W        W45830  15.071  33.803  12.315
80846W        W45831  41.218   2.795  12.318
80847W        W45832  17.414   4.777  12.613
80848W        W45833   8.848   4.384  13.529
80849W        W45834  38.571  44.502   1.859
80850W        W45835  10.405  43.447  12.584
80851W        W45836   1.935   6.742  10.702
80852W        W45837  19.773   4.915  11.026
80853W        W45838  34.615  10.526  12.865
80854W        W45839  41.389  16.381   3.604
80855W        W45840  37.442  12.178  14.533
80856W        W45841  37.320  34.106  11.980
80857W        W45842  30.200  12.783  10.720
80858W        W45843  22.511  31.603   4.764
80859W        W45844   1.507  36.529  11.483
80860W        W45845   5.166  35.430   0.398
80861W        W45846  25.612  38.323  10.473
80862W        W45847  19.815  32.773   3.605
80863W        W45848  25.683  44.970   2.660
80864W        W45849  41.675  28.266   4.067
80865W        W45850  43.715  10.177  10.457
80866W        W45851  44.310  20.122  12.667
80867W        W45852   7.228  11.837  10.708
80868W        W45853  36.118   6.649   0.699
80869W        W45854  26.402  23.475  14.694
80870W        W45855  21.685  31.260  10.601
80871W        W45856  33.927  43.461   2.416
80872W        W45857  23.777  41.554  12.098
80873W        W45858  39.413  40.418  11.582
80874W        W45859  19.041   3.402   2.779
80875W        W45860  18.473   8.748  13.463
80876W        W45861   8.155  28.153  13.694
80877W        W45862  12.812  26.219   1.242
80878W        W45863   4.293  26.937  11.665
80879W        W45864  44.554  23.948   2.056
80880W        W45865  40.094  26.677  14.288
80881W        W45866  39.490  13.567  14.794
80882W        W45867  36.847   6.977  14.326
80883W        W45868  22.874  19.549  11.096
80884W        W45869  22.496  35.966   1.724
80885W        W45870  22.315   6.750  12.895
80886W        W45871   1.953   9.386   4.145
80887W        W45872  34.056  12.506   1.390
80888W        W45873  41.595   0.834  10.761
80889W        W45874   5.894  36.315  11.938
80890W        W45875  26.506  15.253   4.332
80891W        W45876   3.199   1.542   1.327
80892W        W45877  10.526   8.087   0.190
80893W        W45878  13.558  42.973   3.635
80894W        W45879  26.510   4.601   5.005
80895W        W45880  43.955  24.713  14.410
80896W        W45881  19.354  27.740  11.953
80897W        W45882  40.834  17.256  13.905
80898W        W45883  12.089  35.495  10.491
80899W        W45884  14.228  10.460  13.139
80900W        W45885  21.509  16.815  11.116
80901W        W45886  28.611  30.931  12.487
80902W        W45887  36.926   4.817  10.614
80903W        W45888  29.407  17.236  11.182
80904W        W45889  23.605  42.408  12.241
80905W        W45890  44.816  40.291   0.413
80906W        W45891  11.759  38.376   3.735
80907W        W45892  16.825   5.185  12.051
80908W        W45893  33.920  11.941   3.774
80909W        W45894   0.963  25.640  11.426
80910W        W45895  42.954  44.797  14.865
80911W        W45896  33.965  28.252  11.152
80912W        W45897  12.336   4.768   2.921
80913W        W45898   8.351  19.787   3.344
80914W        W45899   2.788  39.888   0.037
80915W        W45900  16.011   7.890  11.613
80916W        W45901  25.426  30.134   2.304
80917W        W45902  42.250  39.040  13.379
80918W        W45903   9.671  42.409   0.138
80919W        W45904  27.596   4.438  12.909
80920W        W45905  37.302  38.272   3.389
80921W        W45906  25.061   3.733   4.109
80922W        W45907  21.511  21.539   1.847
80923W        W45908  38.072  21.496   2.206
80924W        W45909  35.359  31.136   4.118
80925W        W45910  21.105   8.634  11.272
80926W        W45911  12.085   6.402  13.791
80927W        W45912  20.521  35.847   3.419
80928W        W45913  33.393  27.858   0.972
80929W        W45914  36.075  28.114  14.469
80930W        W45915  34.070   2.990  13.075
80931W        W45916  13.692   0.957  14.356
80932W        W45917  19.527   1.410   3.171
80933W        W45918   6.373   9.044   9.985
80934W        W45919   8.236  13.205   3.831
80935W        W45920  30.634  27.626  13.240
80936W        W45921  26.373   2.803  14.046
80937W        W45922  30.806  25.221   1.918
80938W        W45923   2.410  19.673   1.242
80939W        W45924  34.146  27.502   2.795
80940W        W45925   6.004  20.120  12.558
80941W        W45926  39.257  22.831  12.967
80942W        W45927  44.509   5.281   1.913
80943W        W45928   7.641   4.105   5.375
80944W        W45929  28.435  23.379  13.050
80945W        W45930  34.709  16.856  14.970
80946W        W45931   4.231  30.049  12.084
80947W        W45932  35.920  21.524   4.874
80948W        W45933  10.138   3.652   3.361
80949W        W45934  14.639  37.867  13.017
80950W        W45935   0.984  41.004   1.948
80951W        W45936  14.747  19.452  13.524
80952W        W45937  26.098  37.858   1.725
80953W        W45938  20.913  27.138   3.411
80954W        W45939  17.322  22.542   2.710
80955W        W45940   5.165  11.682  14.413
80956W        W45941  12.709  10.293  14.511
80957W        W45942  16.305   9.116   4.339
80958W        W45943  26.237  25.075  11.581
80959W        W45944   2.385   0.161   2.785
80960W        W45945  12.258  29.741   1.775
80961W        W45946  34.952  13.843  14.485
80962W        W45947  23.170   2.892  13.572
80963W        W45948  37.273  28.403  13.268
80964W        W45949  20.669  11.399  12.427
80965W        W45950  30.256  13.278   0.216
80966W        W45951   6.800   2.201  10.865
80967W        W45952  43.329  11.144   2.351
80968W        W45953   2.895  21.666   1.694
80969W        W45954  13.479  20.421  12.612
80970W        W45955   7.080   4.430  12.200
80971W        W45956   8.129  32.489  11.567
80972W        W45957  13.770  43.946   2.358
80973W        W45958  42.428   7.335  10.738
80974W        W45959  40.450   5.404   1.148
80975W        W45960   7.575   2.891   0.827
80976W        W45961  10.656  37.363   3.041
80977W        W45962   2.918  32.413   3.363
80978W        W45963  37.538  22.202  14.908
80979W        W45964  29.638  20.605  11.577
80980W        W45965  30.590  41.480   4.055
80981W        W45966  44.766  16.244   4.339
80982W        W45967  16.287  17.793   4.746
80983W        W45968  30.045  10.723   1.669
80984W        W45969  19.571  19.219   2.105
80985W        W45970  29.018  27.123  10.718
80986W        W45971  43.038  20.470   2.341
80987W        W45972  31.560  13.067  14.901
80988W        W45973  24.074  25.079   1.288
80989W        W45974  26.628  35.172   2.377
80990W        W45975  33.676  41.399  13.118
80991W        W45976   4.777  24.503  14.965
80992W        W45977  33.365  43.989  14.740
80993W        W45978  29.097  26.626   4.509
80994W        W45979   7.621  18.014  12.993
80995W        W45980  11.632   2.821  11.027
80996W        W45981  29.361  37.279  11.073
80997W        W45982   4.756   2.224   3.584
80998W        W45983  36.340  22.965   4.536
80999W        W45984  28.548   5.944   3.141
81000W        W45985  14.291  36.548   1.239
81001W        W45986  35.071   5.183   4.577
81002W        W45987   5.478  34.025   0.356
81003W        W45988  43.291   0.678  13.410
81004W        W45989   9.140  13.621   0.797
81005W        W45990  11.115   7.785   3.593
81006W        W45991  35.968  27.860  12.568
81007W        W45992  42.350   6.812   2.887
81008W        W45993  22.123  24.706  11.157
81009W        W45994  12.821  32.396   3.638
81010W        W45995  18.920  37.091   3.826
81011W        W45996  17.274  18.867  13.408
81012W        W45997  39.397  12.142   1.120
81013W        W45998   9.005  15.882   3.701
81014W        W45999  10.139  12.728   2.653
81015W        W46000  18.642  20.487   2.544
81016W        W46001  35.862  44.210  11.088
81017W        W46002   8.358  35.099  10.728
81018W        W46003  36.383  34.018  14.729
81019W        W46004  37.538  32.016   3.672
81020W        W46005   3.438  28.711  14.370
81021W        W46006  16.200   6.202   0.454
81022W        W46007  40.633  34.947   0.346
81023W        W46008  30.180  19.747   4.567
81024W        W46009  43.899   6.226  10.643
81025W        W46010   5.264  12.082  11.160
81026W        W46011  34.535  10.695   3.658
81027W        W46012  26.396  33.576   0.715
81028W        W46013  36.060  41.971   3.082
81029W        W46014  41.591  40.361  12.443
81030W        W46015  40.038  20.872   1.735
81031W        W46016  30.794  37.969  13.948
81032W        W46017   6.249  42.357   2.642
81033W        W46018  37.316  11.697  11.701
81034W        W46019  26.334  17.163   4.716
81035W        W46020  34.742  22.614   3.290
81036W        W46021  21.935  36.291  14.828
81037W        W46022  29.490  19.156  11.418
81038W        W46023   5.259  39.894   2.704
81039W        W46024  27.741   5.595   4.409
81040W        W46025  40.015  32.157   4.075
81041W        W46026  33.878  22.143   4.909
81042W        W46027  16.438  15.161  13.964
81043W        W46028   5.225  12.355   0.722
81044W        W46029   0.543   2.709   0.842
81045W        W46030  14.526  42.437   0.355
81046W        W46031  14.369  37.974   0.595
81047W        W46032  37.253  12.896  11.976
81048W        W46033  13.293  35.914  10.948
81049W        W46034  43.380  41.595  12.718
81050W        W46035   1.244  38.893   1.347
81051W        W46036  40.338   0.556  13.688
81052W        W46037  21.009  12.067   2.398
81053W        W46038  40.025  37.347  12.768
81054W        W46039  38.499  26.723   2.819
81055W        W46040  39.722   7.322   0.888
81056W        W46041  39.495  24.527  13.222
81057W        W46042  28.118  43.231  11.615
81058W        W46043   3.789  30.820  10.177
81059W        W46044  25.409  34.845  12.296
81060W        W46045  12.255  19.489  12.038
81061W        W46046  36.537  30.735   3.290
81062W        W46047  14.068  38.384   0.666
81063W        W46048   2.655  25.064   0.219
81064W        W46049  12.279   9.741  12.942
81065W        W46050  38.001   8.468   1.477
81066W        W46051  17.910   7.168   2.799
81067W        W46052  44.715  38.293   2.497
81068W        W46053  14.171  36.832   2.251
81069W        W46054  24.490  37.504  10.746
81070W        W46055  24.734  13.691   1.345
81071W        W46056   4.935  21.586   1.212
81072W        W46057   6.434  12.320   4.550
81073W        W46058   6.753  22.663   4.292
81074W        W46059  31.750  19.208   3.552
81075W        W46060  13.825  33.990  14.991
81076W        W46061  30.427  37.390  14.997
81077W        W46062  41.773  39.089  11.188
81078W        W46063  40.892   1.728  14.858
81079W        W46064  39.499  41.857  14.179
81080W        W46065  37.484  33.886   2.899
81081W        W46066  19.064  15.223   1.437
81082W        W46067  24.793  39.327   3.317
81083W        W46068  22.266  14.414   3.442
81084W        W46069   8.295  39.934  10.895
81085W        W46070  42.323  13.638   1.070
81086W        W46071  29.036   5.165  13.919
81087W        W46072  36.748  23.869  10.748
81088W        W46073  16.632   1.940  14.455
81089W        W46074   3.514  20.806   0.304
81090W        W46075   8.211  40.057   1.543
81091W        W46076   6.683  30.103  12.529
81092W        W46077  30.959  42.092   0.211
81093W        W46078  31.588  37.680   4.826
81094W        W46079  17.185  11.384  13.545
81095W        W46080  36.071   1.851   1.845
81096W        W46081   9.291  22.914  12.471
81097W        W46082   1.296  16.555   3.284
81098W        W46083  23.859   2.944   2.266
81099W        W46084  24.992  27.750   2.413
81100W        W46085  38.040  22.512   2.270
81101W        W46086   3.768  18.319  11.524
81102W        W46087  24.168  11.119  10.628
81103W        W46088  29.799   2.377   1.280
81104W        W46089  19.252   2.547   3.035
81105W        W46090  24.113  16.791   2.821
81106W        W46091  14.635  20.527   3.790
81107W        W46092  12.058  28.929   3.527
81108W        W46093  37.170   6.206   3.647
81109W        W46094  16.251  13.999  13.332
81110W        W46095  40.819  33.522  10.749
81111W        W46096  19.729  34.985  11.805
81112W        W46097   7.275   8.207  12.569
81113W        W46098  10.144   4.712   4.193
81114W        W46099   8.752  25.532  11.159
81115W        W46100  34.119  36.587   3.091
81116W        W46101   4.133   0.914  12.046
81117W        W46102  21.480  10.798   2.000
81118W        W46103  40.702  37.983  11.022
81119W        W46104  29.506  24.525   2.936
81120W        W46105  44.106  13.220   5.301
81121W        W46106  17.210  20.275  14.440
81122W        W46107   0.287   8.255  13.321
81123W        W46108   3.031  13.679   3.391
81124W        W46109  12.688   3.466  11.249
81125W        W46110   7.171  30.017   2.639
81126W        W46111   1.185  21.230  12.185
81127W        W46112   6.706  39.951   0.891
81128W        W46113  40.246   7.465  11.437
81129W        W46114   7.282   2.234   0.805
81130W        W46115  16.882   8.283  11.503
81131W        W46116  30.394  38.667   3.578
81132W        W46117  22.216  39.501   3.400
81133W        W46118  34.921   5.928  13.562
81134W        W46119  18.762  20.237  12.274
81135W        W46120  32.609  23.015  11.853
81136W        W46121   4.845   3.449   3.415
81137W        W46122   9.718   4.757   4.957
81138W        W46123  25.025  20.625  10.451
81139W        W46124   3.249  44.095   0.244
81140W        W46125  35.294  33.516   3.640
81141W        W46126  18.903   6.721  13.406
81142W        W46127  16.114  15.653  12.125
81143W        W46128  16.166  43.389  14.791
81144W        W46129  13.815   6.306   0.720
81145W        W46130   6.393  34.789  12.381
81146W        W46131   6.396   7.258   1.771
81147W        W46132  35.457  19.341  12.535
81148W        W46133   3.422  42.964  11.322
81149W        W46134   9.531  20.536  10.506
81150W        W46135  25.051   1.288   0.623
81151W        W46136   9.783  44.204   0.371
81152W        W46137  10.176  13.792  11.979
81153W        W46138  38.088  36.372  13.608
81154W        W46139  42.439   9.105  11.575
81155W        W46140  41.654  38.089   2.701
81156W        W46141   1.941   0.783  13.874
81157W        W46142  25.086  15.540   0.769
81158W        W46143  43.055  13.424   2.544
81159W        W46144  22.766  23.700  10.366
81160W        W46145  15.259   8.926  13.398
81161W        W46146  35.870  25.083   1.146
81162W        W46147   5.219  12.158   4.646
81163W        W46148   4.412   7.753  14.056
81164W        W46149  37.832  21.523  12.106
81165W        W46150  14.771  24.507  14.876
81166W        W46151  33.435  29.370  10.616
81167W        W46152  20.331  34.375   4.311
81168W        W46153   3.040  38.866  13.782
81169W        W46154  30.237  16.226   3.557
81170W        W46155  38.205  34.872   1.794
81171W        W46156  37.945  38.252   4.538
81172W        W46157  36.959  37.963   0.788
81173W        W46158   9.644  31.119  13.958
81174W        W46159   0.761  27.874  14.767
81175W        W46160  31.617  17.725   5.124
81176W        W46161  21.201   2.924   1.133
81177W        W46162  44.652  43.115   2.753
81178W        W46163  24.027   7.297   4.797
81179W        W46164  36.546  18.421   1.793
81180W        W46165  28.211  34.883   4.904
81181W        W46166   8.317  14.824   4.300
81182W        W46167   7.696  35.298  11.147
81183W        W46168   6.483  12.652  11.686
81184W        W46169  36.487  23.557  12.593
81185W        W46170  28.385  43.752   3.047
81186W        W46171  24.359  18.395   3.901
81187W        W46172   5.382  26.574   1.719
81188W        W46173  36.048  40.869   4.710
81189W        W46174   0.457  39.733  13.029
81190W        W46175  35.944  36.462  12.365
81191W        W46176  30.393  22.154   3.243
81192W        W46177  36.756   3.904   0.963
81193W        W46178   4.251   9.330  13.083
81194W        W46179   2.113  23.077   1.446
81195W        W46180   1.960  35.130  12.962
81196W        W46181  44.931  32.766  14.229
81197W        W46182   1.681  43.408   4.630
81198W        W46183  29.574  19.113   0.692
81199W        W46184   7.280  29.682  13.472
81200W        W46185   4.262   4.438  12.879
81201W        W46186  38.505  35.361   2.689
81202W        W46187   5.873   2.496   0.068
81203W        W46188  41.557   1.918   4.542
81204W        W46189  33.341   9.839   0.554
81205W        W46190  38.191  35.576   4.564
81206W        W46191  37.444   5.674  12.129
81207W        W46192  28.531  29.652  10.605
81208W        W46193  18.988  41.944  10.692
81209W        W46194  26.614  20.717  13.043
81210W        W46195  29.188   1.221  10.559
81211W        W46196  12.246  16.116  12.156
81212W        W46197  33.599   3.957   5.001
81213W        W46198   0.238   0.261  13.933
81214W        W46199  28.629  25.656  12.659
81215W        W46200  44.051  11.841   4.112
81216W        W46201  13.076  39.971   0.280
81217W        W46202  38.906   3.506  13.914
81218W        W46203  22.707  17.903  12.314
81219W        W46204  44.388  15.729   1.437
81220W        W46205  14.272  28.218  14.619
81221W        W46206  22.723  27.132   0.472
81222W        W46207  20.506   9.850  13.540
81223W        W46208   2.353  37.656   4.733
81224W        W46209  31.927   7.829  14.396
81225W        W46210  41.504  30.331   2.295
81226W        W46211  11.845  32.103  12.161
81227W        W46212  32.394  13.262  12.397
81228W        W46213  25.439  24.050  13.207
81229W        W46214  25.258  24.837   1.346
81230W        W46215  15.671   9.202   3.531
81231W        W46216   6.946  30.221   0.450
81232W        W46217  38.128  21.220  10.797
81233W        W46218  39.368   0.405  11.011
81234W        W46219  41.547  22.245   4.998
81235W        W46220   7.425  30.855  12.039
81236W        W46221  44.247  32.963   4.295
81237W        W46222   4.337   0.817   0.237
81238W        W46223  33.168  40.062   0.020
81239W        W46224   7.051  44.052  13.343
81240W        W46225  15.306  29.635   2.224
81241W        W46226  42.213  37.430  12.571
81242W        W46227  34.356  44.946   2.761
81243W        W46228  15.614  41.360   3.570
81244W        W46229   1.043  28.018   1.663
81245W        W46230   2.729  24.292  12.448
81246W        W46231  39.001   8.857   0.884
81247W        W46232   6.950  22.282   2.699
81248W        W46233   9.663  10.835   0.343
81249W        W46234  29.770  16.960   5.029
81250W        W46235  19.736  43.416   2.789
81251W        W46236  11.054  30.057  14.423
81252W        W46237  26.988  11.193   2.873
81253W        W46238   7.387  16.315   0.887
81254W        W46239  11.977  30.086  11.264
81255W        W46240  13.224   2.147   1.893
81256W        W46241  38.402  40.395  14.559
81257W        W46242  15.780  14.321  10.661
81258W        W46243  42.891   1.281   3.913
81259W        W46244  36.441  41.003   1.943
81260W        W46245  26.040   4.486   2.750
81261W        W46246  19.715  28.590   4.579
81262W        W46247   5.961  42.966   4.898
81263W        W46248  35.940   9.287   4.650
81264W        W46249  16.762  23.675  14.935
81265W        W46250  40.261   4.865  10.465
81266W        W46251  12.619  33.742   2.920
81267W        W46252  26.193  24.721   2.800
81268W        W46253  37.369  36.806  13.976
81269W        W46254  33.904  38.168   2.743
81270W        W46255  18.298  18.006  13.880
81271W        W46256  27.247  25.898  11.965
81272W        W46257  11.187  27.808   4.554
81273W        W46258  36.834   6.629  11.063
81274W        W46259  22.823  20.687   1.341
81275W        W46260   6.574  39.887  10.676
81276W        W46261  18.958  36.127  13.701
81277W        W46262  30.512  24.911  11.097
81278W        W46263  27.554  37.117  14.740
81279W        W46264  15.644  12.653  12.662
81280W        W46265  17.195  16.911  14.396
81281W        W46266   9.106  16.780  11.602
81282W        W46267   2.870  31.437  10.682
81283W        W46268  41.385  22.683   3.495
81284W        W46269  15.137  29.125  13.062
81285W        W46270  34.528  23.948  11.963
81286W        W46271  11.888  10.844   2.264
81287W        W46272  22.915  20.064  11.961
81288W        W46273  26.599  33.646   9.985
81289W        W46274  19.199  42.969  11.637
81290W        W46275  16.216   0.834   0.851
81291W        W46276  30.767  25.647   1.040
81292W        W46277  33.906   7.708  13.896
81293W        W46278  34.851  13.276  10.562
81294W        W46279   0.731   3.214  11.292
81295W        W46280  30.932  35.434  10.830
81296W        W46281  24.255  14.280  10.821
81297W        W46282  22.508  30.465   5.044
81298W        W46283  27.036  10.432  14.313
81299W        W46284  27.688  28.953   1.238
81300W        W46285   8.363  28.132   2.343
81301W        W46286  12.149   1.417   2.884
81302W        W46287  42.012  14.326  13.300
81303W        W46288   5.083  33.850  10.783
81304W        W46289  16.760   2.884   0.676
81305W        W46290  33.065  13.903  13.824
81306W        W46291   2.006  40.933  11.763
81307W        W46292  41.451   4.929  14.501
81308W        W46293  19.524   6.210  11.893
81309W        W46294  24.036  28.454   4.145
81310W        W46295   2.147   4.453   2.312
81311W        W46296   9.287  42.693  14.690
81312W        W46297  21.182   5.156  13.901
81313W        W46298  20.160  36.825  12.849
81314W        W46299  13.176   6.739  13.170
81315W        W46300  35.509  19.287   3.110
81316W        W46301  21.992  34.429  14.909
81317W        W46302  12.172  20.302   0.636
81318W        W46303  25.467  43.013   4.157
81319W        W46304  19.682  32.418  14.009
81320W        W46305  25.940  40.898  13.402
81321W        W46306   7.812  42.990  12.955
81322W        W46307  36.431  17.559   1.899
81323W        W46308  11.178  39.560   2.657
81324W        W46309  43.707  32.888   3.021
81325W        W46310   6.255  31.087  13.594
81326W        W46311  24.197  34.198   4.487
81327W        W46312  11.454  18.617  13.098
81328W        W46313  17.768  12.812   0.857
81329W        W46314  12.291   6.676   4.798
81330W        W46315  39.087  39.555   0.157
81331W        W46316  30.500  20.029   2.782
81332W        W46317   8.384  28.576   4.138
81333W        W46318  28.001  42.076   0.986
81334W        W46319  16.219  35.925   0.791
81335W        W46320  22.710  41.525   1.361
81336W        W46321  23.426  13.862   4.579
81337W        W46322  14.860  21.318   4.185
81338W        W46323  43.891   3.266  14.909
81339W        W46324  34.530  11.210  12.895
81340W        W46325  40.394  15.693  11.783
81341W        W46326  15.819  20.342   0.053
81342W        W46327  22.058  11.567  10.710
81343W        W46328  11.198  16.705   1.505
81344W        W46329   9.869  10.822   2.264
81345W        W46330   0.321  22.277  10.475
81346W        W46331  31.955   2.684  14.053
81347W        W46332  16.040   4.279   0.759
81348W        W46333  12.130  41.765  10.647
81349W        W46334  22.171  41.722   3.049
81350W        W46335  23.098  13.343   3.167
81351W        W46336  41.635  36.202   4.815
81352W        W46337  19.635   0.424  13.156
81353W        W46338   3.374  32.225  10.650
81354W        W46339  11.811  37.308   1.844
81355W        W46340  27.968  43.484  12.923
81356W        W46341   0.810  18.330  13.418
81357W        W46342  33.993  35.333   2.802
81358W        W46343  35.178  14.144   4.544
81359W        W46344  30.807   2.638   3.248
81360W        W46345   8.982  19.070   1.337
81361W        W46346  36.383  25.016   1.228
81362W        W46347  16.413   7.527  11.482
81363W        W46348  20.116  38.051   3.367
81364W        W46349  13.801  18.647   4.377
81365W        W46350  12.290   3.904   0.791
81366W        W46351  24.701   3.372   1.172
81367W        W46352  38.356  21.040  13.329
81368W        W46353  40.087  37.475  11.837
81369W        W46354  18.067  24.504  13.376
81370W        W46355  16.992  12.697  12.399
81371W        W46356  10.390  22.168   2.710
81372W        W46357  21.185   8.347  10.864
81373W        W46358  25.306  34.423   2.808
81374W        W46359  13.793   5.603  13.744
81375W        W46360  44.377   7.669  12.128
81376W        W46361   6.337   8.618  11.927
81377W        W46362  17.367  13.238   1.784
81378W        W46363  10.729  26.595  12.925
81379W        W46364  43.033  18.473  13.558
81380W        W46365  32.452  10.219  12.140
81381W        W46366  31.365  14.482   4.882
81382W        W46367  27.093  12.658  11.237
81383W        W46368  12.167  17.723   0.245
81384W        W46369   1.235  23.675   4.744
81385W        W46370  41.455   7.240  11.221
81386W        W46371  24.217   1.412  12.240
81387W        W46372  32.929  41.227   5.123
81388W        W46373  21.656   2.766   3.257
81389W        W46374   1.674   8.837  13.899
81390W        W46375  34.793  27.013   3.098
81391W        W46376  44.048  26.167  11.148
81392W        W46377  26.233  25.164  14.396
81393W        W46378   1.954  24.167  12.183
81394W        W46379  35.313  30.691  11.146
81395W        W46380  30.656  38.963  13.134
81396W        W46381  24.652  15.707   4.077
81397W        W46382  12.592   7.261  10.625
81398W        W46383  24.108  28.850  13.015
81399W        W46384  18.306  40.314   2.402
81400W        W46385  13.641  18.031  14.508
81401W        W46386   9.119   7.696  12.092
81402W        W46387  20.760  22.729   3.868
81403W        W46388  29.558  44.299   2.872
81404W        W46389  28.942  14.883   0.793
81405W        W46390  27.510  41.265  12.434
81406W        W46391  39.460  41.149   4.310
81407W        W46392  37.534   4.739  14.054
81408W        W46393  28.186   3.788  13.554
81409W        W46394   0.253   2.503  13.720
81410W        W46395   0.713   8.006  12.161
81411W        W46396  36.953   4.955   4.056
81412W        W46397  28.053   5.456   2.784
81413W        W46398   4.919  23.900  10.957
81414W        W46399  26.183   3.745  13.392
81415W        W46400  18.964  33.951  14.894
81416W        W46401  23.980  44.524  12.907
81417W        W46402  27.705  14.204   0.854
81418W        W46403  40.758   9.689   1.951
81419W        W46404  13.097   3.282   4.596
81420W        W46405  39.213  14.651  12.191
81421W        W46406   0.466  12.108   3.401
81422W        W46407  20.590  20.761   4.619
81423W        W46408  13.046  17.222  11.225
81424W        W46409   9.722   9.179   3.203
81425W        W46410  11.793  40.491   4.562
81426W        W46411  16.407   1.948   3.764
81427W        W46412   3.179  36.528   4.097
81428W        W46413   1.404   1.486  12.966
81429W        W46414  20.062   0.769  13.389
81430W        W46415  24.895  22.517  10.515
81431W        W46416  44.274  15.234   1.751
81432W        W46417   2.877  30.156  14.401
81433W        W46418  15.584  16.568  13.753
81434W        W46419   2.804  16.378   4.512
81435W        W46420  21.266   1.946  14.548
81436W        W46421  17.873   2.113   4.602
81437W        W46422  20.664   7.848  14.774
81438W        W46423  23.171  17.959   4.142
81439W        W46424   2.814  24.728   2.721
81440W        W46425   0.354  33.703   4.599
81441W        W46426  11.176  28.140   4.160
81442W        W46427  22.584   5.938   1.579
81443W        W46428   1.246  29.937  10.519
81444W        W46429  40.959   0.669  12.587
81445W        W46430   1.346  33.459  14.258
81446W        W46431   2.479  23.013   4.534
81447W        W46432  39.090   4.821   2.421
81448W        W46433  35.923   5.204  12.876
81449W        W46434   3.168  33.908  12.463
81450W        W46435  10.859  26.101   0.338
81451W        W46436   9.422  12.949  10.433
81452W        W46437  26.338  37.312   2.637
81453W        W46438  15.762  26.082  12.439
81454W        W46439  29.349  13.111  14.274
81455W        W46440  42.357  16.855   2.779
81456W        W46441  13.076  42.092  13.855
81457W        W46442  42.983  33.547   2.363
81458W        W46443  19.248   2.947  11.202
81459W        W46444  37.096   9.375  14.434
81460W        W46445   8.401  28.779  11.991
81461W        W46446  33.159  32.748   2.780
81462W        W46447  36.388   2.807   1.409
81463W        W46448  29.943   2.768  14.227
81464W        W46449   2.311  41.466   4.746
81465W        W46450  25.072  38.477  13.760
81466W        W46451   9.931   1.981   2.081
81467W        W46452  24.137  36.153  14.281
81468W        W46453  37.599  16.811   4.578
81469W        W46454  17.653  24.018  13.996
81470W        W46455  15.994  18.564   4.611
81471W        W46456   3.704  40.322  14.405
81472W        W46457  41.590  42.859  13.673
81473W        W46458   9.377  16.544   4.730
81474W        W46459  26.307   4.661  11.174
81475W        W46460  44.440  11.370  14.800
81476W        W46461  11.820   8.925  11.452
81477W        W46462  43.345  44.794  14.520
81478W        W46463  36.811  36.091   1.558
81479W        W46464   5.858  24.509   2.826
81480W        W46465   2.798   0.821   4.364
81481W        W46466  30.346  34.063  12.987
81482W        W46467  42.834  43.785   3.729
81483W        W46468  40.620  44.587   4.832
81484W        W46469  30.260  11.433   4.978
81485W        W46470  39.538  32.589   1.617
81486W        W46471  36.004  40.297   0.937
81487W        W46472  38.691   9.731  10.624
81488W        W46473  30.169  22.435  11.237
81489W        W46474  27.003   7.833   2.827
81490W        W46475  19.662  13.304   4.968
81491W        W46476  19.550  33.632  11.625
81492W        W46477   3.475  27.627   1.403
81493W        W46478  16.156  33.650   0.705
81494W        W46479   8.561  22.663  10.702
81495W        W46480  39.026  14.641   1.628
81496W        W46481   8.138   7.824   2.703
81497W        W46482  21.839  28.418  14.437
81498W        W46483  39.239   6.230  11.288
81499W        W46484  15.114  13.913  11.131
81500W        W46485  14.860  14.556   2.695
81501W        W46486  19.267   3.419  10.944
81502W        W46487   1.412  33.969  12.168
81503W        W46488  41.837   8.149  13.489
81504W        W46489  12.803  13.202  10.679
81505W        W46490  36.869   1.230   3.630
81506W        W46491  37.602   9.999   9.873
81507W        W46492  23.246  12.780   2.791
81508W        W46493  29.398  10.126   2.646
81509W        W46494  26.067  33.414   4.186
81510W        W46495  43.188  21.739   2.690
81511W        W46496   5.834  40.180  10.932
81512W        W46497  28.483  31.031   1.780
81513W        W46498  12.922  16.675  12.532
81514W        W46499  17.365   1.321  12.543
81515W        W46500   2.262  39.324  11.165
81516W        W46501  11.380  16.200   4.041
81517W        W46502   6.339  23.716   4.209
81518W        W46503  26.554  18.420  14.866
81519W        W46504  20.981  35.828   3.211
81520W        W46505  13.818  11.713   3.073
81521W        W46506   0.261  38.626   1.064
81522W        W46507  24.596  25.177   1.270
81523W        W46508  34.546  36.574   3.945
81524W        W46509  19.480  16.292  10.347
81525W        W46510   5.366  18.795  11.552
81526W        W46511   5.315  37.474  10.093
81527W        W46512  35.153  16.298   3.669
81528W        W46513   3.694  22.223   1.213
81529W        W46514  39.896  24.528   2.014
81530W        W46515   7.178   1.407   4.123
81531W        W46516   9.475  14.635  12.842
81532W        W46517  17.231  27.224   1.361
81533W        W46518   1.772  21.269   2.598
81534W        W46519   5.291  11.467  10.472
81535W        W46520  18.249  17.191  11.991
81536W        W46521  44.241  19.607   2.768
81537W        W46522  30.581  32.583   2.906
81538W        W46523   5.763  44.342   2.672
81539W        W46524   8.870  14.837   1.220
81540W        W46525   8.771  22.682  14.367
81541W        W46526  34.567   4.586  13.633
81542W        W46527  23.314  25.785   0.226
81543W        W46528   5.785  28.005  12.504
81544W        W46529  23.252  13.554  12.824
81545W        W46530  42.993   5.717   2.697
81546W        W46531   1.329  42.997  13.058
81547W        W46532  25.130  27.413  10.710
81548W        W46533  10.210  35.873  10.799
81549W        W46534  24.784  21.180  12.933
81550W        W46535  30.586   1.698  12.010
81551W        W46536  39.269  26.429  12.287
81552W        W46537  24.212  27.586   1.758
81553W        W46538  29.989  29.815  11.319
81554W        W46539  18.677   7.617   2.743
81555W        W46540   3.214  24.635   3.191
81556W        W46541  41.892  28.606  13.565
81557W        W46542  16.940  23.474  13.955
81558W        W46543  30.933  31.633   0.899
81559W        W46544  21.914   2.988   5.160
81560W        W46545  44.294   5.327   0.379
81561W        W46546  21.342  33.528  14.845
81562W        W46547   4.485  20.755   0.411
81563W        W46548  24.766  17.235   4.629
81564W        W46549   2.396   5.364   3.816
81565W        W46550  25.584  34.343   0.969
81566W        W46551  36.828  36.623   1.412
81567W        W46552  19.689  19.224  11.222
81568W        W46553  30.034  36.457  11.705
81569W        W46554  41.955  29.997  12.689
81570W        W46555  35.639   6.632  12.140
81571W        W46556  41.903  11.208  14.550
81572W        W46557   6.964  24.154  12.971
81573W        W46558  16.431   9.342  14.761
81574W        W46559   3.333  19.075  13.228
81575W        W46560   9.491  10.957  13.168
81576W        W46561  41.787  16.619   3.864
81577W        W46562  18.437  28.093   2.954
81578W        W46563   9.320   1.684   0.224
81579W        W46564   7.227  41.280  14.568
81580W        W46565   5.032  17.031   3.168
81581W        W46566  32.802  39.631  11.094
81582W        W46567  38.911  24.287   1.738
81583W        W46568  20.361  30.170  13.266
81584W        W46569  17.058  10.748  12.408
81585W        W46570  35.749  32.508   1.438
81586W        W46571  35.994   8.379  13.423
81587W        W46572  16.300  20.553   3.022
81588W        W46573   0.515  26.696   1.630
81589W        W46574  28.616  27.582   4.656
81590W        W46575  20.519  33.381  12.566
81591W        W46576  16.294  40.414  13.817
81592W        W46577  23.819  29.450  11.013
81593W        W46578  29.380   9.198   0.783
81594W        W46579  30.084  28.730  14.711
81595W        W46580  30.675  25.293   4.071
81596W        W46581  25.994   3.953  11.391
81597W        W46582  42.011  19.644  10.701
81598W        W46583  40.270  13.606  13.903
81599W        W46584  44.424  17.149   4.856
81600W        W46585  17.482  38.754  10.196
81601W        W46586   1.287  24.627   4.654
81602W        W46587  11.334  12.530  14.577
81603W        W46588   9.187  16.963   0.568
81604W        W46589   4.027   7.091   4.614
81605W        W46590  33.605  33.305   4.123
81606W        W46591  39.921   0.753  12.870
81607W        W46592  39.784  30.615  11.442
81608W        W46593  12.825  25.935   4.167
81609W        W46594  36.381   7.362   0.025
81610W        W46595  22.396  17.920  12.722
81611W        W46596   7.398   0.299   3.981
81612W        W46597   8.141  13.212  12.572
81613W        W46598  16.367   5.973  13.439
81614W        W46599  39.473   5.250   0.329
81615W        W46600  10.769  13.121   1.948
81616W        W46601  16.635  35.557   4.568
81617W        W46602  25.163  42.225   4.183
81618W        W46603  27.236  26.447  14.221
81619W        W46604   0.004  23.507   3.740
81620W        W46605  35.446  36.639  14.806
81621W        W46606  26.021  43.912  11.665
81622W        W46607  39.389  34.496  13.075
81623W        W46608   7.096  41.557  12.092
81624W        W46609  37.075  14.827   1.194
81625W        W46610  24.913   8.427  13.078
81626W        W46611  40.664  44.978   2.004
81627W        W46612  35.616  23.700  12.524
81628W        W46613  10.832  37.885   1.831
81629W        W46614  17.349  10.480   3.741
81630W        W46615  18.085  42.429  13.103
81631W        W46616  11.321  38.359   0.158
81632W        W46617  20.234  35.283   4.514
81633W        W46618   5.101   6.726  12.471
81634W        W46619  18.729  23.967   3.682
81635W        W46620  18.280  39.940  13.095
81636W        W46621  22.745   3.411   5.111
81637W        W46622  31.453   8.005   2.673
81638W        W46623  39.942  36.641   1.945
81639W        W46624  23.773  10.260   4.571
81640W        W46625   5.882   4.221  11.214
81641W        W46626   2.258  34.971   1.754
81642W        W46627  28.573  12.685  13.141
81643W        W46628  15.036  27.822  12.579
81644W        W46629  41.006  13.812   0.040
81645W        W46630   4.872  19.171  12.419
81646W        W46631  37.022  38.969   1.400
81647W        W46632   9.448  27.493   4.054
81648W        W46633  19.414  41.743   4.637
81649W        W46634  21.747   9.779   1.833
81650W        W46635  44.991  40.539  12.199
81651W        W46636  23.248   3.709  13.490
81652W        W46637  41.624  27.941  13.822
81653W        W46638  43.559  24.608  10.593
81654W        W46639  26.934  44.068   3.065
81655W        W46640  39.208  37.107   4.400
81656W        W46641  17.256   7.258  13.075
81657W        W46642  32.452  34.411   2.152
81658W        W46643   3.258  13.636  13.748
81659W        W46644  36.351  26.656   1.671
81660W        W46645  32.434   1.214   1.395
81661W        W46646  42.677  37.430  10.768
81662W        W46647  10.934  34.407  14.350
81663W        W46648  23.946  16.323  11.532
81664W        W46649  20.253  40.524  14.314
81665W        W46650  12.697  20.114  10.710
81666W        W46651  44.428  38.445  14.474
81667W        W46652  27.041  14.724   3.149
81668W        W46653   5.679  23.752  12.138
81669W        W46654   2.178  41.119  13.949
81670W        W46655  14.452  22.058   3.272
81671W        W46656   9.388  42.969   2.840
81672W        W46657  21.704  18.499   5.397
81673W        W46658  44.397  29.108  14.650
81674W        W46659  19.008  34.925  14.128
81675W        W46660  20.005  43.956  12.301
81676W        W46661  28.764  29.639   1.422
81677W        W46662  10.848   7.877   9.534
81678W        W46663   0.332  19.522   1.324
81679W        W46664   5.485   6.422  13.333
81680W        W46665  37.867  37.628   0.783
81681W        W46666  14.606  41.520   0.361
81682W        W46667   0.269  43.813  14.461
81683W        W46668  21.995   9.122   0.800
81684W        W46669  34.607  34.054  14.487
81685W        W46670  27.513   5.316  13.884
81686W        W46671  14.864   1.456   4.093
81687W        W46672  20.952  40.092  13.816
81688W        W46673  26.355  37.575  14.868
81689W        W46674  28.160  27.556   4.336
81690W        W46675  27.641  21.796  11.073
81691W        W46676  20.174  16.363  13.896
81692W        W46677  20.688  38.277  14.877
81693W        W46678  19.974   2.601   3.964
81694W        W46679   7.951   0.741   0.452
81695W        W46680  12.367   7.310   3.620
81696W        W46681   3.146  33.245  13.586
81697W        W46682  17.650  28.169   0.901
81698W        W46683  41.226  15.468  12.345
81699W        W46684  39.051   5.475   1.952
81700W        W46685   3.257  21.527   2.213
81701W        W46686   4.246  13.955  12.587
81702W        W46687   9.226  19.403  10.714
81703W        W46688  44.801  31.467  11.551
81704W        W46689  10.360  31.756  13.332
81705W        W46690  14.094  24.614   3.216
81706W        W46691  43.945  15.433  13.297
81707W        W46692  38.398  43.000  11.256
81708W        W46693  19.050  28.705   0.840
81709W        W46694  19.744  35.518   1.788
81710W        W46695  33.913  22.687  12.175
81711W        W46696  39.803  22.259   0.801
81712W        W46697  15.808  12.369  13.085
81713W        W46698  15.878  40.678   2.410
81714W        W46699  25.173  29.330   4.158
81715W        W46700  24.105  37.655   9.653
81716W        W46701  23.664  35.574   4.561
81717W        W46702  43.928   5.288   2.041
81718W        W46703  30.742  17.545  13.218
81719W        W46704  33.642   4.756  13.543
81720W        W46705  21.449   8.702   1.297
81721W        W46706  19.754  26.048   3.646
81722W        W46707  21.668   1.828   4.209
81723W        W46708  16.057  41.415   0.234
81724W        W46709  31.441  38.851   0.420
81725W        W46710   7.393  12.248  14.544
81726W        W46711  29.449   2.478  10.960
81727W        W46712  25.030  27.083   0.737
81728W        W46713  32.374  27.023  11.615
81729W        W46714  19.749   8.590   9.549
81730W        W46715  12.332  19.284   0.772
81731W        W46716   3.807  36.797  13.503
81732W        W46717  30.930  42.306  14.431
81733W        W46718  17.004  26.888   1.041
81734W        W46719   5.785  43.626   0.263
81735W        W46720   4.762   0.911   3.426
81736W        W46721  39.891   0.719   3.317
81737W        W46722  26.024  27.726   0.507
81738W        W46723  12.742  18.447  12.590
81739W        W46724  39.305  11.083  14.438
81740W        W46725   7.460  20.617   4.547
81741W        W46726  30.099  18.666   1.736
81742W        W46727   1.158   0.459   4.929
81743W        W46728  16.254   7.751   0.251
81744W        W46729  21.328  29.420   1.069
81745W        W46730  25.225  37.583  10.826
81746W        W46731   2.592  38.539  11.944
81747W        W46732  38.335   1.728  12.846
81748W        W46733   2.867  23.490  13.352
81749W        W46734  41.881  17.014  10.691
81750W        W46735  10.771  37.424   3.526
81751W        W46736  15.737   7.097  13.436
81752W        W46737  43.588  31.635   1.883
81753W        W46738  23.038  16.504  13.549
81754W        W46739   7.875   9.260   1.178
81755W        W46740   4.240  26.524   0.711
81756W        W46741  15.579   9.752  10.230
81757W        W46742  30.388  26.432  13.995
81758W        W46743  18.281  12.706   0.075
81759W        W46744  41.456  13.698  14.781
81760W        W46745   1.836  26.676  13.014
81761W        W46746  10.124  13.150  13.553
81762W        W46747  17.202  19.169  10.162
81763W        W46748  41.706  18.388  11.103
81764W        W46749  31.021   5.493   0.936
81765W        W46750  43.052  26.717   0.824
81766W        W46751  28.907  42.485   1.253
81767W        W46752  20.943  14.713  10.769
81768W        W46753   2.070  28.638  14.927
81769W        W46754  37.992  29.979   4.925
81770W        W46755  22.066   5.290   4.800
81771W        W46756  25.178  27.050   3.573
81772W        W46757  38.935  21.324  10.728
81773W        W46758  31.005  36.202   0.806
81774W        W46759  36.943  27.190   1.446
81775W        W46760  42.662  10.484   4.969
81776W        W46761  33.648  25.508  11.534
81777W        W46762  34.099  36.000  13.854
81778W        W46763   2.333   6.875   3.682
81779W        W46764  26.106  35.167  14.946
81780W        W46765  40.841  33.721   5.409
81781W        W46766   5.283  12.256  12.646
81782W        W46767   7.178  18.056  13.387
81783W        W46768  14.596  43.453   2.032
81784W        W46769  29.179  44.373   3.263
81785W        W46770  38.440  29.166  14.151
81786W        W46771  28.552  18.803  11.117
81787W        W46772  33.578  28.429  10.885
81788W        W46773   9.747   9.075   0.773
81789W        W46774   1.971   5.769  11.666
81790W        W46775  36.777  18.655  11.960
81791W        W46776  42.719   3.257   2.799
81792W        W46777   3.018   6.843  14.747
81793W        W46778  20.491  16.057  12.156
81794W        W46779   0.932  34.181  14.814
81795W        W46780  37.369  37.490  10.740
81796W        W46781  43.478   1.699  14.443
81797W        W46782   6.132  19.321   0.300
81798W        W46783   8.736  23.406   2.923
81799W        W46784  33.405  25.930  13.594
81800W        W46785   0.047  13.747   4.910
81801W        W46786  13.769  13.717   2.500
81802W        W46787  10.430   2.995  12.253
81803W        W46788  35.019   8.504  14.206
81804W        W46789  21.248  17.794  12.806
81805W        W46790  10.737  30.467  13.092
81806W        W46791  10.592  22.529   2.380
81807W        W46792  20.248  24.092   2.469
81808W        W46793  39.964  38.452  11.727
81809W        W46794  26.139  41.002   1.725
81810W        W46795   8.654  17.254   1.698
81811W        W46796  34.315  19.354   2.291
81812W        W46797   2.332   4.860  14.427
81813W        W46798  44.941  10.923   2.585
81814W        W46799   8.676  31.368   1.150
81815W        W46800  23.612  22.313   3.117
81816W        W46801  42.404  39.121  10.203
81817W        W46802  16.951  33.478   0.226
81818W        W46803  43.223  41.448   3.687
81819W        W46804  25.039  42.873  14.849
81820W        W46805  32.637  32.966  12.476
81821W        W46806  32.517  22.645   4.058
81822W        W46807   9.711   3.046   3.713
81823W        W46808   8.325   2.493  13.301
81824W        W46809  36.584  20.460   4.116
81825W        W46810  15.164  30.634  11.949
81826W        W46811   7.278   6.970   5.032
81827W        W46812  40.903  13.535  12.576
81828W        W46813  36.334  31.237   3.168
81829W        W46814  44.529  36.831  11.436
81830W        W46815  33.409  38.234  11.584
81831W        W46816  19.594  14.424  10.771
81832W        W46817   8.451  13.301   3.367
81833W        W46818  23.456   1.103  12.190
81834W        W46819  21.132  25.900  12.041
81835W        W46820  14.531   0.759  10.741
81836W        W46821  22.578  10.984   2.378
81837W        W46822  29.063  19.543  11.216
81838W        W46823  35.956  40.294  12.682
81839W        W46824  42.428  29.984  11.134
81840W        W46825  20.470  10.586   4.256
81841W        W46826  31.573  23.622   3.525
81842W        W46827  10.398  22.928  12.202
81843W        W46828  27.041  44.499  10.431
81844W        W46829  42.588   1.811  14.638
81845W        W46830  31.619   9.617   9.942
81846W        W46831  30.641  17.724   2.612
81847W        W46832  39.322  20.270  14.570
81848W        W46833  32.033  10.228  12.853
81849W        W46834  11.208  36.578  10.788
81850W        W46835  42.535   1.022  10.594
81851W        W46836  29.047  23.952  13.471
81852W        W46837   6.440  19.981   2.246
81853W        W46838  39.456  21.028   1.632
81854W        W46839  26.318  36.434   3.355
81855W        W46840  30.555  16.366   0.920
81856W        W46841  21.020  19.637   0.813
81857W        W46842  12.336  20.585   4.836
81858W        W46843  29.761   4.229   4.385
81859W        W46844  31.413  19.164   1.822
81860W        W46845  23.710  41.914  10.643
81861W        W46846   4.663  24.747  11.140
81862W        W46847  37.505  20.637   2.925
81863W        W46848  21.898   6.717   2.593
81864W        W46849  29.353  40.835  11.198
81865W        W46850  31.122  26.176  14.406
81866W        W46851  33.420  23.671   4.041
81867W        W46852  18.106  26.180  14.002
81868W        W46853  29.156   4.917  12.660
81869W        W46854  21.712  24.800  13.903
81870W        W46855  25.523  29.927  13.392
81871W        W46856   0.514  16.503  14.845
81872W        W46857   7.670  34.655  12.053
81873W        W46858   0.853  15.077   0.433
81874W        W46859  34.795  13.890   2.922
81875W        W46860   0.752  27.301   0.766
81876W        W46861  26.909  14.089   2.786
81877W        W46862  41.740   7.742  14.284
81878W        W46863  27.969  26.711  11.154
81879W        W46864  20.207  34.009   4.721
81880W        W46865  13.820  36.494   1.498
81881W        W46866   7.482  20.667  11.555
81882W        W46867  40.262  18.225   3.748
81883W        W46868  39.479  32.422   4.652
81884W        W46869  42.564  18.810   1.699
81885W        W46870  28.624  28.745   4.167
81886W        W46871  35.653  17.267  11.949
81887W        W46872  32.691  28.167   1.550
81888W        W46873  27.478  39.798  13.784
81889W        W46874  13.722  33.213  11.492
81890W        W46875  14.748   9.792  13.526
81891W        W46876  44.818  44.434  13.791
81892W        W46877  29.551   8.292   4.121
81893W        W46878  43.541   6.994  14.876
81894W        W46879   0.261  30.702  11.919
81895W        W46880  32.547   7.519   2.683
81896W        W46881  36.869  36.395   3.482
81897W        W46882   8.306  36.659   4.218
81898W        W46883  36.531  21.062  12.331
81899W        W46884  29.154  41.799  10.628
81900W        W46885  13.385  37.326  10.300
81901W        W46886  32.784  44.418  13.042
81902W        W46887  22.306  19.759   0.299
81903W        W46888  19.595  42.720   1.075
81904W        W46889  33.015   2.921   3.314
81905W        W46890   8.598   7.658   0.839
81906W        W46891  30.383  29.084   1.389
81907W        W46892   0.173  12.686  12.840
81908W        W46893  13.033   7.622  11.293
81909W        W46894   2.256  26.114   3.234
81910W        W46895   1.343  25.987  11.506
81911W        W46896  13.749  43.870  12.536
81912W        W46897  13.601  12.062  11.148
81913W        W46898   1.212  13.615   0.818
81914W        W46899  39.366  34.597   3.125
81915W        W46900  10.892   1.053   3.542
81916W        W46901  29.182  30.545   3.118
81917W        W46902  41.582   7.258  13.441
81918W        W46903  30.444   5.851   3.106
81919W        W46904  41.868  14.165  11.602
81920W        W46905  11.945  36.385  14.998
81921W        W46906  17.396  26.642  13.066
81922W        W46907  36.469  18.545   2.317
81923W        W46908  15.679  12.896   0.296
81924W        W46909  44.841  28.892  14.856
81925W        W46910  15.497  23.379   4.428
81926W        W46911  31.959  35.765   3.155
81927W        W46912   2.191  16.977   3.191
81928W        W46913   9.481  21.921  10.528
81929W        W46914  20.184   7.102  12.825
81930W        W46915  44.439  27.104   5.012
81931W        W46916  44.849  19.300   1.924
81932W        W46917  27.498  14.847   2.747
81933W        W46918  32.629  33.485   0.619
81934W        W46919  28.743   5.827  11.630
81935W        W46920  28.665   9.637  11.468
81936W        W46921  14.550  21.042   3.841
81937W        W46922  12.917  13.759   4.593
81938W        W46923  34.397   0.246   4.055
81939W        W46924  14.911  41.426   5.434
81940W        W46925  13.681  16.813  10.536
81941W        W46926  15.813   2.021   1.546
81942W        W46927  11.184  24.754  11.849
81943W        W46928  29.188  31.604  11.172
81944W        W46929  44.554  41.309  10.760
81945W        W46930  23.222   0.445  13.524
81946W        W46931  35.938  26.623  13.029
81947W        W46932  31.668   3.419   2.411
81948W        W46933   3.404   9.015   0.831
81949W        W46934   0.546  23.272  13.222
81950W        W46935  10.672  27.129  11.837
81951W        W46936   2.446   5.615   1.909
81952W        W46937  30.200   6.857  13.277
81953W        W46938  24.103  16.471   3.220
81954W        W46939  32.357   7.391  13.406
81955W        W46940  26.023   2.867   0.452
81956W        W46941  21.734  33.623  11.622
81957W        W46942  32.077  19.604   2.854
81958W        W46943  37.359  29.926  12.976
81959W        W46944  14.314  22.912   3.749
81960W        W46945  12.124  26.878   0.182
81961W        W46946  26.348   7.979  13.285
81962W        W46947  30.069  39.347   4.655
81963W        W46948   0.275  27.555   2.481
81964W        W46949  42.951  20.163   3.429
81965W        W46950   2.121  26.151  12.128
81966W        W46951   7.768   1.906   3.326
81967W        W46952  39.362   4.929  14.922
81968W        W46953  41.888  14.660   0.367
81969W        W46954  10.855  33.206   4.587
81970W        W46955  41.416   3.750  12.654
81971W        W46956  40.546  43.033   4.571
81972W        W46957  12.766  44.303  11.548
81973W        W46958  23.919   9.820   2.163
81974W        W46959  19.379  39.885   2.357
81975W        W46960   1.339  31.496  12.041
81976W        W46961  29.372  38.037   0.250
81977W        W46962  21.809  39.308  12.869
81978W        W46963  28.443   5.443   1.211
81979W        W46964  40.322  35.183  14.923
81980W        W46965   3.768  35.763  13.368
81981W        W46966  11.396   3.378   0.883
81982W        W46967  23.981  28.486  11.623
81983W        W46968  28.841  28.109   3.068
81984W        W46969  40.402  13.598   1.370
81985W        W46970  14.900  33.809   3.052
81986W        W46971  14.491  12.809  12.079
81987W        W46972  25.303  37.552  11.723
81988W        W46973  10.921   8.326  12.159
81989W        W46974   3.324   6.360   1.727
81990W        W46975  41.014  30.665  13.964
81991W        W46976  19.002  34.525   4.303
81992W        W46977   7.662  43.885   0.896
81993W        W46978   2.645  44.133   0.374
81994W        W46979  36.845  37.464   0.800
81995W        W46980   0.993   4.207   4.557
81996W        W46981  25.283  21.151  13.903
81997W        W46982   1.303   1.938  11.684
81998W        W46983   6.546  15.314  10.951
81999W        W46984  12.032  35.088  11.707
82000W        W46985  36.933   6.262  12.555
82001W        W46986   7.485  24.113  13.021
82002W        W46987  18.747   2.397   0.991
82003W        W46988  37.077  33.503  13.935
82004W        W46989  16.289  18.103  13.996
82005W        W46990   8.083  32.330  13.626
82006W        W46991  24.413   9.844   3.084
82007W        W46992   2.078  34.439   1.847
82008W        W46993  42.068  20.569  11.684
82009W        W46994  11.671  29.862  13.854
82010W        W46995  29.079  38.689  14.760
82011W        W46996  22.679  43.288   3.763
82012W        W46997  11.909  43.910  12.085
82013W        W46998  13.679  41.674   3.028
82014W        W46999  39.538  29.028   3.111
82015W        W47000   8.420  24.022   0.400
82016W        W47001   1.233  30.109  13.836
82017W        W47002   2.247   2.710  12.978
82018W        W47003  36.464  27.143  14.907
82019W        W47004  23.031  30.039  13.739
82020W        W47005  19.308  10.373   0.156
82021W        W47006  29.359   8.196  11.694
82022W        W47007  30.047  29.718  11.830
82023W        W47008  17.938  22.663  11.547
82024W        W47009  31.386  17.642  14.478
82025W        W47010  23.473   3.989   2.244
82026W        W47011  10.770  18.959  13.952
82027W        W47012  34.060  19.696   1.278
82028W        W47013  15.361   7.079   2.206
82029W        W47014  15.724  18.297   1.210
82030W        W47015   6.071  43.210  10.696
82031W        W47016  18.524  23.131   3.271
82032W        W47017  16.391  12.302  11.730
82033W        W47018  40.691  17.105   3.112
82034W        W47019  27.983  40.898   1.238
82035W        W47020  27.485   6.212  13.511
82036W        W47021   2.564  17.894   2.790
82037W        W47022  27.679  24.726   4.133
82038W        W47023  42.334  27.021   1.871
82039W        W47024  31.927  37.102  10.595
82040W        W47025  42.367  35.167  13.946
82041W        W47026  39.429   6.930   0.682
82042W        W47027  37.335  25.188   4.812
82043W        W47028  11.876   1.501   0.278
82044W        W47029  43.766  23.759   3.192
82045W        W47030  40.067  18.633   3.491
82046W        W47031  41.081   0.249   2.253
82047W        W47032  25.970  44.133  12.118
82048W        W47033  18.144  43.181   3.905
82049W        W47034   9.287  44.147  12.934
82050W        W47035  17.693   0.717  12.043
82051W        W47036  25.855  22.899   0.797
82052W        W47037  39.512  34.052  11.647
82053W        W47038  32.625  19.997   3.682
82054W        W47039  21.036  25.414  14.534
82055W        W47040  42.322  10.861  14.251
82056W        W47041  32.727  10.954   1.114
82057W        W47042  29.655   0.397   0.351
82058W        W47043  44.892   4.794  11.714
82059W        W47044  24.431  37.437   4.190
82060W        W47045  30.673  24.143  10.420
82061W        W47046  41.386  41.800   0.108
82062W        W47047   5.744  24.057   2.526
82063W        W47048  21.305  18.073   4.136
82064W        W47049  36.391  19.788  13.575
82065W        W47050  10.332  36.128  12.158
82066W        W47051   2.954   3.567  11.598
82067W        W47052  18.235   3.932   2.469
82068W        W47053  17.143  44.573  11.242
82069W        W47054  18.133   7.901  10.926
82070W        W47055  43.490  40.039   0.451
82071W        W47056  35.892  29.036   4.473
82072W        W47057  44.561   3.384  13.876
82073W        W47058  12.641  27.133  12.459
82074W        W47059  16.777  44.525  14.455
82075W        W47060  24.239   7.714   0.769
82076W        W47061  43.487   3.836  10.669
82077W        W47062   1.064  33.605   3.307
82078W        W47063  40.457  30.098  12.053
82079W        W47064   0.829  10.272   2.780
82080W        W47065   7.384   5.065  10.171
82081W        W47066  41.969   6.865  12.614
82082W        W47067  43.030   9.898  13.592
82083W        W47068  19.395  35.557   2.797
82084W        W47069  23.991   9.309   3.824
82085W        W47070  37.896   9.370  13.952
82086W        W47071  27.085  35.106   4.941
82087W        W47072  15.344  38.669  14.025
82088W        W47073   6.750  26.077   1.854
82089W        W47074   3.501  18.615   3.604
82090W        W47075  31.172  29.064  12.979
82091W        W47076  40.392  12.257   2.645
82092W        W47077  39.627  20.472  10.476
82093W        W47078  30.634   6.365   1.851
82094W        W47079  42.753  15.608   4.174
82095W        W47080  33.407  17.274   5.079
82096W        W47081  36.101  26.446  12.197
82097W        W47082  17.559  42.665   0.142
82098W        W47083   5.143  39.075  14.785
82099W        W47084  23.948  38.898   3.210
82100W        W47085  10.704  43.414   3.784
82101W        W47086  43.560  16.774  13.343
82102W        W47087  34.464  44.474   2.931
82103W        W47088  11.398  10.146  12.804
82104W        W47089   1.347  16.696  14.795
82105W        W47090   5.992   9.355   1.952
82106W        W47091  27.426  42.228   3.233
82107W        W47092   6.242  31.084  14.118
82108W        W47093  30.892  18.874  10.596
82109W        W47094   0.344   5.624   4.540
82110W        W47095   0.893  42.791   1.022
82111W        W47096  14.116  22.694   2.642
82112W        W47097  30.924  33.951   2.334
82113W        W47098  12.898  37.008   2.859
82114W        W47099  18.593  37.311  10.262
82115W        W47100  21.143   7.854   2.909
82116W        W47101  14.624  17.663   4.010
82117W        W47102  43.882  41.243  12.614
82118W        W47103  36.885  44.498   4.664
82119W        W47104  20.331   0.988   3.098
82120W        W47105  26.895  22.416  14.283
82121W        W47106  11.793   7.967   1.881
82122W        W47107   8.351  37.351   1.222
82123W        W47108  10.265   7.556   2.733
82124W        W47109  22.397  27.525   1.233
82125W        W47110  37.934  28.308  12.590
82126W        W47111   1.148  28.708  12.818
82127W        W47112   4.320  10.365  13.393
82128W        W47113  25.894   2.986  14.056
82129W        W47114  21.795   0.409   2.749
82130W        W47115  31.146   6.161   4.997
82131W        W47116  26.609  39.756  12.033
82132W        W47117  38.397  18.112  10.942
82133W        W47118  42.336   4.126   2.099
82134W        W47119  42.451  13.351  14.156
82135W        W47120  19.986   2.339   3.140
82136W        W47121  19.745  44.378   0.720
82137W        W47122   4.237  12.326   3.072
82138W        W47123   0.864  16.854   3.371
82139W        W47124   3.888  26.504   1.784
82140W        W47125   2.124  15.892  12.062
82141W        W47126  16.839  35.496   4.074
82142W        W47127  27.971   3.643  14.007
82143W        W47128   8.429   9.382  12.436
82144W        W47129   5.241  44.201  11.918
82145W        W47130   6.226  33.606   3.321
82146W        W47131  35.168   3.953  11.091
82147W        W47132  30.418   5.214  12.765
82148W        W47133  44.785  19.221   0.786
82149W        W47134  21.915   2.272  14.993
82150W        W47135  11.882  17.271   0.522
82151W        W47136  13.436   6.272  11.461
82152W        W47137  12.241  18.915  12.836
82153W        W47138  25.222  11.230   0.380
82154W        W47139  16.471   2.423  14.584
82155W        W47140  36.947  43.849   4.562
82156W        W47141  14.909  41.797   4.023
82157W        W47142  41.264  27.970   0.762
82158W        W47143  34.114   7.976  13.489
82159W        W47144   4.186  18.566   4.096
82160W        W47145  35.381  30.488   0.774
82161W        W47146  29.011  31.555  13.586
82162W        W47147  10.743  18.993   1.443
82163W        W47148  38.144  40.539   0.785
82164W        W47149  21.321  35.501  10.562
82165W        W47150  28.935  10.938  12.617
82166W        W47151   7.653  12.071  12.385
82167W        W47152   6.979   1.467   0.410
82168W        W47153   3.895   7.604   2.266
82169W        W47154  27.196  32.391   3.762
82170W        W47155  15.050  38.853   1.724
82171W        W47156  16.865  29.000   0.886
82172W        W47157  34.607   9.166  13.231
82173W        W47158   2.982   0.227  11.092
82174W        W47159  18.660  42.966   4.645
82175W        W47160   5.916  29.048   2.427
82176W        W47161  28.411  42.724   0.313
82177W        W47162   6.722  26.033   2.372
82178W        W47163  31.578   1.001  12.313
82179W        W47164  17.023  17.916  14.440
82180W        W47165  37.302  25.106  13.832
82181W        W47166  31.541  26.603  10.286
82182W        W47167  28.716  13.113   2.300
82183W        W47168  35.170   8.813   0.241
82184W        W47169  15.298   9.424  11.052
82185W        W47170  15.202  17.829   0.640
82186W        W47171  24.013  31.506   4.778
82187W        W47172  16.071  40.996  11.508
82188W        W47173  39.445  39.192  10.744
82189W        W47174   4.938  36.374  10.662
82190W        W47175  35.404  13.043  14.327
82191W        W47176  15.301  14.145   1.833
82192W        W47177  24.622   8.890  11.461
82193W        W47178  40.557  20.285  13.383
82194W        W47179  28.101  24.061   3.754
82195W        W47180  41.313  39.876  10.723
82196W        W47181  44.889  30.350  12.119
82197W        W47182  37.395  43.281  13.334
82198W        W47183  35.031  32.163  12.209
82199W        W47184  30.946  29.958   1.434
82200W        W47185  18.288  33.769   3.398
82201W        W47186  10.739  23.020  11.359
82202W        W47187   0.901  14.563   0.626
82203W        W47188  24.748  15.220   4.292
82204W        W47189  35.356  44.091   1.496
82205W        W47190  42.283  19.055  13.768
82206W        W47191   6.126  35.895  11.739
82207W        W47192  23.797   4.722   3.608
82208W        W47193   2.694   7.811   2.880
82209W        W47194  40.221  38.488   0.679
82210W        W47195   6.704  34.938   0.699
82211W        W47196   2.821  37.372   2.594
82212W        W47197  12.296  15.153   4.618
82213W        W47198   4.316  30.106   3.698
82214W        W47199  41.473  23.958   4.848
82215W        W47200   7.693  24.187   3.756
82216W        W47201  37.296  36.338   0.272
82217W        W47202  22.801  13.139   4.156
82218W        W47203   1.817  12.594   2.717
82219W        W47204  27.549  18.094  11.444
82220W        W47205   0.305   4.688  11.419
82221W        W47206   3.776  40.546  13.051
82222W        W47207  35.156   2.360   3.680
82223W        W47208  29.948   1.585  12.441
82224W        W47209  37.503  42.601   0.183
82225W        W47210  13.195  16.058   0.456
82226W        W47211  23.898  37.178  12.568
82227W        W47212  30.120  12.396   4.680
82228W        W47213  34.307  19.887  11.727
82229W        W47214  34.893  35.960  14.973
82230W        W47215  17.148  35.044   1.454
82231W        W47216  40.253  39.351   3.359
82232W        W47217  43.013  42.371   3.606
82233W        W47218  39.606  27.925   3.566
82234W        W47219   9.656  31.453  13.041
82235W        W47220  30.157  26.757   4.143
82236W        W47221  31.364   3.827   2.384
82237W        W47222  17.360  40.000   0.735
82238W        W47223  44.544   9.735  12.009
82239W        W47224   9.471  27.379  11.144
82240W        W47225  30.536  38.486   2.774
82241W        W47226  18.443  13.248  12.643
82242W        W47227  27.477  31.626  12.063
82243W        W47228  26.228  33.581  13.999
82244W        W47229  22.559   8.288   1.308
82245W        W47230  29.946   1.141  14.862
82246W        W47231   3.040  17.636   4.375
82247W        W47232  21.546  35.839  14.315
82248W        W47233  12.398   5.341   1.300
82249W        W47234  44.347  43.828   3.810
82250W        W47235   8.617  31.594  13.980
82251W        W47236  33.600  17.102   4.221
82252W        W47237  19.635  36.509   4.150
82253W        W47238   2.590  19.801  11.747
82254W        W47239  19.344  25.648  11.960
82255W        W47240  35.972  20.258  12.508
82256W        W47241  21.760  14.517  14.666
82257W        W47242  23.748   8.273   4.104
82258W        W47243   9.735   4.014   1.793
82259W        W47244  43.413  38.762   1.702
82260W        W47245   2.160  31.103  12.054
82261W        W47246  16.304  36.850  11.239
82262W        W47247  36.565  31.623   4.579
82263W        W47248  23.181  42.327   2.229
82264W        W47249  39.522  12.597   1.374
82265W        W47250   4.294  36.858   3.253
82266W        W47251  15.152   7.593   2.343
82267W        W47252  44.423   1.783   1.714
82268W        W47253  31.150  22.752  10.558
82269W        W47254  44.856  11.702   2.870
82270W        W47255  31.642  44.611  11.669
82271W        W47256   7.332  19.889  10.500
82272W        W47257  12.296  12.596  12.978
82273W        W47258  44.000  39.807  13.927
82274W        W47259  44.380  17.032  14.778
82275W        W47260  19.116  12.986   3.125
82276W        W47261  33.098  44.906   5.117
82277W        W47262  21.140  36.082   4.756
82278W        W47263  29.740  24.645  13.750
82279W        W47264  11.669  37.366  14.522
82280W        W47265  15.754  22.937   1.847
82281W        W47266   2.685  24.676  12.757
82282W        W47267  27.281  38.115  10.973
82283W        W47268  13.503  34.405  14.865
82284W        W47269  37.366   3.755  14.399
82285W        W47270  38.391  39.983  14.952
82286W        W47271  19.269  21.603   3.609
82287W        W47272  38.919  29.832  14.373
82288W        W47273  12.798  31.522  11.386
82289W        W47274  23.687   5.979   3.605
82290W        W47275  25.566  33.832  13.465
82291W        W47276  15.534  35.485  14.534
82292W        W47277  19.824  42.721  13.437
82293W        W47278  24.513  34.419   0.301
82294W        W47279   0.804   3.219  10.777
82295W        W47280  34.637  21.504   0.473
82296W        W47281  14.406   4.300   0.515
82297W        W47282   9.821  19.043   3.871
82298W        W47283  36.473  25.147   0.741
82299W        W47284  25.128  24.959  10.992
82300W        W47285   4.001  15.571   4.326
82301W        W47286  22.754  16.141  14.582
82302W        W47287   5.589  20.270  11.085
82303W        W47288  12.802  21.206  14.254
82304W        W47289  22.205  16.985  14.946
82305W        W47290  44.022   6.389  12.303
82306W        W47291  40.464  20.762  13.875
82307W        W47292  30.776  27.012   1.371
82308W        W47293  17.130   9.910   2.580
82309W        W47294  31.475  17.183   2.792
82310W        W47295  25.965   2.485  13.887
82311W        W47296  22.436  15.771  14.319
82312W        W47297  30.096  19.245  13.742
82313W        W47298  32.488  29.463   4.695
82314W        W47299  23.757   6.339   4.278
82315W        W47300  17.274  37.393   3.573
82316W        W47301   8.148  35.291  13.254
82317W        W47302  15.117  12.060   0.296
82318W        W47303   8.258   2.894  12.036
82319W        W47304  18.806  18.057  10.795
82320W        W47305  15.758  17.356   4.102
82321W        W47306  44.118  33.474   4.837
82322W        W47307  38.445  22.676   4.025
82323W        W47308  12.314  33.240  12.465
82324W        W47309  29.976  19.956  14.947
82325W        W47310  23.343   3.765  12.541
82326W        W47311   0.546   0.981   3.513
82327W        W47312  39.132  10.170   2.728
82328W        W47313  39.901   6.292  12.080
82329W        W47314  17.738   9.600   5.850
82330W        W47315  19.982  16.828  13.741
82331W        W47316  34.710  27.642   4.207
82332W        W47317  32.920  23.628  13.735
82333W        W47318  42.568  31.127   3.269
82334W        W47319  43.006   7.734   4.185
82335W        W47320  38.383  28.440  11.230
82336W        W47321  18.544  42.304  11.715
82337W        W47322   2.302   4.341  13.416
82338W        W47323  14.079  30.351   2.385
82339W        W47324  28.564  22.215   2.403
82340W        W47325  32.401  35.094  14.287
82341W        W47326   9.491  17.745   3.526
82342W        W47327  13.142  36.945  11.975
82343W        W47328   7.798  31.511   0.643
82344W        W47329  43.727  43.759  12.909
82345W        W47330  34.278  35.869   0.562
82346W        W47331  31.226  26.000   4.533
82347W        W47332  20.015  20.971   1.850
82348W        W47333  29.736  29.542   4.655
82349W        W47334  33.037  21.836  11.927
82350W        W47335  32.143  29.501   3.370
82351W        W47336  28.604  26.547   3.808
82352W        W47337  15.112   5.910  12.249
82353W        W47338  15.643  31.576  14.998
82354W        W47339  10.605  31.535   0.419
82355W        W47340   2.182   9.824   3.770
82356W        W47341  31.431  29.340  13.390
82357W        W47342  20.162  31.252  11.164
82358W        W47343  22.059   7.184  12.718
82359W        W47344  42.547  40.301  12.110
82360W        W47345   6.737  27.818   3.723
82361W        W47346  25.461  43.248   2.849
82362W        W47347  31.598  19.951   3.113
82363W        W47348   5.959  13.295  14.370
82364W        W47349   6.180  10.139  11.654
82365W        W47350  42.579  18.262  13.434
82366W        W47351  20.632  43.446  14.429
82367W        W47352  36.976   1.806   4.219
82368W        W47353  31.016   3.196  14.683
82369W        W47354  42.074  35.696   1.584
82370W        W47355  16.212   7.833  14.748
82371W        W47356  26.873  40.605  11.640
82372W        W47357   8.125  20.180   2.605
82373W        W47358  12.591  29.025  11.504
82374W        W47359   1.956  20.067   0.729
82375W        W47360   5.217   5.317   1.461
82376W        W47361  31.936  37.364  14.822
82377W        W47362  19.539   9.718   3.614
82378W        W47363   3.957  36.402   4.498
82379W        W47364  31.960  22.912  11.181
82380W        W47365  31.160  40.561   0.970
82381W        W47366  35.168  19.821   1.334
82382W        W47367   4.536  38.428   2.552
82383W        W47368  30.924  20.731  10.371
82384W        W47369  23.743  35.654   0.936
82385W        W47370   3.631   1.345   0.738
82386W        W47371   3.279  32.999   4.684
82387W        W47372   7.363  17.495   2.114
82388W        W47373  39.863  43.160   0.394
82389W        W47374  31.460   9.781  11.234
82390W        W47375  18.903  35.191   2.793
82391W        W47376   1.576  42.723  11.669
82392W        W47377  22.052  17.210  11.442
82393W        W47378   8.218  27.419  12.439
82394W        W47379  21.695  37.586   4.691
82395W        W47380  13.772  13.228   0.290
82396W        W47381  34.900   3.408  13.313
82397W        W47382  15.046  18.305   2.854
82398W        W47383  43.372  14.864  13.409
82399W        W47384  15.083  14.078   2.726
82400W        W47385   1.441  19.556   2.089
82401W        W47386   1.800  30.320   0.379
82402W        W47387  20.528  28.958   2.331
82403W        W47388  10.123  37.392  10.745
82404W        W47389  41.063  29.613   0.653
82405W        W47390   4.603  26.108  13.027
82406W        W47391  35.403   4.905   1.217
82407W        W47392  26.953  20.146  12.253
82408W        W47393  23.108  26.259   0.155
82409W        W47394   1.539  32.484   0.845
82410W        W47395  19.570  39.591  12.445
82411W        W47396  41.805  33.284  13.301
82412W        W47397  15.157   3.219  14.529
82413W        W47398   5.742   6.506  12.112
82414W        W47399  43.869  12.700  11.411
82415W        W47400  44.967  20.497  14.377
82416W        W47401   0.824  27.493   2.916
82417W        W47402   2.812   6.404   1.461
82418W        W47403   5.982  40.606   0.861
82419W        W47404   9.648   3.057  11.461
82420W        W47405  21.082  43.102   2.724
82421W        W47406  37.385  10.026  11.032
82422W        W47407  30.564  27.905  14.883
82423W        W47408  37.856  43.826  10.740
82424W        W47409  42.402  26.658   2.230
82425W        W47410  16.642   6.462   0.397
82426W        W47411  18.136  19.018   3.165
82427W        W47412   2.777  30.200  13.814
82428W        W47413   1.734  43.568  13.554
82429W        W47414  36.528  16.106  14.768
82430W        W47415  20.120  36.546   2.408
82431W        W47416  27.172  17.830   3.559
82432W        W47417  27.010   3.421  13.563
82433W        W47418  20.646  21.297  14.028
82434W        W47419  24.551  22.132   1.716
82435W        W47420  24.952  17.525  14.559
82436W        W47421   2.227  20.159   1.164
82437W        W47422  24.421  18.839   0.858
82438W        W47423  17.715   8.715   1.312
82439W        W47424   5.630  21.776   0.460
82440W        W47425  15.491  42.240   2.300
82441W        W47426   5.510  19.090   1.856
82442W        W47427   1.669  13.995  10.672
82443W        W47428  18.894  41.770  11.161
82444W        W47429  35.913   4.952   1.341
82445W        W47430   9.941  28.323   0.466
82446W        W47431  18.273  42.480  10.868
82447W        W47432   2.487  40.108   2.069
82448W        W47433  34.552  27.502   2.409
82449W        W47434  18.630  44.317   5.043
82450W        W47435  30.730  23.792  11.237
82451W        W47436  12.535   6.416  14.052
82452W        W47437   9.790   2.332  12.530
82453W        W47438  36.452  39.617  12.849
82454W        W47439   5.924  15.548   1.026
82455W        W47440  20.482  41.409   3.747
82456W        W47441   8.748  31.626   1.575
82457W        W47442  18.262  42.919   3.445
82458W        W47443  23.011  43.558   1.712
82459W        W47444   9.768  42.389   4.105
82460W        W47445   9.525  34.951   2.216
82461W        W47446  10.813  14.860   0.450
82462W        W47447   0.790  41.875   0.101
82463W        W47448  43.030   2.211   0.117
82464W        W47449  20.028  44.982   3.161
82465W        W47450  44.205  16.269  12.010
82466W        W47451  33.749  36.035  11.001
82467W        W47452  26.111   3.957   3.034
82468W        W47453  40.097  41.928   2.841
82469W        W47454  38.048  15.081  10.928
82470W        W47455  24.598  31.197   0.437
82471W        W47456  12.291  18.644   4.716
82472W        W47457  44.574   2.883   2.928
82473W        W47458  14.327   0.343   0.273
82474W        W47459  13.540  15.752   4.634
82475W        W47460  32.488  12.972   0.416
82476W        W47461  15.175  22.939  10.726
82477W        W47462  23.702  13.656   3.234
82478W        W47463   7.773  36.377   3.185
82479W        W47464  32.487  43.758  11.906
82480W        W47465  12.600   2.400   2.201
82481W        W47466   4.441   8.174  11.880
82482W        W47467   1.818  19.764   2.858
82483W        W47468   8.608  32.344   0.950
82484W        W47469  40.377  23.880   9.832
82485W        W47470  22.779  18.261  11.936
82486W        W47471  24.139  13.016   1.933
82487W        W47472   9.850  38.369  10.761
82488W        W47473  33.880   4.838  14.010
82489W        W47474   8.268  21.034   2.612
82490W        W47475  23.794  35.854  10.932
82491W        W47476  17.044  35.460  14.343
82492W        W47477  29.833  32.416  13.465
82493W        W47478  18.208  28.393   4.628
82494W        W47479  38.367   3.703   2.308
82495W        W47480  44.295  43.788   5.125
82496W        W47481  34.432  38.574   2.370
82497W        W47482   2.175  41.577  14.328
82498W        W47483  23.510  43.785   1.948
82499W        W47484  42.195  33.497  11.129
82500W        W47485  30.222  44.135   0.360
82501W        W47486  32.763  22.260   4.288
82502W        W47487  16.273  16.660   1.046
82503W        W47488  12.112   1.508  13.536
82504W        W47489  42.467  39.754   4.620
82505W        W47490  12.734  24.482  13.360
82506W        W47491  36.392  30.442   1.987
82507W        W47492  36.474  37.612  14.460
82508W        W47493  17.503  44.903   2.944
82509W        W47494  36.099  13.909  14.803
82510W        W47495  34.883  31.012   3.898
82511W        W47496   5.847  18.611  10.796
82512W        W47497  13.227   7.727  13.462
82513W        W47498  23.902   3.333  14.854
82514W        W47499  14.811  12.374  14.379
82515W        W47500  35.199   1.059   1.395
82516W        W47501  14.221  24.962  14.392
82517W        W47502  29.928  12.106  12.346
82518W        W47503   0.983  35.049  13.397
82519W        W47504  11.066  25.626  13.568
82520W        W47505  35.141  14.625   2.195
82521W        W47506   0.455   7.977   3.314
82522W        W47507  22.013   1.934  12.779
82523W        W47508  31.563  23.415   1.323
82524W        W47509  22.985   6.958   3.277
82525W        W47510  29.267  41.596   0.186
82526W        W47511  36.998  25.925  12.041
82527W        W47512  34.573  25.476   4.921
82528W        W47513   3.964  22.751  12.926
82529W        W47514   7.848  10.591   0.778
82530W        W47515  40.929   5.162  10.756
82531W        W47516   8.772  35.972   2.409
82532W        W47517  37.435  17.529  12.309
82533W        W47518  35.972  42.239  12.608
82534W        W47519  15.528  32.302  14.027
82535W        W47520  39.096  24.696  10.832
82536W        W47521  41.309  33.448   5.374
82537W        W47522  36.985  41.333  12.138
82538W        W47523  40.819  19.101  11.916
82539W        W47524  22.689  30.158   2.982
82540W        W47525   5.495  10.912   2.211
82541W        W47526   7.689  12.573  13.546
82542W        W47527  21.082  27.202   2.629
82543W        W47528  26.963  43.416   2.718
82544W        W47529  43.007  32.034   2.286
82545W        W47530  41.604  11.289   4.057
82546W        W47531  26.614   5.347   1.904
82547W        W47532  36.126   3.152   3.653
82548W        W47533  13.385  10.081  14.775
82549W        W47534  10.245  31.483   2.880
82550W        W47535   3.182  38.038  12.396
82551W        W47536  13.190  13.087   2.733
82552W        W47537  44.827   5.196   2.317
82553W        W47538  15.770  22.971  12.629
82554W        W47539   4.294  33.324  10.541
82555W        W47540  43.898  29.346   2.750
82556W        W47541  17.649  15.570  14.588
82557W        W47542  17.136  29.704  13.751
82558W        W47543   3.313  11.691   4.998
82559W        W47544   2.496  30.982  14.268
82560W        W47545  30.133  25.295   2.704
82561W        W47546   7.961  22.175  14.510
82562W        W47547  31.906  44.762   4.364
82563W        W47548   8.361  34.578  14.955
82564W        W47549  37.946  34.486  10.708
82565W        W47550   1.834   0.966   2.677
82566W        W47551  17.623  13.811  12.702
82567W        W47552  12.739  11.091   1.924
82568W        W47553  41.543  25.067  12.863
82569W        W47554  39.837  12.738  13.827
82570W        W47555  23.140   2.297  11.697
82571W        W47556  36.122   5.310  13.515
82572W        W47557  13.059   2.562   3.276
82573W        W47558  39.000  16.751   2.794
82574W        W47559  12.867  19.523   1.235
82575W        W47560  33.654  31.129   2.973
82576W        W47561  24.593  43.306  11.995
82577W        W47562  19.896  31.754  10.464
82578W        W47563  32.821  22.120   3.421
82579W        W47564  41.480  17.128   1.318
82580W        W47565   3.445   1.992   1.366
82581W        W47566  34.366  41.614  12.523
82582W        W47567  43.244  42.410   4.863
82583W        W47568   9.930  14.069  13.635
82584W        W47569  42.265  35.708  12.085
82585W        W47570  38.031  28.041  14.372
82586W        W47571  42.733   3.404  13.452
82587W        W47572  14.877  21.319  14.872
82588W        W47573  41.390   2.810   0.285
82589W        W47574  10.041  31.469  12.019
82590W        W47575  19.133  32.396  12.025
82591W        W47576  16.591  17.712  14.212
82592W        W47577  23.436  42.753  13.479
82593W        W47578   6.663  19.106  11.940
82594W        W47579  25.236   9.363   2.358
82595W        W47580  14.653  15.647  12.454
82596W        W47581  21.510  31.081  11.566
82597W        W47582   6.920   2.691  10.944
82598W        W47583  38.842  27.941  14.403
82599W        W47584  33.112  30.368  14.436
82600W        W47585   5.226   4.569  10.713
82601W        W47586  18.807  12.688   4.012
82602W        W47587  28.656  36.826  12.859
82603W        W47588  30.965  12.804  11.505
82604W        W47589  42.514  26.704  14.311
82605W        W47590  43.533  44.837  13.701
82606W        W47591   0.466   4.335  13.893
82607W        W47592  15.355  37.240  12.602
82608W        W47593  12.009  32.553  13.103
82609W        W47594  41.458  30.830   0.919
82610W        W47595   9.371  13.899  11.585
82611W        W47596  24.288  37.431   0.315
82612W        W47597  18.398   8.404  12.835
82613W        W47598  10.356   8.011  12.563
82614W        W47599  36.463   8.620  13.451
82615W        W47600   4.214  41.262  14.438
82616W        W47601   9.053  32.202  11.964
82617W        W47602  22.811  24.081   2.411
82618W        W47603  22.559  25.453   0.792
82619W        W47604   6.624  36.861   2.343
82620W        W47605   3.498  35.136   2.262
82621W        W47606  24.850   2.129   0.993
82622W        W47607  21.922  44.443   2.367
82623W        W47608  38.172  30.056   2.913
82624W        W47609  31.412   6.667   3.795
82625W        W47610   2.747   9.199   3.685
82626W        W47611  20.502  44.368  10.555
82627W        W47612   2.673  14.227   2.349
82628W        W47613  22.016  27.981  10.730
82629W        W47614  39.797  11.374   4.646
82630W        W47615  37.848  25.022   5.046
82631W        W47616  10.289   4.839   2.846
82632W        W47617  22.633   9.916   9.954
82633W        W47618   2.187  39.027  14.763
82634W        W47619  27.127  38.596  10.683
82635W        W47620  11.540  34.519   3.802
82636W        W47621  41.939  27.660  13.442
82637W        W47622   4.133  16.030   2.513
82638W        W47623  10.211  15.095   4.177
82639W        W47624  27.663   9.685   1.312
82640W        W47625  44.511  36.484  13.942
82641W        W47626  26.651  14.524   0.244
82642W        W47627   7.754  21.047   4.594
82643W        W47628  27.019  34.601  10.422
82644W        W47629  12.896  22.156   3.562
82645W        W47630  36.753  27.077  13.209
82646W        W47631  18.769  33.179  10.903
82647W        W47632   4.821  21.585  10.467
82648W        W47633  28.623  16.609   1.748
82649W        W47634  27.999   9.743   1.760
82650W        W47635  37.775  13.504  14.348
82651W        W47636  10.225  40.483  14.051
82652W        W47637  38.516   5.444   4.128
82653W        W47638  39.293  18.086  12.126
82654W        W47639  41.579  10.707  13.622
82655W        W47640  11.168  26.206   3.271
82656W        W47641  14.342  22.160  12.393
82657W        W47642  31.792  24.994   0.461
82658W        W47643  44.055  28.346   1.232
82659W        W47644   0.684  38.376   0.923
82660W        W47645  19.731  35.491   3.195
82661W        W47646  36.622  35.558   3.445
82662W        W47647  21.301  15.935   1.924
82663W        W47648  36.571  42.843  11.606
82664W        W47649  21.673  23.340   2.965
82665W        W47650  16.329  35.487   4.143
82666W        W47651  25.158  33.172  14.732
82667W        W47652   8.005  16.050   4.647
82668W        W47653  32.679  22.281  13.475
82669W        W47654  30.862  18.639  11.840
82670W        W47655  44.875   7.689  10.331
82671W        W47656  34.877  35.360   2.931
82672W        W47657  19.878   6.579   9.925
82673W        W47658  43.304  31.459   1.488
82674W        W47659  24.127  17.021   3.315
82675W        W47660  15.854  21.191  14.027
82676W        W47661  13.488   1.314   1.332
82677W        W47662   6.241  10.261  10.277
82678W        W47663   1.700   3.764  14.623
82679W        W47664  13.160  14.211  14.777
82680W        W47665  29.672  23.251   4.264
82681W        W47666   3.242  13.709   4.618
82682W        W47667  38.902  34.533  10.293
82683W        W47668  29.657  41.601  12.494
82684W        W47669  18.915   0.317   3.298
82685W        W47670   0.216  10.613   1.170
82686W        W47671   4.646   7.685   0.354
82687W        W47672  32.209  22.572   2.858
82688W        W47673   3.909  26.013   4.857
82689W        W47674  34.170  37.985   3.165
82690W        W47675  40.501  44.083   4.797
82691W        W47676   8.159  14.127   1.443
82692W        W47677  32.348  36.619  11.112
82693W        W47678  33.537  33.847   0.781
82694W        W47679  25.372  22.685   2.571
82695W        W47680  40.596  24.901  12.991
82696W        W47681   0.405  41.066  14.320
82697W        W47682   1.909  38.631  11.179
82698W        W47683  35.923  11.755  12.356
82699W        W47684   6.523  42.490  12.201
82700W        W47685  42.678  44.721  11.142
82701W        W47686  43.102  16.514  13.397
82702W        W47687  33.148  43.525   1.442
82703W        W47688  40.547  39.039  12.441
82704W        W47689  16.220  30.960  13.468
82705W        W47690  32.125  20.184  14.923
82706W        W47691  19.065  12.793   2.625
82707W        W47692  12.302  40.881  10.726
82708W        W47693  29.923  37.355  12.816
82709W        W47694  27.978  13.308  12.004
82710W        W47695   8.685  13.547  13.004
82711W        W47696   0.215   0.347  12.918
82712W        W47697  21.289  38.208   3.271
82713W        W47698  14.601  40.018   0.306
82714W        W47699  26.178  42.983   3.574
82715W        W47700  25.302   8.104   0.370
82716W        W47701  21.679  14.766   3.181
82717W        W47702   9.057  21.735   2.637
82718W        W47703  30.781  14.916   4.180
82719W        W47704  12.766  12.697  12.801
82720W        W47705  40.741   1.280  10.681
82721W        W47706  43.521  23.120   1.830
82722W        W47707  28.946  37.420   2.242
82723W        W47708  18.891  35.397  13.080
82724W        W47709  37.658   8.847   1.455
82725W        W47710  31.635  32.529  14.514
82726W        W47711   4.753  18.646  14.773
82727W        W47712  34.584  36.940  14.028
82728W        W47713   9.255  26.377  14.638
82729W        W47714  27.288  28.161   1.235
82730W        W47715  42.974   5.885  14.311
82731W        W47716  44.559  23.591  11.621
82732W        W47717  35.629  17.127  10.691
82733W        W47718  24.488  35.562  12.091
82734W        W47719  26.305  27.043  12.578
82735W        W47720  17.380  35.952  12.129
82736W        W47721   5.218  16.570   3.370
82737W        W47722  24.500   1.864   9.722
82738W        W47723  37.796  27.396  12.496
82739W        W47724  39.533   8.908   2.877
82740W        W47725   2.549  17.470  11.627
82741W        W47726   8.927  42.459   0.854
82742W        W47727  24.041   2.047   9.577
82743W        W47728   4.529  38.675   1.179
82744W        W47729  25.995   5.443   2.632
82745W        W47730  25.308  37.792  13.011
82746W        W47731  34.286  30.506   0.834
82747W        W47732   2.687  30.416   0.920
82748W        W47733  17.712  18.704  12.003
82749W        W47734  24.684  13.689  14.725
82750W        W47735  42.815  32.763  13.604
82751W        W47736  12.036  35.564  11.526
82752W        W47737  14.453  13.273   3.847
82753W        W47738  19.753  27.347   3.344
82754W        W47739  41.852  42.482   0.293
82755W        W47740  36.315  15.614   4.572
82756W        W47741  25.212  10.255  10.358
82757W        W47742   1.768  14.722   3.074
82758W        W47743  32.684   1.637  12.756
82759W        W47744  44.845  37.837   9.850
82760W        W47745  33.943   6.808   2.109
82761W        W47746  33.330  21.887   1.747
82762W        W47747   3.009  22.357  11.988
82763W        W47748  17.873   6.508   0.150
82764W        W47749  13.888   8.257  12.197
82765W        W47750  43.911  18.379   1.826
82766W        W47751  18.248   6.268  12.743
82767W        W47752  27.887  41.997  12.367
82768W        W47753  33.450   9.054  12.986
82769W        W47754  42.849  42.762  12.336
82770W        W47755  24.308  12.807  11.607
82771W        W47756  13.067   0.176  14.554
82772W        W47757  44.058  26.993   0.291
82773W        W47758  15.130  37.515  13.421
82774W        W47759  32.044  28.096   0.314
82775W        W47760  12.802  42.410   4.565
82776W        W47761   2.374  41.923  13.581
82777W        W47762   1.270  19.166  13.008
82778W        W47763  27.750   3.450   0.336
82779W        W47764  39.851  16.106   1.884
82780W        W47765   1.284  30.215  11.507
82781W        W47766  44.035  37.627   1.218
82782W        W47767  17.042  25.087   2.234
82783W        W47768  25.164  23.033   0.486
82784W        W47769  35.002  24.921  13.912
82785W        W47770  19.651  28.328   3.239
82786W        W47771  32.204   4.145   4.751
82787W        W47772  37.656  20.140   2.197
82788W        W47773   2.540  12.640   1.345
82789W        W47774  10.555  25.254  12.101
82790W        W47775   3.703  12.793  14.348
82791W        W47776  24.602   6.757  13.086
82792W        W47777  11.885  23.763   2.283
82793W        W47778  14.270  40.095   4.626
82794W        W47779  11.692  22.114   3.179
82795W        W47780  14.264   3.167  13.030
82796W        W47781  38.855  37.636   2.175
82797W        W47782  39.960  14.783   2.226
82798W        W47783  17.305  41.455   4.950
82799W        W47784   0.324  38.935   4.671
82800W        W47785  22.699  19.085   5.081
82801W        W47786  32.340  20.634  14.811
82802W        W47787  38.525   8.721   3.176
82803W        W47788  30.512   6.429  14.432
82804W        W47789   7.230  41.990  10.794
82805W        W47790  32.011   4.177  14.510
82806W        W47791  24.705   9.611   0.821
82807W        W47792  10.806  32.458   1.931
82808W        W47793   5.775  15.690  12.556
82809W        W47794   9.877  10.651  13.901
82810W        W47795  22.715  32.923  12.046
82811W        W47796  30.142  42.957   0.782
82812W        W47797  39.083  22.133   5.083
82813W        W47798  18.842  26.111   3.728
82814W        W47799  34.250   6.435   4.688
82815W        W47800   3.949  13.519   2.594
82816W        W47801   5.826  10.187   4.768
82817W        W47802  15.841  38.359  13.383
82818W        W47803  18.584  34.116  10.466
82819W        W47804  27.519  18.804  10.685
82820W        W47805  26.216  42.917  11.531
82821W        W47806  41.035   1.790  11.864
82822W        W47807  34.022  38.522  12.740
82823W        W47808  37.405   6.316  10.826
82824W        W47809  42.267  21.674   0.736
82825W        W47810   7.743   1.886  10.155
82826W        W47811  20.942   9.135   4.840
82827W        W47812  12.859  28.850  10.710
82828W        W47813  18.819   1.415  14.217
82829W        W47814   9.803  21.984  11.217
82830W        W47815  40.834  27.137  13.104
82831W        W47816  33.795   7.561   4.061
82832W        W47817  27.877   3.776   1.072
82833W        W47818   1.324   7.742   3.106
82834W        W47819   3.344  16.514  13.559
82835W        W47820   7.194  42.265   0.528
82836W        W47821  21.562  38.537  10.652
82837W        W47822  16.696   0.538   1.902
82838W        W47823  28.964  30.270   1.712
82839W        W47824  14.551   9.544   2.938
82840W        W47825  35.104  44.374  11.909
82841W        W47826  27.387  20.147   1.305
82842W        W47827  25.746  43.100  10.725
82843W        W47828  21.418  44.006  10.376
82844W        W47829  41.878  44.892  13.919
82845W        W47830   0.732  19.379   0.957
82846W        W47831  42.852   7.357   0.478
82847W        W47832  38.976  40.936   3.235
82848W        W47833   5.404  27.234  13.825
82849W        W47834  33.183   7.856  12.564
82850W        W47835  41.156   0.611  13.960
82851W        W47836   7.175  16.593   3.181
82852W        W47837  44.320   2.954   4.261
82853W        W47838  40.160  25.658   1.261
82854W        W47839  18.302  26.434  14.426
82855W        W47840  29.394   4.159   0.851
82856W        W47841  23.864  20.561   1.409
82857W        W47842  16.005  16.853  11.527
82858W        W47843   5.238  13.832  11.746
82859W        W47844  18.577  43.265   3.273
82860W        W47845  23.963  17.661   4.736
82861W        W47846  20.569  34.686  11.555
82862W        W47847  38.365  12.697   3.554
82863W        W47848  38.088  36.438   3.761
82864W        W47849   1.504  34.314  13.065
82865W        W47850  28.469  26.944  12.414
82866W        W47851  33.151   2.251   0.887
82867W        W47852  32.659  15.772   0.238
82868W        W47853   8.210  38.469  14.919
82869W        W47854  30.519  41.947   4.623
82870W        W47855  13.335   3.545   0.761
82871W        W47856  17.467  23.540  13.917
82872W        W47857  24.056  21.741   0.864
82873W        W47858  42.364   7.654  11.158
82874W        W47859   8.268  23.652  12.718
82875W        W47860   5.743  18.540  13.435
82876W        W47861  33.385  41.799  11.535
82877W        W47862  36.017  16.830   0.383
82878W        W47863   0.308  33.997  14.006
82879W        W47864  32.898   4.248  10.670
82880W        W47865  11.379  43.747  11.212
82881W        W47866  42.524  36.528   2.548
82882W        W47867   6.288   3.158   2.332
82883W        W47868  35.740  22.732   3.265
82884W        W47869   4.588  11.561  11.136
82885W        W47870  25.797   5.148   1.235
82886W        W47871   0.784  20.905  10.113
82887W        W47872  15.329  30.470  14.311
82888W        W47873  22.928  44.463   3.093
82889W        W47874  17.205  32.751  11.988
82890W        W47875  12.586  16.765   2.435
82891W        W47876  29.416  31.142  10.587
82892W        W47877  36.602  31.214  11.109
82893W        W47878  25.240  11.368  12.887
82894W        W47879  16.121  31.356   4.491
82895W        W47880  38.329  25.182  12.588
82896W        W47881   6.745   0.843   3.168
82897W        W47882  16.748  37.333   0.339
82898W        W47883  21.560  40.447  12.797
82899W        W47884  24.972  15.038  13.529
82900W        W47885  35.546   7.151  13.649
82901W        W47886  41.104  33.071   0.900
82902W        W47887  14.809  34.056   3.505
82903W        W47888  31.396  14.200  13.407
82904W        W47889   4.023   6.735   2.204
82905W        W47890  10.833   9.272  14.423
82906W        W47891  16.077  23.564  12.623
82907W        W47892  12.586  40.298   1.316
82908W        W47893  12.140  36.901   2.141
82909W        W47894  20.481  25.276  13.307
82910W        W47895  23.579  19.924  14.951
82911W        W47896  24.630   3.955  13.815
82912W        W47897  24.780  36.583  12.789
82913W        W47898  39.424   4.457   0.862
82914W        W47899  15.870  27.472  13.541
82915W        W47900  37.575  41.366  13.833
82916W        W47901   9.951  35.310   3.288
82917W        W47902  11.631   8.568   3.248
82918W        W47903  20.938  24.746  12.593
82919W        W47904  12.625  38.053  13.877
82920W        W47905  24.122  41.600   1.959
82921W        W47906   9.171  15.159   3.926
82922W        W47907  35.163   4.487   2.912
82923W        W47908  12.653  23.687  12.166
82924W        W47909  44.271   7.836   2.818
82925W        W47910   3.464  34.880   5.063
82926W        W47911  31.991  18.226   2.602
82927W        W47912  21.691  19.014  11.766
82928W        W47913  20.048   2.730  13.093
82929W        W47914   5.671  26.921   4.142
82930W        W47915  35.026  43.919   0.508
82931W        W47916  24.998  25.116  14.513
82932W        W47917  13.834  29.127  14.047
82933W        W47918  18.834  12.176  11.413
82934W        W47919  17.698   7.920   3.315
82935W        W47920   9.633  41.226   4.760
82936W        W47921  31.541   2.213   3.107
82937W        W47922  33.638  41.037  13.902
82938W        W47923  28.272  27.932   1.447
82939W        W47924  28.275   2.473   1.239
82940W        W47925   8.452  41.039  12.432
82941W        W47926  34.118  25.640   3.821
82942W        W47927  38.922  44.695   1.511
82943W        W47928  29.087  42.963  13.180
82944W        W47929  19.493  23.402   0.322
82945W        W47930  41.521  34.632  11.595
82946W        W47931  14.308  28.739   1.817
82947W        W47932   8.176  10.178  10.571
82948W        W47933  12.090  16.463  11.189
82949W        W47934  37.828  42.891   0.798
82950W        W47935  40.703   0.095   4.884
82951W        W47936   9.862  25.236  12.727
82952W        W47937  31.639  26.544  12.336
82953W        W47938  10.710  34.349   3.723
82954W        W47939  20.294   6.287   0.519
82955W        W47940  32.685  26.498   4.102
82956W        W47941  42.278  14.773  13.369
82957W        W47942  40.407  25.801  14.979
82958W        W47943   8.859  39.020  10.546
82959W        W47944  38.631  38.464  12.103
82960W        W47945  32.321  19.798   1.518
82961W        W47946  44.708   0.457  12.859
82962W        W47947   8.498  26.266   2.321
82963W        W47948   3.468   7.885   2.355
82964W        W47949   0.851  34.618  10.119
82965W        W47950  44.538  28.604   2.960
82966W        W47951  41.927  41.098  10.388
82967W        W47952  23.822  44.684  10.790
82968W        W47953  17.118  14.280  13.370
82969W        W47954  37.441   3.909   4.713
82970W        W47955   2.214  26.934   4.410
82971W        W47956   7.313  28.948  14.764
82972W        W47957  40.001   9.727  14.526
82973W        W47958   4.553   6.665  12.552
82974W        W47959  36.275  32.392  12.947
82975W        W47960   9.420  38.901   4.663
82976W        W47961  44.881   5.108   3.226
82977W        W47962  32.625  21.084  14.853
82978W        W47963  37.092  21.614   4.397
82979W        W47964  41.320  16.687  12.473
82980W        W47965   3.811  16.054  12.902
82981W        W47966  30.526   4.449   0.335
82982W        W47967  19.566   0.691   1.781
82983W        W47968  17.211  32.047  14.994
82984W        W47969  26.156   5.731  12.290
82985W        W47970   9.146  13.585   3.869
82986W        W47971  16.617  33.669  11.630
82987W        W47972  23.562  25.607  14.781
82988W        W47973  28.055   0.412  13.842
82989W        W47974   5.050   8.491  11.182
82990W        W47975  14.090  28.722   4.379
82991W        W47976  33.075  43.257   3.288
82992W        W47977  26.425  11.807   2.783
82993W        W47978  41.000  14.233  14.251
82994W        W47979  15.233  35.630   1.943
82995W        W47980  27.806  22.031  12.513
82996W        W47981   6.214  22.241   4.357
82997W        W47982  27.133   4.770  11.555
82998W        W47983  35.958   7.135  14.803
82999W        W47984  10.661  20.076  10.786
83000W        W47985  35.135  20.455  14.492
83001W        W47986  39.832  19.251  13.380
83002W        W47987  21.608   5.132   3.573
83003W        W47988  36.743  14.316  14.261
83004W        W47989  30.919  14.197   1.884
83005W        W47990  24.493  24.647  12.494
83006W        W47991  31.423   9.789   1.930
83007W        W47992   8.161   5.683  14.986
83008W        W47993  32.603  21.842   1.722
83009W        W47994   5.961  20.223   2.266
83010W        W47995  25.462  32.981   1.342
83011W        W47996  34.986   6.574   3.663
83012W        W47997  12.688  43.553  11.176
83013W        W47998  44.841  40.968  12.467
83014W        W47999   3.839  34.478  12.762
83015W        W48000  30.524   7.447  14.465
83016W        W48001  40.749  39.845  11.122
83017W        W48002   1.851  42.806  13.052
83018W        W48003   2.230  33.622  13.151
83019W        W48004  11.081  16.789   4.547
83020W        W48005  43.070  23.181   0.039
83021W        W48006  38.933  12.732  13.819
83022W        W48007  23.253  22.084   2.788
83023W        W48008   0.274  14.350  14.535
83024W        W48009   9.435  24.051   1.433
83025W        W48010  28.099  18.302   0.277
83026W        W48011  42.767  44.718   4.494
83027W        W48012  27.133  17.046  12.547
83028W        W48013  22.551   4.265   2.368
83029W        W48014  12.428   2.526  11.094
83030W        W48015  19.161  12.164  13.631
83031W        W48016   1.422   6.933  13.926
83032W        W48017  34.687  32.462  10.587
83033W        W48018  12.641  39.063  11.161
83034W        W48019  26.754  34.690  12.623
83035W        W48020  36.349  28.068   1.398
83036W        W48021  18.749  14.783  10.822
83037W        W48022  43.273  38.274  12.413
83038W        W48023  24.453  10.781  13.896
83039W        W48024  10.053  35.326   4.220
83040W        W48025  24.047  24.308  13.815
83041W        W48026  30.381  37.494   3.379
83042W        W48027  28.539   3.625  14.865
83043W        W48028   9.765  16.381   3.765
83044W        W48029  33.225  42.734  13.009
83045W        W48030  28.408  33.637   3.261
83046W        W48031  14.301  11.198  12.081
83047W        W48032  25.816  39.026   1.591
83048W        W48033   0.865  28.745  12.389
83049W        W48034  25.589  35.050  14.853
83050W        W48035  14.407  18.052   3.695
83051W        W48036  30.119  37.001   3.355
83052W        W48037  39.940  17.284  13.692
83053W        W48038   1.430  10.978   1.692
83054W        W48039  30.626  20.377  11.612
83055W        W48040  44.896  13.417  13.459
83056W        W48041   7.811  32.680   2.717
83057W        W48042   4.242   8.432  11.479
83058W        W48043  18.760  29.607   3.616
83059W        W48044  17.240   2.913  10.837
83060W        W48045  42.226  15.313  12.493
83061W        W48046  26.139  27.966  13.882
83062W        W48047   2.233  37.951   1.209
83063W        W48048  29.199  32.055  10.933
83064W        W48049  43.806  40.562   4.064
83065W        W48050  19.949  35.434  11.680
83066W        W48051  43.246  44.968   4.545
83067W        W48052   9.299  20.263  12.567
83068W        W48053  42.751  27.229  14.973
83069W        W48054   2.986   7.409  12.628
83070W        W48055  43.505  22.347  14.213
83071W        W48056   7.255  23.736   0.240
83072W        W48057  18.049  33.549  11.508
83073W        W48058  30.824  29.965  11.607
83074W        W48059  35.315  13.344   3.921
83075W        W48060   4.030   0.366  14.217
83076W        W48061  21.327   3.325   3.606
83077W        W48062  33.277   0.052  13.540
83078W        W48063   9.571   8.391  13.256
83079W        W48064  41.326  10.952   0.357
83080W        W48065   1.832  31.282  11.679
83081W        W48066  28.481  11.869   4.688
83082W        W48067   1.413  15.128   2.206
83083W        W48068  18.119   9.393  12.838
83084W        W48069   8.214  31.176  14.855
83085W        W48070  10.736  35.330   1.182
83086W        W48071   7.980  41.371   0.808
83087W        W48072  42.126  35.146   0.414
83088W        W48073  36.439  10.600   2.266
83089W        W48074  17.872  22.693   4.998
83090W        W48075  16.808  31.569   3.124
83091W        W48076   7.017  31.944   4.656
83092W        W48077   5.295   1.389  10.741
83093W        W48078  40.214   9.383   0.095
83094W        W48079  12.334  10.618  14.268
83095W        W48080  19.453  34.047   2.676
83096W        W48081  42.841  19.700   4.219
83097W        W48082  22.746   8.249  12.145
83098W        W48083   1.940  25.725  13.915
83099W        W48084  27.048  21.018   4.787
83100W        W48085  30.642  12.638   3.829
83101W        W48086  11.958  34.845   3.660
83102W        W48087   6.862  33.991  11.354
83103W        W48088   5.309  17.822  13.007
83104W        W48089   6.215  16.622   1.178
83105W        W48090  18.942  42.864  12.072
83106W        W48091  20.806   8.847   1.903
83107W        W48092  14.068  21.284   0.591
83108W        W48093  10.673   5.276  14.404
83109W        W48094  12.184  11.258   3.660
83110W        W48095  41.066  23.995  13.897
83111W        W48096  36.062  35.869   4.624
83112W        W48097  37.513   4.252   3.813
83113W        W48098   0.986   2.465   4.046
83114W        W48099  35.731   4.438  12.393
83115W        W48100  32.939  18.201  10.481
83116W        W48101  30.889  18.232  11.530
83117W        W48102  11.159  32.523   4.782
83118W        W48103   7.103  14.781   2.870
83119W        W48104  10.897  24.004   0.373
83120W        W48105  43.774  27.501  14.694
83121W        W48106  27.105  17.805   2.419
83122W        W48107  29.612   4.449  11.356
83123W        W48108   0.254  40.514   2.363
83124W        W48109  42.362  38.480   9.782
83125W        W48110  35.567  15.222  11.153
83126W        W48111  22.280  19.677   3.653
83127W        W48112   0.508  41.469   1.416
83128W        W48113  16.484  14.589   1.726
83129W        W48114   4.010   2.161  10.751
83130W        W48115   2.000  23.781   4.253
83131W        W48116  15.343  34.958  12.378
83132W        W48117   6.272  38.410   3.119
83133W        W48118  23.985  37.117   3.854
83134W        W48119  23.438  35.233  10.315
83135W        W48120  19.330  26.175  11.906
83136W        W48121  42.835   1.279   4.956
83137W        W48122   6.471  41.597  11.072
83138W        W48123  26.755  31.353   2.272
83139W        W48124  30.089  11.755   1.923
83140W        W48125   7.732   0.957   0.909
83141W        W48126  24.307  16.301   2.764
83142W        W48127  29.637  18.105   3.097
83143W        W48128  20.665   7.152  12.611
83144W        W48129   8.705  23.027  12.370
83145W        W48130  24.442  32.118  13.040
83146W        W48131  16.714   4.879   0.329
83147W        W48132  19.751   0.377   1.321
83148W        W48133   3.885  13.569   4.129
83149W        W48134  23.647   9.702  12.931
83150W        W48135  11.067  39.596  10.612
83151W        W48136  39.339  15.237  14.571
83152W        W48137  42.037  21.668  11.445
83153W        W48138  17.886  20.369   1.693
83154W        W48139   3.084  31.923   3.263
83155W        W48140   8.787  12.241  13.445
83156W        W48141  30.206   1.874   4.001
83157W        W48142  41.873  22.943  11.086
83158W        W48143  21.085  22.462   3.507
83159W        W48144  11.884  28.654  14.379
83160W        W48145  17.053  15.644   3.345
83161W        W48146  32.012  20.554  12.452
83162W        W48147   4.456  42.447   1.270
83163W        W48148  28.606  20.265  14.517
83164W        W48149  21.017   5.361  11.172
83165W        W48150  18.338  11.693   0.556
83166W        W48151  38.350   5.961  11.233
83167W        W48152  15.065  39.551   4.138
83168W        W48153   2.589  22.682   0.815
83169W        W48154   2.863  42.465  14.825
83170W        W48155   5.667  34.977   1.680
83171W        W48156  13.454   0.851  13.595
83172W        W48157  28.248   6.324  13.478
83173W        W48158   4.143   7.462   3.359
83174W        W48159  26.310  12.167  11.230
83175W        W48160  23.444  26.364   4.628
83176W        W48161  27.097  33.049   2.396
83177W        W48162  21.474  21.296  11.647
83178W        W48163  42.138   0.406   3.637
83179W        W48164  37.075  38.487   1.608
83180W        W48165  26.472   0.992  13.550
83181W        W48166  19.675  22.495   3.194
83182W        W48167  33.854  18.592  10.623
83183W        W48168   6.402  26.387  13.152
83184W        W48169  25.763   2.679   4.567
83185W        W48170   0.450  24.752   4.987
83186W        W48171  24.063  17.557   0.721
83187W        W48172  35.230   1.332  12.047
83188W        W48173  12.799   7.457  14.442
83189W        W48174   2.241  24.490  12.540
83190W        W48175  37.883  42.780  10.674
83191W        W48176  16.136  25.131   0.636
83192W        W48177  32.526  18.133  13.131
83193W        W48178  35.929   5.428  12.380
83194W        W48179  10.176  31.475  11.510
83195W        W48180  23.798   8.415   2.813
83196W        W48181  27.812  27.888  13.867
83197W        W48182   3.397  15.536  13.799
83198W        W48183   9.287   3.797   3.891
83199W        W48184  31.103  42.407   4.940
83200W        W48185  20.020  25.688   3.872
83201W        W48186  30.457  10.359   4.188
83202W        W48187  15.111  35.333   2.368
83203W        W48188  27.210   1.213   3.581
83204W        W48189  19.918  43.996  14.330
83205W        W48190  10.871  15.035   2.588
83206W        W48191   4.819   3.719  11.517
83207W        W48192  26.268   8.104   1.333
83208W        W48193   5.441  27.262   0.944
83209W        W48194   1.752  38.974  14.432
83210W        W48195  25.247   6.756  14.797
83211W        W48196  20.268  35.710  14.935
83212W        W48197  28.592   4.888  13.951
83213W        W48198  21.014   7.618   4.223
83214W        W48199  31.009  31.864  11.297
83215W        W48200  14.375  37.035   1.424
83216W        W48201   7.742  17.435  14.583
83217W        W48202  42.474   8.182  13.827
83218W        W48203  44.234  17.831  12.945
83219W        W48204   6.167   4.341  10.793
83220W        W48205  40.622   5.514   4.059
83221W        W48206   4.813  20.702   3.844
83222W        W48207  44.919  24.738   5.501
83223W        W48208  24.047  21.019   3.692
83224W        W48209  31.237  18.670   0.409
83225W        W48210   6.965  38.867   3.174
83226W        W48211  13.599   5.818  14.809
83227W        W48212  33.879   9.081   3.254
83228W        W48213  37.611  31.349   3.841
83229W        W48214  28.748  19.656   2.227
83230W        W48215  16.992  18.177  13.464
83231W        W48216  42.514  20.446   2.237
83232W        W48217  14.304  30.123  12.074
83233W        W48218  32.457  20.148   4.494
83234W        W48219  18.731  23.112   0.755
83235W        W48220   8.762   0.866   0.760
83236W        W48221  32.621  15.399  12.809
83237W        W48222   4.759  43.931   2.556
83238W        W48223  29.693  32.795   1.791
83239W        W48224  21.309   2.055   3.220
83240W        W48225  35.109   8.632   2.977
83241W        W48226  26.140  14.176   4.036
83242W        W48227  32.119   1.891  10.490
83243W        W48228  14.899  17.840  12.090
83244W        W48229  10.505  34.657  13.757
83245W        W48230   9.133   8.456  14.600
83246W        W48231  28.134  22.647   2.242
83247W        W48232  20.583  28.744   3.481
83248W        W48233  37.261   9.524  10.960
83249W        W48234  30.820   8.755  12.842
83250W        W48235  21.546   9.064  13.974
83251W        W48236  13.188  13.318  12.407
83252W        W48237  13.153  25.049  14.800
83253W        W48238   0.192  11.189   0.264
83254W        W48239  31.849  18.079   1.007
83255W        W48240  30.534  16.041  11.342
83256W        W48241  17.272  25.005   0.380
83257W        W48242  25.922  17.781   0.381
83258W        W48243  15.119  37.682   4.880
83259W        W48244  37.765  15.177   4.552
83260W        W48245  33.054  32.609   0.334
83261W        W48246   9.199  11.467   4.578
83262W        W48247  40.723  37.020   4.719
83263W        W48248  29.208   5.884   1.398
83264W        W48249   8.261  11.118   0.063
83265W        W48250  32.089  40.470   5.155
83266W        W48251   6.208   4.201  13.815
83267W        W48252  21.492   8.670  11.985
83268W        W48253   0.749  14.246   2.730
83269W        W48254  12.143   6.527  11.541
83270W        W48255  19.678  35.646   3.693
83271W        W48256  33.399   0.469   1.445
83272W        W48257  19.314  15.180  14.923
83273W        W48258  28.617  33.634   2.316
83274W        W48259  15.111  34.664   1.599
83275W        W48260  24.172  30.214   4.593
83276W        W48261  33.864   2.865   2.457
83277W        W48262   0.401   1.800  11.219
83278W        W48263  26.013  21.004   0.227
83279W        W48264  32.868  29.040  14.409
83280W        W48265  20.083  42.985   3.921
83281W        W48266  39.875  21.695  13.568
83282W        W48267   9.278  17.019   1.815
83283W        W48268  17.700  36.796   4.198
83284W        W48269   0.201   8.473  12.491
83285W        W48270   9.294  17.536  13.321
83286W        W48271  15.154  36.954  12.994
83287W        W48272  22.711   6.364   1.161
83288W        W48273   8.284   2.535  11.076
83289W        W48274  40.459  32.858  11.453
83290W        W48275  23.565  33.930  12.616
83291W        W48276  10.667  14.364  13.141
83292W        W48277  27.406   7.164  13.525
83293W        W48278  24.326  34.516   4.885
83294W        W48279   9.701   6.473  13.145
83295W        W48280  42.493  32.455  14.873
83296W        W48281  22.595  29.698  12.109
83297W        W48282  38.766  42.241  12.915
83298W        W48283  40.000  38.750  12.145
83299W        W48284  10.278  11.786   0.811
83300W        W48285  17.295  39.585  14.394
83301W        W48286  24.857  39.338   4.269
83302W        W48287  37.875  43.895  13.646
83303W        W48288  13.126   6.799  10.761
83304W        W48289   8.927  43.458  13.309
83305W        W48290  26.666  15.654   1.412
83306W        W48291   5.652   0.830   4.768
83307W        W48292  35.275  25.585   0.399
83308W        W48293   0.521  28.989   2.185
83309W        W48294  22.643   9.176   2.914
83310W        W48295  44.844  40.463   4.256
83311W        W48296  37.463  43.520   0.129
83312W        W48297  42.964   6.383  10.876
83313W        W48298  32.978  13.791  11.955
83314W        W48299  44.997   3.464   4.103
83315W        W48300   6.325  43.423   2.066
83316W        W48301  41.339  33.479  13.934
83317W        W48302  36.659   8.152   0.353
83318W        W48303   5.469  13.750  10.792
83319W        W48304  25.259  16.288   4.600
83320W        W48305  13.731   8.327  14.947
83321W        W48306   8.312  33.832  12.632
83322W        W48307   0.663   8.238  11.098
83323W        W48308  16.498   3.742  11.950
83324W        W48309  14.236  35.923  14.877
83325W        W48310  19.419  22.567   2.278
83326W        W48311  43.875   4.126   3.569
83327W        W48312  32.634  31.513   1.228
83328W        W48313  40.659   9.129   3.158
83329W        W48314  27.275  30.016   0.411
83330W        W48315  20.739  27.631   3.489
83331W        W48316  37.708   7.223   0.317
83332W        W48317  32.332  15.227   4.229
83333W        W48318  35.033  37.816   3.718
83334W        W48319  21.994  38.613  14.346
83335W        W48320  11.343  18.498   5.079
83336W        W48321  31.049  22.559  13.862
83337W        W48322  10.284  35.518   4.664
83338W        W48323  14.539   2.037   0.761
83339W        W48324  32.621  30.992   1.841
83340W        W48325  28.460   8.174   1.256
83341W        W48326  28.644   7.910   2.742
83342W        W48327  32.106  13.705   1.669
83343W        W48328  20.134  32.514   1.865
83344W        W48329  41.477  10.663  14.954
83345W        W48330  44.303  13.892  10.995
83346W        W48331   8.915  13.082  13.004
83347W        W48332  33.353  44.365  10.456
83348W        W48333  28.070  33.876   4.020
83349W        W48334  38.777  30.549   0.950
83350W        W48335  27.667  44.262   0.868
83351W        W48336  15.410   2.936  11.558
83352W        W48337   9.058  20.947  11.237
83353W        W48338  32.609  11.101  12.738
83354W        W48339  39.308   8.091  14.324
83355W        W48340  23.466  29.509   3.830
83356W        W48341  24.506   2.359   4.956
83357W        W48342  22.706  13.914  11.643
83358W        W48343   1.583   3.082   3.628
83359W        W48344  43.823  31.345   3.928
83360W        W48345  24.763  37.802   0.923
83361W        W48346  19.404  44.800   3.830
83362W        W48347  12.052  37.513  10.457
83363W        W48348  44.683  17.184  11.908
83364W        W48349   7.804   7.152  11.368
83365W        W48350  41.480  39.811   4.566
83366W        W48351  21.621  12.238  11.562
83367W        W48352  19.762  39.055   1.806
83368W        W48353  33.090  36.568   3.321
83369W        W48354  28.481  32.662  12.258
83370W        W48355  42.467  13.218  12.119
83371W        W48356   0.792  44.464   4.597
83372W        W48357  22.221  29.017  11.509
83373W        W48358  33.639   8.380   2.674
83374W        W48359  30.422  18.696  12.124
83375W        W48360  35.481  12.665   2.248
83376W        W48361  16.308  27.519  10.789
83377W        W48362  42.238   8.730  14.324
83378W        W48363  19.140  44.684  11.141
83379W        W48364  41.768   3.238  14.349
83380W        W48365  23.490  38.662  11.789
83381W        W48366   5.031  43.912   4.420
83382W        W48367   3.851  25.460   0.069
83383W        W48368  18.748  16.376   4.379
83384W        W48369  15.310  21.116  14.043
83385W        W48370  22.310   4.827  12.823
83386W        W48371   6.718   9.120  14.965
83387W        W48372  11.834   5.204   4.553
83388W        W48373  35.109  30.931   0.802
83389W        W48374  40.294  43.919   1.900
83390W        W48375  20.757  25.164  14.943
83391W        W48376  19.618  25.739   1.932
83392W        W48377  23.690   1.330   4.516
83393W        W48378  18.919  15.530  11.456
83394W        W48379  11.744  38.382   1.806
83395W        W48380  37.887   2.771  10.802
83396W        W48381   7.161   6.173   2.277
83397W        W48382  40.400  13.232   4.712
83398W        W48383  36.735   7.585  12.897
83399W        W48384  15.176  41.069  13.771
83400W        W48385  40.334  37.587  13.079
83401W        W48386  24.291  42.398  12.068
83402W        W48387   6.256  41.380  13.511
83403W        W48388  28.122  43.926   0.838
83404W        W48389  44.593  31.930   4.991
83405W        W48390  31.836  30.983   1.462
83406W        W48391  36.026  20.095   3.335
83407W        W48392  41.008  43.957  12.893
83408W        W48393   1.978  32.626   2.581
83409W        W48394  39.153  20.214  12.660
83410W        W48395  17.652   7.465  12.109
83411W        W48396   0.373  37.743  14.958
83412W        W48397  15.736  32.875   0.417
83413W        W48398  30.519   2.270   3.461
83414W        W48399   5.472  39.268  11.309
83415W        W48400  21.049   9.935   4.336
83416W        W48401  38.489  23.999  14.441
83417W        W48402   6.301   2.815   1.920
83418W        W48403  26.638  37.628   3.743
83419W        W48404  40.962  27.507   0.931
83420W        W48405   9.267  31.442   3.186
83421W        W48406  43.295   3.672   3.363
83422W        W48407   1.629   8.919  14.967
83423W        W48408   5.207  35.262   1.743
83424W        W48409  23.536  41.015  10.680
83425W        W48410  37.357  15.957  11.582
83426W        W48411  30.075  17.164  12.100
83427W        W48412  40.369   8.753   2.301
83428W        W48413  44.778   5.358  12.959
83429W        W48414   6.947  33.369  11.975
83430W        W48415   3.891  35.941   2.280
83431W        W48416   1.362  30.979   0.849
83432W        W48417  14.962  40.356  13.099
83433W        W48418  30.574  33.899  13.450
83434W        W48419  19.593  43.562  12.933
83435W        W48420  42.396   6.875  10.498
83436W        W48421  12.113  42.403   4.814
83437W        W48422  40.739   4.313   3.279
83438W        W48423  30.464   3.335   0.799
83439W        W48424  29.387  44.776  11.649
83440W        W48425  19.603  11.627   0.001
83441W        W48426  26.218  29.533  10.584
83442W        W48427  25.040  31.421   3.467
83443W        W48428  41.696  22.048   2.764
83444W        W48429   5.245  39.347   1.410
83445W        W48430   6.636   1.199  11.999
83446W        W48431   4.407  32.516  13.410
83447W        W48432  16.754  17.066   1.698
83448W        W48433  34.137  33.626   1.814
83449W        W48434  23.542  29.638  11.975
83450W        W48435  40.853  39.255   0.391
83451W        W48436  18.262   0.686  13.334
83452W        W48437  21.990   9.202   3.568
83453W        W48438   5.749  12.853  13.649
83454W        W48439  26.530  20.537   0.752
83455W        W48440  42.114  27.569   1.778
83456W        W48441  16.151  42.481   3.457
83457W        W48442  13.106  44.754   3.054
83458W        W48443  44.306   8.947   4.158
83459W        W48444   9.112  27.487   3.244
83460W        W48445   4.892  22.494  11.480
83461W        W48446  19.604  39.649   4.579
83462W        W48447  12.119  24.505   3.423
83463W        W48448  10.239  42.111   3.441
83464W        W48449   2.486   2.495  13.429
83465W        W48450  16.379  12.728   2.739
83466W        W48451  37.595  43.432  12.032
83467W        W48452  44.044  28.168  11.646
83468W        W48453  33.927  32.038  10.643
83469W        W48454  30.191   1.477  10.634
83470W        W48455  32.145  12.294   5.018
83471W        W48456  18.888  22.208   2.943
83472W        W48457  12.208  27.475  14.825
83473W        W48458   6.436  30.587  11.638
83474W        W48459  38.110   2.610   1.019
83475W        W48460  35.807  17.868  14.662
83476W        W48461  42.392  41.308  12.013
83477W        W48462  34.495  31.616   0.439
83478W        W48463  19.986  18.868  13.020
83479W        W48464  42.071   6.906   3.753
83480W        W48465  21.659  43.763  10.765
83481W        W48466   7.591   1.419   1.834
83482W        W48467   3.296   0.031   2.401
83483W        W48468  25.711   6.810   2.666
83484W        W48469  39.044  44.989  14.534
83485W        W48470  16.352   0.274  14.398
83486W        W48471  20.769  34.998   2.859
83487W        W48472   9.247   3.773  11.145
83488W        W48473  16.510   7.971  11.724
83489W        W48474  38.625  17.304  10.904
83490W        W48475  31.908  29.054   3.344
83491W        W48476  43.085   1.773   4.057
83492W        W48477  44.531   1.030   4.222
83493W        W48478   1.427  42.804   1.790
83494W        W48479  27.959  38.741   3.663
83495W        W48480  18.574  26.717   2.451
83496W        W48481   8.773  30.658   1.998
83497W        W48482   4.738  26.496   3.900
83498W        W48483  38.404  23.733  12.466
83499W        W48484  37.343   0.052   3.815
83500W        W48485  15.709  33.107   3.878
83501W        W48486  21.306  43.167  13.770
83502W        W48487  26.409  35.284   1.886
83503W        W48488   0.692  25.166  13.391
83504W        W48489  44.595  33.598   4.944
83505W        W48490   7.198  36.361   2.679
83506W        W48491  33.844  30.297  12.099
83507W        W48492  27.448   9.298   2.492
83508W        W48493  15.575   4.165   0.516
83509W        W48494  28.375  11.293   3.027
83510W        W48495   4.379  30.402  13.744
83511W        W48496  21.631  39.407  12.114
83512W        W48497  24.271  24.484  12.029
83513W        W48498  37.809  19.534  14.499
83514W        W48499  22.023  18.944   3.079
83515W        W48500  23.618  13.411  14.460
83516W        W48501   0.992  11.831   3.745
83517W        W48502   0.805  28.860  10.928
83518W        W48503  44.928  19.632   3.603
83519W        W48504  43.147  40.227  11.339
83520W        W48505  20.009  23.975   2.920
83521W        W48506  17.996  11.790  13.067
83522W        W48507  32.495   3.642  13.598
83523W        W48508  16.245  15.083   0.941
83524W        W48509  20.093   2.203   4.599
83525W        W48510   7.665  11.949  11.063
83526W        W48511  38.755  39.205  12.414
83527W        W48512  16.199  14.724   4.462
83528W        W48513   8.256  17.294   0.946
83529W        W48514  16.361  10.361  10.156
83530W        W48515  10.543  14.914   2.991
83531W        W48516  41.072   7.713  10.417
83532W        W48517  25.771  12.866  14.815
83533W        W48518  39.110  25.338  13.136
83534W        W48519  12.602  18.769  14.985
83535W        W48520   3.654   2.805   3.559
83536W        W48521  44.196   3.325  10.795
83537W        W48522  42.418  11.582  14.963
83538W        W48523  31.145  44.458  13.962
83539W        W48524  17.076  40.410   0.894
83540W        W48525  21.249  43.787   0.665
83541W        W48526  21.657  38.102   0.333
83542W        W48527  26.473  26.909  13.933
83543W        W48528  37.822  41.723   1.995
83544W        W48529  27.669  19.337  13.377
83545W        W48530  12.131   2.367   0.400
83546W        W48531  16.664  22.893  13.098
83547W        W48532  42.934  39.473   4.587
83548W        W48533  12.908  26.179  11.572
83549W        W48534  41.970  11.758   4.988
83550W        W48535   8.668  43.037   4.330
83551W        W48536  17.037  33.433  11.457
83552W        W48537   4.070  35.124  11.563
83553W        W48538   1.853  17.572  12.756
83554W        W48539  21.826  16.824  13.261
83555W        W48540  36.367  28.054  10.463
83556W        W48541  39.110  12.484   2.383
83557W        W48542   3.240  35.484  13.424
83558W        W48543  20.537  12.818  10.638
83559W        W48544  35.271  15.760   4.513
83560W        W48545  20.889  10.939   1.559
83561W        W48546   0.466  37.377  14.181
83562W        W48547   3.258  17.263  11.786
83563W        W48548  32.583  23.988  12.396
83564W        W48549  26.444   9.241  14.453
83565W        W48550   7.398   8.315   5.041
83566W        W48551  31.548  32.215   2.812
83567W        W48552   9.938   9.139  11.136
83568W        W48553   1.499   7.698   0.804
83569W        W48554   2.081  44.683  11.089
83570W        W48555  40.183  25.024   1.993
83571W        W48556   9.259  15.068   0.913
83572W        W48557  40.256  39.738   0.978
83573W        W48558   4.663   2.882  11.180
83574W        W48559   0.587  17.279   3.165
83575W        W48560  24.730  27.511   0.790
83576W        W48561  17.694  23.186  12.450
83577W        W48562   4.156  35.965  11.305
83578W        W48563  30.927   4.377  12.558
83579W        W48564   0.973  41.560   4.223
83580W        W48565  16.364  39.294  14.324
83581W        W48566   8.678  25.389  12.273
83582W        W48567   8.651  36.972  13.090
83583W        W48568  28.470  24.688  11.957
83584W        W48569  34.903  23.944   2.322
83585W        W48570   8.801  37.402  12.841
83586W        W48571   9.153  27.088  12.927
83587W        W48572  33.458   7.105  10.778
83588W        W48573  16.041  38.844  13.555
83589W        W48574   8.121  34.306  10.283
83590W        W48575  24.403  22.546   0.979
83591W        W48576  43.309  26.275   0.766
83592W        W48577   1.017  19.903  12.008
83593W        W48578  19.036   0.212  12.020
83594W        W48579  36.708  42.788  12.971
83595W        W48580  28.624  23.468   1.239
83596W        W48581  27.170   7.963  11.106
83597W        W48582  41.071  16.493  14.659
83598W        W48583  33.110  34.640  11.202
83599W        W48584   8.716  40.565   3.861
83600W        W48585  39.499   7.924   2.280
83601W        W48586  27.456  34.160  13.013
83602W        W48587  42.514   6.285   0.312
83603W        W48588  39.135  14.634   1.104
83604W        W48589  13.074  26.620   2.325
83605W        W48590  17.761  41.944  12.142
83606W        W48591  19.767   1.198   1.791
83607W        W48592   3.940  33.709  11.915
83608W        W48593  40.313  12.282  13.302
83609W        W48594  39.821  35.005  14.855
83610W        W48595   1.234  20.714  14.014
83611W        W48596   1.536  42.303  14.446
83612W        W48597  18.985  11.615  13.409
83613W        W48598  23.704   5.301  13.950
83614W        W48599   6.738  36.115   2.527
83615W        W48600  31.454  37.517  14.914
83616W        W48601  25.178  16.052  13.405
83617W        W48602   2.780  34.451  14.015
83618W        W48603  23.706  12.911   2.634
83619W        W48604   6.949  27.076  12.935
83620W        W48605  29.851  40.775   0.877
83621W        W48606  22.520  22.778  12.335
83622W        W48607  17.974  20.893   4.024
83623W        W48608  37.811  31.489   4.555
83624W        W48609  33.965   5.196   0.508
83625W        W48610  35.056  19.561  10.101
83626W        W48611  24.002  31.198   3.092
83627W        W48612   1.269  14.709   0.955
83628W        W48613  21.827  20.142  10.271
83629W        W48614  13.015   9.581   2.194
83630W        W48615   9.356  19.634   2.829
83631W        W48616  27.535  23.441   3.232
83632W        W48617   8.374  10.058   1.950
83633W        W48618  17.373  13.130  13.977
83634W        W48619   3.046  34.605   1.660
83635W        W48620  28.195  20.311  11.582
83636W        W48621  22.536   9.092   0.774
83637W        W48622  34.827  32.565  12.661
83638W        W48623  37.137   2.368   1.271
83639W        W48624  44.870  32.017  13.752
83640W        W48625  34.466  31.659   4.134
83641W        W48626  12.259  15.272  13.011
83642W        W48627   7.805  23.485   1.899
83643W        W48628   4.314   5.164  10.473
83644W        W48629  21.094   0.787   9.860
83645W        W48630   0.023  18.273   1.672
83646W        W48631  13.841  26.751   4.232
83647W        W48632   1.453  12.314   4.394
83648W        W48633  40.579  18.771  14.808
83649W        W48634  19.113  32.046   1.266
83650W        W48635  19.625  18.394  10.546
83651W        W48636  24.740  19.323   3.680
83652W        W48637  30.511   7.455   0.277
83653W        W48638  26.003  32.288   1.870
83654W        W48639  32.390   7.875   2.368
83655W        W48640  35.123   4.807  11.096
83656W        W48641   6.715   0.773  14.385
83657W        W48642  19.619  36.870  13.518
83658W        W48643  14.012   0.927  13.506
83659W        W48644  21.045  34.439  11.429
83660W        W48645  33.474  21.015  14.594
83661W        W48646  37.219   8.981   5.017
83662W        W48647  22.791   8.700   2.254
83663W        W48648  26.435  19.291  12.022
83664W        W48649   7.717  42.960  12.108
83665W        W48650  29.420  10.278   4.060
83666W        W48651  20.940   9.006  11.593
83667W        W48652  38.021  42.711   0.337
83668W        W48653   1.014  29.080   3.736
83669W        W48654  37.953  19.876   4.106
83670W        W48655  31.048  29.117   0.714
83671W        W48656  31.683  22.208   0.713
83672W        W48657  24.570  41.073   2.240
83673W        W48658   7.740  44.686  14.086
83674W        W48659  44.504  39.426   1.768
83675W        W48660   1.115  44.423  12.024
83676W        W48661  44.252  14.201  13.443
83677W        W48662  16.494  40.728  10.761
83678W        W48663  22.102  18.112  13.504
83679W        W48664   4.187  39.442  10.670
83680W        W48665  34.895  30.585   5.168
83681W        W48666  42.997  24.968  10.281
83682W        W48667   1.492   2.350  13.577
83683W        W48668  16.021  12.727   1.811
83684W        W48669  42.287  20.485   1.369
83685W        W48670   7.382  16.609  11.036
83686W        W48671  14.323  15.710  10.649
83687W        W48672   1.301  14.290  14.572
83688W        W48673  38.382  25.991   1.325
83689W        W48674  19.156  39.901  13.912
83690W        W48675  37.241  29.148  11.913
83691W        W48676  27.936  18.203   3.351
83692W        W48677  12.087  34.534   2.441
83693W        W48678  33.279  29.999  14.066
83694W        W48679  37.010  14.587   4.225
83695W        W48680  37.615   9.447  13.513
83696W        W48681  16.445  33.367  13.919
83697W        W48682  15.846  12.293  14.423
83698W        W48683   1.478  19.013   2.147
83699W        W48684  17.253   6.023  11.941
83700W        W48685  24.062   9.869   1.647
83701W        W48686  23.605  38.504   3.055
83702W        W48687  41.371  28.407  13.783
83703W        W48688   5.730  14.269   0.013
83704W        W48689  15.678  36.437   1.237
83705W        W48690  33.521  21.056  12.719
83706W        W48691  24.702  41.565  10.687
83707W        W48692  41.783  37.441   5.377
83708W        W48693  38.866   2.522  11.614
83709W        W48694   0.786  16.747   1.637
83710W        W48695  32.487   1.717   3.461
83711W        W48696  34.881  10.730   4.130
83712W        W48697  32.554   8.788  14.524
83713W        W48698  44.835  25.923   4.540
83714W        W48699  28.611  21.231  12.079
83715W        W48700  44.763  38.399  13.034
83716W        W48701  11.725   2.268   0.981
83717W        W48702   7.768  23.330   3.889
83718W        W48703   4.868   8.235   4.196
83719W        W48704  15.458  32.943  14.425
83720W        W48705  10.957  41.173  13.446
83721W        W48706  26.299  39.792   1.064
83722W        W48707  19.518   4.766  13.345
83723W        W48708   7.152  11.268   4.590
83724W        W48709  30.248   4.278  13.921
83725W        W48710  28.776  16.070   4.092
83726W        W48711  35.997  23.325  12.536
83727W        W48712  22.121   4.308   1.445
83728W        W48713  35.964  27.591  11.165
83729W        W48714  37.749  10.390  11.153
83730W        W48715  26.525  27.443   3.257
83731W        W48716  40.363  25.554  12.045
83732W        W48717  22.211  23.798   0.860
83733W        W48718  41.390   6.694   4.298
83734W        W48719  26.981   8.291   1.885
83735W        W48720  19.356  27.555   0.255
83736W        W48721  19.734  43.527   0.857
83737W        W48722  32.607  31.509  12.272
83738W        W48723  28.550   3.901  13.167
83739W        W48724   2.442   1.363  10.807
83740W        W48725  44.421  41.436   3.364
83741W        W48726  44.288  25.430   2.714
83742W        W48727   0.853  16.287  11.729
83743W        W48728  10.879  23.180  12.913
83744W        W48729  30.849   4.491   3.435
83745W        W48730   4.007  35.497   2.863
83746W        W48731  13.532   7.405   1.335
83747W        W48732  28.232  38.540   3.267
83748W        W48733  14.700  38.871  13.894
83749W        W48734  34.356  16.675   3.306
83750W        W48735  40.788  22.491   1.849
83751W        W48736  11.183  43.350  13.907
83752W        W48737   8.766  20.996   2.827
83753W        W48738   5.526  13.385   3.369
83754W        W48739  14.331  24.028  12.126
83755W        W48740   5.840  16.853   0.349
83756W        W48741  10.163  17.052   4.493
83757W        W48742  34.908   1.330   2.862
83758W        W48743  38.576  32.693   3.160
83759W        W48744  35.908  20.773  14.965
83760W        W48745   1.490   5.937   3.073
83761W        W48746   9.574   5.042   1.796
83762W        W48747  17.291  26.925  14.321
83763W        W48748  18.644   8.855  12.982
83764W        W48749   1.231  21.685  12.564
83765W        W48750  37.423   1.405  11.269
83766W        W48751  41.562  20.736   2.205
83767W        W48752   4.779  25.090  13.125
83768W        W48753  29.939  14.366  12.416
83769W        W48754   7.191  21.520  12.003
83770W        W48755  31.419  37.409  13.935
83771W        W48756  35.086  44.916   0.109
83772W        W48757  13.847  40.071   1.884
83773W        W48758   9.997  10.469  13.406
83774W        W48759  12.766  38.364   4.251
83775W        W48760   9.081  10.379   2.291
83776W        W48761  43.235  38.824   3.520
83777W        W48762  43.737  12.156  14.347
83778W        W48763  30.617  22.975  12.989
83779W        W48764   3.018  34.570   2.622
83780W        W48765  26.662  22.119   4.866
83781W        W48766   7.229  31.846  12.205
83782W        W48767  26.920  40.397   4.223
83783W        W48768   7.253  21.017  13.989
83784W        W48769  44.460  15.555  14.690
83785W        W48770  43.047  22.570  11.907
83786W        W48771  12.635  35.793   1.491
83787W        W48772  28.108  11.729   3.081
83788W        W48773  41.830  31.875  13.523
83789W        W48774  25.054  22.674   0.988
83790W        W48775   9.425  16.273  11.608
83791W        W48776  13.188  35.405   4.440
83792W        W48777   8.712  40.400   0.198
83793W        W48778  36.454  29.007   2.780
83794W        W48779  23.736   3.313  11.092
83795W        W48780  24.246  19.591  11.478
83796W        W48781  34.189  28.528   0.197
83797W        W48782  41.806  44.031   0.421
83798W        W48783  44.355  25.672   4.589
83799W        W48784   2.526  24.047   4.459
83800W        W48785  14.754  42.488   4.568
83801W        W48786  19.551  42.817  13.887
83802W        W48787  38.574  44.515  14.426
83803W        W48788  42.218  18.337   2.779
83804W        W48789  35.468   7.927   1.733
83805W        W48790  40.987  42.993   1.028
83806W        W48791   2.266  14.653   1.644
83807W        W48792  13.430   8.576  10.054
83808W        W48793  11.205  33.150  13.915
83809W        W48794  24.004  30.118  13.515
83810W        W48795  34.806  19.581   2.305
83811W        W48796  33.390  35.455  11.072
83812W        W48797  13.506  42.435  13.907
83813W        W48798  23.274   4.617  12.923
83814W        W48799  21.194  36.031  11.298
83815W        W48800  39.541  37.315   0.261
83816W        W48801  22.569  24.755  11.411
83817W        W48802  37.042  22.532   4.553
83818W        W48803   5.214  29.002  12.815
83819W        W48804  29.503  16.601  10.340
83820W        W48805  24.080  40.644  13.307
83821W        W48806  30.008  12.294   3.830
83822W        W48807   4.397   7.144   3.831
83823W        W48808   9.682  20.144  12.261
83824W        W48809  13.850  18.121   0.927
83825W        W48810  29.006  25.970   1.045
83826W        W48811  30.772   9.761   5.508
83827W        W48812  30.423  35.662   0.271
83828W        W48813  34.851  14.232  10.640
83829W        W48814  32.598  31.627   4.176
83830W        W48815  25.268   9.227  13.375
83831W        W48816  28.960  44.902   0.769
83832W        W48817  35.660  26.491   2.190
83833W        W48818   3.487  18.251  14.779
83834W        W48819  22.074  26.972  13.092
83835W        W48820  23.718   8.128   1.401
83836W        W48821  19.524  39.115  14.054
83837W        W48822   2.234   8.653   2.560
83838W        W48823  10.325  42.089   3.937
83839W        W48824  14.221  20.020   1.354
83840W        W48825  23.396   0.166   3.555
83841W        W48826  41.775   3.000  13.314
83842W        W48827  41.549  16.859   1.785
83843W        W48828  17.252  33.916   3.663
83844W        W48829  34.548  44.976  13.142
83845W        W48830  36.871   1.222   1.734
83846W        W48831   9.420  40.623  13.912
83847W        W48832   9.626   3.453   0.004
83848W        W48833   1.114  25.513  12.695
83849W        W48834  14.153  43.354   0.321
83850W        W48835  10.932  40.249  12.349
83851W        W48836  31.847  43.766  13.967
83852W        W48837   9.692  30.673   0.449
83853W        W48838  39.259  29.016  11.069
83854W        W48839  23.347   1.890   3.017
83855W        W48840   2.345  12.173  11.186
83856W        W48841  13.256   7.706  14.370
83857W        W48842   0.161  24.610  11.163
83858W        W48843  42.338  20.182  13.408
83859W        W48844  17.111   1.878  14.755
83860W        W48845  32.329  29.910   4.054
83861W        W48846   4.951  35.289  10.689
83862W        W48847   2.288  41.453  10.601
83863W        W48848  17.705  18.817  14.517
83864W        W48849  22.638  20.049   2.404
83865W        W48850   7.737  14.544   2.252
83866W        W48851  43.728  38.957   3.346
83867W        W48852  18.756  35.454  11.176
83868W        W48853   6.367  29.665   2.955
83869W        W48854  30.438  29.929  10.675
83870W        W48855  11.957  28.010  11.213
83871W        W48856  33.907   2.220   0.202
83872W        W48857  11.794  16.867  14.561
83873W        W48858   0.508  29.063   3.673
83874W        W48859  15.831  40.503  13.991
83875W        W48860   4.783   1.783   9.876
83876W        W48861   9.194  11.946  13.359
83877W        W48862  22.777  43.913   3.788
83878W        W48863  19.542  35.316   4.662
83879W        W48864  34.068  38.496  14.445
83880W        W48865  19.017  25.551  10.622
83881W        W48866  24.636  31.733   5.071
83882W        W48867  34.103   1.056   2.241
83883W        W48868  21.599   1.351   4.389
83884W        W48869  36.305  31.480  11.984
83885W        W48870  24.633  35.557   4.579
83886W        W48871  19.772   6.711  13.537
83887W        W48872  32.166  25.048  10.296
83888W        W48873  35.869   0.751  14.456
83889W        W48874  38.316  32.551   0.352
83890W        W48875  20.592  21.010   2.760
83891W        W48876  24.115  38.636  11.166
83892W        W48877   2.081  13.645   0.406
83893W        W48878  26.937   0.429  14.974
83894W        W48879  29.506  28.562   4.217
83895W        W48880   4.541  28.843   4.082
83896W        W48881   1.456  39.120  12.063
83897W        W48882  44.981  40.086  11.370
83898W        W48883   9.454  11.762   2.146
83899W        W48884  34.151  40.618  10.866
83900W        W48885  29.315  39.574   2.917
83901W        W48886  37.386  10.611   2.222
83902W        W48887  42.997  39.259   3.144
83903W        W48888  13.173  21.866  11.123
83904W        W48889  15.662  18.478  11.421
83905W        W48890  25.045  33.461  12.987
83906W        W48891  37.486  32.405  11.622
83907W        W48892  21.693   2.441   1.918
83908W        W48893  18.602  37.094   4.613
83909W        W48894  37.030  19.639   3.801
83910W        W48895  15.862   8.444  11.577
83911W        W48896  29.967  13.820  13.325
83912W        W48897   5.461  37.721   4.208
83913W        W48898  17.982  38.062   3.956
83914W        W48899   0.205  36.348   1.466
83915W        W48900  18.274  14.750  14.038
83916W        W48901  42.172   7.919  14.922
83917W        W48902  37.265  23.538   2.414
83918W        W48903  27.177  37.032   3.192
83919W        W48904  16.916  23.710  14.441
83920W        W48905  10.925  22.597   3.306
83921W        W48906  25.015  44.923  10.759
83922W        W48907  32.411  37.795  12.402
83923W        W48908  16.526   7.634  13.044
83924W        W48909  22.725   9.137  11.952
83925W        W48910  21.607  33.247   4.511
83926W        W48911  39.383  34.961   4.298
83927W        W48912  11.281   7.301   2.959
83928W        W48913  32.112  36.037   3.621
83929W        W48914  12.240  24.839  10.995
83930W        W48915   9.192  23.341   2.341
83931W        W48916   9.687  37.980  10.475
83932W        W48917   3.571  32.693  12.555
83933W        W48918  22.303  10.636  10.452
83934W        W48919   6.663   6.398  14.595
83935W        W48920  32.201  40.393   3.142
83936W        W48921  41.409   5.745   2.150
83937W        W48922   2.985  42.236  13.426
83938W        W48923  34.264  14.769  12.201
83939W        W48924  11.733  19.947   3.316
83940W        W48925  22.871  13.556  11.981
83941W        W48926  38.133   9.289   0.338
83942W        W48927   9.947  43.235   1.175
83943W        W48928  29.754  14.025  14.009
83944W        W48929  10.368  18.723   4.565
83945W        W48930  32.169   6.962  11.163
83946W        W48931   2.849  32.577  13.014
83947W        W48932  22.175  38.017   0.484
83948W        W48933  29.541  43.075   2.244
83949W        W48934   4.398  14.617   4.125
83950W        W48935  32.091   5.811  14.352
83951W        W48936  39.323  42.422   0.286
83952W        W48937  32.426   2.788   1.689
83953W        W48938  22.295   0.716  12.943
83954W        W48939  34.572   7.600  12.318
83955W        W48940  25.258  21.510  14.289
83956W        W48941  28.086   6.957  11.177
83957W        W48942  44.156  17.051   0.265
83958W        W48943  41.541   3.059   0.741
83959W        W48944  41.551  36.501  10.720
83960W        W48945  30.746   4.110  13.823
83961W        W48946  35.141  20.919   4.087
83962W        W48947  37.279  33.214   1.337
83963W        W48948   4.749  18.748  13.309
83964W        W48949  13.555  37.601  14.883
83965W        W48950   0.342  36.510  11.466
83966W        W48951  18.470  19.707   3.562
83967W        W48952   4.694  44.837  12.378
83968W        W48953  19.215   3.365   4.637
83969W        W48954  43.999  17.489  12.627
83970W        W48955  41.223   3.779  14.119
83971W        W48956  18.614  22.424  11.627
83972W        W48957   4.727  29.056  11.088
83973W        W48958  40.894  32.440   4.113
83974W        W48959   4.326   4.392   3.088
83975W        W48960  18.616  41.314   1.887
83976W        W48961  24.283  34.887   0.411
83977W        W48962  27.547  15.122   1.321
83978W        W48963  13.841   3.762   2.709
83979W        W48964  12.669  24.603   2.792
83980W        W48965  21.010  42.370  12.462
83981W        W48966   1.048  19.839   3.801
83982W        W48967   4.987   1.231   2.212
83983W        W48968  25.461  27.362  11.088
83984W        W48969  34.658  36.638   2.338
83985W        W48970  43.214  41.603  10.801
83986W        W48971  25.565  12.563   1.887
83987W        W48972  22.144  39.038   3.647
83988W        W48973  23.908  15.794  13.116
83989W        W48974  13.350  13.806  11.824
83990W        W48975  30.659  24.015  12.324
83991W        W48976  41.472   9.462   2.930
83992W        W48977  18.330  44.763  13.814
83993W        W48978  33.848   7.238  12.981
83994W        W48979  38.560  44.320   1.376
83995W        W48980   8.181   4.362   1.028
83996W        W48981   0.595  34.262  10.452
83997W        W48982  42.959  43.740   0.955
83998W        W48983  13.975  41.523  10.423
83999W        W48984  42.914  24.418   0.929
84000W        W48985  22.416  11.876  12.002
84001W        W48986   1.488  16.350   2.853
84002W        W48987  31.933  39.529   4.107
84003W        W48988  31.625  42.193   3.933
84004W        W48989  34.731  23.707   3.549
84005W        W48990  40.744   1.868  11.460
84006W        W48991   4.302  22.202   0.032
84007W        W48992   4.096  15.380  14.890
84008W        W48993  16.280  12.425   4.038
84009W        W48994  18.691  44.803  10.385
84010W        W48995   1.719  38.315   4.665
84011W        W48996  29.939   2.082  12.593
84012W        W48997  40.146  29.246  11.114
84013W        W48998  29.420  11.902   4.387
84014W        W48999   2.502  42.332   3.379
84015W        W49000  24.250   4.292   1.718
84016W        W49001  32.447  10.758   3.314
84017W        W49002  25.067  40.531  12.942
84018W        W49003  21.658  44.933  11.650
84019W        W49004  12.588  37.909   2.409
84020W        W49005  10.067  42.608   4.846
84021W        W49006  17.090   8.982   2.293
84022W        W49007  28.688  32.918   2.826
84023W        W49008   9.444  26.662   1.372
84024W        W49009  22.585  13.152   2.331
84025W        W49010  37.459  32.667  14.371
84026W        W49011  40.087  37.226   0.175
84027W        W49012  38.056  42.523   1.715
84028W        W49013  26.443  10.517   2.367
84029W        W49014  34.458  18.295   1.252
84030W        W49015   7.338   5.100   4.527
84031W        W49016   4.968   3.299   0.488
84032W        W49017  33.863  33.272   3.637
84033W        W49018  34.344   3.983  14.328
84034W        W49019   8.110  43.857   0.264
84035W        W49020  40.293  22.007  13.439
84036W        W49021  12.244   9.282   2.639
84037W        W49022  20.661   1.136   2.150
84038W        W49023   7.216  40.063  14.989
84039W        W49024  20.309  39.474   2.446
84040W        W49025  44.370  22.579  11.515
84041W        W49026  42.740  35.286  12.947
84042W        W49027  44.647  22.233  13.028
84043W        W49028  18.631   0.161  13.691
84044W        W49029  36.358  16.215   4.273
84045W        W49030  21.572  34.547   0.197
84046W        W49031  43.337   6.708   2.610
84047W        W49032  15.580  25.638   3.609
84048W        W49033  35.603   6.885  12.567
84049W        W49034   3.801  41.098  12.176
84050W        W49035  44.880  26.068  12.620
84051W        W49036  29.949  32.529  11.615
84052W        W49037  30.688  31.303  13.883
84053W        W49038  39.825  14.673  14.889
84054W        W49039  15.999  38.426  13.867
84055W        W49040   5.639  27.272  13.364
84056W        W49041   3.259  42.304  12.984
84057W        W49042   0.250  36.580  13.068
84058W        W49043  34.877  26.520   5.098
84059W        W49044  38.940  29.877   2.847
84060W        W49045  26.054  27.009   2.663
84061W        W49046  20.034  14.781  11.496
84062W        W49047  16.958  36.984   3.584
84063W        W49048  27.698  41.599   2.724
84064W        W49049  10.836  14.313  11.433
84065W        W49050  38.882   2.532  12.592
84066W        W49051  35.552  41.414  11.366
84067W        W49052  21.752  29.398  12.614
84068W        W49053  29.255  21.021  12.510
84069W        W49054  37.058  26.623   2.687
84070W        W49055   1.067   2.460  12.052
84071W        W49056  42.516  30.895   1.805
84072W        W49057  21.593  34.681   4.184
84073W        W49058  33.972   7.983  14.773
84074W        W49059   0.365   4.256   0.837
84075W        W49060   0.403  19.538  14.748
84076W        W49061  15.263  26.378   5.548
84077W        W49062  30.801  15.668  12.531
84078W        W49063  27.067   3.894   3.160
84079W        W49064  40.997   3.125  11.992
84080W        W49065  10.721  31.606  12.628
84081W        W49066  38.538  16.121   3.814
84082W        W49067  37.927  14.793  13.896
84083W        W49068   9.297  37.035   2.209
84084W        W49069   5.122  15.604  10.117
84085W        W49070  42.982  33.091  10.895
84086W        W49071   6.823  14.674   4.200
84087W        W49072   6.275  18.711   4.751
84088W        W49073   3.523  14.562   1.419
84089W        W49074   5.411  41.068  13.743
84090W        W49075  23.433  34.695  14.949
84091W        W49076  13.849  12.925  14.853
84092W        W49077  32.908   1.466   0.464
84093W        W49078  43.346  16.018  14.308
84094W        W49079  31.475  35.021  12.882
84095W        W49080  22.651  27.966   0.464
84096W        W49081  32.488  10.188  13.167
84097W        W49082   8.646  16.097   3.154
84098W        W49083   2.916  41.006   4.590
84099W        W49084  17.138  29.191  12.020
84100W        W49085  43.859  39.553  12.101
84101W        W49086  25.075  35.875   3.360
84102W        W49087   1.097  22.533   2.729
84103W        W49088  37.083  25.069   3.953
84104W        W49089   3.249  22.276   0.491
84105W        W49090  32.581  27.622   3.921
84106W        W49091   1.157  32.843  14.856
84107W        W49092  26.567  10.735  12.540
84108W        W49093  31.645  10.233  10.972
84109W        W49094   7.206  19.807  14.567
84110W        W49095  27.923   6.306  12.611
84111W        W49096  35.489  15.209   3.236
84112W        W49097  35.310   0.914   3.270
84113W        W49098  18.137   5.915  11.635
84114W        W49099  37.939  44.021   4.849
84115W        W49100  34.806  27.766   1.780
84116W        W49101  26.695  34.451   2.288
84117W        W49102  37.962   3.825  12.116
84118W        W49103   4.733  17.043   1.299
84119W        W49104  33.081  44.851  12.581
84120W        W49105  31.936  13.856   4.760
84121W        W49106  38.874  23.660  14.332
84122W        W49107  44.379  43.704   3.323
84123W        W49108  12.159  28.010   4.324
84124W        W49109  31.528  39.307   1.375
84125W        W49110  10.342  28.696   4.204
84126W        W49111  35.944   5.843   4.615
84127W        W49112   8.496  30.000   3.227
84128W        W49113  36.128  38.100  12.795
84129W        W49114  34.186  13.553  11.568
84130W        W49115   1.207  32.948   4.524
84131W        W49116  33.205  41.513  11.925
84132W        W49117  36.487   7.770   1.637
84133W        W49118   2.542  39.914   3.076
84134W        W49119  14.507   8.799  13.872
84135W        W49120  43.678  32.158  10.314
84136W        W49121  34.334   1.401  11.157
84137W        W49122  42.772  44.344  12.438
84138W        W49123  36.583  14.592   3.931
84139W        W49124   3.427  44.940   0.862
84140W        W49125  15.336  33.290   1.239
84141W        W49126  44.627  12.437   4.578
84142W        W49127  40.577  39.805  10.616
84143W        W49128  38.288   7.909   2.110
84144W        W49129  21.881  17.706   4.554
84145W        W49130  22.289  29.006   4.409
84146W        W49131   6.455  29.159  12.518
84147W        W49132   9.928  32.457  11.821
84148W        W49133   0.701  44.565   1.373
84149W        W49134  26.926  42.505  14.771
84150W        W49135   6.910  19.700  10.742
84151W        W49136  29.701   6.024  12.000
84152W        W49137  10.222  34.681   3.822
84153W        W49138   9.735  28.140  12.408
84154W        W49139  11.637   4.677   2.585
84155W        W49140  44.016  13.135  12.881
84156W        W49141  32.701  27.096  11.213
84157W        W49142  20.749  28.432  14.853
84158W        W49143  43.743  32.522  13.078
84159W        W49144  32.624  31.550  11.277
84160W        W49145  43.544  30.619   3.256
84161W        W49146  33.023  43.391  14.691
84162W        W49147  26.642  29.988  11.642
84163W        W49148   4.887  16.060  10.179
84164W        W49149   0.788  29.106   4.211
84165W        W49150   8.014  40.443   0.828
84166W        W49151  33.322  23.545   0.873
84167W        W49152  37.081   6.732  10.602
84168W        W49153  32.584   4.148   4.064
84169W        W49154  40.952   4.887   0.856
84170W        W49155   5.821  28.081  11.112
84171W        W49156   1.048   6.738   2.315
84172W        W49157  20.714  26.620  12.791
84173W        W49158  26.076  24.592   4.073
84174W        W49159  23.066  29.954  10.576
84175W        W49160  20.769  42.335  13.341
84176W        W49161  25.533  26.018   0.949
84177W        W49162  43.172  19.197   2.289
84178W        W49163  30.848   3.646  14.854
84179W        W49164  22.238   6.715   3.567
84180W        W49165   3.845   7.379   0.688
84181W        W49166  22.745  16.084  12.422
84182W        W49167   7.908   6.562  12.584
84183W        W49168  39.018  14.267  11.548
84184W        W49169  36.030  24.024   0.203
84185W        W49170  25.676   8.751   4.634
84186W        W49171  37.482   7.324   1.350
84187W        W49172  26.480  15.775   4.188
84188W        W49173  35.806  42.955   4.626
84189W        W49174  16.601  44.996  14.786
84190W        W49175  21.749  44.309  14.913
84191W        W49176  13.223  35.628  12.202
84192W        W49177  11.822  37.584   1.397
84193W        W49178   0.398  24.359   9.826
84194W        W49179   0.240  33.850   4.120
84195W        W49180  27.185  42.053  14.861
84196W        W49181  20.905  37.391   5.033
84197W        W49182  10.852  24.556   1.302
84198W        W49183  27.879  16.648   1.351
84199W        W49184  42.104  42.623   1.999
84200W        W49185  22.221   5.200  10.552
84201W        W49186  23.000  19.190   3.113
84202W        W49187   1.013   2.398   3.198
84203W        W49188  21.240  14.108   1.698
84204W        W49189   2.308  20.003  14.809
84205W        W49190  37.017  36.631   4.951
84206W        W49191  27.459  34.377   2.417
84207W        W49192   0.672  22.174  14.457
84208W        W49193  20.169  12.905   3.332
84209W        W49194  25.222  12.690   0.810
84210W        W49195  11.732  35.124  12.954
84211W        W49196  25.148  26.356  10.726
84212W        W49197   6.402  26.762  11.467
84213W        W49198  18.545  23.232  14.755
84214W        W49199   2.924  18.128  14.058
84215W        W49200   3.703  23.265   0.435
84216W        W49201   7.246  14.587   4.524
84217W        W49202  24.454  39.302  13.326
84218W        W49203   9.245  36.145   1.370
84219W        W49204  36.036  17.666  13.651
84220W        W49205  13.919  36.080   0.302
84221W        W49206   3.445  30.210  10.599
84222W        W49207  12.647  24.540  10.638
84223W        W49208  37.443  18.368  13.366
84224W        W49209  35.184   7.399  11.126
84225W        W49210  33.942   3.484  12.154
84226W        W49211  24.082   1.956   0.474
84227W        W49212   9.955   0.346  13.923
84228W        W49213  26.432  27.442   2.353
84229W        W49214   7.902   3.804  14.418
84230W        W49215   5.206  31.320  10.631
84231W        W49216  44.863  13.742   3.913
84232W        W49217  16.654  18.218  11.569
84233W        W49218  17.324   8.656  11.589
84234W        W49219  42.775  29.502   1.344
84235W        W49220  39.298  16.870  11.716
84236W        W49221  22.312  29.106  13.538
84237W        W49222   8.185  19.563  14.459
84238W        W49223  14.560   3.460  12.255
84239W        W49224  41.239  38.511  12.693
84240W        W49225  10.102  26.700  14.001
84241W        W49226  10.353   4.774  13.048
84242W        W49227   8.183  39.361  14.129
84243W        W49228  33.439  24.081  12.763
84244W        W49229   6.462  38.898  11.544
84245W        W49230  21.551  29.795   2.469
84246W        W49231   4.271  20.526   0.831
84247W        W49232  39.452  21.560  14.754
84248W        W49233  32.454  34.854   3.797
84249W        W49234  27.306   1.023   2.715
84250W        W49235  18.075  40.554   4.209
84251W        W49236  18.699   2.756  13.706
84252W        W49237  39.389   4.262   2.775
84253W        W49238   2.091  42.497   1.907
84254W        W49239  24.542  16.684  12.571
84255W        W49240  11.722  17.338   2.877
84256W        W49241  35.618  16.614   2.692
84257W        W49242  12.180  37.357   2.871
84258W        W49243  17.977  42.990  13.830
84259W        W49244   6.655  20.725  13.567
84260W        W49245  38.374  40.441  13.961
84261W        W49246  41.203  33.976   3.252
84262W        W49247  41.606  28.057  14.716
84263W        W49248  13.105  31.629   0.203
84264W        W49249  26.661  11.668   0.041
84265W        W49250   6.482  16.246   3.911
84266W        W49251  40.708  37.464  11.099
84267W        W49252  21.484   3.581   0.395
84268W        W49253  29.110  34.710  13.290
84269W        W49254  41.235  23.858  11.539
84270W        W49255  22.376  32.800   2.830
84271W        W49256  41.239  10.278   2.288
84272W        W49257  23.977  21.982  12.130
84273W        W49258   3.997  15.077   0.922
84274W        W49259  23.106  40.920   4.704
84275W        W49260  26.028   3.205   2.206
84276W        W49261   4.299  30.498   3.375
84277W        W49262  26.287  15.029   2.596
84278W        W49263   1.777  20.185  10.532
84279W        W49264  29.460   2.967  11.093
84280W        W49265  12.329  42.544  12.546
84281W        W49266  24.011  32.001   3.241
84282W        W49267  30.773   7.011   0.276
84283W        W49268  41.028  30.058   0.363
84284W        W49269  42.351   7.367  13.013
84285W        W49270   9.327  23.681   3.137
84286W        W49271  25.158  14.128   1.235
84287W        W49272  44.441  13.630   0.480
84288W        W49273  23.475  25.248   4.590
84289W        W49274  24.024  20.043  14.398
84290W        W49275   0.023  15.496   4.603
84291W        W49276  24.911  41.524   0.377
84292W        W49277  42.514  28.652  14.265
84293W        W49278  11.833  28.256  11.682
84294W        W49279  14.184  34.291  12.084
84295W        W49280  36.005  19.171   2.922
84296W        W49281   7.950  32.888   3.393
84297W        W49282  10.791  27.782   3.264
84298W        W49283  43.830  32.919  14.565
84299W        W49284  36.527  18.062  14.344
84300W        W49285  12.192  22.941   1.216
84301W        W49286  39.858  28.124   0.729
84302W        W49287   3.801  25.773  11.708
84303W        W49288  24.499  16.238   3.993
84304W        W49289  12.351  26.158   2.097
84305W        W49290  31.051   1.491   4.409
84306W        W49291  16.789   4.165  12.034
84307W        W49292   3.919  29.525  14.061
84308W        W49293  15.552  17.593  14.816
84309W        W49294   3.879  24.581  10.725
84310W        W49295  40.757  41.275  14.338
84311W        W49296  11.296  21.589   2.436
84312W        W49297  37.098  35.915   4.784
84313W        W49298   7.348  20.754   1.688
84314W        W49299  30.655   5.736  14.959
84315W        W49300  20.113  41.729  14.825
84316W        W49301   3.416   0.699   2.718
84317W        W49302  27.899  10.206  13.843
84318W        W49303  33.363  23.476  14.039
84319W        W49304  36.966   5.276   0.962
84320W        W49305  38.914  43.760   1.265
84321W        W49306  14.130  16.031  14.829
84322W        W49307  15.610   9.253   1.735
84323W        W49308   5.484  33.548  10.581
84324W        W49309  19.131  36.988   4.652
84325W        W49310  10.290  21.559  10.607
84326W        W49311  22.355   1.691  11.327
84327W        W49312  16.336  20.195   2.428
84328W        W49313  34.332  10.234  11.992
84329W        W49314   9.298  24.970   4.259
84330W        W49315  42.073  18.315  13.414
84331W        W49316  16.761  37.803  10.828
84332W        W49317  11.882  18.777   2.287
84333W        W49318  40.975  15.816  12.864
84334W        W49319  26.291   5.688  11.081
84335W        W49320  20.802  22.624   2.035
84336W        W49321  36.309  19.996  11.182
84337W        W49322  32.563  22.591   3.541
84338W        W49323   2.388  13.783  13.923
84339W        W49324  39.417  36.821  10.719
84340W        W49325  31.729   2.479  11.034
84341W        W49326  40.164  43.702  14.137
84342W        W49327   5.636  15.127  11.417
84343W        W49328  20.893  28.555   4.821
84344W        W49329  27.610  13.505   3.283
84345W        W49330  29.531  10.774   1.736
84346W        W49331  35.896  22.621  14.292
84347W        W49332  44.063   7.198   2.579
84348W        W49333  12.190   4.868   2.441
84349W        W49334  19.559  15.862  13.540
84350W        W49335   3.135  27.925  13.944
84351W        W49336  28.043  29.633  13.343
84352W        W49337  18.497  41.861  10.839
84353W        W49338  12.712   8.137   2.810
84354W        W49339  15.070  14.356   3.151
84355W        W49340  33.156  17.421  14.636
84356W        W49341  38.626  20.454  13.835
84357W        W49342  38.689  33.420   2.768
84358W        W49343  19.318  29.546  11.816
84359W        W49344  37.274  22.669   3.153
84360W        W49345   4.938  13.182  12.363
84361W        W49346  16.195  21.217  10.554
84362W        W49347  27.593   1.658  12.832
84363W        W49348  23.612  17.631  12.664
84364W        W49349  22.248   8.451  12.989
84365W        W49350  16.251  37.068   3.242
84366W        W49351  10.862  12.549  10.729
84367W        W49352  38.423  21.296  12.879
84368W        W49353  22.027  29.680   1.360
84369W        W49354  11.085  25.229   2.227
84370W        W49355  37.969  36.848  13.475
84371W        W49356  31.601  10.823   4.121
84372W        W49357  16.570   8.842   0.971
84373W        W49358   9.735  11.086   0.808
84374W        W49359  30.177  24.915  13.593
84375W        W49360   9.346   8.217   4.007
84376W        W49361  10.746   7.372  10.759
84377W        W49362   0.795   4.143  11.177
84378W        W49363  31.480   2.459  13.678
84379W        W49364  33.347  44.751   1.771
84380W        W49365  40.380  40.758  13.492
84381W        W49366  11.806  14.246   3.731
84382W        W49367  29.661   8.205   0.942
84383W        W49368  36.346   9.212   1.219
84384W        W49369   2.269  21.446  14.940
84385W        W49370   0.071  17.683   3.712
84386W        W49371  28.505  11.883  11.540
84387W        W49372  21.393  14.667   3.734
84388W        W49373  22.519  23.054   2.060
84389W        W49374  38.087   8.351  13.893
84390W        W49375  11.630  24.158  10.244
84391W        W49376  32.042  28.251   3.290
84392W        W49377  26.613   6.981   1.941
84393W        W49378   9.253   6.593   1.088
84394W        W49379  29.727  25.138   4.147
84395W        W49380  22.953  14.164   2.797
84396W        W49381  29.164  28.992  13.003
84397W        W49382  31.643  14.170  12.007
84398W        W49383  38.471  13.158   4.744
84399W        W49384  27.154  21.912   4.972
84400W        W49385   9.212  33.471  11.693
84401W        W49386  41.059   8.166   1.896
84402W        W49387  12.698  28.879   1.795
84403W        W49388  40.281  30.708   4.099
84404W        W49389   8.304  21.457  13.954
84405W        W49390  20.654  28.373  13.376
84406W        W49391   1.634  29.006  14.198
84407W        W49392  19.884  17.500  10.320
84408W        W49393  42.934  40.988   4.592
84409W        W49394   5.874   4.764   1.945
84410W        W49395  22.654  17.202   4.137
84411W        W49396  31.655  11.126   3.667
84412W        W49397   1.181  33.760  11.630
84413W        W49398  20.263  13.489   1.259
84414W        W49399  43.401   2.217  10.522
84415W        W49400  38.452  22.578  13.466
84416W        W49401  37.811  41.062  13.468
84417W        W49402  44.780  17.540   1.538
84418W        W49403  42.221  32.391  12.106
84419W        W49404  42.254  41.544  11.577
84420W        W49405  23.508  15.236  12.432
84421W        W49406  42.285  26.572  11.210
84422W        W49407  27.642  42.914   4.547
84423W        W49408  27.415   1.713  14.354
84424W        W49409  36.814   1.423  14.033
84425W        W49410   0.358  39.889  11.068
84426W        W49411  32.535  26.988  13.014
84427W        W49412  19.052  31.618   2.380
84428W        W49413  38.426  11.098   2.224
84429W        W49414  28.737  38.438   3.160
84430W        W49415  21.576   3.397  11.100
84431W        W49416  41.928  31.969   3.694
84432W        W49417   7.377  14.211   0.470
84433W        W49418  14.080  12.886   1.875
84434W        W49419  23.175  17.079  14.898
84435W        W49420  37.845  42.045  12.542
84436W        W49421  41.111  23.150   2.743
84437W        W49422   3.306  23.486  13.974
84438W        W49423  38.076   6.781   1.124
84439W        W49424   1.799  34.428   0.368
84440W        W49425  13.414  35.678  12.656
84441W        W49426  44.892  26.200   1.103
84442W        W49427  11.759  29.442   0.920
84443W        W49428  33.311  17.179  12.940
84444W        W49429   7.736  19.221   3.262
84445W        W49430  20.296  39.047   1.756
84446W        W49431  13.602  19.056  10.701
84447W        W49432  35.845  20.141   4.731
84448W        W49433  17.062  24.439   0.491
84449W        W49434  36.918  33.514  13.419
84450W        W49435  39.997  23.640   1.851
84451W        W49436  36.033   1.896  11.617
84452W        W49437   3.509  18.261   2.670
84453W        W49438  18.297  32.505  10.549
84454W        W49439  42.701  21.618   4.139
84455W        W49440   5.389  16.848  13.967
84456W        W49441   6.853  36.454   3.322
84457W        W49442  18.642  15.776   4.985
84458W        W49443  39.537  38.581  11.421
84459W        W49444  19.559  44.390  14.319
84460W        W49445  36.822   9.246  14.957
84461W        W49446  42.509  19.251  13.340
84462W        W49447   8.177  33.691  10.755
84463W        W49448  19.633  13.586   1.793
84464W        W49449  24.647   9.198   0.501
84465W        W49450  30.085  23.397  14.566
84466W        W49451  42.800  18.169  13.923
84467W        W49452  19.666  15.637  13.092
84468W        W49453   0.354   4.359   2.877
84469W        W49454  24.685  18.852  11.616
84470W        W49455   0.935  13.963  12.898
84471W        W49456   7.875  43.322   0.948
84472W        W49457  18.798  12.787   3.505
84473W        W49458  38.938  31.100   0.797
84474W        W49459   3.928  39.241  12.379
84475W        W49460  17.823  35.875  12.384
84476W        W49461  31.746  25.177  12.575
84477W        W49462  44.495  15.250   1.276
84478W        W49463   1.794  33.140  11.079
84479W        W49464   4.221   2.574   0.339
84480W        W49465  43.555  42.481  11.170
84481W        W49466  20.203  37.572  10.340
84482W        W49467  14.150  22.705  14.805
84483W        W49468  25.629  14.252   4.173
84484W        W49469  11.728  37.700  12.025
84485W        W49470   9.746  30.021   4.864
84486W        W49471  22.118  13.553  12.519
84487W        W49472   2.791  13.922   1.733
84488W        W49473  21.534  22.593   4.649
84489W        W49474  20.251   3.700   1.870
84490W        W49475   8.774  16.984   4.303
84491W        W49476  12.261   2.786   2.269
84492W        W49477  24.246  39.339   3.263
84493W        W49478  38.474  21.059   2.864
84494W        W49479  24.072  34.616  14.243
84495W        W49480   7.361  20.783   2.741
84496W        W49481   7.619  30.516   2.161
84497W        W49482  19.182  31.011   3.624
84498W        W49483  38.547   5.790   4.821
84499W        W49484  24.787  41.975   1.198
84500W        W49485  39.285   2.158  12.559
84501W        W49486   5.431  13.109   4.666
84502W        W49487   9.221   3.893   3.401
84503W        W49488  43.017  33.491   3.363
84504W        W49489  30.095  29.694   0.792
84505W        W49490  23.009   3.506   1.388
84506W        W49491   6.997  31.156   2.374
84507W        W49492  33.900  17.834   0.340
84508W        W49493   0.786  33.253   0.787
84509W        W49494  29.853  13.157  13.068
84510W        W49495  10.255  19.001  12.627
84511W        W49496  32.335  41.883   0.309
84512W        W49497   0.892  42.366  13.167
84513W        W49498  30.270  11.399   1.154
84514W        W49499  24.383   2.378   9.857
84515W        W49500  33.338   0.943  13.462
84516W        W49501   1.899  35.108  11.144
84517W        W49502  32.683  21.677   2.209
84518W        W49503  15.379  18.664   1.859
84519W        W49504   5.895   8.221  12.704
84520W        W49505  44.482  11.106   2.352
84521W        W49506   5.253  44.208   0.897
84522W        W49507  33.074  11.285  14.026
84523W        W49508  17.815  11.984   0.420
84524W        W49509  30.163  16.864   2.653
84525W        W49510   3.134  35.008   4.680
84526W        W49511  10.578   1.785   2.892
84527W        W49512  30.438   1.574  11.083
84528W        W49513  10.605  12.336  13.954
84529W        W49514  31.751  40.067  11.668
84530W        W49515  24.206  39.130  12.921
84531W        W49516  18.600  16.649   1.397
84532W        W49517  40.061   3.992  12.316
84533W        W49518  22.600  33.371   3.669
84534W        W49519   9.679  44.886  13.903
84535W        W49520  33.707  42.059   4.149
84536W        W49521  32.466   5.626  14.789
84537W        W49522  30.671   1.185   1.393
84538W        W49523  26.955  41.767   0.211
84539W        W49524  15.045  39.970   4.936
84540W        W49525  30.429  35.331   4.895
84541W        W49526  10.683  28.939  11.457
84542W        W49527  39.329  39.515   4.092
84543W        W49528  17.571  33.678  10.617
84544W        W49529   9.948  39.858  12.434
84545W        W49530  25.819  34.086  11.929
84546W        W49531  16.971   7.219   4.916
84547W        W49532   0.288   1.725  13.437
84548W        W49533  35.433   4.388   1.403
84549W        W49534   8.549  21.103  14.341
84550W        W49535  44.873  28.581   3.853
84551W        W49536  37.614  15.351  11.206
84552W        W49537  26.702   2.152   2.986
84553W        W49538  36.465   6.007  12.101
84554W        W49539  16.303   6.893   2.268
84555W        W49540  34.037   5.022   1.908
84556W        W49541   0.092  25.547  12.604
84557W        W49542  15.298  32.834  12.626
84558W        W49543  35.141  18.645  13.141
84559W        W49544  19.071   5.461   2.852
84560W        W49545   5.334  13.234   2.904
84561W        W49546  32.719   1.311  13.894
84562W        W49547  20.130  40.457   2.118
84563W        W49548  38.246  10.976  13.571
84564W        W49549  17.950  22.635   2.073
84565W        W49550   3.344   8.053   0.927
84566W        W49551  13.664   6.346   3.107
84567W        W49552  31.442  14.282   2.153
84568W        W49553  38.284  18.094   2.685
84569W        W49554  26.693  25.649  11.473
84570W        W49555  24.062  24.966  12.141
84571W        W49556  24.049  35.402  12.978
84572W        W49557   4.840  10.350  12.086
84573W        W49558  14.139  42.910   1.552
84574W        W49559  22.183  13.940  11.601
84575W        W49560  40.304   0.787  12.049
84576W        W49561  42.730  37.367  12.492
84577W        W49562  38.747   6.434  13.694
84578W        W49563  35.197  15.610  11.282
84579W        W49564  40.086  24.108  13.881
84580W        W49565  25.442  41.753  11.655
84581W        W49566  28.613   9.337   0.307
84582W        W49567  19.514   6.981   2.323
84583W        W49568  31.324  15.748   1.278
84584W        W49569  27.014  42.424  13.895
84585W        W49570   3.579   1.142   0.262
84586W        W49571   1.842  25.565  10.800
84587W        W49572  39.804  12.157  11.107
84588W        W49573  36.582  19.090  14.295
84589W        W49574  18.217  28.695   2.807
84590W        W49575  18.578   6.295   3.185
84591W        W49576  18.504   2.525  11.478
84592W        W49577  14.955   6.920   4.937
84593W        W49578  38.193  15.563   0.798
84594W        W49579  36.163  14.063  11.066
84595W        W49580  13.324  37.046   3.174
84596W        W49581  34.053  30.953   2.679
84597W        W49582  35.489  32.407  14.958
84598W        W49583  18.466   8.333   3.140
84599W        W49584  43.119  30.026  10.490
84600W        W49585  10.948  30.174   4.937
84601W        W49586  13.168  26.760  12.933
84602W        W49587  11.218  24.338   2.651
84603W        W49588  32.052   2.713  12.672
84604W        W49589  32.081   3.955  13.296
84605W        W49590  29.852   2.199   4.218
84606W        W49591   4.271  12.302  11.509
84607W        W49592  15.772  13.837   3.656
84608W        W49593   8.347   7.144  13.411
84609W        W49594  10.771  24.209   2.893
84610W        W49595  39.531  13.314  13.379
84611W        W49596  39.378  19.554  10.677
84612W        W49597   0.044   9.953  11.147
84613W        W49598  35.330   9.674   0.895
84614W        W49599  23.601  26.014   0.956
84615W        W49600   0.524  26.548  10.571
84616W        W49601  17.256  15.876  11.886
84617W        W49602  12.865  22.616  13.481
84618W        W49603  22.735  21.043  14.866
84619W        W49604  27.157   7.244  10.618
84620W        W49605  19.590   0.023  13.539
84621W        W49606  38.052  15.324   0.309
84622W        W49607  26.120   8.903   4.878
84623W        W49608  30.556  20.046  13.463
84624W        W49609  43.784  33.094  11.281
84625W        W49610  38.117  12.199   2.397
84626W        W49611  30.183  41.012  12.461
84627W        W49612  12.391   0.289  14.516
84628W        W49613  38.381  14.461   2.297
84629W        W49614   7.411  16.377   4.316
84630W        W49615  17.244  32.446  13.085
84631W        W49616  32.416   3.793   4.420
84632W        W49617  37.131   6.147  13.906
84633W        W49618  12.703  24.781   2.297
84634W        W49619  43.831  38.095   3.598
84635W        W49620  25.934  28.937  13.034
84636W        W49621  20.350  34.453  14.513
84637W        W49622  19.360  28.496   0.478
84638W        W49623  13.814  16.117   2.230
84639W        W49624  10.172   7.845  11.214
84640W        W49625  22.467   9.216  13.510
84641W        W49626  10.087  29.628  12.093
84642W        W49627  34.678   0.321  14.786
84643W        W49628   5.984  13.682  13.877
84644W        W49629  28.279   5.187   3.187
84645W        W49630  30.723  12.810  14.484
84646W        W49631  44.164  33.089  13.594
84647W        W49632  24.084  33.498   2.698
84648W        W49633  31.962  28.665  10.804
84649W        W49634   5.964  37.791  11.965
84650W        W49635  20.829  33.519  12.143
84651W        W49636   5.007  39.380   4.589
84652W        W49637  18.087  20.956   3.125
84653W        W49638  21.270  39.479   1.139
84654W        W49639   9.855   0.846   2.694
84655W        W49640  35.814  19.791  14.262
84656W        W49641  41.840  24.589  11.621
84657W        W49642  11.530  36.085   3.659
84658W        W49643  20.651  25.434   0.526
84659W        W49644  44.212  22.605  12.547
84660W        W49645   5.956  38.629  13.584
84661W        W49646   7.709  39.201  11.449
84662W        W49647  10.295  40.937   0.644
84663W        W49648  20.564   6.683  12.444
84664W        W49649  43.298  36.096   0.832
84665W        W49650  15.903  27.021  14.872
84666W        W49651   4.971  29.984   1.451
84667W        W49652   3.246  15.121  13.000
84668W        W49653  34.590  25.087  12.841
84669W        W49654  12.334  21.849   4.484
84670W        W49655  25.920   5.903  10.790
84671W        W49656  44.307   9.387   0.943
84672W        W49657  27.023  28.976   3.203
84673W        W49658  41.451  34.435  14.774
84674W        W49659  34.696   2.158  14.852
84675W        W49660  35.298  16.944   2.320
84676W        W49661  14.275  16.234  13.992
84677W        W49662   6.318  23.857   0.350
84678W        W49663  38.291  35.866   2.587
84679W        W49664  15.643  26.249   4.597
84680W        W49665  36.387   5.858  14.159
84681W        W49666  28.935  13.316   3.358
84682W        W49667  41.326  16.139   1.370
84683W        W49668  35.002  29.380  12.133
84684W        W49669  28.456   5.743   0.792
84685W        W49670  20.800  44.111   0.714
84686W        W49671   1.934  22.782   2.773
84687W        W49672  23.557  30.216  13.297
84688W        W49673   9.929  37.414  12.460
84689W        W49674  33.129   4.884  13.483
84690W        W49675  43.370  40.731  13.015
84691W        W49676  30.953  26.147   0.870
84692W        W49677  24.587  22.111  10.734
84693W        W49678  37.150   5.855   4.091
84694W        W49679  36.946  17.635  12.537
84695W        W49680   1.947   2.451   2.902
84696W        W49681  42.946   2.818   2.994
84697W        W49682  23.029   6.320   1.949
84698W        W49683  11.893  24.621   2.122
84699W        W49684  12.259  22.967  12.496
84700W        W49685  35.576  24.108   4.091
84701W        W49686  19.514  19.318   3.544
84702W        W49687  42.774  32.730   0.211
84703W        W49688  10.740  42.208  10.666
84704W        W49689  20.697  43.657   4.072
84705W        W49690  28.244  24.574   3.430
84706W        W49691  20.222  38.356  14.663
84707W        W49692   0.532  28.721  11.582
84708W        W49693  14.684  14.728   3.130
84709W        W49694  35.532  27.592  12.478
84710W        W49695  11.683  20.968  14.910
84711W        W49696  15.487  34.506   3.692
84712W        W49697  43.471  40.983   2.502
84713W        W49698  18.299  28.376   2.152
84714W        W49699  32.145   5.281  13.466
84715W        W49700   8.470  31.996  12.818
84716W        W49701  36.701  32.642  12.160
84717W        W49702  27.873   3.751   4.292
84718W        W49703  42.781   5.752  11.571
84719W        W49704  26.459   0.077   2.112
84720W        W49705  30.126   1.828   0.478
84721W        W49706  20.648  40.505   3.811
84722W        W49707  23.659  33.355   0.357
84723W        W49708  12.575  17.544  14.463
84724W        W49709  18.351  16.989  14.666
84725W        W49710  33.072   3.295   4.938
84726W        W49711   4.801   1.189  14.123
84727W        W49712   9.318  20.745   2.555
84728W        W49713  15.368  11.867  11.051
84729W        W49714  40.477  25.851   2.061
84730W        W49715  28.614  43.079  11.433
84731W        W49716  18.894  43.388  10.876
84732W        W49717  24.947  26.526  13.437
84733W        W49718  14.229  12.698  11.640
84734W        W49719   0.846  13.942  13.803
84735W        W49720  16.853   6.719  14.285
84736W        W49721  41.126  18.842   3.108
84737W        W49722  36.612  14.725  13.552
84738W        W49723  29.551  41.105  10.775
84739W        W49724   8.689   1.373   0.683
84740W        W49725  29.515  20.540  10.676
84741W        W49726   9.155  11.176   2.489
84742W        W49727   9.819  26.286   1.297
84743W        W49728   4.878  36.922   1.048
84744W        W49729   2.195  42.478   0.826
84745W        W49730  42.561  40.006  12.539
84746W        W49731  21.581   9.963   3.167
84747W        W49732   4.314   3.056   0.403
84748W        W49733  23.924  33.391   3.596
84749W        W49734  36.524  21.808   0.415
84750W        W49735  32.112   7.753   2.830
84751W        W49736   5.728  28.077   0.224
84752W        W49737  31.600   2.311   1.654
84753W        W49738  10.934   4.253  12.505
84754W        W49739  43.961  38.653  10.836
84755W        W49740   8.724  20.999  10.693
84756W        W49741   4.872  11.120  11.151
84757W        W49742  21.985  38.404  10.384
84758W        W49743  28.175  20.714   4.745
84759W        W49744  35.542  29.230   2.668
84760W        W49745  37.643   7.218   2.217
84761W        W49746  37.770  33.927   3.341
84762W        W49747  38.741  35.948  14.993
84763W        W49748  30.980  13.741   4.658
84764W        W49749  16.525  27.898  12.854
84765W        W49750   3.428  24.642   1.831
84766W        W49751  20.238  14.256   3.137
84767W        W49752   8.899  20.352  13.232
84768W        W49753  12.366  20.537  13.280
84769W        W49754   6.179  14.295  13.411
84770W        W49755  38.562   4.223   2.193
84771W        W49756  40.017  35.090   2.493
84772W        W49757  28.565  30.224  13.029
84773W        W49758  22.122  39.006  11.565
84774W        W49759  28.230  37.093  12.968
84775W        W49760   6.295  30.495   4.334
84776W        W49761  37.008   9.688  13.985
84777W        W49762  11.797   2.275  13.077
84778W        W49763  44.579  20.664   4.814
84779W        W49764  30.000  34.890  10.735
84780W        W49765  36.358   7.463   2.714
84781W        W49766  37.392  11.676   1.473
84782W        W49767  21.744   4.628   1.358
84783W        W49768  31.997   7.926  12.037
84784W        W49769  28.638  26.575   2.555
84785W        W49770  38.119  21.337  11.298
84786W        W49771  18.776  35.566   3.450
84787W        W49772  37.435   8.900   4.169
84788W        W49773  18.814  32.323   4.095
84789W        W49774  30.911   5.733   4.084
84790W        W49775  36.090  33.625   1.850
84791W        W49776  21.479  20.162   3.742
84792W        W49777  11.684   7.349  12.288
84793W        W49778  10.328   3.441   0.743
84794W        W49779  39.860  10.384   4.386
84795W        W49780   5.223  26.869  14.747
84796W        W49781  20.406  43.864  14.205
84797W        W49782  19.672  31.053  11.191
84798W        W49783  38.483  19.508   1.294
84799W        W49784  31.981  37.327   2.737
84800W        W49785   9.663  24.238  14.999
84801W        W49786  34.465  36.454   4.457
84802W        W49787  21.140  38.463  12.037
84803W        W49788  28.554  15.348   3.668
84804W        W49789   1.006  42.755  11.636
84805W        W49790  23.531  10.199  14.930
84806W        W49791  15.049  39.388   1.682
84807W        W49792  33.538   5.697   3.339
84808W        W49793  25.435  25.146  11.923
84809W        W49794   5.592  30.884   1.106
84810W        W49795  34.927  12.674  14.934
84811W        W49796  40.998  22.486   1.363
84812W        W49797  29.427   0.226   4.052
84813W        W49798  43.012  41.082  10.703
84814W        W49799  33.367  37.348   4.439
84815W        W49800  23.700  23.155  11.070
84816W        W49801  34.421  35.350  11.825
84817W        W49802  13.783  15.172   2.370
84818W        W49803  23.616  42.295  14.968
84819W        W49804  21.641  36.274  11.264
84820W        W49805  44.756   4.825   1.966
84821W        W49806  35.493  33.436  14.860
84822W        W49807  12.694   1.049   2.270
84823W        W49808  16.251  36.289  11.968
84824W        W49809  22.129  40.413   3.340
84825W        W49810  42.904  19.591   1.009
84826W        W49811   3.656  13.734  13.410
84827W        W49812  27.041  20.450   2.472
84828W        W49813  33.832   2.772  11.618
84829W        W49814  39.223  16.783  11.215
84830W        W49815  16.327  16.929  13.542
84831W        W49816   9.291  38.300   3.146
84832W        W49817  22.718  23.911   4.219
84833W        W49818  14.543  33.251   5.125
84834W        W49819  39.017   8.659   1.803
84835W        W49820  15.746  34.953   3.686
84836W        W49821   5.771  21.538  10.624
84837W        W49822  21.886  11.072  13.786
84838W        W49823  39.366   2.193   0.683
84839W        W49824  16.088  33.415  12.408
84840W        W49825  39.807  31.405   2.073
84841W        W49826  27.209  27.712  14.041
84842W        W49827  44.804   1.084   1.317
84843W        W49828  41.384   8.385  13.384
84844W        W49829  40.877   6.045   1.809
84845W        W49830  30.190  44.943   3.357
84846W        W49831   9.638  23.129   2.153
84847W        W49832   7.129  25.306  12.052
84848W        W49833  28.819   4.778   0.765
84849W        W49834   8.320  43.718  12.988
84850W        W49835  18.157  18.502  10.665
84851W        W49836   7.749  20.497   3.704
84852W        W49837   0.332  36.989   2.328
84853W        W49838  30.008  23.651   1.973
84854W        W49839  37.601  31.582   1.905
84855W        W49840  25.753   5.790   5.548
84856W        W49841  34.154  26.645  12.108
84857W        W49842  38.763  36.081   2.708
84858W        W49843  44.876  24.516  10.601
84859W        W49844  22.972   6.465  12.595
84860W        W49845  30.233  24.509  11.217
84861W        W49846  28.149   7.961  12.566
84862W        W49847  35.953  20.018   0.454
84863W        W49848  43.399  41.068  12.621
84864W        W49849   7.180  25.312  14.848
84865W        W49850  29.698  31.169   4.141
84866W        W49851   9.981  18.155  14.388
84867W        W49852  10.096  37.941   4.004
84868W        W49853   3.348  42.006   0.410
84869W        W49854  36.425   1.891   4.325
84870W        W49855  13.840   7.151  10.860
84871W        W49856   5.783  43.543   3.786
84872W        W49857  21.673   5.290  12.340
84873W        W49858  10.725  26.279  14.456
84874W        W49859  37.798  30.458  12.715
84875W        W49860  28.047  42.792   4.843
84876W        W49861  19.017  15.214  13.002
84877W        W49862  27.972   5.207   0.581
84878W        W49863  29.993   0.582  12.539
84879W        W49864  21.504  28.223   3.619
84880W        W49865  28.113   2.491  14.335
84881W        W49866  17.076  15.471  13.859
84882W        W49867   6.251  31.459   4.804
84883W        W49868  30.553  24.896   4.410
84884W        W49869  23.199  23.369   4.616
84885W        W49870   4.445   4.798  12.502
84886W        W49871   6.282  14.124  10.701
84887W        W49872  27.590   4.204  13.897
84888W        W49873  22.102  25.154   3.259
84889W        W49874  24.623  16.164  12.655
84890W        W49875  20.688   8.369  13.791
84891W        W49876  44.906  12.109   4.268
84892W        W49877  37.044  31.494  11.213
84893W        W49878  16.643  22.174  11.580
84894W        W49879  25.104  25.221   4.189
84895W        W49880   8.256   5.455  11.947
84896W        W49881  19.518  40.680  10.807
84897W        W49882  11.856  35.547   0.918
84898W        W49883  28.405  11.732  14.121
84899W        W49884  39.444  13.170   0.516
84900W        W49885  25.974  10.730  14.626
84901W        W49886  22.351  25.096  10.256
84902W        W49887   9.118  40.749   1.296
84903W        W49888  25.320   7.288  12.003
84904W        W49889  10.057  15.406   3.770
84905W        W49890  33.586  43.568  10.709
84906W        W49891  25.779  42.934   1.627
84907W        W49892   4.967   1.874   3.881
84908W        W49893  30.553   0.467   0.443
84909W        W49894   8.086  12.735   3.983
84910W        W49895  33.649  26.487  11.998
84911W        W49896  12.596  25.267   2.190
84912W        W49897  10.614  38.525  12.435
84913W        W49898   7.963  36.582  13.474
84914W        W49899  42.493  12.807   2.115
84915W        W49900  10.732   4.785   5.018
84916W        W49901  18.573  33.662   4.673
84917W        W49902  28.507  29.981  11.558
84918W        W49903  10.816   6.327   2.917
84919W        W49904  18.800  11.842   0.818
84920W        W49905   0.888  26.596   1.276
84921W        W49906  30.429  26.605   1.353
84922W        W49907  39.917  28.430   1.607
84923W        W49908  33.097  33.171  12.530
84924W        W49909  37.549  19.780  14.116
84925W        W49910  11.657  38.141  13.345
84926W        W49911   2.287  16.492   0.296
84927W        W49912  13.688  32.446   3.839
84928W        W49913  17.085  11.887   1.534
84929W        W49914  44.250  24.898   1.814
84930W        W49915  29.939  35.198  12.381
84931W        W49916   5.600  34.947  11.850
84932W        W49917   1.815  39.584   3.240
84933W        W49918   8.852  20.986   0.187
84934W        W49919  33.471  28.675  11.755
84935W        W49920   4.770  20.344   0.754
84936W        W49921   5.802  41.643   2.231
84937W        W49922  44.507  21.723   3.658
84938W        W49923  13.739  17.389   0.420
84939W        W49924  15.125  25.182   3.697
84940W        W49925  41.778  10.719  10.973
84941W        W49926  32.855   0.506  12.283
84942W        W49927   5.166  42.518  14.949
84943W        W49928   2.385  43.243   1.623
84944W        W49929  40.385  27.960  14.516
84945W        W49930  30.161  43.565  12.593
84946W        W49931  19.208  13.399  12.485
84947W        W49932  20.949   0.995  13.053
84948W        W49933  15.528   6.429  11.962
84949W        W49934   5.234  23.575   1.400
84950W        W49935  12.818   8.940   3.156
84951W        W49936  22.646  17.205   4.738
84952W        W49937   9.364  30.416   3.102
84953W        W49938  12.506  10.206   4.573
84954W        W49939  35.294  43.123   2.211
84955W        W49940  22.928  17.809   3.647
84956W        W49941  43.377  25.645   1.244
84957W        W49942  36.546  15.624  12.525
84958W        W49943  41.468  23.996  12.277
84959W        W49944  41.824   3.985  12.473
84960W        W49945  27.271  10.721   0.230
84961W        W49946  11.746   7.382   4.249
84962W        W49947   3.390  15.525   3.536
84963W        W49948  29.443  19.465   1.221
84964W        W49949   9.292  38.710  10.707
84965W        W49950  43.953  44.206  12.793
84966W        W49951  29.353  23.223  13.654
84967W        W49952   6.294   1.061   0.721
84968W        W49953   3.177  11.896  13.472
84969W        W49954   5.281  29.476   1.662
84970W        W49955  19.837  36.485   4.967
84971W        W49956  16.298  15.629   1.397
84972W        W49957  20.767  32.651  13.081
84973W        W49958  44.571  40.788   1.579
84974W        W49959  27.444   6.430   0.181
84975W        W49960  25.018  14.078  13.528
84976W        W49961   2.321  42.827  12.278
84977W        W49962  14.808  16.169  14.014
84978W        W49963  39.675   3.903  11.980
84979W        W49964   2.884  23.793  10.861
84980W        W49965  13.360  31.543   1.206
84981W        W49966   6.523  19.007  13.199
84982W        W49967  12.304  33.565   3.293
84983W        W49968  28.859  20.217  13.020
84984W        W49969  16.546   6.398   3.125
84985W        W49970   8.688  36.500  11.034
84986W        W49971  43.004  33.150  13.912
84987W        W49972   9.753   5.122   3.533
84988W        W49973  19.563  36.073  12.922
84989W        W49974  24.952  10.394   3.674
84990W        W49975   3.421  18.680  10.683
84991W        W49976  32.439  13.638   4.969
84992W        W49977  20.964  25.489   3.706
84993W        W49978  28.583   9.567  14.838
84994W        W49979  19.207  25.663   0.729
84995W        W49980  36.078  40.508  14.349
84996W        W49981  31.052  14.291  11.140
84997W        W49982  16.791   0.018  14.291
84998W        W49983   3.523  16.418   4.053
84999W        W49984   7.614  38.545  12.563
85000W        W49985   2.734  35.002   2.601
85001W        W49986   4.086  43.180   4.550
85002W        W49987   9.706  24.856   4.570
85003W        W49988  43.008   4.405   3.403
85004W        W49989  37.217  27.087  11.767
85005W        W49990  32.355  34.320  11.520
85006W        W49991  22.998   6.312  14.627
85007W        W49992  12.128  36.772  12.067
85008W        W49993  12.623  21.222   3.654
85009W        W49994  13.148  35.324  10.269
85010W        W49995   1.920  16.176   2.654
85011W        W49996  21.454  38.897  12.041
85012W        W49997  32.562  32.982  11.514
85013W        W49998  37.180  15.840   0.861
85014W        W49999  27.340  35.021  10.529
85015W        W50000  32.158  22.775   1.806
85016W        W50001  44.871  12.733  11.470
85017W        W50002   7.175  18.820  11.950
85018W        W50003  15.765   5.603  14.472
85019W        W50004  40.816   2.506   1.115
85020W        W50005  39.511  41.811   4.830
85021W        W50006   4.672   7.840   3.441
85022W        W50007   9.750  18.308   0.755
85023W        W50008  37.796  34.286   9.474
85024W        W50009   2.901   1.022  13.931
85025W        W50010  21.683  34.940  10.100
85026W        W50011  40.306  43.531   3.322
85027W        W50012   2.409  36.062   1.762
85028W        W50013  27.162   0.015   2.681
85029W        W50014  11.539  18.311  12.483
85030W        W50015   2.299  21.011   3.293
85031W        W50016   1.744   6.492   1.374
85032W        W50017  33.031  13.791  12.946
85033W        W50018  21.715  20.821  11.637
85034W        W50019  12.936  35.046  11.740
85035W        W50020  31.934   2.667   4.554
85036W        W50021  25.547  32.169   2.156
85037W        W50022  13.052  20.012  14.771
85038W        W50023  41.862  36.307   0.967
85039W        W50024  35.922  11.665  11.351
85040W        W50025  29.365  31.572   1.885
85041W        W50026  40.501  36.711  11.662
85042W        W50027   1.333  24.539   1.195
85043W        W50028  33.705  16.156   2.755
85044W        W50029  13.104  26.718  13.906
85045W        W50030  36.473  24.886  11.627
85046W        W50031  29.967  21.194  14.159
85047W        W50032  30.437  37.109   0.571
85048W        W50033  37.557  42.987  12.946
85049W        W50034  41.229  31.717  10.565
85050W        W50035  37.828   4.330  11.094
85051W        W50036  12.655   6.786  10.359
85052W        W50037  26.092  28.431  13.076
85053W        W50038   0.800  23.458   0.823
85054W        W50039  43.461  39.558   4.536
85055W        W50040  37.952  16.367  14.456
85056W        W50041  22.451  13.788  10.756
85057W        W50042  23.214  36.598   1.766
85058W        W50043  33.821  14.131  13.044
85059W        W50044  29.137  15.902   1.495
85060W        W50045  18.185   0.601  11.898
85061W        W50046   9.087  11.553  12.499
85062W        W50047  38.117  38.362   1.338
85063W        W50048   0.788  20.698  12.813
85064W        W50049  38.542  33.875   1.134
85065W        W50050  36.394   9.679  12.317
85066W        W50051  31.986   1.445   0.737
85067W        W50052   5.743   1.984   4.885
85068W        W50053  13.685  28.264   1.680
85069W        W50054  21.016  41.295  13.000
85070W        W50055  32.919  28.686  11.089
85071W        W50056   9.266  24.662  11.384
85072W        W50057   3.025  19.040   1.645
85073W        W50058  25.616  42.295   3.629
85074W        W50059  39.516  26.356  10.446
85075W        W50060  14.884  24.504   1.818
85076W        W50061   9.725  17.626   4.143
85077W        W50062  29.200  12.072  13.854
85078W        W50063   2.895  20.692   1.307
85079W        W50064  11.398  26.491  11.256
85080W        W50065  10.825  18.201  14.218
85081W        W50066   6.901  16.796  14.225
85082W        W50067  15.560  14.826  13.889
85083W        W50068  30.008  17.132   4.587
85084W        W50069  32.437  17.076  14.828
85085W        W50070   0.329  41.872  12.454
85086W        W50071  23.504  30.951   1.362
85087W        W50072  20.936  10.827  11.975
85088W        W50073  15.764  22.729  14.842
85089W        W50074   2.811  28.948  10.616
85090W        W50075  20.484  18.040  13.405
85091W        W50076  15.262  13.166   1.844
85092W        W50077  38.360   4.975   0.755
85093W        W50078  33.204  23.975  11.676
85094W        W50079  30.426  21.651  10.641
85095W        W50080  38.705  11.174   0.284
85096W        W50081  25.049  31.713  12.217
85097W        W50082  43.914  31.670  11.073
85098W        W50083  37.483  20.467  10.608
85099W        W50084  37.349  27.464  10.218
85100W        W50085  16.251  36.414  10.978
85101W        W50086  40.522  22.737   0.488
85102W        W50087  20.756  31.089   4.221
85103W        W50088  28.037   5.763   3.190
85104W        W50089  39.021   5.924   3.359
85105W        W50090  37.978   1.296   2.634
85106W        W50091  37.897  38.427  12.862
85107W        W50092  40.888  12.567  12.644
85108W        W50093  23.969  16.671   4.435
85109W        W50094  25.147  37.512   0.714
85110W        W50095  34.611   0.225  13.838
85111W        W50096   7.707  10.666  14.911
85112W        W50097  32.099  38.069   1.414
85113W        W50098   7.681  28.544   2.271
85114W        W50099  43.361  35.728   2.954
85115W        W50100  37.935  16.079  13.438
85116W        W50101  20.018  34.564   3.074
85117W        W50102  18.112  10.837  14.986
85118W        W50103  29.231  37.875  13.780
85119W        W50104   1.717   7.850   1.247
85120W        W50105   1.906  16.883  11.131
85121W        W50106  24.287  37.926   4.043
85122W        W50107  39.266   0.855   2.349
85123W        W50108  16.852  16.140   3.399
85124W        W50109  14.154  32.151  10.704
85125W        W50110  41.419  18.938   2.643
85126W        W50111  23.271   6.328   4.108
85127W        W50112  19.522  18.756  14.553
85128W        W50113  11.297  33.665  13.900
85129W        W50114  32.769  24.112  10.796
85130W        W50115  27.985  13.147   2.699
85131W        W50116  29.286  26.640  12.467
85132W        W50117  36.396  33.472  14.271
85133W        W50118  26.109  21.952  14.771
85134W        W50119   6.696  43.503   4.179
85135W        W50120   6.776   8.678   3.119
85136W        W50121   4.731  25.495   3.912
85137W        W50122  19.487  44.199  13.813
85138W        W50123  11.635   3.964   4.206
85139W        W50124  25.094   7.139   0.437
85140W        W50125  38.695  18.613   1.672
85141W        W50126  35.272  37.382  13.802
85142W        W50127  23.788  18.190   2.786
85143W        W50128  38.730  35.841  11.442
85144W        W50129  40.020  39.386   0.260
85145W        W50130  22.972  21.050   2.637
85146W        W50131  38.914   5.393   3.281
85147W        W50132   3.957  38.330  14.328
85148W        W50133  32.097  27.640  12.054
85149W        W50134  37.477  23.973   2.625
85150W        W50135  13.223  40.607  11.718
85151W        W50136   8.623  38.736   2.315
85152W        W50137  44.860  25.717   1.831
85153W        W50138  18.643  32.562   2.807
85154W        W50139  20.534  23.386  10.790
85155W        W50140   5.327  27.422   1.452
85156W        W50141  29.850  31.364  12.054
85157W        W50142   4.906  36.864   2.984
85158W        W50143  17.641  25.373  11.234
85159W        W50144  30.560  27.647   2.819
85160W        W50145   9.897  23.533  12.123
85161W        W50146   3.415  22.425   4.161
85162W        W50147  14.976  16.131  11.608
85163W        W50148  10.581  30.510   3.887
85164W        W50149  30.063  25.349  12.459
85165W        W50150  42.266  27.256  13.507
85166W        W50151  34.683  38.861  10.671
85167W        W50152   7.278  35.861  12.427
85168W        W50153   8.204   5.762  12.471
85169W        W50154   2.136  41.303  12.086
85170W        W50155  18.485  32.963  14.870
85171W        W50156  44.751   5.481   2.816
85172W        W50157  20.523  44.849  12.517
85173W        W50158  21.374  12.942  14.577
85174W        W50159  19.460  37.886  12.694
85175W        W50160  21.110   7.671  13.096
85176W        W50161  16.101  13.941  13.984
85177W        W50162  13.637  16.368  11.924
85178W        W50163  35.576  44.570  11.797
85179W        W50164   6.191   1.382  14.854
85180W        W50165  26.678  16.464   1.001
85181W        W50166  16.580  24.010   2.206
85182W        W50167  26.726  44.241  12.502
85183W        W50168  23.942  38.824  11.600
85184W        W50169  33.322  37.606   3.616
85185W        W50170  23.612  13.521   4.244
85186W        W50171   5.388   4.716  14.657
85187W        W50172  14.823  22.271   0.361
85188W        W50173  35.896  35.355   4.557
85189W        W50174  10.632  37.676  14.109
85190W        W50175  43.301   1.230  12.040
85191W        W50176   0.073  20.228  13.057
85192W        W50177  33.582  33.691  14.037
85193W        W50178  42.835  35.295   0.929
85194W        W50179   7.083   5.372   1.243
85195W        W50180  24.683  43.969  11.583
85196W        W50181  41.113  26.562  14.208
85197W        W50182  37.627  25.529  13.970
85198W        W50183   6.814  22.046   3.607
85199W        W50184  24.686  17.598  13.521
85200W        W50185  37.553  30.931  11.199
85201W        W50186   0.106  13.706  12.658
85202W        W50187  44.056  19.366  12.945
85203W        W50188  43.396   0.044  14.994
85204W        W50189  14.486  34.364   3.768
85205W        W50190  26.174  16.248  13.834
85206W        W50191  24.116  14.867  12.552
85207W        W50192  10.136  34.378  11.730
85208W        W50193  38.920  23.821  11.681
85209W        W50194  36.549  14.735  12.615
85210W        W50195   2.119  27.892   3.301
85211W        W50196  35.352   1.220   4.529
85212W        W50197  13.332  34.851   2.557
85213W        W50198   9.738  27.515  10.711
85214W        W50199  30.469  10.793   2.423
85215W        W50200   2.667  11.638   0.424
85216W        W50201  29.827  27.915  12.859
85217W        W50202  31.351  23.224  10.629
85218W        W50203  22.207  11.624   4.553
85219W        W50204  21.552  20.564   0.756
85220W        W50205  31.214  28.226  14.819
85221W        W50206  12.705   0.017   3.226
85222W        W50207  25.659   1.804   2.714
85223W        W50208  41.696  27.957   4.480
85224W        W50209   5.760  40.147   2.160
85225W        W50210   8.358  17.587  13.525
85226W        W50211  12.523   3.622  11.730
85227W        W50212  15.877  11.246   1.386
85228W        W50213  13.236  11.388   3.917
85229W        W50214  26.150  30.416  14.632
85230W        W50215  43.639  20.944   5.178
85231W        W50216  28.258  34.055   3.565
85232W        W50217   7.384   2.898  10.994
85233W        W50218   4.301  27.201  14.101
85234W        W50219   7.274  11.628  11.173
85235W        W50220  34.332  28.018   1.809
85236W        W50221  28.506  10.824   4.408
85237W        W50222  31.238  37.422   1.323
85238W        W50223  12.494  20.621  11.493
85239W        W50224  17.827   2.750  11.684
85240W        W50225  34.598   4.182  12.875
85241W        W50226  26.954  24.711   2.283
85242W        W50227  19.048   8.387   4.290
85243W        W50228  32.961  39.752   2.813
85244W        W50229  24.005   8.179  14.854
85245W        W50230   1.364  39.241   0.286
85246W        W50231  34.372  11.644   1.806
85247W        W50232  22.941   9.218   1.596
85248W        W50233   6.936  10.484  11.359
85249W        W50234  32.635   8.811  12.599
85250W        W50235   4.451  41.833   2.458
85251W        W50236  38.360  19.549  10.355
85252W        W50237   5.694  16.351  11.874
85253W        W50238   7.391  33.027   2.612
85254W        W50239  35.277  24.545  12.555
85255W        W50240   3.878  21.448  10.642
85256W        W50241  22.346  42.299  13.513
85257W        W50242   3.181  21.951  14.346
85258W        W50243  30.461  28.851   0.915
85259W        W50244  21.762  17.690   2.273
85260W        W50245  16.525   1.880   3.236
85261W        W50246  17.367  13.007  11.061
85262W        W50247  30.078   2.449  12.225
85263W        W50248  35.946  33.809  10.746
85264W        W50249   2.751  32.970   4.770
85265W        W50250  10.269  11.588   3.149
85266W        W50251  23.495  18.709   4.504
85267W        W50252  29.540  25.021   4.624
85268W        W50253  43.345  33.817   3.137
85269W        W50254   8.834  33.574   3.717
85270W        W50255   2.937  34.396   3.089
85271W        W50256  30.648   7.840   1.616
85272W        W50257  18.167  31.949  14.504
85273W        W50258  26.260  13.483   0.424
85274W        W50259  24.610  19.936   1.459
85275W        W50260  43.031  44.175   1.257
85276W        W50261  18.318  33.376  11.096
85277W        W50262  41.296  23.598  12.572
85278W        W50263  42.460  43.127   9.815
85279W        W50264  35.292   4.645   3.637
85280W        W50265   7.393  18.042  14.332
85281W        W50266  15.425  17.365   0.256
85282W        W50267  24.735  39.027  13.003
85283W        W50268  27.679  42.009   3.624
85284W        W50269  17.035  38.669   1.257
85285W        W50270   8.341  15.132   2.871
85286W        W50271  36.438  28.384   1.836
85287W        W50272   4.420   1.756   0.553
85288W        W50273  24.492   2.714  12.288
85289W        W50274  10.693   3.839  12.716
85290W        W50275   9.203  40.255   1.346
85291W        W50276  10.194   3.934   4.363
85292W        W50277  22.234  10.568  11.645
85293W        W50278  24.149  28.075   3.319
85294W        W50279  26.640  26.742  12.993
85295W        W50280   8.940  34.459  12.748
85296W        W50281   1.447   2.500  10.695
85297W        W50282  42.681  22.781  13.114
85298W        W50283  24.021   8.768   0.289
85299W        W50284   6.936  21.589  12.552
85300W        W50285  23.588   8.212   2.370
85301W        W50286  23.225   6.013   0.596
85302W        W50287  14.185  30.147  14.873
85303W        W50288  38.026  23.234  14.700
85304W        W50289  28.564  13.152  12.404
85305W        W50290  44.818  11.578   1.957
85306W        W50291  38.117  25.712  13.970
85307W        W50292   1.630  40.918  14.863
85308W        W50293   2.520  27.516   1.254
85309W        W50294   7.432  25.599  13.543
85310W        W50295  41.571  16.672   2.252
85311W        W50296  25.440  43.350   4.578
85312W        W50297  39.160  43.876  11.548
85313W        W50298  20.487  24.847  12.384
85314W        W50299  41.949   8.935  13.925
85315W        W50300  16.898  41.286   2.615
85316W        W50301  28.028  31.581   0.755
85317W        W50302  25.914  11.238   1.878
85318W        W50303  24.979  35.871   4.945
85319W        W50304   1.900  32.382  12.764
85320W        W50305  13.170  17.718   1.472
85321W        W50306  12.057  29.148  14.398
85322W        W50307  37.446   8.115   3.728
85323W        W50308  18.303   0.518   2.307
85324W        W50309  21.048  37.998   2.878
85325W        W50310  13.858  31.729   1.383
85326W        W50311  37.572   4.963  11.631
85327W        W50312   4.140   9.116   3.743
85328W        W50313  13.164  28.702  13.869
85329W        W50314  11.380  25.999  13.797
85330W        W50315  35.412  41.860   1.870
85331W        W50316  39.529  39.339   3.653
85332W        W50317  11.090  13.520   1.820
85333W        W50318   9.735  28.914  13.828
85334W        W50319  34.301  37.742   0.872
85335W        W50320  22.894  12.684  14.520
85336W        W50321  19.084  32.453   4.812
85337W        W50322  43.027  30.164   2.789
85338W        W50323  38.623  30.976  11.085
85339W        W50324   3.668  30.592   5.021
85340W        W50325  10.153  16.237   2.889
85341W        W50326  11.189   8.694   9.996
85342W        W50327  25.133  12.840  12.991
85343W        W50328  39.357  30.418   3.377
85344W        W50329  16.634   1.508   0.929
85345W        W50330  31.862   7.896   4.146
85346W        W50331  36.846   9.195   1.331
85347W        W50332  28.189  14.517  12.473
85348W        W50333  43.576   7.673  10.701
85349W        W50334  23.271   1.998   4.220
85350W        W50335  29.281  28.967  14.406
85351W        W50336  19.217  16.353  11.602
85352W        W50337  41.198  19.352  11.648
85353W        W50338  38.081  25.571   1.282
85354W        W50339   7.832  27.323  12.875
85355W        W50340  14.792  30.156   3.112
85356W        W50341   6.104  37.490   9.669
85357W        W50342  43.304  28.572  10.685
85358W        W50343  19.272  35.800   4.557
85359W        W50344  42.427  42.464   4.205
85360W        W50345  23.236  40.834   2.116
85361W        W50346  38.683   2.078   4.961
85362W        W50347  17.175   2.365  12.850
85363W        W50348  22.294  44.747  13.012
85364W        W50349  32.160   0.886   3.541
85365W        W50350  15.158  15.921  11.144
85366W        W50351  34.109  30.079   1.602
85367W        W50352  17.214  42.180  13.031
85368W        W50353  22.180  17.441  14.015
85369W        W50354   8.824  42.820  14.918
85370W        W50355   9.292  23.405  14.626
85371W        W50356  11.275  24.562  10.863
85372W        W50357  16.474  24.076  11.870
85373W        W50358  41.555  13.287  11.662
85374W        W50359  36.430  34.520   2.420
85375W        W50360  18.599  40.749  11.548
85376W        W50361  13.069  22.156  13.391
85377W        W50362  21.187  20.528  14.832
85378W        W50363  32.593  18.640  13.953
85379W        W50364  14.392  44.244   4.621
85380W        W50365  13.737  38.477   2.254
85381W        W50366  29.025  29.976  12.109
85382W        W50367  38.590   2.981  12.505
85383W        W50368   7.276  35.579   3.212
85384W        W50369  32.706  13.434   0.469
85385W        W50370  36.589  13.045  14.761
85386W        W50371  12.557  22.616   1.403
85387W        W50372  31.938  24.953   3.798
85388W        W50373  16.397  42.770   0.419
85389W        W50374  32.639  14.379  11.393
85390W        W50375  27.551   6.921   1.871
85391W        W50376  37.675  34.529   5.057
85392W        W50377  27.022  39.235   4.807
85393W        W50378  37.906   9.085   4.103
85394W        W50379  14.860   1.808   2.780
85395W        W50380   4.991  43.294   1.420
85396W        W50381  12.629  26.222  11.151
85397W        W50382  13.475  26.410   4.094
85398W        W50383  29.683   9.755   2.858
85399W        W50384  29.205  29.562   4.619
85400W        W50385  31.678  27.483   4.444
85401W        W50386  15.344  39.482  14.416
85402W        W50387   5.167  12.068  13.953
85403W        W50388  29.162   0.744   2.892
85404W        W50389  19.853  20.533   2.096
85405W        W50390  25.211  27.689  12.502
85406W        W50391  28.427  29.120  12.888
85407W        W50392  29.032  31.053   2.977
85408W        W50393  21.088  23.964  14.813
85409W        W50394  29.433   3.769   1.856
85410W        W50395   2.437   1.373  11.582
85411W        W50396  41.074  19.095  10.982
85412W        W50397  42.605  14.789   4.268
85413W        W50398  15.657  35.484  11.483
85414W        W50399  13.572  13.394  14.849
85415W        W50400   8.647  21.707   4.175
85416W        W50401  34.067  23.213  13.878
85417W        W50402  30.960   2.383   2.817
85418W        W50403  32.893  11.655  11.512
85419W        W50404  15.624  33.885   0.504
85420W        W50405   3.411  38.375   4.356
85421W        W50406  43.919  38.574  14.351
85422W        W50407   6.699   6.626   0.062
85423W        W50408   3.201  22.498   3.312
85424W        W50409  42.210  19.662  12.631
85425W        W50410  21.263  11.199   2.921
85426W        W50411   5.694  10.653  11.247
85427W        W50412   6.116  21.422   2.208
85428W        W50413   3.943  28.400  12.943
85429W        W50414  21.363  39.109  13.040
85430W        W50415  18.573  33.247  13.853
85431W        W50416  29.973   6.405  13.321
85432W        W50417  33.333  31.460   3.250
85433W        W50418   5.118  35.754   4.531
85434W        W50419  11.899  31.443   3.717
85435W        W50420  18.044   1.258  11.112
85436W        W50421   4.429  44.749   1.226
85437W        W50422  12.306  36.991   0.314
85438W        W50423  39.842  43.771  14.689
85439W        W50424  28.160  16.115  14.848
85440W        W50425  11.442  40.998   1.413
85441W        W50426   9.606  35.698   0.477
85442W        W50427   9.749   9.218   4.230
85443W        W50428  22.107  42.741   1.308
85444W        W50429  28.847  18.754   0.747
85445W        W50430  41.436  43.310   0.509
85446W        W50431  31.678   2.512   0.684
85447W        W50432  36.428  23.253   2.349
85448W        W50433  29.207   2.438   3.628
85449W        W50434  23.771  29.906  12.375
85450W        W50435  21.120  40.023   0.457
85451W        W50436  14.375  28.813   1.290
85452W        W50437  34.577  11.170  13.738
85453W        W50438   3.851  33.093  12.411
85454W        W50439  10.147   4.862   0.501
85455W        W50440  23.580  21.792  14.609
85456W        W50441  42.296   9.603  12.475
85457W        W50442  19.284   3.857   0.056
85458W        W50443   8.922  44.478  12.019
85459W        W50444   7.380  36.571   4.718
85460W        W50445  24.729  18.583   0.393
85461W        W50446  40.546  21.241  10.981
85462W        W50447  25.496  43.262   0.493
85463W        W50448  18.000  36.344   4.218
85464W        W50449  20.139  19.058   4.038
85465W        W50450  41.046  21.206  14.996
85466W        W50451  27.173   3.021   2.713
85467W        W50452   7.698  36.197   4.507
85468W        W50453  35.364  22.001   2.701
85469W        W50454  36.789  13.654   2.728
85470W        W50455  27.939  16.307  11.504
85471W        W50456  23.193  38.154   1.075
85472W        W50457   5.157  22.807   2.192
85473W        W50458  12.662   6.039  13.745
85474W        W50459  17.855  36.557  13.074
85475W        W50460  15.661  28.136  12.685
85476W        W50461  25.120   3.225  11.628
85477W        W50462  40.426  13.512   3.465
85478W        W50463  18.582   7.657  11.076
85479W        W50464  26.608  22.096   1.723
85480W        W50465   0.789  17.325  14.463
85481W        W50466   4.508  14.199  11.741
85482W        W50467  20.977  30.653   2.288
85483W        W50468   9.921  30.606  13.764
85484W        W50469  25.696  44.871   1.287
85485W        W50470  11.673   2.036   2.247
85486W        W50471  37.993  35.374  14.835
85487W        W50472   7.851   0.006  13.138
85488W        W50473  32.934   2.744  13.887
85489W        W50474   1.923  44.435  14.851
85490W        W50475  10.121  31.676   3.360
85491W        W50476   6.656  15.388  12.969
85492W        W50477  23.530  41.550  14.081
85493W        W50478   0.262  37.517   4.273
85494W        W50479  12.431  14.466  11.192
85495W        W50480  25.143  17.689   2.275
85496W        W50481   6.819  28.844  11.493
85497W        W50482  17.304  38.991  11.758
85498W        W50483   0.695  27.478  12.989
85499W        W50484  19.849  33.538   4.278
85500W        W50485   2.629  25.624   2.370
85501W        W50486  24.031  31.119  14.445
85502W        W50487  16.244  30.544   4.981
85503W        W50488  33.404  42.388  13.969
85504W        W50489  43.945  10.055  14.122
85505W        W50490  35.395  13.559  14.380
85506W        W50491  17.296  29.566  14.229
85507W        W50492  39.266  18.673   2.407
85508W        W50493  33.291  38.826   1.233
85509W        W50494  38.625  10.229   2.762
85510W        W50495  40.003  18.730  12.116
85511W        W50496  42.664  11.082  11.111
85512W        W50497   9.185   5.632   1.396
85513W        W50498  17.653  11.428  13.808
85514W        W50499  26.648   0.722   4.134
85515W        W50500   0.219  40.775  14.749
85516W        W50501  11.463  23.973   0.361
85517W        W50502  40.934  27.628  14.926
85518W        W50503  41.047  22.070  12.892
85519W        W50504  23.931  39.530   3.702
85520W        W50505  29.550  22.514  13.803
85521W        W50506  44.710  10.881  14.807
85522W        W50507   9.423  21.987   1.834
85523W        W50508  18.821  26.078   1.815
85524W        W50509  20.176  43.406   4.655
85525W        W50510   6.186   7.142   1.325
85526W        W50511  41.213  20.421  14.857
85527W        W50512   5.006  13.255   3.296
85528W        W50513  17.313   0.042  13.012
85529W        W50514  12.077   7.368  14.942
85530W        W50515  35.930  12.413   2.306
85531W        W50516  31.647  16.256   4.919
85532W        W50517  35.358   2.746  13.622
85533W        W50518  35.447  42.500   4.629
85534W        W50519  24.175   8.990   1.669
85535W        W50520  43.358  29.457   1.157
85536W        W50521   8.939   8.510   1.710
85537W        W50522  24.631  11.786   0.765
85538W        W50523   2.211  13.220   1.244
85539W        W50524  20.320  38.476  11.659
85540W        W50525   2.620   8.977  13.508
85541W        W50526  34.162   5.324  14.187
85542W        W50527  23.021   5.264  14.307
85543W        W50528  21.099  30.609   0.378
85544W        W50529  26.537  26.603   1.964
85545W        W50530  43.300   1.321   3.596
85546W        W50531   7.460  44.083   4.922
85547W        W50532   8.510  24.237  11.067
85548W        W50533  34.303  26.382   0.015
85549W        W50534  29.925   6.267   2.055
85550W        W50535  39.138  44.963  12.005
85551W        W50536   6.182   6.363  11.854
85552W        W50537  19.913  25.724   2.784
85553W        W50538  11.995  13.099   0.879
85554W        W50539  37.545  34.390   2.883
85555W        W50540  44.450  14.210  13.927
85556W        W50541  42.325   0.976  12.101
85557W        W50542  43.074   5.375   3.718
85558W        W50543  37.425  35.609  11.517
85559W        W50544  10.332  28.352  14.407
85560W        W50545  36.635  26.651  14.892
85561W        W50546  39.614  26.772  14.433
85562W        W50547  40.981  21.152  14.479
85563W        W50548  21.071   6.202   1.258
85564W        W50549  20.749  44.704  14.753
85565W        W50550  36.072   1.990  12.460
85566W        W50551  34.251  35.929   1.073
85567W        W50552  12.225  33.426   4.801
85568W        W50553  30.862  37.089   1.858
85569W        W50554  19.571  14.695  12.715
85570W        W50555  14.210  34.584  12.951
85571W        W50556  12.757  34.200  12.216
85572W        W50557  21.500  23.018   1.672
85573W        W50558  24.041  39.239   4.140
85574W        W50559  43.402  19.592   0.758
85575W        W50560   4.658  42.190   3.852
85576W        W50561  43.522  36.312   0.368
85577W        W50562  29.844  20.485  11.119
85578W        W50563   1.074  42.554   4.585
85579W        W50564  32.908   4.877   1.249
85580W        W50565  13.560  10.222  12.925
85581W        W50566   4.736  11.853   5.075
85582W        W50567  35.183   5.743  10.890
85583W        W50568  39.788  27.145   1.144
85584W        W50569   5.691  16.126  10.919
85585W        W50570  16.783  42.803   0.869
85586W        W50571   9.420  40.386   0.884
85587W        W50572  19.869  44.632   5.043
85588W        W50573  27.658  17.374  10.832
85589W        W50574  28.972  17.478  11.030
85590W        W50575  43.370  24.964  12.526
85591W        W50576  31.551  22.086  12.402
85592W        W50577  40.078  37.154   1.989
85593W        W50578  16.123  23.726   0.538
85594W        W50579  25.822  28.925   4.532
85595W        W50580  32.696  35.073  10.616
85596W        W50581  23.470  36.937   2.531
85597W        W50582  42.219  24.965  11.613
85598W        W50583  27.092   1.764   1.271
85599W        W50584  31.624  13.324  13.875
85600W        W50585  17.525   9.157  10.688
85601W        W50586   4.543  23.626   2.844
85602W        W50587   6.878  39.819   1.438
85603W        W50588  37.034  32.260   1.445
85604W        W50589  10.796  44.842   2.858
85605W        W50590  19.038  38.358  14.935
85606W        W50591  36.920  26.706  11.606
85607W        W50592  38.040   0.729   3.885
85608W        W50593  37.283  38.566   3.830
85609W        W50594  30.949  34.595  10.311
85610W        W50595   4.849  41.757  14.860
85611W        W50596  26.375   3.847  12.821
85612W        W50597  40.716  12.604  11.671
85613W        W50598  44.471   5.310  14.882
85614W        W50599  22.048  36.138  12.341
85615W        W50600  12.376   6.663   1.956
85616W        W50601  35.746  19.301  10.717
85617W        W50602  40.376  44.065   1.007
85618W        W50603   3.200  37.091  14.344
85619W        W50604  31.394  37.275  12.087
85620W        W50605  18.610  43.466   3.733
85621W        W50606  10.068  42.379   0.510
85622W        W50607  12.568  22.145  13.311
85623W        W50608  28.668  37.502   1.805
85624W        W50609  32.499  42.539  12.492
85625W        W50610   4.712  44.034   0.887
85626W        W50611  42.478  18.276   5.345
85627W        W50612   4.896   0.060  11.100
85628W        W50613  23.311  19.736  11.977
85629W        W50614   7.288  39.257  12.593
85630W        W50615  23.949  26.309  12.004
85631W        W50616   6.953  31.226   0.842
85632W        W50617  41.310  10.704  14.048
85633W        W50618   7.280   7.206   4.169
85634W        W50619  19.151  14.773   1.217
85635W        W50620   5.209   4.136   4.955
85636W        W50621  30.143  22.032  14.636
85637W        W50622  33.993  17.055   2.405
85638W        W50623  43.942  16.026   1.471
85639W        W50624  12.238   1.873  10.725
85640W        W50625  23.029  10.980   3.144
85641W        W50626   7.950  19.086  14.702
85642W        W50627  21.639  29.115  14.074
85643W        W50628  22.323  42.338  11.597
85644W        W50629  38.337  34.673  10.973
85645W        W50630  40.538   2.205   3.745
85646W        W50631  36.418  26.669  13.402
85647W        W50632  29.682  34.104   0.764
85648W        W50633  40.912  37.023  14.134
85649W        W50634   2.316  32.523   2.199
85650W        W50635  43.894   0.590   1.288
85651W        W50636  44.356  20.605  13.574
85652W        W50637  35.074   9.001  14.353
85653W        W50638  30.614  40.173  10.611
85654W        W50639  13.963   8.063   0.809
85655W        W50640   0.712  13.174   2.397
85656W        W50641  39.861  34.331   4.983
85657W        W50642   5.650  26.792  13.506
85658W        W50643   0.776  27.805   3.325
85659W        W50644   8.751  43.413  10.688
85660W        W50645   9.139  27.063   2.900
85661W        W50646  11.378  24.000   1.242
85662W        W50647  26.849  23.490  11.156
85663W        W50648  32.426  41.693   3.748
85664W        W50649   5.705  22.561   2.830
85665W        W50650  36.433  39.874   3.345
85666W        W50651   0.022  10.218  14.701
85667W        W50652  19.631   4.386  10.977
85668W        W50653  40.385  39.351   2.370
85669W        W50654  31.332  39.539   3.191
85670W        W50655   4.246  16.400   1.981
85671W        W50656  25.954  41.467  13.303
85672W        W50657  34.512  29.503   1.664
85673W        W50658  32.107  33.094  13.338
85674W        W50659   8.626  11.267   4.817
85675W        W50660  20.564  12.784   3.024
85676W        W50661  35.084  34.313   4.688
85677W        W50662   3.420  34.472  10.617
85678W        W50663  25.626  29.908   3.649
85679W        W50664  38.297  25.710   1.779
85680W        W50665  28.992  41.937  13.710
85681W        W50666  13.827  12.332  11.591
85682W        W50667   4.222  12.165   0.372
85683W        W50668  22.659   6.198   2.921
85684W        W50669  26.508  31.580  14.763
85685W        W50670  33.655  25.660  11.052
85686W        W50671   1.963  38.094  13.406
85687W        W50672  30.071  16.208  10.607
85688W        W50673  31.280   8.798   0.431
85689W        W50674  10.875  22.359   1.909
85690W        W50675  44.788  12.751  13.974
85691W        W50676  38.105  27.532   0.502
85692W        W50677   1.522  25.111   0.543
85693W        W50678  42.856  43.750   4.782
85694W        W50679  39.530   6.298   4.039
85695W        W50680  11.304  23.504   0.234
85696W        W50681  36.989  14.311  12.323
85697W        W50682  43.939  43.377  10.927
85698W        W50683   4.783  11.039   2.553
85699W        W50684  28.492  30.464  11.743
85700W        W50685  44.588   7.279  14.199
85701W        W50686  18.124  30.719   4.520
85702W        W50687  18.812   4.742   2.609
85703W        W50688   3.704  41.904  13.980
85704W        W50689  29.617  35.568   3.360
85705W        W50690   2.335  32.188  12.590
85706W        W50691   8.103   3.738  11.560
85707W        W50692   2.252  17.377   4.176
85708W        W50693  42.892  25.214   2.750
85709W        W50694   2.297  10.199  11.394
85710W        W50695  11.335  33.053   0.775
85711W        W50696  19.734  14.362  13.385
85712W        W50697  30.282   8.865  14.445
85713W        W50698  35.972  40.026  12.068
85714W        W50699  31.475  44.031  12.491
85715W        W50700  26.697   4.224   4.662
85716W        W50701  37.388   2.046  10.646
85717W        W50702   5.048   5.343   4.507
85718W        W50703  39.279  21.606   0.235
85719W        W50704  20.498  30.888   3.366
85720W        W50705  34.435  43.214   4.447
85721W        W50706  15.834  15.574  13.475
85722W        W50707  37.390   7.608   4.717
85723W        W50708   9.586  33.952   3.113
85724W        W50709  18.708   7.866   3.185
85725W        W50710  14.288  26.247  14.905
85726W        W50711  38.979   2.495   1.960
85727W        W50712  43.243  34.950   2.395
85728W        W50713  20.090  14.645  13.570
85729W        W50714  15.587  17.513   0.753
85730W        W50715  11.260  34.618   4.667
85731W        W50716   0.572  42.865  12.550
85732W        W50717   0.849   9.413   4.631
85733W        W50718   4.668  13.741  13.607
85734W        W50719  41.868   9.705   0.975
85735W        W50720   3.899   3.985  12.468
85736W        W50721  39.601   7.181   4.225
85737W        W50722  28.859  31.557   2.145
85738W        W50723  33.807  13.166  13.977
85739W        W50724  39.505  10.902  14.957
85740W        W50725  17.720  30.220  14.872
85741W        W50726   8.909  28.096   2.383
85742W        W50727  42.440  13.701  11.105
85743W        W50728  43.754   2.874   4.619
85744W        W50729  10.208  13.702   3.042
85745W        W50730  11.718   1.538   2.388
85746W        W50731  35.855   5.266  13.944
85747W        W50732  23.159  22.451  12.083
85748W        W50733  38.975  39.893   1.119
85749W        W50734   7.607  21.717   2.632
85750W        W50735  27.742  40.754  10.639
85751W        W50736  16.789  42.508  11.397
85752W        W50737  14.058  16.793  13.966
85753W        W50738  13.736   5.073  13.429
85754W        W50739   6.225  20.459   3.110
85755W        W50740   6.131  19.330  13.344
85756W        W50741  15.023  24.049  11.598
85757W        W50742  34.625  17.133  13.918
85758W        W50743  23.311  14.491  11.982
85759W        W50744  28.271  18.498  12.942
85760W        W50745  30.755  21.698  12.816
85761W        W50746   4.969  27.479  13.640
85762W        W50747  28.076  29.552  14.363
85763W        W50748  17.502  22.703  12.373
85764W        W50749  36.074   4.735  11.135
85765W        W50750  11.109  40.359   2.416
85766W        W50751  42.380   5.130   1.458
85767W        W50752  23.105  19.492   2.661
85768W        W50753  23.732  39.401   3.196
85769W        W50754   2.557  38.359  11.071
85770W        W50755  40.047  33.027   0.509
85771W        W50756  12.726  35.896  14.715
85772W        W50757  42.326  15.762   0.372
85773W        W50758  13.034  22.634   4.584
85774W        W50759  27.979  38.843  14.290
85775W        W50760  19.700  34.157   0.974
85776W        W50761  17.752   7.138  13.017
85777W        W50762  43.151  42.825   5.177
85778W        W50763  17.617  39.259   2.709
85779W        W50764  42.702  21.947   3.714
85780W        W50765  44.418   6.227  14.895
85781W        W50766  10.285  25.166   0.994
85782W        W50767  36.328  39.334   4.244
85783W        W50768  26.191  15.028  12.473
85784W        W50769   5.434   6.395  14.945
85785W        W50770  20.611  34.116   3.445
85786W        W50771   6.895  15.182  11.521
85787W        W50772   5.956   0.850  12.533
85788W        W50773  44.354   9.847   0.718
85789W        W50774  36.792  38.397  11.565
85790W        W50775  22.582   4.911   2.422
85791W        W50776  42.867   4.922   1.416
85792W        W50777  12.641  38.658   3.847
85793W        W50778  16.061  33.080   3.006
85794W        W50779  13.076  29.490  14.916
85795W        W50780   4.121   6.263   0.563
85796W        W50781  27.538  41.093   2.761
85797W        W50782  16.580  37.260  11.897
85798W        W50783  27.377   5.360   2.284
85799W        W50784  42.864  23.229   3.209
85800W        W50785  27.013  14.287  14.912
85801W        W50786  11.078  37.029   3.754
85802W        W50787  31.219  33.424  12.952
85803W        W50788  30.714   6.671  14.875
85804W        W50789  10.088  43.530   2.819
85805W        W50790  13.142  38.243  12.519
85806W        W50791   1.390  25.448   4.771
85807W        W50792  34.392  36.151   3.157
85808W        W50793  41.302  20.794   3.137
85809W        W50794  26.717  34.071   0.515
85810W        W50795  15.261  43.800   3.596
85811W        W50796  17.206  10.793   2.076
85812W        W50797   9.253   3.896  13.905
85813W        W50798  40.784  33.872  12.735
85814W        W50799  19.715  26.207  10.586
85815W        W50800  17.775  33.420  11.074
85816W        W50801  36.319  36.209   2.693
85817W        W50802  39.987  29.062  14.618
85818W        W50803  12.194  30.649  10.912
85819W        W50804  19.307  23.775  10.724
85820W        W50805  12.415  11.736   3.617
85821W        W50806  14.819  37.969   0.856
85822W        W50807   0.845  44.130   2.674
85823W        W50808  11.774  13.458  10.531
85824W        W50809  25.028  13.529   4.111
85825W        W50810   4.356   6.102   4.656
85826W        W50811  35.479   6.145  13.327
85827W        W50812  24.306  41.223  10.780
85828W        W50813  14.285  13.893   4.573
85829W        W50814   5.285  41.599  12.817
85830W        W50815  30.536  39.337  11.164
85831W        W50816  36.522  29.630   3.620
85832W        W50817   2.989  44.449   0.577
85833W        W50818  29.503   8.323  14.340
85834W        W50819  43.859  21.172  14.061
85835W        W50820   3.836  25.115  10.960
85836W        W50821   5.843  29.412  11.462
85837W        W50822  25.679  22.023   1.620
85838W        W50823   5.817   0.630   0.171
85839W        W50824   0.057   7.638   3.350
85840W        W50825  20.254  26.137   3.686
85841W        W50826  32.146  15.407   0.292
85842W        W50827   3.296   9.321   2.110
85843W        W50828  43.714  11.115  14.390
85844W        W50829  11.769   2.058  10.541
85845W        W50830  16.470  21.209  12.912
85846W        W50831  39.612  32.390  12.486
85847W        W50832  43.785  26.556   0.289
85848W        W50833  14.737  40.012   2.049
85849W        W50834  11.117  21.077   4.614
85850W        W50835  31.423  16.113  11.012
85851W        W50836  44.765  10.174  11.554
85852W        W50837  17.501  40.984  13.546
85853W        W50838  41.358  27.478  12.641
85854W        W50839   7.664   0.713   3.782
85855W        W50840  31.118  16.361  10.678
85856W        W50841   1.787  13.548   1.252
85857W        W50842  21.026  42.815   0.867
85858W        W50843  44.309  39.951  14.499
85859W        W50844  18.566  18.017   0.143
85860W        W50845   3.696  10.151   2.390
85861W        W50846   7.823  27.474  11.637
85862W        W50847   3.460  30.879  12.423
85863W        W50848  30.327  38.743  11.792
85864W        W50849  42.514   6.140  11.747
85865W        W50850   9.098  21.667  11.890
85866W        W50851   1.942   6.619   0.562
85867W        W50852  20.547  11.119  10.745
85868W        W50853   2.434  35.908   4.148
85869W        W50854   7.430  14.089   4.523
85870W        W50855  22.157  13.771   2.723
85871W        W50856  21.995  20.286  13.038
85872W        W50857  21.447  37.336  11.988
85873W        W50858   3.904  29.734  12.437
85874W        W50859  25.934   8.658   1.858
85875W        W50860  33.473  28.854  12.405
85876W        W50861   6.407  26.639   1.789
85877W        W50862  10.562  16.765   0.942
85878W        W50863  19.209  24.984   1.009
85879W        W50864  28.923  14.673   2.112
85880W        W50865  33.846  28.954   4.804
85881W        W50866   0.677   0.288   3.488
85882W        W50867  11.246  30.725  12.049
85883W        W50868   2.200  29.059   0.574
85884W        W50869   3.452   6.831  11.492
85885W        W50870   6.877  10.967  14.998
85886W        W50871  12.367  34.961   1.744
85887W        W50872   5.198  37.612   1.861
85888W        W50873   9.274   7.946  11.675
85889W        W50874  24.945  41.762   4.099
85890W        W50875  38.904  23.528   2.248
85891W        W50876  34.152  21.336   0.327
85892W        W50877  43.368  19.668  14.803
85893W        W50878   0.111  20.168  11.177
85894W        W50879  20.049   0.291   0.877
85895W        W50880  23.448  25.562   1.727
85896W        W50881   3.811  26.511   4.992
85897W        W50882  19.229  44.448   0.787
85898W        W50883  37.419  29.484  14.756
85899W        W50884  41.318  40.960  11.631
85900W        W50885   8.921   2.360  10.746
85901W        W50886  24.064  30.680   9.786
85902W        W50887  12.450   3.945  12.810
85903W        W50888   2.187   8.383   2.105
85904W        W50889   1.266  35.547  10.972
85905W        W50890  15.301  13.336  13.778
85906W        W50891  28.521  24.057   2.114
85907W        W50892  23.946  35.130  12.324
85908W        W50893  36.330   2.432  13.167
85909W        W50894  22.797  22.181   3.625
85910W        W50895  10.217  37.913   0.811
85911W        W50896  25.389  33.359   2.143
85912W        W50897   8.291  23.114  10.543
85913W        W50898  41.057  14.877   2.524
85914W        W50899  44.929  35.065  13.004
85915W        W50900  39.757   6.063   2.445
85916W        W50901  17.637  11.061  13.457
85917W        W50902  41.732  38.917  12.061
85918W        W50903  27.289  28.948  13.462
85919W        W50904  38.521  22.746   2.328
85920W        W50905  25.952   5.485  14.769
85921W        W50906  16.445  39.512   4.874
85922W        W50907  35.100   5.306  13.361
85923W        W50908  12.329  18.665   1.373
85924W        W50909  31.002  14.702  11.573
85925W        W50910  24.240  21.725   4.257
85926W        W50911  44.506  41.350   2.851
85927W        W50912  41.499   2.296   3.718
85928W        W50913  22.972   3.692  11.474
85929W        W50914  36.487  33.294   0.225
85930W        W50915   9.842  41.043   4.322
85931W        W50916  18.798  16.766  11.512
85932W        W50917  28.243  34.483   4.590
85933W        W50918  37.824   3.253   2.573
85934W        W50919   1.791  18.157   0.841
85935W        W50920  37.826  35.279   4.756
85936W        W50921  23.198  13.605  11.577
85937W        W50922   9.239  37.108  11.519
85938W        W50923  29.356   8.641   2.668
85939W        W50924  43.036  34.613  13.934
85940W        W50925  33.490  26.925  14.523
85941W        W50926  14.828  42.433  11.111
85942W        W50927   8.865  28.909  14.841
85943W        W50928  10.721  20.258  14.375
85944W        W50929  27.089  31.059  12.088
85945W        W50930  15.753  36.020   3.242
85946W        W50931  33.240  16.685   1.754
85947W        W50932  14.234  18.176  14.796
85948W        W50933  26.153  27.026   3.167
85949W        W50934  32.425  14.837   1.365
85950W        W50935  30.118  24.867  14.101
85951W        W50936  42.432  41.065   1.694
85952W        W50937  43.435  15.738  12.912
85953W        W50938  16.025  41.895   2.852
85954W        W50939  12.235  32.602   0.487
85955W        W50940   0.814   2.132   3.682
85956W        W50941  29.991  22.050  12.781
85957W        W50942   2.779   8.387  12.578
85958W        W50943   9.272   7.304  13.195
85959W        W50944   4.048  39.055   3.130
85960W        W50945  41.775  26.403  13.036
85961W        W50946   5.517   8.297   1.081
85962W        W50947  20.955  15.796   3.623
85963W        W50948  13.670   1.850  10.828
85964W        W50949  11.304  12.087  13.315
85965W        W50950   4.049  22.027   4.830
85966W        W50951  43.043  44.014  12.115
85967W        W50952  14.313  40.768   0.080
85968W        W50953  31.230  37.983  14.861
85969W        W50954  22.293  28.677  12.931
85970W        W50955  10.330  10.442   5.022
85971W        W50956  38.528  40.419  10.666
85972W        W50957  33.054  24.346   1.679
85973W        W50958  10.357  11.486  12.120
85974W        W50959  42.476  31.171   1.335
85975W        W50960  26.888  38.420  11.092
85976W        W50961  29.629  36.893  12.846
85977W        W50962  12.872  32.632  13.388
85978W        W50963  17.083  15.138   0.585
85979W        W50964  18.991   1.877   1.880
85980W        W50965  23.619  25.953  10.679
85981W        W50966  16.917   0.261   2.344
85982W        W50967  32.188   0.343   0.217
85983W        W50968   1.738  25.885   2.239
85984W        W50969  18.257  35.596   1.881
85985W        W50970  25.962  43.185   0.329
85986W        W50971   3.459  15.212   3.101
85987W        W50972  33.559  15.946  10.386
85988W        W50973  21.739  13.290   4.188
85989W        W50974  26.738   0.944   3.622
85990W        W50975  30.466  14.407   2.040
85991W        W50976  36.857  30.557   3.683
85992W        W50977  18.487  27.518  14.453
85993W        W50978  20.030  17.130   5.178
85994W        W50979  16.175   7.370   4.519
85995W        W50980   0.975  34.771   0.458
85996W        W50981  34.372  38.304  11.527
85997W        W50982  27.726  10.643  14.083
85998W        W50983  43.940  31.511  11.565
85999W        W50984  32.485  36.829   2.524
86000W        W50985  42.293  17.990  13.049
86001W        W50986  32.052   0.888   1.568
86002W        W50987  22.824  33.700   1.918
86003W        W50988  10.729  10.253   4.629
86004W        W50989  26.147  25.823   0.899
86005W        W50990  40.058   2.817   0.744
86006W        W50991  28.511  18.499  13.967
86007W        W50992  32.419  15.633  10.765
86008W        W50993  17.175  22.724  14.750
86009W        W50994  15.258  22.193   1.963
86010W        W50995   2.950   4.240   3.623
86011W        W50996  33.469  43.518  14.483
86012W        W50997  40.491   8.374   4.117
86013W        W50998   1.232  33.474  10.784
86014W        W50999  11.934  42.345   3.087
86015W        W51000  27.826   4.060  11.601
86016W        W51001   4.327   3.162   3.954
86017W        W51002   6.409  34.843  14.506
86018W        W51003  29.575  10.624   2.240
86019W        W51004  21.546  37.802   0.739
86020W        W51005  37.064   6.285  14.732
86021W        W51006  17.782  38.901  11.058
86022W        W51007  17.046  39.077  13.533
86023W        W51008  34.634  28.649  14.341
86024W        W51009  40.238  11.350  10.973
86025W        W51010  18.832  33.580   4.232
86026W        W51011   2.392   6.434  13.344
86027W        W51012  38.345  33.052   1.944
86028W        W51013  31.865  25.713   3.332
86029W        W51014  35.558  38.011   3.636
86030W        W51015  22.652  17.436  10.331
86031W        W51016  12.087  38.443  12.577
86032W        W51017   0.979  36.583   3.656
86033W        W51018  36.524   6.770  11.567
86034W        W51019  10.877  23.029  13.935
86035W        W51020  42.406   1.990   4.147
86036W        W51021  26.218  36.806  12.963
86037W        W51022  21.197  33.025   0.889
86038W        W51023  41.955  23.888  12.176
86039W        W51024  33.420  15.204  11.132
86040W        W51025   4.731  24.867  10.646
86041W        W51026   8.331  16.104  11.436
86042W        W51027  27.872  10.785  10.314
86043W        W51028  38.621  44.258   4.505
86044W        W51029  14.850  27.494  12.213
86045W        W51030  12.840  27.265  13.869
86046W        W51031  32.591  28.677  13.818
86047W        W51032  12.897  14.078  10.487
86048W        W51033   1.324  28.763   0.142
86049W        W51034  33.880  26.064   1.358
86050W        W51035  12.201  26.644   4.657
86051W        W51036  18.406  35.830   3.070
86052W        W51037  15.041   7.860  11.501
86053W        W51038   9.116   2.451   1.307
86054W        W51039  18.526  20.487   4.978
86055W        W51040  39.815  29.419   3.826
86056W        W51041   5.920  27.694  13.446
86057W        W51042  12.111  14.207   1.236
86058W        W51043  34.956   4.798   2.540
86059W        W51044  19.214  36.027  10.786
86060W        W51045  39.392  39.042   4.354
86061W        W51046  23.132  43.066   1.720
86062W        W51047  44.211  44.350  11.094
86063W        W51048   5.883  27.215   4.689
86064W        W51049  36.490  23.004   3.823
86065W        W51050  10.425  11.667  14.752
86066W        W51051  18.395  30.475  12.776
86067W        W51052  43.351  28.467  12.505
86068W        W51053  13.760  12.217   0.269
86069W        W51054  30.589  41.720  13.798
86070W        W51055  41.020  29.088  14.452
86071W        W51056  33.860   1.829  11.964
86072W        W51057  13.342   5.245  13.688
86073W        W51058  26.984  33.609  12.460
86074W        W51059  40.997  34.347   2.829
86075W        W51060   3.452   0.178  14.242
86076W        W51061  36.460  23.704  13.894
86077W        W51062  29.636  22.637  12.433
86078W        W51063  12.733  27.990  10.342
86079W        W51064  19.801  30.380   3.304
86080W        W51065  16.279  11.670  14.814
86081W        W51066  33.048   7.479   3.592
86082W        W51067  14.249  20.232   0.825
86083W        W51068   9.514  32.001   1.174
86084W        W51069  27.590  27.626   1.061
86085W        W51070  42.833  12.548   2.706
86086W        W51071  33.100  39.771   0.842
86087W        W51072   6.234  40.590  11.610
86088W        W51073   0.593  21.785   1.377
86089W        W51074  40.281  33.509  14.833
86090W        W51075   5.678  29.032  13.022
86091W        W51076  33.140  38.997   2.230
86092W        W51077  33.573  12.578   4.622
86093W        W51078   8.289  22.602  11.134
86094W        W51079  25.742  28.536  10.134
86095W        W51080   7.294  33.982   2.623
86096W        W51081  14.879  27.101   2.761
86097W        W51082  37.827  16.195   0.388
86098W        W51083  16.917   6.695  11.588
86099W        W51084  31.393  30.201  10.880
86100W        W51085   3.295  32.089   4.615
86101W        W51086  20.375   2.624  14.959
86102W        W51087   5.444   8.924   2.666
86103W        W51088   0.739   5.187   3.707
86104W        W51089   6.284   1.036  13.464
86105W        W51090   5.751  17.590  11.124
86106W        W51091   4.650   2.680   3.781
86107W        W51092  16.663  35.572   2.602
86108W        W51093  15.766  10.076  11.597
86109W        W51094  17.528  36.950  10.630
86110W        W51095  35.800  37.643   2.591
86111W        W51096  33.584  25.464   0.237
86112W        W51097  18.344  34.017   1.819
86113W        W51098  17.588  28.548   1.790
86114W        W51099  20.043   3.568   2.695
86115W        W51100  18.766  29.179  13.285
86116W        W51101  21.516  43.787  12.202
86117W        W51102  11.685  31.917   0.324
86118W        W51103  36.923  26.380   4.723
86119W        W51104  38.388  42.919  10.753
86120W        W51105  15.742   3.245  14.396
86121W        W51106   7.786  43.529  10.409
86122W        W51107  29.631  20.194   3.803
86123W        W51108  28.155  27.633  14.525
86124W        W51109  30.642  37.244   4.748
86125W        W51110  30.439  42.824   2.672
86126W        W51111  40.770  26.197   9.975
86127W        W51112   4.031  20.365   1.863
86128W        W51113  39.465  22.473   4.919
86129W        W51114  20.223  14.753  14.038
86130W        W51115  21.063   5.263  10.477
86131W        W51116  31.454   0.439   1.700
86132W        W51117   9.211  17.047   4.602
86133W        W51118   8.227   4.763   2.673
86134W        W51119  19.948  19.110  14.407
86135W        W51120  30.200  27.553  12.900
86136W        W51121  40.436   9.847   3.656
86137W        W51122  10.419  22.633  14.907
86138W        W51123   0.928  36.514  10.092
86139W        W51124  25.445  34.932   2.905
86140W        W51125  22.247  41.498  12.171
86141W        W51126  10.666  24.455  12.403
86142W        W51127  11.078   8.791  11.968
86143W        W51128  39.329  20.274  13.153
86144W        W51129   2.745  37.870  12.719
86145W        W51130  31.478  30.840  11.961
86146W        W51131   1.654   4.323   2.407
86147W        W51132   4.357  36.744  11.901
86148W        W51133  16.319  42.285   4.289
86149W        W51134   0.839  28.457  11.972
86150W        W51135  14.960  40.580   4.891
86151W        W51136  19.372  17.686  13.365
86152W        W51137   1.353  41.285   1.280
86153W        W51138  13.465   2.868   4.032
86154W        W51139  28.966  18.596   2.156
86155W        W51140  11.310  28.279  10.080
86156W        W51141  43.542  35.386  14.479
86157W        W51142  40.726  24.494  10.395
86158W        W51143  30.026  42.449  14.309
86159W        W51144  20.787  34.555   4.179
86160W        W51145  32.242   8.565   1.282
86161W        W51146   8.259  42.432  13.384
86162W        W51147  24.475  28.513  11.815
86163W        W51148  35.734  31.837  10.746
86164W        W51149  16.283  26.168   4.103
86165W        W51150  40.564  14.061  10.238
86166W        W51151  12.269  28.580   3.156
86167W        W51152   3.694   3.197  11.941
86168W        W51153  41.554  26.705  14.453
86169W        W51154  44.086  10.280  14.576
86170W        W51155  31.629  29.761  10.744
86171W        W51156   2.693  42.357   0.859
86172W        W51157   3.659  20.043   1.515
86173W        W51158  30.948  43.260  11.632
86174W        W51159  25.074  22.439  14.081
86175W        W51160  14.251   5.024   4.542
86176W        W51161  22.620  32.153  13.482
86177W        W51162  26.686  14.104  11.166
86178W        W51163  25.985   8.320  11.599
86179W        W51164  18.876  20.993  13.515
86180W        W51165  19.276  36.298   3.334
86181W        W51166  36.428  19.129   3.584
86182W        W51167   1.309  20.147   2.959
86183W        W51168  14.372  22.227   1.786
86184W        W51169  43.953  41.372   0.387
86185W        W51170  38.749  22.803  12.885
86186W        W51171  15.141  33.756   0.314
86187W        W51172  18.028  16.164   0.957
86188W        W51173  33.960  17.708  11.148
86189W        W51174   9.296  25.720  13.993
86190W        W51175  40.034  43.723  10.623
86191W        W51176  17.803   3.687   3.138
86192W        W51177  29.657   1.388  14.483
86193W        W51178  21.367  14.286  14.286
86194W        W51179   4.384  14.680   4.679
86195W        W51180  39.811  28.739  13.882
86196W        W51181   6.722  31.374  10.771
86197W        W51182  41.740  29.639  10.786
86198W        W51183   3.623   0.957  11.020
86199W        W51184  42.303  14.753  10.229
86200W        W51185  17.597   7.449   1.068
86201W        W51186   8.757  30.961  11.416
86202W        W51187   6.324  14.146   1.450
86203W        W51188  30.563   6.604  12.571
86204W        W51189  21.061  11.298  10.727
86205W        W51190  18.131  30.644  14.266
86206W        W51191  37.745  39.369  13.139
86207W        W51192   4.489  43.690   2.172
86208W        W51193  19.092  43.388   2.070
86209W        W51194  20.732  33.166   4.434
86210W        W51195   9.190  37.134   4.118
86211W        W51196   5.385  32.170   5.082
86212W        W51197  25.508  34.162   4.825
86213W        W51198  13.594  16.962  14.491
86214W        W51199   3.241  36.166   1.054
86215W        W51200  41.003   7.203   1.216
86216W        W51201  42.497  23.625   0.195
86217W        W51202  29.146  21.746   2.829
86218W        W51203  36.828   1.826  12.924
86219W        W51204  29.042  44.039   3.672
86220W        W51205   6.945  33.973  14.826
86221W        W51206  40.224  30.828   1.368
86222W        W51207  33.556  25.054  12.597
86223W        W51208  15.146  37.789  11.073
86224W        W51209  11.848  34.544  10.751
86225W        W51210  31.042  26.550  11.189
86226W        W51211  22.977   7.858   0.444
86227W        W51212  19.821  11.858   4.454
86228W        W51213   9.196  35.637  13.483
86229W        W51214  17.207  41.700   1.782
86230W        W51215  22.215   7.146   0.817
86231W        W51216  43.597  32.924  12.573
86232W        W51217   7.499  21.627   2.139
86233W        W51218  10.139  15.580   1.836
86234W        W51219   7.281  17.047  13.324
86235W        W51220  30.479  26.168  13.512
86236W        W51221  42.918   0.436   3.826
86237W        W51222  43.009   1.656  12.085
86238W        W51223  17.741  12.232  10.720
86239W        W51224  39.222  34.603  11.101
86240W        W51225  34.799   0.971   1.007
86241W        W51226   1.372  26.553  14.985
86242W        W51227  20.804  34.770  11.108
86243W        W51228  10.590   2.478  13.958
86244W        W51229  18.314   3.605   4.062
86245W        W51230  44.861  43.872   2.607
86246W        W51231  32.073   0.836   0.070
86247W        W51232  32.021  26.460   0.476
86248W        W51233  17.137  43.906  10.472
86249W        W51234  13.643   2.777   2.926
86250W        W51235  40.347  16.888  12.581
86251W        W51236   1.754  38.018   0.995
86252W        W51237  44.914  33.831  10.530
86253W        W51238  34.039  33.575   4.041
86254W        W51239   0.775  11.822   4.345
86255W        W51240   9.902  27.487   0.265
86256W        W51241  33.391  34.585   4.470
86257W        W51242   4.940  41.139   2.194
86258W        W51243  12.220  26.642  12.894
86259W        W51244  15.700  29.669   1.362
86260W        W51245  18.539  39.022   0.991
86261W        W51246  11.866  25.646   3.502
86262W        W51247  33.980  32.885  14.071
86263W        W51248  12.890   9.436   3.208
86264W        W51249  18.384  36.340   2.998
86265W        W51250  23.278  20.042   0.753
86266W        W51251  38.520  36.081  12.207
86267W        W51252  22.029   3.805  11.828
86268W        W51253  12.661   2.196  13.576
86269W        W51254  29.707  34.121   1.309
86270W        W51255  15.742   4.833  11.535
86271W        W51256  10.356  27.696  13.423
86272W        W51257  12.573   5.664   0.945
86273W        W51258  37.530  16.842  13.576
86274W        W51259  12.201  36.427   4.733
86275W        W51260   9.543  25.909   4.560
86276W        W51261  30.293  11.058  10.193
86277W        W51262  43.972  26.833   4.302
86278W        W51263  13.807  43.439   2.239
86279W        W51264   5.133   1.617  14.780
86280W        W51265  20.790  33.838  13.855
86281W        W51266  32.502  44.029  14.470
86282W        W51267  25.593   7.862  10.521
86283W        W51268  15.124   0.693   2.349
86284W        W51269  15.070   6.479   4.708
86285W        W51270  11.694  42.442   0.276
86286W        W51271   0.238   8.424   3.172
86287W        W51272  39.868   5.803  13.826
86288W        W51273  30.567  10.262   5.035
86289W        W51274  21.028   0.471  11.053
86290W        W51275   4.018  32.154   4.117
86291W        W51276  39.808  37.916   2.487
86292W        W51277  17.472  10.516  10.549
86293W        W51278  11.198  44.957  13.869
86294W        W51279  34.838  31.397   0.830
86295W        W51280  33.017  10.855  13.306
86296W        W51281   2.957  16.530  12.824
86297W        W51282  16.078  30.534   0.214
86298W        W51283   3.818   4.468  12.624
86299W        W51284  43.949  29.191  13.268
86300W        W51285  15.067  12.092  11.966
86301W        W51286  15.218  44.562  14.757
86302W        W51287  39.494  31.435   4.887
86303W        W51288  42.360  42.031   1.867
86304W        W51289   3.383  13.392   4.221
86305W        W51290  10.333  24.762   0.224
86306W        W51291  30.855   9.073   3.483
86307W        W51292  10.430  32.203  13.586
86308W        W51293   5.900  37.879  11.142
86309W        W51294  31.063  20.576  11.393
86310W        W51295  36.856  33.903  11.814
86311W        W51296  10.098  34.130  12.178
86312W        W51297   4.135  12.784   1.941
86313W        W51298  27.673  13.901   1.612
86314W        W51299  11.236   8.843  13.094
86315W        W51300  16.116   0.228  13.932
86316W        W51301  21.689  27.981   4.521
86317W        W51302  18.671  28.507   1.791
86318W        W51303   1.660  21.970  12.172
86319W        W51304  42.504  13.350   3.617
86320W        W51305  16.738  11.646  11.510
86321W        W51306  34.467  42.997   1.023
86322W        W51307  18.110   3.182  12.910
86323W        W51308  27.608  36.498   1.691
86324W        W51309  37.393  41.924   0.478
86325W        W51310   4.975  42.348  11.516
86326W        W51311  41.555  15.870   1.830
86327W        W51312  26.353  25.259  12.325
86328W        W51313  12.039  27.082   4.412
86329W        W51314   1.940  30.997  14.330
86330W        W51315  41.567  14.190  14.625
86331W        W51316  15.988  10.304   4.970
86332W        W51317  31.119  44.580  10.432
86333W        W51318  35.305  36.933   1.835
86334W        W51319  14.444  10.426   3.741
86335W        W51320   9.045  31.660  14.869
86336W        W51321  22.948  33.432  12.035
86337W        W51322   7.935  14.466  13.121
86338W        W51323  23.265  27.531   2.640
86339W        W51324  13.562   5.346   0.608
86340W        W51325  20.689   1.846   2.754
86341W        W51326   9.869  36.208  10.999
86342W        W51327  29.021  44.951   1.692
86343W        W51328   2.159   3.773  14.950
86344W        W51329  31.529  12.642  12.002
86345W        W51330  26.195  12.577  11.553
86346W        W51331   2.655  33.860  12.434
86347W        W51332  10.127   2.873  14.574
86348W        W51333  35.477   8.585  12.474
86349W        W51334  39.000  42.101   1.691
86350W        W51335  31.108  22.315  14.326
86351W        W51336  26.209   2.947   4.514
86352W        W51337  35.071  22.017  14.269
86353W        W51338  36.048   6.312  12.156
86354W        W51339   7.303  29.047   2.926
86355W        W51340  32.961   8.115  13.007
86356W        W51341   2.154  12.662   2.332
86357W        W51342  22.244  15.180   4.657
86358W        W51343   2.567   9.761   4.677
86359W        W51344  29.134  43.003   4.048
86360W        W51345  44.785   2.140   2.911
86361W        W51346  31.269  32.644   2.293
86362W        W51347  20.543  21.072   4.189
86363W        W51348  30.069  22.045   0.558
86364W        W51349  19.974  41.454  11.720
86365W        W51350   7.470  40.565   3.098
86366W        W51351  38.971  37.607  11.659
86367W        W51352  20.566  44.851  11.267
86368W        W51353  18.976   3.270  14.542
86369W        W51354  24.986  31.228  13.518
86370W        W51355  12.892  39.036   3.083
86371W        W51356  11.011  16.327  10.720
86372W        W51357   8.265   1.679   3.540
86373W        W51358  16.050  36.175  14.888
86374W        W51359  31.358  18.657  10.700
86375W        W51360  36.448  38.877   3.174
86376W        W51361  13.395  27.726  13.032
86377W        W51362  20.016  38.849   3.794
86378W        W51363   5.419  14.152   2.373
86379W        W51364  16.028  42.438   1.982
86380W        W51365   2.877  27.257  11.127
86381W        W51366  23.524   6.307  14.766
86382W        W51367  22.591  24.716  13.760
86383W        W51368  12.175  30.348   2.220
86384W        W51369  42.672  10.539  11.085
86385W        W51370   5.977  32.212  12.021
86386W        W51371  43.953  43.665   1.988
86387W        W51372  12.042  36.382  12.670
86388W        W51373   6.362  21.062   0.282
86389W        W51374  42.838  23.189   2.345
86390W        W51375  13.304  19.792  14.347
86391W        W51376  39.766  22.610   1.994
86392W        W51377  42.727  17.033   3.137
86393W        W51378  27.450  34.242   2.912
86394W        W51379  33.164  35.797   2.776
86395W        W51380   6.084   7.472  14.364
86396W        W51381  23.999  35.032   2.246
86397W        W51382  19.156   5.179  11.616
86398W        W51383  16.121  37.292   2.773
86399W        W51384   3.949   7.478  13.968
86400W        W51385  24.223  24.436  11.220
86401W        W51386  38.825  14.338  12.038
86402W        W51387   5.056  31.868   0.786
86403W        W51388  23.727  16.540   0.034
86404W        W51389   4.939   9.624  10.513
86405W        W51390  10.085  19.661  14.462
86406W        W51391  17.471  40.412  14.351
86407W        W51392  20.176   1.924   2.859
86408W        W51393  43.766  18.008   1.478
86409W        W51394  40.034   9.648   3.883
86410W        W51395  23.311  24.677  11.117
86411W        W51396  15.156  19.106   2.007
86412W        W51397  30.040  19.718  10.923
86413W        W51398  33.426  30.491   1.834
86414W        W51399  32.944   2.057   1.357
86415W        W51400  20.689  31.520  13.052
86416W        W51401  34.538  15.780   2.313
86417W        W51402  13.435  12.567   2.594
86418W        W51403  32.086  38.417  11.126
86419W        W51404  39.995  22.664   0.523
86420W        W51405  36.129  25.519   2.120
86421W        W51406  23.678   1.501   2.280
86422W        W51407   3.846  39.375  14.282
86423W        W51408  43.718  26.990  11.526
86424W        W51409  20.129  13.368  12.215
86425W        W51410  10.645  23.239  10.903
86426W        W51411  12.920  22.032  13.883
86427W        W51412  34.366  17.786  13.523
86428W        W51413  37.597  22.265  11.112
86429W        W51414  22.455  33.119   3.245
86430W        W51415   7.817   4.347   4.171
86431W        W51416  25.004  23.667  12.613
86432W        W51417   2.871   8.712  13.142
86433W        W51418  40.568   0.890   1.889
86434W        W51419  31.214   9.730   4.165
86435W        W51420  37.356  42.327   2.888
86436W        W51421   6.812   2.648   1.928
86437W        W51422  14.939  13.784  12.693
86438W        W51423   1.384   3.722  12.454
86439W        W51424  23.742  24.255   3.663
86440W        W51425  17.116  16.563  12.912
86441W        W51426  20.944   8.844  14.549
86442W        W51427  24.992  10.630  11.310
86443W        W51428   5.415  11.274  13.326
86444W        W51429  12.183  43.249  14.537
86445W        W51430  13.817  35.954   2.856
86446W        W51431  29.592  15.349  14.048
86447W        W51432  38.124  20.729   1.680
86448W        W51433  41.394   5.952   4.573
86449W        W51434  40.508  25.400  12.954
86450W        W51435  36.629  35.138   0.005
86451W        W51436  29.952  11.760   3.870
86452W        W51437  18.234   3.466  11.786
86453W        W51438  38.771  40.107   3.818
86454W        W51439  18.010  42.827   0.417
86455W        W51440   0.894  25.449   1.843
86456W        W51441  12.275   0.928  10.298
86457W        W51442   4.370  33.069   4.104
86458W        W51443  34.466  36.819  12.637
86459W        W51444  11.570  10.575   3.173
86460W        W51445  34.656  29.750   0.187
86461W        W51446   0.471  19.802  12.888
86462W        W51447  33.374  15.994   1.784
86463W        W51448  29.956   8.081  14.539
86464W        W51449  32.143  39.098   2.292
86465W        W51450  33.663  21.440   0.428
86466W        W51451  15.424  28.247  11.991
86467W        W51452  13.661  19.223  12.065
86468W        W51453  23.276  31.015  10.018
86469W        W51454  22.087  22.522   4.938
86470W        W51455   6.953   9.701  10.747
86471W        W51456  25.662  18.526   3.417
86472W        W51457  31.043  44.345   0.841
86473W        W51458  41.929  41.893  13.043
86474W        W51459  27.589   7.067  13.041
86475W        W51460  33.037  35.755  12.051
86476W        W51461   8.721  20.339   4.303
86477W        W51462   9.868  24.936   0.438
86478W        W51463   8.724   9.902   3.632
86479W        W51464  42.622  39.484   5.029
86480W        W51465  35.890  37.074   3.265
86481W        W51466  31.020  36.100  13.642
86482W        W51467   8.310  37.674  12.154
86483W        W51468  14.825  35.594  10.776
86484W        W51469  25.621  26.862   3.815
86485W        W51470  19.205  33.504   2.765
86486W        W51471  21.846   5.753  10.611
86487W        W51472  43.889  23.363   5.097
86488W        W51473  24.094   6.179   1.015
86489W        W51474  38.572  24.919  10.706
86490W        W51475  29.691   1.090   3.736
86491W        W51476  20.443  16.814   3.874
86492W        W51477  22.372  33.314  12.892
86493W        W51478  33.460  39.813   2.150
86494W        W51479  31.398  27.080   2.693
86495W        W51480  40.816  40.068   4.909
86496W        W51481   9.721  24.077  13.001
86497W        W51482  27.975   9.401  10.274
86498W        W51483  19.140  36.343   0.338
86499W        W51484  37.091   3.196  12.986
86500W        W51485  32.594   2.790   0.185
86501W        W51486   7.751  16.298  13.085
86502W        W51487   7.256  18.358  12.911
86503W        W51488  16.212   6.680   0.220
86504W        W51489  24.589  32.163   0.487
86505W        W51490  18.096  24.729  14.776
86506W        W51491  35.898   1.759  12.919
86507W        W51492   9.971  30.056   4.370
86508W        W51493  20.447  36.774   3.822
86509W        W51494  14.324  39.432   3.174
86510W        W51495  40.788   3.230   3.128
86511W        W51496  40.696  13.029  10.425
86512W        W51497  33.594   4.862  11.892
86513W        W51498  16.122  22.585   4.672
86514W        W51499  33.063   0.213   2.900
86515W        W51500  35.411  12.529   1.711
86516W        W51501  38.527   6.761  11.689
86517W        W51502  36.532  37.926   3.094
86518W        W51503  39.832   3.338   0.184
86519W        W51504  33.875   6.732  11.520
86520W        W51505  44.859   8.626   0.730
86521W        W51506  29.151   6.957  13.049
86522W        W51507   4.448  12.308  14.430
86523W        W51508  32.818  20.149  11.726
86524W        W51509  36.860  34.007   0.420
86525W        W51510  19.757  21.040  14.698
86526W        W51511  14.583  10.243   1.506
86527W        W51512  16.859   7.590   5.305
86528W        W51513  30.700   3.460   3.760
86529W        W51514  40.004  12.316  10.646
86530W        W51515  22.207   4.682  12.294
86531W        W51516  12.377  28.851   4.523
86532W        W51517   4.751  38.663  11.674
86533W        W51518   4.050  31.091  14.434
86534W        W51519  44.371  40.896  11.539
86535W        W51520   3.489  34.551   1.943
86536W        W51521   8.604   8.688   4.688
86537W        W51522  22.182  23.590  13.558
86538W        W51523   9.238  44.939  12.451
86539W        W51524  20.484  35.953   2.897
86540W        W51525  30.235  23.202   0.369
86541W        W51526  31.977  19.145  14.933
86542W        W51527  42.275   2.738  11.258
86543W        W51528  42.281  23.822  14.774
86544W        W51529  19.524  43.867   2.801
86545W        W51530  38.854  44.794   2.438
86546W        W51531   1.204  31.417  12.963
86547W        W51532  33.520   9.634  12.278
86548W        W51533  24.483   1.380  10.587
86549W        W51534  34.936  29.882  13.816
86550W        W51535   2.269  12.677  12.177
86551W        W51536  32.001  12.021   2.836
86552W        W51537  13.175  43.795   2.570
86553W        W51538  44.815  27.431   2.159
86554W        W51539   7.721  35.857   1.772
86555W        W51540  39.275  19.796   3.761
86556W        W51541  10.447   1.363  14.559
86557W        W51542   6.517   6.584  13.601
86558W        W51543   7.356   7.713   5.415
86559W        W51544   2.244   0.391   3.815
86560W        W51545   1.914   5.534  12.563
86561W        W51546  14.909   9.778  14.052
86562W        W51547  28.591  36.616   4.212
86563W        W51548  18.467  22.470   2.075
86564W        W51549  11.456  18.377  11.404
86565W        W51550  38.862  42.493  13.390
86566W        W51551   7.685  11.551  10.765
86567W        W51552  15.657  21.195   4.575
86568W        W51553   6.900   1.697   4.651
86569W        W51554  19.272   9.465   1.761
86570W        W51555   1.567  27.506   0.773
86571W        W51556   8.803  39.995  10.735
86572W        W51557  22.963  17.389   0.298
86573W        W51558  18.592  38.057   1.140
86574W        W51559  23.060  35.557  11.425
86575W        W51560  26.574  11.795   1.425
86576W        W51561   7.440  44.831   4.207
86577W        W51562  32.727   9.724   4.063
86578W        W51563  12.822  15.676   0.870
86579W        W51564  21.990  12.203  11.180
86580W        W51565  30.519  32.112   3.664
86581W        W51566  44.860  15.772  12.908
86582W        W51567  20.971  12.664  10.381
86583W        W51568   1.978  10.665  13.041
86584W        W51569   1.713  44.909  14.833
86585W        W51570  44.445  25.256  12.029
86586W        W51571  41.923  39.096   3.505
86587W        W51572  41.986  13.256   4.529
86588W        W51573  30.422  17.748  12.024
86589W        W51574   7.581  17.218   2.484
86590W        W51575   2.924   3.304  14.048
86591W        W51576  33.785  29.628   2.737
86592W        W51577   9.397   5.821  12.475
86593W        W51578   2.033  24.080   1.924
86594W        W51579  28.945   5.818   4.715
86595W        W51580  43.875   4.246   4.054
86596W        W51581  10.695  43.482  10.474
86597W        W51582   4.969  44.731   0.415
86598W        W51583   2.679   4.732  14.825
86599W        W51584  23.966  17.993   0.447
86600W        W51585  26.913   3.982  11.150
86601W        W51586   3.856  19.709   1.009
86602W        W51587  33.412   3.273  13.425
86603W        W51588  35.575  22.498  12.563
86604W        W51589  28.145  20.654   1.372
86605W        W51590   7.351  18.554  14.302
86606W        W51591  14.214  31.709  14.929
86607W        W51592  44.994  24.510   5.031
86608W        W51593  34.637  32.539   0.387
86609W        W51594  24.116   5.323  10.537
86610W        W51595  25.644  24.035  13.689
86611W        W51596  19.121  11.402   1.615
86612W        W51597  30.336  37.492  12.108
86613W        W51598   0.448   9.320  13.892
86614W        W51599  16.906  10.754   4.394
86615W        W51600  17.764  32.966  13.963
86616W        W51601  13.852   4.926  12.925
86617W        W51602  16.128  25.059   3.806
86618W        W51603  10.122   2.402   4.063
86619W        W51604  40.240   4.917  13.961
86620W        W51605  13.795  23.396   0.523
86621W        W51606  38.869  14.283  13.970
86622W        W51607   3.699  12.680   4.980
86623W        W51608   1.706  31.556  12.998
86624W        W51609  10.123  39.710  13.136
86625W        W51610  30.183  17.204   3.072
86626W        W51611  32.069  25.433   0.346
86627W        W51612  13.745  31.686  12.493
86628W        W51613  33.524   7.766   3.628
86629W        W51614  32.299  38.793  14.500
86630W        W51615   9.831  39.786   4.027
86631W        W51616  15.754  17.595   3.646
86632W        W51617   5.204   5.991  13.518
86633W        W51618  16.697  16.282  14.006
86634W        W51619   2.019  25.647   4.331
86635W        W51620   3.695  35.799  12.016
86636W        W51621   4.959  42.506  12.906
86637W        W51622   5.048  24.692   4.550
86638W        W51623  17.273  29.621   2.309
86639W        W51624   6.424  19.334   1.692
86640W        W51625   0.294   2.863   4.634
86641W        W51626  40.061  22.214  14.809
86642W        W51627   6.631   4.371  11.771
86643W        W51628  31.004  17.086  13.179
86644W        W51629  26.993  39.102   0.687
86645W        W51630  44.082  16.852  13.303
86646W        W51631  42.527  24.872   3.945
86647W        W51632  25.686  26.255  12.591
86648W        W51633  21.729   1.715  14.431
86649W        W51634   8.288   7.807  14.448
86650W        W51635  12.106   5.393   4.158
86651W        W51636  43.645   8.230  10.763
86652W        W51637  16.202   6.726   1.756
86653W        W51638  33.979   4.330   4.372
86654W        W51639  19.542  42.562   0.040
86655W        W51640  37.254  36.415   4.078
86656W        W51641   6.186  22.995  11.953
86657W        W51642  41.377  34.282  11.195
86658W        W51643   8.880   8.165   3.757
86659W        W51644   1.024   0.803  10.544
86660W        W51645  19.310  19.956  13.921
86661W        W51646   9.138  13.317   2.175
86662W        W51647  24.694  22.216   0.354
86663W        W51648  32.153  11.458  14.327
86664W        W51649  39.946  38.745  13.520
86665W        W51650   6.181   6.712  13.222
86666W        W51651  41.986  19.339  13.443
86667W        W51652   1.385  16.215  14.538
86668W        W51653   2.965  13.599  11.018
86669W        W51654  31.090  23.645   1.145
86670W        W51655   8.765  28.923   1.149
86671W        W51656   8.453  42.023  11.566
86672W        W51657  14.237   6.200   1.084
86673W        W51658  23.234   8.650  14.824
86674W        W51659  16.319  19.106   1.873
86675W        W51660  39.782  25.155  12.434
86676W        W51661  42.772   8.343  13.424
86677W        W51662  34.936   2.046  12.101
86678W        W51663  23.932  22.118  14.443
86679W        W51664  26.631   5.281   2.827
86680W        W51665  31.902   1.280   3.352
86681W        W51666  11.223  40.034  11.636
86682W        W51667  25.117   0.188   3.929
86683W        W51668   8.291  10.507  10.151
86684W        W51669  10.423  18.626   5.075
86685W        W51670  17.689  34.152   2.750
86686W        W51671  25.269  27.509   0.897
86687W        W51672   8.529  23.520  14.653
86688W        W51673  35.464  12.348  11.887
86689W        W51674  27.006  28.656   2.177
86690W        W51675   2.951  33.111   1.819
86691W        W51676  13.572  11.120  13.771
86692W        W51677  15.827   0.163  11.617
86693W        W51678   3.694  29.911  11.203
86694W        W51679   4.391  43.210  12.752
86695W        W51680  44.873  10.621  14.368
86696W        W51681   0.061  18.116  14.355
86697W        W51682  37.071  43.504  12.004
86698W        W51683  26.551  15.353   3.827
86699W        W51684  36.826  39.857   2.348
86700W        W51685  13.662  23.712   4.845
86701W        W51686  43.793  37.442   2.859
86702W        W51687  43.084  17.849  14.219
86703W        W51688  12.591  33.000  11.988
86704W        W51689  30.661  30.482  11.518
86705W        W51690  25.378  28.806   0.532
86706W        W51691  44.484  38.103  12.656
86707W        W51692  38.793  10.249  11.187
86708W        W51693  26.501  37.356   5.472
86709W        W51694  32.402  22.815  14.328
86710W        W51695   0.755  17.484  12.884
86711W        W51696   4.273  34.527   0.470
86712W        W51697  26.404  27.466   0.269
86713W        W51698   9.082  39.546  12.209
86714W        W51699  38.752   6.956  11.266
86715W        W51700  26.247  10.821   1.919
86716W        W51701  20.281  10.612   3.744
86717W        W51702   1.795  22.865  13.907
86718W        W51703  31.327  15.831   4.088
86719W        W51704  32.937   4.469   0.274
86720W        W51705  12.301  38.938  10.762
86721W        W51706  22.621  18.755   0.321
86722W        W51707  41.205  33.305  10.995
86723W        W51708  11.423  33.074  10.798
86724W        W51709  34.966   2.543   2.184
86725W        W51710  34.095  10.721  11.880
86726W        W51711  36.296   0.671   0.768
86727W        W51712  12.068  33.877  11.974
86728W        W51713  18.186  10.219  11.091
86729W        W51714  27.059  40.398   2.490
86730W        W51715   9.187  30.444  13.099
86731W        W51716   7.497  40.454   0.871
86732W        W51717  40.673  36.033  14.691
86733W        W51718  44.174   8.328   9.998
86734W        W51719   3.057  25.796   1.373
86735W        W51720  36.931  31.324   1.382
86736W        W51721  33.689  33.814  12.572
86737W        W51722  30.905  33.481   2.571
86738W        W51723   3.325  35.340  14.840
86739W        W51724   2.752   1.264   3.115
86740W        W51725   3.324  44.166   2.787
86741W        W51726  10.197  30.908   3.788
86742W        W51727  25.427   2.793  13.894
86743W        W51728  34.471  10.419   4.070
86744W        W51729  15.417  12.447   4.226
86745W        W51730  36.247  11.363  14.416
86746W        W51731  19.390  17.605  10.215
86747W        W51732  37.968  23.379  12.506
86748W        W51733  27.617  26.850   3.713
86749W        W51734  23.982  30.773   1.192
86750W        W51735  33.869   0.179  11.512
86751W        W51736  26.684  30.948  11.767
86752W        W51737  41.387   8.036   4.130
86753W        W51738  31.499   2.943   0.977
86754W        W51739   7.616   3.498  11.858
86755W        W51740   5.854  31.711  11.150
86756W        W51741  30.703  21.657   3.411
86757W        W51742  43.614  37.831  11.620
86758W        W51743  34.552  21.252  12.853
86759W        W51744  33.576   4.706  14.419
86760W        W51745  21.292  17.687  13.321
86761W        W51746   7.173  22.900   2.347
86762W        W51747  17.644  19.121   5.490
86763W        W51748  27.516   0.870  12.539
86764W        W51749  10.766  11.372  11.659
86765W        W51750   6.243  29.169  11.706
86766W        W51751   1.513   8.806  12.641
86767W        W51752   2.915   6.308   0.957
86768W        W51753   1.341  33.356   2.764
86769W        W51754  14.408  12.532  13.894
86770W        W51755  12.471  30.140  11.142
86771W        W51756   0.941  29.034   4.714
86772W        W51757  22.649  28.761  13.347
86773W        W51758  44.747   7.235   3.238
86774W        W51759  33.091  19.470  13.370
86775W        W51760  24.537   9.642  13.000
86776W        W51761  10.343  12.652   0.304
86777W        W51762  44.667  33.198  14.816
86778W        W51763  30.163  44.296   4.063
86779W        W51764  15.228  13.639   0.504
86780W        W51765  10.902  31.675   1.366
86781W        W51766  24.531   3.266  12.241
86782W        W51767  26.872  15.287  13.822
86783W        W51768  35.122  26.155   2.801
86784W        W51769   3.166  32.767  13.725
86785W        W51770  38.363   0.036  13.458
86786W        W51771  23.461   8.659  12.116
86787W        W51772  16.735  44.286   3.170
86788W        W51773  27.547  35.739   2.154
86789W        W51774  32.412  40.886   0.769
86790W        W51775  19.167  16.291   0.518
86791W        W51776  29.609   8.679   2.124
86792W        W51777  10.756   5.735   4.090
86793W        W51778  30.985   3.773   1.619
86794W        W51779  32.651  44.023   4.446
86795W        W51780  38.355  40.495   2.790
86796W        W51781   2.865  40.524   4.037
86797W        W51782  39.870   5.520   4.718
86798W        W51783  25.297  29.663   1.404
86799W        W51784  36.500  15.369  12.069
86800W        W51785  15.276   6.028   1.296
86801W        W51786   1.798   5.417  12.032
86802W        W51787   8.213  18.852   2.843
86803W        W51788  36.928  28.930  14.776
86804W        W51789  21.336  30.385  10.652
86805W        W51790  23.473   7.519   3.694
86806W        W51791   6.180  43.616   2.940
86807W        W51792   4.084  10.187  11.551
86808W        W51793  10.605  44.652   2.394
86809W        W51794  24.290  33.941   0.324
86810W        W51795   5.213  23.619  13.949
86811W        W51796  24.528  14.225  11.645
86812W        W51797  28.997  22.340   0.400
86813W        W51798  13.417  22.224   1.431
86814W        W51799  39.583  43.970   3.343
86815W        W51800   2.949  31.473   0.920
86816W        W51801  22.778  39.863   0.464
86817W        W51802   6.668   3.951   4.022
86818W        W51803  13.748   7.377   4.542
86819W        W51804  28.707  25.151  14.312
86820W        W51805   5.485  23.954  12.919
86821W        W51806  31.102  24.205  12.165
86822W        W51807  27.928  40.431  13.487
86823W        W51808  22.466  33.368  11.225
86824W        W51809  15.512  18.530   5.060
86825W        W51810  24.233  27.165   3.104
86826W        W51811  23.258  22.145  12.479
86827W        W51812  23.104  37.861  12.417
86828W        W51813  26.226   9.136   0.506
86829W        W51814   8.052  30.896  10.173
86830W        W51815   2.028  30.574   3.192
86831W        W51816  21.852   3.097  11.391
86832W        W51817  44.091  19.209  14.752
86833W        W51818  30.325  26.512  14.900
86834W        W51819  37.820  31.104  14.800
86835W        W51820   7.785  12.251   1.890
86836W        W51821  10.223  42.885   0.359
86837W        W51822  32.687   4.045   0.459
86838W        W51823  21.163  13.794  14.945
86839W        W51824  23.682   7.828  11.564
86840W        W51825  37.932  38.837   1.401
86841W        W51826   0.246  30.474   4.370
86842W        W51827   5.323  29.326  12.351
86843W        W51828  26.115  41.297  14.926
86844W        W51829  31.957  29.028   2.447
86845W        W51830   9.853  27.486  13.322
86846W        W51831  13.822  30.038   3.697
86847W        W51832  41.392  41.530  13.829
86848W        W51833  25.728  38.818   0.714
86849W        W51834   5.490  28.568   3.108
86850W        W51835   6.343  28.682  11.570
86851W        W51836  29.843  41.024  11.191
86852W        W51837  25.075  18.194  10.661
86853W        W51838  10.177  38.311  14.878
86854W        W51839  40.928  21.556   1.273
86855W        W51840   9.451  11.360   0.463
86856W        W51841  38.929  30.529  13.280
86857W        W51842  33.646  22.666  12.693
86858W        W51843   6.763  26.524  12.796
86859W        W51844  13.899  18.082   3.683
86860W        W51845   7.257   1.219   0.863
86861W        W51846  15.177  34.364   2.068
86862W        W51847  20.224  35.532   3.024
86863W        W51848  23.767  30.561   4.707
86864W        W51849  42.750  38.990   4.948
86865W        W51850   0.672  21.179   0.500
86866W        W51851  32.070  29.684   2.786
86867W        W51852  37.613  27.527  10.687
86868W        W51853  25.525  18.238  14.049
86869W        W51854  32.173  25.196  13.392
86870W        W51855  22.545  10.470   2.514
86871W        W51856  13.601   0.921   3.777
86872W        W51857  31.977  18.634  14.757
86873W        W51858  23.739  17.574   2.606
86874W        W51859   8.286  33.857   0.707
86875W        W51860  41.952  44.771   4.459
86876W        W51861  35.385  24.078  13.399
86877W        W51862  36.614   3.813   1.878
86878W        W51863  40.831  40.908   1.190
86879W        W51864   9.761  25.174   0.899
86880W        W51865  15.924  10.671   0.710
86881W        W51866  30.698  37.517   0.434
86882W        W51867  41.712  12.249  13.420
86883W        W51868  20.009  19.345   0.919
86884W        W51869   0.883  36.986   0.985
86885W        W51870  12.722  42.845  10.128
86886W        W51871  38.075  28.210   0.913
86887W        W51872   3.819  27.266  13.848
86888W        W51873  42.100  30.169   4.213
86889W        W51874   5.946  10.637  12.476
86890W        W51875   4.370  25.562   0.244
86891W        W51876  12.921   3.149  14.828
86892W        W51877  25.939  21.593  10.712
86893W        W51878  35.386  17.677  12.423
86894W        W51879  33.846  43.105  13.793
86895W        W51880   6.585  43.990   0.116
86896W        W51881  37.279  16.786  11.241
86897W        W51882   2.736  25.654  12.845
86898W        W51883  27.784   8.738   0.861
86899W        W51884  17.349  29.974  12.589
86900W        W51885  13.664  15.852  11.976
86901W        W51886  22.126  18.460  10.664
86902W        W51887  14.972  39.536  12.984
86903W        W51888  34.902  31.893   4.437
86904W        W51889   3.351  11.115  13.006
86905W        W51890   5.750  41.091  11.074
86906W        W51891  23.422  19.876   5.072
86907W        W51892  26.208   5.840   2.862
86908W        W51893  29.550  44.311   5.483
86909W        W51894  10.799  40.620   3.320
86910W        W51895   0.394  18.542   1.961
86911W        W51896  27.693   1.835  14.780
86912W        W51897  17.065  16.634   1.679
86913W        W51898  39.462  15.460   3.998
86914W        W51899  32.570  24.109  12.905
86915W        W51900  42.128   5.195   4.054
86916W        W51901   0.873  16.836  14.612
86917W        W51902  21.218  42.865  11.842
86918W        W51903  31.946  15.041  11.147
86919W        W51904  40.966   9.895  14.913
86920W        W51905  22.757   7.745  14.993
86921W        W51906  19.135  16.322   2.307
86922W        W51907  24.711   3.936  14.924
86923W        W51908  15.118  25.362   5.040
86924W        W51909  17.025  23.059  12.731
86925W        W51910  27.511   5.747   0.857
86926W        W51911  41.442  32.386   0.123
86927W        W51912   4.716  22.954  14.311
86928W        W51913  30.433  29.094  13.557
86929W        W51914  41.984  13.350   3.644
86930W        W51915  11.768  43.217   1.647
86931W        W51916  34.165  24.193   0.082
86932W        W51917  21.691  33.064   4.036
86933W        W51918  21.222  28.019   1.231
86934W        W51919  15.603  35.586   2.351
86935W        W51920   4.062  23.739   2.672
86936W        W51921  16.589   7.658   1.786
86937W        W51922  36.090  23.404   4.611
86938W        W51923  15.600  21.110   1.811
86939W        W51924  10.458  37.262  10.378
86940W        W51925  38.348  15.082   0.976
86941W        W51926  26.253  41.873  10.610
86942W        W51927  40.998  19.730   4.423
86943W        W51928  37.044  33.722   3.188
86944W        W51929  21.772   2.229  14.480
86945W        W51930  44.424   5.816   2.548
86946W        W51931   0.893  44.905  11.988
86947W        W51932  14.769  40.418   3.578
86948W        W51933  12.433   0.964   2.697
86949W        W51934   7.145  24.132  14.325
86950W        W51935  11.227  23.979   3.829
86951W        W51936   8.275  25.694   2.229
86952W        W51937   5.839   0.510  12.113
86953W        W51938  29.422  23.662   2.764
86954W        W51939  15.157  23.037   2.853
86955W        W51940  35.978  29.671  14.338
86956W        W51941  16.565  38.991   1.474
86957W        W51942  35.795  26.643   4.048
86958W        W51943  11.684  38.781   2.709
86959W        W51944  28.431  44.102  14.261
86960W        W51945   9.957  35.405  13.812
86961W        W51946  37.358  44.481  11.026
86962W        W51947  42.049  44.957   1.358
86963W        W51948  43.575   4.243  12.527
86964W        W51949   3.409  36.756   3.497
86965W        W51950  31.064   9.254   0.378
86966W        W51951  16.206  42.498  12.617
86967W        W51952   5.926  32.147   1.443
86968W        W51953  43.556  35.086  11.799
86969W        W51954  35.892  36.615   3.795
86970W        W51955   9.577  39.954   3.612
86971W        W51956  16.201  20.001  14.993
86972W        W51957  21.762   2.329  11.006
86973W        W51958  36.626  41.966  14.366
86974W        W51959   7.700  16.793  12.401
86975W        W51960  26.506  19.486  13.866
86976W        W51961  19.437   5.399   4.818
86977W        W51962  22.042   5.307  11.929
86978W        W51963  38.100   3.869  12.609
86979W        W51964  30.147   0.366  13.034
86980W        W51965  43.102  28.412  12.052
86981W        W51966  35.155  17.687   0.874
86982W        W51967  12.560  12.736  14.552
86983W        W51968  44.439  41.340  11.274
86984W        W51969   3.815  37.808  13.458
86985W        W51970  21.783  34.494  11.929
86986W        W51971  11.407  27.871   3.666
86987W        W51972  12.740  10.920  11.174
86988W        W51973  40.609  37.355   0.911
86989W        W51974  20.721  33.175   3.902
86990W        W51975  14.578  27.121   9.921
86991W        W51976  31.567  39.150  11.998
86992W        W51977  39.955  21.131   4.960
86993W        W51978  44.053  44.347   2.694
86994W        W51979  10.247  20.522   2.785
86995W        W51980   1.161   6.353   0.520
86996W        W51981  20.285   1.753   4.410
86997W        W51982  37.251  38.561   1.075
86998W        W51983  19.469  37.519  14.037
86999W        W51984  27.800  33.344  13.520
87000W        W51985   7.374  24.610  11.409
87001W        W51986  22.431  27.681  13.435
87002W        W51987  41.670   4.876   2.320
87003W        W51988   6.382  35.590  14.778
87004W        W51989  35.574   8.482  11.698
87005W        W51990   3.014  27.466  11.580
87006W        W51991   1.921   7.917   3.721
87007W        W51992  18.473  33.093   2.293
87008W        W51993  26.471  41.406  13.093
87009W        W51994  37.892  23.116   3.531
87010W        W51995   6.351  31.833   0.898
87011W        W51996  24.562   6.291  13.349
87012W        W51997  31.050   5.348  11.451
87013W        W51998  21.136  13.947   3.168
87014W        W51999  18.390  42.370  13.546
87015W        W52000  27.150  39.449  12.524
87016W        W52001  39.486  41.576  12.864
87017W        W52002   6.523   1.237  12.931
87018W        W52003  31.948  13.368  11.694
87019W        W52004  16.870  38.344  14.311
87020W        W52005  42.284   6.785   2.381
87021W        W52006  44.728   8.128   4.264
87022W        W52007  39.603  36.950  12.444
87023W        W52008  37.347  11.307   4.762
87024W        W52009  36.838  13.237  10.808
87025W        W52010  44.823  42.565  11.740
87026W        W52011  26.106  42.958  10.161
87027W        W52012  26.464   0.320  10.636
87028W        W52013  23.219  13.754  13.784
87029W        W52014  27.542  12.265   1.850
87030W        W52015   6.034  39.714  10.677
87031W        W52016  41.012  31.195   4.103
87032W        W52017  22.718  35.073   2.913
87033W        W52018  23.615  25.993  13.948
87034W        W52019  24.120  39.893  10.805
87035W        W52020  39.907   9.168   0.491
87036W        W52021   9.014  38.619  11.134
87037W        W52022  30.483   9.608   3.773
87038W        W52023  11.631  11.401   5.125
87039W        W52024  31.428   0.037  12.584
87040W        W52025  17.974  27.171   0.829
87041W        W52026   5.091  36.142  10.222
87042W        W52027  31.630   3.517   4.184
87043W        W52028  42.847  14.227   3.179
87044W        W52029  29.744  32.576  14.720
87045W        W52030  38.337  17.593   0.761
87046W        W52031  10.813  18.205   3.402
87047W        W52032  29.377   0.404  14.361
87048W        W52033  19.702  30.933  14.834
87049W        W52034  15.553  39.479  13.895
87050W        W52035  20.717  15.311  13.917
87051W        W52036   6.664  27.113  14.996
87052W        W52037  22.462  21.081  12.497
87053W        W52038  16.305   7.786  12.163
87054W        W52039  39.447  33.918   2.822
87055W        W52040  26.614  42.290  13.012
87056W        W52041  29.300   3.562  11.644
87057W        W52042  33.393  30.473  11.231
87058W        W52043  41.052  15.567   3.699
87059W        W52044   1.903  33.206  13.147
87060W        W52045   8.374  26.701   4.569
87061W        W52046  22.526  40.436   4.155
87062W        W52047  26.121  32.410  11.616
87063W        W52048  34.375  21.463  11.639
87064W        W52049  22.502   9.143   3.406
87065W        W52050  28.377   8.837  11.182
87066W        W52051  24.442   6.483  11.498
87067W        W52052  31.594  28.908   4.571
87068W        W52053  32.227  27.207   2.380
87069W        W52054  36.886  42.958   3.884
87070W        W52055   7.375   8.831  11.211
87071W        W52056  37.842  41.895   0.727
87072W        W52057  26.088   8.540  11.149
87073W        W52058  44.736  37.838  10.724
87074W        W52059  16.061  44.389  10.474
87075W        W52060  27.466  12.943   3.968
87076W        W52061  44.418  41.935  14.019
87077W        W52062  27.684  38.284  12.233
87078W        W52063  39.175  18.025   4.527
87079W        W52064  35.726   8.543  13.827
87080W        W52065  37.518  30.291   3.312
87081W        W52066   7.734  17.539   2.871
87082W        W52067  24.640   8.229   2.366
87083W        W52068  16.725  37.306   1.214
87084W        W52069  40.934  23.696  10.335
87085W        W52070  40.779  15.129  10.721
87086W        W52071  28.174  27.212   3.113
87087W        W52072  27.174  36.238   3.886
87088W        W52073  19.856  18.128  13.795
87089W        W52074  26.699   7.740  11.161
87090W        W52075  15.100  25.931  11.664
87091W        W52076  17.598  20.347   4.508
87092W        W52077  17.205  16.147  11.426
87093W        W52078  39.594  41.231   3.805
87094W        W52079  36.802  35.000   3.236
87095W        W52080  13.403  11.051  13.289
87096W        W52081   0.303  21.960   2.255
87097W        W52082  18.327  30.219  14.469
87098W        W52083  44.766  27.255   3.855
87099W        W52084  10.337  32.252  10.180
87100W        W52085  38.007  16.752   0.449
87101W        W52086   6.868   0.336   1.514
87102W        W52087  38.333  19.553  13.460
87103W        W52088  14.142  26.423  10.332
87104W        W52089  16.279   8.845  14.615
87105W        W52090  19.555   2.756  13.957
87106W        W52091  19.618  23.188  11.210
87107W        W52092  31.850  26.998  11.503
87108W        W52093  33.980  40.503   4.879
87109W        W52094  44.193  37.823   3.325
87110W        W52095  23.139   1.544  12.098
87111W        W52096  28.179  12.887   3.708
87112W        W52097   2.378  40.853  14.371
87113W        W52098  40.663   0.833  13.337
87114W        W52099  27.554  29.419   1.399
87115W        W52100   5.704  38.898  14.637
87116W        W52101  25.069  27.001   4.566
87117W        W52102  31.930  11.517   4.497
87118W        W52103  11.774  15.739   3.726
87119W        W52104  33.559  35.638   4.492
87120W        W52105  31.424   5.384  14.481
87121W        W52106  39.795   1.304   0.270
87122W        W52107  37.954  24.723   1.862
87123W        W52108  37.372   8.267   0.700
87124W        W52109  10.542  15.257   3.791
87125W        W52110   2.782   5.644  13.413
87126W        W52111  42.060  21.155   3.645
87127W        W52112  44.370  33.931  12.202
87128W        W52113  11.616  42.752   1.797
87129W        W52114  14.532  16.694   0.868
87130W        W52115  10.225  27.893   0.303
87131W        W52116  23.359  18.697  12.507
87132W        W52117  10.571  24.158   1.588
87133W        W52118  27.406  40.426  12.990
87134W        W52119  28.923  44.822   2.503
87135W        W52120  21.292   1.484  12.463
87136W        W52121  21.718   7.119   2.911
87137W        W52122   4.810  43.412  13.932
87138W        W52123  18.791  44.505  11.630
87139W        W52124  10.278  18.687   2.312
87140W        W52125   5.238  23.455  12.119
87141W        W52126  32.046  21.082   1.785
87142W        W52127   0.239  29.612   4.663
87143W        W52128  27.858  35.800   5.068
87144W        W52129  16.745  24.112   4.636
87145W        W52130  43.219   1.686  11.125
87146W        W52131  41.342  18.414   2.843
87147W        W52132  20.499  36.047   1.853
87148W        W52133  43.798   7.423   3.750
87149W        W52134  27.388   8.313  14.217
87150W        W52135  21.079  16.544  11.176
87151W        W52136  26.006   7.218   3.743
87152W        W52137  34.394   0.380  12.377
87153W        W52138  19.036   2.327   2.645
87154W        W52139   6.472   7.860  12.404
87155W        W52140  33.399  23.440   1.785
87156W        W52141  36.934   0.500   2.879
87157W        W52142   2.715  36.128  11.986
87158W        W52143  18.214  22.284  12.348
87159W        W52144  29.914  16.654   3.749
87160W        W52145  18.818  43.733   2.396
87161W        W52146   0.417   1.806   0.363
87162W        W52147   0.358  26.034   3.800
87163W        W52148   7.196  39.119  13.073
87164W        W52149  17.618  40.129   1.159
87165W        W52150  43.066  41.777  12.056
87166W        W52151  37.712   7.824  12.377
87167W        W52152  20.097  33.051   3.072
87168W        W52153  14.836  32.427   4.555
87169W        W52154  40.980  31.388  14.589
87170W        W52155  29.919  43.015   4.643
87171W        W52156   6.705  34.916   0.188
87172W        W52157  33.176   6.162   1.844
87173W        W52158   4.762  37.771   4.627
87174W        W52159  25.764  13.854  11.231
87175W        W52160  16.045  12.284   2.765
87176W        W52161   7.696   8.140   3.287
87177W        W52162  23.476   2.396   3.929
87178W        W52163  44.602  38.953  12.973
87179W        W52164  36.355   1.251   3.628
87180W        W52165  44.151  37.777  11.626
87181W        W52166  41.790  30.252  13.691
87182W        W52167  30.953   5.638  12.978
87183W        W52168  39.901   9.938  11.582
87184W        W52169  21.195  35.460   2.884
87185W        W52170   4.762  26.009   4.103
87186W        W52171  19.158  17.739   0.923
87187W        W52172  18.119  14.823  13.565
87188W        W52173  42.777  13.628   0.139
87189W        W52174  14.712  13.779   0.210
87190W        W52175  15.133  21.194  13.566
87191W        W52176  37.933  43.061  12.540
87192W        W52177  36.433  29.018  13.136
87193W        W52178  38.901   8.697  13.654
87194W        W52179   0.801  11.371   2.638
87195W        W52180  25.797  31.967   0.389
87196W        W52181  35.913  31.843  13.471
87197W        W52182  15.874   7.318   4.089
87198W        W52183  11.683  30.943   4.384
87199W        W52184  39.860  17.620  14.439
87200W        W52185  16.578  14.749  10.661
87201W        W52186  21.546  21.396  14.994
87202W        W52187   0.248  29.970   4.080
87203W        W52188   1.020  17.128  12.609
87204W        W52189  39.485   6.797  11.530
87205W        W52190  25.148   1.574   3.088
87206W        W52191   0.233  25.458   0.230
87207W        W52192  39.846  43.296  13.949
87208W        W52193   4.591   6.305   5.083
87209W        W52194  27.778  34.150  11.625
87210W        W52195  23.182  18.479   4.123
87211W        W52196  15.281  28.676  12.861
87212W        W52197  41.360  40.387  10.858
87213W        W52198  43.756  15.100  14.283
87214W        W52199  38.775  22.231   2.847
87215W        W52200   9.179  17.220   2.692
87216W        W52201   1.965   1.712  14.374
87217W        W52202  16.376  24.502  10.617
87218W        W52203  34.658   0.499   0.290
87219W        W52204  12.615  30.781  14.961
87220W        W52205  35.118  23.279   0.436
87221W        W52206  38.790  38.014  12.998
87222W        W52207  16.748  36.301   0.262
87223W        W52208  16.744  29.541  14.560
87224W        W52209  28.183   6.435   0.611
87225W        W52210  34.181  25.517  11.028
87226W        W52211   4.237  41.316   4.557
87227W        W52212  30.689  26.185   4.474
87228W        W52213   7.224  11.820  12.516
87229W        W52214  13.266  30.740   1.754
87230W        W52215  26.069  29.191  11.543
87231W        W52216  24.418   5.267   2.819
87232W        W52217  20.232  26.414  12.904
87233W        W52218   4.895  33.769  12.057
87234W        W52219  38.834  41.572  14.411
87235W        W52220  34.364  10.361   3.238
87236W        W52221  43.090  35.405   2.224
87237W        W52222  41.287  18.311  14.330
87238W        W52223  22.515   8.852   5.088
87239W        W52224   8.664   8.461   4.201
87240W        W52225  41.869  24.286  13.449
87241W        W52226  43.524  13.975   0.791
87242W        W52227   9.945   4.237  14.406
87243W        W52228  20.637   4.410  10.295
87244W        W52229  20.032  44.653  10.623
87245W        W52230  25.156  23.485   0.246
87246W        W52231   1.266  19.828  13.910
87247W        W52232   1.158   1.446   1.884
87248W        W52233   7.872  20.849  11.250
87249W        W52234   7.843  41.731  13.120
87250W        W52235  26.632  42.852   1.286
87251W        W52236  22.661  30.613  13.611
87252W        W52237  21.569  28.041  12.162
87253W        W52238  17.434  34.309   1.044
87254W        W52239  37.524  34.469  10.415
87255W        W52240   6.307  40.380  11.143
87256W        W52241   8.184  20.182   3.633
87257W        W52242  42.465  33.936   1.859
87258W        W52243  42.367  38.531   0.243
87259W        W52244  10.641  42.426   2.672
87260W        W52245   0.593  37.659  12.287
87261W        W52246  16.140  25.579  11.240
87262W        W52247  23.204   0.976  10.338
87263W        W52248   0.567  41.795   3.672
87264W        W52249   0.163  12.911   0.736
87265W        W52250  42.322  26.942   0.030
87266W        W52251  42.994   5.717  12.974
87267W        W52252  23.065  31.380  10.793
87268W        W52253  20.299  38.591   4.189
87269W        W52254   2.820  44.896   2.813
87270W        W52255   9.406  32.549  12.140
87271W        W52256  17.695  23.563   1.896
87272W        W52257  26.654  22.171  12.477
87273W        W52258  35.852  13.767   4.150
87274W        W52259  44.418   8.717  12.052
87275W        W52260  27.376  14.849  11.567
87276W        W52261   6.480  23.076   5.033
87277W        W52262   5.277  20.176   0.875
87278W        W52263  37.848  35.879  14.739
87279W        W52264  21.398   0.240   3.748
87280W        W52265   0.781  28.385  11.180
87281W        W52266  20.593   8.417   1.258
87282W        W52267  27.058  25.668   2.765
87283W        W52268   4.193  38.679  14.001
87284W        W52269  17.681  22.981  13.370
87285W        W52270   9.323  17.105  12.050
87286W        W52271   4.730  16.606   1.968
87287W        W52272  27.453  38.982   0.473
87288W        W52273   3.960  27.070   2.624
87289W        W52274   3.436  34.554   2.944
87290W        W52275  18.506  19.765   1.753
87291W        W52276  20.738  10.386   3.835
87292W        W52277  13.917   6.861   4.179
87293W        W52278   5.290  25.951   1.278
87294W        W52279   7.366   0.202  11.660
87295W        W52280  13.771  11.380  14.742
87296W        W52281   1.470   3.451  14.239
87297W        W52282  25.131   2.549  14.801
87298W        W52283  32.596  16.160  10.684
87299W        W52284  10.270  23.879  11.904
87300W        W52285  18.228  41.042  13.026
87301W        W52286  11.921  31.954  11.264
87302W        W52287  26.391  21.357   1.204
87303W        W52288   3.697  11.923  13.368
87304W        W52289  30.672  15.073   0.288
87305W        W52290  20.561  32.908   1.402
87306W        W52291  24.934  43.831   0.863
87307W        W52292  40.354  28.160   5.102
87308W        W52293  12.365   6.426  10.642
87309W        W52294  44.399   1.996  14.949
87310W        W52295  26.464  43.294  12.390
87311W        W52296  43.245   6.916  13.317
87312W        W52297  24.494   1.185  11.042
87313W        W52298  21.188   5.689  11.559
87314W        W52299   7.820  14.393  12.642
87315W        W52300  13.792  10.325  10.611
87316W        W52301   9.930  23.993   1.297
87317W        W52302   3.846  33.047  10.587
87318W        W52303  36.384  11.833  14.553
87319W        W52304  21.097   6.604  12.448
87320W        W52305  29.402   1.037  14.792
87321W        W52306  20.050  42.149  12.553
87322W        W52307  40.974   7.361  14.517
87323W        W52308  13.139  23.808  10.736
87324W        W52309   6.397  34.351   2.734
87325W        W52310  21.564  36.763  11.151
87326W        W52311  15.860  18.911  13.495
87327W        W52312  43.511  14.605  11.671
87328W        W52313  37.043  20.960   1.230
87329W        W52314  38.301  19.750  11.973
87330W        W52315  31.872  10.266  10.512
87331W        W52316  44.537   7.739  11.644
87332W        W52317  16.797  20.174  14.145
87333W        W52318  27.443   2.720  11.609
87334W        W52319  27.641  35.619  12.026
87335W        W52320  44.744  20.079  12.369
87336W        W52321  28.708  28.013   1.703
87337W        W52322   3.965  43.997   1.372
87338W        W52323  36.766  16.406   3.532
87339W        W52324  31.451  12.834  13.866
87340W        W52325  35.489  11.568  12.640
87341W        W52326  40.891   5.372   0.343
87342W        W52327  15.076  43.961   2.701
87343W        W52328   5.945   7.810   4.246
87344W        W52329  13.773  44.291  12.864
87345W        W52330  33.589  43.848   0.679
87346W        W52331  19.388  31.767  10.722
87347W        W52332  22.120   2.959   4.137
87348W        W52333   6.438  23.183  10.915
87349W        W52334  29.454  41.401   2.002
87350W        W52335  19.346  44.820  13.963
87351W        W52336   0.868  40.878  12.562
87352W        W52337  26.705  20.280  11.725
87353W        W52338  36.553  32.847   2.014
87354W        W52339   3.862  33.127  14.567
87355W        W52340  16.943  21.550  11.171
87356W        W52341  42.119  37.510  10.753
87357W        W52342  26.287  30.106   4.437
87358W        W52343  31.490  10.921   3.220
87359W        W52344  14.506  22.096  12.954
87360W        W52345   3.304  10.440   4.775
87361W        W52346   6.789  23.206  11.679
87362W        W52347   1.382   9.195   1.433
87363W        W52348  22.744   1.744  10.015
87364W        W52349  44.392  24.664  10.730
87365W        W52350   1.477  34.108  13.559
87366W        W52351  44.038  16.204  11.055
87367W        W52352  11.493   8.078   0.246
87368W        W52353  26.075  42.249   0.322
87369W        W52354   2.406  39.346   0.873
87370W        W52355  44.531  37.530   1.307
87371W        W52356  16.215  40.926  13.971
87372W        W52357   6.833  43.846  12.916
87373W        W52358  34.974  34.578  13.804
87374W        W52359  14.092  26.177  13.105
87375W        W52360  28.907  40.174   2.196
87376W        W52361  35.443  12.857   4.094
87377W        W52362  41.578  35.598   2.248
87378W        W52363  13.698  25.243   4.009
87379W        W52364  38.143   7.450  13.864
87380W        W52365  14.604  28.695  10.929
87381W        W52366  41.569   8.944   2.877
87382W        W52367  22.785  39.058  13.472
87383W        W52368  40.967  16.278   0.505
87384W        W52369   0.360  44.877  13.118
87385W        W52370   1.951  41.297  13.085
87386W        W52371  34.492  24.104   4.611
87387W        W52372  18.197  42.947   4.382
87388W        W52373  31.077  24.036   1.484
87389W        W52374  37.149  18.773   5.066
87390W        W52375  11.192  11.801  14.135
87391W        W52376   1.424  29.136   2.382
87392W        W52377  43.269  10.137   1.209
87393W        W52378  33.999  28.241  14.327
87394W        W52379  41.321  37.541   4.456
87395W        W52380  17.025  36.905  10.529
87396W        W52381  19.050   5.715   4.115
87397W        W52382   4.209  36.017  10.807
87398W        W52383  39.368  19.521  13.364
87399W        W52384  36.736  40.630  14.855
87400W        W52385  25.998  25.599   1.416
87401W        W52386  29.634   2.509  12.492
87402W        W52387  15.401  22.765  14.441
87403W        W52388  43.400  24.515   0.713
87404W        W52389  16.586  17.716  11.529
87405W        W52390  10.786  34.981   3.050
87406W        W52391   5.402   4.256  14.337
87407W        W52392  10.118  32.207   1.754
87408W        W52393  27.260  24.198  12.610
87409W        W52394  43.736  38.900  10.420
87410W        W52395  33.525  17.091  14.834
87411W        W52396   7.826  42.289  14.882
87412W        W52397  16.281   4.164  12.972
87413W        W52398   4.129  21.846  12.093
87414W        W52399  38.928   1.759   4.148
87415W        W52400   4.495  13.766  13.015
87416W        W52401  35.960  37.110  13.881
87417W        W52402  12.283  43.774  10.399
87418W        W52403  18.269   5.161  14.763
87419W        W52404  19.849  14.382  11.727
87420W        W52405  38.176   8.023   1.313
87421W        W52406   2.378  35.809  10.809
87422W        W52407  31.591  38.516   0.018
87423W        W52408   1.989   0.792  14.839
87424W        W52409  23.790  26.948   3.367
87425W        W52410  39.031  37.139   1.225
87426W        W52411  10.691  39.113  14.969
87427W        W52412  25.259  16.560  11.566
87428W        W52413   6.833  43.298  12.904
87429W        W52414   7.125  21.617   0.441
87430W        W52415   5.166  25.135  10.572
87431W        W52416  35.622  16.194  10.683
87432W        W52417  10.665  27.432   2.277
87433W        W52418   7.181  18.085  14.829
87434W        W52419  29.304  13.038  10.724
87435W        W52420  15.846  37.413  12.660
87436W        W52421  44.247  24.081  14.725
87437W        W52422  23.499  28.224  11.997
87438W        W52423  17.254  17.105   1.852
87439W        W52424   3.368   4.704   4.557
87440W        W52425  25.696  20.270  13.769
87441W        W52426  10.398  35.619  11.218
87442W        W52427  14.333  15.386  12.106
87443W        W52428  44.658  12.898  14.460
87444W        W52429  15.382  12.717  14.862
87445W        W52430  17.664  20.592  12.267
87446W        W52431  28.683   6.831   2.824
87447W        W52432  41.317  12.335  10.694
87448W        W52433  10.797  25.293  14.431
87449W        W52434  42.798   8.704  10.424
87450W        W52435   6.969  37.220  11.084
87451W        W52436   8.774   9.233  14.904
87452W        W52437  23.160   0.477   2.704
87453W        W52438  33.921  17.091  13.392
87454W        W52439   1.364   0.703   3.299
87455W        W52440  40.974  43.079   2.798
87456W        W52441  41.374  29.516   1.423
87457W        W52442  36.696  40.031   3.776
87458W        W52443  13.709  23.560   3.806
87459W        W52444  13.342  40.049   1.976
87460W        W52445  32.476  44.911  13.810
87461W        W52446  34.512  23.653  11.172
87462W        W52447  36.321  25.490   2.596
87463W        W52448  18.757  28.509   4.113
87464W        W52449  14.624   0.387  11.939
87465W        W52450  25.181  24.818  10.501
87466W        W52451  13.259  10.520  12.608
87467W        W52452   2.175   0.141   1.027
87468W        W52453  35.507   4.081   4.556
87469W        W52454  40.923  23.148   1.817
87470W        W52455  19.307  24.842   1.927
87471W        W52456  23.955  26.674  13.498
87472W        W52457  22.730  16.286   0.880
87473W        W52458  39.660  20.530   1.755
87474W        W52459  10.551   6.304  14.016
87475W        W52460  27.499  17.898  14.612
87476W        W52461  41.362  31.594   4.107
87477W        W52462  24.448   4.410  13.595
87478W        W52463  34.789  33.058  11.935
87479W        W52464  14.405   4.373  11.552
87480W        W52465  25.361  12.247  11.030
87481W        W52466  31.992  18.184   0.532
87482W        W52467  44.911  19.126  11.007
87483W        W52468  30.830  19.124  11.712
87484W        W52469   6.729  17.306  10.561
87485W        W52470  34.221  16.595   3.813
87486W        W52471  16.257   8.246  12.449
87487W        W52472  32.522  17.483   1.342
87488W        W52473  38.515  27.461  14.000
87489W        W52474  23.711  33.964   1.413
87490W        W52475   3.165  19.085  13.721
87491W        W52476  25.249   9.711   1.498
87492W        W52477  42.407  34.425  12.608
87493W        W52478  26.140  23.581   1.256
87494W        W52479  11.211  22.456  14.490
87495W        W52480   3.514  44.419   1.489
87496W        W52481  13.347  44.203   2.237
87497W        W52482  25.159  24.357   3.450
87498W        W52483   7.805  19.721  11.680
87499W        W52484  44.464  42.934  12.518
87500W        W52485  33.530  38.924   4.441
87501W        W52486  28.589  10.676   2.167
87502W        W52487  34.857  15.235  13.506
87503W        W52488   5.408  22.501   4.508
87504W        W52489  44.798   5.374  11.091
87505W        W52490  27.913   0.863   2.210
87506W        W52491  37.018   0.379   1.962
87507W        W52492  16.683  28.014   0.804
87508W        W52493  37.321  30.458  12.960
87509W        W52494  17.462  38.070   0.509
87510W        W52495  39.921  37.141  11.479
87511W        W52496  28.128  14.783  12.922
87512W        W52497  28.682  15.574   4.118
87513W        W52498   9.206   1.542   2.826
87514W        W52499  41.254  36.670  12.115
87515W        W52500   1.438  26.447  11.676
87516W        W52501  24.913   7.819   2.210
87517W        W52502  34.881  22.314   0.715
87518W        W52503  23.308  36.029  10.682
87519W        W52504  44.063  40.381   3.178
87520W        W52505  19.039  22.209  11.920
87521W        W52506  19.080  29.119  12.895
87522W        W52507  30.498  36.028  11.296
87523W        W52508  22.401  20.852  10.777
87524W        W52509  15.550   6.433   1.164
87525W        W52510  13.645  11.556  11.232
87526W        W52511  29.898  36.032   2.390
87527W        W52512   7.287  36.044  14.942
87528W        W52513  37.013  44.943   0.114
87529W        W52514  31.573  33.368  14.904
87530W        W52515   9.308  33.403  14.376
87531W        W52516  17.376   8.931  11.135
87532W        W52517  30.566  30.659  12.413
87533W        W52518   6.313   0.495  11.476
87534W        W52519  41.347  12.595  13.529
87535W        W52520  14.034   6.059  14.589
87536W        W52521   1.724  38.503   0.644
87537W        W52522  44.397  26.658   9.831
87538W        W52523  29.944  35.420  13.108
87539W        W52524   7.910  13.217   4.338
87540W        W52525  42.094  22.909   2.924
87541W        W52526  40.464  14.515   3.653
87542W        W52527  43.391  10.980  10.829
87543W        W52528  41.326  18.101   1.400
87544W        W52529  20.488  26.655  13.286
87545W        W52530  34.338  15.300   0.776
87546W        W52531  31.906  20.694  13.463
87547W        W52532  26.618  12.279  14.885
87548W        W52533  39.801  16.322  11.608
87549W        W52534   7.532   6.310   3.981
87550W        W52535   4.127  12.254   4.018
87551W        W52536  41.976  28.764   2.305
87552W        W52537   0.780  18.830   1.720
87553W        W52538  41.920  10.668  14.500
87554W        W52539   8.656  26.667  14.227
87555W        W52540  27.007  37.768   0.544
87556W        W52541  29.990  27.679  12.432
87557W        W52542  40.573  28.475  12.947
87558W        W52543  14.339  10.089   4.170
87559W        W52544  34.067  27.421   1.310
87560W        W52545   9.101  27.731   3.704
87561W        W52546  40.587   4.746  13.298
87562W        W52547   4.195  18.672   0.913
87563W        W52548   3.809   5.624  14.351
87564W        W52549  18.740  10.457  11.568
87565W        W52550   7.827  19.700   0.948
87566W        W52551   7.486   1.465   0.393
87567W        W52552  33.080  40.906  11.104
87568W        W52553  30.999  26.755  12.163
87569W        W52554  14.518   4.416   1.600
87570W        W52555   1.009  21.684   4.907
87571W        W52556   5.118  19.994  10.967
87572W        W52557  10.968  25.113  13.946
87573W        W52558  10.689  24.758  11.984
87574W        W52559  23.143   7.429   0.671
87575W        W52560  12.179   8.358   1.860
87576W        W52561  19.689  25.936  12.775
87577W        W52562  43.827  30.596   4.576
87578W        W52563  20.888   4.249   3.595
87579W        W52564  24.176  22.721   4.166
87580W        W52565  18.675  14.572   1.170
87581W        W52566  25.227  11.778   4.294
87582W        W52567  32.495  17.195   1.776
87583W        W52568  28.421  31.413   2.852
87584W        W52569  33.397  21.471  14.968
87585W        W52570  31.418  36.664  13.045
87586W        W52571  16.015  37.561   2.324
87587W        W52572  15.105  31.357  12.478
87588W        W52573  25.438  16.285  14.544
87589W        W52574  44.802  34.145  12.945
87590W        W52575  14.178  24.143  13.777
87591W        W52576   6.839  32.114   2.739
87592W        W52577   0.828  36.549  14.541
87593W        W52578  35.416   0.764  14.234
87594W        W52579   9.553  28.120   3.777
87595W        W52580  18.563   0.038   3.563
87596W        W52581  20.770  33.066   1.885
87597W        W52582   0.735  18.878   1.174
87598W        W52583   3.188   7.269  11.327
87599W        W52584  10.523  33.943  14.398
87600W        W52585  36.109  27.004  11.947
87601W        W52586   3.915  31.337   2.718
87602W        W52587   5.876  18.765  13.903
87603W        W52588   5.197   8.531  14.235
87604W        W52589  36.925  13.276   3.430
87605W        W52590  36.633   1.315   3.174
87606W        W52591  36.122  26.869   2.714
87607W        W52592  13.909   2.856  12.464
87608W        W52593   6.454  37.009  13.059
87609W        W52594  37.857  21.765   1.830
87610W        W52595  40.454  30.967   3.140
87611W        W52596  44.463  17.458   5.291
87612W        W52597  12.693  13.674  12.475
87613W        W52598  36.023  14.769  12.668
87614W        W52599  44.937  18.782   1.804
87615W        W52600  11.853  15.142   3.265
87616W        W52601  27.017  14.255  13.911
87617W        W52602  31.523   5.167  11.563
87618W        W52603  44.746  29.899  11.522
87619W        W52604   1.902  23.160   0.957
87620W        W52605  42.793   1.959   2.730
87621W        W52606   0.562  38.426   1.444
87622W        W52607  25.767  36.587   1.701
87623W        W52608  24.953   4.235   4.090
87624W        W52609  37.006  20.846   5.011
87625W        W52610   4.719  14.591  13.008
87626W        W52611   3.487  35.469   2.849
87627W        W52612  30.559  37.856   2.348
87628W        W52613  11.193  39.312   4.505
87629W        W52614  27.957  30.487  13.277
87630W        W52615   1.751  32.618   3.989
87631W        W52616  28.846  28.065  12.897
87632W        W52617   9.219  17.677  14.512
87633W        W52618  13.764   2.991  13.735
87634W        W52619  32.115   9.406   2.791
87635W        W52620  23.577  39.892  11.273
87636W        W52621  36.401  32.901  12.997
87637W        W52622  17.878   1.480  12.504
87638W        W52623  28.153  32.227   1.992
87639W        W52624   6.812   4.485   1.291
87640W        W52625  15.538  12.765   1.636
87641W        W52626  11.906  40.085  13.288
87642W        W52627   1.873   3.389  13.010
87643W        W52628  32.497   1.785   4.344
87644W        W52629  37.045  14.398   0.236
87645W        W52630   2.803  18.281  12.621
87646W        W52631  13.875  41.023  10.474
87647W        W52632  43.425   3.426   0.183
87648W        W52633  35.281   5.911   1.236
87649W        W52634  40.833  32.396  14.469
87650W        W52635  29.793  27.578   0.111
87651W        W52636  31.854  33.195  12.036
87652W        W52637  17.465   1.517  13.936
87653W        W52638  42.269  32.408   2.851
87654W        W52639  15.612  26.593  14.840
87655W        W52640  38.003  21.699  10.647
87656W        W52641   4.761   8.836  10.262
87657W        W52642   7.321  31.906   2.739
87658W        W52643  43.857  35.222   3.700
87659W        W52644  15.516  11.500   2.234
87660W        W52645  21.696  22.727  14.805
87661W        W52646   9.176  24.980   2.999
87662W        W52647   6.668  39.463  12.765
87663W        W52648  43.197   9.740   0.383
87664W        W52649  31.170  30.167  13.601
87665W        W52650   5.022  15.016  12.357
87666W        W52651  41.029  31.046   1.829
87667W        W52652  17.803   1.984   0.440
87668W        W52653  10.158  20.544  14.946
87669W        W52654  24.298  38.776   0.025
87670W        W52655  13.597  16.156   2.720
87671W        W52656  21.061   6.751   2.952
87672W        W52657  13.657   6.348  14.809
87673W        W52658  34.109  14.388   3.478
87674W        W52659   2.514  29.446  14.832
87675W        W52660   3.725   9.138   0.407
87676W        W52661  30.027  23.033  14.920
87677W        W52662  31.804  32.920   3.206
87678W        W52663  44.795   2.316  14.807
87679W        W52664   9.111   2.528  12.128
87680W        W52665  17.104  38.322   4.802
87681W        W52666   2.393  10.644  10.616
87682W        W52667  13.000  25.986   0.830
87683W        W52668  12.657  32.684  13.864
87684W        W52669  38.459  16.289   2.846
87685W        W52670  21.241  16.773   3.374
87686W        W52671  25.118  19.523   0.017
87687W        W52672  41.568  44.779   1.180
87688W        W52673  32.071  36.925   4.266
87689W        W52674  29.944  10.643  12.477
87690W        W52675  34.986  33.671  13.939
87691W        W52676  24.190  39.660  13.035
87692W        W52677  25.802  28.973   1.837
87693W        W52678  29.211  11.769  12.350
87694W        W52679   4.219  42.495   0.815
87695W        W52680  24.970  25.530  11.214
87696W        W52681  42.961  34.565   0.145
87697W        W52682  26.106  14.300  12.054
87698W        W52683  20.443  21.985  14.018
87699W        W52684   4.965   7.743  12.697
87700W        W52685  43.877  25.389  12.806
87701W        W52686  36.267  13.486   4.125
87702W        W52687  22.022   3.452  12.610
87703W        W52688  19.283   9.140  13.485
87704W        W52689  38.971  38.351  13.561
87705W        W52690  42.249  15.124  13.799
87706W        W52691  21.607  26.110  14.023
87707W        W52692   7.702  12.356   3.969
87708W        W52693  42.769  10.272   4.420
87709W        W52694   1.743  30.166  11.266
87710W        W52695  15.595  39.814   0.050
87711W        W52696  16.379  40.659   1.296
87712W        W52697  16.374  15.551   2.261
87713W        W52698   1.992  40.557  12.123
87714W        W52699  41.354  34.982   0.692
87715W        W52700   4.794  20.560  14.819
87716W        W52701  25.986  38.195   1.343
87717W        W52702  26.250   7.493  11.136
87718W        W52703  13.265  11.028   1.934
87719W        W52704  17.783  18.753   2.736
87720W        W52705  25.198  34.929   3.608
87721W        W52706   0.908  35.586   0.868
87722W        W52707  25.231  12.505   2.740
87723W        W52708  42.141   8.390   2.473
87724W        W52709  17.173  43.912  12.441
87725W        W52710  24.735  32.825  12.604
87726W        W52711  41.842  29.151  12.701
87727W        W52712  13.256  24.958   1.639
87728W        W52713  21.041  33.574  11.407
87729W        W52714  27.254  38.474  11.477
87730W        W52715  14.146  44.539   0.826
87731W        W52716  17.176  42.288  13.916
87732W        W52717  22.612  26.917   2.827
87733W        W52718  43.898   5.301  12.634
87734W        W52719  36.075  38.782   2.377
87735W        W52720  30.078  26.213  12.124
87736W        W52721  20.509  15.823  14.369
87737W        W52722  11.136  40.227   4.198
87738W        W52723  35.907  37.480   0.738
87739W        W52724  36.841   3.267  10.959
87740W        W52725   5.033  29.774  10.967
87741W        W52726  16.605  31.060   2.710
87742W        W52727  44.644  24.891  10.330
87743W        W52728   2.996  26.406   4.039
87744W        W52729  43.895  39.367   1.291
87745W        W52730   3.058  25.534  12.456
87746W        W52731  24.204   7.227  11.909
87747W        W52732  26.415   6.435  10.499
87748W        W52733  14.708  23.399  11.457
87749W        W52734  20.298   1.970   1.911
87750W        W52735  23.555  27.477  11.719
87751W        W52736   8.778  28.734  13.405
87752W        W52737   8.124  13.360  11.694
87753W        W52738   3.443  27.966   2.618
87754W        W52739  41.810  44.329  10.931
87755W        W52740  10.377   9.817   1.662
87756W        W52741  11.585  14.872   0.527
87757W        W52742  11.449  10.725   1.328
87758W        W52743   3.863  23.076   1.848
87759W        W52744  44.579  40.387  14.380
87760W        W52745   9.035  20.019   2.794
87761W        W52746  20.991   0.827   3.763
87762W        W52747  16.692  43.045  13.195
87763W        W52748  43.312  22.870   2.277
87764W        W52749  41.433  14.233  10.380
87765W        W52750   8.398  40.777  11.128
87766W        W52751  26.517  17.692  10.781
87767W        W52752  28.725   7.339   3.437
87768W        W52753  36.061  20.710   2.816
87769W        W52754  11.841   7.581  13.508
87770W        W52755  32.150  27.818  12.911
87771W        W52756  26.202  44.788   5.620
87772W        W52757  13.727  12.825   0.906
87773W        W52758  38.510  41.266   4.312
87774W        W52759   8.282  20.509   4.033
87775W        W52760   3.491  10.616  13.122
87776W        W52761  14.547  39.270   2.736
87777W        W52762  18.368  31.530  13.751
87778W        W52763  24.584  44.007   0.408
87779W        W52764  20.401  16.422  12.530
87780W        W52765  30.453  43.480  11.634
87781W        W52766   2.377  21.775  11.627
87782W        W52767  27.966  37.885   3.138
87783W        W52768  12.096   7.786   0.706
87784W        W52769  29.955   0.316  10.688
87785W        W52770   1.903  28.860   2.347
87786W        W52771  34.993  24.282  11.195
87787W        W52772  43.244   6.808   3.100
87788W        W52773  33.538  29.482   1.741
87789W        W52774  42.909   3.415   2.283
87790W        W52775  16.364  21.101  13.902
87791W        W52776   8.213  33.812  11.723
87792W        W52777   9.945   4.720  14.578
87793W        W52778  22.151  25.089  11.543
87794W        W52779  21.187   5.062   3.280
87795W        W52780  38.771   9.696  13.773
87796W        W52781  43.379   6.247   1.400
87797W        W52782  11.573   7.693   3.809
87798W        W52783  28.712  44.973   1.242
87799W        W52784  10.275  13.199  12.599
87800W        W52785   3.304   4.301  12.907
87801W        W52786  15.863  42.829   0.376
87802W        W52787  25.068  22.588  11.994
87803W        W52788  36.008  42.487   0.304
87804W        W52789  26.252  18.208   4.567
87805W        W52790  12.531  27.332   9.833
87806W        W52791  29.640   3.897  11.372
87807W        W52792  30.566  40.318   0.072
87808W        W52793  29.881  11.307   3.271
87809W        W52794  32.400  33.496   1.945
87810W        W52795  17.274  38.516   0.360
87811W        W52796   3.860  20.186  13.811
87812W        W52797   8.789  14.640   4.543
87813W        W52798  36.931   3.874  12.057
87814W        W52799   7.668  15.604   1.930
87815W        W52800  14.782  10.787  11.738
87816W        W52801  39.687   2.666   2.299
87817W        W52802  10.126  19.306   3.100
87818W        W52803  42.052  41.327  12.400
87819W        W52804  17.604  24.033   3.006
87820W        W52805   5.342  10.670   3.822
87821W        W52806  44.321  30.903  14.785
87822W        W52807   6.688  21.402  10.335
87823W        W52808  10.630  38.561  10.324
87824W        W52809  23.456   9.113  14.902
87825W        W52810   4.428  21.956   3.398
87826W        W52811  33.226   6.114  13.077
87827W        W52812  37.075  14.098   4.466
87828W        W52813   8.885  25.949  10.841
87829W        W52814  21.985   4.881  13.225
87830W        W52815  34.695  24.172   1.890
87831W        W52816  12.622  11.831   4.594
87832W        W52817  36.985   7.754   4.453
87833W        W52818   8.509  11.837  14.403
87834W        W52819   7.355  16.194   2.905
87835W        W52820  32.058   7.400  12.021
87836W        W52821  28.988  28.704  13.417
87837W        W52822  18.706  26.819   1.119
87838W        W52823  29.301  16.081  12.977
87839W        W52824  23.604  17.366  14.042
87840W        W52825  15.955   9.174   3.950
87841W        W52826   3.254  40.386   1.903
87842W        W52827   8.682   2.724  14.018
87843W        W52828  15.052  36.881   2.265
87844W        W52829  29.135   1.036   0.233
87845W        W52830  44.911  27.480   0.200
87846W        W52831  38.215  36.884   9.745
87847W        W52832  41.180  23.326  10.576
87848W        W52833  30.507  10.551   0.593
87849W        W52834  26.365  43.411  14.013
87850W        W52835  24.681   3.455   3.119
87851W        W52836  39.389  19.197   0.651
87852W        W52837  28.070   3.332   1.297
87853W        W52838  19.800  12.337   0.838
87854W        W52839   3.160  27.549   2.824
87855W        W52840   3.689  28.221  12.511
87856W        W52841  35.035  14.870  12.799
87857W        W52842  10.223  30.091   2.229
87858W        W52843   7.480  10.609  10.455
87859W        W52844  13.298  10.714  11.208
87860W        W52845  25.465  39.551  14.368
87861W        W52846  40.066   1.319   1.294
87862W        W52847   8.278  23.566  10.797
87863W        W52848  24.323  13.215   3.799
87864W        W52849  42.415   8.616  12.405
87865W        W52850  15.771  16.535   4.581
87866W        W52851  20.684  32.890  14.876
87867W        W52852  12.745   3.793   3.184
87868W        W52853  25.131  10.247   3.220
87869W        W52854  29.851  17.311   0.780
87870W        W52855   1.341  43.805  13.786
87871W        W52856  21.270  31.741   1.174
87872W        W52857  14.734   0.684  13.310
87873W        W52858  24.449  10.780   4.283
87874W        W52859  29.856  31.225  13.965
87875W        W52860  23.744   1.779   4.106
87876W        W52861  38.747  28.096  12.101
87877W        W52862  21.591   0.477   1.716
87878W        W52863  35.936  16.342   0.494
87879W        W52864  38.900  23.211  14.589
87880W        W52865  15.145  25.816  12.159
87881W        W52866  34.877  32.040  11.715
87882W        W52867  13.611   5.903   2.848
87883W        W52868  41.409  17.615   0.558
87884W        W52869  41.595  22.904  13.975
87885W        W52870   1.541  15.599   0.776
87886W        W52871  27.119  33.855   0.253
87887W        W52872  11.177  19.460   2.125
87888W        W52873  39.849  24.574  12.870
87889W        W52874  44.527  12.959   4.424
87890W        W52875  39.001  44.357  13.190
87891W        W52876  43.416   8.326   2.801
87892W        W52877  30.679  11.187   3.830
87893W        W52878  20.089  38.882   4.560
87894W        W52879  36.719   5.236  13.603
87895W        W52880   3.288  22.282  11.100
87896W        W52881  33.565  34.221  10.454
87897W        W52882  23.972  26.622   4.276
87898W        W52883  19.728  40.295   2.389
87899W        W52884  41.425   0.950  12.665
87900W        W52885  44.336  13.945   2.685
87901W        W52886  20.295  33.203   1.731
87902W        W52887  21.170   6.797  11.480
87903W        W52888  11.936   2.856  13.939
87904W        W52889  21.611  18.274  12.087
87905W        W52890   3.303  31.152   4.542
87906W        W52891  44.285  33.387  14.009
87907W        W52892  34.089   9.778   1.346
87908W        W52893  42.959  41.884  14.694
87909W        W52894  22.394  30.589  12.370
87910W        W52895   7.742  20.783   4.126
87911W        W52896  10.899  22.144   2.689
87912W        W52897  25.283  40.597   4.055
87913W        W52898  20.996  26.259  11.043
87914W        W52899   7.240  44.210  10.619
87915W        W52900  33.486  20.972   1.754
87916W        W52901  15.144   6.716  12.961
87917W        W52902   9.450   1.968   2.262
87918W        W52903  24.642  37.407   2.330
87919W        W52904   0.339   0.814   1.989
87920W        W52905  25.547   3.833  11.135
87921W        W52906  37.073  34.687  13.513
87922W        W52907  38.413  38.919  12.019
87923W        W52908   9.281  41.250   1.326
87924W        W52909  38.891   0.725   3.233
87925W        W52910  38.946   7.167  14.188
87926W        W52911  12.963   5.129  10.058
87927W        W52912  29.091  11.843   3.891
87928W        W52913  18.122  27.974   0.751
87929W        W52914  30.147  17.577  12.442
87930W        W52915   6.838   2.205  14.522
87931W        W52916  17.668  15.719  12.176
87932W        W52917  36.609   4.326   3.908
87933W        W52918  10.205  16.470   1.843
87934W        W52919  30.996  16.386   2.955
87935W        W52920  33.116   6.100   4.065
87936W        W52921  30.191  11.038  12.765
87937W        W52922   0.522  10.149  11.185
87938W        W52923  39.503  12.128   2.327
87939W        W52924   9.128  27.641  14.348
87940W        W52925  18.264  37.530  14.256
87941W        W52926  37.590   8.260  11.171
87942W        W52927  35.600  13.792  14.812
87943W        W52928  15.061  39.766  12.017
87944W        W52929  15.368  22.559   4.228
87945W        W52930  32.019  10.731   0.581
87946W        W52931  32.314  40.402   1.942
87947W        W52932  19.925  16.605   2.806
87948W        W52933  25.051  44.735  14.127
87949W        W52934   6.812  21.245   1.198
87950W        W52935  13.513  30.006  14.271
87951W        W52936  36.285  41.777  13.497
87952W        W52937  23.133  18.280  10.131
87953W        W52938  32.553  18.536   1.214
87954W        W52939  30.514  31.698   1.504
87955W        W52940  15.847  19.422  13.442
87956W        W52941   8.187  30.072  11.184
87957W        W52942   3.054   5.003   2.943
87958W        W52943  31.086  44.556  12.889
87959W        W52944  28.700  36.379  11.150
87960W        W52945  40.528   8.154   2.718
87961W        W52946  43.085  32.995  12.619
87962W        W52947   3.511  32.709  10.787
87963W        W52948  38.852  20.335   0.960
87964W        W52949  29.168  12.268   4.686
87965W        W52950  15.514  30.426   0.771
87966W        W52951   1.056   6.714   4.642
87967W        W52952  21.937  16.258  11.716
87968W        W52953  14.954  32.396  10.941
87969W        W52954  12.615   9.233   3.642
87970W        W52955  30.049  29.607  12.335
87971W        W52956   3.525   4.333  10.396
87972W        W52957  42.043   5.213  12.898
87973W        W52958  19.578   3.787  10.764
87974W        W52959  10.321  27.197  13.329
87975W        W52960  26.209   3.998   4.582
87976W        W52961  38.694   5.309  12.595
87977W        W52962   8.591   2.095  11.072
87978W        W52963  27.738  10.821  11.158
87979W        W52964  16.688  14.172  13.100
87980W        W52965  12.651   1.776  14.901
87981W        W52966  35.916  44.928   0.370
87982W        W52967   2.745  21.776   2.237
87983W        W52968  26.727  18.236   1.859
87984W        W52969   1.099   7.743   2.144
87985W        W52970  30.623  19.627  11.980
87986W        W52971  15.331  22.696   2.055
87987W        W52972  38.250  35.200   5.496
87988W        W52973   1.384  36.755  14.279
87989W        W52974  23.933  35.548  12.014
87990W        W52975  38.828  28.739  11.122
87991W        W52976   6.003  34.149   3.734
87992W        W52977   8.643   4.192   4.510
87993W        W52978  43.853  18.218  14.070
87994W        W52979   9.863  28.102   4.741
87995W        W52980  42.819  10.173   3.912
87996W        W52981   9.811  36.387  13.815
87997W        W52982   3.825  28.487   4.243
87998W        W52983  19.639  18.951  10.179
87999W        W52984  44.962  40.898  10.769
88000W        W52985  22.009   6.186   4.854
88001W        W52986  24.431  41.798   0.243
88002W        W52987   2.690  32.217  11.202
88003W        W52988   7.371  23.676   1.691
88004W        W52989  25.561  18.788   4.411
88005W        W52990  35.558  29.962  14.383
88006W        W52991  23.634  42.785   4.954
88007W        W52992   1.294  15.349   2.655
88008W        W52993  27.040  33.797  12.925
88009W        W52994  38.325   6.020  12.173
88010W        W52995  13.582  23.014  11.153
88011W        W52996  40.837  44.325  10.616
88012W        W52997  20.664   2.077   4.557
88013W        W52998   9.218  43.272   3.252
88014W        W52999   4.725   4.470   4.349
88015W        W53000  43.534  42.566  13.999
88016W        W53001  25.752  11.269  12.686
88017W        W53002  39.515  14.534   1.461
88018W        W53003   0.352  44.826  13.664
88019W        W53004  18.282  18.717   2.767
88020W        W53005  12.692  23.186  12.889
88021W        W53006   9.932  19.806  11.946
88022W        W53007  40.508  17.230  12.238
88023W        W53008  36.589  35.573   9.995
88024W        W53009  17.330  39.669   1.215
88025W        W53010  32.540  14.304   4.187
88026W        W53011   6.157  23.516  12.097
88027W        W53012  15.006  19.316   3.493
88028W        W53013  22.008  23.236  13.947
88029W        W53014   0.453  13.606   2.287
88030W        W53015  31.161   5.686  10.120
88031W        W53016  23.073  42.262   1.297
88032W        W53017  30.667  22.285  11.191
88033W        W53018   8.874  30.662  14.067
88034W        W53019  25.524  41.214  11.609
88035W        W53020  13.519  29.978  12.531
88036W        W53021   3.722  42.280   3.640
88037W        W53022   3.705  28.409   2.642
88038W        W53023  27.984  31.966  12.892
88039W        W53024  19.927  21.279   4.147
88040W        W53025  23.513  39.320  14.227
88041W        W53026  38.672  43.517   1.750
88042W        W53027  15.220   3.828   2.623
88043W        W53028  34.092   0.859  12.962
88044W        W53029   3.431  22.213  13.395
88045W        W53030  14.232   6.480   1.935
88046W        W53031   2.866  32.531   3.883
88047W        W53032  23.715  43.407   2.270
88048W        W53033  26.275  30.192   2.073
88049W        W53034  41.511  41.070  12.082
88050W        W53035  27.488  33.102   3.400
88051W        W53036  43.844   3.706   4.024
88052W        W53037  41.162  23.943   5.602
88053W        W53038  13.615  20.970   3.691
88054W        W53039  33.730  29.854   4.348
88055W        W53040  22.018  42.559   2.214
88056W        W53041  31.149  18.137   4.280
88057W        W53042   0.578  14.718  11.182
88058W        W53043  16.728  30.693   4.828
88059W        W53044  39.784  32.092   3.214
88060W        W53045   3.260   8.443  14.439
88061W        W53046  37.587  15.713  12.577
88062W        W53047  29.477  38.913   0.070
88063W        W53048  11.754  21.859  10.534
88064W        W53049  25.595  35.398  14.395
88065W        W53050  32.594   6.930  13.286
88066W        W53051  33.009  39.583   3.647
88067W        W53052  37.925  18.700   0.436
88068W        W53053  31.148  16.118   4.780
88069W        W53054  37.579  18.011  10.545
88070W        W53055  21.847   9.692  12.550
88071W        W53056  28.450   5.705   4.919
88072W        W53057   9.816  28.450  10.723
88073W        W53058  40.133  43.446   0.731
88074W        W53059   3.491  24.154  11.126
88075W        W53060   0.130  31.292  11.952
88076W        W53061  29.984   9.117  12.559
88077W        W53062  24.526  43.045   0.358
88078W        W53063  17.482  22.134  11.190
88079W        W53064  19.951  22.733   2.323
88080W        W53065  31.999  42.692  12.411
88081W        W53066  18.029  21.220   3.599
88082W        W53067  43.331  38.289  11.599
88083W        W53068  39.846  44.249   4.242
88084W        W53069  25.137  18.067  12.406
88085W        W53070  21.965  17.979   1.323
88086W        W53071  13.843  22.599  10.333
88087W        W53072  41.791   3.176  10.786
88088W        W53073   2.724  33.535  12.832
88089W        W53074  41.666  32.506  14.610
88090W        W53075  35.336  39.843  14.349
88091W        W53076  29.168  18.250   2.852
88092W        W53077  30.525   2.192   2.423
88093W        W53078   2.257  33.414   2.748
88094W        W53079  13.599   5.741   9.876
88095W        W53080   2.599  25.727   3.294
88096W        W53081  13.693   1.044   4.887
88097W        W53082  10.740  11.284  13.388
88098W        W53083  23.731   7.964   3.668
88099W        W53084  16.786   1.342   3.168
88100W        W53085  16.106  40.231   1.210
88101W        W53086  13.091  37.606  10.624
88102W        W53087  27.136   6.803  14.735
88103W        W53088  42.762  41.007   3.230
88104W        W53089  43.915  14.173  13.861
88105W        W53090   4.506  40.852  14.324
88106W        W53091  31.637   1.650  11.498
88107W        W53092  15.869  22.637   4.217
88108W        W53093  40.014  30.508   2.381
88109W        W53094  26.978  36.133  13.364
88110W        W53095  28.898  17.868  14.559
88111W        W53096   7.430   7.306   0.308
88112W        W53097  25.724  19.301  11.191
88113W        W53098   3.555  27.172   4.488
88114W        W53099   1.451  39.409   3.820
88115W        W53100   1.970  44.366  13.965
88116W        W53101  25.578  16.054  10.796
88117W        W53102   2.674  10.426  13.498
88118W        W53103  16.177   2.035  14.836
88119W        W53104  35.828  29.163  11.602
88120W        W53105   8.521   2.926   2.188
88121W        W53106  22.539   4.072   3.908
88122W        W53107  10.595  41.664   1.783
88123W        W53108  23.404  28.425   2.081
88124W        W53109   4.742  31.567  10.579
88125W        W53110   3.848  31.374   1.827
88126W        W53111  23.356   5.109  12.759
88127W        W53112  13.270  38.045   1.291
88128W        W53113  39.361  30.837  10.612
88129W        W53114   3.695  16.566  12.888
88130W        W53115  20.637  16.803  14.840
88131W        W53116  40.320   3.529   0.063
88132W        W53117  44.299  42.152   4.182
88133W        W53118   7.359  14.570  14.427
88134W        W53119  28.350  16.450   1.317
88135W        W53120  43.515  44.310   4.080
88136W        W53121  10.148  33.330   2.798
88137W        W53122   3.330  16.247  13.065
88138W        W53123  29.276  41.387   4.688
88139W        W53124  35.973  41.227  11.159
88140W        W53125  16.255   6.938  14.783
88141W        W53126   8.028  43.925  13.378
88142W        W53127   2.052  13.818  14.312
88143W        W53128  44.380   2.892  13.871
88144W        W53129   7.909  38.389   0.358
88145W        W53130  20.710  35.398   4.770
88146W        W53131  10.438  18.347  14.532
88147W        W53132  40.563  23.006   4.575
88148W        W53133  37.554  30.961  11.701
88149W        W53134   3.474  38.979  11.956
88150W        W53135  12.248  18.372   0.024
88151W        W53136  40.866   1.903   4.610
88152W        W53137   7.505   1.465  13.684
88153W        W53138  33.873  41.598   2.314
88154W        W53139   1.669  24.705   2.691
88155W        W53140  40.661  29.985   4.654
88156W        W53141  35.493  25.717  10.667
88157W        W53142  19.321  34.417  14.487
88158W        W53143   5.563  42.357  11.636
88159W        W53144  27.702  24.887   1.310
88160W        W53145  18.727  44.543   4.556
88161W        W53146   1.912  41.808  10.715
88162W        W53147  25.543  44.262   4.728
88163W        W53148  42.988  24.143  10.696
88164W        W53149  32.512  10.656   4.242
88165W        W53150  33.599  15.718  12.492
88166W        W53151   5.826   1.338  11.568
88167W        W53152  12.218  35.075   4.140
88168W        W53153   0.160  43.986   4.150
88169W        W53154  23.217  16.073   3.464
88170W        W53155  36.328  13.414   2.831
88171W        W53156  11.879   8.916   1.678
88172W        W53157  40.310  41.890  14.390
88173W        W53158   7.125  26.341  12.317
88174W        W53159  24.134  40.138   0.407
88175W        W53160  29.319  17.824   0.495
88176W        W53161  44.715  32.105  14.947
88177W        W53162  25.545  40.489   3.123
88178W        W53163  23.666  21.019  13.185
88179W        W53164   2.237  31.601  11.687
88180W        W53165  13.031  30.004  12.365
88181W        W53166  29.585  22.257   2.366
88182W        W53167  30.958  27.557   1.658
88183W        W53168  37.041  37.769  12.059
88184W        W53169  25.084   0.563   2.955
88185W        W53170   8.701  15.734  10.569
88186W        W53171  18.974  21.271  14.354
88187W        W53172  21.324  37.399  10.936
88188W        W53173  20.879  31.192   3.735
88189W        W53174  12.692  44.715   4.611
88190W        W53175  35.925   1.142   2.025
88191W        W53176   1.446  20.779  12.126
88192W        W53177   3.483   1.944  14.203
88193W        W53178   8.391  28.389   0.372
88194W        W53179   9.159  34.048  12.987
88195W        W53180  10.719  23.917  11.646
88196W        W53181  14.795  39.186   2.271
88197W        W53182  29.240  40.527  14.687
88198W        W53183  23.862   4.926   2.251
88199W        W53184   5.907  34.054   0.680
88200W        W53185  16.956  36.097  12.378
88201W        W53186  20.319  44.348  14.868
88202W        W53187  42.548  19.233   4.166
88203W        W53188  38.852  36.292  11.183
88204W        W53189  33.838  21.245   4.196
88205W        W53190  32.339  17.039  11.518
88206W        W53191  41.493  26.205  11.705
88207W        W53192  22.426  19.953  11.729
88208W        W53193   3.531  40.534  11.105
88209W        W53194  24.757  24.127  12.591
88210W        W53195   4.710  24.716   4.174
88211W        W53196  34.418   8.254  14.865
88212W        W53197  11.878   5.256   3.707
88213W        W53198   8.219  25.731  10.386
88214W        W53199  27.789  42.745  12.506
88215W        W53200  28.510  16.259  14.466
88216W        W53201  18.624  33.219   0.322
88217W        W53202  25.161   6.687   2.803
88218W        W53203  42.048   1.189   4.115
88219W        W53204  35.555   6.865   2.807
88220W        W53205  44.205  40.048  13.508
88221W        W53206   7.754  17.607   4.744
88222W        W53207  34.847  19.728   2.822
88223W        W53208  37.904   0.787  14.813
88224W        W53209  41.520  18.620   0.268
88225W        W53210  11.033  27.845  13.840
88226W        W53211  19.828  21.604  10.323
88227W        W53212   0.832  31.928  11.141
88228W        W53213  38.598   6.339   4.575
88229W        W53214  17.137   9.170   3.258
88230W        W53215  33.927   5.139  11.100
88231W        W53216   2.213  41.360  11.564
88232W        W53217  21.087  31.502  14.767
88233W        W53218  17.799   6.515   1.163
88234W        W53219  22.778  13.588   2.672
88235W        W53220  17.707  30.656  11.085
88236W        W53221   6.183  12.034   1.062
88237W        W53222  28.054  35.612  10.762
88238W        W53223   3.069  19.301  11.185
88239W        W53224  19.295   0.770   0.707
88240W        W53225  23.096  17.764  10.281
88241W        W53226  35.917  44.330   4.625
88242W        W53227  13.511   6.216   1.569
88243W        W53228  39.782  39.797   2.195
88244W        W53229   8.446   3.818  11.924
88245W        W53230  10.630   5.327   4.388
88246W        W53231   2.993   2.000   3.734
88247W        W53232  35.190   0.022   1.145
88248W        W53233  15.847  23.989   5.127
88249W        W53234   5.777   8.562  12.333
88250W        W53235  30.893  40.322   0.466
88251W        W53236   4.418  32.965  11.759
88252W        W53237  31.698   9.555  12.156
88253W        W53238  29.557   5.670  14.932
88254W        W53239  16.751  23.713   3.832
88255W        W53240  31.657  21.532  13.328
88256W        W53241  13.677   4.384   2.730
88257W        W53242  40.572   2.238  14.292
88258W        W53243  25.827  35.818  11.664
88259W        W53244  20.521  30.795  12.448
88260W        W53245  34.382  34.961   0.442
88261W        W53246  34.543  23.088   1.267
88262W        W53247  35.375  27.110  10.766
88263W        W53248   3.817   2.994   0.796
88264W        W53249  28.483  43.224   0.485
88265W        W53250   7.786  24.676  13.885
88266W        W53251  10.351   3.507   4.157
88267W        W53252   0.971   5.493   1.845
88268W        W53253   8.608  40.897   1.408
88269W        W53254  35.400  33.885   0.715
88270W        W53255  16.383  18.495   4.978
88271W        W53256  33.808  13.479   3.782
88272W        W53257  43.154  30.311  11.459
88273W        W53258  10.781  15.844   4.085
88274W        W53259  31.034  27.800  12.440
88275W        W53260   6.856  14.181   2.201
88276W        W53261  14.401  35.975   3.118
88277W        W53262  38.190  28.922   0.096
88278W        W53263  38.925  21.150   3.153
88279W        W53264   7.547   6.916  12.331
88280W        W53265  14.725  16.513   2.690
88281W        W53266  32.005  12.603  10.532
88282W        W53267  20.386  19.835  14.691
88283W        W53268  33.574  36.407   4.202
88284W        W53269  42.792   2.326   4.159
88285W        W53270  14.216  11.895   1.287
88286W        W53271   5.770  32.133  14.883
88287W        W53272   9.453  31.697   3.863
88288W        W53273   1.732   1.301   3.788
88289W        W53274  14.879   0.964  13.711
88290W        W53275   9.106  30.210  13.921
88291W        W53276   7.990  30.921   2.219
88292W        W53277  28.755  30.117   1.182
88293W        W53278  12.073  10.606  10.597
88294W        W53279  25.584   8.684  13.372
88295W        W53280  23.450  24.123   3.276
88296W        W53281  37.976  44.274   1.796
88297W        W53282  39.901  33.868  10.923
88298W        W53283  36.581   3.397   3.522
88299W        W53284  40.433  36.196   3.116
88300W        W53285  17.733  39.462   3.609
88301W        W53286  35.407  18.536   0.268
88302W        W53287   5.860  24.164   0.315
88303W        W53288  21.801  41.524  13.596
88304W        W53289  31.459  43.321   0.825
88305W        W53290  12.269   3.806  10.798
88306W        W53291   3.760  14.219  14.292
88307W        W53292  17.349  24.720   0.811
88308W        W53293  11.784  35.437   4.916
88309W        W53294  22.069  26.737  12.607
88310W        W53295  42.240  27.869  12.509
88311W        W53296  23.366   6.720   1.974
88312W        W53297  25.939  43.398  10.360
88313W        W53298  11.090  17.721  14.089
88314W        W53299  24.916  17.416   4.097
88315W        W53300  13.828  15.789   3.769
88316W        W53301   2.876  39.400  12.085
88317W        W53302   6.859  44.565  14.030
88318W        W53303  41.399   0.362  13.351
88319W        W53304  29.201   8.215  12.986
88320W        W53305  25.196  39.329  11.415
88321W        W53306  25.147  38.263   1.746
88322W        W53307  36.618   9.658   1.255
88323W        W53308   3.648  32.061   3.216
88324W        W53309  11.695  22.012   0.926
88325W        W53310  34.421  31.604  13.986
88326W        W53311  20.179  30.669   4.609
88327W        W53312  28.636  20.955   4.855
88328W        W53313  17.086  11.043   3.979
88329W        W53314  29.376  27.478   2.654
88330W        W53315   4.473  21.631  14.362
88331W        W53316  38.045   6.451   0.696
88332W        W53317  19.850  26.829   4.664
88333W        W53318   8.366  15.045  12.409
88334W        W53319  19.962  23.676   2.298
88335W        W53320   2.339  14.268  14.345
88336W        W53321  25.133   6.885  13.907
88337W        W53322  15.418  10.413   3.457
88338W        W53323  11.783  37.358   0.929
88339W        W53324  11.608   4.756  10.220
88340W        W53325  17.963  15.667  12.617
88341W        W53326  16.522  43.683  14.018
88342W        W53327  22.768  29.677   2.833
88343W        W53328   7.303   7.640   1.828
88344W        W53329   4.465  15.036  13.347
88345W        W53330  36.945  28.658  14.327
88346W        W53331  37.280  10.952  11.890
88347W        W53332  32.441  33.463  10.931
88348W        W53333   1.222  35.861  12.207
88349W        W53334  24.126  35.928   3.329
88350W        W53335  13.220  20.258  10.795
88351W        W53336  23.092  38.391  13.348
88352W        W53337   8.332   5.767  14.504
88353W        W53338  18.415  20.217  13.560
88354W        W53339  11.194  34.167  13.966
88355W        W53340   0.165  15.428  11.556
88356W        W53341  38.804  24.672   3.439
88357W        W53342   9.371  27.056  13.729
88358W        W53343  10.167  19.285  13.080
88359W        W53344  19.664  17.499   1.795
88360W        W53345  21.360   4.412   2.674
88361W        W53346  14.706  10.688   1.261
88362W        W53347  17.171  17.135   2.452
88363W        W53348  30.439   8.326   1.506
88364W        W53349  40.498  23.687   4.163
88365W        W53350   3.858   4.319   2.889
88366W        W53351   6.928   9.647   1.786
88367W        W53352  43.221  40.019   2.747
88368W        W53353  11.829  33.101   4.268
88369W        W53354  28.773  23.782  13.023
88370W        W53355   5.069  43.849  13.177
88371W        W53356   1.773  27.026   2.804
88372W        W53357  11.711  27.524  12.508
88373W        W53358  42.391   4.742  13.371
88374W        W53359   9.679  27.522   0.958
88375W        W53360  30.068   9.859  11.579
88376W        W53361  35.525  36.754   0.842
88377W        W53362  15.838   8.277   4.151
88378W        W53363  17.588  21.464  14.895
88379W        W53364   5.851  14.822   0.349
88380W        W53365  33.107  41.532  13.595
88381W        W53366   2.776  12.052  11.443
88382W        W53367  37.582  41.510  12.910
88383W        W53368   6.912  33.889  12.896
88384W        W53369  41.016  35.560   2.732
88385W        W53370  31.053  13.114  14.776
88386W        W53371  19.602  26.898   4.213
88387W        W53372  37.909  20.346  12.506
88388W        W53373   3.921  24.202  13.854
88389W        W53374  34.444  19.087  13.593
88390W        W53375   2.484  36.050  13.976
88391W        W53376  23.918  16.605  13.859
88392W        W53377  26.614   8.475  13.495
88393W        W53378  24.437  34.523   1.340
88394W        W53379  44.817  34.995   1.318
88395W        W53380   2.054  12.123   2.715
88396W        W53381  35.596  40.744   1.804
88397W        W53382   3.250  18.320  13.732
88398W        W53383   8.414  36.750  14.541
88399W        W53384  41.746  39.179   0.398
88400W        W53385   9.040   4.786  12.899
88401W        W53386  35.424  33.941  14.801
88402W        W53387  12.815  25.660  11.544
88403W        W53388  38.147  33.919   0.192
88404W        W53389   3.892  41.612   1.693
88405W        W53390  31.652   7.135   3.614
88406W        W53391  33.141   9.940  12.016
88407W        W53392  38.001   2.830   2.355
88408W        W53393  35.361  24.383   3.109
88409W        W53394  15.664   4.596   2.295
88410W        W53395  38.633  29.474  12.066
88411W        W53396  21.653  43.989   0.434
88412W        W53397  19.178  36.462   1.900
88413W        W53398  14.117   1.709   3.409
88414W        W53399  26.428  28.662  13.403
88415W        W53400  18.430  31.535   1.872
88416W        W53401  20.952  15.862  13.108
88417W        W53402   2.360  19.617   3.606
88418W        W53403  44.388   8.817  10.493
88419W        W53404  36.091  44.372  10.551
88420W        W53405  25.126  26.040   2.468
88421W        W53406  15.474  21.222  13.156
88422W        W53407  27.412  36.289  12.563
88423W        W53408  34.846  37.784  10.684
88424W        W53409  28.016  39.268   3.775
88425W        W53410  17.141  15.183  10.554
88426W        W53411  30.952  38.635  13.376
88427W        W53412  38.419  13.860  13.495
88428W        W53413  24.172  13.392   4.255
88429W        W53414  12.561  19.923   4.163
88430W        W53415   1.291  31.931   1.660
88431W        W53416  13.093  11.328  13.588
88432W        W53417  35.237   4.205  12.403
88433W        W53418  25.477   3.896   2.194
88434W        W53419  22.210  31.091   3.796
88435W        W53420  28.198  27.070   1.346
88436W        W53421  16.445   7.790   4.525
88437W        W53422   4.882   9.588   4.120
88438W        W53423   6.996  40.830  13.933
88439W        W53424   5.224  10.131   2.113
88440W        W53425  23.914  44.995   1.387
88441W        W53426  17.605  42.764   3.098
88442W        W53427   6.630  41.528  11.889
88443W        W53428  26.270  13.702  11.224
88444W        W53429  38.538   4.240   0.668
88445W        W53430   6.353  35.440  11.603
88446W        W53431  16.342  34.015   1.269
88447W        W53432  39.024  44.262  11.195
88448W        W53433  37.336   7.786  14.012
88449W        W53434  34.414  40.081   3.906
88450W        W53435  37.822  22.317   0.769
88451W        W53436  24.173  16.572   0.678
88452W        W53437   2.488  36.610   0.790
88453W        W53438  16.629  10.554  12.661
88454W        W53439  13.464   7.928   3.675
88455W        W53440  33.537  41.053   4.089
88456W        W53441   4.831   6.965  10.782
88457W        W53442  13.227  33.070   3.206
88458W        W53443  30.578  41.046   3.780
88459W        W53444  30.667  13.338  10.821
88460W        W53445  30.385  33.924   3.358
88461W        W53446  17.254  23.971   0.366
88462W        W53447  27.194  15.755   0.690
88463W        W53448  29.439  39.522   3.429
88464W        W53449  10.764   0.990  14.746
88465W        W53450  28.402  35.483   3.326
88466W        W53451  21.221  34.431   3.920
88467W        W53452   0.684   9.381   1.888
88468W        W53453  44.370  43.274   5.099
88469W        W53454   3.854  33.865   4.505
88470W        W53455  26.409  25.971   3.723
88471W        W53456  19.233   8.743   3.143
88472W        W53457  33.379  12.645  13.602
88473W        W53458  29.981   7.556  11.446
88474W        W53459  21.708  19.627   2.822
88475W        W53460  22.665  36.417  11.574
88476W        W53461  33.072  25.573   0.291
88477W        W53462  36.377  37.453   3.245
88478W        W53463  17.758  37.880  14.043
88479W        W53464  22.430  32.089   0.976
88480W        W53465  14.285  30.993  11.492
88481W        W53466  44.966  14.462   4.572
88482W        W53467  36.767  32.182   4.099
88483W        W53468  24.540   8.580  10.488
88484W        W53469   0.325   6.025   0.292
88485W        W53470  27.033  29.290  11.601
88486W        W53471  22.648  35.296  11.000
88487W        W53472  24.743  43.305  11.159
88488W        W53473  39.638  27.578   4.004
88489W        W53474   2.934  36.596   1.061
88490W        W53475   1.574   5.303   1.828
88491W        W53476  34.978  14.258   4.055
88492W        W53477  13.658  32.979  11.931
88493W        W53478   8.184   2.806  10.650
88494W        W53479  43.602  10.239  14.768
88495W        W53480  16.757  22.769   3.287
88496W        W53481   3.675  17.056  12.003
88497W        W53482  21.639  18.209   0.292
88498W        W53483  43.831  20.055   2.150
88499W        W53484  27.574  25.084   4.614
88500W        W53485  12.872  16.288  13.618
88501W        W53486  37.991  18.746   3.213
88502W        W53487  10.780  28.989   0.914
88503W        W53488  19.748  14.556  13.985
88504W        W53489   3.784   0.902  12.450
88505W        W53490  26.469   4.451  10.723
88506W        W53491   1.408   3.330  11.531
88507W        W53492  34.349   9.786   1.917
88508W        W53493  28.600  34.686   2.269
88509W        W53494  11.767  40.946  10.975
88510W        W53495   1.308  43.309   4.987
88511W        W53496  36.148   6.697  12.979
88512W        W53497   9.319  20.095  13.433
88513W        W53498   0.541  30.139  14.808
88514W        W53499  40.636  42.473   3.321
88515W        W53500   1.362  24.937   2.339
88516W        W53501  14.116  39.235  11.700
88517W        W53502  21.414  12.872   4.165
88518W        W53503   2.239  10.990  13.354
88519W        W53504  34.893  19.509  12.934
88520W        W53505  32.430   6.332  12.475
88521W        W53506   4.895   2.901   3.348
88522W        W53507  12.534  30.386  11.704
88523W        W53508  15.156  16.166  14.386
88524W        W53509  32.267  37.368   0.213
88525W        W53510   0.382  24.460   5.408
88526W        W53511   4.572  43.048   5.043
88527W        W53512  43.766  43.388   4.245
88528W        W53513  11.727  17.682  12.985
88529W        W53514  43.957   0.730  10.745
88530W        W53515   9.425  29.842  13.466
88531W        W53516  33.680  11.834  12.003
88532W        W53517   9.092  36.235  10.841
88533W        W53518  15.621  25.203   3.868
88534W        W53519   0.048  34.012   1.759
88535W        W53520  21.488  33.611  11.177
88536W        W53521  26.046  10.714  10.674
88537W        W53522  12.654   7.563   2.796
88538W        W53523  22.464  10.968  11.142
88539W        W53524   4.209  29.125   3.196
88540W        W53525  42.951  33.078  14.480
88541W        W53526  28.872  29.400  12.853
88542W        W53527   4.858   6.431  12.142
88543W        W53528  32.533  28.044  11.118
88544W        W53529   3.172   5.242  12.082
88545W        W53530  11.945  14.298  14.425
88546W        W53531   3.387  10.682   1.688
88547W        W53532   7.004  10.008  12.964
88548W        W53533  38.592   7.370   2.328
88549W        W53534   2.816  11.310  14.435
88550W        W53535  16.884   3.939   0.915
88551W        W53536  32.688  10.627  12.939
88552W        W53537   1.476  32.769   2.737
88553W        W53538   9.315   6.486   1.634
88554W        W53539   6.255   0.106   4.640
88555W        W53540  32.045  32.425   0.438
88556W        W53541  26.446   9.220  12.322
88557W        W53542   8.445   8.763   0.438
88558W        W53543  39.307   2.446   4.155
88559W        W53544  27.061   0.964   3.157
88560W        W53545  28.581  35.020   3.465
88561W        W53546  13.297  29.101   3.778
88562W        W53547  26.410  21.694  10.527
88563W        W53548   8.942  40.753   1.774
88564W        W53549  24.233  39.057  13.731
88565W        W53550  40.608  26.622  14.259
88566W        W53551  34.445  27.947  13.590
88567W        W53552   5.617   7.840   1.330
88568W        W53553  14.339  31.011  13.916
88569W        W53554  17.381   9.831   4.308
88570W        W53555  16.832  33.938  14.942
88571W        W53556  17.031   6.876  12.457
88572W        W53557  33.272  29.132  11.594
88573W        W53558  25.525  25.729   3.098
88574W        W53559  39.304  10.510   1.970
88575W        W53560   0.766   2.947   4.087
88576W        W53561  15.857  38.854  14.962
88577W        W53562   6.519   8.831   3.580
88578W        W53563  22.165  41.489  11.001
88579W        W53564  42.284  43.533  12.500
88580W        W53565  36.922  19.258   2.786
88581W        W53566   9.266  22.113   0.902
88582W        W53567  29.762  39.907   1.044
88583W        W53568  42.376  42.700   0.314
88584W        W53569  31.677  28.615   2.264
88585W        W53570  32.331  34.584  13.990
88586W        W53571   1.300  30.125  11.006
88587W        W53572  18.321  29.462   0.884
88588W        W53573  43.913  27.852  10.530
88589W        W53574  38.681  10.691  10.474
88590W        W53575  44.915  16.556   3.723
88591W        W53576  20.289  38.838  10.945
88592W        W53577  16.145  28.008   3.499
88593W        W53578  14.311  41.305  10.767
88594W        W53579   0.032  29.622   3.325
88595W        W53580  19.675  40.051  13.088
88596W        W53581  31.367  28.162  13.023
88597W        W53582  13.348  29.598   1.370
88598W        W53583  43.444  12.412  12.539
88599W        W53584   8.472  42.537  11.595
88600W        W53585  37.438  22.256  11.998
88601W        W53586  33.729   0.238  10.112
88602W        W53587  16.550  43.367  11.508
88603W        W53588   5.463   0.181  12.010
88604W        W53589  32.623  39.189  12.063
88605W        W53590   3.299  13.060  12.997
88606W        W53591  25.259  25.892  14.431
88607W        W53592  42.963  39.977  12.874
88608W        W53593  20.350   6.263  11.767
88609W        W53594   2.622  41.310  14.373
88610W        W53595  20.836  35.619  12.002
88611W        W53596  41.795  33.558   1.738
88612W        W53597  32.344   7.261   1.805
88613W        W53598  14.040  41.772  14.952
88614W        W53599  13.595  38.653  13.539
88615W        W53600  37.577  19.963  14.769
88616W        W53601  31.605   6.233   4.089
88617W        W53602   5.998  14.342   0.508
88618W        W53603  39.579   4.440  13.199
88619W        W53604  20.286  24.172   1.495
88620W        W53605  32.447  38.525  14.024
88621W        W53606  33.095  12.578   0.458
88622W        W53607  31.660  38.400   4.200
88623W        W53608  12.590  12.939  11.069
88624W        W53609  23.675  40.840   3.519
88625W        W53610  38.487  15.311  14.985
88626W        W53611   8.623  20.980  12.576
88627W        W53612  20.496  43.855  14.729
88628W        W53613  31.960  38.362   0.980
88629W        W53614  36.597   1.498   4.012
88630W        W53615  44.446  12.757  13.457
88631W        W53616  11.152  40.773   0.358
88632W        W53617   1.916  26.603   1.243
88633W        W53618  40.275  17.661  13.536
88634W        W53619   7.089  22.211  11.572
88635W        W53620  20.251   7.894   3.274
88636W        W53621  44.231  43.168  14.341
88637W        W53622  41.413  16.913  11.497
88638W        W53623  26.891  41.094   3.222
88639W        W53624   2.495  16.675  11.000
88640W        W53625   4.066  33.468   4.764
88641W        W53626  44.371  14.919  12.125
88642W        W53627  42.373  44.189   5.059
88643W        W53628  19.190  10.281   4.622
88644W        W53629  38.586  18.513   9.752
88645W        W53630   2.216  21.096  10.690
88646W        W53631  33.012  10.762   3.285
88647W        W53632  25.982  12.881   0.278
88648W        W53633  37.381  21.486  11.402
88649W        W53634   7.886  18.196   0.219
88650W        W53635  44.273  18.363  12.828
88651W        W53636  34.950  32.002   1.293
88652W        W53637  34.752  11.210   4.402
88653W        W53638  28.353  34.344  11.672
88654W        W53639  42.462  18.168   3.209
88655W        W53640   9.713   8.438   4.919
88656W        W53641   9.412   4.699   2.157
88657W        W53642  31.635  33.146  10.460
88658W        W53643  32.241   4.991   0.137
88659W        W53644  38.357  38.745  14.791
88660W        W53645  22.824  25.081   0.058
88661W        W53646  20.727   0.623   2.170
88662W        W53647  32.941  43.007   3.720
88663W        W53648   0.029   1.939   0.064
88664W        W53649  34.938   2.459   1.265
88665W        W53650  31.527  13.657   1.004
88666W        W53651  31.551   8.411  11.167
88667W        W53652  25.459  42.600  14.711
88668W        W53653  22.082  34.282  14.413
88669W        W53654  11.387  38.839   0.792
88670W        W53655  24.655  38.588   0.409
88671W        W53656  42.853   8.845  11.677
88672W        W53657  32.179  15.921   0.168
88673W        W53658   7.372  43.757  13.033
88674W        W53659   8.413  42.348   4.226
88675W        W53660  14.384  42.779   3.292
88676W        W53661   4.707  16.698   2.879
88677W        W53662  20.180  42.350  13.947
88678W        W53663  39.130  43.724   3.257
88679W        W53664   9.722  16.277  14.267
88680W        W53665  44.161  35.347  13.459
88681W        W53666  14.107  35.599   0.262
88682W        W53667  17.513  16.304  12.718
88683W        W53668  24.178  20.876   9.970
88684W        W53669  30.373  12.382  10.995
88685W        W53670   7.472  30.300   3.315
88686W        W53671  15.843  12.464  10.367
88687W        W53672  42.531  29.221  14.749
88688W        W53673  14.919  12.601  13.939
88689W        W53674  24.660  41.881   4.528
88690W        W53675  44.449  39.105   0.863
88691W        W53676   5.696  26.921  11.645
88692W        W53677  26.493   1.152  14.790
88693W        W53678  30.216  42.129  12.139
88694W        W53679  13.142  39.386   2.749
88695W        W53680  30.487  32.360  10.747
88696W        W53681  13.685  20.239  12.196
88697W        W53682  30.199   3.347   3.175
88698W        W53683  44.770   8.371  13.338
88699W        W53684   2.766  18.232  13.568
88700W        W53685  22.318  16.716  10.825
88701W        W53686   6.243  41.661  10.589
88702W        W53687   4.059   9.739  12.166
88703W        W53688  29.218  33.924   1.285
88704W        W53689  19.678  21.511  10.799
88705W        W53690  18.625  30.730  14.148
88706W        W53691   9.247  38.050  11.294
88707W        W53692  17.515  16.283   0.228
88708W        W53693  25.118  18.242   0.786
88709W        W53694   2.161  14.668   3.740
88710W        W53695  17.730  41.867   2.667
88711W        W53696   1.299  27.159  12.146
88712W        W53697   3.708  12.022  10.589
88713W        W53698  32.786   5.851   2.725
88714W        W53699  11.731   3.305  12.322
88715W        W53700  35.882   1.810  10.515
88716W        W53701   1.335  20.717   2.072
88717W        W53702  12.509   8.679  12.186
88718W        W53703  24.531  29.162  13.032
88719W        W53704  24.071  19.160  13.873
88720W        W53705  40.877   4.631  12.037
88721W        W53706  32.987  37.833  11.560
88722W        W53707  43.802   4.416  13.858
88723W        W53708   4.929  33.645   1.676
88724W        W53709   6.958  23.696  11.590
88725W        W53710   4.336   5.036   0.425
88726W        W53711   8.755  30.602   3.444
88727W        W53712  37.406  39.910  11.972
88728W        W53713  27.733  24.434  14.942
88729W        W53714   4.348  39.251   1.368
88730W        W53715  31.231  37.422   0.391
88731W        W53716  37.751   0.976  12.411
88732W        W53717  13.740   4.511   4.556
88733W        W53718  20.592  24.524   3.733
88734W        W53719  39.379  30.674  12.365
88735W        W53720   3.678   8.809  11.122
88736W        W53721  20.667  25.326  13.769
88737W        W53722  16.625  44.549   0.035
88738W        W53723  30.103  20.080   1.390
88739W        W53724  25.542  15.269   0.933
88740W        W53725  41.374  35.781  12.379
88741W        W53726  42.521  19.704   1.939
88742W        W53727  32.149  31.649  14.900
88743W        W53728  12.129  28.586   0.686
88744W        W53729  19.534  26.670  13.945
88745W        W53730  16.067   0.178   3.285
88746W        W53731   1.700  17.024   2.264
88747W        W53732  15.647  24.495   0.285
88748W        W53733  30.640  43.444   1.957
88749W        W53734   2.251  37.875  13.028
88750W        W53735  43.347   6.683  14.348
88751W        W53736  31.707  25.101  13.588
88752W        W53737  18.160   7.427  12.850
88753W        W53738  27.679  42.173   1.897
88754W        W53739  28.670  32.695  11.057
88755W        W53740  24.436  37.976   0.393
88756W        W53741  39.852  20.192  13.887
88757W        W53742  14.328  13.394   4.662
88758W        W53743  13.146  33.220  10.724
88759W        W53744   7.842  21.309   0.092
88760W        W53745   7.192  36.409   5.159
88761W        W53746  41.000  27.480   3.724
88762W        W53747   0.890  17.270  13.623
88763W        W53748  22.161  36.429   3.226
88764W        W53749  42.090  14.725   4.337
88765W        W53750  24.297  43.891  13.012
88766W        W53751  12.351  13.324   1.285
88767W        W53752  37.186  36.636  14.840
88768W        W53753  31.936  42.571   2.857
88769W        W53754   2.808  21.186   1.454
88770W        W53755  38.555   0.218   3.650
88771W        W53756   8.088   5.232  12.396
88772W        W53757  43.842  33.770  12.260
88773W        W53758  24.287  21.014  11.551
88774W        W53759  31.127  32.342   0.392
88775W        W53760  26.661   5.956  13.014
88776W        W53761  14.083   9.392   3.691
88777W        W53762  33.066   4.404   4.274
88778W        W53763  40.914  14.057  12.543
88779W        W53764  24.783  43.324  14.997
88780W        W53765  30.919  15.802   4.408
88781W        W53766  42.689  27.637  12.116
88782W        W53767   7.165  20.115  14.014
88783W        W53768  21.251  37.589  13.473
88784W        W53769  16.245  29.300   5.428
88785W        W53770   8.862  13.993   3.762
88786W        W53771  17.573   4.912  13.999
88787W        W53772  13.845  42.291   0.039
88788W        W53773   8.820  43.740   5.101
88789W        W53774   3.466  44.294  13.711
88790W        W53775  39.333  39.753   1.940
88791W        W53776  22.412   3.545  10.663
88792W        W53777  25.379  24.498   4.816
88793W        W53778  13.226  37.733  12.639
88794W        W53779  39.451   5.666   2.300
88795W        W53780  12.247  23.554  11.882
88796W        W53781   3.182   6.365  12.870
88797W        W53782  13.283  38.874  14.810
88798W        W53783  21.159  30.726  12.120
88799W        W53784  33.498  20.190   0.266
88800W        W53785  31.978  16.713  12.412
88801W        W53786   8.934  22.587  11.603
88802W        W53787  13.278  35.069   0.203
88803W        W53788   1.968  27.659  10.766
88804W        W53789   8.359  41.298  11.128
88805W        W53790  12.086   5.329   1.724
88806W        W53791  37.727  34.565  14.620
88807W        W53792  29.475  39.281  11.971
88808W        W53793  38.283  32.076  14.530
88809W        W53794  42.576  21.002   3.532
88810W        W53795  18.297  42.346  14.734
88811W        W53796  13.317  15.138   1.473
88812W        W53797  27.525  33.633  12.898
88813W        W53798   5.230   0.297  14.019
88814W        W53799   4.779  10.334   1.321
88815W        W53800   1.619  33.536   4.106
88816W        W53801  11.291   1.745  14.465
88817W        W53802  37.810  33.663  10.150
88818W        W53803  38.057   7.635  11.583
88819W        W53804   3.365   8.086  11.944
88820W        W53805  42.965  41.317  12.504
88821W        W53806  34.989   8.431   0.628
88822W        W53807  37.612  19.139   0.418
88823W        W53808  17.994   7.905  12.793
88824W        W53809  23.726   7.893   2.752
88825W        W53810  14.521  21.270   1.522
88826W        W53811   0.377   1.859   3.589
88827W        W53812  41.743   3.510  13.428
88828W        W53813  19.777  30.120   9.599
88829W        W53814  28.187   5.423  14.591
88830W        W53815  42.653  12.136  12.523
88831W        W53816  17.544  38.733   1.168
88832W        W53817  26.497  14.907  10.762
88833W        W53818  12.827  40.994  12.856
88834W        W53819  35.013   9.242  12.898
88835W        W53820  13.888  32.777   4.634
88836W        W53821  17.215  43.425  12.237
88837W        W53822  27.037  28.453   3.160
88838W        W53823  16.329  20.173  10.667
88839W        W53824  17.152   8.657   3.223
88840W        W53825  22.819  37.862   2.155
88841W        W53826   8.274   3.224   0.428
88842W        W53827  14.507  36.354  14.934
88843W        W53828  32.671   2.492  14.279
88844W        W53829   5.934  16.106   2.599
88845W        W53830  14.105   1.368   3.014
88846W        W53831  26.000  29.389   4.021
88847W        W53832  17.461  33.081   1.965
88848W        W53833  11.212  21.804   4.248
88849W        W53834   9.453   1.550  10.840
88850W        W53835  12.668   8.854  11.686
88851W        W53836  18.298  43.675   1.598
88852W        W53837  16.545  37.914   3.596
88853W        W53838   3.352  39.563  10.768
88854W        W53839  15.027  14.348   2.237
88855W        W53840  35.339  28.072  10.782
88856W        W53841  43.723  17.650  13.046
88857W        W53842  19.762  26.398  14.980
88858W        W53843  32.537   3.866  10.530
88859W        W53844  15.197  43.327  14.398
88860W        W53845  34.423  18.514   1.751
88861W        W53846  39.170  17.280   2.897
88862W        W53847   8.129  32.865  11.008
88863W        W53848  11.503  32.353   5.112
88864W        W53849  14.122   3.931   3.510
88865W        W53850  26.452  20.346  10.829
88866W        W53851  13.376   3.397   4.143
88867W        W53852  21.663   9.883   4.557
88868W        W53853   1.714  24.174  11.669
88869W        W53854   0.468  22.305   1.297
88870W        W53855   6.506  21.962  11.111
88871W        W53856  37.461  20.452  14.937
88872W        W53857  16.375  25.665   4.206
88873W        W53858  21.963  22.100   1.012
88874W        W53859   9.538  43.523   1.247
88875W        W53860  39.848  34.494  13.342
88876W        W53861  13.749  40.885   1.962
88877W        W53862  12.527  42.062   4.829
88878W        W53863  26.665  17.505  13.036
88879W        W53864  13.763  15.809   1.095
88880W        W53865  11.827  40.260   3.640
88881W        W53866  36.285  37.533   2.722
88882W        W53867   0.774  27.225  13.428
88883W        W53868  22.382   4.753  11.666
88884W        W53869  34.481   4.763   2.360
88885W        W53870  12.576  10.741   4.401
88886W        W53871  25.481  23.485   2.858
88887W        W53872  29.356  14.616  11.565
88888W        W53873  41.977  43.499   2.285
88889W        W53874   1.971  40.527   4.503
88890W        W53875  35.772   5.480  10.610
88891W        W53876  20.183  10.185   1.946
88892W        W53877  21.121  15.663   2.751
88893W        W53878  35.817   0.400   3.779
88894W        W53879  35.389  31.032   0.381
88895W        W53880  18.034  16.646  10.196
88896W        W53881  37.802  34.965   1.447
88897W        W53882  38.459  22.078  10.560
88898W        W53883  44.999  33.986   1.223
88899W        W53884   5.771  39.094   2.160
88900W        W53885  11.621  41.890   1.785
88901W        W53886  39.546  12.656  11.196
88902W        W53887  14.230  26.843  11.157
88903W        W53888  15.773  43.730  12.365
88904W        W53889  13.341  42.837  12.062
88905W        W53890  29.503  27.134  11.825
88906W        W53891  16.003  24.168  14.840
88907W        W53892  13.673   2.957  12.018
88908W        W53893  12.869  42.835   0.974
88909W        W53894  42.072  16.537  14.640
88910W        W53895  20.699  22.006   0.395
88911W        W53896  33.126  25.673  11.517
88912W        W53897  17.375  25.770  12.995
88913W        W53898  37.029  38.345   4.240
88914W        W53899  44.431  12.913  10.039
88915W        W53900   7.548  30.011   4.522
88916W        W53901  37.323  26.148   1.081
88917W        W53902  34.510  37.644   0.319
88918W        W53903  15.846  23.773  10.237
88919W        W53904   6.609  42.179   3.595
88920W        W53905  42.956  44.492  11.539
88921W        W53906  28.167  36.490  12.071
88922W        W53907  16.468  12.100   0.070
88923W        W53908  17.053  10.404   3.259
88924W        W53909  21.695   2.772  14.303
88925W        W53910  11.395  18.335  10.506
88926W        W53911  15.337   4.181  10.590
88927W        W53912  35.936  19.629   4.710
88928W        W53913  21.612  17.142   3.205
88929W        W53914   2.535   5.127  10.599
88930W        W53915  41.735  40.683  14.374
88931W        W53916   4.191  24.992  14.375
88932W        W53917  43.839  19.066   0.404
88933W        W53918  28.479   8.743   2.351
88934W        W53919   6.246   8.777   4.558
88935W        W53920   6.310  26.828   0.934
88936W        W53921  25.114  20.569   0.392
88937W        W53922  36.537  42.899  10.435
88938W        W53923  14.147  41.315  13.085
88939W        W53924   3.754  39.507   3.629
88940W        W53925  44.735   0.265  14.056
88941W        W53926  19.984  35.084  12.243
88942W        W53927  26.307  32.102   1.033
88943W        W53928  12.706  41.234   2.706
88944W        W53929  10.880  27.632  14.540
88945W        W53930  13.240  37.792   4.809
88946W        W53931  14.811  41.911   1.326
88947W        W53932  17.230  22.312   0.977
88948W        W53933   5.463  20.463   0.406
88949W        W53934  42.717   6.136   2.693
88950W        W53935  38.908  15.288  11.002
88951W        W53936  37.379  38.412   4.749
88952W        W53937  10.740  35.157   0.671
88953W        W53938  14.320  22.803  13.459
88954W        W53939   2.779  41.406   3.776
88955W        W53940   5.711  19.212   1.375
88956W        W53941   3.924  33.034   1.493
88957W        W53942  13.200   8.767  13.395
88958W        W53943  33.787   6.714  14.515
88959W        W53944  15.662  36.423   2.710
88960W        W53945  12.235  34.836  12.087
88961W        W53946  43.930  40.705  11.356
88962W        W53947  22.678  17.106   3.626
88963W        W53948   0.156   5.747  11.171
88964W        W53949  37.881  38.056   4.069
88965W        W53950   6.881  19.289   3.285
88966W        W53951  27.212   4.366  12.006
88967W        W53952  38.834  14.648   3.020
88968W        W53953   1.977  22.681   1.766
88969W        W53954  16.293  12.260  10.579
88970W        W53955  13.576  13.791  14.469
88971W        W53956  25.807   7.686  10.964
88972W        W53957  23.924   0.922  14.062
88973W        W53958   7.967  26.144  14.113
88974W        W53959  16.647  18.522  10.281
88975W        W53960  31.156   9.843   1.198
88976W        W53961  33.044  19.194   0.278
88977W        W53962  39.006  25.235  14.507
88978W        W53963  29.922  34.597  11.189
88979W        W53964   0.222  12.107   0.318
88980W        W53965  16.816  42.359   4.896
88981W        W53966   1.434  31.648  13.809
88982W        W53967   9.392  39.192  10.559
88983W        W53968   6.175  16.329  11.692
88984W        W53969  40.439   9.803  12.287
88985W        W53970   7.225  26.606  14.150
88986W        W53971   5.908   9.826   1.703
88987W        W53972   0.718   0.976  14.333
88988W        W53973  27.095  44.059   5.067
88989W        W53974  31.475  19.331  14.857
88990W        W53975   7.673  22.585   0.336
88991W        W53976  43.099  37.965   4.170
88992W        W53977   4.779  35.495   0.822
88993W        W53978  10.374   9.500  14.365
88994W        W53979  34.644  17.149  12.858
88995W        W53980  32.981  43.820  14.392
88996W        W53981  23.559  10.155   4.099
88997W        W53982  31.562   9.439   0.330
88998W        W53983  16.001  23.272   4.270
88999W        W53984  25.081  12.365   1.725
89000W        W53985  22.057  20.701  13.352
89001W        W53986  13.552  10.290   4.597
89002W        W53987  21.263  37.455  11.492
89003W        W53988  27.532  41.338   0.637
89004W        W53989  34.082  35.541  12.395
89005W        W53990  13.415  42.903  13.046
89006W        W53991  24.590  34.450  11.900
89007W        W53992   4.226  22.343  11.997
89008W        W53993  40.835   6.136  12.059
89009W        W53994  17.881  30.651   4.046
89010W        W53995  30.140  42.077  13.480
89011W        W53996  44.982  41.835   4.545
89012W        W53997  34.819   3.454  11.869
89013W        W53998  20.194  21.253  13.734
89014W        W53999  31.058  43.987   5.084
89015W        W54000  24.755  26.292   1.290
89016W        W54001  39.246  35.908   2.665
89017W        W54002  43.881   4.922  11.315
89018W        W54003  40.514  33.378   0.339
89019W        W54004   9.111  25.177  12.060
89020W        W54005  31.572  17.354  12.342
89021W        W54006  26.371  44.577  12.669
89022W        W54007  13.076   8.257  13.424
89023W        W54008   6.690  35.914   4.634
89024W        W54009  21.425  36.864   4.972
89025W        W54010  30.204  22.623   0.793
89026W        W54011  18.383   2.102  14.721
89027W        W54012   3.497  37.499  12.151
89028W        W54013  14.227   7.292  11.171
89029W        W54014   2.496   8.928   9.857
89030W        W54015  32.308  12.940  14.914
89031W        W54016  28.017  36.629  14.441
89032W        W54017  23.263  28.212  14.530
89033W        W54018  13.978  22.109   0.044
89034W        W54019   6.612  42.431   2.272
89035W        W54020  23.578  20.244   4.351
89036W        W54021   0.551  21.519   3.350
89037W        W54022  28.671  35.092  11.175
89038W        W54023   5.436  36.164  10.645
89039W        W54024  26.327  28.651   3.663
89040W        W54025  10.418  17.331   3.542
89041W        W54026  24.278   0.299   2.734
89042W        W54027   3.549   6.066  13.124
89043W        W54028  42.182   6.442   1.293
89044W        W54029  38.131   9.687   3.407
89045W        W54030   6.150  26.576   3.407
89046W        W54031  24.598  37.370   0.723
89047W        W54032  35.506  42.343  12.137
89048W        W54033  27.517  22.148   4.217
89049W        W54034   4.629  21.683  12.147
89050W        W54035   8.937  11.369   0.626
89051W        W54036  41.759  30.556  10.904
89052W        W54037   9.259  24.989   0.908
89053W        W54038  15.626  42.746   2.231
89054W        W54039  21.721  25.103   2.102
89055W        W54040   6.002  19.246   3.640
89056W        W54041   4.716  31.861  14.855
89057W        W54042  32.385  24.076   1.448
89058W        W54043  12.581  35.020   0.848
89059W        W54044   3.891  36.901  12.591
89060W        W54045  42.705  28.550  13.386
89061W        W54046  27.105  10.739   3.151
89062W        W54047  42.962  18.600   3.678
89063W        W54048   3.621  18.524   4.697
89064W        W54049   5.265  30.310   3.855
89065W        W54050  11.118  18.012   1.332
89066W        W54051   5.117  37.431  10.695
89067W        W54052  15.532  34.030  12.356
89068W        W54053  27.879  39.767   4.910
89069W        W54054   1.491   8.872   0.752
89070W        W54055  38.812  30.956   1.287
89071W        W54056   6.277  44.403   4.111
89072W        W54057   1.806  34.428   2.283
89073W        W54058  15.190   2.398  11.601
89074W        W54059  27.155  35.375   2.151
89075W        W54060  25.424  39.417  13.625
89076W        W54061  15.865  15.680  14.371
89077W        W54062  21.161  37.454  13.972
89078W        W54063  29.633   0.996  13.493
89079W        W54064  17.166  42.970  12.517
89080W        W54065   2.901  23.780  13.795
89081W        W54066  40.122  27.443   0.430
89082W        W54067  37.986   4.949  13.974
89083W        W54068  32.957   2.367   3.161
89084W        W54069  14.689   7.673   4.576
89085W        W54070  20.969  24.453   2.108
89086W        W54071  13.252   6.822   1.742
89087W        W54072  33.112  33.531   0.376
89088W        W54073  26.421  41.509   1.873
89089W        W54074  36.402  22.787  10.342
89090W        W54075  28.909  14.441   5.330
89091W        W54076  12.018   7.470  11.933
89092W        W54077  44.866   9.683  13.892
89093W        W54078  26.680  34.945   0.968
89094W        W54079  16.838  32.903  12.333
89095W        W54080   1.434  12.325  12.406
89096W        W54081  29.184  23.661   3.215
89097W        W54082   9.376  13.326   0.437
89098W        W54083  14.182   1.990   1.589
89099W        W54084  33.038  17.885  11.925
89100W        W54085  36.626  19.518  10.974
89101W        W54086  38.552   0.616  11.266
89102W        W54087  18.693   4.032   2.277
89103W        W54088  39.429  13.602   1.449
89104W        W54089  23.012  28.688   3.759
89105W        W54090  34.772  38.139   1.446
89106W        W54091  35.635  28.811  13.489
89107W        W54092   0.877  40.341  12.536
89108W        W54093   3.206   8.148  12.773
89109W        W54094  37.141  33.476  12.939
89110W        W54095  18.577  19.131   2.823
89111W        W54096  41.361  35.562   0.251
89112W        W54097  35.907  13.658  14.386
89113W        W54098   1.790   6.021   3.760
89114W        W54099   5.179   2.293  11.766
89115W        W54100  13.624   7.666   1.780
89116W        W54101  15.235  41.104   0.454
89117W        W54102  13.010   5.332  13.327
89118W        W54103  44.460  14.183  14.909
89119W        W54104  18.997   3.863   5.130
89120W        W54105  11.744  10.221  14.924
89121W        W54106  27.631  23.146   3.795
89122W        W54107   5.121  14.091  10.939
89123W        W54108  11.466  24.814   0.682
89124W        W54109  36.887  24.695  11.348
89125W        W54110  26.708  44.166   4.163
89126W        W54111  15.183  32.388  12.426
89127W        W54112  40.788  15.316  14.894
89128W        W54113  24.474  32.691   3.177
89129W        W54114   4.981  40.427   0.935
89130W        W54115   8.907  30.347   4.634
89131W        W54116  38.202  32.318   3.192
89132W        W54117   8.772  22.542   4.513
89133W        W54118  43.148   7.971  13.872
89134W        W54119   2.188  34.083  12.497
89135W        W54120  40.255  10.178  14.430
89136W        W54121   5.294  26.553   4.667
89137W        W54122  34.933   2.009   4.481
89138W        W54123   3.264   2.018   3.279
89139W        W54124  26.596   8.595   4.177
89140W        W54125  31.051  39.003   2.828
89141W        W54126   1.915  10.450  11.185
89142W        W54127  44.479  15.409  12.063
89143W        W54128  14.121  33.046  13.086
89144W        W54129  26.182  24.040  13.522
89145W        W54130  23.009  39.334   3.392
89146W        W54131  14.098   4.993   2.746
89147W        W54132   8.391  44.646   2.110
89148W        W54133  25.158  37.258   0.242
89149W        W54134  40.989  41.103   2.685
89150W        W54135  34.505  39.358   0.869
89151W        W54136   3.353   9.859   2.043
89152W        W54137  24.873  44.413  10.711
89153W        W54138  11.858  39.149   2.227
89154W        W54139   9.674  40.097   1.279
89155W        W54140  19.683  18.742   9.692
89156W        W54141  36.590   3.300  10.497
89157W        W54142  36.772  43.791   1.508
89158W        W54143  26.668   0.432   9.734
89159W        W54144  32.907  41.994  13.442
89160W        W54145   1.710  13.674   0.765
89161W        W54146   4.215  36.547  12.358
89162W        W54147   6.906   7.328   0.259
89163W        W54148   5.801   2.825   3.719
89164W        W54149  39.975  32.878   3.759
89165W        W54150  43.761   7.957   2.827
89166W        W54151   3.324  39.221   2.942
89167W        W54152  44.980  38.482  14.520
89168W        W54153  15.199  42.308  12.622
89169W        W54154  16.033  38.469  12.894
89170W        W54155  35.315  12.473   4.900
89171W        W54156  40.443   0.452   4.623
89172W        W54157  31.554  27.607   2.461
89173W        W54158   9.235  32.010   0.750
89174W        W54159  29.891  38.451   0.807
89175W        W54160  16.836   4.672   2.738
89176W        W54161   8.125  16.684  10.681
89177W        W54162  37.600  43.873   1.110
89178W        W54163  21.694   5.797  11.604
89179W        W54164  19.115  27.943   4.192
89180W        W54165  22.935  36.005  13.543
89181W        W54166  24.614  16.274  13.479
89182W        W54167  28.944  36.819   2.764
89183W        W54168   8.618  25.379   4.630
89184W        W54169  39.729  10.615   1.701
89185W        W54170  34.856  16.080  11.984
89186W        W54171   2.421  44.687   0.940
89187W        W54172  25.904  21.821  12.917
89188W        W54173  30.357  24.430  14.953
89189W        W54174  12.165  36.857   3.774
89190W        W54175  31.383  28.541   0.480
89191W        W54176  20.462  13.111   4.370
89192W        W54177  31.828  29.945  12.111
89193W        W54178   4.979  19.294   3.587
89194W        W54179  36.651  30.024  14.242
89195W        W54180   4.344  10.057   1.216
89196W        W54181   3.323   4.830   0.348
89197W        W54182  21.799  15.999   0.741
89198W        W54183  29.028  19.030  11.087
89199W        W54184  34.979  36.430   3.645
89200W        W54185  13.606  35.401  11.930
89201W        W54186  39.050  13.397  14.534
89202W        W54187  13.307  17.584  13.133
89203W        W54188   2.679   5.328   0.834
89204W        W54189  14.668  11.092  14.353
89205W        W54190  37.473  44.511   3.869
89206W        W54191  43.511  10.957   0.903
89207W        W54192   8.565  25.777   3.316
89208W        W54193  17.847  10.539  14.567
89209W        W54194  44.786  23.243  13.882
89210W        W54195  35.950   2.142   0.388
89211W        W54196  38.521  17.411   3.420
89212W        W54197  15.779   7.345  12.437
89213W        W54198   3.852  27.911  14.438
89214W        W54199  38.912  36.594  10.770
89215W        W54200  17.830  21.452  12.205
89216W        W54201  20.942   3.099  11.666
89217W        W54202  35.514  41.345  11.859
89218W        W54203  20.757  31.434   3.290
89219W        W54204  15.868  35.688  14.933
89220W        W54205  19.021  18.260   0.921
89221W        W54206   3.891  25.952   4.341
89222W        W54207  37.325  41.408   2.670
89223W        W54208  25.111   3.768   3.191
89224W        W54209   8.679   8.230  14.430
89225W        W54210   2.781  25.052   2.036
89226W        W54211  44.522  36.324   2.332
89227W        W54212  44.022  21.253   2.759
89228W        W54213  17.426  42.470  12.656
89229W        W54214   7.016  44.409   3.230
89230W        W54215  30.509  26.018   0.005
89231W        W54216  43.315  21.278   4.640
89232W        W54217  37.991  14.797   0.313
89233W        W54218  42.708  21.106  11.080
89234W        W54219   7.656  35.964  14.007
89235W        W54220   9.994  27.951   1.063
89236W        W54221  27.130  17.300  13.884
89237W        W54222  10.911  33.743  12.629
89238W        W54223  20.221  44.988  13.881
89239W        W54224  23.423  38.805  12.309
89240W        W54225  41.521  25.814  14.134
89241W        W54226  14.407  41.256  14.917
89242W        W54227   4.497  36.243  12.071
89243W        W54228  21.247  20.664   2.069
89244W        W54229  35.927  41.119   4.269
89245W        W54230  39.373   1.573  10.719
89246W        W54231   6.740  44.319   2.788
89247W        W54232  33.652  34.589  11.208
89248W        W54233  24.182   9.518  11.339
89249W        W54234  37.906  25.003  13.397
89250W        W54235  44.885  36.455  13.553
89251W        W54236  38.492  29.443   4.109
89252W        W54237  14.543  13.850  12.332
89253W        W54238  23.154  13.133  11.975
89254W        W54239  39.309  41.777   0.941
89255W        W54240  23.624  31.847  14.480
89256W        W54241  14.530  11.814  13.410
89257W        W54242  12.897  21.787   1.432
89258W        W54243  37.073  26.141   1.924
89259W        W54244  29.908  20.784  11.967
89260W        W54245  43.701   0.854   2.420
89261W        W54246  31.904  20.786   3.121
89262W        W54247   5.724  38.482   2.701
89263W        W54248  39.407   5.738  10.557
89264W        W54249  35.057  28.336   3.174
89265W        W54250  17.189  38.011   4.379
89266W        W54251  23.680  12.870   1.714
89267W        W54252  36.480  25.369  11.443
89268W        W54253  19.029  34.446   1.790
89269W        W54254  35.010  24.131  13.039
89270W        W54255  16.501  38.828  10.616
89271W        W54256  20.656  31.057   0.715
89272W        W54257  26.170   6.876  10.358
89273W        W54258  30.785  11.167  13.525
89274W        W54259  43.717  21.621   4.004
89275W        W54260   8.189  11.933   3.215
89276W        W54261  41.918   0.273   4.644
89277W        W54262  28.734  23.349   0.309
89278W        W54263   7.197  28.136  11.609
89279W        W54264   1.271  38.810   2.972
89280W        W54265  17.078  41.996  14.346
89281W        W54266   6.187  19.673  14.908
89282W        W54267  21.384  32.236   2.688
89283W        W54268  24.238  27.041  13.277
89284W        W54269   0.937  33.806   1.629
89285W        W54270  25.614   6.430   4.484
89286W        W54271   1.982  37.074  14.770
89287W        W54272  13.517  35.029   4.288
89288W        W54273  43.360  16.674  14.793
89289W        W54274  29.727  13.756  14.464
89290W        W54275  21.636   2.779   4.286
89291W        W54276  42.411  43.328   4.120
89292W        W54277  38.846  17.132  10.046
89293W        W54278  21.096   8.806  14.051
89294W        W54279  23.164  34.617   0.812
89295W        W54280  42.265  39.833  12.079
89296W        W54281  22.943  34.361   2.382
89297W        W54282  10.782  12.234  11.142
89298W        W54283   4.329  42.322  10.686
89299W        W54284  44.315  15.227  11.612
89300W        W54285  18.386  33.034   2.810
89301W        W54286   3.384  16.468  12.490
89302W        W54287  38.490   8.149  11.043
89303W        W54288  14.608  18.145   4.173
89304W        W54289  34.200  24.803  11.142
89305W        W54290  36.059   7.391  11.079
89306W        W54291   7.631  16.480   3.410
89307W        W54292  18.166  10.398   1.764
89308W        W54293  43.940  38.763  11.708
89309W        W54294  37.064  16.482   2.762
89310W        W54295  20.631  32.815  13.946
89311W        W54296  19.051  17.216  10.061
89312W        W54297  25.111  25.583   1.727
89313W        W54298   0.985   4.246   3.646
89314W        W54299  44.394  12.481   2.248
89315W        W54300  20.293  37.442  14.447
89316W        W54301   7.151  25.060   2.688
89317W        W54302   0.929  44.675  12.447
89318W        W54303   7.014   4.457  10.380
89319W        W54304  21.723  42.247  11.057
89320W        W54305   7.851  10.459   3.588
89321W        W54306  28.793   7.430  14.297
89322W        W54307  27.447  34.400  13.947
89323W        W54308   4.869  12.848   2.457
89324W        W54309   6.827  23.463  12.586
89325W        W54310  38.066  16.183  10.450
89326W        W54311  18.124   7.861   2.212
89327W        W54312  27.871  12.262  11.013
89328W        W54313  24.001  44.280  10.479
89329W        W54314   7.175   1.939   5.011
89330W        W54315  11.294   9.724  11.544
89331W        W54316   9.073  44.432  10.738
89332W        W54317  27.165   8.770  14.286
89333W        W54318   9.003  17.165  10.398
89334W        W54319   4.882  17.019  13.893
89335W        W54320  34.424  14.782   4.698
89336W        W54321  19.723  30.078   2.311
89337W        W54322   6.757  11.355   4.060
89338W        W54323  17.478  18.439   3.060
89339W        W54324  22.781  12.120   3.670
89340W        W54325  21.884  22.155  14.559
89341W        W54326  36.362  15.683  11.630
89342W        W54327  36.139   4.404   0.816
89343W        W54328  35.272   4.150   1.854
89344W        W54329   7.979  26.471   1.366
89345W        W54330   2.511  10.399   1.320
89346W        W54331  41.891  16.761  13.624
89347W        W54332  10.403  30.141   0.796
89348W        W54333  18.825  13.542   4.121
89349W        W54334   2.011  17.144   3.655
89350W        W54335   2.200  10.920   2.383
89351W        W54336  38.042  17.492  11.982
89352W        W54337  12.411  40.848   1.362
89353W        W54338   2.846  36.341  14.227
89354W        W54339  29.779  25.039   0.529
89355W        W54340  40.863  10.381   4.547
89356W        W54341  21.144  38.007  14.915
89357W        W54342  24.081  39.980  12.573
89358W        W54343  25.101  26.122   2.990
89359W        W54344  10.159  25.612   2.669
89360W        W54345  29.968  14.820   3.192
89361W        W54346   3.298   6.262  10.707
89362W        W54347  21.635  29.825  14.356
89363W        W54348  37.272   6.000  11.761
89364W        W54349  32.156  10.630  13.130
89365W        W54350   5.599  39.898   4.598
89366W        W54351  36.853  11.355  14.947
89367W        W54352   4.137  19.578   2.805
89368W        W54353  38.587  16.496   4.598
89369W        W54354  21.553  16.538  12.891
89370W        W54355   9.837  43.227  13.457
89371W        W54356   9.797  17.403  11.642
89372W        W54357  22.823  21.216  13.417
89373W        W54358  14.244  11.952   2.219
89374W        W54359  24.233  32.943  11.398
89375W        W54360  37.383  12.422   4.330
89376W        W54361  31.928   2.024   2.292
89377W        W54362  17.264  44.760   2.049
89378W        W54363   6.785  38.458   3.827
89379W        W54364  33.062   1.797  12.422
89380W        W54365  10.319  21.331  11.146
89381W        W54366  19.150   7.378   3.338
89382W        W54367  19.656   7.218   4.838
89383W        W54368  17.157  19.524  12.414
89384W        W54369  33.358   3.882   3.409
89385W        W54370  31.877  12.540   4.642
89386W        W54371  18.997  28.986  14.451
89387W        W54372  31.417  44.209  13.105
89388W        W54373   1.240  39.609   1.748
89389W        W54374  10.948  14.780  13.317
89390W        W54375  17.603  36.235   3.004
89391W        W54376  30.884  16.736   0.249
89392W        W54377  20.177  22.115   0.492
89393W        W54378  20.214  25.055  14.834
89394W        W54379  17.750  27.806  11.993
89395W        W54380  15.444  16.971  11.019
89396W        W54381  38.128  20.619  13.938
89397W        W54382  40.944  22.198   4.216
89398W        W54383   8.173  12.954   0.988
89399W        W54384  26.722  34.120  14.478
89400W        W54385   3.512  17.702  10.404
89401W        W54386  37.430  40.348  12.429
89402W        W54387  34.411   2.390  13.424
89403W        W54388  23.150  28.470   2.529
89404W        W54389   2.534  28.130   4.622
89405W        W54390   5.481   1.966  14.535
89406W        W54391   1.710  16.091   2.199
89407W        W54392  38.993  41.774  12.989
89408W        W54393  23.796  37.943   2.173
89409W        W54394  41.427  24.992  12.352
89410W        W54395   8.934   9.756   2.771
89411W        W54396  22.152  39.543   3.915
89412W        W54397  24.462   0.296  12.145
89413W        W54398   4.908  23.839   4.283
89414W        W54399  11.179   4.304   4.898
89415W        W54400  28.173  44.850  11.164
89416W        W54401  24.796   7.135  10.983
89417W        W54402  37.757  37.299   4.691
89418W        W54403   8.187  16.386   0.421
89419W        W54404  24.108  35.300   4.608
89420W        W54405   5.081  27.927  13.310
89421W        W54406  35.222   3.825  13.637
89422W        W54407  16.668   5.382  11.597
89423W        W54408   8.390   6.017  13.780
89424W        W54409  23.009  18.128  10.634
89425W        W54410  32.261  39.465  13.531
89426W        W54411  11.751  25.221  12.416
89427W        W54412  26.509  44.315   3.688
89428W        W54413  31.096  19.443   3.105
89429W        W54414  27.568   5.204  13.293
89430W        W54415  40.264  37.592   2.184
89431W        W54416  27.929  17.790  10.685
89432W        W54417  18.443  10.781  14.583
89433W        W54418  31.368  34.817  13.334
89434W        W54419  18.423  11.863  11.185
89435W        W54420  37.023   6.376  12.038
89436W        W54421  30.883   4.436   2.854
89437W        W54422  31.399  39.053   1.813
89438W        W54423   6.640  21.481   2.308
89439W        W54424  33.886  18.640   2.322
89440W        W54425  31.159  29.147  12.065
89441W        W54426  37.135  13.126  13.885
89442W        W54427  15.337  35.093  14.008
89443W        W54428  31.274  40.085   0.744
89444W        W54429   7.879  38.058   4.784
89445W        W54430  26.997  33.686  14.527
89446W        W54431  14.282  17.319  13.921
89447W        W54432   6.836  15.176  12.521
89448W        W54433  17.739   9.603  10.750
89449W        W54434  12.935  10.119   1.907
89450W        W54435  11.844  22.987  14.836
89451W        W54436  27.974  14.162  13.920
89452W        W54437  27.754  37.797  12.429
89453W        W54438  29.218  26.130   1.497
89454W        W54439   5.478  18.140   0.658
89455W        W54440  20.536  23.116  11.214
89456W        W54441  39.404  35.090   0.834
89457W        W54442   0.428   5.634  13.464
89458W        W54443  22.021   9.632   1.359
89459W        W54444  12.709  18.722  11.716
89460W        W54445  37.919  42.896  12.065
89461W        W54446  21.815   7.262  13.471
89462W        W54447  24.060   1.962  14.963
89463W        W54448  21.429  33.179  11.456
89464W        W54449  35.310  13.117  10.706
89465W        W54450   8.790  38.036   2.773
89466W        W54451  27.971  38.086   2.342
89467W        W54452  36.315   1.733  14.268
89468W        W54453  43.827  30.071  14.332
89469W        W54454  43.652  32.659  13.824
89470W        W54455   7.000  10.767   0.968
89471W        W54456  34.979   3.957   3.104
89472W        W54457  35.118  36.437   2.179
89473W        W54458   0.824   4.956   3.231
89474W        W54459  14.980  35.315   1.383
89475W        W54460  30.467  25.401   3.188
89476W        W54461  44.241   3.158   2.216
89477W        W54462  16.051  25.925   4.519
89478W        W54463  31.777  32.607   2.437
89479W        W54464  10.211   5.646  11.139
89480W        W54465   8.922  15.170  11.134
89481W        W54466  13.151  16.479   4.897
89482W        W54467  29.979  16.376   2.684
89483W        W54468  26.642  32.688  12.463
89484W        W54469  41.411   1.220   3.742
89485W        W54470  23.111  44.153   2.723
89486W        W54471  36.881   3.661   2.342
89487W        W54472  26.568  41.799  12.084
89488W        W54473   0.398  16.154  12.459
89489W        W54474  20.552   2.709   2.411
89490W        W54475  40.326  37.071  12.009
89491W        W54476   7.871  42.691   1.383
89492W        W54477   9.776  43.476   4.659
89493W        W54478  36.460  44.129   4.505
89494W        W54479  18.253  35.471  11.101
89495W        W54480  20.250  28.159   1.081
89496W        W54481  12.268  10.783  13.761
89497W        W54482  32.654  37.995   4.356
89498W        W54483  32.105  37.555   2.271
89499W        W54484   0.477   4.766   0.798
89500W        W54485  28.761  38.271   0.440
89501W        W54486  34.926   6.894   1.253
89502W        W54487  18.506  42.465   3.483
89503W        W54488  38.756  10.093  13.413
89504W        W54489   9.944   2.835  12.329
89505W        W54490  31.412  24.649   0.787
89506W        W54491  32.492  16.681  10.587
89507W        W54492  40.029  21.381   0.385
89508W        W54493  20.120   6.951   1.209
89509W        W54494  21.979  25.039   2.751
89510W        W54495  20.101  27.458   1.169
89511W        W54496  25.821  24.369  13.339
89512W        W54497  38.185  28.690   4.396
89513W        W54498  25.068  44.316   3.551
89514W        W54499  39.910  16.750   0.570
89515W        W54500  38.408  31.683   3.861
89516W        W54501  30.946  24.696  12.124
89517W        W54502   8.861  41.879  10.757
89518W        W54503  31.448   2.025  14.381
89519W        W54504   8.138  13.918  11.167
89520W        W54505  20.777   2.856  13.433
89521W        W54506  36.575  13.840  13.596
89522W        W54507  11.184  14.819  14.805
89523W        W54508  33.121  18.023  12.889
89524W        W54509  18.711  17.455   0.968
89525W        W54510  17.939  31.560  13.411
89526W        W54511   8.689  21.616  14.263
89527W        W54512   9.361   0.803   3.230
89528W        W54513   0.331  28.118   4.219
89529W        W54514  10.687  29.099  14.491
89530W        W54515  37.524  17.840  14.065
89531W        W54516  20.398  42.645   4.173
89532W        W54517  39.573   7.437  12.908
89533W        W54518  37.259   6.300   2.273
89534W        W54519  18.544  33.591  11.629
89535W        W54520  14.865  43.879  14.995
89536W        W54521  16.114  27.715   3.092
89537W        W54522   0.329  16.840  10.707
89538W        W54523  22.544  32.128   4.317
89539W        W54524  29.953  32.776   1.348
89540W        W54525  22.300  21.170  13.374
89541W        W54526  22.321  22.148   4.533
89542W        W54527  34.235   1.555   2.308
89543W        W54528  30.526  25.519  14.779
89544W        W54529  20.024  17.419  14.913
89545W        W54530  31.593  10.367  13.631
89546W        W54531   5.478  40.034  11.475
89547W        W54532   0.992  10.131  14.590
89548W        W54533  23.733  15.774   0.006
89549W        W54534  33.495  15.258  12.727
89550W        W54535   2.798  22.065   1.372
89551W        W54536   4.545  22.019   4.716
89552W        W54537   6.878  38.326   4.693
89553W        W54538  16.589   0.656  11.580
89554W        W54539  24.144  13.237  13.437
89555W        W54540   5.976  39.616   0.057
89556W        W54541  31.403  44.535   2.783
89557W        W54542  12.297  31.060  14.080
89558W        W54543  40.693  29.261   3.058
89559W        W54544   0.974  21.550   0.659
89560W        W54545   7.745  17.751   1.371
89561W        W54546  34.824  29.045   3.678
89562W        W54547   9.874  13.462   4.594
89563W        W54548  18.279  43.731   0.351
89564W        W54549  23.000  30.991  10.443
89565W        W54550  23.423  28.467   3.545
89566W        W54551   0.545  27.619   4.280
89567W        W54552  17.647  43.347   0.786
89568W        W54553  23.959  42.042   2.162
89569W        W54554   6.800  26.928  12.422
89570W        W54555  24.427  33.571   2.294
89571W        W54556   0.341  31.417   3.293
89572W        W54557  34.363  16.619   0.284
89573W        W54558  17.157  11.225   4.480
89574W        W54559  34.261  16.145   2.774
89575W        W54560  22.331  21.918  10.946
89576W        W54561  35.849  24.049  14.300
89577W        W54562  31.514  20.704  11.145
89578W        W54563   7.907  34.541   2.445
89579W        W54564  19.173  29.415   4.631
89580W        W54565  34.411   5.283   1.668
89581W        W54566  13.184  18.900   0.246
89582W        W54567   9.357  29.694   1.192
89583W        W54568  27.229  38.876   1.180
89584W        W54569  19.889  41.905  11.345
89585W        W54570  39.982  30.996   3.767
89586W        W54571  11.802  13.317  11.046
89587W        W54572   2.746  39.773  13.815
89588W        W54573  30.502  11.875  13.020
89589W        W54574  30.925  31.508  14.984
89590W        W54575  15.165  44.282  10.711
89591W        W54576  37.546   1.696  13.586
89592W        W54577   9.437  21.288   1.286
89593W        W54578  43.088  13.917   4.640
89594W        W54579  44.953   5.109   1.184
89595W        W54580   6.653   2.941   1.527
89596W        W54581  44.919   9.907   1.372
89597W        W54582  18.674   7.424  12.745
89598W        W54583   1.343  41.971  12.154
89599W        W54584  12.455  36.106   3.400
89600W        W54585  43.429  30.585  12.149
89601W        W54586  28.655  36.093  12.862
89602W        W54587  36.343  12.912   2.790
89603W        W54588  20.902  41.838  12.580
89604W        W54589  42.777  30.951  14.533
89605W        W54590   9.838   8.349   2.856
89606W        W54591  35.048  14.958  14.199
89607W        W54592  44.998   9.961  12.030
89608W        W54593  19.723  23.001  13.143
89609W        W54594  12.044   8.459  13.579
89610W        W54595  35.519  16.538  14.012
89611W        W54596  33.132  23.903   1.942
89612W        W54597  20.589  15.460   0.613
89613W        W54598   8.177  15.979  14.308
89614W        W54599  17.291   3.627   0.159
89615W        W54600  30.486  14.078   2.966
89616W        W54601  41.581  13.617   2.321
89617W        W54602  35.495  22.467  11.178
89618W        W54603  33.004   1.793  11.560
89619W        W54604  29.582  21.758   2.253
89620W        W54605  17.212  28.461  12.168
89621W        W54606  39.267  37.683  11.085
89622W        W54607  22.467   3.891  14.341
89623W        W54608  18.821  34.365   3.120
89624W        W54609  31.692  32.921   4.174
89625W        W54610  16.258   1.859  13.827
89626W        W54611  29.472  25.215   1.016
89627W        W54612  23.552  34.981  12.594
89628W        W54613   8.684  19.866   0.744
89629W        W54614  18.887   4.507   2.141
89630W        W54615  25.191  42.679   0.707
89631W        W54616  18.507   3.356   1.011
89632W        W54617  13.277  19.002  12.951
89633W        W54618  14.245   0.915  11.150
89634W        W54619  12.750  13.131  11.530
89635W        W54620  37.400   8.238  10.670
89636W        W54621  24.449   7.771   0.298
89637W        W54622  34.088   4.863  14.482
89638W        W54623   9.855   4.867   0.053
89639W        W54624  26.039  40.268  14.587
89640W        W54625   2.483  40.043  11.632
89641W        W54626  44.799  43.826  10.494
89642W        W54627  15.028  10.852   2.699
89643W        W54628  29.025  42.060   2.321
89644W        W54629  17.651  26.957  13.953
89645W        W54630  13.074  44.357  11.086
89646W        W54631   7.562  41.605  10.792
89647W        W54632  26.674  14.607  13.781
89648W        W54633  23.454  22.597  10.658
89649W        W54634  37.439  10.823   3.276
89650W        W54635  10.079  23.601   3.870
89651W        W54636  21.758  12.871  13.725
89652W        W54637   0.237  42.905   2.703
89653W        W54638  37.954  13.012   4.163
89654W        W54639   9.574  26.693   0.382
89655W        W54640  31.535  21.780  12.829
89656W        W54641  33.129  32.592  14.372
89657W        W54642  18.223  30.389   2.230
89658W        W54643  18.099  19.939   3.286
89659W        W54644  12.158  33.982  13.028
89660W        W54645  25.247  11.739   2.322
89661W        W54646  32.595   0.587  11.058
89662W        W54647   4.236  15.884   1.417
89663W        W54648  11.040  24.021  12.459
89664W        W54649  34.829  28.737  13.459
89665W        W54650  17.694  10.778   3.405
89666W        W54651  44.390  18.868  12.944
89667W        W54652  22.071  40.923   4.114
89668W        W54653  14.612  14.049  13.549
89669W        W54654   8.513  16.060   3.671
89670W        W54655   8.930   5.220   3.477
89671W        W54656  12.725   6.845  12.695
89672W        W54657  10.525  42.696   4.559
89673W        W54658  24.412  18.608   4.689
89674W        W54659  30.664   7.987   2.110
89675W        W54660  32.153   9.391  11.715
89676W        W54661  24.125   0.824   2.777
89677W        W54662  24.557  13.208  11.381
89678W        W54663  16.238   4.695   0.207
89679W        W54664  15.329  17.814  13.035
89680W        W54665  35.131  40.918   1.103
89681W        W54666  43.749  44.350   2.219
89682W        W54667  18.186  10.454  13.591
89683W        W54668  12.584   3.220   4.517
89684W        W54669  31.950   6.353   3.084
89685W        W54670   7.237  22.649   0.639
89686W        W54671  15.819  40.589  13.075
89687W        W54672  36.616  44.891   0.463
89688W        W54673  36.953  18.781  10.646
89689W        W54674  43.747  43.980   4.567
89690W        W54675  37.736  44.308   2.336
89691W        W54676   1.391  16.100  13.582
89692W        W54677   5.850  31.436   3.270
89693W        W54678   2.340   6.403   4.598
89694W        W54679  21.686  26.629  13.879
89695W        W54680  11.266   9.547  14.494
89696W        W54681  36.515  10.041   2.193
89697W        W54682  26.231   0.527  13.465
89698W        W54683  28.687   8.298  12.134
89699W        W54684  40.363   9.485  13.710
89700W        W54685  17.281  20.037  12.370
89701W        W54686  14.110   3.209  12.117
89702W        W54687  23.830  18.284  14.073
89703W        W54688  42.336  35.340   1.867
89704W        W54689   1.724  19.551  14.861
89705W        W54690  18.804  22.054  13.024
89706W        W54691   0.182   6.914  11.612
89707W        W54692  35.879  21.121   3.085
89708W        W54693  30.549  43.027  11.132
89709W        W54694  23.464  35.065   3.992
89710W        W54695  17.271   9.480   2.296
89711W        W54696  38.109  39.913  11.234
89712W        W54697  12.312  28.998  14.814
89713W        W54698  18.105  22.985  13.035
89714W        W54699   0.151   7.197  11.137
89715W        W54700  25.506  10.277   2.142
89716W        W54701  14.849  34.906  11.525
89717W        W54702   2.998  30.613  13.609
89718W        W54703   0.492  17.303   0.409
89719W        W54704   7.945  41.030  11.270
89720W        W54705   4.013  23.665   3.512
89721W        W54706  18.831  14.347   0.732
89722W        W54707  24.282  23.044   1.060
89723W        W54708   9.351  19.586  13.781
89724W        W54709  10.123   3.973   2.948
89725W        W54710  38.045  18.470  12.931
89726W        W54711  25.640  25.990  13.563
89727W        W54712  10.881   2.898  14.040
89728W        W54713  31.496   6.583  12.873
89729W        W54714  25.088  43.447   3.644
89730W        W54715  41.229   6.207   4.127
89731W        W54716  42.926   2.365   2.115
89732W        W54717   7.870  15.191  12.568
89733W        W54718  30.856  15.178  11.849
89734W        W54719   4.648   5.318   2.218
89735W        W54720  39.800  22.037   3.214
89736W        W54721  16.674   4.026  11.234
89737W        W54722   5.266  24.032   1.073
89738W        W54723   1.386  15.475   1.243
89739W        W54724  17.975  21.451  14.471
89740W        W54725   4.465   3.903   1.429
89741W        W54726   7.353  31.991   3.645
89742W        W54727  13.112   6.991  13.635
89743W        W54728  27.760  10.164   4.629
89744W        W54729  11.318  27.608   0.795
89745W        W54730  24.045   3.744  11.080
89746W        W54731   9.633   0.676  12.408
89747W        W54732  34.624  16.702   0.740
89748W        W54733  15.650  36.476  11.577
89749W        W54734  39.243  11.258  13.510
89750W        W54735  15.783  18.306  12.645
89751W        W54736   5.673  20.097  12.974
89752W        W54737  36.250  11.313  13.099
89753W        W54738  23.099  39.387   2.896
89754W        W54739   1.048  34.106  10.726
89755W        W54740  22.110   1.998   4.476
89756W        W54741   4.763  44.870  13.290
89757W        W54742  28.354  41.791  10.969
89758W        W54743  20.767  29.631  14.042
89759W        W54744  39.778  31.347   2.574
89760W        W54745  29.534  36.361   0.486
89761W        W54746  37.583  44.593  12.571
89762W        W54747   4.579  39.867  12.902
89763W        W54748   9.199   1.019  11.629
89764W        W54749   0.503  14.258   0.483
89765W        W54750  43.623  39.786   1.897
89766W        W54751  23.599  27.670  11.236
89767W        W54752   1.761   2.895  12.900
89768W        W54753  40.368  17.408  12.701
89769W        W54754  17.060   0.521  10.913
89770W        W54755  16.073  18.729   2.168
89771W        W54756  27.487  39.308  13.671
89772W        W54757  24.266  11.578   4.738
89773W        W54758  44.227   0.209  13.003
89774W        W54759  22.189  16.047   4.495
89775W        W54760  21.002  25.194  13.397
89776W        W54761   1.952   0.908  12.340
89777W        W54762  14.515  15.763  13.855
89778W        W54763   9.764  18.369  12.910
89779W        W54764  42.397  27.130   3.782
89780W        W54765  29.586  34.968   2.327
89781W        W54766   1.801  22.280   1.447
89782W        W54767   2.746   4.288  13.706
89783W        W54768  27.541  16.331   2.618
89784W        W54769  39.437  17.256  13.093
89785W        W54770   8.234   9.749   0.309
89786W        W54771  40.980  15.804  14.827
89787W        W54772  10.823  30.684  11.469
89788W        W54773  34.963   4.592   1.144
89789W        W54774  27.252  38.819   1.692
89790W        W54775  14.829  43.377   4.265
89791W        W54776  35.923  12.182  12.075
89792W        W54777  30.880  27.828   0.288
89793W        W54778  44.840  31.607  14.984
89794W        W54779  38.793  20.006   1.899
89795W        W54780  10.246  37.368   3.566
89796W        W54781  23.058  27.934  13.695
89797W        W54782  23.028  12.580   1.855
89798W        W54783   7.681  11.867   3.216
89799W        W54784   6.871  26.953  11.514
89800W        W54785  13.453  36.481  12.677
89801W        W54786  14.516  26.625  13.620
89802W        W54787  44.761  43.858  12.965
89803W        W54788  40.417  14.026  14.589
89804W        W54789  27.135  20.046  13.418
89805W        W54790  21.216  13.162  13.587
89806W        W54791  15.159  36.325  14.314
89807W        W54792  42.242  30.520  14.573
89808W        W54793   2.839   6.697   0.595
89809W        W54794  13.550  40.655  14.334
89810W        W54795  38.968  33.892   2.650
89811W        W54796  31.771  24.652  11.552
89812W        W54797  33.667  43.405   1.966
89813W        W54798  23.200   7.671  14.691
89814W        W54799  26.215  21.800  11.130
89815W        W54800  10.175   5.710  10.444
89816W        W54801  30.202  42.504  13.790
89817W        W54802  26.981  21.244  13.964
89818W        W54803  19.120   4.383  10.895
89819W        W54804  17.005  25.282  10.720
89820W        W54805  21.020  41.812   4.395
89821W        W54806  10.704  38.119  10.652
89822W        W54807  13.066   5.677  10.790
89823W        W54808  33.774  38.915  14.339
89824W        W54809  26.548  13.946  13.004
89825W        W54810  37.547  30.953  12.217
89826W        W54811  22.827  15.779   0.910
89827W        W54812  31.973  15.334  10.723
89828W        W54813  41.709  22.004   4.579
89829W        W54814   4.752  20.138  14.046
89830W        W54815  28.921   5.475   0.396
89831W        W54816  42.490   4.159   4.590
89832W        W54817  26.306   0.041   2.633
89833W        W54818  42.020  35.088   3.080
89834W        W54819  18.989  26.043  13.851
89835W        W54820  22.108  26.093  11.654
89836W        W54821   3.307   7.757  11.137
89837W        W54822  20.517  38.765  14.872
89838W        W54823  26.683  40.022  14.008
89839W        W54824  18.454  39.927  11.260
89840W        W54825  23.218  11.519  10.715
89841W        W54826   6.982  19.564  13.210
89842W        W54827  27.227  13.795   0.065
89843W        W54828  20.184   5.387  10.658
89844W        W54829  34.804   9.947  13.501
89845W        W54830  20.569  11.384   2.911
89846W        W54831  15.992   6.486  14.707
89847W        W54832  20.929  28.935   3.129
89848W        W54833   4.877  38.549   2.170
89849W        W54834   6.134  41.536   5.190
89850W        W54835  32.089  20.252   1.437
89851W        W54836  28.531  39.806  11.024
89852W        W54837  42.511  37.974   2.417
89853W        W54838  36.876  38.471   0.701
89854W        W54839  19.534  29.602   2.243
89855W        W54840   5.573   5.293   2.212
89856W        W54841  18.777  43.158   2.390
89857W        W54842   8.121   7.831   3.511
89858W        W54843  41.320   8.965  11.869
89859W        W54844  16.108  30.753  12.124
89860W        W54845  18.054  14.117   2.737
89861W        W54846  27.711  40.263  12.496
89862W        W54847  31.335  18.679  12.232
89863W        W54848  42.301  38.364   4.328
89864W        W54849  14.754  34.529  10.615
89865W        W54850   3.374  31.269  10.719
89866W        W54851  31.699  39.546   1.826
89867W        W54852  13.250  21.713   3.638
89868W        W54853  18.052  38.906   1.209
89869W        W54854  13.317  15.235  12.223
89870W        W54855  39.886  40.645  12.620
89871W        W54856  33.654  38.786  13.014
89872W        W54857  34.978   4.151  11.540
89873W        W54858  42.888  21.794  10.372
89874W        W54859  18.992  38.407  12.084
89875W        W54860   1.135  26.873  12.547
89876W        W54861   2.070  39.792   1.463
89877W        W54862   3.222  14.159   1.552
89878W        W54863  14.474  35.149   4.063
89879W        W54864  39.268  18.114   5.009
89880W        W54865  44.104  32.489  13.999
89881W        W54866   7.972  23.078  13.926
89882W        W54867  10.341  29.583   2.111
89883W        W54868  21.290  33.548  11.847
89884W        W54869  16.496  30.457  10.605
89885W        W54870  34.589  41.328  11.425
89886W        W54871  26.047  28.450  14.081
89887W        W54872   1.943  36.218  11.656
89888W        W54873   8.807  30.567  10.674
89889W        W54874  25.595  18.228   0.567
89890W        W54875  37.571  25.090   3.782
89891W        W54876   5.442  17.704   4.363
89892W        W54877  42.472  31.424   1.810
89893W        W54878  42.431  24.994   2.811
89894W        W54879  34.385   4.275   2.574
89895W        W54880  26.141  39.341   1.834
89896W        W54881  11.618  23.004   0.425
89897W        W54882  26.290  18.566  13.884
89898W        W54883  16.840  34.583   4.076
89899W        W54884  33.245  17.195  13.956
89900W        W54885  31.276  41.835   4.178
89901W        W54886   1.657  13.068  11.652
89902W        W54887  39.116  14.255   4.630
89903W        W54888  21.073  29.027  14.376
89904W        W54889  37.919  10.654  13.306
89905W        W54890  22.782   4.014  13.923
89906W        W54891  32.531  16.593   2.185
89907W        W54892  34.414   3.371  13.458
89908W        W54893   5.944  12.811   0.923
89909W        W54894  11.032  18.233  11.937
89910W        W54895  26.123  37.550  14.345
89911W        W54896   7.853  35.160  10.677
89912W        W54897  22.713   3.314   2.187
89913W        W54898  11.630   3.162   2.883
89914W        W54899   0.464   7.305   0.307
89915W        W54900  26.174   6.773   3.967
89916W        W54901  23.492  30.210   5.048
89917W        W54902  22.207  34.087   0.234
89918W        W54903   0.401  37.223   0.092
89919W        W54904  33.018  19.487   1.267
89920W        W54905  17.268   2.438   3.735
89921W        W54906  15.066  15.698   3.228
89922W        W54907   7.244  36.391  12.446
89923W        W54908  26.890  29.056   0.170
89924W        W54909  37.866  10.968   0.600
89925W        W54910  28.976  25.746   4.463
89926W        W54911  16.653  25.812  12.427
89927W        W54912  14.811   1.804  14.431
89928W        W54913   4.504   0.956  14.759
89929W        W54914  41.265  14.080   3.189
89930W        W54915   8.199   0.801  10.740
89931W        W54916  14.640   0.837   1.333
89932W        W54917   9.375  23.091   0.658
89933W        W54918  22.647  16.712   3.953
89934W        W54919  34.639  16.884   2.900
89935W        W54920   6.697  34.461  11.145
89936W        W54921  27.209  43.033  11.623
89937W        W54922   6.253   2.862   2.809
89938W        W54923  27.929  21.235   3.827
89939W        W54924  34.909  15.747  13.378
89940W        W54925  10.282  25.228  13.027
89941W        W54926  31.644  12.763  14.401
89942W        W54927  36.457   2.001  10.557
89943W        W54928  34.350  17.795  12.285
89944W        W54929   9.243  16.309   3.884
89945W        W54930  40.948  38.578   4.428
89946W        W54931   7.943  14.682   3.500
89947W        W54932   1.531   0.599  12.299
89948W        W54933  26.109  33.961  12.785
89949W        W54934   2.049  32.184  11.690
89950W        W54935  21.206  19.602  13.519
89951W        W54936   9.340  19.205   3.093
89952W        W54937   3.789  19.579  11.983
89953W        W54938  13.886  37.765   0.300
89954W        W54939  13.068  29.081   0.400
89955W        W54940  39.953  30.035  11.918
89956W        W54941  24.088   6.459  13.470
89957W        W54942  41.509  34.790  14.367
89958W        W54943  19.147  26.122   3.040
89959W        W54944  42.601   9.298  10.667
89960W        W54945  37.528   2.644  14.872
89961W        W54946  16.118  16.216   4.298
89962W        W54947   3.195  12.801  13.422
89963W        W54948  35.161  38.469   4.259
89964W        W54949  21.740  34.510  10.394
89965W        W54950  18.953  23.556   2.148
89966W        W54951   3.928  27.189  12.044
89967W        W54952  31.420  30.947   3.683
89968W        W54953  42.379  15.533   1.817
89969W        W54954  30.088  21.206  13.148
89970W        W54955  14.161  33.220   3.367
89971W        W54956  35.599  10.281   2.087
89972W        W54957   3.942  35.871   0.905
89973W        W54958   6.290  17.842   0.023
89974W        W54959  15.012  17.312  11.048
89975W        W54960  44.280  30.041  13.780
89976W        W54961  26.883  33.401   2.705
89977W        W54962   8.864  33.003   1.668
89978W        W54963  16.592  42.913  10.714
89979W        W54964  33.388  21.695  12.321
89980W        W54965  30.016  37.852  10.987
89981W        W54966  41.611  20.932   0.785
89982W        W54967   2.783  43.907  13.971
89983W        W54968  10.169  12.679  13.822
89984W        W54969  23.062  12.376   2.334
89985W        W54970  36.781  42.594  10.073
89986W        W54971  30.136  14.848  13.347
89987W        W54972  19.582  12.346  13.902
89988W        W54973  38.888  39.777  10.629
89989W        W54974   0.468  35.372  13.037
89990W        W54975  36.231  15.732  12.958
89991W        W54976  12.890  29.572  13.086
89992W        W54977  37.527  42.191   1.535
89993W        W54978   0.918  16.621  10.943
89994W        W54979  27.006  33.123   1.843
89995W        W54980  20.040  35.521   1.328
89996W        W54981  15.565  34.935   4.193
89997W        W54982   8.080   4.276   1.754
89998W        W54983  29.085  12.358   2.779
89999W        W54984  14.297  40.425   0.450
90000W        W54985   0.246  44.772   1.142
90001W        W54986  36.995  40.796   1.671
90002W        W54987  18.169   9.708   3.664
90003W        W54988  16.602  39.003   0.506
90004W        W54989   9.128  36.866   3.123
90005W        W54990  43.000  25.095   4.024
90006W        W54991  10.841  32.185  11.372
90007W        W54992   1.390  42.553  10.834
90008W        W54993  31.015  22.565   1.348
90009W        W54994  40.177  27.152  13.488
90010W        W54995   0.247  18.057  12.207
90011W        W54996  20.271  30.347   5.019
90012W        W54997  16.693   5.952   0.375
90013W        W54998   7.886   0.514  13.064
90014W        W54999   2.169  37.309   0.208
90015W        W55000  41.526  23.782   4.204
90016W        W55001  30.932  33.972   4.388
90017W        W55002  30.938   9.605  14.220
90018W        W55003   8.296  38.031   2.991
90019W        W55004  19.601  39.303   2.253
90020W        W55005  33.602  10.680   1.376
90021W        W55006  33.234   1.304  13.837
90022W        W55007  11.223  16.094  12.033
90023W        W55008  30.968  25.782  10.770
90024W        W55009  14.943   5.415  14.690
90025W        W55010   4.993  11.900   0.830
90026W        W55011   1.905  31.154  14.920
90027W        W55012  13.151  13.128  14.734
90028W        W55013   3.161   0.754  11.782
90029W        W55014   7.718   9.196   2.206
90030W        W55015  13.654  26.330   2.727
90031W        W55016   0.429   9.447  14.906
90032W        W55017  34.842  26.376  11.492
90033W        W55018  15.359  40.958   1.479
90034W        W55019   1.987  13.096   2.665
90035W        W55020  16.708  42.790  13.632
90036W        W55021   9.019   4.752  11.490
90037W        W55022  14.696  36.096  14.496
90038W        W55023   3.495   5.388  10.987
90039W        W55024  17.583  18.373   2.391
90040W        W55025  37.434   9.870  13.787
90041W        W55026   9.201   8.703  12.298
90042W        W55027   1.800   6.744  14.300
90043W        W55028  39.295  11.306   4.681
90044W        W55029  40.052   7.267  10.993
90045W        W55030  15.049  12.687  12.970
90046W        W55031  27.935  28.956   0.510
90047W        W55032  31.848  16.398   3.115
90048W        W55033  27.789  12.105   3.251
90049W        W55034   4.393  17.707  11.475
90050W        W55035   9.959   5.212   2.641
90051W        W55036  36.450  19.002   4.677
90052W        W55037   3.685   1.713   3.245
90053W        W55038   7.486   7.227  12.790
90054W        W55039  26.016  42.440  12.403
90055W        W55040  16.125  27.415   2.688
90056W        W55041  17.173  33.055  12.816
90057W        W55042  34.610   4.957  14.384
90058W        W55043   7.300   3.449   2.666
90059W        W55044  26.346  44.323  11.710
90060W        W55045  33.493  38.878   3.592
90061W        W55046  15.292  37.494   1.333
90062W        W55047  33.473  17.448   2.244
90063W        W55048  41.379  40.081   0.489
90064W        W55049  32.218   5.806   2.158
90065W        W55050  27.099   1.798  14.772
90066W        W55051  26.705  35.942  13.844
90067W        W55052  44.376  14.638   2.362
90068W        W55053  11.010  26.399  11.576
90069W        W55054   1.573  31.734   2.433
90070W        W55055  25.569  11.757  14.488
90071W        W55056  14.134  26.991   0.406
90072W        W55057  22.621  15.126  13.952
90073W        W55058  26.107  35.107  13.578
90074W        W55059  29.030   1.550   0.327
90075W        W55060  31.673  35.153  14.974
90076W        W55061  28.868  31.336   2.595
90077W        W55062  16.654  26.188  13.254
90078W        W55063  42.582  37.745  11.626
90079W        W55064   5.883  21.158  12.059
90080W        W55065  34.660  38.854   0.807
90081W        W55066  10.836   7.023  14.949
90082W        W55067  27.020  33.355  14.924
90083W        W55068   8.099  19.725   1.754
90084W        W55069   5.685  37.533   2.184
90085W        W55070  20.606  42.624  13.742
90086W        W55071  23.712  11.103  12.479
90087W        W55072  24.484   6.742   1.415
90088W        W55073  16.906  39.872   0.934
90089W        W55074  27.909  23.107   3.326
90090W        W55075  43.906  26.715  12.451
90091W        W55076   7.690  16.401  10.678
90092W        W55077  24.088  11.014  14.692
90093W        W55078   8.651  23.438   4.943
90094W        W55079  39.483  34.015  12.675
90095W        W55080  32.007   4.360  12.007
90096W        W55081  24.413  19.538   0.420
90097W        W55082  25.887  34.595   4.589
90098W        W55083   8.980  11.166  11.564
90099W        W55084  15.746  15.765   0.464
90100W        W55085  19.716  30.590   4.372
90101W        W55086  29.375  22.169  10.659
90102W        W55087  29.430  41.093   5.073
90103W        W55088  36.805  38.445  14.847
90104W        W55089   3.013  32.436   2.476
90105W        W55090  10.190  39.945  13.647
90106W        W55091  12.695  24.269   2.374
90107W        W55092  34.957  43.890  12.083
90108W        W55093  32.474  21.353   2.888
90109W        W55094  16.374  18.828  11.967
90110W        W55095   4.437  10.890   3.176
90111W        W55096  20.772  27.288   3.913
90112W        W55097  43.829  36.314  10.859
90113W        W55098  32.451  41.782  13.447
90114W        W55099   2.414   1.825   1.786
90115W        W55100   4.333  29.419   2.772
90116W        W55101  27.487  23.606  11.640
90117W        W55102  37.411  35.523   4.541
90118W        W55103   0.294  34.220  11.217
90119W        W55104   5.340  21.781   1.481
90120W        W55105   5.816  19.153   3.153
90121W        W55106   3.487   0.774  10.565
90122W        W55107  25.521  37.855  13.520
90123W        W55108  10.093  40.415   0.407
90124W        W55109  29.992  12.058  12.877
90125W        W55110  10.821  29.012   4.432
90126W        W55111  28.166  37.299   4.099
90127W        W55112  34.958  44.514  14.335
90128W        W55113  23.669  16.076  10.442
90129W        W55114  35.125   9.354  13.980
90130W        W55115  11.148  41.421  10.968
90131W        W55116  25.614  27.211  14.529
90132W        W55117  42.609  23.467   1.145
90133W        W55118  29.375  26.528  13.794
90134W        W55119  13.101  11.340   0.941
90135W        W55120  23.448  36.039  13.549
90136W        W55121  44.226   5.425   2.861
90137W        W55122  32.869  25.311  11.813
90138W        W55123  27.041  19.799   5.110
90139W        W55124  32.135  29.095   3.825
90140W        W55125  22.698  22.168   2.138
90141W        W55126  37.581   2.329  14.472
90142W        W55127  30.521  37.398   2.102
90143W        W55128  28.392  44.859  12.868
90144W        W55129   0.071  21.458   3.093
90145W        W55130   7.782  35.961  10.329
90146W        W55131   1.245  18.313  12.103
90147W        W55132   7.388  15.986  10.694
90148W        W55133  41.413  43.812   3.101
90149W        W55134  31.086   6.234   4.087
90150W        W55135  21.525  37.198  13.698
90151W        W55136  42.261  29.620  12.858
90152W        W55137  37.031  42.110   1.325
90153W        W55138  18.941  28.169   0.876
90154W        W55139  22.803  36.119  10.744
90155W        W55140   9.129  33.197  12.565
90156W        W55141  14.034  38.933   3.667
90157W        W55142   5.686  25.756   0.454
90158W        W55143  44.886  15.234  14.866
90159W        W55144  36.275  15.301   1.593
90160W        W55145   6.909  32.375   0.431
90161W        W55146  23.274   1.277   0.032
90162W        W55147  29.390  42.526   1.442
90163W        W55148   5.729  42.092  11.131
90164W        W55149   6.938  20.248  13.463
90165W        W55150  10.759  37.269  11.976
90166W        W55151  22.227  17.321   0.790
90167W        W55152  38.323  26.617  14.793
90168W        W55153  36.987   3.037  14.944
90169W        W55154  24.901  14.312   4.951
90170W        W55155  35.298  28.112  14.205
90171W        W55156  20.184  37.782  11.739
90172W        W55157  18.664   9.708  14.879
90173W        W55158  31.935  17.234   4.621
90174W        W55159  32.329  15.102  14.885
90175W        W55160  44.769  13.333   0.790
90176W        W55161  35.165   3.569   2.335
90177W        W55162  40.818  31.851   1.832
90178W        W55163   8.414   7.468  13.816
90179W        W55164  26.603  29.153   4.186
90180W        W55165  27.540   0.608   3.970
90181W        W55166  17.601  34.565  13.102
90182W        W55167  10.209   5.416   4.664
90183W        W55168  32.853  12.845   2.902
90184W        W55169  38.640  37.395   0.743
90185W        W55170  11.627  34.050   2.162
90186W        W55171  12.141  35.688   3.259
90187W        W55172   9.451  44.835   3.247
90188W        W55173  35.690  23.668   3.793
90189W        W55174  33.350  39.405   2.856
90190W        W55175   0.240  12.023  11.190
90191W        W55176  32.208   9.793   4.118
90192W        W55177  22.776  30.400   4.606
90193W        W55178   7.411  33.397  12.199
90194W        W55179  43.764  34.910  14.364
90195W        W55180  31.351  33.042  11.451
90196W        W55181  29.709  43.351  12.093
90197W        W55182  14.178  25.984  11.749
90198W        W55183   9.608  12.743   2.713
90199W        W55184  44.722  41.849   4.106
90200W        W55185  34.995  20.857  11.206
90201W        W55186  13.784   8.264  10.275
90202W        W55187   5.333  33.906   1.379
90203W        W55188  16.314  20.239  11.514
90204W        W55189  38.101  24.630  12.057
90205W        W55190  44.402  12.858  12.128
90206W        W55191  43.529  10.820   3.715
90207W        W55192  28.961  18.532  10.932
90208W        W55193   6.613  17.030  10.971
90209W        W55194   8.755  12.588   3.141
90210W        W55195  19.149  22.195   1.333
90211W        W55196   6.664   0.843   4.534
90212W        W55197   9.756  42.233   4.614
90213W        W55198  42.715  21.527  14.973
90214W        W55199  15.484  29.683   3.046
90215W        W55200  33.279  14.554   0.012
90216W        W55201   2.528  20.189   0.745
90217W        W55202   8.391  13.023   4.282
90218W        W55203   6.302  29.658  12.548
90219W        W55204  39.691  27.156   2.862
90220W        W55205  31.359  17.179  11.054
90221W        W55206  16.056  28.565  13.506
90222W        W55207  17.672  32.035   0.769
90223W        W55208  36.798  14.293  13.749
90224W        W55209  31.084  44.576   4.439
90225W        W55210  17.854   7.366  14.576
90226W        W55211  19.635  27.524   1.426
90227W        W55212  22.829  28.659  14.262
90228W        W55213   6.251  35.671   1.702
90229W        W55214   3.280  40.528   2.750
90230W        W55215  17.396   8.820   4.796
90231W        W55216   2.337  30.300  13.348
90232W        W55217  18.320  43.161   1.486
90233W        W55218  17.086  19.159   2.868
90234W        W55219  17.384  31.578  13.589
90235W        W55220  15.740  28.601   3.180
90236W        W55221  22.790  32.710  10.559
90237W        W55222  14.156  31.187  13.005
90238W        W55223  27.265  20.956  14.381
90239W        W55224  25.145   0.477   1.663
90240W        W55225   0.204  26.238  14.055
90241W        W55226  19.706   2.161  12.387
90242W        W55227   3.899  39.763   0.249
90243W        W55228  36.300  31.623   0.442
90244W        W55229  35.846   5.816   0.273
90245W        W55230  25.792  36.794  11.160
90246W        W55231  40.418  18.769  12.972
90247W        W55232  38.024  42.021  13.516
90248W        W55233   9.296  26.931  14.690
90249W        W55234   0.139   0.297   4.178
90250W        W55235  43.786   5.903   3.663
90251W        W55236  32.952   9.273   2.878
90252W        W55237  38.823  16.335   2.448
90253W        W55238  44.489   4.751  10.774
90254W        W55239  42.348  14.638  11.156
90255W        W55240  12.665  38.920  13.787
90256W        W55241  32.577  40.913   4.738
90257W        W55242  40.008  19.839  14.798
90258W        W55243  15.676   9.626   0.834
90259W        W55244  39.422  19.821  12.924
90260W        W55245  12.374  34.663  13.564
90261W        W55246  37.331  34.409   3.760
90262W        W55247  20.636  19.884  14.072
90263W        W55248  21.990  33.635   2.911
90264W        W55249  34.141  24.099   3.351
90265W        W55250   8.537  20.144   1.202
90266W        W55251   9.379  37.043  14.519
90267W        W55252  41.771  30.123  10.627
90268W        W55253  32.016   4.219   0.341
90269W        W55254  17.731  20.685  11.170
90270W        W55255   5.732  25.995   1.926
90271W        W55256  32.635  38.392  10.427
90272W        W55257  39.227   9.423  11.157
90273W        W55258  15.299  31.543  14.453
90274W        W55259  23.963  38.551   3.600
90275W        W55260  34.166  42.916   4.108
90276W        W55261  22.466  27.991   0.960
90277W        W55262  22.484  34.385  12.730
90278W        W55263   0.206  36.275   0.030
90279W        W55264   2.452  39.544  11.592
90280W        W55265   8.936   8.333  13.986
90281W        W55266  11.596   0.604  11.583
90282W        W55267   3.895  25.933  14.820
90283W        W55268  30.481   8.262  13.378
90284W        W55269  21.192  32.127  10.681
90285W        W55270  38.875  39.372   1.852
90286W        W55271  22.006  29.161   2.199
90287W        W55272  42.571  29.703  11.959
90288W        W55273  30.595  28.723   3.321
90289W        W55274  33.499  38.304   0.276
90290W        W55275  23.051  36.151  14.533
90291W        W55276  34.560   5.879  13.999
90292W        W55277   2.204  36.059   2.706
90293W        W55278  38.623   5.896  14.407
90294W        W55279  34.504  20.208   4.881
90295W        W55280   6.597  43.861  11.899
90296W        W55281   0.865  20.270   2.162
90297W        W55282  27.596  14.856   4.537
90298W        W55283  31.406  16.593  11.897
90299W        W55284  36.534   8.212   2.407
90300W        W55285   0.510   9.852  12.532
90301W        W55286  30.414   9.188   1.319
90302W        W55287   0.234  22.217   2.721
90303W        W55288  30.691  17.318  11.949
90304W        W55289  30.530  11.586  11.968
90305W        W55290  23.864  32.471   4.534
90306W        W55291   5.872   6.680  14.911
90307W        W55292  13.383  24.233   1.259
90308W        W55293  35.429  34.263  12.099
90309W        W55294  18.671  21.182   2.042
90310W        W55295  28.391   2.573   3.291
90311W        W55296  32.414  13.674  10.733
90312W        W55297   1.039  28.643  11.543
90313W        W55298   3.991  26.871  14.367
90314W        W55299  36.000  22.320   3.627
90315W        W55300  14.675   4.820   1.304
90316W        W55301  41.543   4.934  13.539
90317W        W55302  18.235  34.962  11.334
90318W        W55303  35.142   0.518  11.103
90319W        W55304  20.722   2.423  12.966
90320W        W55305   6.302  31.364   1.805
90321W        W55306  32.029  33.685  14.908
90322W        W55307  39.906  18.705  10.660
90323W        W55308   4.732  25.176   4.760
90324W        W55309  10.821  38.320  12.879
90325W        W55310  42.911  31.722   0.222
90326W        W55311  13.897  12.607  13.872
90327W        W55312   2.183  11.165  11.932
90328W        W55313  25.170  19.056  14.781
90329W        W55314  41.003  21.862  10.314
90330W        W55315  15.286  10.206  11.426
90331W        W55316  26.434  30.629  13.273
90332W        W55317  32.535  24.685   5.027
90333W        W55318  24.189  10.603   0.630
90334W        W55319   3.985  11.336   1.475
90335W        W55320   2.415  42.889   1.992
90336W        W55321  27.688  43.346  14.911
90337W        W55322   7.690  41.595   4.669
90338W        W55323   7.039   7.426   5.101
90339W        W55324   5.205  34.633  11.932
90340W        W55325  39.178  29.484   4.714
90341W        W55326  35.507  41.045  10.785
90342W        W55327  37.012  37.923   2.329
90343W        W55328  24.167  24.647  12.974
90344W        W55329   4.638   6.684   9.845
90345W        W55330  37.019  14.595   0.714
90346W        W55331  15.242   7.936  13.596
90347W        W55332  28.706  18.031   2.737
90348W        W55333  37.098  19.259   2.239
90349W        W55334  31.958  25.350   1.269
90350W        W55335   1.277  19.180  13.534
90351W        W55336  27.762  22.134   2.821
90352W        W55337   6.443  18.054  11.149
90353W        W55338  41.551  14.464   1.854
90354W        W55339  27.119  29.353  10.272
90355W        W55340  31.032   9.565   3.364
90356W        W55341  27.067  12.659  13.034
90357W        W55342   8.933  39.202  13.621
90358W        W55343  10.164  41.436   5.014
90359W        W55344  22.849  43.364   0.016
90360W        W55345  28.506  15.162   1.318
90361W        W55346   8.206  23.114   4.893
90362W        W55347  21.172  24.977  11.699
90363W        W55348  18.572  23.575   4.440
90364W        W55349  25.056   3.237  12.515
90365W        W55350  37.081  32.441  12.494
90366W        W55351  16.132   6.437  13.509
90367W        W55352  15.762   6.781   1.492
90368W        W55353  38.743  16.162   0.286
90369W        W55354  10.627  20.548  11.988
90370W        W55355  12.306   6.680  12.425
90371W        W55356   9.601  14.570  14.900
90372W        W55357  10.541   8.657   4.073
90373W        W55358  41.968  32.365   4.616
90374W        W55359   0.333  30.105  11.977
90375W        W55360  36.681  17.013  10.796
90376W        W55361  20.733  36.088  11.105
90377W        W55362  19.662  37.151  10.525
90378W        W55363  26.723  44.816   1.179
90379W        W55364  32.985  16.517   4.563
90380W        W55365  32.398  22.303   1.862
90381W        W55366   4.441  27.847  10.790
90382W        W55367  10.582   5.468   0.989
90383W        W55368  37.074  42.991  11.663
90384W        W55369  19.812   4.717  11.962
90385W        W55370  22.843  28.945   1.820
90386W        W55371   2.631  40.445  14.555
90387W        W55372   1.034  41.558  11.020
90388W        W55373  40.049   6.001   4.632
90389W        W55374  22.483  35.790  11.012
90390W        W55375  27.968   2.290  14.791
90391W        W55376  20.719  13.237  12.362
90392W        W55377  18.079  30.393  12.363
90393W        W55378   9.530  15.765   1.755
90394W        W55379   5.874   7.228   2.667
90395W        W55380  16.993  17.425  11.158
90396W        W55381  37.614  38.107  11.285
90397W        W55382  16.091  10.384  14.544
90398W        W55383   8.308  31.018   1.267
90399W        W55384  16.397  38.546   2.724
90400W        W55385  16.209  16.662  12.914
90401W        W55386  19.302  42.563  14.303
90402W        W55387  16.764  14.272   0.948
90403W        W55388  37.209  42.796  13.395
90404W        W55389   6.724  25.882  14.321
90405W        W55390  38.308  25.773   5.072
90406W        W55391  11.375  22.244  10.550
90407W        W55392  43.420  19.855  12.520
90408W        W55393  32.394  24.499  12.196
90409W        W55394  37.467  39.544   2.798
90410W        W55395  20.750  40.959   4.061
90411W        W55396  35.604   0.112  11.807
90412W        W55397   0.043  11.288   1.587
90413W        W55398   6.665  37.323   4.509
90414W        W55399  31.616  36.933  13.950
90415W        W55400  43.264  10.892   0.430
90416W        W55401  18.804  43.387  13.868
90417W        W55402  37.089  43.855   1.008
90418W        W55403  44.852  12.402  13.577
90419W        W55404  39.687  18.359  11.894
90420W        W55405  11.330  28.257  11.035
90421W        W55406  44.614  31.119   2.205
90422W        W55407   3.486  26.611  12.167
90423W        W55408  12.562   1.822   3.675
90424W        W55409  31.083  25.720  12.086
90425W        W55410   3.531  15.695  10.726
90426W        W55411  27.142  30.358   0.760
90427W        W55412  39.515  10.846   0.512
90428W        W55413  23.582  44.734  12.554
90429W        W55414   9.366  43.024  13.292
90430W        W55415  17.131  23.963  13.835
90431W        W55416   0.300   6.197   1.790
90432W        W55417   9.642  10.839  10.379
90433W        W55418   5.796  27.405   3.355
90434W        W55419  33.436   1.472   4.173
90435W        W55420  43.813   8.662   3.341
90436W        W55421   1.377  34.994  12.076
90437W        W55422  27.151  21.790  11.169
90438W        W55423  43.899  17.987   3.266
90439W        W55424  38.441  13.370   0.303
90440W        W55425  43.480  30.411   2.764
90441W        W55426  39.106   2.548  13.460
90442W        W55427   1.750   0.002  12.947
90443W        W55428  21.453  11.410  11.250
90444W        W55429  40.907  44.041  11.053
90445W        W55430  28.143   8.504  10.841
90446W        W55431  12.664  34.052   0.818
90447W        W55432  38.077  38.285   0.045
90448W        W55433  19.757  32.676  10.783
90449W        W55434  38.082  26.657  10.726
90450W        W55435  17.817   8.287  10.717
90451W        W55436  40.756  16.208   3.128
90452W        W55437  31.109   6.708   2.636
90453W        W55438  26.946  30.680  12.649
90454W        W55439   8.591  29.569  11.990
90455W        W55440  37.463  38.849  14.721
90456W        W55441  17.093  43.860  14.879
90457W        W55442  27.999   6.414   1.086
90458W        W55443   1.950  27.217   0.949
90459W        W55444   8.059   3.118   2.321
90460W        W55445  37.311  44.323   0.893
90461W        W55446   5.318  40.280   4.812
90462W        W55447  42.525  34.651  14.012
90463W        W55448  37.715  13.613  10.616
90464W        W55449  15.310   7.773  14.542
90465W        W55450  37.862  22.298   1.825
90466W        W55451  36.875  12.916  13.469
90467W        W55452   1.420   8.074   3.686
90468W        W55453   6.702  28.139  10.700
90469W        W55454  36.294  42.373  14.422
90470W        W55455  31.726  29.588   5.044
90471W        W55456  18.612  29.750  13.939
90472W        W55457  11.257  19.425  14.725
90473W        W55458  17.309  22.267   3.189
90474W        W55459  37.287  37.818  12.619
90475W        W55460  13.806  28.220   2.798
90476W        W55461   5.467  42.911   4.693
90477W        W55462  32.178  29.938  14.376
90478W        W55463   8.166  11.775   4.637
90479W        W55464  16.295  22.934  14.178
90480W        W55465   3.748  36.285  13.395
90481W        W55466   1.823  20.056  14.987
90482W        W55467   8.663   2.962  13.171
90483W        W55468  13.764  34.974   2.817
90484W        W55469  16.319  44.507   2.924
90485W        W55470  23.992  43.317  11.633
90486W        W55471  20.644  18.504  13.209
90487W        W55472   9.448   4.244   4.103
90488W        W55473  20.543   0.319  11.033
90489W        W55474  19.617  24.567  12.374
90490W        W55475   7.533  16.858   4.249
90491W        W55476  31.519  36.046   3.036
90492W        W55477   6.925  20.572   4.580
90493W        W55478  40.308  31.248   0.195
90494W        W55479   9.156  15.820  13.316
90495W        W55480  23.518   9.351   2.897
90496W        W55481  44.085  24.361   9.792
90497W        W55482   7.830  44.539   3.355
90498W        W55483   8.834  34.566  11.441
90499W        W55484  42.572  39.365  14.057
90500W        W55485  41.901  15.105   5.017
90501W        W55486  29.546  15.082   3.861
90502W        W55487  22.083   4.840  13.747
90503W        W55488  11.607   7.198  11.785
90504W        W55489  15.353  21.687   2.083
90505W        W55490  37.554  25.915  10.981
90506W        W55491  41.025  20.104  12.704
90507W        W55492  32.849  32.028   9.830
90508W        W55493   8.685  18.048  12.992
90509W        W55494  39.528  39.865  14.280
90510W        W55495  26.982  24.751  13.946
90511W        W55496  43.689  21.242   0.401
90512W        W55497  41.898  38.392   3.797
90513W        W55498  14.680  21.878  11.102
90514W        W55499   5.221  44.513  11.512
90515W        W55500  41.268   2.468   2.851
90516W        W55501  12.072   3.618  12.581
90517W        W55502  41.523  29.214   4.888
90518W        W55503  39.499  16.695   1.333
90519W        W55504  30.373  32.976  12.525
90520W        W55505  19.654  23.703  11.382
90521W        W55506  35.278   7.712  13.881
90522W        W55507  26.635  38.419  14.551
90523W        W55508  16.759  40.440  13.278
90524W        W55509  39.155  29.537   0.443
90525W        W55510  22.109  18.510   3.305
90526W        W55511   6.769  19.709   1.893
90527W        W55512  35.685  27.234  12.138
90528W        W55513  39.395   9.887  11.787
90529W        W55514  29.165  27.339  11.228
90530W        W55515  22.313  44.803  11.715
90531W        W55516  16.636  29.145   5.747
90532W        W55517   9.445  32.912  10.594
90533W        W55518  33.844   9.769   0.402
90534W        W55519  23.653   9.785   2.635
90535W        W55520   6.172  14.927  12.095
90536W        W55521  22.092  35.756   1.988
90537W        W55522  31.383  14.110   2.812
90538W        W55523  26.995  11.505  11.562
90539W        W55524  39.824   3.199   3.228
90540W        W55525  11.607  41.799  11.938
90541W        W55526   2.073   5.205   1.970
90542W        W55527  36.095  11.919   5.739
90543W        W55528  30.602  16.608   2.707
90544W        W55529  32.973  39.097   1.759
90545W        W55530  24.568   1.503   4.206
90546W        W55531  15.935  16.000   1.519
90547W        W55532  33.944  38.723   2.695
90548W        W55533  32.191   3.022   3.331
90549W        W55534  41.752  36.908  11.371
90550W        W55535  11.832   4.424   4.059
90551W        W55536  12.883  36.367  13.317
90552W        W55537  12.656  24.614  11.151
90553W        W55538  24.571  35.348  14.344
90554W        W55539  41.387   0.579  14.410
90555W        W55540  44.833   2.672  13.988
90556W        W55541  28.122  29.666   3.660
90557W        W55542  27.277  13.171   4.506
90558W        W55543   6.123  33.143  12.848
90559W        W55544  17.714  39.815  10.790
90560W        W55545  34.057   1.636   3.903
90561W        W55546   8.774  13.104   3.748
90562W        W55547   0.965   9.708  10.017
90563W        W55548  41.725   3.833  13.991
90564W        W55549  20.047  30.416  10.751
90565W        W55550  27.533  16.750   0.431
90566W        W55551   3.898  24.045  14.355
90567W        W55552  32.867  32.120   4.239
90568W        W55553  32.846  30.905  14.062
90569W        W55554  19.382  10.063   1.935
90570W        W55555   3.272  34.958  13.338
90571W        W55556  14.877  31.056   2.643
90572W        W55557  30.572  38.431  10.556
90573W        W55558  33.828   5.725  14.282
90574W        W55559  12.635  36.965   3.388
90575W        W55560   9.362  32.464   3.292
90576W        W55561  25.186  43.862   3.304
90577W        W55562  44.484  33.016   3.835
90578W        W55563  20.169  41.913   2.146
90579W        W55564  37.597   3.190  12.103
90580W        W55565  10.658  27.397   1.417
90581W        W55566  11.544  27.948  13.892
90582W        W55567  44.467   9.817  12.493
90583W        W55568   7.857  32.574   1.839
90584W        W55569  27.456  15.906  12.341
90585W        W55570  15.223  43.494  11.092
90586W        W55571  15.331  28.661  14.019
90587W        W55572  20.358   6.736  11.974
90588W        W55573  22.698  21.500   2.764
90589W        W55574  36.324   0.307   0.341
90590W        W55575  16.421  32.275  12.079
90591W        W55576   6.514   1.787  14.763
90592W        W55577  29.310  16.054   3.374
90593W        W55578  11.420  31.419   1.254
90594W        W55579   5.804  10.747   3.569
90595W        W55580  27.176  32.005  12.365
90596W        W55581  36.608  21.299  11.872
90597W        W55582   3.177  20.994   3.037
90598W        W55583  35.494   1.700  14.580
90599W        W55584  19.260  25.332  14.373
90600W        W55585  41.896  20.482   1.816
90601W        W55586  30.023  34.923  12.959
90602W        W55587  30.536  21.561   3.922
90603W        W55588  31.511  25.178   1.456
90604W        W55589  36.031  10.382   2.839
90605W        W55590  21.017   3.279  12.602
90606W        W55591  12.566  44.556  11.141
90607W        W55592  28.035  11.540  10.767
90608W        W55593  16.523  10.720   2.513
90609W        W55594  13.856  44.597  14.482
90610W        W55595  20.485  33.464   1.315
90611W        W55596   1.980   8.509  11.278
90612W        W55597  35.822   7.544  13.861
90613W        W55598  33.622   4.413   4.772
90614W        W55599  23.326  17.148  11.470
90615W        W55600  43.054  19.894  10.664
90616W        W55601  11.406  31.202   4.756
90617W        W55602  41.750   0.760   4.547
90618W        W55603  35.081  35.489  12.445
90619W        W55604  13.061  21.045  10.919
90620W        W55605  38.088   5.167  12.509
90621W        W55606  21.479  18.343  12.564
90622W        W55607  43.946  39.789   0.398
90623W        W55608   0.446  27.579  14.443
90624W        W55609  42.008   2.874  13.870
90625W        W55610   2.887  39.124   4.310
90626W        W55611  12.289  10.177  13.543
90627W        W55612  11.662  22.087   4.131
90628W        W55613  26.087  36.730  12.038
90629W        W55614  29.256  32.410  14.043
90630W        W55615  18.790  34.379   2.232
90631W        W55616  15.750   6.013   3.210
90632W        W55617  36.385   2.885   2.438
90633W        W55618   5.199  10.638   1.236
90634W        W55619  30.902  34.150  14.823
90635W        W55620   1.059   3.764  13.341
90636W        W55621  40.956  21.465   3.600
90637W        W55622   2.161  33.958  11.538
90638W        W55623  33.893   9.092   2.361
90639W        W55624  22.355  19.832   1.216
90640W        W55625   9.623  12.531  12.047
90641W        W55626  41.593  44.389   3.893
90642W        W55627  24.553  12.802   4.161
90643W        W55628  41.606   8.197  12.376
90644W        W55629  12.842   4.811  12.970
90645W        W55630   8.245  14.502   4.728
90646W        W55631  11.152  22.777   1.782
90647W        W55632   4.261  44.227  12.571
90648W        W55633   9.324  26.148   1.344
90649W        W55634  20.756  22.200   4.656
90650W        W55635  16.400   1.971  11.951
90651W        W55636  43.334   4.960  12.940
90652W        W55637   8.749   0.710   1.245
90653W        W55638  40.313  33.209  12.540
90654W        W55639  38.485  27.220   0.699
90655W        W55640  26.475  22.820   0.473
90656W        W55641  25.600  13.179   2.127
90657W        W55642  21.206  24.895  12.204
90658W        W55643  23.268  15.034  14.975
90659W        W55644   1.485  20.635   3.048
90660W        W55645  20.489  24.937   0.343
90661W        W55646  32.447  25.062   3.835
90662W        W55647  15.612   1.262  13.455
90663W        W55648  23.184  29.370   0.895
90664W        W55649  14.603  12.261   4.696
90665W        W55650  35.009  44.496   4.121
90666W        W55651  31.157   9.250   2.432
90667W        W55652  21.945  41.421   4.258
90668W        W55653  30.423  42.888   4.637
90669W        W55654  32.813  27.163   0.278
90670W        W55655  29.994  32.471   0.929
90671W        W55656  13.066  35.063   0.675
90672W        W55657   1.202  30.145   4.125
90673W        W55658  41.020  15.929  10.072
90674W        W55659  28.072  43.262   4.655
90675W        W55660  34.162  35.515  11.414
90676W        W55661  34.488  32.251   3.167
90677W        W55662  15.379  34.008   2.910
90678W        W55663   1.108   1.136   5.163
90679W        W55664   3.334  42.865  13.634
90680W        W55665  33.034  34.897   1.136
90681W        W55666  33.332  36.179  12.507
90682W        W55667  29.213  28.684  11.715
90683W        W55668  20.149  26.675  14.670
90684W        W55669   2.349   3.298   2.783
90685W        W55670  22.963  19.236   4.520
90686W        W55671  25.420   3.023  10.748
90687W        W55672  28.188  37.805  11.187
90688W        W55673   3.258   5.347   2.119
90689W        W55674   0.369   7.321   1.295
90690W        W55675   2.978  30.390  10.729
90691W        W55676   5.345  11.901  13.504
90692W        W55677  20.752   9.833  10.676
90693W        W55678  26.010  28.420  13.578
90694W        W55679  44.339  21.782  12.949
90695W        W55680   4.368  26.178  13.925
90696W        W55681  13.840  42.981   1.985
90697W        W55682  16.312  33.827  14.824
90698W        W55683  15.588  35.596   4.658
90699W        W55684   8.121  40.793  12.104
90700W        W55685   5.268   1.325   0.192
90701W        W55686  33.405  40.551  13.831
90702W        W55687   0.720  23.593   4.649
90703W        W55688  18.859  28.125   3.772
90704W        W55689   5.504  10.732  14.395
90705W        W55690  42.509  41.550  12.460
90706W        W55691  27.687  38.848   0.924
90707W        W55692  25.582   3.219  12.988
90708W        W55693  24.217   5.310   1.522
90709W        W55694  44.932  17.669   9.798
90710W        W55695  36.269  29.918  12.147
90711W        W55696  21.114  17.776   1.482
90712W        W55697   4.611  20.477  11.128
90713W        W55698  30.001  18.011   1.254
90714W        W55699   7.307  28.055   4.576
90715W        W55700   8.138  41.524  13.470
90716W        W55701  22.979   4.772   3.413
90717W        W55702  28.523   6.440  10.657
90718W        W55703  44.314  16.021   3.222
90719W        W55704   3.380  44.168  12.369
90720W        W55705  13.771  44.464   2.394
90721W        W55706  14.286  13.855   0.803
90722W        W55707   0.728  21.625   1.901
90723W        W55708  25.672  42.779   2.765
90724W        W55709  15.222  32.437  11.835
90725W        W55710   6.247  41.196  10.825
90726W        W55711  44.862  33.524   1.436
90727W        W55712  43.848  28.203   3.940
90728W        W55713   3.635  39.038  10.052
90729W        W55714  43.484  39.350  11.356
90730W        W55715  14.607  23.096  14.442
90731W        W55716   0.481  18.762  10.531
90732W        W55717  30.004  15.559  14.745
90733W        W55718  42.823  26.568   1.290
90734W        W55719  41.017  27.088   0.398
90735W        W55720  18.109  25.587   2.221
90736W        W55721  23.203   7.273  12.933
90737W        W55722   0.494  25.233   2.544
90738W        W55723   6.217  36.820  12.618
90739W        W55724  29.963  30.234  14.030
90740W        W55725  24.160  14.983  14.919
90741W        W55726  21.528  29.047  10.816
90742W        W55727  28.496  41.596  11.556
90743W        W55728  33.815  27.933   0.287
90744W        W55729  13.933  29.428   0.278
90745W        W55730  39.792  32.406   3.661
90746W        W55731   5.417  16.545   0.325
90747W        W55732   4.291  24.891  12.421
90748W        W55733  31.578   5.348  12.170
90749W        W55734  10.815  26.479  11.133
90750W        W55735  33.230  29.153   0.312
90751W        W55736  34.423  17.774   1.205
90752W        W55737   2.458   9.102   5.010
90753W        W55738  20.487  27.088   1.884
90754W        W55739  32.536  15.005  12.478
90755W        W55740   2.499   6.397  14.651
90756W        W55741  20.248   9.461  14.383
90757W        W55742   3.906  10.191   0.907
90758W        W55743  12.767  42.117  14.308
90759W        W55744  16.067  21.612  13.212
90760W        W55745  35.969  43.867  12.015
90761W        W55746  42.657  33.308   4.000
90762W        W55747  34.845  26.187  12.455
90763W        W55748  35.494  14.363   0.949
90764W        W55749  24.852  26.607   0.832
90765W        W55750   5.905  21.352   0.317
90766W        W55751   0.701  22.536   1.991
90767W        W55752   2.140  15.879   4.155
90768W        W55753  41.224   5.791   0.320
90769W        W55754   3.147  13.217   3.747
90770W        W55755  19.218  24.666   1.439
90771W        W55756  10.433  11.397   3.969
90772W        W55757   6.411   7.053   0.188
90773W        W55758  13.305   9.900   2.855
90774W        W55759  13.901  17.217  13.035
90775W        W55760  41.211  22.649   0.801
90776W        W55761  19.766  34.535  12.037
90777W        W55762  30.831  20.680  13.650
90778W        W55763   2.169  16.054  14.250
90779W        W55764  42.957  42.807  14.714
90780W        W55765  14.188   0.742   2.187
90781W        W55766  23.506  35.485  11.698
90782W        W55767  36.738   1.854   5.220
90783W        W55768  32.652  12.232  13.819
90784W        W55769  11.053  18.573   0.766
90785W        W55770  24.984  11.762   1.879
90786W        W55771  36.976  35.400  14.183
90787W        W55772  16.824  23.495  12.983
90788W        W55773  24.243  33.361   3.173
90789W        W55774   9.106  10.639  12.999
90790W        W55775  27.693  28.816  10.977
90791W        W55776  39.289  38.497  12.668
90792W        W55777  12.813  37.063   0.465
90793W        W55778  44.595  18.517   1.489
90794W        W55779  40.961   7.700  12.470
90795W        W55780   1.839  29.695   3.627
90796W        W55781   5.616  39.618   0.455
90797W        W55782  32.367  13.701  14.997
90798W        W55783  13.579  10.185   1.193
90799W        W55784  22.602  39.371   3.700
90800W        W55785   2.690  32.575  13.983
90801W        W55786   1.847  24.745   4.528
90802W        W55787  38.547  37.985   2.916
90803W        W55788  26.615  29.834  12.604
90804W        W55789   4.483  37.301  11.302
90805W        W55790   7.437  26.113  14.276
90806W        W55791  33.681  14.640  14.314
90807W        W55792  35.097  20.436  11.987
90808W        W55793  42.272  16.448   3.694
90809W        W55794   1.256   5.852   0.688
90810W        W55795  44.527  31.072   3.308
90811W        W55796  35.481  35.316   1.808
90812W        W55797  15.134  21.076  12.346
90813W        W55798  12.211   2.605  14.932
90814W        W55799  15.644  44.561   3.702
90815W        W55800   0.970  23.271  13.973
90816W        W55801  16.777  43.450   1.286
90817W        W55802  42.497  26.497  14.826
90818W        W55803  10.419  11.116  10.327
90819W        W55804  28.080   8.636   4.728
90820W        W55805  23.082  31.609   4.753
90821W        W55806  20.242  44.806   0.965
90822W        W55807  43.432  42.098   2.375
90823W        W55808   7.702  30.425  11.909
90824W        W55809  35.592  20.730   2.588
90825W        W55810   1.727  20.248   2.633
90826W        W55811  36.369  27.519   1.738
90827W        W55812  25.058  23.618  14.349
90828W        W55813  44.486  17.122   1.046
90829W        W55814  20.674  19.033  12.025
90830W        W55815  25.871  23.265  14.865
90831W        W55816  22.237  44.447   3.128
90832W        W55817  15.380  26.998  14.108
90833W        W55818  23.480  18.999  10.469
90834W        W55819  29.160  22.629  14.867
90835W        W55820   9.068  41.848  12.455
90836W        W55821  15.686  29.265   3.958
90837W        W55822  36.293  27.046  10.574
90838W        W55823  31.699  31.398  13.143
90839W        W55824   4.196  31.063  11.913
90840W        W55825  14.482  44.409   0.444
90841W        W55826  27.708  10.171  11.620
90842W        W55827  43.977  25.356   1.972
90843W        W55828   5.430  18.143  10.270
90844W        W55829   6.931  36.088   1.307
90845W        W55830  13.096  20.845   2.370
90846W        W55831  35.432  14.268  14.882
90847W        W55832  42.561   1.181   1.166
90848W        W55833  17.248  22.136  12.488
90849W        W55834  43.380  17.537   2.783
90850W        W55835  37.791  28.053   2.368
90851W        W55836   8.035  21.086   0.520
90852W        W55837  27.548  17.856   2.757
90853W        W55838  11.349  27.081   3.260
90854W        W55839  27.545  12.918   1.353
90855W        W55840  39.816  44.143   1.258
90856W        W55841  38.871   5.913  13.956
90857W        W55842   4.503  38.295  13.085
90858W        W55843  33.417  41.918  13.434
90859W        W55844  41.550  29.164  14.407
90860W        W55845  17.693  20.049   0.041
90861W        W55846  12.183   1.887   0.189
90862W        W55847  34.375  13.421  10.696
90863W        W55848  21.560  32.148  13.000
90864W        W55849  28.969  37.508  14.071
90865W        W55850  16.684  34.035  12.057
90866W        W55851  37.860  22.240   2.676
90867W        W55852  14.846   8.936  12.435
90868W        W55853  18.275  19.027  13.869
90869W        W55854  26.790  22.100  10.535
90870W        W55855  40.697  11.151   0.141
90871W        W55856  30.631  17.181   3.403
90872W        W55857  13.618  43.666  11.623
90873W        W55858  44.770   9.879  13.347
90874W        W55859  12.644   0.987   0.824
90875W        W55860  29.116  19.718   0.912
90876W        W55861  28.372  39.932   3.258
90877W        W55862  39.107   1.477   3.435
90878W        W55863  33.466   5.692  14.678
90879W        W55864  36.807  25.767  11.002
90880W        W55865  36.715  42.779  13.576
90881W        W55866  12.207  30.657  13.218
90882W        W55867  37.845  18.303  12.413
90883W        W55868  38.404  28.222  13.405
90884W        W55869  43.884  32.580   4.440
90885W        W55870  23.001  25.270   2.896
90886W        W55871  17.129  26.212  12.964
90887W        W55872  17.813   0.222   1.069
90888W        W55873  43.434  42.053   3.758
90889W        W55874  14.141  39.232  11.195
90890W        W55875   7.871   5.786   0.677
90891W        W55876  43.988  18.643  10.484
90892W        W55877   8.618  34.113  12.988
90893W        W55878  12.927  17.315   3.691
90894W        W55879  23.582  32.597   3.115
90895W        W55880  21.688  27.536  12.366
90896W        W55881  25.010  26.578   3.695
90897W        W55882   9.023  28.582  11.168
90898W        W55883   2.142  33.430   4.131
90899W        W55884  17.687  38.554   0.704
90900W        W55885   0.246  24.703  13.832
90901W        W55886  12.766  33.438  11.552
90902W        W55887  14.702  43.361  12.976
90903W        W55888  35.901  26.651   3.551
90904W        W55889  17.077  32.072   3.317
90905W        W55890  43.438  24.538   1.597
90906W        W55891  27.727   2.924   2.742
90907W        W55892   8.764  35.925  13.561
90908W        W55893  19.356  32.006   2.618
90909W        W55894  32.172  36.863  11.910
90910W        W55895  17.376  32.059   2.886
90911W        W55896  34.414  22.702   2.875
90912W        W55897  31.949  12.107  14.888
90913W        W55898  25.705  39.347   4.128
90914W        W55899  37.338   9.951  11.793
90915W        W55900  31.686  31.103   0.510
90916W        W55901  43.028  32.973   3.223
90917W        W55902  15.231  13.229  14.777
90918W        W55903  39.341  18.917   4.273
90919W        W55904  24.682  44.982   1.453
90920W        W55905  37.573  23.715   0.369
90921W        W55906  34.453   7.011   0.376
90922W        W55907  33.532  44.976   3.149
90923W        W55908  12.228   0.462   4.832
90924W        W55909   6.600  32.817   3.779
90925W        W55910  19.966  27.048   0.819
90926W        W55911   4.337   5.297  11.871
90927W        W55912  12.033  24.226   1.816
90928W        W55913  39.604   1.378  13.777
90929W        W55914  14.069  17.195  14.401
90930W        W55915  39.007  32.003  13.844
90931W        W55916   8.312  21.939  13.033
90932W        W55917  29.001  19.983  14.874
90933W        W55918   9.304  30.674   1.325
90934W        W55919  14.238  18.692   0.605
90935W        W55920   5.300  11.232  12.316
90936W        W55921  24.441  13.184  14.825
90937W        W55922  21.615  33.504  12.661
90938W        W55923  30.786  26.718  12.671
90939W        W55924  35.705   1.434  11.731
90940W        W55925   2.249   9.314   3.694
90941W        W55926  25.550  24.716  13.082
90942W        W55927  35.375  44.276  14.128
90943W        W55928  18.130  31.749   2.640
90944W        W55929  27.078  21.250  12.499
90945W        W55930  37.079  15.135  12.942
90946W        W55931  25.005  11.832   3.227
90947W        W55932   3.185   3.940  10.475
90948W        W55933   7.662  11.361  14.373
90949W        W55934  22.342  25.915  13.001
90950W        W55935  40.300  11.692   5.416
90951W        W55936  30.814  20.592   5.014
90952W        W55937  37.841  32.923   2.015
90953W        W55938  27.799  27.233  12.588
90954W        W55939   0.591  33.700   2.449
90955W        W55940  10.191  14.558  12.999
90956W        W55941   3.169   0.437   4.416
90957W        W55942  33.362   7.485  11.540
90958W        W55943   0.277   7.690  12.944
90959W        W55944  17.681  30.950  13.014
90960W        W55945  29.145  18.135   0.846
90961W        W55946  29.638   6.382  14.299
90962W        W55947   9.377  29.427   3.097
90963W        W55948  39.098   5.012   4.753
90964W        W55949  26.510  26.511   1.412
90965W        W55950  23.222  20.635  12.345
90966W        W55951  36.941  23.775  11.259
90967W        W55952  18.552   3.766   3.646
90968W        W55953   9.359  19.038  11.962
90969W        W55954   6.289  44.928   3.157
90970W        W55955  27.102  37.480   3.577
90971W        W55956   1.192  17.720  11.157
90972W        W55957  43.276  26.017   3.049
90973W        W55958  44.203  11.830  14.824
90974W        W55959  29.211  35.913   3.244
90975W        W55960  34.042  40.440   4.360
90976W        W55961  31.580  30.353  13.381
90977W        W55962   6.669  27.886  11.728
90978W        W55963   0.379  30.718  13.063
90979W        W55964  18.283  13.835   3.128
90980W        W55965  21.700  29.361  14.535
90981W        W55966  25.601  44.675  13.534
90982W        W55967  32.552  30.606   0.377
90983W        W55968  31.057   7.275  11.653
90984W        W55969  33.844  35.499  13.744
90985W        W55970  37.392   2.127   4.323
90986W        W55971  25.678   0.255   5.175
90987W        W55972  24.199  37.816   4.529
90988W        W55973  37.926  37.659   2.194
90989W        W55974  43.344  30.540   0.297
90990W        W55975  24.560  35.903  12.478
90991W        W55976  41.966  41.586   1.155
90992W        W55977   3.065  33.327   2.329
90993W        W55978   8.387  13.770  11.581
90994W        W55979  28.737  41.853  14.566
90995W        W55980  29.440  33.970   0.296
90996W        W55981  18.071  14.163  11.094
90997W        W55982  43.847   4.223   0.923
90998W        W55983  37.342  41.906   1.942
90999W        W55984  22.433  32.424   2.177
91000W        W55985  20.508   3.216  12.504
91001W        W55986   5.258  26.465  13.455
91002W        W55987  26.988   9.973  13.981
91003W        W55988  36.014  38.888   0.973
91004W        W55989   3.985  19.320   3.589
91005W        W55990   7.071  11.282   0.487
91006W        W55991  39.538  19.258  11.509
91007W        W55992  23.591   2.869   4.715
91008W        W55993  31.675  18.572  14.124
91009W        W55994   5.691  27.455  12.891
91010W        W55995  36.391  29.463  10.918
91011W        W55996  44.940  30.979  11.530
91012W        W55997  44.948  23.347   4.228
91013W        W55998  28.410  25.403   3.166
91014W        W55999   3.277  16.342  11.999
91015W        W56000  30.754  31.453  10.436
91016W        W56001  19.968  41.302   3.756
91017W        W56002  33.815  41.805   3.680
91018W        W56003  32.508  23.184   0.940
91019W        W56004  30.472   1.344  12.900
91020W        W56005  36.444  20.414  14.275
91021W        W56006   7.844  16.141  13.561
91022W        W56007  16.200  34.205   4.567
91023W        W56008  24.707  39.993  11.882
91024W        W56009  15.874  40.213  14.888
91025W        W56010   9.606   1.313   0.870
91026W        W56011  24.456  28.017   1.876
91027W        W56012  40.161  14.662   0.285
91028W        W56013   7.190  13.679   0.412
91029W        W56014  15.659  17.814   0.269
91030W        W56015  31.195  36.781   2.651
91031W        W56016   2.390   3.264   0.921
91032W        W56017   4.955  17.925  10.233
91033W        W56018  15.080  11.534   0.365
91034W        W56019  43.931   4.885  11.803
91035W        W56020  40.344  41.283  10.675
91036W        W56021  18.723  39.145  10.833
91037W        W56022  37.959  18.424  11.904
91038W        W56023  15.958  26.501   1.796
91039W        W56024  42.881  34.662  11.720
91040W        W56025  27.565  20.677  12.755
91041W        W56026  16.025   4.572   4.715
91042W        W56027  31.186  28.205  10.729
91043W        W56028  41.585  37.169  14.861
91044W        W56029   7.332  16.317   1.912
91045W        W56030   4.483  15.065   2.212
91046W        W56031  20.613  13.859   1.203
91047W        W56032   8.614   6.990   2.274
91048W        W56033  37.488   8.254  12.600
91049W        W56034  17.956  21.789  12.576
91050W        W56035  22.852  13.098   2.777
91051W        W56036  42.305   0.286   3.161
91052W        W56037  25.620   4.361   1.768
91053W        W56038  37.512   8.663  12.160
91054W        W56039  33.506  17.999   1.863
91055W        W56040  14.239  12.037   0.248
91056W        W56041  27.681  25.045  11.554
91057W        W56042  35.220  40.319  11.637
91058W        W56043  30.873   5.485   4.869
91059W        W56044  14.965  38.466  13.741
91060W        W56045  14.145  29.954   2.723
91061W        W56046  43.706  12.683  14.530
91062W        W56047   4.293  17.512  13.387
91063W        W56048  40.020  14.586  11.817
91064W        W56049   5.919  22.872  14.460
91065W        W56050  20.701  41.843   3.501
91066W        W56051  22.527   2.255   3.097
91067W        W56052   4.209  35.940   3.694
91068W        W56053  34.516  30.782  13.052
91069W        W56054  28.521  18.160   4.148
91070W        W56055  18.063  16.499  11.036
91071W        W56056  16.013  40.258   4.024
91072W        W56057  39.603  32.305  13.387
91073W        W56058   5.755  24.107   3.818
91074W        W56059  33.702  44.678   3.561
91075W        W56060  29.513  34.684  12.905
91076W        W56061   1.753  15.909  13.941
91077W        W56062   1.291  42.045  10.831
91078W        W56063   1.347   4.962  13.194
91079W        W56064  36.021  26.053  14.400
91080W        W56065  39.769   1.721   3.571
91081W        W56066  44.968  42.805  14.280
91082W        W56067   9.304  23.483  13.859
91083W        W56068  27.838   5.139   2.312
91084W        W56069  40.309   2.351   4.183
91085W        W56070  43.066   5.646   3.195
91086W        W56071   5.037   5.494  13.883
91087W        W56072  42.057   8.782   3.390
91088W        W56073   4.460  32.943   2.155
91089W        W56074  28.006  31.108  14.944
91090W        W56075  41.325   9.487   4.870
91091W        W56076  44.027  11.663  13.457
91092W        W56077  18.304  11.902  14.055
91093W        W56078   5.975  18.255  11.187
91094W        W56079  30.956  36.749   0.830
91095W        W56080  44.986  35.390  12.363
91096W        W56081  31.110   7.154   2.254
91097W        W56082  32.811   2.201   3.613
91098W        W56083  34.996  36.344  11.946
91099W        W56084  13.898   7.389   0.940
91100W        W56085  43.446  39.460   3.245
91101W        W56086  39.956  28.569   2.087
91102W        W56087  37.775  19.683   5.001
91103W        W56088  28.530  37.766   1.344
91104W        W56089  40.487  33.407   1.325
91105W        W56090  31.650  36.752   2.427
91106W        W56091  37.820  28.335  11.185
91107W        W56092   7.303  43.530   1.758
91108W        W56093  12.920   0.796   2.665
91109W        W56094  18.140   3.297   3.223
91110W        W56095  43.101   3.784  10.315
91111W        W56096  14.738  13.862   3.728
91112W        W56097  25.225  22.246  11.337
91113W        W56098  16.695  42.018   3.078
91114W        W56099  19.142  10.705   3.839
91115W        W56100   5.762  36.612  12.922
91116W        W56101  20.460   0.791  13.041
91117W        W56102  30.402  17.673  14.704
91118W        W56103  35.940  43.481  12.989
91119W        W56104   3.638  24.637  11.161
91120W        W56105  27.497   2.018  10.820
91121W        W56106  24.061   9.758  10.913
91122W        W56107  40.881   9.488   4.459
91123W        W56108  14.152  22.765   0.874
91124W        W56109   7.214  39.668   4.582
91125W        W56110  17.003   1.850   0.816
91126W        W56111   0.959  11.607  13.050
91127W        W56112  38.440  18.059   0.034
91128W        W56113   2.891  29.748   2.815
91129W        W56114  24.525   2.533  10.337
91130W        W56115  15.094  16.740   1.733
91131W        W56116  12.416  40.442   3.749
91132W        W56117   0.904  22.671   0.484
91133W        W56118  36.020  38.859  11.373
91134W        W56119   1.880   5.983   1.419
91135W        W56120  23.567  34.999  11.405
91136W        W56121   1.909  22.021   0.541
91137W        W56122  24.987  44.668  14.667
91138W        W56123  14.762  15.293  13.822
91139W        W56124  35.596  28.928  14.454
91140W        W56125  37.786  18.291   2.316
91141W        W56126  21.260   9.082   3.082
91142W        W56127   3.752   1.471   4.097
91143W        W56128  23.221   1.287   4.735
91144W        W56129  18.660  21.715  14.394
91145W        W56130   6.182  43.745   0.937
91146W        W56131  29.473  30.483   5.070
91147W        W56132   1.296  32.322  14.912
91148W        W56133  15.535   9.349   4.790
91149W        W56134   9.183  36.025   0.480
91150W        W56135  44.382   0.014   3.196
91151W        W56136  43.572  25.549  11.509
91152W        W56137  22.699  37.053   3.776
91153W        W56138  15.850  31.707  11.803
91154W        W56139  15.970   2.752   4.087
91155W        W56140  33.425  11.613  11.535
91156W        W56141   6.185  34.581   0.732
91157W        W56142  31.816   3.178  14.186
91158W        W56143  37.895  17.330   0.477
91159W        W56144   6.980   7.811  12.456
91160W        W56145  33.563  28.870   4.027
91161W        W56146  36.512  24.237  10.424
91162W        W56147   8.717  43.421  12.800
91163W        W56148  40.804  23.046   2.337
91164W        W56149  27.841  13.413   1.242
91165W        W56150  15.299  34.096   4.457
91166W        W56151  13.490  32.327  12.801
91167W        W56152  20.881  15.682  12.169
91168W        W56153  42.439  15.803  12.424
91169W        W56154   2.497  44.999  11.062
91170W        W56155  38.945   1.298   2.378
91171W        W56156  41.253   1.175   0.936
91172W        W56157   7.364   3.865   1.161
91173W        W56158  17.005  21.511   2.824
91174W        W56159  26.723  44.812   2.867
91175W        W56160  16.990  36.476  14.852
91176W        W56161   9.116  36.567   4.588
91177W        W56162  13.886  38.089   3.581
91178W        W56163  36.162  29.607   0.490
91179W        W56164  10.734   4.760  14.543
91180W        W56165  29.327  12.566   3.233
91181W        W56166  32.669   3.155  14.133
91182W        W56167  14.884  31.088   3.137
91183W        W56168  24.394  22.724   3.442
91184W        W56169   8.308  33.757   4.995
91185W        W56170  15.441   7.865  11.063
91186W        W56171   4.008  30.708   4.143
91187W        W56172  38.020   0.405   1.789
91188W        W56173  12.194  35.113   3.190
91189W        W56174   8.540  27.223  11.242
91190W        W56175  34.893  32.618  14.056
91191W        W56176  10.763  26.177  12.400
91192W        W56177  27.744  13.127  14.871
91193W        W56178  13.780   3.935   1.800
91194W        W56179  24.159  26.862   5.133
91195W        W56180  24.520  35.098  13.005
91196W        W56181  34.902  30.737  14.229
91197W        W56182  17.255  28.924   1.722
91198W        W56183  44.472  44.228   0.381
91199W        W56184  13.225   4.420   0.909
91200W        W56185  22.515   8.455  11.712
91201W        W56186  11.023  20.321  11.735
91202W        W56187   6.671  16.682   1.416
91203W        W56188  34.013   5.362  12.680
91204W        W56189  24.160  13.085   2.447
91205W        W56190  42.743  34.475   3.202
91206W        W56191  29.185  35.076  11.163
91207W        W56192   4.766  29.042  12.566
91208W        W56193   4.845  15.085  13.743
91209W        W56194  21.997   8.763   1.292
91210W        W56195  12.931  34.603   2.316
91211W        W56196  41.594  32.327   0.646
91212W        W56197  23.561  15.396  13.180
91213W        W56198  31.905  36.455   1.728
91214W        W56199  43.577  11.233  12.110
91215W        W56200  35.567  29.393  14.181
91216W        W56201  30.152  32.971  14.768
91217W        W56202  34.189  40.817   1.922
91218W        W56203  39.695  33.346   3.742
91219W        W56204  17.145  43.809   2.300
91220W        W56205  10.236  25.464   4.014
91221W        W56206  34.841  10.922  10.806
91222W        W56207  17.248  24.072  10.285
91223W        W56208  12.892  16.587  10.817
91224W        W56209  31.318  31.645   1.681
91225W        W56210  17.623  43.239   3.899
91226W        W56211   7.006  35.325   2.824
91227W        W56212   7.120  43.681  13.747
91228W        W56213  24.479   0.433  14.614
91229W        W56214  32.229  13.250   5.271
91230W        W56215  24.101  23.478  12.113
91231W        W56216   6.221  34.372  14.739
91232W        W56217   4.753  19.719   9.824
91233W        W56218   4.956  27.900  10.952
91234W        W56219  27.659  44.467  12.162
91235W        W56220  18.129   9.821   1.326
91236W        W56221  34.268   4.717   0.427
91237W        W56222   0.207   3.829  11.738
91238W        W56223   7.862  38.292  13.980
91239W        W56224  41.542  29.951   0.374
91240W        W56225  34.530  30.016  12.504
91241W        W56226  17.220  33.841   2.795
91242W        W56227  25.596  23.418  11.986
91243W        W56228  36.837   9.208  13.914
91244W        W56229  12.863  30.080   3.150
91245W        W56230  10.201  30.411   0.404
91246W        W56231  11.967  37.678   0.434
91247W        W56232   7.158  44.015   2.838
91248W        W56233  10.759  33.182  12.426
91249W        W56234  32.238   0.171  11.133
91250W        W56235  13.616  18.980  12.517
91251W        W56236   1.953  43.359   3.003
91252W        W56237  28.638  41.683   1.228
91253W        W56238  11.210  23.140  11.184
91254W        W56239  27.238  40.890  13.060
91255W        W56240  21.003  10.455   4.290
91256W        W56241  21.979  14.788  10.664
91257W        W56242   7.626  14.026  11.119
91258W        W56243  14.297   0.455  13.495
91259W        W56244   0.477  23.500   3.953
91260W        W56245  21.439   6.736  14.500
91261W        W56246  31.120  27.229   3.131
91262W        W56247  17.282   3.815   4.167
91263W        W56248  21.123   5.686   4.574
91264W        W56249  22.538  41.846  12.466
91265W        W56250  11.669   2.467   4.336
91266W        W56251  35.543   4.205   0.423
91267W        W56252  37.464  29.174   4.834
91268W        W56253  15.231  26.577   4.742
91269W        W56254   7.929   3.812  12.099
91270W        W56255  18.617   2.273   1.927
91271W        W56256  23.670  12.376  11.115
91272W        W56257   3.033  39.796   1.388
91273W        W56258  29.056  21.203   2.767
91274W        W56259   1.260   5.083  11.124
91275W        W56260  28.292  23.101  14.783
91276W        W56261  33.230  23.517  12.418
91277W        W56262  26.228  40.035  13.232
91278W        W56263  28.514  27.706   0.974
91279W        W56264  21.603  35.406   2.177
91280W        W56265  36.404  10.934  14.923
91281W        W56266  38.996  24.306  11.784
91282W        W56267  32.677  43.099  11.077
91283W        W56268   6.309  14.811  14.571
91284W        W56269  16.130   3.984   1.189
91285W        W56270  25.090   0.885   2.508
91286W        W56271  24.640  36.082   1.432
91287W        W56272  42.962  18.535   1.507
91288W        W56273  39.327  31.783  14.382
91289W        W56274  39.381  23.075   4.030
91290W        W56275  10.775  39.669  13.114
91291W        W56276   9.192  29.409   1.602
91292W        W56277  34.642  35.486   1.644
91293W        W56278   5.225   5.305   0.938
91294W        W56279  41.959  11.141  12.887
91295W        W56280   1.684  34.110  12.583
91296W        W56281   6.395  10.237   1.421
91297W        W56282  29.214  24.486  11.112
91298W        W56283   8.138  33.552   3.317
91299W        W56284  44.462  40.029  12.622
91300W        W56285  21.993  28.213   0.786
91301W        W56286  37.818  30.189  14.962
91302W        W56287  32.917  34.667   3.308
91303W        W56288  22.629  41.562  13.876
91304W        W56289  20.826   1.064   0.823
91305W        W56290  32.645  16.092   1.301
91306W        W56291  27.088   0.435  10.041
91307W        W56292  30.877  35.938   0.342
91308W        W56293  20.735  29.464  12.041
91309W        W56294   3.752  44.617   9.827
91310W        W56295  19.736  20.217   2.667
91311W        W56296  19.312  40.341  14.826
91312W        W56297   2.365  33.587   0.558
91313W        W56298  31.478  22.712  13.557
91314W        W56299  44.707   2.748   0.062
91315W        W56300  12.871  39.830  10.728
91316W        W56301  34.037  12.809   3.959
91317W        W56302  37.390   0.202  14.836
91318W        W56303   1.353  22.752  11.850
91319W        W56304   7.651  28.359   0.401
91320W        W56305  23.276   5.103   1.153
91321W        W56306  33.548  27.434   0.700
91322W        W56307  33.375  34.575  10.776
91323W        W56308   0.822  13.324  11.530
91324W        W56309   4.833  18.518   5.068
91325W        W56310  10.689  39.946  10.444
91326W        W56311   2.660  30.973  11.976
91327W        W56312  28.148  33.911   2.147
91328W        W56313  21.613   0.486  13.995
91329W        W56314  39.100   2.704  13.958
91330W        W56315  37.948  30.316  13.179
91331W        W56316   6.479   3.389   4.112
91332W        W56317  15.538  32.959   4.909
91333W        W56318  40.923   4.365  14.061
91334W        W56319   4.938   9.072   4.757
91335W        W56320  39.858  15.087   0.285
91336W        W56321  24.413  21.683   2.297
91337W        W56322  31.880  37.805   4.453
91338W        W56323  44.705  36.252   1.561
91339W        W56324   8.838  11.321   1.180
91340W        W56325   7.649  36.393  14.813
91341W        W56326   7.594  36.135  11.580
91342W        W56327  36.720  21.272   5.077
91343W        W56328  11.655  30.388   2.043
91344W        W56329   9.877  29.177   2.134
91345W        W56330  14.860  17.945   4.570
91346W        W56331  43.335  33.451   0.230
91347W        W56332   0.837  31.373   2.095
91348W        W56333  44.228   3.816   4.369
91349W        W56334  29.432  23.623   4.540
91350W        W56335  32.635  18.930   3.114
91351W        W56336  11.643   5.430   4.980
91352W        W56337  35.313  44.355  11.422
91353W        W56338   0.495  23.407  13.749
91354W        W56339   1.605  18.875   3.328
91355W        W56340  35.023  42.111  12.668
91356W        W56341  21.984  10.965  12.865
91357W        W56342  13.015   6.409   4.158
91358W        W56343  32.536  16.089  14.821
91359W        W56344  39.926  35.855  13.963
91360W        W56345  19.447  44.511  11.881
91361W        W56346  16.636   9.819  14.862
91362W        W56347  26.445  13.242   0.848
91363W        W56348  31.144   3.720   4.107
91364W        W56349  27.419  29.488  14.416
91365W        W56350   4.061  33.691  10.232
91366W        W56351  29.197  43.187  14.957
91367W        W56352  21.115  19.247  13.039
91368W        W56353  36.378  12.629  12.197
91369W        W56354  27.464   3.329  13.314
91370W        W56355  26.972   6.610   1.960
91371W        W56356  18.068  28.988  12.904
91372W        W56357  19.044  40.819   2.014
91373W        W56358  40.356  37.050   1.355
91374W        W56359  31.536  18.936  14.485
91375W        W56360   4.113   1.674  13.595
91376W        W56361  13.105   6.873   4.476
91377W        W56362   4.707  32.156   3.097
91378W        W56363  25.614  44.905  11.555
91379W        W56364  10.966  17.356  13.723
91380W        W56365  18.591  22.069  12.072
91381W        W56366  23.205  21.268  10.455
91382W        W56367  23.082  44.265  10.671
91383W        W56368   3.474  13.783  12.866
91384W        W56369  41.230  31.607  13.919
91385W        W56370  39.260   5.254  12.493
91386W        W56371   0.244  31.007  11.108
91387W        W56372  27.894   9.834   0.358
91388W        W56373   5.643   9.099   3.787
91389W        W56374  30.933  39.679  11.281
91390W        W56375   8.013   5.787  12.958
91391W        W56376  19.890  23.727  13.815
91392W        W56377   9.392  34.831   0.867
91393W        W56378  25.824  32.021   1.199
91394W        W56379   2.248   9.294  10.674
91395W        W56380  10.691   1.917  10.266
91396W        W56381  16.270   3.413   0.979
91397W        W56382  32.891  34.513   3.835
91398W        W56383  32.436  17.546   4.129
91399W        W56384  27.615  14.185  13.448
91400W        W56385   8.748  43.246   3.876
91401W        W56386   7.373  40.585  13.353
91402W        W56387  23.403  14.626   0.231
91403W        W56388  22.844  25.901  14.873
91404W        W56389   6.119  27.738   1.347
91405W        W56390   8.137   8.821   1.384
91406W        W56391  38.552  10.329   1.977
91407W        W56392   7.841  38.555   4.024
91408W        W56393  41.341  24.705  14.460
91409W        W56394   8.596  43.719  12.365
91410W        W56395  31.094  41.785   3.168
91411W        W56396  27.229   5.773  11.954
91412W        W56397  30.864  40.445  12.806
91413W        W56398   2.394  25.677   0.945
91414W        W56399   5.769  25.291  14.527
91415W        W56400  40.479  44.532  14.294
91416W        W56401  40.907  43.373  14.697
91417W        W56402  29.377  25.432   4.859
91418W        W56403  25.245   4.277   3.160
91419W        W56404  29.844  28.150  11.982
91420W        W56405  21.455  25.164  13.152
91421W        W56406   5.014  33.099   2.853
91422W        W56407  43.729  34.555   4.976
91423W        W56408  19.331   1.172   3.585
91424W        W56409  12.289   9.143  11.477
91425W        W56410   0.617   1.557  12.154
91426W        W56411  20.668  13.005   0.012
91427W        W56412  41.554  14.091  13.412
91428W        W56413   4.448   6.659  14.768
91429W        W56414  41.820   6.598  13.043
91430W        W56415  27.763  39.467   4.516
91431W        W56416   6.749  30.685  12.942
91432W        W56417  20.564  34.575   3.717
91433W        W56418  17.135   3.074   5.428
91434W        W56419  29.022  41.045  11.557
91435W        W56420  15.620  29.288  11.231
91436W        W56421   3.406   8.678  10.654
91437W        W56422  34.077  39.849  11.266
91438W        W56423  44.023  42.734  11.514
91439W        W56424  22.505  19.274   0.261
91440W        W56425  21.448  36.803  14.474
91441W        W56426   7.041  25.494  11.557
91442W        W56427  12.631  31.507   0.564
91443W        W56428  39.866  39.288   2.194
91444W        W56429  44.468  43.587  12.589
91445W        W56430  41.054   4.574  12.953
91446W        W56431  31.700  36.747  14.453
91447W        W56432  40.273   2.288   1.740
91448W        W56433   6.455   3.702  10.335
91449W        W56434   5.416   8.655  13.328
91450W        W56435  39.635  21.104  14.610
91451W        W56436  14.570  29.621  13.888
91452W        W56437  19.515  10.100  13.368
91453W        W56438  21.664  42.023  11.516
91454W        W56439   8.277  37.169   4.177
91455W        W56440   2.311  14.104   5.164
91456W        W56441  37.613   5.309  11.218
91457W        W56442  39.790  15.949  13.346
91458W        W56443  28.243  18.328   4.768
91459W        W56444  40.783   4.803   4.376
91460W        W56445  12.379  11.041  13.074
91461W        W56446  41.058  32.495  12.526
91462W        W56447  33.681  29.786  11.932
91463W        W56448   4.674  20.294   2.874
91464W        W56449   4.206   6.391   4.242
91465W        W56450  32.624   7.043   2.178
91466W        W56451  22.545  16.255   3.731
91467W        W56452   2.163   8.309  13.695
91468W        W56453  14.430  24.814   3.578
91469W        W56454  12.128   2.279   2.370
91470W        W56455   6.341  42.453   0.703
91471W        W56456  18.662   1.692  14.807
91472W        W56457  42.293  15.281   0.647
91473W        W56458   8.018  38.950  14.993
91474W        W56459  19.688  44.439   3.595
91475W        W56460  40.356   5.899  13.030
91476W        W56461  41.366  19.268   3.252
91477W        W56462  40.914  25.006   3.997
91478W        W56463  12.331  18.988  13.346
91479W        W56464  19.166   9.287   4.333
91480W        W56465  39.068  31.534  12.391
91481W        W56466  35.485  39.440   2.389
91482W        W56467   8.603   9.829   4.124
91483W        W56468   9.870  33.186  14.138
91484W        W56469  41.887   9.296   2.660
91485W        W56470   0.831  40.629  11.273
91486W        W56471  32.050  12.859   2.418
91487W        W56472   1.100   7.352  13.893
91488W        W56473   8.207   5.889   1.402
91489W        W56474  19.581  24.575  14.765
91490W        W56475  38.480  21.090   0.455
91491W        W56476  36.135  15.853  11.045
91492W        W56477  15.772  12.295   1.158
91493W        W56478   5.744   9.835   4.103
91494W        W56479   8.205  20.060   0.806
91495W        W56480  21.602  14.278   4.851
91496W        W56481  30.149  33.473   3.364
91497W        W56482   8.044   7.309   2.769
91498W        W56483  36.601  26.990  12.731
91499W        W56484  16.575   0.889   2.282
91500W        W56485   8.632   9.243  13.843
91501W        W56486  26.980  27.419   1.704
91502W        W56487  43.498  28.655   3.212
91503W        W56488  16.673  19.247   5.575
91504W        W56489  39.419  12.087  12.054
91505W        W56490  37.893  43.529   1.386
91506W        W56491   8.996   3.141  13.986
91507W        W56492  32.328  35.563  14.055
91508W        W56493  34.821  15.355   2.796
91509W        W56494  36.522  39.777  11.548
91510W        W56495  12.699   0.365  14.932
91511W        W56496   2.858  17.372   4.803
91512W        W56497  39.978  21.740  14.625
91513W        W56498  39.506  40.531   0.604
91514W        W56499  19.690  14.679   2.552
91515W        W56500  37.734  11.954   1.050
91516W        W56501  17.144  34.936  13.066
91517W        W56502  32.735  15.890  12.716
91518W        W56503  11.438  12.176  10.813
91519W        W56504   9.148   0.771  14.260
91520W        W56505  21.732  39.600   4.224
91521W        W56506  40.580   1.314   3.704
91522W        W56507  32.119  40.724  12.502
91523W        W56508  14.029  24.838  13.358
91524W        W56509  15.666  28.833   0.743
91525W        W56510  13.662  23.406   2.859
91526W        W56511  16.574  39.323  11.641
91527W        W56512  31.518  20.550  13.129
91528W        W56513  44.712  34.419   4.105
91529W        W56514  31.838  12.632  14.861
91530W        W56515  26.507   3.259  13.444
91531W        W56516  20.271   7.368   3.607
91532W        W56517  33.014   8.378   1.736
91533W        W56518  25.211  39.522  13.148
91534W        W56519  13.654  37.020  11.877
91535W        W56520  44.392  39.935  10.592
91536W        W56521  17.191  31.223   0.597
91537W        W56522   0.928  33.948   0.271
91538W        W56523   7.678  30.361  11.095
91539W        W56524   5.860   0.824  11.701
91540W        W56525  40.435  25.912  12.996
91541W        W56526  42.179  14.421   1.229
91542W        W56527   4.381   0.685   2.646
91543W        W56528  12.166  14.553  12.568
91544W        W56529   2.874   0.033   3.706
91545W        W56530  21.064  39.332  12.387
91546W        W56531  21.454  16.167  14.757
91547W        W56532  31.144   8.407   2.765
91548W        W56533  12.050   3.225   4.537
91549W        W56534  30.593   2.736  13.837
91550W        W56535  19.785  44.326   2.616
91551W        W56536  42.961  39.723  11.486
91552W        W56537  10.167  37.947  11.651
91553W        W56538  21.478  17.825   1.863
91554W        W56539  36.344  35.050   4.636
91555W        W56540  11.999  15.437  12.600
91556W        W56541  22.365  21.368   4.987
91557W        W56542  27.897   4.722  14.897
91558W        W56543  40.257  14.004   2.379
91559W        W56544  39.626  22.608   1.190
91560W        W56545  31.588  17.353   0.301
91561W        W56546  29.946  13.711   1.830
91562W        W56547  26.169   2.863  13.567
91563W        W56548   3.311  29.673   3.800
91564W        W56549  12.563  36.957   2.432
91565W        W56550  37.928  34.476  11.220
91566W        W56551  17.365   6.465  11.690
91567W        W56552  33.713  35.463  13.228
91568W        W56553  11.353  17.840  12.620
91569W        W56554  36.570  18.677  11.026
91570W        W56555  15.578  44.707   0.634
91571W        W56556   7.013  42.601  12.391
91572W        W56557  30.002  27.891   3.160
91573W        W56558  20.692  25.034   3.726
91574W        W56559  38.019  22.365  14.809
91575W        W56560  31.575  34.993   1.725
91576W        W56561  19.732   6.212  11.052
91577W        W56562   9.811  36.812   2.183
91578W        W56563  25.482  37.796  10.410
91579W        W56564  29.467   5.411   4.015
91580W        W56565  43.660  38.467  11.248
91581W        W56566   6.756  42.750  10.538
91582W        W56567   6.390  41.059   2.408
91583W        W56568  18.590  15.760  13.955
91584W        W56569   0.746  30.506   4.536
91585W        W56570  23.771  34.628   0.808
91586W        W56571  12.335   5.684  11.374
91587W        W56572  34.013  36.907  14.038
91588W        W56573  16.581  24.614   3.099
91589W        W56574  14.555  24.248  12.922
91590W        W56575   6.270  15.687   4.733
91591W        W56576  35.344  10.631  13.163
91592W        W56577   6.188  36.026   3.769
91593W        W56578  14.132  13.226  11.619
91594W        W56579  17.190  36.380  14.391
91595W        W56580   1.864  42.759  10.676
91596W        W56581  36.533  39.952   1.713
91597W        W56582  18.679   4.178  13.344
91598W        W56583  24.078  28.574   2.576
91599W        W56584  19.545  14.787   0.263
91600W        W56585   5.293  44.874  10.632
91601W        W56586  22.776   4.440   0.790
91602W        W56587  42.763  39.735  10.993
91603W        W56588  10.238  42.956  13.287
91604W        W56589   0.985  38.082   3.862
91605W        W56590  32.913  27.678   0.059
91606W        W56591  34.093   6.094  14.027
91607W        W56592  37.310  25.620  11.771
91608W        W56593  24.127   4.181   2.259
91609W        W56594  22.298  21.544  14.512
91610W        W56595  24.232  35.118  10.719
91611W        W56596  33.929  16.480   4.648
91612W        W56597  27.407   0.040  11.177
91613W        W56598   9.991  26.045  11.642
91614W        W56599   3.411   7.231  10.338
91615W        W56600  41.200  13.261  12.179
91616W        W56601   3.882   2.471   1.416
91617W        W56602  32.110  24.126   0.988
91618W        W56603  16.201  25.727  12.173
91619W        W56604  43.884  44.400   3.740
91620W        W56605   4.343  42.809  11.893
91621W        W56606   6.286  26.228   2.595
91622W        W56607   1.927  40.562   3.157
91623W        W56608  17.734  17.725  14.712
91624W        W56609  40.556  15.839   1.896
91625W        W56610   3.298   7.406  14.388
91626W        W56611  15.549  29.663   0.186
91627W        W56612  34.726   7.634  11.016
91628W        W56613  27.911  17.167   1.195
91629W        W56614   7.170  32.183  14.158
91630W        W56615   9.339  11.728  12.909
91631W        W56616  26.620  35.171  12.468
91632W        W56617   4.661  23.548   1.539
91633W        W56618  11.629  35.730  10.798
91634W        W56619   4.539   9.797  10.849
91635W        W56620   7.316  29.407  13.023
91636W        W56621  32.579   2.456   2.677
91637W        W56622  39.838  13.392  12.086
91638W        W56623  38.060  23.579   3.723
91639W        W56624  25.025  16.642   1.685
91640W        W56625  18.265  16.480  14.612
91641W        W56626   8.815  22.105   1.942
91642W        W56627   2.947  12.426   0.986
91643W        W56628  11.335   6.042  12.711
91644W        W56629  26.479   1.967   2.103
91645W        W56630  15.457  24.959  10.211
91646W        W56631   8.966  29.200  13.454
91647W        W56632  36.786  33.594  11.005
91648W        W56633  28.679  25.843   0.128
91649W        W56634  25.386  10.771   3.295
91650W        W56635   5.724  26.687  10.745
91651W        W56636  16.702   9.861  13.847
91652W        W56637  24.829  30.910   0.836
91653W        W56638  30.226  12.435  12.607
91654W        W56639  35.217  23.451  10.242
91655W        W56640   9.211  23.157   0.117
91656W        W56641   4.644   7.903  12.291
91657W        W56642  28.621   0.445   4.620
91658W        W56643  21.131  40.424  14.575
91659W        W56644  17.259  26.712   1.485
91660W        W56645   0.019  16.008   4.708
91661W        W56646  41.925  25.253   1.149
91662W        W56647   6.232   3.889   1.743
91663W        W56648  21.929  13.798  10.774
91664W        W56649  23.574  39.554   4.625
91665W        W56650   3.529  25.703  12.581
91666W        W56651  39.483  43.979  11.129
91667W        W56652   7.105  37.410   2.736
91668W        W56653  40.865  10.133   3.745
91669W        W56654  21.312  40.963  11.594
91670W        W56655  34.613  11.200   1.617
91671W        W56656  38.619  40.883  14.721
91672W        W56657  12.117   9.785  10.963
91673W        W56658   5.757  43.817   2.717
91674W        W56659   6.720  26.961   2.397
91675W        W56660  13.970   8.715  14.060
91676W        W56661  24.158  43.595  13.421
91677W        W56662  32.149  22.390  12.871
91678W        W56663  35.024  15.026   1.010
91679W        W56664  26.490  18.019  14.520
91680W        W56665   6.208  20.635  14.973
91681W        W56666  29.421  30.136  11.496
91682W        W56667  17.168  11.936   3.668
91683W        W56668  37.295  36.419   2.397
91684W        W56669   8.290  42.102  14.731
91685W        W56670  22.170  23.387  14.470
91686W        W56671  40.380  41.985  12.646
91687W        W56672  21.945  40.968   1.270
91688W        W56673  34.613  24.351  13.267
91689W        W56674  24.683  41.323  11.147
91690W        W56675  43.394   5.191  10.730
91691W        W56676  44.958  37.040  14.296
91692W        W56677  37.984  24.938  14.416
91693W        W56678   8.169   2.791   1.828
91694W        W56679  31.280  17.534  13.091
91695W        W56680  32.404   1.998   3.888
91696W        W56681  39.121  41.410   3.992
91697W        W56682  37.086  33.478   1.860
91698W        W56683  38.875  33.049   1.740
91699W        W56684  14.421   5.406   2.846
91700W        W56685  36.820  32.510   4.503
91701W        W56686   3.246   1.821  10.851
91702W        W56687   7.142  22.755   2.888
91703W        W56688  10.153   8.725   1.195
91704W        W56689   4.992  20.092  10.210
91705W        W56690  15.841  16.109   1.017
91706W        W56691  11.412  19.484  11.866
91707W        W56692   4.390  12.430  13.770
91708W        W56693   7.496  42.857  11.076
91709W        W56694  29.791  27.273   4.893
91710W        W56695  28.007  11.463  13.903
91711W        W56696  33.887  18.761   4.346
91712W        W56697  36.685  24.668   2.786
91713W        W56698  22.479   4.829  13.369
91714W        W56699  29.917   6.570  10.557
91715W        W56700   1.059  35.087  10.848
91716W        W56701  11.923  25.402   0.167
91717W        W56702  21.573  32.405   0.381
91718W        W56703  10.444  29.452   2.632
91719W        W56704  33.510  12.516   2.282
91720W        W56705  20.216  42.245  14.843
91721W        W56706  15.630  20.681   4.775
91722W        W56707   1.380  28.616   1.672
91723W        W56708  19.075   3.801  12.642
91724W        W56709  28.014  15.106   4.227
91725W        W56710  17.700  23.309  12.949
91726W        W56711   0.968   9.509   2.322
91727W        W56712  19.147   2.238   0.288
91728W        W56713  26.488  43.760   0.748
91729W        W56714  44.225   1.096  13.368
91730W        W56715   4.263  16.057   4.299
91731W        W56716   1.497  13.237   1.879
91732W        W56717  17.579  17.862   2.257
91733W        W56718  38.843  26.026   2.220
91734W        W56719  27.560   6.900  10.602
91735W        W56720  10.593   8.295   2.377
91736W        W56721  35.626  16.323  11.667
91737W        W56722  18.782  34.000   0.950
91738W        W56723  24.292  28.655  10.920
91739W        W56724  26.873  41.295   2.462
91740W        W56725  36.228  42.811   0.798
91741W        W56726  14.094   3.370  13.978
91742W        W56727  40.072   6.930   4.074
91743W        W56728  41.948  30.569  10.419
91744W        W56729  21.965   8.843  14.522
91745W        W56730  23.772  12.887  11.069
91746W        W56731  42.842  40.326  13.712
91747W        W56732   8.283  39.263   2.654
91748W        W56733   5.154   4.162  12.474
91749W        W56734  38.318  41.860   4.177
91750W        W56735   2.429  36.057  11.562
91751W        W56736  26.624   3.915  10.735
91752W        W56737   4.316  28.343  10.693
91753W        W56738  31.510  31.988   4.628
91754W        W56739   3.526  21.871  11.307
91755W        W56740  44.824  17.670   0.889
91756W        W56741   3.709   0.342   3.656
91757W        W56742  17.068  22.692  10.531
91758W        W56743  13.625   7.827   3.176
91759W        W56744  27.748   6.908  11.568
91760W        W56745   8.274  40.974  14.547
91761W        W56746  25.244  18.210   1.708
91762W        W56747  18.738  16.674   0.482
91763W        W56748  25.448  31.677  14.204
91764W        W56749  44.793   3.190   0.303
91765W        W56750  31.980  42.337  13.795
91766W        W56751   0.372  23.559   0.055
91767W        W56752   9.749   7.245  11.446
91768W        W56753  27.050  17.362   2.682
91769W        W56754   8.356  18.574  11.280
91770W        W56755   6.486   8.728  11.448
91771W        W56756  20.171  19.352  12.917
91772W        W56757   0.165  31.101   2.919
91773W        W56758  36.812  42.523   4.178
91774W        W56759  35.463  15.182   0.227
91775W        W56760  14.003  14.650   2.381
91776W        W56761   5.329  30.948   1.577
91777W        W56762  20.248  38.887  14.454
91778W        W56763  33.991  24.862   2.810
91779W        W56764   3.111  24.601  11.109
91780W        W56765  26.970  35.551  12.522
91781W        W56766   3.404  41.018   0.333
91782W        W56767  16.928  37.489  11.574
91783W        W56768  11.848   8.697   2.705
91784W        W56769  13.593  31.426   0.246
91785W        W56770  38.138  40.792  10.869
91786W        W56771   5.402   5.700  12.555
91787W        W56772   1.331  19.052  10.766
91788W        W56773  23.099   1.900  13.903
91789W        W56774  20.489  40.034   1.443
91790W        W56775  40.989  44.844  11.595
91791W        W56776   0.194  29.437   0.083
91792W        W56777  39.303  34.392   9.986
91793W        W56778  36.637  17.974  12.269
91794W        W56779  10.396  33.336   2.195
91795W        W56780  11.198  13.328  12.100
91796W        W56781  20.972   9.262  14.868
91797W        W56782  28.271  32.974  10.880
91798W        W56783   3.766  33.863   3.135
91799W        W56784  24.726  12.906  10.740
91800W        W56785  14.815  37.672  11.469
91801W        W56786  22.471  14.577   1.259
91802W        W56787   0.384  42.516  10.722
91803W        W56788   8.364  25.028   0.369
91804W        W56789  22.870  25.069  10.224
91805W        W56790  40.133  38.739   3.906
91806W        W56791   0.440   0.891   2.485
91807W        W56792  15.735  13.145  14.826
91808W        W56793   9.857  24.782  11.609
91809W        W56794   6.445  32.096  11.748
91810W        W56795  23.535   3.360   2.167
91811W        W56796  13.847  41.375   0.782
91812W        W56797  11.870   5.889  12.963
91813W        W56798  32.598  22.327  14.341
91814W        W56799  13.211   1.595  10.612
91815W        W56800  35.630  14.780   2.991
91816W        W56801   2.340  13.144  12.401
91817W        W56802   3.770   1.915   0.411
91818W        W56803  16.773  21.044  11.096
91819W        W56804  21.847  16.613   4.966
91820W        W56805  32.325   5.003  14.634
91821W        W56806   4.875  22.170  14.065
91822W        W56807  29.916  29.147  13.442
91823W        W56808  33.186   7.715  13.530
91824W        W56809  15.774  17.898   2.164
91825W        W56810  39.208  13.451   4.218
91826W        W56811  38.910  30.583  10.753
91827W        W56812   0.373  14.905   1.392
91828W        W56813   0.897  25.960  12.596
91829W        W56814  42.229  10.798  11.190
91830W        W56815  41.023  16.682   2.417
91831W        W56816  31.085  23.512  10.986
91832W        W56817  26.422   3.856   1.857
91833W        W56818  21.713   4.658   3.770
91834W        W56819  24.027  24.810   0.833
91835W        W56820  17.228  43.840   0.380
91836W        W56821   0.793  19.111  11.375
91837W        W56822   2.514  13.295  10.766
91838W        W56823  34.418  14.692   3.187
91839W        W56824  31.861  40.313   2.739
91840W        W56825  26.493  42.397   4.497
91841W        W56826  14.087  15.578   2.303
91842W        W56827   0.710  31.547  12.869
91843W        W56828  41.292  14.618  14.489
91844W        W56829  12.346  37.849   0.746
91845W        W56830  15.651  37.318   2.568
91846W        W56831  36.382  42.624   4.560
91847W        W56832   5.602  28.914  10.607
91848W        W56833   1.968   1.728  13.490
91849W        W56834  14.376  38.077   3.762
91850W        W56835  21.707  37.381   3.312
91851W        W56836  38.830  31.482   3.640
91852W        W56837  35.960  41.719  12.622
91853W        W56838  44.452   3.313   2.666
91854W        W56839  13.344  31.511   2.105
91855W        W56840   0.821  23.372   3.300
91856W        W56841  21.729  22.373  10.095
91857W        W56842  19.156  18.050   4.727
91858W        W56843   3.866  11.224   4.677
91859W        W56844  30.126  12.753  12.215
91860W        W56845  23.152  16.014  14.886
91861W        W56846  41.540   2.380  14.384
91862W        W56847  44.945  16.810  11.112
91863W        W56848  31.925   4.724   0.416
91864W        W56849   5.369  20.243  13.373
91865W        W56850  42.014   5.306  11.564
91866W        W56851  35.351  42.849  11.991
91867W        W56852  25.112  14.612  11.207
91868W        W56853  15.302   3.333   5.365
91869W        W56854  24.015  12.503   1.821
91870W        W56855  27.107  43.560  10.801
91871W        W56856  33.289  30.860  13.815
91872W        W56857   8.278  11.985   0.670
91873W        W56858  25.429  27.994   0.877
91874W        W56859  17.741   3.919   0.481
91875W        W56860  25.295  11.835  13.116
91876W        W56861  20.613  43.229   2.959
91877W        W56862  28.054   0.428   0.868
91878W        W56863  25.087   5.628   0.116
91879W        W56864  23.111  31.945  13.615
91880W        W56865  42.499  42.380   3.097
91881W        W56866  15.210  28.395  14.445
91882W        W56867  44.725  14.510  12.945
91883W        W56868  40.398  31.885  11.215
91884W        W56869  27.214  14.497   0.353
91885W        W56870  20.899   4.719   4.451
91886W        W56871  35.436  34.455  11.628
91887W        W56872   7.122  14.126  11.132
91888W        W56873  27.185  44.874   1.438
91889W        W56874  24.108   9.117  14.002
91890W        W56875  18.374  14.736   0.740
91891W        W56876   6.372  35.412  10.691
91892W        W56877  19.081  19.149   3.039
91893W        W56878  28.626  15.210  12.257
91894W        W56879  37.526  41.991  11.171
91895W        W56880  32.375   4.015   2.690
91896W        W56881  11.374  23.219  10.714
91897W        W56882  29.478  29.160   3.995
91898W        W56883  33.355   5.584   5.075
91899W        W56884   7.948  12.331   0.332
91900W        W56885  17.817  18.661   5.798
91901W        W56886  40.295  13.110  12.111
91902W        W56887  40.808  20.658  14.572
91903W        W56888   4.044  24.587   4.772
91904W        W56889  15.921  43.917   5.098
91905W        W56890   4.251  26.616   4.112
91906W        W56891   0.042   0.222   0.307
91907W        W56892  11.920  25.937  12.439
91908W        W56893  21.977  17.742   3.662
91909W        W56894  36.805  29.660   0.505
91910W        W56895  33.408  23.778   1.368
91911W        W56896  12.515  38.969   4.509
91912W        W56897  32.447   2.674   0.667
91913W        W56898  43.173  41.474  14.931
91914W        W56899  15.328  20.222   3.326
91915W        W56900  24.974  10.629  11.847
91916W        W56901   0.901  21.134   0.980
91917W        W56902  34.685  13.445  11.666
91918W        W56903  20.093  20.095   3.204
91919W        W56904  11.780   8.434  11.598
91920W        W56905  20.724  39.070  14.514
91921W        W56906  41.108  32.114   2.209
91922W        W56907  41.819  23.237   2.199
91923W        W56908  38.046   5.677   0.464
91924W        W56909  17.353  24.958   3.736
91925W        W56910  30.548  41.765   1.273
91926W        W56911  10.820  28.853   2.294
91927W        W56912  39.450  40.138  12.014
91928W        W56913  14.293  35.453  12.621
91929W        W56914   6.331   1.039  11.603
91930W        W56915  33.197  24.626   0.332
91931W        W56916  22.434  23.903   5.060
91932W        W56917   9.268  25.626   1.379
91933W        W56918  39.783  15.722   3.634
91934W        W56919  20.519   0.145   0.669
91935W        W56920  42.916   8.432  13.932
91936W        W56921  43.482   9.748  13.332
91937W        W56922   3.437  20.344   0.506
91938W        W56923  40.423  41.540  14.010
91939W        W56924  25.350  24.781  14.702
91940W        W56925  11.237  30.416   0.302
91941W        W56926  42.264  11.846   0.422
91942W        W56927  24.016  18.236  11.600
91943W        W56928   0.086  13.167  11.243
91944W        W56929   8.912  31.097   3.438
91945W        W56930  16.745  15.357  11.585
91946W        W56931  36.929  39.337   2.206
91947W        W56932  35.450  33.993  12.535
91948W        W56933   8.253  25.497  12.565
91949W        W56934  20.227  26.470   4.542
91950W        W56935  20.710   5.406  13.955
91951W        W56936  24.588  29.130  10.947
91952W        W56937   8.913  28.137  12.576
91953W        W56938  19.778  17.586  11.679
91954W        W56939  18.301  33.941   4.271
91955W        W56940   1.958  10.822   3.840
91956W        W56941  14.619  27.067  13.360
91957W        W56942  28.506  35.024   4.513
91958W        W56943  23.510  23.981  10.782
91959W        W56944   3.940   7.187   1.957
91960W        W56945   8.682  43.819   4.063
91961W        W56946   4.842   2.370  12.655
91962W        W56947  42.904  17.365  14.824
91963W        W56948  26.751   9.996  13.498
91964W        W56949   1.763   9.459   3.675
91965W        W56950  33.429  25.142  10.775
91966W        W56951   8.396  35.823   1.216
91967W        W56952  43.259  43.044  12.560
91968W        W56953   9.414  25.129   1.386
91969W        W56954  42.197  21.584   4.133
91970W        W56955   8.308  10.588  11.045
91971W        W56956  40.249  36.811   2.343
91972W        W56957  31.466   2.268   0.257
91973W        W56958  28.623  10.798  13.795
91974W        W56959  34.433  18.126  13.021
91975W        W56960  32.219  35.386  12.945
91976W        W56961   4.075  17.171   3.542
91977W        W56962   1.982  17.272   1.258
91978W        W56963  16.573  23.331  14.408
91979W        W56964  25.221   5.252   3.170
91980W        W56965  34.971  13.712  11.333
91981W        W56966  12.546  11.638   2.771
91982W        W56967  30.911  39.002  11.101
91983W        W56968  18.994  32.103  10.683
91984W        W56969  15.175  31.182   4.415
91985W        W56970  36.942  36.801   4.263
91986W        W56971  39.389   3.472   3.115
91987W        W56972  19.639  27.035   2.763
91988W        W56973  15.795  12.377  12.052
91989W        W56974  38.066  15.580  14.841
91990W        W56975   4.228   8.281  10.613
91991W        W56976  11.087  30.862   0.055
91992W        W56977   8.992  28.746   3.011
91993W        W56978  27.303   4.345   3.329
91994W        W56979  15.642  19.139   2.690
91995W        W56980  22.411   1.152  12.084
91996W        W56981  38.867  15.254  14.400
91997W        W56982  41.966  24.119  11.241
91998W        W56983  30.865  18.418   3.288
91999W        W56984   1.951  42.590  14.264
92000W        W56985  37.811  23.179  13.790
92001W        W56986  13.621  14.005  13.354
92002W        W56987  25.720  26.378   5.034
92003W        W56988  18.556  22.674  13.487
92004W        W56989  32.272  15.765   5.003
92005W        W56990   0.342  42.262   3.644
92006W        W56991  18.759   3.835  14.972
92007W        W56992   3.474   7.713  13.965
92008W        W56993  23.052  20.354   2.324
92009W        W56994   3.302  28.097   3.617
92010W        W56995  42.406  12.792  11.269
92011W        W56996  12.642  28.170   3.090
92012W        W56997  18.246  35.569   0.266
92013W        W56998   4.373  36.804   0.758
92014W        W56999   9.892  10.129  14.045
92015W        W57000  15.673  25.639  11.002
92016W        W57001  20.531  22.123  11.970
92017W        W57002  36.044  23.650   4.165
92018W        W57003  37.132  14.755  13.519
92019W        W57004   3.793  36.376   0.885
92020W        W57005  30.881  14.175  13.413
92021W        W57006   3.481   9.261  13.849
92022W        W57007  35.426  30.132   4.369
92023W        W57008  15.114  25.145   9.836
92024W        W57009  17.343   2.956  11.671
92025W        W57010  23.441  18.546   2.643
92026W        W57011   6.890  32.458  14.492
92027W        W57012  23.223   2.157  12.545
92028W        W57013  44.040  34.969  13.129
92029W        W57014   3.992  22.557  10.430
92030W        W57015  37.137  31.486   3.749
92031W        W57016  35.379  20.246   2.710
92032W        W57017  17.647   9.976  12.475
92033W        W57018  30.862  35.983  11.647
92034W        W57019  23.559  40.783   0.819
92035W        W57020  22.944  31.242  11.298
92036W        W57021  35.900  36.066  11.244
92037W        W57022  18.275  34.354   2.244
92038W        W57023   6.390  40.302   0.014
92039W        W57024  40.356   9.244  14.622
92040W        W57025  19.569   0.179  12.713
92041W        W57026  40.280  20.207  11.004
92042W        W57027  28.081  42.775   1.602
92043W        W57028  22.715  34.085  14.449
92044W        W57029   7.150  18.751  11.146
92045W        W57030  13.132  44.796   4.010
92046W        W57031  32.923  34.381   4.329
92047W        W57032  40.327  30.059   3.607
92048W        W57033  27.363   0.312   2.183
92049W        W57034  14.321  22.174  11.364
92050W        W57035  12.663  22.617   3.795
92051W        W57036  29.579  19.597  14.937
92052W        W57037  16.281  34.978  12.022
92053W        W57038  28.411  29.251   1.422
92054W        W57039  25.998   3.777   4.035
92055W        W57040  35.664  37.094   0.488
92056W        W57041  22.215  23.546  13.027
92057W        W57042  43.400  30.916   2.829
92058W        W57043   5.802  29.594   3.692
92059W        W57044   0.052  43.505   0.490
92060W        W57045  25.906  37.142   4.497
92061W        W57046   2.782  31.067  13.831
92062W        W57047  17.111   3.182   0.417
92063W        W57048   4.882  18.573  11.615
92064W        W57049  38.117   2.667  14.865
92065W        W57050  35.023   6.394  10.786
92066W        W57051  23.729  28.495   0.783
92067W        W57052   3.396  34.454  13.447
92068W        W57053  44.352   6.987  10.589
92069W        W57054  35.966  26.386  13.501
92070W        W57055  21.543  40.375  14.904
92071W        W57056   4.800  14.815   5.013
92072W        W57057  14.692  38.527  10.406
92073W        W57058  22.800  32.507   4.534
92074W        W57059   9.461  37.585   4.208
92075W        W57060  13.190  38.869  13.834
92076W        W57061  30.911  23.081   3.042
92077W        W57062  38.949  10.646   2.797
92078W        W57063  43.066  14.010  14.898
92079W        W57064  28.618  30.199  10.759
92080W        W57065  26.047  24.223  14.526
92081W        W57066  41.847   6.839   0.397
92082W        W57067  38.199   8.398   1.943
92083W        W57068   8.724  34.829   4.172
92084W        W57069   5.334  33.692  12.370
92085W        W57070  27.071  25.681   0.454
92086W        W57071   1.842   2.936   4.730
92087W        W57072  31.909  33.387  14.498
92088W        W57073  25.608  37.983  11.729
92089W        W57074  34.689  39.997  10.583
92090W        W57075  33.578  29.160   2.659
92091W        W57076  11.608  26.963   0.213
92092W        W57077  44.013   3.933  13.713
92093W        W57078  11.617  35.211   0.643
92094W        W57079  42.732   2.950   4.789
92095W        W57080  19.628  11.432  12.959
92096W        W57081   2.202  41.594   0.383
92097W        W57082  29.189  31.939  13.266
92098W        W57083   8.222  20.594   2.322
92099W        W57084  12.079  28.892  13.534
92100W        W57085  28.648   9.591   2.904
92101W        W57086   1.421   2.740  11.153
92102W        W57087  35.656  21.660   2.370
92103W        W57088  19.741   7.026  12.304
92104W        W57089  18.255  31.246   2.728
92105W        W57090  27.243  41.736   3.702
92106W        W57091  40.349  37.701   0.055
92107W        W57092   3.649  41.750   3.311
92108W        W57093  40.986  24.914  11.740
92109W        W57094  32.301  24.572  11.347
92110W        W57095   1.260  37.456  11.607
92111W        W57096  27.215  23.923  14.331
92112W        W57097  15.350   1.266   3.302
92113W        W57098   1.291   7.379  14.814
92114W        W57099  39.559   7.639  13.373
92115W        W57100   9.629  19.724   0.804
92116W        W57101  26.629  26.078  13.513
92117W        W57102  40.304  30.710  13.437
92118W        W57103  14.665   4.357  12.031
92119W        W57104  30.923  37.635  11.223
92120W        W57105  10.521  36.345  14.708
92121W        W57106  24.016  34.433   4.052
92122W        W57107  27.315  29.522  12.015
92123W        W57108   0.943  14.333   1.136
92124W        W57109   0.214  40.930   4.090
92125W        W57110  23.120  44.655   2.439
92126W        W57111   1.508  28.302   0.336
92127W        W57112  19.545  14.725  14.422
92128W        W57113   0.710   0.874   1.642
92129W        W57114   7.203  23.265   2.717
92130W        W57115  25.618  20.117   2.924
92131W        W57116  13.672  19.067   3.560
92132W        W57117   4.024   2.997   1.337
92133W        W57118  17.234  42.967   2.816
92134W        W57119  31.081  40.562   2.451
92135W        W57120   8.893  13.076   3.219
92136W        W57121  25.103   9.581  13.949
92137W        W57122  20.017  43.431   0.412
92138W        W57123  36.998   8.886  13.418
92139W        W57124   5.494  18.371  11.208
92140W        W57125  20.139  31.861  12.052
92141W        W57126  21.583  26.588   1.307
92142W        W57127  43.195  28.471  13.435
92143W        W57128  26.393  20.664  14.354
92144W        W57129  41.415   5.716   4.092
92145W        W57130  31.657  34.394  13.378
92146W        W57131  22.346  14.140   0.866
92147W        W57132  24.567  12.242   0.983
92148W        W57133  19.155  37.361  13.591
92149W        W57134   4.881  19.663  14.781
92150W        W57135  16.201  18.531  11.106
92151W        W57136   2.749  33.534  14.272
92152W        W57137  15.148  27.139   0.328
92153W        W57138  23.456   4.270   0.073
92154W        W57139  15.273  37.368  14.393
92155W        W57140   2.038  21.276   1.742
92156W        W57141  44.053  43.850  13.879
92157W        W57142   6.787  35.706   1.618
92158W        W57143  14.095  10.393   2.937
92159W        W57144  27.198  23.418  14.284
92160W        W57145  17.869  34.302   4.083
92161W        W57146  32.669  23.813  14.137
92162W        W57147   4.735  34.281  10.770
92163W        W57148  38.156  13.229  11.275
92164W        W57149  39.378  17.830  14.362
92165W        W57150  11.208  21.161   0.009
92166W        W57151   0.224  32.414  12.968
92167W        W57152  40.244   4.415  10.745
92168W        W57153  33.621  44.379  13.943
92169W        W57154  33.391  32.877   1.480
92170W        W57155   9.873  16.583  11.862
92171W        W57156  25.170  31.040  14.784
92172W        W57157  42.575  25.668   1.895
92173W        W57158  13.619  36.089  10.609
92174W        W57159   1.456  31.315  13.408
92175W        W57160  17.872  16.130  12.410
92176W        W57161   2.967  37.527  13.051
92177W        W57162  43.835  41.693  11.584
92178W        W57163  24.057  42.530  14.880
92179W        W57164  37.842  43.511   4.701
92180W        W57165  26.204   7.632  12.047
92181W        W57166  12.774  17.309   0.814
92182W        W57167  28.246  25.976  11.010
92183W        W57168  29.053  11.695   3.410
92184W        W57169  43.348   4.863   0.493
92185W        W57170  27.681  20.731  13.958
92186W        W57171  29.938  40.406  11.643
92187W        W57172   2.814   8.987  11.301
92188W        W57173  31.303  28.744   0.979
92189W        W57174   6.239  32.816  13.597
92190W        W57175  34.671  35.976   2.769
92191W        W57176  25.424  44.877  14.897
92192W        W57177  29.534  43.828   3.691
92193W        W57178  39.243  32.154   3.230
92194W        W57179  31.660  43.813   0.334
92195W        W57180  26.173  19.423  13.385
92196W        W57181  12.893  34.536  10.834
92197W        W57182  30.099  16.171   4.564
92198W        W57183  25.763   6.292   3.338
92199W        W57184  16.021  15.312   0.523
92200W        W57185  42.532   4.569   4.911
92201W        W57186  12.735  41.572   0.240
92202W        W57187  41.197  37.074  13.539
92203W        W57188  11.085  23.032   0.290
92204W        W57189  26.305   5.245   1.270
92205W        W57190  44.924   1.837  14.581
92206W        W57191  24.345  22.445  14.432
92207W        W57192  33.188  26.944  11.239
92208W        W57193  16.213  35.056  13.468
92209W        W57194  16.672  20.968   3.997
92210W        W57195  35.094  39.074   4.514
92211W        W57196  18.529  41.095   0.247
92212W        W57197   8.396   9.631   1.624
92213W        W57198  23.502  17.613  11.624
92214W        W57199   1.290  27.153  11.056
92215W        W57200   0.375  10.462  13.902
92216W        W57201  41.533  37.039   5.154
92217W        W57202   1.909  23.726  12.488
92218W        W57203   6.218  25.057   0.805
92219W        W57204  15.022  24.001  10.715
92220W        W57205  27.312  20.066   4.440
92221W        W57206  34.150  44.880   0.909
92222W        W57207   0.540   4.776  10.156
92223W        W57208   8.722   9.393   3.794
92224W        W57209  31.534  17.142   3.333
92225W        W57210   6.317  15.563   4.187
92226W        W57211  18.294  10.696  12.744
92227W        W57212  16.403  31.022  13.954
92228W        W57213  14.324  40.955   3.206
92229W        W57214  14.776  36.862   4.499
92230W        W57215  37.379  12.827   1.949
92231W        W57216  14.038  42.790  10.698
92232W        W57217   1.440   4.483  12.981
92233W        W57218  24.052  41.760  12.483
92234W        W57219  28.099  17.952  14.870
92235W        W57220  24.037  19.045   2.871
92236W        W57221   3.247   0.716  12.288
92237W        W57222  20.371  36.322  11.386
92238W        W57223  25.236  17.177   4.428
92239W        W57224  22.363  31.931   3.877
92240W        W57225  34.096   0.446   0.299
92241W        W57226   9.405  10.799   3.157
92242W        W57227  26.069  10.701  12.061
92243W        W57228  37.260  32.514   0.391
92244W        W57229  16.622   2.394   4.328
92245W        W57230  43.092  44.979   3.604
92246W        W57231  21.201   2.933   4.539
92247W        W57232  21.269  21.809   2.685
92248W        W57233   3.020   4.794  13.827
92249W        W57234   8.441  23.105   3.390
92250W        W57235  14.903  14.553  14.495
92251W        W57236  16.009  38.488   4.138
92252W        W57237  26.136   2.842   2.849
92253W        W57238  40.557   2.395  12.284
92254W        W57239  34.711  29.861  12.001
92255W        W57240  16.826   6.241  14.527
92256W        W57241   0.468   2.766  12.481
92257W        W57242  18.372  35.025   4.657
92258W        W57243  29.694  32.100   4.413
92259W        W57244  40.364  23.702  11.564
92260W        W57245  44.721  43.410  14.286
92261W        W57246  32.701  37.365  11.687
92262W        W57247  43.093  12.636   2.004
92263W        W57248  20.832  33.082  14.371
92264W        W57249   8.268  36.344   1.935
92265W        W57250  37.423  37.861  10.332
92266W        W57251  43.680  12.798  13.134
92267W        W57252  36.527  12.123  13.373
92268W        W57253   8.302   6.975   4.987
92269W        W57254   3.416  19.195   0.723
92270W        W57255  24.473  26.536  14.992
92271W        W57256  29.852  30.114  14.540
92272W        W57257  18.087  13.722  13.984
92273W        W57258  24.964  29.962  11.997
92274W        W57259  18.664  10.438  11.069
92275W        W57260  31.459  21.219  10.983
92276W        W57261  23.957  23.819   1.751
92277W        W57262  36.415  34.579  10.717
92278W        W57263   7.842  35.062   3.715
92279W        W57264   2.252  33.653  13.645
92280W        W57265  38.906  22.672  10.929
92281W        W57266   0.944  17.605  12.377
92282W        W57267  39.270  23.524  10.877
92283W        W57268   5.421   0.051   2.689
92284W        W57269  32.988  39.278   1.266
92285W        W57270  35.624  23.133  10.399
92286W        W57271  32.211  19.320  14.009
92287W        W57272  10.688  43.849  13.373
92288W        W57273  18.653  36.832   4.170
92289W        W57274  30.349  11.326   4.214
92290W        W57275  44.087  16.920  11.479
92291W        W57276  25.703   5.128   3.953
92292W        W57277   6.508  39.186  14.021
92293W        W57278  41.814  14.139   0.498
92294W        W57279  21.706  30.298   2.610
92295W        W57280   8.082   9.317  10.621
92296W        W57281  14.728  26.409  13.145
92297W        W57282  22.533  15.308   5.119
92298W        W57283  13.027  12.138  14.003
92299W        W57284  34.790  16.162  12.472
92300W        W57285  13.299   6.175   3.793
92301W        W57286  42.420   5.085   4.968
92302W        W57287  23.102  35.558   3.882
92303W        W57288   3.478  29.948   0.820
92304W        W57289  38.345  14.710   2.817
92305W        W57290  22.741  35.383  12.959
92306W        W57291  27.988   7.373   2.598
92307W        W57292  40.065   7.571   1.295
92308W        W57293  31.921   2.551   2.339
92309W        W57294  25.454   0.598   2.072
92310W        W57295  17.724   5.498   1.300
92311W        W57296  14.946  26.961  14.378
92312W        W57297  20.782  13.270  13.881
92313W        W57298   0.182  35.283   3.513
92314W        W57299  29.973  19.776  10.398
92315W        W57300  31.325  43.358   4.237
92316W        W57301  15.458  16.297  11.654
92317W        W57302  27.586  36.963  11.567
92318W        W57303  26.987  41.822   2.405
92319W        W57304  41.337  37.559   3.544
92320W        W57305  28.010  24.795  10.672
92321W        W57306   4.739   4.910   4.074
92322W        W57307  34.203  44.870  14.492
92323W        W57308  27.931  32.869   4.215
92324W        W57309  21.534  27.513   0.487
92325W        W57310   1.252  29.104   0.961
92326W        W57311  14.517   1.283   3.314
92327W        W57312  32.518  37.096   4.478
92328W        W57313  30.234   7.501  10.972
92329W        W57314  31.680   7.772  10.344
92330W        W57315   8.428   8.169  11.651
92331W        W57316  26.540  29.170   3.281
92332W        W57317  37.847  20.599   2.092
92333W        W57318  15.125   1.873  11.349
92334W        W57319   8.508   4.764  13.462
92335W        W57320  44.887  23.689   0.177
92336W        W57321  37.208  24.086   3.612
92337W        W57322  36.783  30.265  11.631
92338W        W57323  36.844  30.015  12.969
92339W        W57324  25.683  14.123  11.812
92340W        W57325  31.578  36.987  14.913
92341W        W57326  12.646   7.323  11.458
92342W        W57327   9.575   1.375  11.565
92343W        W57328   1.524   5.055  11.554
92344W        W57329  31.022  33.403   9.876
92345W        W57330   1.275  19.597  11.646
92346W        W57331  37.843  25.514   4.153
92347W        W57332   2.921  20.976  14.265
92348W        W57333  37.617  16.114   3.188
92349W        W57334  11.142  34.527  14.800
92350W        W57335  17.723  37.410  14.303
92351W        W57336  16.824  33.014  14.069
92352W        W57337  13.766  38.929  14.528
92353W        W57338  28.616  40.439   1.495
92354W        W57339  39.349  18.309  14.568
92355W        W57340  12.121  15.591   3.362
92356W        W57341  14.812  32.802  13.424
92357W        W57342  35.452  39.940  11.083
92358W        W57343  26.124  40.224  11.308
92359W        W57344  23.532   3.914  10.186
92360W        W57345   1.543  38.026   0.518
92361W        W57346  20.297  20.881   3.493
92362W        W57347  12.878  31.572   1.431
92363W        W57348   7.873  37.361  12.096
92364W        W57349  27.522   2.004  13.214
92365W        W57350  18.075  18.568  14.787
92366W        W57351   8.912   6.232  11.614
92367W        W57352   3.773  26.139  10.737
92368W        W57353   8.919  20.134  14.760
92369W        W57354  38.271  24.539   1.201
92370W        W57355  21.922  16.597   1.751
92371W        W57356   2.829  32.017   3.729
92372W        W57357   1.852   8.839   2.859
92373W        W57358  20.570  18.234   3.612
92374W        W57359  10.945   5.293   1.338
92375W        W57360  44.517  32.316  12.544
92376W        W57361  32.587  25.416   0.293
92377W        W57362  17.960  24.292  12.925
92378W        W57363  29.625  41.597  10.661
92379W        W57364  20.605  31.868  12.662
92380W        W57365  23.705  16.026  14.210
92381W        W57366   4.851   1.134  10.771
92382W        W57367   8.154   1.339  11.407
92383W        W57368  20.274  38.349  10.774
92384W        W57369  19.053  23.083  10.983
92385W        W57370  40.089   7.203   2.835
92386W        W57371  27.813  41.609  12.687
92387W        W57372  13.551   3.022   0.086
92388W        W57373  21.322  10.525  12.162
92389W        W57374  15.008  21.118   0.348
92390W        W57375   3.501  32.585   2.593
92391W        W57376  41.387  30.195  11.093
92392W        W57377  25.681  20.664  12.173
92393W        W57378  13.623  33.205  13.278
92394W        W57379   3.787   3.808   3.686
92395W        W57380  11.192   2.514   4.803
92396W        W57381   8.361  42.158   3.374
92397W        W57382  36.086  21.698   2.731
92398W        W57383   2.234  28.091  10.583
92399W        W57384  44.481  30.127   0.390
92400W        W57385  13.720  12.233  10.687
92401W        W57386  41.467   3.936   3.199
92402W        W57387  31.500  40.154  11.228
92403W        W57388  40.782  27.529  14.433
92404W        W57389  16.082  25.109  11.019
92405W        W57390  23.956  27.961   4.324
92406W        W57391  28.429  31.366  14.389
92407W        W57392  34.789  33.378   3.753
92408W        W57393  39.074  32.648   3.241
92409W        W57394  24.196  41.477  11.203
92410W        W57395  20.437  30.026  13.758
92411W        W57396  32.041  20.114  10.667
92412W        W57397  29.784  35.846  10.135
92413W        W57398   8.011   1.596  11.830
92414W        W57399   8.862  29.688   2.211
92415W        W57400   3.006  34.483  13.107
92416W        W57401  18.148  37.582   4.058
92417W        W57402  24.056  32.271   2.353
92418W        W57403   3.250  37.273  14.844
92419W        W57404  34.898  37.004  12.919
92420W        W57405  18.336  30.187   2.746
92421W        W57406  18.038  39.855   3.653
92422W        W57407  16.674  33.858  10.723
92423W        W57408  39.776  15.055   4.086
92424W        W57409  34.854  25.109   4.667
92425W        W57410   4.842  37.577   2.203
92426W        W57411  30.904  32.920  12.413
92427W        W57412   9.319  17.375   0.946
92428W        W57413  28.192  31.635  12.424
92429W        W57414  13.652   9.599  12.126
92430W        W57415   1.432  25.054   3.876
92431W        W57416  31.477  30.556  12.920
92432W        W57417  11.564  17.525  11.631
92433W        W57418  25.143  19.648  11.705
92434W        W57419  20.252   3.076   3.838
92435W        W57420  37.245  39.262   3.157
92436W        W57421  36.578  10.389   1.786
92437W        W57422  29.680   5.101   0.882
92438W        W57423  38.600  36.214   0.399
92439W        W57424  12.428  43.924  12.920
92440W        W57425  35.659  11.419   4.142
92441W        W57426  19.176   5.899   0.964
92442W        W57427   0.236  17.774  11.214
92443W        W57428   5.440  20.633  11.476
92444W        W57429   8.857  42.612   2.510
92445W        W57430  31.106   3.063  12.145
92446W        W57431  41.547   0.223   0.827
92447W        W57432  16.134   8.412   1.442
92448W        W57433  43.125  36.841  11.578
92449W        W57434  31.306  40.935  10.531
92450W        W57435  11.100  35.494  11.642
92451W        W57436   0.804  26.117  14.361
92452W        W57437  42.360  10.298   4.109
92453W        W57438  15.248   6.402  13.537
92454W        W57439  43.271  32.466  11.187
92455W        W57440   2.075   1.890  14.837
92456W        W57441  40.972  29.388   3.603
92457W        W57442  34.931   9.042   2.183
92458W        W57443  10.899   8.830  10.549
92459W        W57444   8.673  26.950  11.651
92460W        W57445  31.509  43.525  12.457
92461W        W57446  25.102  37.597   2.924
92462W        W57447  24.540   4.263  11.026
92463W        W57448  37.487  14.115  13.073
92464W        W57449  20.180  36.387   2.900
92465W        W57450  15.828  38.538   0.424
92466W        W57451  40.783  25.195   0.698
92467W        W57452  19.509  32.416  11.172
92468W        W57453   8.854  13.648   2.421
92469W        W57454  10.791  37.468   1.336
92470W        W57455  27.478  38.990   2.405
92471W        W57456  36.572  26.383  14.315
92472W        W57457   6.134  13.305   0.975
92473W        W57458   9.936  23.044  11.980
92474W        W57459   9.906  20.247   3.099
92475W        W57460   1.141  29.629  12.261
92476W        W57461  40.474  38.729   1.076
92477W        W57462  20.464   4.229   1.401
92478W        W57463  14.788  31.950   4.762
92479W        W57464   9.016  33.880  14.927
92480W        W57465  11.680   1.414  11.456
92481W        W57466  29.182   1.716  14.852
92482W        W57467   6.703  25.097  13.488
92483W        W57468  19.106   9.896  12.471
92484W        W57469  35.695  35.538  13.454
92485W        W57470  23.090  29.089   0.108
92486W        W57471  14.585  37.217  11.548
92487W        W57472  11.123  32.774  14.953
92488W        W57473  40.788  40.425   4.129
92489W        W57474  28.421  42.722   1.201
92490W        W57475  14.009  32.074   3.352
92491W        W57476   6.129   3.174  11.170
92492W        W57477  41.438  36.785   3.035
92493W        W57478   4.794  18.635   1.576
92494W        W57479   9.911  36.999   2.661
92495W        W57480  37.956  36.924  11.711
92496W        W57481  15.799  44.550   2.830
92497W        W57482   9.404  35.077  12.970
92498W        W57483  15.676  18.290  10.433
92499W        W57484  11.903   8.641   4.995
92500W        W57485   2.118  37.910  11.634
92501W        W57486  22.492  18.531   4.631
92502W        W57487  37.221  36.058   3.736
92503W        W57488  23.673  13.435  11.686
92504W        W57489  42.301  17.062   2.299
92505W        W57490  14.318  12.691  10.799
92506W        W57491  21.483  11.730  14.319
92507W        W57492  18.391  26.776  13.008
92508W        W57493  16.235  31.112   3.083
92509W        W57494  11.796  33.572   4.483
92510W        W57495  44.856  10.158   4.518
92511W        W57496  14.797  22.216   4.230
92512W        W57497  36.858  30.920   2.643
92513W        W57498   5.676  32.410  14.429
92514W        W57499  40.607  39.612   5.040
92515W        W57500   4.661  36.372  12.571
92516W        W57501  13.157  30.483   2.195
92517W        W57502  34.641  19.711   0.830
92518W        W57503  13.867  19.143   2.630
92519W        W57504  33.365  12.587  10.574
92520W        W57505   1.930  32.895   0.292
92521W        W57506  44.429   1.209  10.013
92522W        W57507  37.242   4.890   2.290
92523W        W57508   4.314  26.255  14.868
92524W        W57509  16.622  23.175  14.948
92525W        W57510  17.747  29.751  11.665
92526W        W57511  33.027  23.259  14.858
92527W        W57512   6.856   5.718  12.610
92528W        W57513  36.830  27.417  12.539
92529W        W57514  25.201  13.027  13.543
92530W        W57515   5.541   6.211  10.103
92531W        W57516  25.163  39.969   0.476
92532W        W57517   9.870  44.288   1.127
92533W        W57518  44.337  32.449  10.931
92534W        W57519  37.091  13.046   0.452
92535W        W57520  24.499  14.675  10.612
92536W        W57521  14.942  24.986   0.078
92537W        W57522   4.700  23.702  14.068
92538W        W57523  32.375  33.934  11.144
92539W        W57524   5.773  43.291   2.786
92540W        W57525  28.005  29.238  11.610
92541W        W57526  39.120  42.790  11.360
92542W        W57527  30.008  36.565   2.313
92543W        W57528  36.454   7.844   3.202
92544W        W57529  28.714   3.876  11.429
92545W        W57530  24.545  17.655   3.103
92546W        W57531  27.920  18.941   0.010
92547W        W57532  44.019   7.699   3.302
92548W        W57533   8.639  12.307   0.967
92549W        W57534  28.393  34.143  13.801
92550W        W57535  29.214   2.275  11.983
92551W        W57536  31.976  17.322   3.089
92552W        W57537  37.470  37.325   0.395
92553W        W57538   0.350  43.015   3.215
92554W        W57539  12.807  26.985  11.990
92555W        W57540  11.874  43.844  11.160
92556W        W57541  31.871  10.105  14.439
92557W        W57542  13.328  31.180  10.485
92558W        W57543   2.282   3.128  11.070
92559W        W57544  42.250  31.201   4.185
92560W        W57545  42.015  12.249   4.804
92561W        W57546   2.416   0.425  12.851
92562W        W57547   6.395   8.432   2.292
92563W        W57548  37.872  16.544  14.980
92564W        W57549  28.711  12.728  11.012
92565W        W57550  17.492  34.810   1.854
92566W        W57551  30.564  23.156   1.686
92567W        W57552   0.874  12.256  10.660
92568W        W57553  26.639  17.347   2.995
92569W        W57554   4.333  18.799   2.334
92570W        W57555  29.993  19.421  12.636
92571W        W57556  16.093  12.935   3.139
92572W        W57557  17.865  22.253   1.765
92573W        W57558  32.506   1.171   2.300
92574W        W57559  42.392  12.545  13.025
92575W        W57560  17.868  30.553   2.858
92576W        W57561  42.194  20.641   3.461
92577W        W57562  17.224  10.231  11.219
92578W        W57563  24.428  28.466   3.794
92579W        W57564  30.220   5.156   1.746
92580W        W57565  42.775   8.600   1.411
92581W        W57566  14.600   9.355   2.423
92582W        W57567  13.038  44.419  13.887
92583W        W57568  43.369  21.703  13.107
92584W        W57569   3.234   0.187  12.425
92585W        W57570  41.924  29.528  14.472
92586W        W57571   9.045  37.237   2.685
92587W        W57572  23.670  19.616  14.527
92588W        W57573  37.034  41.973   3.727
92589W        W57574  41.907  44.800   3.760
92590W        W57575   0.334   4.388   1.815
92591W        W57576  25.860  41.165  14.493
92592W        W57577  33.352  39.596  14.873
92593W        W57578  31.145  41.691  12.696
92594W        W57579  32.248   2.638  13.187
92595W        W57580  30.439  15.303  11.541
92596W        W57581  16.625  44.211  11.133
92597W        W57582  30.544  33.811   4.705
92598W        W57583  36.551  24.247   1.915
92599W        W57584  35.711  11.899  12.959
92600W        W57585  15.744   2.381  11.020
92601W        W57586  13.181   1.806   4.622
92602W        W57587   7.540  39.090  14.840
92603W        W57588  21.484   2.398   3.591
92604W        W57589  13.069  28.615   0.696
92605W        W57590  22.240  13.626   0.858
92606W        W57591  28.828  14.641   0.338
92607W        W57592  19.294  29.806  10.443
92608W        W57593   7.444  17.323   1.611
92609W        W57594   8.739  10.228   2.656
92610W        W57595  26.631  14.273   3.897
92611W        W57596  29.582   3.647   4.707
92612W        W57597   2.835  12.653   4.037
92613W        W57598  35.480   5.614  12.545
92614W        W57599  13.541  36.881   0.781
92615W        W57600  44.280  33.169  14.463
92616W        W57601  40.360   2.602  11.788
92617W        W57602  16.345  35.949   0.265
92618W        W57603   1.540  30.937   4.331
92619W        W57604  15.750  44.693  12.156
92620W        W57605  16.178  14.775   3.106
92621W        W57606  44.039   6.803   0.947
92622W        W57607  11.705  36.122   1.361
92623W        W57608  25.044   4.771  14.961
92624W        W57609  20.591  41.403   4.249
92625W        W57610  32.952  42.731   4.649
92626W        W57611  21.675   0.790   2.124
92627W        W57612  16.939  34.120   2.370
92628W        W57613  38.135  29.470   3.222
92629W        W57614  10.314  42.611  11.402
92630W        W57615  24.114  38.376   3.139
92631W        W57616   8.256  39.031  12.367
92632W        W57617  23.642  32.896   1.812
92633W        W57618  36.968  34.644   1.173
92634W        W57619   3.347  33.245  10.751
92635W        W57620  11.740  41.573   2.432
92636W        W57621  20.023  17.135   0.365
92637W        W57622  14.859  36.101  13.484
92638W        W57623  25.174  41.853  14.089
92639W        W57624  13.084  13.867  14.328
92640W        W57625   6.767   9.142  11.373
92641W        W57626   9.224  39.359   4.500
92642W        W57627  22.457   1.900  12.516
92643W        W57628  34.915  25.173   5.195
92644W        W57629  11.621   8.897  10.981
92645W        W57630  15.433   4.422   0.071
92646W        W57631  38.648   1.378   3.233
92647W        W57632  20.372  44.726   1.459
92648W        W57633  23.500  34.182  14.992
92649W        W57634  44.779  26.193  10.470
92650W        W57635  33.577  19.805   3.511
92651W        W57636  30.989  30.672  13.551
92652W        W57637  15.475  26.310   5.088
92653W        W57638  40.025   7.988  10.717
92654W        W57639  29.450  16.516  12.160
92655W        W57640  29.712   0.015   1.223
92656W        W57641  19.041   5.853  12.115
92657W        W57642  15.665  20.014   2.466
92658W        W57643  36.148  32.805   3.293
92659W        W57644   9.719  27.239   1.442
92660W        W57645  37.769  14.255   3.158
92661W        W57646  41.511  25.897   2.946
92662W        W57647  33.578  15.727  13.006
92663W        W57648  29.610  16.260  12.590
92664W        W57649  44.706   0.927  13.442
92665W        W57650  19.528  40.186   4.615
92666W        W57651  19.986   5.685   2.198
92667W        W57652  12.696  23.214  12.374
92668W        W57653  28.963  26.660  14.832
92669W        W57654   0.823  35.042   4.689
92670W        W57655   0.569  30.684   5.070
92671W        W57656   7.240  40.531   4.359
92672W        W57657  37.627   8.041  14.384
92673W        W57658  31.093  38.484  14.845
92674W        W57659  39.999  39.078  13.909
92675W        W57660  43.366  42.015  12.420
92676W        W57661  34.099  34.934  10.794
92677W        W57662  14.184  11.693  14.852
92678W        W57663  39.758   0.248  10.703
92679W        W57664  22.112   5.883   2.582
92680W        W57665   2.437   6.015   0.068
92681W        W57666  23.025  14.394   4.209
92682W        W57667  32.132  27.497   4.172
92683W        W57668   8.832  19.756   3.698
92684W        W57669  37.653   1.377   3.208
92685W        W57670  39.497  43.992   0.501
92686W        W57671   9.336  43.984   0.230
92687W        W57672  20.505   4.785  13.521
92688W        W57673   7.949  12.248  10.716
92689W        W57674  36.243  22.451  11.741
92690W        W57675  22.023  39.108   3.109
92691W        W57676  42.471  41.918   3.371
92692W        W57677  17.271   0.278  13.468
92693W        W57678  24.059  35.926   1.259
92694W        W57679  22.263  27.385  14.394
92695W        W57680  26.159  15.046  11.145
92696W        W57681   7.878   9.178  14.367
92697W        W57682   0.969  39.000   4.994
92698W        W57683   7.403  32.457  14.548
92699W        W57684  16.655  35.543  11.771
92700W        W57685  44.035  19.590   2.238
92701W        W57686  43.278   7.756   2.874
92702W        W57687  44.304  10.152   1.155
92703W        W57688  33.980  24.750   1.849
92704W        W57689  17.051  41.727   4.313
92705W        W57690  38.352  39.026   0.255
92706W        W57691   1.024  43.854  11.061
92707W        W57692  33.755   6.363   4.770
92708W        W57693  19.778  32.262   3.680
92709W        W57694  25.201  26.020   1.375
92710W        W57695  25.046  12.176   4.617
92711W        W57696  35.700  37.854   2.126
92712W        W57697  30.610  29.596  13.498
92713W        W57698   7.938  36.964   0.755
92714W        W57699  40.996  11.352  11.940
92715W        W57700  33.399  30.605  12.200
92716W        W57701  41.440  42.438  13.966
92717W        W57702  39.776   6.817  12.074
92718W        W57703  18.766  33.497   2.151
92719W        W57704  10.500  32.718  13.447
92720W        W57705  38.142  25.571  10.713
92721W        W57706  31.494   4.941   3.209
92722W        W57707  33.107  33.353   1.412
92723W        W57708   3.919  22.599  14.496
92724W        W57709   3.408  10.412   0.242
92725W        W57710   3.525  41.801  14.961
92726W        W57711  24.023  29.896   0.345
92727W        W57712  26.167  44.323  14.084
92728W        W57713  12.201  34.026  11.130
92729W        W57714  24.013  44.105  12.070
92730W        W57715  31.408  27.006   0.549
92731W        W57716  18.360  13.261  14.001
92732W        W57717  30.192  44.603  10.072
92733W        W57718  26.960  36.347   4.903
92734W        W57719   5.356  34.938   0.400
92735W        W57720  13.506  11.302  12.468
92736W        W57721  17.752  43.910  11.766
92737W        W57722  44.600  33.603   0.160
92738W        W57723  31.101   2.620  13.067
92739W        W57724  12.116  27.575   3.620
92740W        W57725   9.946  30.102   3.181
92741W        W57726   0.323  23.451   0.566
92742W        W57727  35.853  34.990   1.681
92743W        W57728   3.560   8.540  11.908
92744W        W57729   8.594  28.800   1.885
92745W        W57730  20.248  14.005   4.679
92746W        W57731   2.718  21.019  13.333
92747W        W57732  11.361  43.874   3.684
92748W        W57733   1.970  15.089  13.805
92749W        W57734   8.638  36.328   1.208
92750W        W57735   7.488   0.514   0.384
92751W        W57736   6.901   3.745   9.870
92752W        W57737  28.180  26.363  13.009
92753W        W57738  26.694  23.513  10.667
92754W        W57739  29.002  26.447   3.486
92755W        W57740  27.128   2.298  11.523
92756W        W57741   0.605  31.060  12.070
92757W        W57742  41.831  32.465   3.770
92758W        W57743  23.047  40.440   2.870
92759W        W57744  14.255  19.077   2.286
92760W        W57745  36.818  30.080  14.727
92761W        W57746  37.522  36.651  11.152
92762W        W57747  18.360   6.966  12.999
92763W        W57748  13.139  21.843   2.346
92764W        W57749   8.830  18.218   3.806
92765W        W57750  40.156   6.936   3.565
92766W        W57751   5.257   7.745   2.277
92767W        W57752  42.334   3.213  12.502
92768W        W57753  26.099  42.422   2.412
92769W        W57754  33.614  32.858   1.977
92770W        W57755  30.798  21.380  14.339
92771W        W57756   2.778   2.835   4.222
92772W        W57757  41.947  28.711   4.106
92773W        W57758  11.244   2.895   1.112
92774W        W57759  15.282  43.536  14.915
92775W        W57760  16.827  35.643  12.578
92776W        W57761   7.157  10.755   3.351
92777W        W57762   9.689   6.703   3.356
92778W        W57763  19.631  37.215   2.807
92779W        W57764  22.946  17.981   1.580
92780W        W57765  13.751  26.165  11.536
92781W        W57766  37.369  18.672   1.426
92782W        W57767  38.022   1.210   4.048
92783W        W57768  40.558   3.298   4.462
92784W        W57769  12.331  29.870   2.420
92785W        W57770  17.379   3.230  11.240
92786W        W57771  19.237  22.020   3.289
92787W        W57772  43.536  29.187   2.357
92788W        W57773  29.162  14.703   3.853
92789W        W57774   6.341  12.670  14.043
92790W        W57775  26.753  10.236   2.039
92791W        W57776  36.188  11.797   1.264
92792W        W57777  33.085   6.427   0.930
92793W        W57778  37.500  28.084   2.850
92794W        W57779  19.973  21.044  11.515
92795W        W57780  39.353   1.694  11.573
92796W        W57781  11.224   2.023   4.648
92797W        W57782   3.459   8.298   2.682
92798W        W57783  33.566  19.092   4.595
92799W        W57784  26.318  21.472   2.259
92800W        W57785   5.184  15.729  13.405
92801W        W57786   5.003  18.455   4.205
92802W        W57787  20.751  33.302   0.909
92803W        W57788  24.101   6.867  13.148
92804W        W57789   9.303  40.127  13.888
92805W        W57790  44.070  32.555  12.685
92806W        W57791   4.065  38.253  12.203
92807W        W57792  32.015  34.554   4.578
92808W        W57793  20.514  17.199   0.217
92809W        W57794   9.169   0.739   4.138
92810W        W57795  40.670  41.806   4.130
92811W        W57796  43.868  29.396   2.004
92812W        W57797  29.052   3.602  10.716
92813W        W57798   2.321  32.432   3.099
92814W        W57799   7.540  17.562  11.380
92815W        W57800  33.924  18.172  10.966
92816W        W57801  37.749  18.834  12.134
92817W        W57802  15.162  37.507   3.307
92818W        W57803   7.334   5.803  14.986
92819W        W57804  34.162  30.274  11.116
92820W        W57805   3.790  10.616  12.254
92821W        W57806  36.105   1.349   3.156
92822W        W57807   5.387  10.010  13.939
92823W        W57808  17.624  21.601  12.936
92824W        W57809   7.655   9.155   0.722
92825W        W57810  34.998  39.583   2.349
92826W        W57811  22.643  17.166  13.957
92827W        W57812  44.336  33.354  11.009
92828W        W57813  42.124   9.318  12.013
92829W        W57814  39.777  28.698  12.524
92830W        W57815   9.666  38.431  12.497
92831W        W57816  31.365   9.520  10.398
92832W        W57817  13.313  24.066   4.694
92833W        W57818   8.085  24.669   1.145
92834W        W57819   1.193  19.134   1.204
92835W        W57820   8.762  15.114   0.777
92836W        W57821  43.296  12.586  14.960
92837W        W57822  30.941  13.572   0.007
92838W        W57823  32.997  22.202   1.524
92839W        W57824  28.651  22.676   2.161
92840W        W57825   0.899   0.532   3.088
92841W        W57826  16.916  35.946  10.580
92842W        W57827  40.337  28.177   0.938
92843W        W57828  27.005  32.085   4.539
92844W        W57829  36.825  11.239   2.742
92845W        W57830  33.309  25.081   2.315
92846W        W57831  32.081   0.521  14.314
92847W        W57832  44.893  43.085   4.557
92848W        W57833  11.272  39.054  14.500
92849W        W57834   2.042  16.635  13.000
92850W        W57835  23.920  31.791   2.398
92851W        W57836  15.868  23.917  14.410
92852W        W57837  34.968  37.836   0.167
92853W        W57838   5.448  32.167   0.303
92854W        W57839  37.437  34.385   1.940
92855W        W57840   0.793  27.514   2.374
92856W        W57841  43.447   4.500  14.656
92857W        W57842  34.845  38.515  12.611
92858W        W57843  40.796   8.314  14.525
92859W        W57844  19.632   2.739  10.506
92860W        W57845  39.621  43.510   0.737
92861W        W57846  16.299  30.478  12.521
92862W        W57847  14.360  30.258   3.352
92863W        W57848  16.105   8.238  11.969
92864W        W57849  14.584  28.919  13.580
92865W        W57850  17.503  20.707   4.115
92866W        W57851  12.082  36.405  11.065
92867W        W57852  13.809  14.605  13.453
92868W        W57853  27.578  26.108  14.049
92869W        W57854  16.704  19.027   3.671
92870W        W57855  19.573  24.681   4.415
92871W        W57856  12.639  22.311  11.453
92872W        W57857  17.703  40.246   4.534
92873W        W57858   6.447  11.161   1.275
92874W        W57859  28.118  44.533  11.950
92875W        W57860  37.719  17.702   1.893
92876W        W57861  32.000   2.056  11.982
92877W        W57862  37.229  28.438   0.968
92878W        W57863  10.163  35.014  10.322
92879W        W57864  37.658  18.340   3.390
92880W        W57865   8.622  27.667   2.249
92881W        W57866   4.371   4.067  14.702
92882W        W57867  30.202   3.925   1.324
92883W        W57868  10.643  28.585   1.701
92884W        W57869   3.310  26.464   0.310
92885W        W57870  23.590   0.612  12.035
92886W        W57871  39.529  36.399  13.045
92887W        W57872  16.979  10.485  14.432
92888W        W57873   1.924   9.176   4.997
92889W        W57874  30.959   4.305  10.663
92890W        W57875  15.169  33.350  12.064
92891W        W57876  43.401  27.637  11.126
92892W        W57877  44.722  19.580   0.372
92893W        W57878  35.113   5.632   0.829
92894W        W57879  37.220  23.057   0.773
92895W        W57880   6.642   7.788  10.721
92896W        W57881  28.079   7.834  11.591
92897W        W57882  18.196   9.403   1.038
92898W        W57883  10.549   6.871  10.094
92899W        W57884  20.495  23.817  13.415
92900W        W57885  28.127  43.740  12.452
92901W        W57886  24.540  44.812   2.801
92902W        W57887  34.587  10.602  14.879
92903W        W57888   2.284  19.654   3.078
92904W        W57889  25.139  32.506  11.209
92905W        W57890  28.506   5.765   1.626
92906W        W57891  17.615  13.513   4.561
92907W        W57892  29.378  28.473   1.496
92908W        W57893   3.506  30.154   1.312
92909W        W57894  44.045  28.690   5.614
92910W        W57895  35.710  12.944  13.874
92911W        W57896   9.744  27.862   0.570
92912W        W57897  27.989  38.609  10.824
92913W        W57898  12.795  22.700  14.686
92914W        W57899   1.024  42.420   3.244
92915W        W57900   6.917  15.334   0.873
92916W        W57901  21.944  12.737  13.219
92917W        W57902   7.590  27.529  10.822
92918W        W57903  19.761  30.183   1.390
92919W        W57904  42.860   7.763  11.127
92920W        W57905   4.977  35.855   1.184
92921W        W57906   5.075   4.642   2.617
92922W        W57907  33.041  28.393  13.853
92923W        W57908   4.944   5.800  12.802
92924W        W57909   4.928  22.689  12.929
92925W        W57910  24.269  20.663   4.543
92926W        W57911   6.251   0.976   0.201
92927W        W57912  40.682  21.519  14.738
92928W        W57913   2.935  35.670  14.837
92929W        W57914  27.634   0.909   3.553
92930W        W57915  36.422  13.672   1.369
92931W        W57916  14.797   0.855   3.295
92932W        W57917  39.387  21.045  10.708
92933W        W57918  42.507  17.239  11.997
92934W        W57919   7.139  35.552   4.560
92935W        W57920   1.459  20.226   0.919
92936W        W57921  26.009  10.367  14.989
92937W        W57922  39.109   7.797   3.767
92938W        W57923   0.523  28.395  14.741
92939W        W57924  17.038  14.687  10.404
92940W        W57925  34.658  12.060   1.757
92941W        W57926  30.107   6.182  11.007
92942W        W57927  33.680  14.733  12.908
92943W        W57928  29.857  25.485   4.565
92944W        W57929  43.446  21.458   3.590
92945W        W57930   5.183  31.262  12.669
92946W        W57931  36.166  43.845  13.374
92947W        W57932  29.270  25.131   1.703
92948W        W57933  25.241   6.387  12.003
92949W        W57934  41.034   4.687   4.867
92950W        W57935  20.535   2.327   0.541
92951W        W57936  18.398  21.420   3.291
92952W        W57937  38.031   2.546   0.522
92953W        W57938  35.457  30.867  14.894
92954W        W57939  15.691  22.464  12.568
92955W        W57940  23.881  26.594  12.534
92956W        W57941  14.373  15.189   3.186
92957W        W57942  23.504  25.086   1.989
92958W        W57943  13.344  20.270  13.437
92959W        W57944  28.952  27.956   4.501
92960W        W57945  35.867  14.480  14.012
92961W        W57946  27.702  41.780  13.153
92962W        W57947  20.635  43.570  11.158
92963W        W57948  20.993  25.224   5.082
92964W        W57949  23.989   6.634  13.987
92965W        W57950  34.977  40.309   3.953
92966W        W57951   8.108   4.833  14.357
92967W        W57952  13.773  11.745   0.509
92968W        W57953  41.937  11.756  13.327
92969W        W57954  24.489  39.316   0.739
92970W        W57955  43.326  28.972   4.436
92971W        W57956  35.920  10.689  11.440
92972W        W57957  28.366  22.684  12.324
92973W        W57958  14.198  36.193   2.621
92974W        W57959  18.258   4.320   1.709
92975W        W57960  38.033   0.707  10.512
92976W        W57961  29.442   1.200   2.878
92977W        W57962  23.677   5.917  10.969
92978W        W57963   6.147   4.230  14.736
92979W        W57964  12.920  25.642   3.676
92980W        W57965  12.814  13.644  13.672
92981W        W57966  41.249  22.112   5.411
92982W        W57967  21.806  15.270   1.489
92983W        W57968  27.534  11.644   4.807
92984W        W57969  35.586  25.917   2.948
92985W        W57970  41.965  29.073  10.167
92986W        W57971  33.163  10.914   3.752
92987W        W57972  15.772  22.120  10.685
92988W        W57973  19.086  34.038  10.591
92989W        W57974  34.965  29.696  14.783
92990W        W57975  35.068  15.229  10.980
92991W        W57976   5.360  22.169  14.343
92992W        W57977  36.021  28.003   0.924
92993W        W57978  36.261  25.213   3.988
92994W        W57979  11.643  15.341   2.298
92995W        W57980  41.420  29.406  12.517
92996W        W57981  43.339  17.394  14.324
92997W        W57982  32.639  36.015   3.638
92998W        W57983   9.354  35.460  12.101
92999W        W57984   6.856  20.694   2.915
93000W        W57985  44.847  31.913   4.528
93001W        W57986   7.916  17.047  11.988
93002W        W57987   1.688  12.871  13.561
93003W        W57988  15.670  23.485   0.470
93004W        W57989  33.429  35.202   3.650
93005W        W57990  32.538  30.144   2.730
93006W        W57991  39.332  24.032   4.199
93007W        W57992  14.135  10.114  12.777
93008W        W57993  21.779   6.817   0.868
93009W        W57994  15.727  23.018  13.469
93010W        W57995  18.181  16.703   1.705
93011W        W57996  43.225   1.407  14.809
93012W        W57997  37.005   3.416   0.921
93013W        W57998  14.655   3.436  12.745
93014W        W57999  11.461  22.563   3.226
93015W        W58000  22.981  14.432   1.367
93016W        W58001  11.947  17.578   4.997
93017W        W58002   6.937  20.293  12.340
93018W        W58003  29.483  42.552  14.222
93019W        W58004  42.413   7.565  12.535
93020W        W58005   5.962  18.350  13.004
93021W        W58006  33.150  42.902   4.175
93022W        W58007   4.050  19.158  11.826
93023W        W58008   7.452  15.617  13.053
93024W        W58009  21.695  22.645   4.135
93025W        W58010  26.857  14.447   0.725
93026W        W58011  10.185  17.265   4.018
93027W        W58012  13.204  16.630   1.892
93028W        W58013  24.436  40.523   3.803
93029W        W58014  33.473   0.060   4.515
93030W        W58015  28.514  17.109  13.968
93031W        W58016  40.291  19.322   4.102
93032W        W58017   2.437  24.065  13.870
93033W        W58018  43.049   8.161   1.485
93034W        W58019   7.309  13.727  10.758
93035W        W58020  16.742  21.731   0.324
93036W        W58021  18.331  39.055   2.623
93037W        W58022  35.572  38.930   2.569
93038W        W58023  28.177   8.224  13.896
93039W        W58024   7.608  10.837   1.159
93040W        W58025  34.313  17.391   2.099
93041W        W58026  11.310  37.816   4.182
93042W        W58027   0.458  21.241   3.782
93043W        W58028  42.956  24.431  11.618
93044W        W58029  33.066  19.040   3.724
93045W        W58030  29.972   8.601   0.779
93046W        W58031  27.484  42.470  14.926
93047W        W58032  41.348  24.002   0.712
93048W        W58033   4.336  32.787   1.692
93049W        W58034  26.021   0.472   2.106
93050W        W58035  39.318  11.901   1.615
93051W        W58036   3.368  20.694   2.628
93052W        W58037  41.518   7.958  13.862
93053W        W58038  32.279   0.888  14.594
93054W        W58039  42.396  21.723  12.089
93055W        W58040  28.597  18.197  12.018
93056W        W58041  44.997  16.254  12.051
93057W        W58042  19.751  20.624   1.571
93058W        W58043  19.952  10.251  10.796
93059W        W58044  11.471  42.932  13.998
93060W        W58045  41.400  26.713   0.436
93061W        W58046  34.533  19.276   2.816
93062W        W58047  33.650   6.375   1.845
93063W        W58048  40.006  21.652   2.282
93064W        W58049  19.890  18.555   4.067
93065W        W58050  32.419   4.189   0.024
93066W        W58051  38.940  14.811   3.507
93067W        W58052   0.133  14.654   5.058
93068W        W58053  16.161   9.361  11.387
93069W        W58054  16.882  21.712  11.659
93070W        W58055   6.293  18.624   2.799
93071W        W58056  33.550   4.874   4.551
93072W        W58057  36.811   4.399  14.453
93073W        W58058  30.591  26.207  11.047
93074W        W58059  29.895  41.742   3.713
93075W        W58060  20.812  13.365   1.268
93076W        W58061   4.173  35.404   0.442
93077W        W58062   4.448  21.661  11.180
93078W        W58063  29.366  22.183   0.065
93079W        W58064  24.174   8.274   4.392
93080W        W58065  43.801  21.549   1.428
93081W        W58066  31.298  43.114   2.700
93082W        W58067   2.552  28.850  11.522
93083W        W58068  39.403   8.628   3.302
93084W        W58069  27.667  21.259  14.236
93085W        W58070   8.317  24.975  12.507
93086W        W58071  43.874  40.318   2.366
93087W        W58072  12.115  20.125  14.830
93088W        W58073  10.761   7.648   1.202
93089W        W58074  43.090  13.092  13.364
93090W        W58075   7.442  22.307   0.969
93091W        W58076  23.693  38.624  13.582
93092W        W58077  14.359  16.212  10.821
93093W        W58078  33.622   3.840  11.924
93094W        W58079   1.348  30.718   2.202
93095W        W58080  39.629  15.458  11.511
93096W        W58081  15.557  26.458   3.162
93097W        W58082   7.484  18.993   4.835
93098W        W58083   0.945  34.528  11.590
93099W        W58084  33.579  12.448  14.589
93100W        W58085  18.101  28.706   1.787
93101W        W58086  42.033  39.565  11.143
93102W        W58087  27.711  14.884  13.216
93103W        W58088  40.791  11.233   4.738
93104W        W58089   7.001  39.248   2.333
93105W        W58090   6.808  29.352   3.713
93106W        W58091  32.942   5.519  14.515
93107W        W58092  43.353  31.993   2.885
93108W        W58093  38.640  24.408   5.646
93109W        W58094  15.002  18.661  14.013
93110W        W58095  19.586   2.749   4.297
93111W        W58096  25.472  34.635   5.030
93112W        W58097  44.700  41.871   3.296
93113W        W58098  23.184  41.932  10.606
93114W        W58099  33.305  16.737   3.419
93115W        W58100  38.961  12.016   0.004
93116W        W58101  29.646   1.698   9.777
93117W        W58102  25.462  37.539   5.100
93118W        W58103  10.564   6.855   0.958
93119W        W58104  44.488  22.070  11.616
93120W        W58105  10.865  31.201  12.365
93121W        W58106  25.153  38.999  13.810
93122W        W58107  22.002   9.154  14.923
93123W        W58108  40.344  23.779   3.284
93124W        W58109  29.133  30.098   5.058
93125W        W58110  25.513   7.356   1.790
93126W        W58111  21.992   5.066  11.442
93127W        W58112   3.720   2.478   0.904
93128W        W58113  11.990  22.555   3.192
93129W        W58114  17.003   2.016   1.702
93130W        W58115  29.596  21.807   4.128
93131W        W58116  33.005  35.060   0.621
93132W        W58117  38.344  36.521  12.001
93133W        W58118  44.008  44.705  10.782
93134W        W58119  35.778  44.787  12.196
93135W        W58120  24.724  33.820   4.076
93136W        W58121  43.053  27.663   0.800
93137W        W58122  33.141  14.492   1.534
93138W        W58123  13.737  16.981   1.703
93139W        W58124  38.256  36.594   2.178
93140W        W58125  18.235  37.997   1.982
93141W        W58126  22.123  32.095   2.492
93142W        W58127  41.869  15.933   5.375
93143W        W58128  38.833  14.860   0.749
93144W        W58129   3.495  23.799   0.710
93145W        W58130   3.021  28.666   1.208
93146W        W58131  22.688  27.004   3.651
93147W        W58132  30.542   2.509  14.328
93148W        W58133  27.345  41.509  13.391
93149W        W58134   0.874  43.738  13.102
93150W        W58135  36.623  21.788  13.036
93151W        W58136   4.410  42.866  14.417
93152W        W58137  11.773  30.219  12.577
93153W        W58138  41.213  44.313  12.557
93154W        W58139   8.336  38.448   4.095
93155W        W58140  10.234  32.407   3.659
93156W        W58141  35.079  23.274   4.432
93157W        W58142  39.424  17.340  14.508
93158W        W58143  10.924  20.228  13.522
93159W        W58144  13.052  28.646   3.681
93160W        W58145  42.791  12.885  12.947
93161W        W58146   0.211   8.815   4.535
93162W        W58147  10.186  44.572  14.334
93163W        W58148  34.905  10.562  11.632
93164W        W58149  33.803  10.336   4.535
93165W        W58150  12.123  43.848   0.343
93166W        W58151  37.103   3.691   3.675
93167W        W58152  30.108  17.504   1.250
93168W        W58153  22.173  40.047   0.438
93169W        W58154  37.413  17.796   4.550
93170W        W58155  15.611   9.252  11.447
93171W        W58156  11.857  20.212  11.973
93172W        W58157  22.346  40.106   5.159
93173W        W58158   6.124  20.313   1.773
93174W        W58159   6.166  30.541   3.700
93175W        W58160   6.611  11.841  14.677
93176W        W58161  40.541   5.773   3.623
93177W        W58162  30.084  20.682  14.310
93178W        W58163   8.650  15.810  13.481
93179W        W58164  11.343  29.937   2.726
93180W        W58165  42.244  19.309   4.567
93181W        W58166  16.921  18.073  11.967
93182W        W58167  41.847   1.801   2.936
93183W        W58168  31.618   5.207  13.562
93184W        W58169   8.401  30.958   3.570
93185W        W58170  30.028  18.166   2.763
93186W        W58171   9.935  22.069  10.730
93187W        W58172  44.537  16.366  10.335
93188W        W58173  24.938  29.587   0.046
93189W        W58174  37.967  19.585   3.669
93190W        W58175  37.931  10.421   0.317
93191W        W58176  33.935  18.867   0.322
93192W        W58177   5.163  13.867  13.501
93193W        W58178  44.433  22.145   1.174
93194W        W58179  27.461  27.732  10.036
93195W        W58180  17.360   3.215   2.493
93196W        W58181  29.265  14.920   4.307
93197W        W58182  23.894   2.534   3.655
93198W        W58183  23.158  29.888  13.261
93199W        W58184   2.357   0.199   4.753
93200W        W58185   0.477  34.463  13.861
93201W        W58186  33.549  10.320  14.197
93202W        W58187  43.946  39.777  12.585
93203W        W58188  28.658  40.484   2.822
93204W        W58189   8.725  23.988  14.464
93205W        W58190  12.834  10.207  10.727
93206W        W58191  16.565   1.552   1.876
93207W        W58192   5.747  36.332   0.714
93208W        W58193  33.631  12.338  13.247
93209W        W58194   1.775   6.034  12.505
93210W        W58195   6.886  37.149  12.772
93211W        W58196  25.652  36.480  12.791
93212W        W58197  14.001  26.705   0.807
93213W        W58198   4.150  33.644  14.953
93214W        W58199   3.988  23.643  11.607
93215W        W58200   4.815  13.817   2.877
93216W        W58201  22.830  19.126   0.635
93217W        W58202  34.504   1.155  14.033
93218W        W58203   3.900  10.078   0.357
93219W        W58204  42.388   7.898   2.612
93220W        W58205  39.382   9.443   3.521
93221W        W58206  23.821  20.973   2.924
93222W        W58207  41.494   4.963   1.420
93223W        W58208  12.997  20.248  12.588
93224W        W58209  11.707  32.406  11.456
93225W        W58210  14.082  28.697   3.821
93226W        W58211   0.773  28.369   2.469
93227W        W58212  22.529  34.115   1.998
93228W        W58213  21.914  43.081   2.255
93229W        W58214  33.836  20.558   1.015
93230W        W58215  34.354  34.962   3.755
93231W        W58216  24.468  24.016   4.110
93232W        W58217  11.914  10.951  13.266
93233W        W58218   6.778  22.451   0.430
93234W        W58219   9.251  10.653  10.663
93235W        W58220  33.911  41.847  12.397
93236W        W58221  12.590  27.620  11.573
93237W        W58222  42.269  24.691  12.252
93238W        W58223  22.476  25.612   1.691
93239W        W58224  25.791  28.153   2.205
93240W        W58225  21.426  11.324   0.913
93241W        W58226  36.517  18.026   2.110
93242W        W58227  34.766  20.639  11.632
93243W        W58228  21.647  42.857  14.018
93244W        W58229   2.351   2.832   3.937
93245W        W58230  23.017   1.479   0.448
93246W        W58231  43.874   5.649   0.325
93247W        W58232  15.007  33.639   2.167
93248W        W58233  27.509  22.863   1.484
93249W        W58234  21.491  32.082   0.796
93250W        W58235  43.840  25.982  11.926
93251W        W58236   1.195   7.891   1.275
93252W        W58237  28.275  36.128  11.543
93253W        W58238  21.039  23.501   0.466
93254W        W58239   2.849  39.119   0.499
93255W        W58240  22.212  22.232  10.238
93256W        W58241   3.731  24.994  10.448
93257W        W58242  33.394  26.453  12.960
93258W        W58243   9.790  13.196   3.653
93259W        W58244  30.863   8.736  11.639
93260W        W58245  14.253  40.030  12.635
93261W        W58246  16.182  34.818  10.323
93262W        W58247  43.286   4.378   1.121
93263W        W58248  34.093  31.822   0.715
93264W        W58249  34.385  18.627   0.476
93265W        W58250  10.662  10.637  11.183
93266W        W58251  18.758  41.752   4.939
93267W        W58252  34.435  15.634  13.518
93268W        W58253   2.915  38.229  14.960
93269W        W58254  29.119   5.459  11.951
93270W        W58255   9.804  32.118  12.507
93271W        W58256  33.070  24.447  11.560
93272W        W58257  12.347   2.919   4.858
93273W        W58258  17.782  24.026   4.467
93274W        W58259  19.739   9.211   3.709
93275W        W58260  10.872  40.832  11.011
93276W        W58261  28.953  35.952  14.946
93277W        W58262  44.811  28.088   0.831
93278W        W58263  42.705  27.966   1.196
93279W        W58264  13.671  13.122  12.426
93280W        W58265  31.878   0.541   3.799
93281W        W58266   2.128  37.181  11.910
93282W        W58267  21.016  30.395  11.061
93283W        W58268   9.111  17.632  10.697
93284W        W58269  25.141   0.790   0.537
93285W        W58270  28.132  13.334   0.831
93286W        W58271  29.289   6.455  11.945
93287W        W58272  36.920  41.054  14.388
93288W        W58273  22.745  11.274  13.319
93289W        W58274  18.238  34.110   3.780
93290W        W58275  17.431  17.380  11.960
93291W        W58276  24.283  34.654   0.870
93292W        W58277  43.311  19.151   3.549
93293W        W58278  20.578   7.981   0.730
93294W        W58279  22.640  31.611  10.529
93295W        W58280  27.443   2.734  12.472
93296W        W58281  18.037  34.468  14.930
93297W        W58282  28.145  12.712  11.639
93298W        W58283  20.945  18.572   0.785
93299W        W58284  29.857  11.122  13.877
93300W        W58285  13.917   4.936  10.223
93301W        W58286  18.566  35.046  10.944
93302W        W58287   0.885  25.641  14.636
93303W        W58288   9.189   9.654   1.429
93304W        W58289   2.080  25.111  11.536
93305W        W58290   0.257  22.058  12.234
93306W        W58291  43.679  28.908   1.877
93307W        W58292  24.373  16.724   4.074
93308W        W58293  32.545  27.941  12.588
93309W        W58294   9.407  22.337   4.232
93310W        W58295  14.711  35.066  12.003
93311W        W58296  27.658  34.697   2.063
93312W        W58297  19.534  31.389   3.738
93313W        W58298   5.254   2.497  13.802
93314W        W58299  21.974   4.895  10.186
93315W        W58300  18.563  10.646  13.307
93316W        W58301  36.395  27.027  11.486
93317W        W58302  37.467  29.229   1.855
93318W        W58303  27.389  15.884   3.881
93319W        W58304  42.202  42.890  13.550
93320W        W58305  12.353  21.210   2.926
93321W        W58306  35.789  43.280   2.269
93322W        W58307  38.512  29.710  14.826
93323W        W58308  30.886  43.920  11.052
93324W        W58309  42.958  37.719   2.262
93325W        W58310  12.364  27.150  12.922
93326W        W58311   7.250  43.295  11.618
93327W        W58312  21.138  10.505   1.714
93328W        W58313   0.051  37.994   4.228
93329W        W58314  41.044  24.147  11.164
93330W        W58315  19.796  43.281  13.905
93331W        W58316  36.967  15.143  14.381
93332W        W58317  34.291  20.778  14.417
93333W        W58318   1.027   8.406  12.023
93334W        W58319  37.455  44.296   1.883
93335W        W58320  13.145  20.493  13.024
93336W        W58321  39.173  38.004   3.919
93337W        W58322   6.758  34.783  11.987
93338W        W58323  13.818  12.762   2.877
93339W        W58324  15.131  10.316  12.917
93340W        W58325  12.845   6.418   3.664
93341W        W58326  20.252  42.384  13.429
93342W        W58327  42.863  24.273   1.452
93343W        W58328  37.532  25.687  12.267
93344W        W58329  28.626  19.821   1.327
93345W        W58330  31.936   5.774  12.851
93346W        W58331  24.948  21.266  11.057
93347W        W58332  12.095  15.087  11.681
93348W        W58333  25.340  32.959   0.516
93349W        W58334  21.003  44.209  10.592
93350W        W58335  11.532  40.836  14.469
93351W        W58336  32.459  42.925  13.718
93352W        W58337  20.028   2.399   1.743
93353W        W58338   8.484   7.960   4.355
93354W        W58339  36.004  10.266  14.661
93355W        W58340  24.222  37.415   2.703
93356W        W58341  44.831   1.554   0.845
93357W        W58342  25.520  15.549   2.167
93358W        W58343  18.361  12.208  14.900
93359W        W58344  18.228  13.542  13.517
93360W        W58345  40.949  13.094   4.510
93361W        W58346  44.327  29.827  11.858
93362W        W58347  22.059  16.742  11.655
93363W        W58348  25.595  15.634  10.130
93364W        W58349  28.908  16.813   1.337
93365W        W58350   0.659   8.126   0.904
93366W        W58351  26.443  12.901  11.868
93367W        W58352  15.254  32.683  13.767
93368W        W58353  40.406   3.127  11.658
93369W        W58354  16.606  33.872   4.717
93370W        W58355   6.761   3.445   2.409
93371W        W58356   7.508   2.966   3.217
93372W        W58357  20.159  11.891  14.414
93373W        W58358  43.973  36.695   1.364
93374W        W58359  37.272   3.256  11.240
93375W        W58360  34.301   0.952   1.219
93376W        W58361   2.605  27.587   2.997
93377W        W58362  16.644  29.955   2.221
93378W        W58363   3.285  35.341  14.285
93379W        W58364  37.736  11.325  12.897
93380W        W58365  41.727  10.227  11.113
93381W        W58366  35.791  43.401  14.493
93382W        W58367   8.346  38.793   0.723
93383W        W58368  36.194  18.572  12.794
93384W        W58369   5.251  41.263  11.075
93385W        W58370  15.681  16.686  11.950
93386W        W58371  24.127   8.138  11.522
93387W        W58372  42.694   1.849  11.174
93388W        W58373  39.777  28.054  13.150
93389W        W58374  32.042  16.311   4.100
93390W        W58375   1.295  11.570  11.616
93391W        W58376  36.547   8.458  11.966
93392W        W58377  38.444  15.669  10.943
93393W        W58378  38.911  44.193   3.279
93394W        W58379  16.664  26.514  14.066
93395W        W58380  27.527   8.287   1.085
93396W        W58381   9.022  35.755  10.648
93397W        W58382  30.993  15.431   2.768
93398W        W58383  30.623   0.022   4.122
93399W        W58384  32.615  10.152  14.187
93400W        W58385  36.556  26.696   3.225
93401W        W58386  34.933  18.707  11.330
93402W        W58387   0.732  44.212  12.419
93403W        W58388   2.427  14.780  11.508
93404W        W58389  22.928  28.512   4.669
93405W        W58390   1.956  44.723   1.239
93406W        W58391  36.432   5.094  10.347
93407W        W58392  15.674  33.050   0.918
93408W        W58393   7.612   8.450   1.804
93409W        W58394  43.514  42.528   1.901
93410W        W58395   2.179  37.943   0.667
93411W        W58396  32.632  41.991   4.114
93412W        W58397   5.345   3.413   2.121
93413W        W58398   7.368  16.290   1.404
93414W        W58399  23.545  34.628  11.061
93415W        W58400  29.297   4.315  13.429
93416W        W58401  21.435   8.046   1.765
93417W        W58402  38.123  43.483   2.443
93418W        W58403  19.139  31.090  13.007
93419W        W58404  31.611  30.927   2.139
93420W        W58405  41.402  14.321  11.411
93421W        W58406  19.894  43.293   1.752
93422W        W58407  28.642   2.077   3.342
93423W        W58408   5.159  18.438   3.234
93424W        W58409   2.851  40.610   4.906
93425W        W58410  11.073  26.510   3.691
93426W        W58411  25.480  17.741   1.864
93427W        W58412   0.686  11.221   0.432
93428W        W58413  26.928  19.115  11.993
93429W        W58414  29.225  43.942   2.644
93430W        W58415   3.727   9.100   2.317
93431W        W58416  12.239  43.002   1.858
93432W        W58417  28.541  21.255   2.954
93433W        W58418  31.791  30.684   2.748
93434W        W58419  12.357  30.963   2.702
93435W        W58420  12.598   2.420  14.601
93436W        W58421   1.956  20.623   4.921
93437W        W58422  12.146  13.302   2.747
93438W        W58423  40.343  33.019   3.142
93439W        W58424  39.850  40.695   3.649
93440W        W58425  31.453  15.233   3.703
93441W        W58426  32.179  21.112  14.595
93442W        W58427  14.249  35.305  14.384
93443W        W58428  15.070  12.117  13.853
93444W        W58429  32.117  15.515  13.252
93445W        W58430  18.654  18.197   2.086
93446W        W58431  14.281  16.588  13.525
93447W        W58432  17.147   1.436   3.981
93448W        W58433  37.054  31.958  11.502
93449W        W58434   0.717  37.418  13.739
93450W        W58435  32.919  39.806  12.828
93451W        W58436  34.102  24.294  14.505
93452W        W58437  24.262  26.188   3.517
93453W        W58438   6.202  33.042  12.033
93454W        W58439   1.402  13.826  13.052
93455W        W58440   5.688  17.937   2.818
93456W        W58441  17.736  18.185  10.770
93457W        W58442  32.620  17.858  11.236
93458W        W58443  34.970  28.731  11.207
93459W        W58444  16.274  28.047  10.845
93460W        W58445  37.540  38.791  14.144
93461W        W58446   0.869  13.080  12.032
93462W        W58447  25.501  33.230  13.068
93463W        W58448  38.142  33.745  12.986
93464W        W58449  27.857  40.368  11.582
93465W        W58450  14.365  37.479   4.185
93466W        W58451  21.364  15.787   3.906
93467W        W58452   9.849  37.932  13.428
93468W        W58453   5.735  11.500   1.562
93469W        W58454  18.983  10.692  14.696
93470W        W58455  28.507  30.081  12.100
93471W        W58456   7.263  24.454   1.262
93472W        W58457  18.190  32.324   1.738
93473W        W58458  24.931  13.816   0.210
93474W        W58459  23.000  32.237  10.413
93475W        W58460   9.878  20.563   2.431
93476W        W58461   9.519  39.445  14.527
93477W        W58462  25.507  36.407   2.295
93478W        W58463  27.070  19.639   4.602
93479W        W58464  38.261  24.518  10.653
93480W        W58465  10.314   0.365  13.551
93481W        W58466  10.142  11.052   1.358
93482W        W58467  35.926  25.742   4.212
93483W        W58468  10.913  26.974   3.618
93484W        W58469  14.101  35.796   4.071
93485W        W58470  30.106  42.406   0.461
93486W        W58471   0.953  35.289   1.863
93487W        W58472  40.712  30.425  10.315
93488W        W58473  35.900  27.135   3.734
93489W        W58474  34.981  42.812   5.048
93490W        W58475  43.223   5.278   1.265
93491W        W58476  31.688   1.265  13.914
93492W        W58477  36.498  32.476   2.632
93493W        W58478  19.696  32.652   3.124
93494W        W58479  31.004  26.223  12.015
93495W        W58480  29.873   1.733  14.083
93496W        W58481   9.329  13.791   3.176
93497W        W58482  39.342   9.274  14.872
93498W        W58483  37.581  25.185  10.672
93499W        W58484  16.756  43.135   0.420
93500W        W58485  10.194   2.396   2.216
93501W        W58486  35.558  16.470  12.149
93502W        W58487   8.384   9.721  10.657
93503W        W58488   8.602  10.134   0.749
93504W        W58489  14.197  30.841  13.442
93505W        W58490  32.021   5.439  14.998
93506W        W58491  37.421  14.842  13.956
93507W        W58492  24.926   0.358   1.205
93508W        W58493  15.229  34.153  10.337
93509W        W58494  15.161   1.175  14.106
93510W        W58495  44.779   1.330  14.504
93511W        W58496  31.525  21.702  11.112
93512W        W58497  32.037  32.697   3.881
93513W        W58498  28.238   9.824   3.151
93514W        W58499  10.056  10.236  11.951
93515W        W58500  29.501  21.485   4.523
93516W        W58501  27.841  28.844   3.595
93517W        W58502  36.958  38.968   0.883
93518W        W58503   5.603  25.142   1.448
93519W        W58504  22.514  44.300   9.952
93520W        W58505   6.121  35.417  13.400
93521W        W58506  17.670   9.342  11.191
93522W        W58507   1.051  18.500   4.990
93523W        W58508   7.260  41.230   1.862
93524W        W58509  33.073   9.452  13.847
93525W        W58510  41.890  24.490  10.898
93526W        W58511  39.821  19.096   4.162
93527W        W58512  44.063   0.818   4.239
93528W        W58513  38.595  18.087   3.952
93529W        W58514  25.433  23.845   4.139
93530W        W58515  29.471  12.298   0.907
93531W        W58516  18.626   6.212  14.290
93532W        W58517  24.912  37.429  13.899
93533W        W58518  24.018   0.003  12.578
93534W        W58519  42.089  33.672  14.499
93535W        W58520  12.696  37.429   1.606
93536W        W58521  11.714  10.853  10.257
93537W        W58522  42.566  16.551   0.847
93538W        W58523  30.079  25.585   1.720
93539W        W58524  30.391  40.078   3.166
93540W        W58525  24.806  15.105  10.595
93541W        W58526  44.424   1.800   2.213
93542W        W58527  25.880   7.822  11.670
93543W        W58528  24.986   6.375  13.890
93544W        W58529   8.935   9.749  14.788
93545W        W58530   5.770  38.773   1.698
93546W        W58531  17.179  26.684  13.884
93547W        W58532   5.686  42.848  10.703
93548W        W58533  38.870  38.115  11.784
93549W        W58534  37.961   9.267   4.571
93550W        W58535   4.669  24.008   0.047
93551W        W58536  30.249  15.528   5.070
93552W        W58537   2.349  21.710   0.394
93553W        W58538  24.502   5.943   0.417
93554W        W58539   4.374  29.918   2.566
93555W        W58540   2.615  22.218  11.693
93556W        W58541  24.986   0.697  13.877
93557W        W58542  42.173  29.189   4.111
93558W        W58543  44.772  38.429   0.429
93559W        W58544  35.431  37.551  14.299
93560W        W58545   0.309  16.832   1.252
93561W        W58546  34.880  28.483   0.863
93562W        W58547  40.504   0.655   5.111
93563W        W58548  43.610  28.657   4.098
93564W        W58549  21.138  34.921  14.422
93565W        W58550  40.516   9.191  14.139
93566W        W58551  25.541   3.517   4.017
93567W        W58552  12.150  22.621  10.658
93568W        W58553  12.848   7.134   2.511
93569W        W58554  24.584  14.710  12.844
93570W        W58555   0.092  12.440   3.279
93571W        W58556   5.653  38.223  11.481
93572W        W58557  27.950  43.616   5.009
93573W        W58558  42.889   9.194   2.911
93574W        W58559  24.943  13.843   3.676
93575W        W58560  22.515  14.651   0.621
93576W        W58561  17.137   6.748  12.947
93577W        W58562  42.547  12.750   1.168
93578W        W58563  11.889  33.882   3.156
93579W        W58564  33.201  29.694   1.406
93580W        W58565  29.854  16.643   4.629
93581W        W58566   8.488   6.547  13.890
93582W        W58567  38.026  22.557  11.185
93583W        W58568  20.779  19.171  13.420
93584W        W58569  35.568  10.649  12.694
93585W        W58570  34.601  19.205   3.727
93586W        W58571   1.299  11.112   3.518
93587W        W58572  32.157  35.793  14.480
93588W        W58573   9.829  17.164  13.507
93589W        W58574  40.562  44.079  14.581
93590W        W58575  39.388  19.342   3.994
93591W        W58576  36.373  14.292  13.378
93592W        W58577   7.126  42.021   4.380
93593W        W58578  27.472  16.633  14.897
93594W        W58579  24.691  42.101  10.685
93595W        W58580   1.645  12.597  14.046
93596W        W58581  29.083  38.633  12.046
93597W        W58582   5.946  25.702  10.562
93598W        W58583  37.469  34.578  11.845
93599W        W58584  28.440  38.091   4.369
93600W        W58585   9.455   0.850   0.297
93601W        W58586  11.327  11.689  12.989
93602W        W58587  17.757  33.174  13.453
93603W        W58588  33.172  14.670  12.895
93604W        W58589  36.281   0.502  10.479
93605W        W58590  16.167  42.053   4.735
93606W        W58591  11.814  34.103  11.597
93607W        W58592   4.001   4.133  11.121
93608W        W58593   7.907  14.188  11.790
93609W        W58594   2.213  38.744   0.197
93610W        W58595   8.365  33.661   0.251
93611W        W58596  26.393   8.470   2.848
93612W        W58597  17.808  15.592   1.346
93613W        W58598  16.119  32.105   5.018
93614W        W58599   7.359  38.217  12.907
93615W        W58600  13.506  18.619  13.787
93616W        W58601   1.042   8.734   2.973
93617W        W58602   5.681  35.953   3.732
93618W        W58603  18.144  32.872   0.273
93619W        W58604  28.758  33.924   3.529
93620W        W58605  20.163  19.013   3.190
93621W        W58606  38.096  12.203   4.852
93622W        W58607  39.392  17.099  14.969
93623W        W58608  40.957   8.597   4.081
93624W        W58609  30.099  39.854  12.516
93625W        W58610  23.068  28.162  12.630
93626W        W58611  22.794   0.344  13.274
93627W        W58612  13.722  36.151  14.418
93628W        W58613  29.464   8.445  12.600
93629W        W58614   1.957  33.679  11.094
93630W        W58615  25.988  12.714  12.009
93631W        W58616  23.055  36.774   2.234
93632W        W58617   2.531  30.496   3.189
93633W        W58618   5.912  34.847  14.681
93634W        W58619  27.953   7.205   0.211
93635W        W58620  20.246  39.979  13.084
93636W        W58621  11.106  24.538  12.675
93637W        W58622   6.776  43.516   1.393
93638W        W58623  14.116  27.308  10.565
93639W        W58624  11.848  38.612   2.253
93640W        W58625  32.465  12.680   3.208
93641W        W58626  18.793  24.513   3.713
93642W        W58627  12.050  29.107   0.256
93643W        W58628  18.482  12.211   1.711
93644W        W58629  16.575  21.447  12.452
93645W        W58630   6.320   9.891  13.810
93646W        W58631  41.431   8.585  12.655
93647W        W58632  31.956  10.663   3.139
93648W        W58633   2.976  42.229   3.215
93649W        W58634  15.752  35.327  10.637
93650W        W58635  41.588  18.675   3.270
93651W        W58636   1.910  34.626   0.886
93652W        W58637  43.869  28.625   3.629
93653W        W58638  14.731   8.669   1.421
93654W        W58639  38.900   0.256  11.168
93655W        W58640  33.656  26.875   3.884
93656W        W58641  23.135   3.184   4.802
93657W        W58642  35.904  22.647   1.926
93658W        W58643  20.276  27.083  13.510
93659W        W58644  41.257   7.289  12.537
93660W        W58645   2.138   6.711   4.967
93661W        W58646  25.046  38.553   1.245
93662W        W58647  43.326  43.968   4.916
93663W        W58648  21.204   1.374   1.702
93664W        W58649  24.529  33.579  14.872
93665W        W58650  27.490  15.688  13.844
93666W        W58651  24.332  31.827  12.652
93667W        W58652  14.602  22.529   0.758
93668W        W58653  37.617   0.269   0.793
93669W        W58654  40.156  36.837  14.836
93670W        W58655  37.299  44.734  12.172
93671W        W58656  18.063  16.210   1.962
93672W        W58657  38.472  30.506   2.904
93673W        W58658  29.467   3.811  13.420
93674W        W58659  38.777   9.016   4.400
93675W        W58660  16.573  17.002  12.088
93676W        W58661  31.856  24.794   1.321
93677W        W58662  24.331  14.186  12.965
93678W        W58663   7.829  31.225  12.991
93679W        W58664  14.631  35.081   3.186
93680W        W58665  23.173  23.813   1.376
93681W        W58666   3.953  11.181  10.547
93682W        W58667   2.714  33.149  13.854
93683W        W58668  22.686  26.744  11.407
93684W        W58669  32.141  24.616   0.323
93685W        W58670   6.013  38.267  13.959
93686W        W58671  32.013   1.045  12.050
93687W        W58672  44.600  44.091  12.494
93688W        W58673  33.165  21.230  12.394
93689W        W58674   1.336  38.675  13.727
93690W        W58675  38.090  12.299   0.849
93691W        W58676   8.340  37.445  11.252
93692W        W58677  25.964  13.673   2.649
93693W        W58678  33.611  11.170  10.733
93694W        W58679  23.256  43.221  13.356
93695W        W58680  23.145   9.929  12.088
93696W        W58681  22.910  32.422  13.815
93697W        W58682  41.355  39.436  12.555
93698W        W58683  43.634  16.380   3.621
93699W        W58684   7.305   5.167   5.063
93700W        W58685  11.670  30.430   0.998
93701W        W58686   0.004  27.936  11.947
93702W        W58687   1.887  31.359  12.552
93703W        W58688  29.193  19.392  12.199
93704W        W58689  43.788  38.063   3.090
93705W        W58690   2.499  40.778   3.697
93706W        W58691   7.277  12.846  13.375
93707W        W58692  38.365   5.814  10.712
93708W        W58693  33.566  18.323   1.470
93709W        W58694   6.120  16.245  11.169
93710W        W58695   5.604  17.295  10.715
93711W        W58696   8.901  21.663   0.127
93712W        W58697  35.337  19.613   1.780
93713W        W58698  29.669   2.090  12.137
93714W        W58699   7.915  38.973   0.961
93715W        W58700  12.192   6.939  10.608
93716W        W58701  43.409   4.459  12.979
93717W        W58702  38.932  34.911   0.977
93718W        W58703  14.061  12.118  13.944
93719W        W58704  32.238   6.134  11.937
93720W        W58705   2.462   0.974   1.498
93721W        W58706  25.055  20.153  10.715
93722W        W58707   9.223   3.179   1.593
93723W        W58708  44.208  21.443  11.061
93724W        W58709   0.036  12.535   2.740
93725W        W58710  19.595  12.503  14.587
93726W        W58711  18.358  26.085   0.423
93727W        W58712  22.139  20.207   2.539
93728W        W58713  23.088  39.830   3.170
93729W        W58714  30.475   6.810   3.797
93730W        W58715  17.859  29.983  12.608
93731W        W58716  34.663  40.936  14.791
93732W        W58717  43.481  13.639  12.054
93733W        W58718  40.848  28.262   3.109
93734W        W58719  11.545  30.109  14.265
93735W        W58720   3.432  33.237   3.692
93736W        W58721  43.861   3.249   0.427
93737W        W58722  11.870  15.221  11.232
93738W        W58723  22.693  15.753  13.408
93739W        W58724  13.122  17.300   3.202
93740W        W58725  11.082  30.735  10.688
93741W        W58726  42.087  42.331  12.146
93742W        W58727  11.689  11.361   4.593
93743W        W58728  12.175  28.673  12.212
93744W        W58729  33.587  11.190   3.595
93745W        W58730  38.403   6.950  13.019
93746W        W58731   0.857  33.138  13.428
93747W        W58732   8.162  20.929  12.852
93748W        W58733  31.241  22.442   0.904
93749W        W58734  20.769   9.440  11.314
93750W        W58735  28.512  36.996   1.773
93751W        W58736  42.827   9.239   2.282
93752W        W58737  20.123  40.335  14.817
93753W        W58738  43.014  15.142   1.327
93754W        W58739  34.057  23.132  11.927
93755W        W58740  26.423  27.691  11.104
93756W        W58741   9.561   6.889   3.807
93757W        W58742  41.958  29.192  10.676
93758W        W58743   4.334  30.375  14.268
93759W        W58744  21.729  39.066  14.436
93760W        W58745  20.477  37.680  12.202
93761W        W58746   5.057   6.483  14.071
93762W        W58747  44.932  17.939  13.878
93763W        W58748   2.426  42.978  14.420
93764W        W58749  41.026  31.095  12.508
93765W        W58750  40.243   7.735  14.419
93766W        W58751  33.139  32.580  10.464
93767W        W58752   8.232   2.183   0.673
93768W        W58753  32.499   4.267   3.124
93769W        W58754   2.391  27.647   3.891
93770W        W58755  35.973  25.872   2.484
93771W        W58756  22.649  17.811   3.212
93772W        W58757  29.679   2.763  13.300
93773W        W58758  23.688  41.587   2.262
93774W        W58759   5.488  42.319  10.719
93775W        W58760  27.423  20.161   2.265
93776W        W58761  30.578  15.228   4.848
93777W        W58762  15.406  19.845  11.922
93778W        W58763  40.484  26.466  10.909
93779W        W58764  16.412  28.627   4.035
93780W        W58765  26.004  33.208  11.499
93781W        W58766  12.338   7.219  12.861
93782W        W58767  38.471   8.215   3.345
93783W        W58768  37.279  24.130   4.865
93784W        W58769  19.275   8.125  12.604
93785W        W58770  42.875  20.059   0.139
93786W        W58771  40.463  11.406  12.820
93787W        W58772  21.442  16.019  12.984
93788W        W58773  13.242  21.664  11.647
93789W        W58774  21.227  19.757   2.597
93790W        W58775  26.157   0.277   5.405
93791W        W58776  37.904  13.725   2.838
93792W        W58777  12.735  28.087  14.394
93793W        W58778  23.700  44.012   2.929
93794W        W58779  28.735  26.118   1.903
93795W        W58780  41.841  40.305  11.536
93796W        W58781   6.996  24.574  11.771
93797W        W58782  22.094  32.007  13.446
93798W        W58783  33.141  38.068  12.007
93799W        W58784  24.239  29.381   4.037
93800W        W58785  24.769   8.184  13.584
93801W        W58786   5.692  40.473   3.837
93802W        W58787  19.323  37.306   1.272
93803W        W58788   5.347   8.240   4.388
93804W        W58789  14.534  10.181   3.257
93805W        W58790  20.546  12.530  11.066
93806W        W58791  10.362   2.539   3.240
93807W        W58792  23.759   2.450   2.411
93808W        W58793   1.621  43.205  10.748
93809W        W58794   9.745   9.411  10.723
93810W        W58795   1.581  35.783   4.540
93811W        W58796  35.139  16.076   3.168
93812W        W58797  18.232  29.405  14.007
93813W        W58798  39.087  29.132   3.331
93814W        W58799  12.011   9.225   2.149
93815W        W58800  25.243  43.022  10.696
93816W        W58801  38.860   3.104  14.228
93817W        W58802   1.350   1.198   0.905
93818W        W58803  28.055  11.652  13.109
93819W        W58804  30.812  27.009   3.817
93820W        W58805   3.089  11.757   1.325
93821W        W58806  32.931  36.908   1.302
93822W        W58807  41.864  43.900   4.503
93823W        W58808  13.735  19.172   2.148
93824W        W58809  18.964  26.407  11.619
93825W        W58810   0.704  39.582  10.554
93826W        W58811  41.488  16.797  12.002
93827W        W58812   8.181  13.432   2.931
93828W        W58813  42.326  10.930   3.252
93829W        W58814  20.055   2.691   4.812
93830W        W58815  17.027  29.680  11.842
93831W        W58816  23.018  40.883  14.377
93832W        W58817  36.618   1.587   2.341
93833W        W58818   9.771  26.819   4.278
93834W        W58819  34.499   1.612  11.576
93835W        W58820   9.806  19.002   1.385
93836W        W58821  27.268   3.841   1.659
93837W        W58822  25.671  13.046  10.826
93838W        W58823  33.973  10.606   2.389
93839W        W58824   7.295   2.515   1.776
93840W        W58825   6.443  38.413  10.862
93841W        W58826   8.847  17.284  11.894
93842W        W58827   7.459  30.655   1.292
93843W        W58828  32.639  36.514  13.539
93844W        W58829  37.181   7.877  11.700
93845W        W58830  39.908  44.732  12.339
93846W        W58831  10.786  25.839   3.295
93847W        W58832  18.116  37.338   0.853
93848W        W58833  38.911   7.978  11.548
93849W        W58834  15.325   0.408   1.717
93850W        W58835  14.630  11.602  14.283
93851W        W58836  39.337  24.616  11.547
93852W        W58837  33.889  21.274  11.502
93853W        W58838  31.365  20.800   0.027
93854W        W58839  19.893  18.522   2.434
93855W        W58840  21.295  42.190   1.541
93856W        W58841  39.914  42.405  13.521
93857W        W58842  43.169  43.448   3.560
93858W        W58843  37.954  17.802  10.131
93859W        W58844  25.712  37.734  10.884
93860W        W58845  24.116  17.421   5.244
93861W        W58846  10.169  34.477   0.225
93862W        W58847  37.329  26.119   2.756
93863W        W58848   8.276  14.037   1.926
93864W        W58849   5.619  27.825  14.372
93865W        W58850   2.182  40.389   3.603
93866W        W58851  29.946  34.130   2.018
93867W        W58852  14.086  24.911   0.248
93868W        W58853  16.389  26.988  13.835
93869W        W58854  23.624   4.308  11.210
93870W        W58855   2.648  10.113   4.156
93871W        W58856  36.286  15.160  12.464
93872W        W58857  33.851  32.025   0.294
93873W        W58858  39.466   2.283  11.505
93874W        W58859  22.324  44.268   0.943
93875W        W58860  32.012   9.768  14.947
93876W        W58861  32.956   7.663   5.179
93877W        W58862   2.407  19.251   4.499
93878W        W58863   2.443  22.620   2.604
93879W        W58864  27.541  30.207  13.889
93880W        W58865   7.256  10.614  11.782
93881W        W58866  43.090  38.377  11.138
93882W        W58867   7.938   2.895  11.602
93883W        W58868  17.747  26.590   1.688
93884W        W58869  33.069   0.777  13.025
93885W        W58870  36.794  36.312   2.413
93886W        W58871  44.436  10.887   0.937
93887W        W58872   3.946  14.752  11.479
93888W        W58873  11.403  13.678  13.911
93889W        W58874  38.872  22.959   3.955
93890W        W58875  31.005  20.066  11.504
93891W        W58876  31.829  34.530  13.918
93892W        W58877  35.796   8.647  12.880
93893W        W58878  14.659   5.428  12.397
93894W        W58879   3.335  36.691  14.062
93895W        W58880   2.388  24.742  14.890
93896W        W58881  27.531  37.978   0.712
93897W        W58882  14.093  17.656  12.609
93898W        W58883   9.855  11.418  13.003
93899W        W58884   8.271  17.320   2.031
93900W        W58885  26.008   7.986   4.529
93901W        W58886  34.574  24.436  12.123
93902W        W58887  11.130  42.986   5.017
93903W        W58888  25.210   3.879   0.529
93904W        W58889  35.867  40.350   4.563
93905W        W58890  16.932  28.557   2.858
93906W        W58891  38.485  30.191   4.721
93907W        W58892   2.834   6.134  14.319
93908W        W58893  31.889  31.083  12.682
93909W        W58894  15.657  25.282  11.898
93910W        W58895   6.611   5.249   0.850
93911W        W58896  37.669  40.301  13.087
93912W        W58897  38.414   6.314  12.614
93913W        W58898   8.895  18.719   2.300
93914W        W58899   8.930  11.064  10.664
93915W        W58900  32.814  41.827  10.725
93916W        W58901  14.286   4.933   5.525
93917W        W58902  16.071  13.611   1.843
93918W        W58903  21.764  44.289   1.889
93919W        W58904   0.914   4.002   4.081
93920W        W58905  11.693   7.893  12.263
93921W        W58906  41.666  24.237   3.981
93922W        W58907  17.784  34.317   1.458
93923W        W58908  18.590  22.147  11.160
93924W        W58909  27.591   5.748  13.280
93925W        W58910  39.257  33.356  12.524
93926W        W58911  25.955   6.363   0.040
93927W        W58912   2.796   8.243   4.089
93928W        W58913   4.617   1.518   0.981
93929W        W58914  10.343  30.672   0.840
93930W        W58915  31.519  40.238  14.871
93931W        W58916   5.076  40.860   4.854
93932W        W58917  16.904  30.708  10.350
93933W        W58918  22.769  36.418  14.112
93934W        W58919   1.735  40.831  13.895
93935W        W58920  26.264  18.706   0.187
93936W        W58921  27.120   3.947   2.146
93937W        W58922   7.354  37.101  13.116
93938W        W58923  18.921  35.660   2.972
93939W        W58924  41.953  16.719   3.384
93940W        W58925  44.806  18.732   3.670
93941W        W58926  11.392   7.269  11.175
93942W        W58927   5.742  19.691  12.426
93943W        W58928  43.200  17.244  12.625
93944W        W58929  12.832  29.127  13.956
93945W        W58930   7.774  31.406   2.187
93946W        W58931  18.129   2.334   2.192
93947W        W58932  10.147  37.942  10.739
93948W        W58933  23.537  44.247  13.899
93949W        W58934  30.450  22.025  12.532
93950W        W58935  32.927   3.497  11.307
93951W        W58936  34.394  42.898   3.614
93952W        W58937   8.559   7.218   4.120
93953W        W58938  42.469   0.966   0.064
93954W        W58939  20.535   6.150  13.128
93955W        W58940  36.427  38.257   0.973
93956W        W58941   5.717  30.487  11.199
93957W        W58942  32.877  16.796   3.746
93958W        W58943   1.997  39.014   4.125
93959W        W58944  17.352  32.669   1.662
93960W        W58945  17.090  26.443  13.438
93961W        W58946  37.214  15.318   2.631
93962W        W58947  24.309   1.450  12.745
93963W        W58948  29.620  28.397  12.663
93964W        W58949  15.166  28.502  13.341
93965W        W58950   0.726  35.057  14.399
93966W        W58951   0.475  22.953   0.662
93967W        W58952  20.528  43.073   4.445
93968W        W58953  37.783   6.380   2.405
93969W        W58954  22.634   1.427   0.792
93970W        W58955  21.717  20.018  10.763
93971W        W58956  30.095  12.798   3.730
93972W        W58957  27.473  23.316   1.913
93973W        W58958   2.652  10.687  13.953
93974W        W58959  11.364  44.714  14.293
93975W        W58960   1.443   6.875   4.330
93976W        W58961  21.578  35.449  14.675
93977W        W58962   2.816   8.673   1.367
93978W        W58963  14.596  35.388  11.621
93979W        W58964  23.768   6.519   2.394
93980W        W58965  36.113   8.368   3.611
93981W        W58966  34.375  28.509  11.968
93982W        W58967  15.342  30.884  13.374
93983W        W58968  18.670  24.012   2.146
93984W        W58969  20.089   6.966   2.812
93985W        W58970   5.592  39.880   3.692
93986W        W58971  11.356  13.230  10.733
93987W        W58972  18.469  34.807  14.927
93988W        W58973  34.640   6.740  10.643
93989W        W58974   0.976  20.680  11.342
93990W        W58975  36.203   9.708   4.493
93991W        W58976  14.288  31.284  11.038
93992W        W58977  12.392  19.517  13.531
93993W        W58978  21.895  20.579   4.528
93994W        W58979   1.711  19.503  13.340
93995W        W58980  23.317   9.261   1.165
93996W        W58981  31.215  15.737   3.164
93997W        W58982  23.976  24.603  12.503
93998W        W58983  10.202  21.203  13.835
93999W        W58984  19.645   7.858  10.560
94000W        W58985  20.700  15.541   4.460
94001W        W58986  32.452  41.889   5.018
94002W        W58987  31.592   4.323   0.052
94003W        W58988  44.159  39.805   1.936
94004W        W58989  29.077  28.249  12.472
94005W        W58990  35.171  38.121   3.300
94006W        W58991  35.923   4.697  14.832
94007W        W58992   8.834  37.053   1.787
94008W        W58993  41.887  27.168  14.829
94009W        W58994  28.126  30.986  13.158
94010W        W58995  12.774  31.611   4.285
94011W        W58996  29.604  34.964   0.196
94012W        W58997  13.891  23.440  11.182
94013W        W58998  36.138  40.079   2.987
94014W        W58999  17.392  16.678  14.823
94015W        W59000  16.740  25.635   1.695
94016W        W59001  24.957   6.427  10.742
94017W        W59002  12.359  41.789  14.396
94018W        W59003  19.802  28.365   2.753
94019W        W59004  24.207  44.347   1.923
94020W        W59005  33.526  41.028   1.317
94021W        W59006  38.987  12.082  11.547
94022W        W59007  18.038  43.251  11.065
94023W        W59008  27.595  18.865  13.624
94024W        W59009  14.292   5.705   1.201
94025W        W59010   9.934   3.977  11.933
94026W        W59011  13.311  12.557   9.826
94027W        W59012  20.091  34.951  10.461
94028W        W59013  38.070  29.815   1.887
94029W        W59014  21.314  23.324  13.028
94030W        W59015  34.140   7.955  12.554
94031W        W59016  38.412  17.676  11.175
94032W        W59017  43.400   9.101   2.076
94033W        W59018  17.539  39.753  13.951
94034W        W59019  28.660  41.973  12.793
94035W        W59020  41.822  13.226   0.898
94036W        W59021  27.846  14.203   4.127
94037W        W59022  27.931  44.919   2.201
94038W        W59023  41.509   2.900   2.370
94039W        W59024   6.608   9.408  13.683
94040W        W59025  13.165  32.818   4.708
94041W        W59026  18.691   2.709   2.862
94042W        W59027  43.734   3.698  13.351
94043W        W59028  22.487  38.944  14.837
94044W        W59029  15.544  30.066  12.589
94045W        W59030  34.679  36.459  13.005
94046W        W59031   8.171   4.091  13.035
94047W        W59032  41.674  44.324   0.868
94048W        W59033  31.163  12.555  14.296
94049W        W59034  22.783  24.144  10.664
94050W        W59035   3.876   9.758  11.670
94051W        W59036  44.057  19.844   1.652
94052W        W59037   1.623  20.685  11.091
94053W        W59038  27.604   5.151   3.647
94054W        W59039   9.655  12.615  14.872
94055W        W59040  25.223  39.054  14.969
94056W        W59041   2.719   5.036  12.976
94057W        W59042  14.682  43.425  10.326
94058W        W59043  36.097  10.314   0.163
94059W        W59044  25.845   9.919   0.843
94060W        W59045   6.054  34.744  13.715
94061W        W59046  12.614  40.708   2.711
94062W        W59047  33.975  10.814  12.390
94063W        W59048   4.797  19.123  12.946
94064W        W59049  37.257  42.259   4.136
94065W        W59050  19.251  20.232  12.102
94066W        W59051   2.240  15.254  11.485
94067W        W59052  11.537  33.817  12.018
94068W        W59053  16.779  32.924   4.654
94069W        W59054  24.166   9.278  10.721
94070W        W59055   8.183  12.070  11.144
94071W        W59056   9.282  23.427  12.540
94072W        W59057   9.608  40.815   3.010
94073W        W59058  13.833  42.421   4.725
94074W        W59059  27.210  14.750  13.000
94075W        W59060   0.485  20.760   2.884
94076W        W59061  15.644  17.050   2.943
94077W        W59062  18.759   5.268   0.714
94078W        W59063  11.653  19.251   2.218
94079W        W59064   1.374   1.425   4.530
94080W        W59065   1.901   5.504   3.749
94081W        W59066  26.925  33.189  14.429
94082W        W59067   2.776  34.806  12.477
94083W        W59068  25.227  35.897  10.334
94084W        W59069  18.651  21.018   2.563
94085W        W59070  24.058   9.157  12.151
94086W        W59071  39.500  38.337   4.132
94087W        W59072  20.740  31.512  11.633
94088W        W59073  42.314   8.951  10.394
94089W        W59074  25.725  12.479   2.892
94090W        W59075  37.030  11.454   3.648
94091W        W59076  25.130  39.852  13.550
94092W        W59077  36.464  22.274  13.055
94093W        W59078   8.937   4.574   2.307
94094W        W59079  20.275   3.747  13.824
94095W        W59080  13.682  32.943   0.846
94096W        W59081   1.287  35.130   0.238
94097W        W59082   8.681   9.918  14.354
94098W        W59083  33.284  39.545   1.674
94099W        W59084  21.615  32.596   3.016
94100W        W59085  37.028  20.814  10.648
94101W        W59086  11.291  41.400  14.206
94102W        W59087  37.852  35.541  12.534
94103W        W59088   5.146  32.639   4.582
94104W        W59089  27.357   0.601  12.988
94105W        W59090  26.472  13.173  11.046
94106W        W59091  11.663  13.804  10.909
94107W        W59092  28.897  24.779  12.779
94108W        W59093  38.885  39.607   2.338
94109W        W59094  13.066  22.527  10.494
94110W        W59095  19.323  21.292  14.823
94111W        W59096   1.735   9.239  12.806
94112W        W59097  28.082   6.149  10.599
94113W        W59098  24.440   8.672   3.635
94114W        W59099  18.349  15.695   2.259
94115W        W59100  34.691  24.789  13.518
94116W        W59101  32.656  21.683   3.239
94117W        W59102   2.004  12.356  10.582
94118W        W59103  12.309  17.220   0.234
94119W        W59104  39.038  29.457  13.009
94120W        W59105  41.484  11.735   3.343
94121W        W59106  40.717   1.750  14.365
94122W        W59107  14.413  15.451  13.420
94123W        W59108   1.355  25.727   1.674
94124W        W59109  39.562  30.688   1.584
94125W        W59110  11.039  31.425  11.445
94126W        W59111   4.944   5.257  13.384
94127W        W59112  13.151  32.456  12.416
94128W        W59113   8.729   9.625  13.515
94129W        W59114   2.891   2.524   2.782
94130W        W59115  22.245  38.402  14.770
94131W        W59116   3.638   7.670  12.008
94132W        W59117  16.552  37.055   0.751
94133W        W59118  29.189  17.675  12.654
94134W        W59119  29.040  27.946   2.114
94135W        W59120  27.016  11.949  14.795
94136W        W59121  12.206  24.020   3.250
94137W        W59122  33.552  14.591  10.499
94138W        W59123   0.200   2.352  14.204
94139W        W59124  13.045  31.148   4.099
94140W        W59125   2.105  42.158   2.285
94141W        W59126  32.154  38.981  12.101
94142W        W59127  21.043   6.270  13.005
94143W        W59128  39.254   8.874   4.555
94144W        W59129   1.714  41.018  12.187
94145W        W59130  43.963  29.122   3.696
94146W        W59131  41.237   8.126   3.277
94147W        W59132  26.170  19.497   4.112
94148W        W59133   3.010   8.939   5.142
94149W        W59134  12.840   2.916   0.567
94150W        W59135   3.036  18.185   0.054
94151W        W59136  35.355  36.092  11.249
94152W        W59137  40.346  35.781  14.305
94153W        W59138  25.624  11.851   3.941
94154W        W59139   0.622   8.980   3.257
94155W        W59140   1.564  42.768  13.489
94156W        W59141  34.368   1.526   4.486
94157W        W59142  13.148  22.799  10.915
94158W        W59143  16.863  15.298   3.026
94159W        W59144  31.487  32.829  11.923
94160W        W59145  21.487  28.085  13.099
94161W        W59146   0.306  41.386   0.907
94162W        W59147  38.464  23.122   4.308
94163W        W59148   7.569   1.350   4.538
94164W        W59149   8.341   2.879  14.481
94165W        W59150  42.063   6.781   0.861
94166W        W59151  30.260   4.404   0.909
94167W        W59152  40.004  37.722  13.503
94168W        W59153   0.345  32.959  13.007
94169W        W59154  13.838   9.862  14.955
94170W        W59155  15.722  44.332   4.164
94171W        W59156  44.522   6.513   2.408
94172W        W59157   6.994   8.184  10.771
94173W        W59158  33.152  42.239   4.593
94174W        W59159  40.066   6.079  12.522
94175W        W59160  14.373  29.505  11.080
94176W        W59161  26.277  26.137   2.764
94177W        W59162  13.630  15.513  11.074
94178W        W59163  24.340  20.809   1.405
94179W        W59164  41.757  26.027   0.838
94180W        W59165  35.434   2.572   1.154
94181W        W59166  24.979  11.687   0.409
94182W        W59167  25.909  29.925  12.131
94183W        W59168  35.040  14.730  13.311
94184W        W59169  13.365  14.740  14.450
94185W        W59170  14.764  42.294   0.889
94186W        W59171  20.925  36.821   5.057
94187W        W59172  31.604   4.710   0.978
94188W        W59173  38.319  35.695  13.059
94189W        W59174   4.839  13.902   4.886
94190W        W59175  22.827  29.718   0.957
94191W        W59176   3.881   0.995   3.919
94192W        W59177  22.228   3.254   0.888
94193W        W59178   9.873  35.894  14.018
94194W        W59179  37.448  38.908   0.711
94195W        W59180   8.836  39.591  14.875
94196W        W59181  42.826  30.295   9.756
94197W        W59182   4.251  17.799   1.346
94198W        W59183  20.626  16.262  14.092
94199W        W59184  39.331   3.735   4.593
94200W        W59185  14.299  28.604   3.342
94201W        W59186  26.951  13.251   0.802
94202W        W59187  12.101  44.831  11.232
94203W        W59188   0.958  12.609   1.383
94204W        W59189  25.951  16.827   1.743
94205W        W59190  43.444  40.815   1.055
94206W        W59191  16.422  27.743  11.257
94207W        W59192  20.395  17.795  14.823
94208W        W59193  42.213  30.675   4.190
94209W        W59194  34.680  38.125   3.156
94210W        W59195   7.787  14.652   4.505
94211W        W59196  36.457  35.343   0.456
94212W        W59197  26.740  34.877   1.979
94213W        W59198  43.239  27.529   2.861
94214W        W59199   8.156  23.999  12.376
94215W        W59200  36.684  14.157  11.936
94216W        W59201  23.599  29.462  14.047
94217W        W59202  41.473  20.769   1.697
94218W        W59203  37.446  17.004  10.320
94219W        W59204  15.621  21.633   0.727
94220W        W59205   8.635  22.126  12.562
94221W        W59206   4.143  15.402   1.296
94222W        W59207   4.479  39.415   4.674
94223W        W59208  23.742  18.157  12.853
94224W        W59209   6.471   5.958  11.665
94225W        W59210   4.140   2.205   0.677
94226W        W59211  35.554  24.665   3.496
94227W        W59212   4.613  15.568   4.992
94228W        W59213  20.233  28.404   3.231
94229W        W59214   4.304  18.546  13.483
94230W        W59215  30.960  14.155   1.363
94231W        W59216  32.174  36.925   0.966
94232W        W59217  25.044  43.075  12.009
94233W        W59218  43.359  29.337   1.869
94234W        W59219  24.788   9.365  13.554
94235W        W59220  16.597  38.835  13.427
94236W        W59221  31.084  29.416  14.289
94237W        W59222  23.575  28.539  10.658
94238W        W59223  22.922  19.875   5.033
94239W        W59224   8.406  15.050   0.413
94240W        W59225  38.126  30.766   0.367
94241W        W59226  33.079   9.421  12.097
94242W        W59227   6.770   9.630  11.223
94243W        W59228   9.747   4.211   0.882
94244W        W59229  19.019   9.327  10.736
94245W        W59230  33.984   0.675  12.484
94246W        W59231  33.812  26.929  11.775
94247W        W59232   3.974  11.417  14.957
94248W        W59233  15.928  41.880   0.504
94249W        W59234  16.558   6.726  12.933
94250W        W59235  41.517  37.917  13.350
94251W        W59236  27.014  32.288  13.104
94252W        W59237  25.565  38.219  13.907
94253W        W59238  38.495  12.527  13.977
94254W        W59239   0.970  38.816   0.883
94255W        W59240  24.944  21.781   1.147
94256W        W59241   6.694  21.937   0.393
94257W        W59242  19.780  44.692  14.853
94258W        W59243  22.927  12.051   0.983
94259W        W59244   1.933  31.015   3.849
94260W        W59245  26.921   0.796  12.819
94261W        W59246  41.140  24.840   0.902
94262W        W59247  27.514  38.556  11.045
94263W        W59248   3.875   3.448  13.759
94264W        W59249  19.579  14.728   4.110
94265W        W59250   1.309  42.215   2.871
94266W        W59251  15.865  10.146  13.351
94267W        W59252  10.423  14.769  13.418
94268W        W59253  36.512   9.281  12.659
94269W        W59254  30.678  33.099   1.788
94270W        W59255  26.432  35.889  14.288
94271W        W59256  25.669  39.231  13.207
94272W        W59257  38.346  15.520   2.385
94273W        W59258  40.143  34.278   3.589
94274W        W59259   8.740  30.997  13.337
94275W        W59260  11.889  34.393  13.445
94276W        W59261  30.903  29.646   1.935
94277W        W59262  20.704  23.260   4.053
94278W        W59263  21.327   7.703   4.949
94279W        W59264  28.963   0.404   1.425
94280W        W59265  11.373  36.786  13.379
94281W        W59266  18.464  17.638  12.032
94282W        W59267   0.200  17.118  12.019
94283W        W59268  13.800  28.570   3.171
94284W        W59269  26.664  19.459  12.657
94285W        W59270  31.469  25.447  14.319
94286W        W59271   3.284  33.548   0.484
94287W        W59272  33.546   2.028  13.868
94288W        W59273  10.593  23.095   4.919
94289W        W59274  17.985  42.180  14.330
94290W        W59275  13.165  39.019  11.149
94291W        W59276  13.714  18.000   1.859
94292W        W59277  14.712   9.559  14.501
94293W        W59278  22.743  14.293  12.825
94294W        W59279   9.624  23.577   1.273
94295W        W59280  29.149  11.684  12.849
94296W        W59281   1.455  25.104  14.026
94297W        W59282  40.284  14.178   0.897
94298W        W59283  19.124  42.394   2.224
94299W        W59284  26.098   4.364  14.171
94300W        W59285   4.829  17.101  11.058
94301W        W59286   8.711   7.943  10.787
94302W        W59287  42.544  38.984  12.377
94303W        W59288  42.378  10.222   3.589
94304W        W59289  19.774  21.513   5.228
94305W        W59290  20.961  32.657   4.489
94306W        W59291  28.661  10.104   4.056
94307W        W59292  39.625  18.798   2.062
94308W        W59293   3.455  35.185  13.781
94309W        W59294  34.862  12.852  13.876
94310W        W59295  37.876  36.647  12.147
94311W        W59296  35.375  22.342   0.527
94312W        W59297   0.431  15.761  10.654
94313W        W59298  41.704  12.733   0.777
94314W        W59299   1.873  19.774  12.904
94315W        W59300  38.065   8.597   4.103
94316W        W59301  42.072  35.624   0.198
94317W        W59302   1.488  14.343  13.532
94318W        W59303  36.641  20.108   2.193
94319W        W59304  15.761  32.362   0.400
94320W        W59305  42.387  26.058   3.066
94321W        W59306  29.674  26.249   1.222
94322W        W59307  37.719  33.004  10.956
94323W        W59308  40.364  21.169   5.317
94324W        W59309  34.603  33.549  14.314
94325W        W59310  39.722   3.134   4.033
94326W        W59311  10.891  28.625   2.974
94327W        W59312  33.013  29.394  12.940
94328W        W59313  15.818  35.424   2.835
94329W        W59314  42.950  36.976  10.571
94330W        W59315   1.940   7.492  12.487
94331W        W59316  15.667  23.389  12.354
94332W        W59317   4.502   1.938  11.219
94333W        W59318  17.579  22.573   4.033
94334W        W59319  18.977  18.638  12.807
94335W        W59320  22.252  26.117   3.688
94336W        W59321   5.878  26.767   0.303
94337W        W59322  23.614  22.288   3.998
94338W        W59323  34.139  10.431   4.946
94339W        W59324  38.508  18.528   5.183
94340W        W59325   4.857  19.822   1.763
94341W        W59326  19.624  38.039  14.074
94342W        W59327   2.414  19.451   1.712
94343W        W59328   7.479   1.996   1.759
94344W        W59329  33.053  18.271   4.144
94345W        W59330  41.921   3.375   1.627
94346W        W59331  26.069   4.368  14.709
94347W        W59332  39.124  26.956   2.170
94348W        W59333  35.687  32.442   3.970
94349W        W59334  43.984  28.008   1.961
94350W        W59335  15.856  21.134  12.165
94351W        W59336   4.117  34.295  12.386
94352W        W59337  14.611  15.136   4.056
94353W        W59338  34.914  38.838  13.445
94354W        W59339  26.951   3.916  11.989
94355W        W59340  40.317  17.817   1.789
94356W        W59341   7.419  23.217  13.855
94357W        W59342  36.057  34.959  14.121
94358W        W59343   5.474   0.018   1.398
94359W        W59344  15.587   2.883  10.707
94360W        W59345  25.487   4.044   4.047
94361W        W59346  30.452   4.747  12.994
94362W        W59347  15.799  25.014   0.228
94363W        W59348  24.581  18.307  14.450
94364W        W59349  18.719   1.365   1.003
94365W        W59350  35.812  18.338   3.887
94366W        W59351  34.331  14.651   2.647
94367W        W59352  13.146  29.053   1.998
94368W        W59353  41.624   8.873  13.535
94369W        W59354  30.355  13.808  10.772
94370W        W59355  21.408  27.042  14.052
94371W        W59356  26.197   7.200   1.675
94372W        W59357  40.653  31.907  11.682
94373W        W59358  41.755  30.377  12.428
94374W        W59359  24.274  44.016   1.380
94375W        W59360  36.433  23.016   1.883
94376W        W59361  31.137  20.695  14.070
94377W        W59362  31.148  41.530  10.979
94378W        W59363  13.696  37.622  13.421
94379W        W59364  38.531  16.871   4.240
94380W        W59365   4.378  27.917  14.456
94381W        W59366   4.592   3.265   1.420
94382W        W59367  20.774  36.955   1.975
94383W        W59368  21.269  22.681  13.780
94384W        W59369  24.523  42.817  11.150
94385W        W59370  40.741  39.994   1.832
94386W        W59371  21.657   5.141   3.056
94387W        W59372   5.035  11.574  12.033
94388W        W59373   8.878  22.601  14.901
94389W        W59374  42.132  23.101   5.421
94390W        W59375   7.889  21.001  11.744
94391W        W59376   0.361  38.282  11.723
94392W        W59377  38.330  37.905   1.954
94393W        W59378   1.747  25.401  11.278
94394W        W59379  14.288   4.521   2.888
94395W        W59380  32.129  27.077  14.802
94396W        W59381  20.164  29.448  10.522
94397W        W59382  22.135  12.121  11.652
94398W        W59383  42.946  38.088   3.674
94399W        W59384   3.487  41.446  13.949
94400W        W59385  28.002  25.004  12.716
94401W        W59386  42.803   5.882   4.474
94402W        W59387  17.586  35.007  10.614
94403W        W59388  38.266  23.263  12.104
94404W        W59389  26.059  25.961  13.872
94405W        W59390  42.917   8.256  11.229
94406W        W59391  41.720  36.010  11.674
94407W        W59392  39.712   3.347  14.390
94408W        W59393   0.945  41.482   3.350
94409W        W59394   0.581   2.819   3.139
94410W        W59395  39.087  24.624   2.386
94411W        W59396  19.057   5.282  14.380
94412W        W59397  44.961  10.732   0.267
94413W        W59398   7.790  21.070  13.173
94414W        W59399  44.816  19.519  14.536
94415W        W59400  43.509   1.807   1.719
94416W        W59401  24.720   2.969  14.880
94417W        W59402  38.106  24.555  13.622
94418W        W59403  38.332  34.620   0.312
94419W        W59404  44.322  36.085   1.872
94420W        W59405  41.941  16.026   4.865
94421W        W59406  40.436  24.121   0.005
94422W        W59407  44.591  25.030   0.490
94423W        W59408  28.148  36.325  10.250
94424W        W59409  32.095   1.535   2.211
94425W        W59410  18.632  27.148   5.629
94426W        W59411  28.243  30.193  12.553
94427W        W59412  39.130   8.490   2.763
94428W        W59413  34.627   9.589  14.713
94429W        W59414   4.956  38.191   0.736
94430W        W59415  12.795  42.272  12.544
94431W        W59416  43.979  44.828   3.439
94432W        W59417  39.030  39.992  13.374
94433W        W59418  41.142  34.880  11.895
94434W        W59419  29.640   8.934  10.599
94435W        W59420  32.854  17.183   2.916
94436W        W59421  28.038   8.221  14.811
94437W        W59422  23.528  18.110   9.694
94438W        W59423  21.986  38.081  11.169
94439W        W59424  41.865  36.913   5.536
94440W        W59425   5.977  33.503  12.008
94441W        W59426  31.336  20.664   4.935
94442W        W59427   5.577   5.709   0.970
94443W        W59428  15.329   9.405  11.915
94444W        W59429   4.291  24.688  14.894
94445W        W59430  22.448   8.533  13.969
94446W        W59431   5.681  16.229   0.826
94447W        W59432  14.103  16.368  11.739
94448W        W59433  41.327   5.257   2.287
94449W        W59434  20.475  37.087   5.028
94450W        W59435   2.432  11.994  10.426
94451W        W59436  25.572  27.751  14.837
94452W        W59437   1.714  39.505  14.361
94453W        W59438  42.773  11.641   4.463
94454W        W59439  26.476  13.680   2.715
94455W        W59440  27.242  34.520  13.330
94456W        W59441  38.307  38.130  11.201
94457W        W59442   8.349  11.427  12.080
94458W        W59443  27.620  42.011  11.930
94459W        W59444  11.072  44.204  12.521
94460W        W59445  14.377   6.881   2.731
94461W        W59446  37.999  11.095  11.569
94462W        W59447  21.643  18.010   2.792
94463W        W59448  16.556  36.063   2.390
94464W        W59449  23.271  35.725   1.906
94465W        W59450  20.148  24.644  11.653
94466W        W59451  15.962  33.231  13.788
94467W        W59452  35.030  38.626   3.218
94468W        W59453  14.179   2.704  13.775
94469W        W59454  31.663  30.509  11.623
94470W        W59455  42.755  36.937   1.304
94471W        W59456  21.809  31.741  10.448
94472W        W59457   8.645   7.867   2.659
94473W        W59458  30.163  12.268   2.717
94474W        W59459  31.519  42.039  14.357
94475W        W59460   3.680  29.396   2.866
94476W        W59461  44.332  33.731   2.694
94477W        W59462  39.353  14.251  10.727
94478W        W59463  20.115  41.243  12.169
94479W        W59464  11.155   1.488  14.909
94480W        W59465  38.345  34.579  11.528
94481W        W59466  44.869  18.368   4.397
94482W        W59467  38.101  34.145  13.310
94483W        W59468  10.243  32.318  14.048
94484W        W59469   9.530  43.604  12.520
94485W        W59470  41.955  36.985   3.167
94486W        W59471  32.010  37.985  12.102
94487W        W59472  10.875  18.477  13.728
94488W        W59473  33.995   1.195  14.916
94489W        W59474   3.394  15.758  12.860
94490W        W59475   5.313  36.379  11.412
94491W        W59476  17.369  15.881   4.517
94492W        W59477   4.763  12.345   3.216
94493W        W59478   9.753  36.949  11.495
94494W        W59479   1.267  35.345   4.245
94495W        W59480  12.299  29.480   1.293
94496W        W59481  11.737  15.494   4.189
94497W        W59482  10.209  15.579  11.490
94498W        W59483  31.960  22.663  13.780
94499W        W59484   0.679  11.408   0.917
94500W        W59485  24.060  29.430   3.130
94501W        W59486  31.478  15.413   0.891
94502W        W59487  41.058  16.818  13.743
94503W        W59488  22.579  20.745   4.064
94504W        W59489  17.145   4.234  13.370
94505W        W59490  28.550  14.650  13.842
94506W        W59491  11.982  33.102  14.896
94507W        W59492  41.869   8.457  11.682
94508W        W59493  20.777  27.092   1.456
94509W        W59494  32.006  28.544  12.174
94510W        W59495  12.770  14.704   0.767
94511W        W59496  35.563  34.541  12.535
94512W        W59497  11.017  39.153   0.983
94513W        W59498  29.895   1.344   0.491
94514W        W59499  10.460  40.313   1.627
94515W        W59500  27.887  18.156  14.406
94516W        W59501  40.396  18.836  11.567
94517W        W59502  41.357  36.278  12.501
94518W        W59503   8.148  39.500  10.653
94519W        W59504   2.444  26.776  11.611
94520W        W59505  39.468  15.513   3.234
94521W        W59506  28.059  44.915   0.676
94522W        W59507  29.369  39.326   1.206
94523W        W59508  27.309   1.879  11.280
94524W        W59509   7.670   0.284   1.655
94525W        W59510  41.714  23.589  13.974
94526W        W59511  33.700  22.681  10.260
94527W        W59512   8.263  19.306   2.570
94528W        W59513  34.134  39.843   2.771
94529W        W59514  44.542   6.204  13.596
94530W        W59515  18.227   1.317   1.201
94531W        W59516   6.568   2.346   3.247
94532W        W59517  44.230  30.076  12.738
94533W        W59518  10.701  38.740  13.894
94534W        W59519  30.360   9.932   3.389
94535W        W59520   8.630  36.846   0.022
94536W        W59521  26.182  40.540   3.545
94537W        W59522   2.639   4.911   3.869
94538W        W59523  14.432  31.363  10.196
94539W        W59524  28.731   6.392  13.308
94540W        W59525  16.765  10.269  10.452
94541W        W59526  32.320  16.635   3.015
94542W        W59527  25.712  34.562  11.474
94543W        W59528  40.348  42.501   0.762
94544W        W59529   2.466  39.540  14.723
94545W        W59530  22.197  38.646   4.194
94546W        W59531  12.280  23.256   1.660
94547W        W59532  21.609   4.709  13.559
94548W        W59533   1.912  34.615  12.911
94549W        W59534  35.647  35.651  11.127
94550W        W59535  29.541  23.234  11.227
94551W        W59536  26.218   4.989   2.686
94552W        W59537   6.963   0.528   4.223
94553W        W59538  34.465  32.644   3.929
94554W        W59539  40.552  11.059  11.953
94555W        W59540   6.261  40.504  13.485
94556W        W59541   8.158   2.138   4.243
94557W        W59542  33.191  13.141  14.852
94558W        W59543  32.798   5.030  14.402
94559W        W59544  18.060  10.239   1.046
94560W        W59545  39.516  10.144   1.673
94561W        W59546  40.281   8.114  11.155
94562W        W59547  42.418  24.583  10.792
94563W        W59548   6.019  29.950  14.629
94564W        W59549  12.746  38.035   1.408
94565W        W59550  44.413  15.922   0.548
94566W        W59551  10.676  39.646  14.930
94567W        W59552  34.969   7.279  12.190
94568W        W59553  33.999  19.037   0.810
94569W        W59554  14.882   3.823  11.077
94570W        W59555  44.349  43.032  10.600
94571W        W59556  37.067  39.868   2.815
94572W        W59557  39.367  33.414   1.035
94573W        W59558  22.522  29.923  12.953
94574W        W59559  32.645  22.707   2.065
94575W        W59560  31.368   4.184  12.321
94576W        W59561  25.221  18.746  10.686
94577W        W59562  23.145  34.698  11.407
94578W        W59563  24.046  11.877  13.564
94579W        W59564  11.577  23.031  13.480
94580W        W59565  23.760  21.965   2.767
94581W        W59566  30.737  36.864   4.335
94582W        W59567  36.778  31.077   3.632
94583W        W59568  39.355   3.111   0.261
94584W        W59569  15.378  15.093  12.856
94585W        W59570  19.912  38.134  12.526
94586W        W59571  32.456  38.310  12.536
94587W        W59572  43.445   2.218  13.518
94588W        W59573  42.427  24.744  13.256
94589W        W59574  15.274  18.224  13.913
94590W        W59575  27.455  20.113   4.959
94591W        W59576  32.535   1.851   4.873
94592W        W59577  15.253  38.308  11.051
94593W        W59578  17.209  26.269   3.347
94594W        W59579   7.850  13.755   4.549
94595W        W59580  23.336  18.577  11.390
94596W        W59581  33.587  19.405  13.617
94597W        W59582  22.920  27.532  13.408
94598W        W59583  23.198  30.521   0.414
94599W        W59584  36.777  43.289  11.389
94600W        W59585  37.206   3.910  11.617
94601W        W59586  30.149   9.831  13.935
94602W        W59587   7.257  11.323  10.574
94603W        W59588  19.133  44.070  14.274
94604W        W59589  37.562  17.219   1.849
94605W        W59590  39.832  12.216   4.069
94606W        W59591  23.036  38.854  11.545
94607W        W59592  17.150  42.008  10.794
94608W        W59593  32.009  41.328   4.588
94609W        W59594  39.762  18.038  14.727
94610W        W59595  30.966  14.522   2.283
94611W        W59596  10.157  24.619  12.417
94612W        W59597  25.668  25.241   2.209
94613W        W59598  18.543  34.563  11.197
94614W        W59599  13.377  24.606  11.038
94615W        W59600   3.946   1.102  11.616
94616W        W59601  15.857  37.775  13.032
94617W        W59602  22.785  42.922  11.887
94618W        W59603  11.657  24.433   0.179
94619W        W59604  32.626  26.722   1.146
94620W        W59605  36.521   7.393  14.025
94621W        W59606   4.961  44.341   1.326
94622W        W59607  12.133  38.056  14.052
94623W        W59608  29.531   5.716   3.606
94624W        W59609  40.241  43.396   4.339
94625W        W59610  37.894  43.917  13.095
94626W        W59611  39.027   6.930   3.073
94627W        W59612  18.269  36.811   2.841
94628W        W59613  40.334  29.440  14.455
94629W        W59614  40.145  28.638   4.954
94630W        W59615  17.475   2.179  14.313
94631W        W59616   0.269  14.538  13.034
94632W        W59617   2.801  37.870  14.399
94633W        W59618  22.762  21.184   0.399
94634W        W59619  16.739  14.221  11.544
94635W        W59620  20.952  23.320   1.377
94636W        W59621  41.487  38.427  13.145
94637W        W59622  19.057  40.744   2.531
94638W        W59623  19.743  34.088   3.643
94639W        W59624  32.582  43.342  13.349
94640W        W59625  15.038   0.080  14.783
94641W        W59626   1.194  17.053   2.394
94642W        W59627  13.181  41.478   1.907
94643W        W59628  37.769  17.904   4.167
94644W        W59629  42.536   4.292   3.565
94645W        W59630  37.611  43.044  11.688
94646W        W59631  31.567  20.477   1.750
94647W        W59632  36.148  21.717   2.208
94648W        W59633  14.387  24.877  12.980
94649W        W59634  37.516  39.173   3.601
94650W        W59635  11.302   2.067   0.761
94651W        W59636   5.936  33.997  14.195
94652W        W59637  44.394  33.688  11.392
94653W        W59638   5.983  34.062   0.182
94654W        W59639  20.273  17.620  14.345
94655W        W59640  22.383   9.244   3.899
94656W        W59641   1.292  41.512   4.630
94657W        W59642   0.363  43.654   1.323
94658W        W59643  31.797   0.752  13.235
94659W        W59644  25.195  23.127   1.315
94660W        W59645  35.056   2.923  13.155
94661W        W59646  39.915  40.058   2.599
94662W        W59647  15.061   7.335  14.452
94663W        W59648  35.291   6.501  11.532
94664W        W59649   5.555  14.891  13.271
94665W        W59650  28.822  42.311   3.163
94666W        W59651  19.152  11.241   2.672
94667W        W59652  33.942  15.367   3.067
94668W        W59653  22.854  17.654  10.755
94669W        W59654  35.335   2.098   1.341
94670W        W59655  10.269   0.534   2.378
94671W        W59656  33.886  40.486  12.075
94672W        W59657  11.730  42.710  11.735
94673W        W59658  31.000  22.636  11.423
94674W        W59659   8.322  37.453  13.036
94675W        W59660  35.136  31.867   0.826
94676W        W59661  17.294   4.449   2.691
94677W        W59662  43.753  41.261   0.859
94678W        W59663   5.439   8.233  14.585
94679W        W59664  33.558  10.297  14.750
94680W        W59665  25.006  40.017  13.057
94681W        W59666  24.386   1.828   3.385
94682W        W59667  11.329  27.324   4.529
94683W        W59668  29.436   6.633  10.754
94684W        W59669  23.068  44.343   3.617
94685W        W59670  15.715  19.629  11.076
94686W        W59671  33.126   7.844  14.471
94687W        W59672  44.033  35.320  14.544
94688W        W59673  42.809  22.588  13.581
94689W        W59674  29.519  33.840   4.117
94690W        W59675  38.397   2.635   3.189
94691W        W59676  30.569  33.548   3.000
94692W        W59677   9.549  23.598   0.721
94693W        W59678   6.940   0.057  14.159
94694W        W59679  27.729  43.144   5.035
94695W        W59680  28.723   6.668  14.744
94696W        W59681  16.612  35.176  12.736
94697W        W59682   3.634  21.818   3.449
94698W        W59683  16.759  44.717  12.412
94699W        W59684  43.000  29.651   2.816
94700W        W59685  11.740  29.770   4.015
94701W        W59686  17.339  24.920  13.198
94702W        W59687  37.587   1.569  11.727
94703W        W59688  18.046  43.804  14.014
94704W        W59689  10.518   5.806   4.545
94705W        W59690  33.607  31.258   2.460
94706W        W59691  20.239  38.505   0.644
94707W        W59692  32.874  25.567   4.162
94708W        W59693  24.668  23.668   1.197
94709W        W59694  13.667   9.114  11.432
94710W        W59695  39.061  37.538  13.052
94711W        W59696  30.812  14.229  11.589
94712W        W59697   6.913  11.890   2.181
94713W        W59698  12.687  26.433  12.608
94714W        W59699  16.522   1.543  14.157
94715W        W59700  38.087   9.156   2.310
94716W        W59701  17.667   0.084  14.915
94717W        W59702  24.648   2.441   3.371
94718W        W59703   0.933  41.567   0.526
94719W        W59704  26.017  18.419  10.541
94720W        W59705  10.875   6.677  11.857
94721W        W59706  40.898  31.212   3.115
94722W        W59707  25.202  15.217  11.980
94723W        W59708  38.643  18.148   3.068
94724W        W59709  22.518  42.536  13.990
94725W        W59710  33.426  42.566  11.183
94726W        W59711  23.910  37.524   4.174
94727W        W59712  17.050  15.039   0.068
94728W        W59713  30.369  12.387   4.212
94729W        W59714  38.148  14.508  13.545
94730W        W59715  14.675  12.285  13.532
94731W        W59716  15.138  20.113   0.203
94732W        W59717  37.921  18.639  13.438
94733W        W59718  33.547  44.038   4.499
94734W        W59719   4.238  23.987   2.237
94735W        W59720  27.891  27.491   3.875
94736W        W59721  10.453  15.807   2.776
94737W        W59722  17.435  24.271   4.142
94738W        W59723   1.445   5.996  10.700
94739W        W59724  33.462  32.371  12.365
94740W        W59725  29.804  34.645   2.807
94741W        W59726   7.229  20.678  12.117
94742W        W59727  16.817  20.015  10.605
94743W        W59728  21.787  30.450  13.551
94744W        W59729  42.805  43.776   4.244
94745W        W59730   5.848  28.233   4.571
94746W        W59731  15.703   6.186  13.407
94747W        W59732  28.446  44.919   4.583
94748W        W59733   5.168   1.985  13.552
94749W        W59734  27.992  36.647  13.064
94750W        W59735  28.718  28.972   3.299
94751W        W59736  28.211  18.215  10.785
94752W        W59737  21.526  22.037   4.008
94753W        W59738  13.912  34.118  13.594
94754W        W59739  13.160   3.194  14.379
94755W        W59740  36.885  23.217   3.557
94756W        W59741  10.241   1.054   2.396
94757W        W59742  32.167  28.129  10.724
94758W        W59743  12.024   2.496  10.732
94759W        W59744  42.370  10.137  10.583
94760W        W59745  38.989  26.326  12.811
94761W        W59746  31.837  42.766  11.539
94762W        W59747  27.562   8.027   4.616
94763W        W59748  42.730  15.349  12.606
94764W        W59749   4.810  26.480   4.890
94765W        W59750  41.313  43.540  12.922
94766W        W59751  12.656   5.071   3.201
94767W        W59752  12.490  11.832  13.368
94768W        W59753  30.894  40.689  11.701
94769W        W59754  14.144  31.496   3.663
94770W        W59755  14.107  12.943  11.195
94771W        W59756   0.408  41.871   2.771
94772W        W59757  39.290   2.010  12.043
94773W        W59758  44.339   9.355  10.422
94774W        W59759  14.932  37.538  12.409
94775W        W59760  36.973  21.727   2.693
94776W        W59761   2.233  14.389  13.003
94777W        W59762  20.410  41.851   4.456
94778W        W59763  37.680  25.748  11.458
94779W        W59764  20.613   8.606  12.380
94780W        W59765  30.408   7.885  11.266
94781W        W59766  24.035  24.335   1.775
94782W        W59767  18.334  32.929   1.789
94783W        W59768  13.799  36.663  14.467
94784W        W59769  42.070  31.521  12.885
94785W        W59770   5.614  37.549  10.600
94786W        W59771  24.950  20.890  13.598
94787W        W59772  39.451   0.973  14.508
94788W        W59773  22.625   1.114   1.199
94789W        W59774  15.382   6.683   1.825
94790W        W59775  27.965  30.206  14.952
94791W        W59776  30.106  24.459   2.303
94792W        W59777   2.161  37.047   0.690
94793W        W59778  24.494   7.220  13.270
94794W        W59779  27.436   4.824   4.837
94795W        W59780  11.300  29.210   2.252
94796W        W59781  11.685  37.125   3.620
94797W        W59782   8.219  32.030   3.184
94798W        W59783   7.655  35.279  11.932
94799W        W59784  22.957  27.982  12.112
94800W        W59785   9.586  29.610   0.397
94801W        W59786   3.066  34.998   0.374
94802W        W59787   5.161  39.033  11.733
94803W        W59788   4.968  34.595  10.172
94804W        W59789  44.352  35.337  11.267
94805W        W59790  26.470   7.671  14.526
94806W        W59791  13.592   2.310   4.136
94807W        W59792  39.964  13.351  14.310
94808W        W59793  11.069  41.470   3.588
94809W        W59794  34.342  17.694   3.369
94810W        W59795  30.732  38.751   3.163
94811W        W59796  35.219  16.254   2.665
94812W        W59797   2.187  11.879  12.494
94813W        W59798  31.176   2.538   0.871
94814W        W59799  27.976  23.900  13.801
94815W        W59800  29.983   6.304   0.179
94816W        W59801   4.892  38.758   4.680
94817W        W59802  12.142   6.384  12.025
94818W        W59803  11.328   9.865   1.830
94819W        W59804  43.284  32.649  12.919
94820W        W59805   8.011  34.834  12.926
94821W        W59806   8.657  31.413  12.011
94822W        W59807  17.365   8.650  14.323
94823W        W59808  10.348  18.146  10.359
94824W        W59809  27.582  36.653   0.816
94825W        W59810  32.945  41.223   4.576
94826W        W59811  32.886  41.917   2.272
94827W        W59812  37.527  32.886  13.637
94828W        W59813  32.329  25.715  13.399
94829W        W59814  17.496   6.263   1.488
94830W        W59815  25.883  43.608   5.271
94831W        W59816  21.203  16.336   4.476
94832W        W59817   9.942   1.405  10.727
94833W        W59818   5.803  18.380   3.819
94834W        W59819   7.732   3.734  10.588
94835W        W59820   1.801  33.639   2.712
94836W        W59821  10.503  41.040   1.096
94837W        W59822  34.850  13.726  10.815
94838W        W59823  41.266  11.215  12.427
94839W        W59824  41.574  34.211   1.127
94840W        W59825  38.452  33.985   4.535
94841W        W59826   3.025  31.070  13.348
94842W        W59827   1.284  18.318   2.762
94843W        W59828  18.074  13.738   1.828
94844W        W59829  13.708  33.655   1.889
94845W        W59830  37.642  44.273   1.414
94846W        W59831  44.409   6.271  12.597
94847W        W59832  34.749  18.045   2.301
94848W        W59833  42.965  12.090   4.642
94849W        W59834  35.975  11.281  12.145
94850W        W59835  24.570  27.041  14.959
94851W        W59836  20.106   5.845  11.037
94852W        W59837  11.144  20.119   4.686
94853W        W59838  19.031  25.178  14.829
94854W        W59839  29.430   2.803  14.242
94855W        W59840  22.615  39.761   4.875
94856W        W59841  44.953  24.722  12.414
94857W        W59842  34.432  25.208  13.317
94858W        W59843  38.053  31.377   4.107
94859W        W59844  11.194  39.413  12.410
94860W        W59845  42.089  17.878   4.449
94861W        W59846  16.764  29.746   0.394
94862W        W59847  12.102  16.798  12.865
94863W        W59848  15.905  30.902   4.664
94864W        W59849   2.265   2.723   1.936
94865W        W59850  40.028   2.978   3.647
94866W        W59851   7.987   8.025   4.238
94867W        W59852   0.834  27.347  14.719
94868W        W59853  26.461   0.017  12.373
94869W        W59854   1.375  27.725   1.194
94870W        W59855  35.476  17.801   4.117
94871W        W59856  44.540  15.870   2.791
94872W        W59857  23.458  23.161  13.320
94873W        W59858  39.496  22.533  13.823
94874W        W59859   2.003  17.830   4.102
94875W        W59860   1.853   1.185   2.192
94876W        W59861  33.251  35.562   2.305
94877W        W59862  34.844   1.572   3.306
94878W        W59863  28.447  36.409   1.170
94879W        W59864  40.263   2.628  12.650
94880W        W59865  20.245  29.191  11.473
94881W        W59866   8.064  34.999  12.005
94882W        W59867  24.642  28.673  13.046
94883W        W59868  32.075  37.338   0.689
94884W        W59869  29.413   2.453   3.161
94885W        W59870  44.775  27.005  13.858
94886W        W59871  41.088  35.721   2.197
94887W        W59872   7.750  23.669   0.012
94888W        W59873   2.809  11.182  13.041
94889W        W59874  22.031  38.566  13.398
94890W        W59875  37.938  18.013   0.767
94891W        W59876   2.332  18.189  11.244
94892W        W59877  13.405   1.133   1.822
94893W        W59878  37.386  26.124  10.548
94894W        W59879  25.194   3.568   3.651
94895W        W59880   4.424  28.118   2.091
94896W        W59881  39.773  15.414   1.316
94897W        W59882  11.377   5.914   1.421
94898W        W59883  12.157  42.939  11.412
94899W        W59884  44.695   4.151   3.577
94900W        W59885  38.314   1.683   3.553
94901W        W59886  39.801  28.168   3.085
94902W        W59887  13.056  14.228  11.959
94903W        W59888  21.739  23.532   4.506
94904W        W59889  35.913  28.921  12.993
94905W        W59890  43.726  38.969  12.947
94906W        W59891  27.991  38.399  14.909
94907W        W59892  26.081  35.101  10.701
94908W        W59893  31.541  13.171  12.926
94909W        W59894  30.631  24.098  12.816
94910W        W59895   2.272  12.403   0.263
94911W        W59896  26.053   0.885   2.460
94912W        W59897   4.160  24.415   3.365
94913W        W59898  38.024   9.673  13.323
94914W        W59899  40.802  36.901  12.094
94915W        W59900  27.117   5.707  12.507
94916W        W59901  33.284  42.016   0.871
94917W        W59902   3.485  27.213   0.799
94918W        W59903  44.806  17.865   5.275
94919W        W59904  16.283  35.382  14.815
94920W        W59905  39.294  24.524   1.462
94921W        W59906  36.518  18.584   4.376
94922W        W59907  31.583  16.766   4.660
94923W        W59908   5.961  13.284   4.031
94924W        W59909  31.051  35.705   0.969
94925W        W59910  27.033  18.509   3.133
94926W        W59911  21.844  33.631  14.713
94927W        W59912  14.472  34.695   0.782
94928W        W59913   0.060  32.198  14.196
94929W        W59914  31.598   4.016  14.199
94930W        W59915  27.160   7.152   4.647
94931W        W59916  30.315   4.821  10.662
94932W        W59917   2.512  11.651  11.223
94933W        W59918   1.208  14.808  12.874
94934W        W59919  27.914  39.437  14.924
94935W        W59920  18.248  44.997   2.216
94936W        W59921  12.009  29.469   5.046
94937W        W59922  31.407  30.945   1.186
94938W        W59923  22.014  14.552  12.371
94939W        W59924   1.706  19.515  12.448
94940W        W59925   5.167  31.361   4.020
94941W        W59926  32.933  22.079   0.471
94942W        W59927  26.464  25.676   4.135
94943W        W59928  32.425   6.608  12.044
94944W        W59929  21.205  31.680   4.557
94945W        W59930  10.820  11.608  12.971
94946W        W59931  34.876  37.588  11.543
94947W        W59932   3.362  15.862  11.828
94948W        W59933  10.828  34.484  13.367
94949W        W59934  37.669  14.757  13.439
94950W        W59935  40.943  27.332   4.346
94951W        W59936  35.018  22.969  14.080
94952W        W59937  22.897  40.513   0.678
94953W        W59938  29.185   6.444   2.055
94954W        W59939  43.086  25.733  12.835
94955W        W59940  14.143   6.740   0.462
94956W        W59941   2.928  39.786  11.641
94957W        W59942   8.269  36.870   0.384
94958W        W59943  17.578  22.463  13.226
94959W        W59944   4.888  29.448   4.619
94960W        W59945  40.179  24.144   5.325
94961W        W59946  32.758  41.254   0.870
94962W        W59947   2.886  39.415   3.681
94963W        W59948  28.230  10.370   4.287
94964W        W59949  26.686  35.819  12.892
94965W        W59950  12.792  18.055   1.698
94966W        W59951  17.828  13.182   2.817
94967W        W59952  14.353  24.005   1.440
94968W        W59953  39.336  22.468  12.548
94969W        W59954  27.416  21.677   0.021
94970W        W59955  33.412  34.828   0.802
94971W        W59956  19.777  38.601   4.209
94972W        W59957   1.203  31.661   3.248
94973W        W59958  31.471  19.655   0.291
94974W        W59959  19.189  41.968   3.660
94975W        W59960  14.534  19.103   1.841
94976W        W59961  23.397  22.801   3.146
94977W        W59962  30.931  12.367   1.872
94978W        W59963  31.976  20.793  11.983
94979W        W59964  20.939  19.392   0.337
94980W        W59965   1.910  22.901  11.941
94981W        W59966   9.869  32.336  10.402
94982W        W59967  36.255  20.222  12.057
94983W        W59968  39.842  20.733   4.655
94984W        W59969  33.371  19.576  11.646
94985W        W59970  39.061   0.538   0.717
94986W        W59971  41.517  43.660  11.995
94987W        W59972  43.243   8.814  14.235
94988W        W59973  38.602  25.504   1.365
94989W        W59974  12.014  36.892   0.889
94990W        W59975  32.917  37.877  13.375
94991W        W59976  36.976  14.716   3.609
94992W        W59977  18.397  36.203   4.668
94993W        W59978  41.582  33.442  12.860
94994W        W59979  36.081   8.457   3.085
94995W        W59980  14.132  26.485  11.964
94996W        W59981  18.294   3.114   4.216
94997W        W59982   1.425  36.738   4.624
94998W        W59983  41.439  27.742   2.794
94999W        W59984   1.314   9.209  12.366
95000W        W59985   4.411  40.979  11.568
95001W        W59986   8.159  25.208  11.126
95002W        W59987   4.621  34.838  14.283
95003W        W59988  37.167  39.070  14.346
95004W        W59989  17.658  27.302  14.349
95005W        W59990   9.574  23.583  12.955
95006W        W59991  12.800  33.438  13.141
95007W        W59992  21.439  33.727  13.469
95008W        W59993  43.417  21.778  10.243
95009W        W59994  41.824  31.880   1.258
95010W        W59995   3.027  31.554  13.046
95011W        W59996  37.855   2.394  11.269
95012W        W59997  34.970  34.204  14.819
95013W        W59998  31.418  35.337   3.750
95014W        W59999  33.404  27.491   4.619
95015W        W60000   8.045  29.641   3.412
95016W        W60001  25.123  29.457  11.622
95017W        W60002  43.355  33.253   5.314
95018W        W60003  25.801   6.666  12.399
95019W        W60004   0.927  11.730   0.531
95020W        W60005  38.548  37.308  11.659
95021W        W60006  10.603  35.067  10.620
95022W        W60007  18.709  31.657  14.118
95023W        W60008   2.111  14.899  13.264
95024W        W60009  24.418  25.194  11.685
95025W        W60010  16.827  22.469   2.846
95026W        W60011  32.680  20.065   2.377
95027W        W60012  43.525   3.240   3.533
95028W        W60013  32.915   6.939  14.711
95029W        W60014   6.265  12.831  13.518
95030W        W60015  44.813  26.235  11.026
95031W        W60016  34.599  21.715  11.211
95032W        W60017  23.777   3.628   4.973
95033W        W60018  28.465  13.758   1.878
95034W        W60019  24.028  29.618  13.334
95035W        W60020  35.485  42.595  13.302
95036W        W60021  18.610   1.923   3.694
95037W        W60022  31.068  17.321  12.295
95038W        W60023  26.281   3.259  14.310
95039W        W60024   1.936   6.828  13.775
95040W        W60025  15.222  14.220  14.275
95041W        W60026   8.199  30.539  10.945
95042W        W60027  39.301  14.479   3.232
95043W        W60028  44.755  16.335   2.741
95044W        W60029  13.691   5.500   4.780
95045W        W60030  13.163  20.743   1.405
95046W        W60031   5.328  41.392   0.126
95047W        W60032  22.376  39.127   4.125
95048W        W60033  15.843  35.890   0.433
95049W        W60034  12.243  39.393   3.189
95050W        W60035  11.444  21.296  10.044
95051W        W60036  42.890  19.612   0.500
95052W        W60037  28.881  22.833   0.308
95053W        W60038  36.878  18.846   2.459
95054W        W60039  16.294  25.939  11.623
95055W        W60040   3.722  20.700   4.750
95056W        W60041  40.690  43.222   1.390
95057W        W60042  36.600  11.795   4.506
95058W        W60043  41.609  25.638   0.503
95059W        W60044   5.691  37.331  13.881
95060W        W60045  35.979  26.380   2.587
95061W        W60046   9.441  43.869  10.696
95062W        W60047  24.617  13.719  11.504
95063W        W60048  23.161  12.669  13.125
95064W        W60049  12.866  44.132  12.012
95065W        W60050  11.184   1.063   1.881
95066W        W60051  29.154  28.419   2.392
95067W        W60052  28.961  37.699   3.749
95068W        W60053   6.522  10.584  11.650
95069W        W60054  27.280  26.121  12.438
95070W        W60055  44.970  25.989   9.585
95071W        W60056  19.977  13.748  12.513
95072W        W60057  16.024  19.582   1.131
95073W        W60058  20.655  44.072  11.123
95074W        W60059  14.176  35.389   4.420
95075W        W60060  40.279  14.869   3.233
95076W        W60061   9.831  21.090  13.472
95077W        W60062  34.562  28.883  13.018
95078W        W60063  34.009  16.476   1.319
95079W        W60064  15.055  35.276  14.397
95080W        W60065  20.471   6.446   2.351
95081W        W60066  25.519   0.481   3.712
95082W        W60067  17.197   5.547  12.138
95083W        W60068  21.594   6.662  10.668
95084W        W60069   3.265  15.532  13.305
95085W        W60070  30.322   0.828  12.885
95086W        W60071  37.924   5.703   4.525
95087W        W60072  36.529   3.864   2.834
95088W        W60073   8.599  27.898   4.004
95089W        W60074  32.513  37.006   3.453
95090W        W60075  32.065   4.544  14.902
95091W        W60076   8.943  18.735   4.601
95092W        W60077  12.923   6.319  11.574
95093W        W60078  36.517  36.681   2.615
95094W        W60079  24.275  44.933  11.610
95095W        W60080  19.223  15.269   2.337
95096W        W60081  10.426  17.786  11.202
95097W        W60082  44.573  38.903   4.009
95098W        W60083   2.742   4.467   0.972
95099W        W60084  28.364   9.178  13.919
95100W        W60085   6.605  21.020  11.238
95101W        W60086  13.190   5.001   3.053
95102W        W60087   8.229  11.080  10.477
95103W        W60088  29.952   3.612  13.485
95104W        W60089   7.346   0.406   3.189
95105W        W60090  25.252  27.732  13.869
95106W        W60091  24.105  27.918   0.468
95107W        W60092  15.809  41.710   4.542
95108W        W60093  23.717  12.301  11.943
95109W        W60094  28.862  31.976  11.401
95110W        W60095  13.092  14.550  10.579
95111W        W60096  42.613   9.369  14.890
95112W        W60097  26.153  43.291  13.011
95113W        W60098  28.629   4.757  12.618
95114W        W60099  31.976   3.036   1.374
95115W        W60100   3.236  37.849   1.364
95116W        W60101  15.327  31.515   0.836
95117W        W60102  17.300  38.956  12.273
95118W        W60103  17.264  42.791  11.475
95119W        W60104   3.891  24.623   0.496
95120W        W60105  42.972   2.916  10.766
95121W        W60106  23.628  34.956   1.797
95122W        W60107  34.585  26.616  13.613
95123W        W60108  35.808   9.915  13.821
95124W        W60109   7.454   5.729   1.343
95125W        W60110  38.376  16.579  10.510
95126W        W60111  15.628   2.725  11.958
95127W        W60112   5.775  24.011  10.475
95128W        W60113  41.289   6.792   2.219
95129W        W60114  33.189   3.308  10.925
95130W        W60115  40.981  32.566   0.401
95131W        W60116  43.486  29.888   2.860
95132W        W60117  34.497   6.362  13.807
95133W        W60118  18.296  37.502   4.549
95134W        W60119  39.744  14.049   1.474
95135W        W60120  40.450  23.064   0.895
95136W        W60121  29.513  18.632   0.920
95137W        W60122  29.169   5.364   4.779
95138W        W60123  22.782  33.619  10.655
95139W        W60124   4.643   1.673  11.659
95140W        W60125  27.926  39.269   2.867
95141W        W60126  12.273  44.228  14.415
95142W        W60127   8.268  25.111   1.905
95143W        W60128   5.601  36.473   0.228
95144W        W60129  35.802  20.842  11.545
95145W        W60130   3.918  20.582  11.559
95146W        W60131  44.198  17.158   3.000
95147W        W60132  12.180   1.156  11.219
95148W        W60133  42.127  23.468  14.425
95149W        W60134  24.230  32.738  12.383
95150W        W60135   3.877   6.697   2.707
95151W        W60136   9.595   4.475  10.466
95152W        W60137  19.112  20.770  13.074
95153W        W60138  43.592  41.590   4.022
95154W        W60139  19.306  23.334   3.728
95155W        W60140  10.732  11.865   4.599
95156W        W60141  24.388   5.434  12.470
95157W        W60142  14.570  28.507  12.146
95158W        W60143   0.652  40.544  13.547
95159W        W60144  29.662   7.833   1.364
95160W        W60145   1.300  21.998  13.041
95161W        W60146   6.463  36.113   1.553
95162W        W60147  34.538  16.638  12.696
95163W        W60148  38.905   3.285  14.954
95164W        W60149  23.189  31.482   1.917
95165W        W60150  18.427  22.455   0.266
95166W        W60151  37.277  28.137   0.532
95167W        W60152   7.763   1.995  12.645
95168W        W60153  34.963  22.641   2.808
95169W        W60154  24.809  11.715   4.606
95170W        W60155  33.434  40.866   0.331
95171W        W60156  16.639   9.459   0.225
95172W        W60157   3.387  29.880   1.746
95173W        W60158  22.026  25.424   4.638
95174W        W60159  39.240  32.552   0.041
95175W        W60160   7.964  41.866   0.944
95176W        W60161   6.151  14.601   0.946
95177W        W60162  41.704   4.756  10.334
95178W        W60163  17.351  42.911   1.734
95179W        W60164  34.020  21.097  11.969
95180W        W60165  34.354   7.773   2.124
95181W        W60166  21.673  23.499   1.542
95182W        W60167  25.564  15.710  13.534
95183W        W60168  10.465  27.657  11.900
95184W        W60169  34.936  21.173  13.849
95185W        W60170   6.541  14.969   0.887
95186W        W60171  29.461  41.420   3.828
95187W        W60172   7.910  10.739  11.373
95188W        W60173  23.519  43.940  14.457
95189W        W60174  37.015  12.102   0.314
95190W        W60175  23.185  42.517  11.936
95191W        W60176  18.649  34.546   4.674
95192W        W60177  36.964  13.197  11.616
95193W        W60178  42.522  37.394  12.982
95194W        W60179  32.058  28.149  13.298
95195W        W60180  43.964  14.377  11.591
95196W        W60181  37.430  19.423   2.627
95197W        W60182   6.735  34.407   0.033
95198W        W60183  42.932  42.065   3.159
95199W        W60184  19.401  38.498   1.304
95200W        W60185  40.230  27.166   0.880
95201W        W60186  44.473   3.955  10.485
95202W        W60187  12.666  36.034   2.359
95203W        W60188  33.792  38.907   1.090
95204W        W60189  19.147   0.451  10.644
95205W        W60190  40.134  29.078  12.481
95206W        W60191  14.671  35.260  11.143
95207W        W60192   3.816  37.033   3.280
95208W        W60193  30.310  17.606   3.493
95209W        W60194   0.193  21.226   0.416
95210W        W60195   5.413  26.923   1.333
95211W        W60196  28.118  44.413   1.024
95212W        W60197   0.964  36.606  12.057
95213W        W60198  42.836  29.172   2.893
95214W        W60199  22.215  34.535  10.628
95215W        W60200  20.839   3.336   3.266
95216W        W60201  25.165   0.774  12.554
95217W        W60202  44.019  24.945   4.356
95218W        W60203  42.873   2.962  14.564
95219W        W60204  12.609  19.726  14.860
95220W        W60205  36.432   3.547   0.229
95221W        W60206   3.811  37.580  13.954
95222W        W60207  35.829  36.745  10.636
95223W        W60208   5.788  18.499   4.657
95224W        W60209  10.274  20.232   4.109
95225W        W60210  37.812  11.862   3.250
95226W        W60211  44.907  15.846   1.439
95227W        W60212  28.973  42.855  10.682
95228W        W60213   6.936  21.966  11.986
95229W        W60214  26.943  11.193   4.347
95230W        W60215  36.377  44.434   5.100
95231W        W60216   1.759   5.756   0.823
95232W        W60217  41.875  28.665  10.457
95233W        W60218   9.893  17.797  14.778
95234W        W60219  17.490  42.914  10.998
95235W        W60220  25.010   5.803   4.232
95236W        W60221  28.620   3.350  10.543
95237W        W60222  24.499  43.805   4.095
95238W        W60223  39.381  43.205  14.126
95239W        W60224  44.418  24.550   0.333
95240W        W60225  33.106  14.866  10.636
95241W        W60226   6.455  32.376  12.785
95242W        W60227   1.313  40.828   2.311
95243W        W60228  11.629  14.214   1.426
95244W        W60229  24.848  24.556  13.853
95245W        W60230  31.280  26.896  12.565
95246W        W60231   6.638  17.503  11.202
95247W        W60232  25.201  29.230   5.020
95248W        W60233  32.756   6.179  12.015
95249W        W60234  17.620  25.584  12.590
95250W        W60235  13.723  15.626  10.136
95251W        W60236  28.576  32.413  11.455
95252W        W60237  26.037  36.293   4.291
95253W        W60238  20.043  31.135  12.508
95254W        W60239  37.041  12.094  13.874
95255W        W60240   4.654  37.403  13.422
95256W        W60241   5.348  37.418   2.815
95257W        W60242  11.124  15.129  11.636
95258W        W60243  44.806  22.999  10.623
95259W        W60244   8.814  11.358   1.706
95260W        W60245  16.570  28.122   3.185
95261W        W60246  17.258  21.630  13.298
95262W        W60247  15.201  26.243  14.867
95263W        W60248   7.833  40.479  14.968
95264W        W60249  11.836   1.312  11.948
95265W        W60250  21.557  19.787  11.941
95266W        W60251  13.765   3.641   3.263
95267W        W60252  30.437   6.236  14.942
95268W        W60253  33.219  35.003  10.509
95269W        W60254  43.363  43.069   3.836
95270W        W60255  10.384   4.907   2.342
95271W        W60256  23.039  33.607   1.143
95272W        W60257  29.362  26.089  11.573
95273W        W60258   3.644  36.392   2.194
95274W        W60259   0.683   3.722  14.493
95275W        W60260   6.873   7.402  13.360
95276W        W60261  23.239  43.815  11.605
95277W        W60262   1.847   8.071   0.377
95278W        W60263  22.365  23.177   4.528
95279W        W60264   6.484  42.450  10.122
95280W        W60265  20.303   9.200   0.201
95281W        W60266  32.936  31.870   2.601
95282W        W60267  14.082   7.847   4.027
95283W        W60268  32.530   3.698   3.084
95284W        W60269  23.476   5.631   1.296
95285W        W60270  34.085  19.614  12.148
95286W        W60271   6.300  11.365  12.083
95287W        W60272  31.866  42.826  10.730
95288W        W60273   6.036  35.907  10.848
95289W        W60274  43.031  37.433  12.921
95290W        W60275  18.761  32.952  13.448
95291W        W60276  25.768   8.183   1.410
95292W        W60277  29.508  36.342   1.454
95293W        W60278  36.921   1.802   3.170
95294W        W60279  38.922  31.372   2.618
95295W        W60280  42.567  17.631  11.654
95296W        W60281  30.704  35.611   2.424
95297W        W60282  24.394  37.679  12.037
95298W        W60283  17.298  15.674   1.348
95299W        W60284   8.065  30.099   1.930
95300W        W60285   8.927  37.007   4.774
95301W        W60286  19.562  28.947  11.998
95302W        W60287   6.977   2.409  11.719
95303W        W60288  43.583  12.684   1.839
95304W        W60289  30.618  40.755   2.330
95305W        W60290  16.943  36.828   1.705
95306W        W60291  23.135  44.561   4.661
95307W        W60292  20.956  16.301   1.072
95308W        W60293  32.506  31.664   0.349
95309W        W60294  38.832  13.808   2.689
95310W        W60295  37.390  30.651  13.966
95311W        W60296  29.389  29.448   1.944
95312W        W60297  24.922  33.629  11.994
95313W        W60298  21.942  30.423   3.769
95314W        W60299  27.176  43.448  11.291
95315W        W60300  25.503   7.050   3.795
95316W        W60301   3.391  43.974   3.734
95317W        W60302  44.819  43.932  12.049
95318W        W60303  37.869   9.565  12.463
95319W        W60304   0.949  27.458  10.613
95320W        W60305  26.627  21.256   4.528
95321W        W60306  44.577  25.588  11.636
95322W        W60307  43.630  22.128  12.942
95323W        W60308  32.654   8.038   2.783
95324W        W60309  25.352  33.769  11.717
95325W        W60310  23.631   3.830   3.156
95326W        W60311  22.252  21.967   2.798
95327W        W60312  40.150  16.145   4.883
95328W        W60313  37.566   9.171   2.232
95329W        W60314  26.919  32.378   1.819
95330W        W60315  25.443  40.603   4.932
95331W        W60316  19.955  10.708   2.054
95332W        W60317  40.143  12.814   2.742
95333W        W60318  10.367  40.030   0.176
95334W        W60319   6.338  16.539  13.982
95335W        W60320  15.085   0.259  13.030
95336W        W60321  43.112  26.099   1.217
95337W        W60322  14.588  26.958  14.752
95338W        W60323  44.844  39.309   0.436
95339W        W60324  31.961  11.184  11.602
95340W        W60325  25.278  36.948  13.944
95341W        W60326  30.122  44.208  14.194
95342W        W60327  10.579  26.226   0.863
95343W        W60328  36.091  32.446  11.231
95344W        W60329   5.677  24.705  12.053
95345W        W60330  16.139  30.829   2.624
95346W        W60331  33.482   5.860  10.676
95347W        W60332   8.268  33.362  12.816
95348W        W60333   0.877  31.012   1.694
95349W        W60334  20.677  24.040  12.982
95350W        W60335  41.647  36.043   9.630
95351W        W60336  16.674  17.361  12.421
95352W        W60337   6.407  24.687  10.705
95353W        W60338  21.256  27.306  12.602
95354W        W60339  33.385  43.440  10.261
95355W        W60340   3.734  35.490   3.315
95356W        W60341  25.748  10.262   4.589
95357W        W60342   6.179  34.862   2.841
95358W        W60343  42.559  23.394   0.645
95359W        W60344  18.827  22.886  11.763
95360W        W60345  26.218  18.975   1.028
95361W        W60346  43.407  17.882   4.972
95362W        W60347  43.724   4.331   1.430
95363W        W60348  29.963   5.410   3.793
95364W        W60349  22.773  17.757   2.321
95365W        W60350  37.107  30.799   1.333
95366W        W60351  17.533  14.162   2.773
95367W        W60352  20.764  25.626  14.163
95368W        W60353   3.976   0.080  12.892
95369W        W60354   8.247  27.462   0.850
95370W        W60355  23.871  26.507  14.376
95371W        W60356   8.218  27.657   3.472
95372W        W60357  37.012  24.360   1.457
95373W        W60358  15.161   5.520  12.574
95374W        W60359  12.410  15.212   0.247
95375W        W60360  11.171  26.528  13.603
95376W        W60361  44.269  20.541  11.089
95377W        W60362  35.387  15.777  10.495
95378W        W60363  43.406  16.154  14.845
95379W        W60364  21.071  32.201   0.377
95380W        W60365  18.483  38.372  12.046
95381W        W60366   4.920  27.671  14.592
95382W        W60367  44.995  11.448  14.049
95383W        W60368  15.081  24.496   4.742
95384W        W60369  14.736  17.587  13.841
95385W        W60370   4.420   1.633   1.462
95386W        W60371  29.318  27.728   0.749
95387W        W60372  24.224   0.719  13.224
95388W        W60373  43.861   5.227  10.505
95389W        W60374  15.876  27.789  10.632
95390W        W60375  12.347   3.459   1.109
95391W        W60376  27.467   9.295  13.511
95392W        W60377  28.713  13.772  13.941
95393W        W60378  32.793  14.791  14.996
95394W        W60379  33.055  25.537   2.355
95395W        W60380  27.033  27.928   1.706
95396W        W60381  32.509   9.061   2.664
95397W        W60382  41.594   7.624  11.623
95398W        W60383  16.165  34.603   0.276
95399W        W60384  19.259  31.164   0.925
95400W        W60385  14.208  37.942   1.476
95401W        W60386  38.513  33.178  12.126
95402W        W60387  10.035  32.828   2.679
95403W        W60388  34.036  44.445   3.856
95404W        W60389  23.640  34.511  11.583
95405W        W60390  38.724  43.067   0.808
95406W        W60391  29.606  27.563  11.063
95407W        W60392  18.837  23.103   3.725
95408W        W60393  16.974  41.011  13.509
95409W        W60394  11.769  40.752   0.785
95410W        W60395  16.361  41.063   3.248
95411W        W60396  44.408  25.942   0.254
95412W        W60397  26.490  41.651   2.365
95413W        W60398  17.112  21.254  11.544
95414W        W60399  34.721  16.702   3.697
95415W        W60400  25.227  10.395   4.401
95416W        W60401  40.122  22.168   2.827
95417W        W60402  43.991   1.999   3.450
95418W        W60403  42.802  26.464   0.401
95419W        W60404  15.703   2.323   4.088
95420W        W60405  12.358  32.700   3.606
95421W        W60406  19.765  16.694   2.325
95422W        W60407  43.502  18.011   0.775
95423W        W60408  25.435  16.768  12.494
95424W        W60409  28.570  34.503  12.576
95425W        W60410  24.694   7.627  12.473
95426W        W60411  19.267  36.378   3.839
95427W        W60412  34.415  42.975  10.969
95428W        W60413  38.598  16.692  12.396
95429W        W60414   2.283   4.963   2.367
95430W        W60415   2.718  37.909   1.444
95431W        W60416  18.742   1.482  12.431
95432W        W60417  32.376  17.683  14.306
95433W        W60418   4.955  15.007   2.442
95434W        W60419   1.368  29.841  14.250
95435W        W60420  38.482  30.583   2.391
95436W        W60421  19.897  40.767   0.849
95437W        W60422  25.604  25.788  12.408
95438W        W60423  19.011   7.317  11.072
95439W        W60424  44.984  14.318  11.569
95440W        W60425  24.710  32.567  13.037
95441W        W60426  10.183  21.716  13.926
95442W        W60427  24.236  28.385  13.172
95443W        W60428  24.980   9.308  14.915
95444W        W60429  30.927   1.549   2.567
95445W        W60430  23.941  34.664  10.718
95446W        W60431  19.537   7.808   2.756
95447W        W60432  31.415   9.738   2.441
95448W        W60433  20.284  29.569   1.662
95449W        W60434  41.130  31.221  11.232
95450W        W60435  42.079  40.840   4.100
95451W        W60436   5.255  32.887   3.247
95452W        W60437  36.432  11.453   4.121
95453W        W60438  11.421  32.844   3.986
95454W        W60439  32.813  37.170   1.787
95455W        W60440  39.340  27.966   3.136
95456W        W60441  24.425  20.302  12.118
95457W        W60442  39.578  26.001  12.137
95458W        W60443   7.751  28.218   1.795
95459W        W60444  17.773  10.385  14.060
95460W        W60445  14.492   4.453  12.490
95461W        W60446   8.734  15.581   4.553
95462W        W60447  12.652   6.274   2.789
95463W        W60448  32.155  16.793   0.914
95464W        W60449  15.870  19.922  11.658
95465W        W60450  32.699  34.338  11.135
95466W        W60451   1.414  13.877   0.397
95467W        W60452  12.531   4.447  10.252
95468W        W60453  41.378  29.620  14.099
95469W        W60454  35.666  20.024   1.818
95470W        W60455  13.490  32.341  11.483
95471W        W60456   6.182  21.483  14.505
95472W        W60457  27.962  42.940   2.278
95473W        W60458   2.221  18.626  12.112
95474W        W60459  40.531  37.932  12.444
95475W        W60460   5.662  35.801  11.958
95476W        W60461  14.595  18.010  14.456
95477W        W60462  23.520  28.871   2.320
95478W        W60463  10.950   0.720  14.318
95479W        W60464  40.401   7.667  10.917
95480W        W60465  14.079  17.595  10.751
95481W        W60466   1.287  24.042  11.918
95482W        W60467  43.963  16.700   2.925
95483W        W60468  10.851   0.330   1.800
95484W        W60469  37.423  38.639  12.361
95485W        W60470  34.616   2.220   1.620
95486W        W60471  23.580  29.961  10.297
95487W        W60472  25.515  27.695  11.992
95488W        W60473  27.958  16.125   1.375
95489W        W60474  33.514   6.156  12.480
95490W        W60475  13.576  39.435   1.801
95491W        W60476  12.844   2.456   1.758
95492W        W60477   3.637  25.290  12.285
95493W        W60478  29.877  23.961  13.935
95494W        W60479  42.463  14.306  13.556
95495W        W60480   0.744   6.323   1.542
95496W        W60481  21.520  29.587   4.067
95497W        W60482  19.747   0.217  14.825
95498W        W60483  41.041  33.133   2.404
95499W        W60484   3.306  18.280  12.443
95500W        W60485   8.814  33.565  12.003
95501W        W60486  19.516  10.068   2.669
95502W        W60487  23.619   2.762  12.472
95503W        W60488  15.072  30.116   2.279
95504W        W60489   9.092   1.917  12.618
95505W        W60490  17.098  38.482  11.643
95506W        W60491  38.317  23.719   0.803
95507W        W60492  24.759   2.475   0.143
95508W        W60493  41.493   0.846   4.097
95509W        W60494   7.935  13.223   3.353
95510W        W60495  21.695  17.735  14.921
95511W        W60496  23.224  41.906  14.518
95512W        W60497   5.022  41.550   5.025
95513W        W60498  41.476  44.266   0.020
95514W        W60499  17.608  20.092  11.594
95515W        W60500  20.713  33.865   2.408
95516W        W60501  29.126   0.866   1.612
95517W        W60502  12.839   9.566   4.136
95518W        W60503   5.176  22.586   2.702
95519W        W60504  29.523  22.551  10.038
95520W        W60505  19.403  33.007   2.858
95521W        W60506   7.298  38.419  11.084
95522W        W60507  21.672  11.820   4.168
95523W        W60508  39.459  38.943   2.360
95524W        W60509  33.603   0.701  10.348
95525W        W60510  39.371  31.943  10.605
95526W        W60511  12.609   7.255   1.224
95527W        W60512  41.438  32.892  11.190
95528W        W60513  32.507  41.382  14.421
95529W        W60514   9.956   1.922  12.929
95530W        W60515  26.480  11.303   2.748
95531W        W60516  24.752  12.605  13.233
95532W        W60517   6.904  10.855  14.488
95533W        W60518  39.637   0.871   1.950
95534W        W60519  38.363  18.075  13.955
95535W        W60520   4.122  36.558   2.133
95536W        W60521   2.732  11.602  11.686
95537W        W60522  28.207  15.152  11.049
95538W        W60523  38.632   3.177  12.004
95539W        W60524  14.240  10.895   3.740
95540W        W60525  44.273  20.739   3.809
95541W        W60526  43.973   3.322   4.356
95542W        W60527   5.372  41.599  13.734
95543W        W60528  42.498  16.259  13.983
95544W        W60529   7.422  10.680   4.308
95545W        W60530  18.163  33.946   2.749
95546W        W60531   7.185  12.560   2.775
95547W        W60532   8.111  12.796   1.621
95548W        W60533  15.126  11.450  14.424
95549W        W60534  10.357   5.297  12.942
95550W        W60535  37.915  14.609   3.682
95551W        W60536  24.574  27.689   0.254
95552W        W60537  44.071  41.919   4.893
95553W        W60538  19.149  27.068  13.856
95554W        W60539  10.748   6.465   1.920
95555W        W60540  43.360  38.100  12.898
95556W        W60541  22.811  21.688   4.135
95557W        W60542  27.195   1.761   3.596
95558W        W60543  13.175   4.962  12.611
95559W        W60544  40.913  25.750   3.746
95560W        W60545  43.503  26.382   3.578
95561W        W60546  17.439  38.496   1.622
95562W        W60547   9.995  38.714  11.119
95563W        W60548  34.454   5.231   3.184
95564W        W60549  28.360  41.712   0.344
95565W        W60550  16.015  35.405   3.729
95566W        W60551  10.916  33.023  10.732
95567W        W60552  42.286  14.249   3.172
95568W        W60553  31.521  36.580  12.126
95569W        W60554  36.375  12.064   3.059
95570W        W60555  27.310  27.026   1.518
95571W        W60556  36.984  18.678   1.997
95572W        W60557  28.608  25.901   4.781
95573W        W60558  31.962  43.277  12.448
95574W        W60559  30.917  14.789  13.687
95575W        W60560   9.284  15.690   4.106
95576W        W60561   4.839  25.733  14.487
95577W        W60562  38.844   6.092  12.334
95578W        W60563  12.285  22.884  11.083
95579W        W60564  21.945  44.533  13.505
95580W        W60565  38.276  33.393  10.900
95581W        W60566  15.928  35.019   2.164
95582W        W60567  34.135  18.392   4.799
95583W        W60568  18.776  21.398   2.918
95584W        W60569  27.064   5.896   4.538
95585W        W60570  41.827   5.939  12.478
95586W        W60571   1.385  28.132   0.810
95587W        W60572  29.088  16.221  12.490
95588W        W60573  30.382   3.868  14.851
95589W        W60574  24.021  39.487   1.019
95590W        W60575  42.309  39.552   3.357
95591W        W60576   5.239   8.724  11.867
95592W        W60577   0.189  38.742  11.522
95593W        W60578  25.159  32.799   3.578
95594W        W60579   7.628  39.430  13.031
95595W        W60580  20.627   2.483  11.605
95596W        W60581  38.931  20.133   3.953
95597W        W60582  39.055  31.118  13.988
95598W        W60583  23.439  12.149   4.883
95599W        W60584  28.506   0.684   0.775
95600W        W60585  28.971  33.377   2.612
95601W        W60586  38.094  24.723   0.751
95602W        W60587  14.655  19.195  13.963
95603W        W60588  20.773   2.069  13.372
95604W        W60589   6.904  10.257   1.170
95605W        W60590  43.557   9.887  12.565
95606W        W60591  43.927  30.439  13.950
95607W        W60592  27.598  23.683   4.100
95608W        W60593  18.989   2.008   0.748
95609W        W60594  40.906   0.764   2.304
95610W        W60595   5.184  23.108  14.144
95611W        W60596   4.223  34.944  12.077
95612W        W60597  39.110  31.101  13.106
95613W        W60598  30.719  37.166  11.222
95614W        W60599  10.412  23.451  12.176
95615W        W60600   1.312  29.521   3.706
95616W        W60601  16.440   9.338   3.894
95617W        W60602   0.876  40.060  12.996
95618W        W60603   5.362  33.375   1.620
95619W        W60604  39.149   0.504  14.453
95620W        W60605  17.142  41.591  12.591
95621W        W60606   9.853   5.357   0.285
95622W        W60607  44.503  35.385   2.417
95623W        W60608  10.384  23.904   4.187
95624W        W60609  16.535  29.109   1.253
95625W        W60610   4.784  16.175   2.702
95626W        W60611  12.658  13.445  11.125
95627W        W60612   6.491  41.931  11.526
95628W        W60613  30.419  36.488   3.207
95629W        W60614  21.251   6.212  11.524
95630W        W60615  34.400  27.488   1.918
95631W        W60616  44.548  22.755  13.992
95632W        W60617   9.772   8.681  12.475
95633W        W60618  33.670  42.419   3.350
95634W        W60619  44.437  10.592   3.317
95635W        W60620  12.287  37.765  11.238
95636W        W60621   4.366   7.270  11.982
95637W        W60622  36.910  20.435   0.178
95638W        W60623  28.312  33.442   1.894
95639W        W60624  38.579  26.683   1.617
95640W        W60625  24.894  29.789   0.541
95641W        W60626  30.208   3.748  13.032
95642W        W60627  22.475   3.960   0.277
95643W        W60628  42.928  13.327   4.878
95644W        W60629  43.807  28.707  12.455
95645W        W60630  29.882   8.010   3.757
95646W        W60631  22.582  24.165  11.140
95647W        W60632  39.115  35.277  13.422
95648W        W60633   6.726  39.143   0.470
95649W        W60634   5.950   4.868  13.345
95650W        W60635  14.476  22.673   4.570
95651W        W60636   1.033  34.171  13.280
95652W        W60637  18.194  37.505   3.536
95653W        W60638  21.746  41.427  10.687
95654W        W60639   0.358   9.269   3.783
95655W        W60640  31.074  44.792   2.319
95656W        W60641  34.494  19.178   0.912
95657W        W60642  35.105  21.112  14.781
95658W        W60643   9.205  22.147  12.757
95659W        W60644  30.449  13.754   4.666
95660W        W60645  23.747  28.466  12.998
95661W        W60646   8.216  15.096  14.043
95662W        W60647  19.663  19.549  14.089
95663W        W60648  14.644   8.810  14.839
95664W        W60649  20.152   9.671  13.927
95665W        W60650  18.673  24.624  11.569
95666W        W60651  29.435  14.499  12.427
95667W        W60652  29.382   2.553   0.431
95668W        W60653  26.621  19.530   3.822
95669W        W60654  40.230  25.225   0.623
95670W        W60655  26.559   6.785   3.035
95671W        W60656   3.222  12.036   4.619
95672W        W60657  17.891  12.137   2.931
95673W        W60658  32.691  10.130   2.684
95674W        W60659   4.824   8.431   0.011
95675W        W60660  12.841   0.797   3.164
95676W        W60661  38.910  44.725   4.271
95677W        W60662   8.892  10.409   5.045
95678W        W60663  37.018  21.212  14.528
95679W        W60664  28.982  22.183  11.981
95680W        W60665   2.277  24.937   4.773
95681W        W60666  40.752  16.231   0.022
95682W        W60667  44.277  27.125   4.013
95683W        W60668  38.830  38.852  14.984
95684W        W60669   7.321   1.723   0.802
95685W        W60670  43.842  23.070  13.418
95686W        W60671   8.444  14.822   3.439
95687W        W60672  24.180  30.555  13.289
95688W        W60673  44.743  34.423  14.312
95689W        W60674  13.339  33.454   2.284
95690W        W60675   3.632  13.763   2.258
95691W        W60676  15.520  42.788  12.262
95692W        W60677  30.015  29.223  12.683
95693W        W60678  30.588  11.889   3.322
95694W        W60679  14.321  12.082   4.257
95695W        W60680  30.106  40.261   3.575
95696W        W60681  12.166  34.757  14.923
95697W        W60682  44.948  35.981  11.580
95698W        W60683  22.093  37.111  12.037
95699W        W60684  22.497  26.429  11.039
95700W        W60685  44.425   3.349   4.609
95701W        W60686  25.926  33.796   1.591
95702W        W60687  21.561  11.456  12.021
95703W        W60688  30.723   0.305  14.035
95704W        W60689  15.746  14.088   0.876
95705W        W60690  34.536   4.230  14.745
95706W        W60691   8.574  17.301   5.281
95707W        W60692  18.288  14.100  14.264
95708W        W60693  16.755   5.758   1.707
95709W        W60694  42.998  21.995   1.246
95710W        W60695  18.607  43.747   4.159
95711W        W60696  21.480  32.534  13.944
95712W        W60697  16.004  33.596   0.222
95713W        W60698  12.233   9.637  12.406
95714W        W60699  16.119  30.602  13.875
95715W        W60700  21.673  36.899  12.917
95716W        W60701  38.422  28.702   3.649
95717W        W60702  17.561  28.958  12.930
95718W        W60703  37.608  39.006   2.813
95719W        W60704  35.159   5.515  14.460
95720W        W60705  42.463  24.199  13.046
95721W        W60706  13.372  26.807  11.039
95722W        W60707  26.669  39.534   4.552
95723W        W60708  30.364  41.799  11.206
95724W        W60709   6.826  34.879  14.193
95725W        W60710   3.911  17.800   1.784
95726W        W60711  43.158  40.268  10.823
95727W        W60712  27.112  17.558   4.240
95728W        W60713   7.272  19.088  14.283
95729W        W60714  32.447  16.100   2.313
95730W        W60715  13.343   9.453  11.736
95731W        W60716  35.931  16.813  11.986
95732W        W60717   7.756  38.589  13.548
95733W        W60718  41.981  15.552   4.607
95734W        W60719   9.529  37.932   3.829
95735W        W60720  36.042  16.450  14.480
95736W        W60721  24.966  35.571   2.442
95737W        W60722  40.033  13.166   4.165
95738W        W60723  43.702  27.662  11.950
95739W        W60724   3.890   7.121   3.007
95740W        W60725   1.430   3.149  14.923
95741W        W60726  10.191  26.145  13.162
95742W        W60727  32.054  44.202  14.275
95743W        W60728  28.427  34.528   1.324
95744W        W60729  43.300  33.082  12.171
95745W        W60730   0.951  40.797  10.430
95746W        W60731  30.251  19.885   5.092
95747W        W60732  22.119  40.386   2.819
95748W        W60733  10.365   7.958   1.340
95749W        W60734  25.560   8.604   0.264
95750W        W60735  26.717   6.301   4.284
95751W        W60736   5.286   1.254   1.767
95752W        W60737  15.678  12.313   4.676
95753W        W60738  42.509  19.326   0.713
95754W        W60739  43.010   8.577   3.750
95755W        W60740  15.101   7.347   4.653
95756W        W60741  39.564  40.845  14.859
95757W        W60742  15.764  17.511  13.103
95758W        W60743  37.680  38.066   9.530
95759W        W60744  40.701  44.837   0.479
95760W        W60745   4.290  33.361  12.531
95761W        W60746   3.810   3.352   5.078
95762W        W60747  33.979   0.825  13.484
95763W        W60748   8.904  44.833   4.149
95764W        W60749  27.756  15.344  10.565
95765W        W60750  11.302  33.724  14.810
95766W        W60751  39.977  34.240   2.243
95767W        W60752   9.557  26.248   0.060
95768W        W60753  44.324  23.118   0.258
95769W        W60754  17.998  20.946  14.550
95770W        W60755  33.122  36.457  13.386
95771W        W60756  36.511  28.487   3.126
95772W        W60757  30.600  30.011   4.860
95773W        W60758  13.593  29.901  11.648
95774W        W60759  23.502  25.651  12.566
95775W        W60760   5.907  38.431   4.891
95776W        W60761  14.841  40.846  12.297
95777W        W60762  22.233  40.391  13.389
95778W        W60763   1.280   9.707   4.651
95779W        W60764  16.856   2.887  13.860
95780W        W60765  12.206  16.301   1.520
95781W        W60766   0.130  44.671  14.564
95782W        W60767   5.232  24.421   0.224
95783W        W60768   7.762  44.904  10.870
95784W        W60769  43.258  20.054   4.388
95785W        W60770  17.238   7.663   3.221
95786W        W60771  42.061  33.208  10.705
95787W        W60772  25.181  12.914   1.893
95788W        W60773  33.643  30.042   3.820
95789W        W60774  40.948  21.512   4.760
95790W        W60775  20.062   0.810   0.030
95791W        W60776  30.942  17.763  12.065
95792W        W60777  41.984  17.384  11.047
95793W        W60778  41.841  28.058   4.968
95794W        W60779   7.709  17.507  13.015
95795W        W60780  36.417  25.619  13.346
95796W        W60781  12.422  27.688   4.005
95797W        W60782  28.087  25.838  11.497
95798W        W60783  29.352  40.557  11.639
95799W        W60784  13.622  26.653  14.052
95800W        W60785  27.936  13.780   4.951
95801W        W60786  20.155   4.616  13.888
95802W        W60787  18.230  44.490   3.316
95803W        W60788   7.408  13.410  12.418
95804W        W60789  29.543   6.865  14.469
95805W        W60790  26.655  33.328  14.029
95806W        W60791   6.666  18.225  12.555
95807W        W60792  34.237   0.764   4.107
95808W        W60793   0.522  38.268  13.643
95809W        W60794   8.855  15.309  14.754
95810W        W60795  14.325  24.557  12.123
95811W        W60796  43.696   1.521  11.084
95812W        W60797  10.644  21.211   4.775
95813W        W60798  16.118  10.565   3.669
95814W        W60799  16.326  22.480  14.433
95815W        W60800  19.580  17.605   3.192
95816W        W60801  17.178  29.269   0.443
95817W        W60802   6.213  35.146  12.956
95818W        W60803  24.047   1.189  10.755
95819W        W60804   9.923  28.746  11.151
95820W        W60805  19.268  18.087   4.046
95821W        W60806  25.539   2.999   0.318
95822W        W60807  41.453  43.032  12.877
95823W        W60808  12.213  37.615   3.323
95824W        W60809   0.437  32.571  10.610
95825W        W60810   7.218  39.571  11.670
95826W        W60811   0.385  16.758   3.784
95827W        W60812  10.948  33.437   0.705
95828W        W60813  28.961  41.398  14.794
95829W        W60814  18.910  18.198  14.733
95830W        W60815  34.894  28.511   1.788
95831W        W60816  38.484  11.029   0.768
95832W        W60817  23.474  26.936  12.459
95833W        W60818  32.371  11.254   3.118
95834W        W60819  26.475  26.091  11.396
95835W        W60820  13.055  13.576   2.857
95836W        W60821  37.577  21.652   4.197
95837W        W60822  44.892  14.520  13.928
95838W        W60823   5.352   2.389  12.812
95839W        W60824  22.436  42.412   0.773
95840W        W60825  41.509   5.804   3.141
95841W        W60826   2.747  31.366   1.717
95842W        W60827   9.044  28.168  10.210
95843W        W60828  18.199   9.848   2.647
95844W        W60829  36.360  31.178  11.567
95845W        W60830  40.377  32.639   1.846
95846W        W60831  39.006  27.612  13.876
95847W        W60832  34.100  26.559   2.244
95848W        W60833  44.734  30.476   5.096
95849W        W60834  24.574  41.340  14.996
95850W        W60835  24.655   5.990   1.855
95851W        W60836  17.770   8.789  11.948
95852W        W60837  38.036  11.879  11.165
95853W        W60838  15.862  43.413   4.358
95854W        W60839   1.371  18.023  11.591
95855W        W60840  24.491  36.564   4.478
95856W        W60841  40.448  27.981  11.928
95857W        W60842  13.244  23.569   3.574
95858W        W60843  43.097   5.153   1.829
95859W        W60844  24.201   8.093   4.892
95860W        W60845  32.050   1.062   1.086
95861W        W60846  35.047   4.407  13.027
95862W        W60847  15.865  12.632  14.018
95863W        W60848   5.777  26.250   0.320
95864W        W60849  44.416   6.091   2.092
95865W        W60850  31.952   4.973   4.175
95866W        W60851  32.635  43.182   2.098
95867W        W60852  42.489  27.101   3.281
95868W        W60853  38.316  27.768   3.660
95869W        W60854   6.367  15.905  11.490
95870W        W60855  26.128  15.683  14.809
95871W        W60856  33.770  29.755  13.423
95872W        W60857  22.584  31.607   0.827
95873W        W60858  18.163  17.096   1.365
95874W        W60859  28.546  33.652  11.220
95875W        W60860   5.873   1.902  14.171
95876W        W60861  20.020  14.589   1.501
95877W        W60862  17.669  35.092  13.803
95878W        W60863  28.361  44.674  12.397
95879W        W60864  11.770  17.785   2.605
95880W        W60865   0.547  43.156   1.427
95881W        W60866  23.552   5.627  13.474
95882W        W60867  22.597  32.418  13.043
95883W        W60868  20.540  15.865  11.614
95884W        W60869   6.256  43.958  14.009
95885W        W60870  23.447  28.112   1.676
95886W        W60871  29.665  27.471   3.101
95887W        W60872  19.480  31.141  14.394
95888W        W60873  23.470  11.219   4.469
95889W        W60874  25.962  40.375  13.544
95890W        W60875  28.616  22.618   1.641
95891W        W60876   9.138  28.024  14.017
95892W        W60877  12.099  19.165   3.104
95893W        W60878  34.384  27.595  12.742
95894W        W60879  16.659  13.235   3.860
95895W        W60880   7.313  20.822   3.663
95896W        W60881   9.490   4.473  14.430
95897W        W60882  18.859  28.147   4.602
95898W        W60883  43.739  42.250  10.748
95899W        W60884  10.790  35.885   5.151
95900W        W60885   1.664   7.950  12.476
95901W        W60886  21.058  34.758  12.153
95902W        W60887  33.982  20.374  12.592
95903W        W60888  11.675  39.027  11.386
95904W        W60889  40.414  15.348   1.948
95905W        W60890   4.945  22.072  12.178
95906W        W60891   1.405   7.518  12.472
95907W        W60892  28.897  43.061  10.205
95908W        W60893  29.038  24.695   4.538
95909W        W60894  18.835  27.830  10.195
95910W        W60895   9.637  41.993   1.760
95911W        W60896  15.769  32.952   2.549
95912W        W60897  28.076  23.477  11.415
95913W        W60898   2.743  27.010   1.312
95914W        W60899  43.226  16.195   0.354
95915W        W60900   7.748  28.741   1.756
95916W        W60901  23.122  14.008  11.929
95917W        W60902  27.999  32.534   1.031
95918W        W60903  20.465  21.271  12.672
95919W        W60904   9.765  18.042   0.276
95920W        W60905  29.143  20.798   1.819
95921W        W60906  44.041  35.943   3.194
95922W        W60907  23.294  15.532  14.975
95923W        W60908  17.684  18.573  13.521
95924W        W60909   5.856  41.419  13.822
95925W        W60910   8.160   0.869   4.520
95926W        W60911  34.817  35.514  14.736
95927W        W60912  31.924  44.536   1.679
95928W        W60913  41.091   4.358   4.477
95929W        W60914  33.018  21.494  13.245
95930W        W60915  22.726  30.952   3.074
95931W        W60916   6.042   0.592   1.454
95932W        W60917  11.196   7.654   4.183
95933W        W60918  38.053  44.442  14.527
95934W        W60919  44.992  21.555  11.565
95935W        W60920  41.694  33.395  14.296
95936W        W60921  20.756  20.947   1.382
95937W        W60922   3.316   7.337   0.274
95938W        W60923  20.691  22.159  10.263
95939W        W60924  17.250  36.623   4.484
95940W        W60925   3.387   4.722  12.643
95941W        W60926  11.618   4.911   0.248
95942W        W60927  44.382  24.370   1.843
95943W        W60928  24.339   5.742  11.990
95944W        W60929  35.310  31.009  14.402
95945W        W60930  33.782  38.572   1.735
95946W        W60931  11.394  22.141   4.585
95947W        W60932   5.831  25.826   3.169
95948W        W60933  30.866  22.694   2.712
95949W        W60934  42.957  39.353  12.099
95950W        W60935  12.206   0.890  12.871
95951W        W60936  10.614   9.431   2.233
95952W        W60937  43.445  14.194   2.287
95953W        W60938   7.342  16.769   4.741
95954W        W60939  14.823  25.289  14.017
95955W        W60940  10.400  16.553  11.669
95956W        W60941  23.601  32.294  12.421
95957W        W60942   6.260  38.615   0.770
95958W        W60943   4.225  26.762  12.666
95959W        W60944   0.424  31.675  11.726
95960W        W60945  14.529  17.175   2.191
95961W        W60946  23.029  18.140  11.513
95962W        W60947  31.256  42.975   1.282
95963W        W60948  17.702  16.785   0.253
95964W        W60949  15.827  21.110   4.092
95965W        W60950  31.989  40.365   1.482
95966W        W60951  36.381  29.955  11.646
95967W        W60952  43.659  36.969   4.553
95968W        W60953  23.216  18.702   3.661
95969W        W60954   4.082  27.005   1.887
95970W        W60955  17.997  17.134   2.854
95971W        W60956  31.922   4.535   4.991
95972W        W60957  42.752  33.536   0.848
95973W        W60958  25.297  43.030  11.559
95974W        W60959  34.616  37.641  14.814
95975W        W60960   2.242  25.554   2.967
95976W        W60961  43.004  11.387   4.066
95977W        W60962  38.190  14.516  11.868
95978W        W60963  18.691   7.085   4.017
95979W        W60964  15.027  23.555   3.298
95980W        W60965  19.213  29.528  12.317
95981W        W60966  36.992   1.799   0.215
95982W        W60967  22.948   2.291   0.714
95983W        W60968  37.407   8.336   2.331
95984W        W60969   5.701  21.993   2.172
95985W        W60970   8.846  29.588  14.393
95986W        W60971  16.141  43.278  11.217
95987W        W60972  24.989  21.765  11.682
95988W        W60973  41.415  36.546  14.451
95989W        W60974  17.338  40.082   4.093
95990W        W60975   7.759  18.539  12.998
95991W        W60976  34.892   0.175  10.780
95992W        W60977  17.483  40.377  13.117
95993W        W60978  38.820  41.321   2.670
95994W        W60979   3.091  13.111  13.822
95995W        W60980  42.352   7.746   4.659
95996W        W60981  40.388  21.331   4.093
95997W        W60982  27.183  23.555   0.342
95998W        W60983   4.795  43.565  11.262
95999W        W60984  20.611  21.723   3.823
96000W        W60985  11.888  14.153  12.324
96001W        W60986   4.910  30.430   3.108
96002W        W60987  36.939  26.187  13.329
96003W        W60988  10.769  43.032   1.418
96004W        W60989  44.902  44.938   4.459
96005W        W60990  12.974  36.099   2.767
96006W        W60991  27.235   5.448   1.200
96007W        W60992  28.211  41.735   2.796
96008W        W60993  23.160  29.752   1.764
96009W        W60994  41.651  42.870  14.181
96010W        W60995   2.210  27.916  13.358
96011W        W60996  33.139  34.915  14.786
96012W        W60997  13.398  38.267  11.554
96013W        W60998  25.071   9.237   0.900
96014W        W60999   3.790  27.086  14.815
96015W        W61000   7.520  29.427   2.159
96016W        W61001  19.653  37.981   1.299
96017W        W61002  43.162  40.894   2.912
96018W        W61003  37.893  19.524   4.516
96019W        W61004  17.463  20.027   1.746
96020W        W61005  24.345  35.023   1.280
96021W        W61006  10.288  44.241  10.363
96022W        W61007  42.663   6.319  12.219
96023W        W61008   0.314  23.197  12.336
96024W        W61009  28.138  15.185  11.932
96025W        W61010  19.713   0.286   3.980
96026W        W61011  38.879   7.887   3.329
96027W        W61012  28.220  28.510  11.569
96028W        W61013  22.095  33.468  12.463
96029W        W61014  18.026  17.591   2.152
96030W        W61015  10.859  34.075  14.791
96031W        W61016  21.390  21.543   9.536
96032W        W61017  14.391  11.553  12.487
96033W        W61018  20.533  16.930  12.516
96034W        W61019   5.708   6.885  13.492
96035W        W61020  31.403  38.837  13.555
96036W        W61021  16.907  36.934  13.440
96037W        W61022  26.231  35.156  10.207
96038W        W61023  41.494  15.843  14.882
96039W        W61024  38.124  11.806   4.070
96040W        W61025  20.535  38.466  11.200
96041W        W61026  32.489  18.834   1.661
96042W        W61027   0.883  36.539  13.374
96043W        W61028  10.150  26.146   1.699
96044W        W61029   1.127  14.701  13.362
96045W        W61030  41.932   1.219   4.622
96046W        W61031  25.368  25.127   0.908
96047W        W61032  32.426   8.536  14.097
96048W        W61033  41.016  15.686  13.370
96049W        W61034  34.880   2.441  14.467
96050W        W61035  38.940  37.826   0.830
96051W        W61036  40.577   1.127   1.241
96052W        W61037  32.990   9.390   1.911
96053W        W61038  23.252  25.149   2.446
96054W        W61039  44.270  10.091  11.731
96055W        W61040  13.691  34.948  11.129
96056W        W61041  34.937  38.868   0.358
96057W        W61042   2.309  43.874  11.996
96058W        W61043  28.468  29.570   1.867
96059W        W61044  13.845  13.297  14.430
96060W        W61045  10.827  43.659   4.783
96061W        W61046  10.317  22.282   4.066
96062W        W61047  13.555  28.978   2.327
96063W        W61048  39.548   2.611  10.536
96064W        W61049  10.771   5.265   2.296
96065W        W61050  28.442   7.336   0.159
96066W        W61051   9.459  28.464  13.860
96067W        W61052  10.082  35.403  11.568
96068W        W61053   6.187  26.151  10.830
96069W        W61054  20.067  37.438   4.300
96070W        W61055  20.294  35.588  12.537
96071W        W61056   9.256  16.386  13.331
96072W        W61057   9.756  26.217  14.561
96073W        W61058  34.334  38.504  13.133
96074W        W61059  14.209  33.784  12.124
96075W        W61060  15.747  35.917   2.739
96076W        W61061  19.883  40.064   3.329
96077W        W61062  35.673   4.991   2.328
96078W        W61063  42.101   1.928   0.507
96079W        W61064  41.070  33.586   4.499
96080W        W61065  16.625  42.009  14.739
96081W        W61066  26.255   5.480   4.661
96082W        W61067  34.682  22.223   4.567
96083W        W61068   9.449   8.353   1.482
96084W        W61069  25.026  24.549  12.536
96085W        W61070   8.228  28.013  13.184
96086W        W61071  24.575  29.064   0.950
96087W        W61072  10.746  18.158  13.282
96088W        W61073  35.999  35.856   2.240
96089W        W61074  29.132  31.111  11.009
96090W        W61075  31.913   2.952  10.692
96091W        W61076  21.737  11.720  10.322
96092W        W61077  44.298   6.840   3.211
96093W        W61078  24.609  25.249   3.996
96094W        W61079  35.865  32.840   4.736
96095W        W61080  18.825   0.783   0.459
96096W        W61081  29.513  13.314  14.732
96097W        W61082  12.882  19.282   0.024
96098W        W61083  30.952   4.072   4.468
96099W        W61084  14.553  44.859   0.741
96100W        W61085  16.539  16.347  14.872
96101W        W61086   3.732  40.454   1.294
96102W        W61087  19.706  10.990   4.483
96103W        W61088  38.512  40.020   3.041
96104W        W61089  19.294  37.665   3.859
96105W        W61090  20.679  18.452  12.019
96106W        W61091  10.169  20.111  10.040
96107W        W61092   9.925   7.347   4.600
96108W        W61093  37.364  39.954   2.403
96109W        W61094  24.686  42.868  14.027
96110W        W61095   9.970   5.346  10.804
96111W        W61096  14.402  28.167   0.911
96112W        W61097   9.825  28.926  14.804
96113W        W61098  44.833  41.400  11.652
96114W        W61099  37.480   4.376   3.325
96115W        W61100  27.161  15.352   2.332
96116W        W61101  30.930  44.829  14.267
96117W        W61102   4.785  28.102  11.604
96118W        W61103  43.039  28.921  11.989
96119W        W61104  39.512  16.691   4.522
96120W        W61105  44.368  30.562   3.314
96121W        W61106  23.998  41.456   5.073
96122W        W61107  16.890  40.602   1.328
96123W        W61108  12.573  37.140  11.205
96124W        W61109  21.237  37.127   1.196
96125W        W61110  14.204  44.762  14.858
96126W        W61111  42.386  17.123  11.520
96127W        W61112  25.375  29.600   0.352
96128W        W61113  23.042  23.463  12.056
96129W        W61114  34.989  37.629   0.650
96130W        W61115  32.591  12.262   4.700
96131W        W61116  40.980  36.834  10.643
96132W        W61117  18.865  25.703   0.337
96133W        W61118   0.264  27.577   1.954
96134W        W61119  40.977  23.650   1.947
96135W        W61120  37.499   2.284   1.654
96136W        W61121  18.741   3.838  12.020
96137W        W61122  27.561  25.109   5.153
96138W        W61123  22.097   0.134  14.799
96139W        W61124  34.377  14.879  14.768
96140W        W61125  42.284  37.706   5.286
96141W        W61126  41.705  24.047   2.061
96142W        W61127  26.474  13.927  12.067
96143W        W61128   5.319   9.866   4.890
96144W        W61129  20.303  28.072  12.619
96145W        W61130   2.839  35.503  13.079
96146W        W61131  32.084   1.384  10.684
96147W        W61132  27.065  29.172   4.917
96148W        W61133  38.352  24.743  14.865
96149W        W61134  29.696  31.006  13.329
96150W        W61135  40.233   5.876   1.287
96151W        W61136  41.382  17.986   0.895
96152W        W61137   1.465  10.918   3.980
96153W        W61138  37.904   1.171  11.576
96154W        W61139  25.464  20.664  10.753
96155W        W61140  23.758  43.989   1.463
96156W        W61141  28.519  35.545  12.422
96157W        W61142   1.926  21.774   1.598
96158W        W61143  17.845   8.402  11.598
96159W        W61144  13.537  44.460  12.402
96160W        W61145   0.367  23.231   4.504
96161W        W61146   0.602  35.688  13.971
96162W        W61147  10.763  22.071   0.944
96163W        W61148  19.220  13.371  11.941
96164W        W61149  39.892  44.242  13.912
96165W        W61150   5.198  24.513  12.033
96166W        W61151   0.481   8.188  13.814
96167W        W61152  36.019  41.751  11.140
96168W        W61153  22.609  39.159   2.775
96169W        W61154  29.659  19.745   4.564
96170W        W61155  36.410  43.860   3.232
96171W        W61156  15.028  10.975   4.581
96172W        W61157  30.839  26.030   2.724
96173W        W61158  29.491  13.861  10.915
96174W        W61159  32.342  39.066   2.781
96175W        W61160   7.676  11.463   3.759
96176W        W61161   2.879   5.854  13.894
96177W        W61162  25.015  39.521  11.884
96178W        W61163  17.318  23.919   2.587
96179W        W61164  35.284  24.498   3.894
96180W        W61165  30.014  18.151   0.340
96181W        W61166  23.679  20.288  10.690
96182W        W61167  36.443  28.024   2.827
96183W        W61168  41.026   2.443  14.422
96184W        W61169   2.282  22.921  14.584
96185W        W61170   5.833  36.010   2.419
96186W        W61171  11.091   9.836   2.811
96187W        W61172   3.976  10.275  13.826
96188W        W61173   8.821  10.905   2.010
96189W        W61174   0.554  22.577  14.748
96190W        W61175  34.478  44.399  11.066
96191W        W61176  34.872  16.103   1.747
96192W        W61177  36.855  31.667   4.148
96193W        W61178  11.349  32.291   0.095
96194W        W61179  34.943   2.296   0.290
96195W        W61180  11.753  21.059   4.105
96196W        W61181  11.636   0.787   0.769
96197W        W61182  22.072  31.530   2.588
96198W        W61183   1.887  33.411   0.384
96199W        W61184  18.502  13.221   3.868
96200W        W61185  29.475  16.873  11.612
96201W        W61186   1.453  23.501  12.474
96202W        W61187   7.317  12.903  11.548
96203W        W61188   8.627  44.842   0.828
96204W        W61189   2.638  26.120  14.033
96205W        W61190  29.590  32.339  11.121
96206W        W61191  27.658  44.497  14.546
96207W        W61192  41.606  11.683   1.450
96208W        W61193  27.642  37.386   1.876
96209W        W61194  24.701   6.219  11.128
96210W        W61195  28.476  17.231   1.808
96211W        W61196  26.920  13.105  11.956
96212W        W61197   9.994  20.537   3.757
96213W        W61198   7.885   8.212   3.776
96214W        W61199  15.597   4.868   1.285
96215W        W61200  34.573   6.914  10.073
96216W        W61201   6.258  34.101  10.169
96217W        W61202  28.456   8.686   1.339
96218W        W61203  42.787  38.225  11.593
96219W        W61204   8.310  30.749  13.979
96220W        W61205  36.038   0.211  10.829
96221W        W61206  33.372  42.527   1.521
96222W        W61207  17.080  12.416   3.382
96223W        W61208  20.028  18.192  12.492
96224W        W61209   6.469  29.040  13.355
96225W        W61210  27.474  37.493  12.735
96226W        W61211   1.473   7.231   2.910
96227W        W61212  31.461   1.036  13.508
96228W        W61213  31.027  32.104  12.197
96229W        W61214  15.666  18.320   0.251
96230W        W61215  43.857   7.405  13.333
96231W        W61216  37.915  42.345   3.369
96232W        W61217  20.239  42.914   4.887
96233W        W61218  43.161  37.507  10.997
96234W        W61219  13.247  14.638   1.349
96235W        W61220  38.082   4.688   0.390
96236W        W61221  17.069  27.965   3.457
96237W        W61222   3.423  25.452   4.561
96238W        W61223  11.219  12.591   4.740
96239W        W61224  22.092  22.572   0.668
96240W        W61225  16.795  12.268   3.820
96241W        W61226  15.323  30.080  13.920
96242W        W61227   5.280  25.012  13.367
96243W        W61228  17.539   2.500  10.733
96244W        W61229  34.812  20.777  12.996
96245W        W61230  14.053  32.616  10.912
96246W        W61231   8.345  39.419  11.614
96247W        W61232  35.050  33.952   3.789
96248W        W61233  20.232   0.775   2.167
96249W        W61234  32.797   6.654   2.464
96250W        W61235  20.138  19.665  11.935
96251W        W61236  31.350  30.057   4.171
96252W        W61237  33.333  23.472  11.723
96253W        W61238   1.757   1.287  12.054
96254W        W61239  40.115   3.211  14.722
96255W        W61240  39.768  36.811  11.105
96256W        W61241  26.932  20.143   0.465
96257W        W61242  13.689   2.286  10.556
96258W        W61243  32.422  40.278  12.093
96259W        W61244  19.587  37.683   4.284
96260W        W61245  23.910  33.073  12.624
96261W        W61246  24.114   4.874  12.249
96262W        W61247  42.510  41.249  14.038
96263W        W61248   9.119  24.943  14.816
96264W        W61249   3.260  20.212  14.986
96265W        W61250  44.290  31.904  12.771
96266W        W61251   6.942  11.489   0.045
96267W        W61252  12.753  39.868   4.501
96268W        W61253  14.006  26.675   4.823
96269W        W61254  40.051  14.130   2.829
96270W        W61255   5.684  44.002  14.867
96271W        W61256  27.628   2.340  13.599
96272W        W61257  35.433  36.931  13.035
96273W        W61258   8.323  43.980   4.414
96274W        W61259  27.538  44.696   2.854
96275W        W61260  12.742  18.657  11.215
96276W        W61261   0.038  25.430  11.316
96277W        W61262   7.300  38.162  14.777
96278W        W61263  22.403   7.783   4.593
96279W        W61264  26.472  29.059  14.845
96280W        W61265  28.493  42.801  11.014
96281W        W61266   3.332  34.281   3.882
96282W        W61267   9.880  31.230  11.136
96283W        W61268  43.443   4.376   0.645
96284W        W61269  28.927  41.487  11.892
96285W        W61270  17.361  19.653   2.830
96286W        W61271  28.623   0.940   0.319
96287W        W61272  17.312  25.129  12.480
96288W        W61273   8.450  10.129   1.436
96289W        W61274  19.944  26.639   2.860
96290W        W61275  13.533  12.853  14.442
96291W        W61276  20.808  43.096  13.606
96292W        W61277   6.698  37.121  14.009
96293W        W61278  40.997  17.312   0.635
96294W        W61279   8.931  42.784   3.710
96295W        W61280   8.671  29.624  13.456
96296W        W61281  23.755  37.235   2.914
96297W        W61282  22.273   8.950  13.052
96298W        W61283  34.387  13.731   1.131
96299W        W61284  40.094  36.313  14.815
96300W        W61285  26.667   6.754  13.617
96301W        W61286  23.214   5.294  13.221
96302W        W61287  43.019   6.434   2.318
96303W        W61288  42.865  20.670  11.865
96304W        W61289  33.560   2.673  14.376
96305W        W61290  32.404  30.987   4.975
96306W        W61291   4.332   6.623   4.692
96307W        W61292  15.746   0.353   0.605
96308W        W61293  15.358  38.999  12.442
96309W        W61294  15.872  12.803   2.653
96310W        W61295  24.100   1.253   5.063
96311W        W61296  25.953  41.725  10.996
96312W        W61297  25.057  40.863   2.291
96313W        W61298  25.100  38.043  11.625
96314W        W61299   8.189  20.476  11.093
96315W        W61300  42.793   6.614  11.836
96316W        W61301  40.211  24.393  10.358
96317W        W61302  43.798  36.430   4.481
96318W        W61303  11.845   4.374   2.213
96319W        W61304   4.392  19.567   1.727
96320W        W61305  41.284  42.348   1.472
96321W        W61306  26.927  23.300  14.735
96322W        W61307  27.624  13.755   4.536
96323W        W61308  17.712  21.801   1.914
96324W        W61309  24.722   7.445  14.178
96325W        W61310  31.740   8.663   1.388
96326W        W61311   7.222  14.368  14.940
96327W        W61312  34.809   2.045   2.315
96328W        W61313  20.955  15.571  14.393
96329W        W61314  15.790  31.840   2.307
96330W        W61315  24.303  11.345  14.295
96331W        W61316  33.749  11.156  14.776
96332W        W61317  43.470  39.429  12.852
96333W        W61318  44.249   6.647  13.460
96334W        W61319   7.099  16.168  11.092
96335W        W61320  40.034  20.612  13.641
96336W        W61321  33.866  43.497   0.357
96337W        W61322   8.195   1.716  12.703
96338W        W61323  33.485  29.431   0.680
96339W        W61324  14.705  41.304  14.486
96340W        W61325  24.097  44.168  14.759
96341W        W61326  24.533  44.477   1.543
96342W        W61327  39.553  44.983  14.331
96343W        W61328  39.376  27.580  14.901
96344W        W61329  16.219  32.108   3.717
96345W        W61330  34.432   1.361   3.055
96346W        W61331  24.904  20.382  13.520
96347W        W61332  44.140  30.209   9.952
96348W        W61333  27.093  22.471  13.454
96349W        W61334  42.728   9.678  14.467
96350W        W61335  31.135  43.060   2.195
96351W        W61336  17.502  41.954  12.604
96352W        W61337  34.386  40.532   1.254
96353W        W61338  24.175  36.795   1.817
96354W        W61339   9.268  41.620  13.998
96355W        W61340  19.034  23.988  11.088
96356W        W61341  12.228   9.026  12.866
96357W        W61342  29.385  23.497  10.354
96358W        W61343   9.950  20.030  14.816
96359W        W61344  13.624  25.500  15.000
96360W        W61345  27.931  31.167  13.894
96361W        W61346  17.159  32.668  11.041
96362W        W61347  22.668  39.349   0.525
96363W        W61348  16.012  20.271  12.645
96364W        W61349  11.171  15.618  10.485
96365W        W61350  41.634  32.559   4.240
96366W        W61351  18.781  26.645  14.336
96367W        W61352  35.457  33.080  13.415
96368W        W61353  25.269  30.008   0.024
96369W        W61354  34.946  40.387   4.499
96370W        W61355  43.799   2.276   4.287
96371W        W61356  19.012  42.039  11.574
96372W        W61357  31.444  11.739   2.820
96373W        W61358  13.689  43.821   1.316
96374W        W61359  34.804   2.146   3.995
96375W        W61360  20.046  11.149  10.957
96376W        W61361  38.992  33.055   3.715
96377W        W61362  36.616  40.026   4.686
96378W        W61363  31.954  11.574  14.839
96379W        W61364  32.371  40.875  13.438
96380W        W61365  35.807  15.584   1.393
96381W        W61366  31.109  35.957  14.778
96382W        W61367  14.457  14.785  12.161
96383W        W61368  33.468  18.525  10.274
96384W        W61369  22.630   3.179   3.635
96385W        W61370  38.386  14.611  14.008
96386W        W61371  27.171  15.046  13.452
96387W        W61372  23.733  35.640   3.172
96388W        W61373  18.700  30.722  10.647
96389W        W61374  10.084  11.822  12.397
96390W        W61375  39.889  44.301  12.070
96391W        W61376  19.160  34.981   4.574
96392W        W61377  28.970   0.401   1.939
96393W        W61378  21.310   8.609  10.449
96394W        W61379  34.102   6.605  14.113
96395W        W61380  41.796   0.228  13.009
96396W        W61381  23.753   5.418  10.913
96397W        W61382  32.188  35.009   2.725
96398W        W61383  14.062  24.506  11.689
96399W        W61384  40.046  11.217   4.203
96400W        W61385  31.872  16.042  13.919
96401W        W61386  12.371  28.457  13.483
96402W        W61387  42.626  20.216  13.846
96403W        W61388   0.935  42.878   0.067
96404W        W61389  43.493   6.735  12.362
96405W        W61390  30.512   5.923  14.488
96406W        W61391  19.247  43.758  12.218
96407W        W61392   2.043  27.159  13.084
96408W        W61393   2.335  39.242   0.353
96409W        W61394   4.436  28.629   3.241
96410W        W61395  38.999  13.363  11.133
96411W        W61396  31.658  20.183  12.394
96412W        W61397   6.267  29.586   3.964
96413W        W61398  37.501  41.511  12.034
96414W        W61399   0.761  18.021   4.112
96415W        W61400  13.133  14.522  13.879
96416W        W61401  42.945  27.614  13.574
96417W        W61402  29.490  11.815   1.121
96418W        W61403   6.175  28.924  14.233
96419W        W61404  40.066   2.307  13.424
96420W        W61405  18.500   1.663  10.301
96421W        W61406   6.951   9.656  13.352
96422W        W61407  35.044  38.807   2.726
96423W        W61408  28.318  41.546   4.428
96424W        W61409   6.944  25.562   2.539
96425W        W61410  42.776   3.493   1.387
96426W        W61411   4.367  14.187  13.592
96427W        W61412  20.397   1.072  11.670
96428W        W61413  28.499  20.315  11.165
96429W        W61414  26.043  11.211   3.697
96430W        W61415  22.157  13.141  13.516
96431W        W61416  12.868  39.312  13.502
96432W        W61417  44.600  32.381  14.040
96433W        W61418  43.864  39.039   4.972
96434W        W61419  16.829   4.663  13.451
96435W        W61420  29.140  36.832   3.262
96436W        W61421   8.313  30.415   2.730
96437W        W61422  27.212  14.218   3.254
96438W        W61423  37.853   1.531   0.381
96439W        W61424  23.045  24.480  13.927
96440W        W61425  27.250  22.072   2.831
96441W        W61426  29.072  30.147   9.759
96442W        W61427  30.864  25.784  11.638
96443W        W61428  15.821  31.554  11.326
96444W        W61429   6.427  24.131   4.512
96445W        W61430   4.955  38.375   3.766
96446W        W61431  34.365  11.532  10.300
96447W        W61432   8.550  20.078   2.976
96448W        W61433  39.506  37.308  11.967
96449W        W61434   9.975  40.633   3.359
96450W        W61435   6.217  30.157   3.096
96451W        W61436  27.390   9.853   0.283
96452W        W61437  17.152  30.001  10.995
96453W        W61438  22.193   3.639   2.200
96454W        W61439  22.437   4.162   1.071
96455W        W61440  16.062   6.446   2.436
96456W        W61441  42.912  36.880   0.017
96457W        W61442  43.770  38.837  13.441
96458W        W61443   3.903  20.638   3.250
96459W        W61444   4.690  29.246   0.972
96460W        W61445  10.128  22.838   4.946
96461W        W61446  26.667  31.097   0.245
96462W        W61447  39.500   6.883   2.333
96463W        W61448   0.873   2.282   0.929
96464W        W61449  40.282  24.544   4.451
96465W        W61450   2.854  10.780  11.277
96466W        W61451  29.670   4.280   4.918
96467W        W61452  27.257  25.819   0.916
96468W        W61453  36.490   6.068   5.389
96469W        W61454  40.734  25.534   2.755
96470W        W61455   4.357  34.015   2.311
96471W        W61456  12.279  44.498   2.857
96472W        W61457  31.969  16.851   3.349
96473W        W61458  42.542   1.957  10.686
96474W        W61459   8.305  28.862  12.688
96475W        W61460  12.020  22.347  11.644
96476W        W61461  36.132   7.490   4.089
96477W        W61462  20.710  13.675   3.624
96478W        W61463  13.794  23.964  12.494
96479W        W61464  21.345  18.197   3.201
96480W        W61465  19.316   0.086   4.255
96481W        W61466   7.647   5.129   1.940
96482W        W61467  36.108  11.737  11.855
96483W        W61468  43.283  30.966  13.458
96484W        W61469  33.895  35.016  13.427
96485W        W61470   6.193   9.308   4.627
96486W        W61471  38.947  40.984   2.250
96487W        W61472  43.276  27.662  14.510
96488W        W61473  19.155  44.489   3.136
96489W        W61474  16.470  18.332  12.089
96490W        W61475   5.802  22.089   4.678
96491W        W61476  44.242  20.366   0.350
96492W        W61477   7.260  44.786  13.793
96493W        W61478  25.198  42.921  13.829
96494W        W61479  30.218   5.690  12.689
96495W        W61480  38.789  14.687   2.502
96496W        W61481  25.952  40.243   2.277
96497W        W61482   6.214  38.481   1.582
96498W        W61483   2.966  27.470   1.520
96499W        W61484  35.715  11.675   2.200
96500W        W61485   0.508  25.010   1.604
96501W        W61486  42.599  30.979  11.049
96502W        W61487  19.555  24.083  11.066
96503W        W61488  18.500  24.215  12.850
96504W        W61489  12.064  35.439   0.446
96505W        W61490  27.004  33.501   3.187
96506W        W61491   8.246  24.518   0.291
96507W        W61492  16.042   2.227   3.236
96508W        W61493  43.994   6.349  13.770
96509W        W61494   8.196  17.331   4.889
96510W        W61495  22.482  15.050   0.272
96511W        W61496  32.976  26.367  12.640
96512W        W61497  22.953  26.640  13.380
96513W        W61498   3.299  31.729  10.508
96514W        W61499  44.380  40.299   4.026
96515W        W61500   4.261  30.780  10.450
96516W        W61501  36.942   4.174  13.031
96517W        W61502  44.878   7.135  12.580
96518W        W61503  27.166  38.345   4.223
96519W        W61504  20.514   2.924  12.979
96520W        W61505   3.407  40.890   4.672
96521W        W61506   8.967  10.860   3.442
96522W        W61507   9.346  41.299  10.209
96523W        W61508  15.766  23.791   4.239
96524W        W61509  39.187  38.153  14.529
96525W        W61510   8.893  25.685  14.569
96526W        W61511   2.596   5.041  11.094
96527W        W61512  25.137  38.501  12.446
96528W        W61513   0.513  22.102   0.017
96529W        W61514  35.896  14.501  11.173
96530W        W61515   1.946  40.058   1.032
96531W        W61516  40.082   1.787   1.850
96532W        W61517  31.137  40.829  13.050
96533W        W61518   9.313   9.396   0.920
96534W        W61519   7.437  12.306  10.745
96535W        W61520   6.396  20.020  14.313
96536W        W61521  44.806   5.140   0.264
96537W        W61522  29.219   9.189   2.894
96538W        W61523   7.265  24.700   3.235
96539W        W61524  16.520   6.443  10.660
96540W        W61525  12.787   8.833   2.205
96541W        W61526  26.052  37.426   3.079
96542W        W61527  38.090   1.663   2.270
96543W        W61528  34.933  14.080  12.117
96544W        W61529   8.458  37.185   2.549
96545W        W61530   6.304  16.734   4.782
96546W        W61531  18.093  26.053  11.915
96547W        W61532  41.859  21.673   3.703
96548W        W61533  29.688   6.697  14.927
96549W        W61534  12.392  38.450   4.610
96550W        W61535  36.392  25.418  10.940
96551W        W61536  33.926  39.894   0.967
96552W        W61537   1.206  38.041  13.112
96553W        W61538  30.450  33.796  13.977
96554W        W61539   0.239  38.027  12.173
96555W        W61540  37.154  17.304  12.897
96556W        W61541  13.876  23.164  13.852
96557W        W61542  11.801  14.413   1.852
96558W        W61543  35.920   0.739  10.806
96559W        W61544  36.546   6.843  10.698
96560W        W61545  11.114  42.908  13.337
96561W        W61546  10.288  26.876  11.163
96562W        W61547  44.044  34.119  11.373
96563W        W61548   6.275  32.505   4.129
96564W        W61549  35.438  10.499  14.998
96565W        W61550   6.380  25.196   3.129
96566W        W61551  39.459   5.367   5.018
96567W        W61552   8.630   0.541  14.317
96568W        W61553  35.604  40.974   0.866
96569W        W61554  36.615  11.736  13.047
96570W        W61555   0.361  18.132  13.064
96571W        W61556  26.625  39.240  12.124
96572W        W61557   3.457  25.131   3.175
96573W        W61558  27.635   4.124   3.745
96574W        W61559  24.270  13.549  11.117
96575W        W61560  10.817  14.718  14.463
96576W        W61561  43.963  12.881  10.568
96577W        W61562  35.335  22.225   1.420
96578W        W61563   5.774  28.602  13.789
96579W        W61564  35.398   5.132  11.945
96580W        W61565  42.084   1.746  14.485
96581W        W61566  26.134  10.994  12.474
96582W        W61567  32.351  39.820  10.813
96583W        W61568  40.936  18.786  12.883
96584W        W61569  14.012  18.199   1.430
96585W        W61570   0.491  24.577  12.153
96586W        W61571  20.259  24.993   2.170
96587W        W61572  10.447  40.892   4.444
96588W        W61573  43.885  41.876   2.260
96589W        W61574  42.935  28.363  14.478
96590W        W61575  12.258   0.027   2.963
96591W        W61576  12.619  30.613  11.247
96592W        W61577  23.218  21.001  10.905
96593W        W61578  13.712  42.578  14.369
96594W        W61579  14.296  24.045   0.413
96595W        W61580  14.816  33.166   0.949
96596W        W61581   0.981   2.238   1.949
96597W        W61582  24.692  30.616  13.135
96598W        W61583  41.122   8.970  13.578
96599W        W61584  25.416  32.481  12.166
96600W        W61585  36.499   9.061   1.702
96601W        W61586  27.533  16.784  10.651
96602W        W61587  20.773  12.347  12.454
96603W        W61588  21.348  42.397  14.905
96604W        W61589  35.886  19.886  12.882
96605W        W61590   4.319  42.726  12.459
96606W        W61591   3.255  23.682  11.211
96607W        W61592   0.522  39.858   4.585
96608W        W61593   7.808  13.765  11.543
96609W        W61594  28.094  34.311  11.195
96610W        W61595   5.395   6.193   1.655
96611W        W61596  36.743  28.099  12.037
96612W        W61597  43.243  24.488   4.677
96613W        W61598  36.645   0.389   3.345
96614W        W61599   1.483   9.634  12.616
96615W        W61600  13.190  30.652   0.804
96616W        W61601   7.564  44.851   3.697
96617W        W61602   3.937  43.353  13.531
96618W        W61603   0.736  38.966  14.741
96619W        W61604   3.043   8.290   4.527
96620W        W61605   5.423  17.626   0.752
96621W        W61606  14.501  12.265   1.075
96622W        W61607  34.978  19.461  11.911
96623W        W61608  34.529  33.480   4.218
96624W        W61609  34.471   9.858  11.655
96625W        W61610  28.058  13.050  12.442
96626W        W61611  33.567   1.777   3.771
96627W        W61612  35.898  28.387   1.741
96628W        W61613  12.502  40.216   2.699
96629W        W61614  41.205   8.618  14.418
96630W        W61615  19.119  38.536   3.968
96631W        W61616  15.138  24.601   0.424
96632W        W61617  29.693  32.640   4.931
96633W        W61618  36.329   9.867   0.851
96634W        W61619  24.484   0.644   4.478
96635W        W61620  33.737   0.827   4.136
96636W        W61621  26.716  42.850  11.630
96637W        W61622  17.422  26.229   1.470
96638W        W61623  42.805   5.414   4.701
96639W        W61624   2.465   6.051   0.969
96640W        W61625  19.220  37.012  11.665
96641W        W61626   3.488  17.421   4.198
96642W        W61627  34.501  37.955   4.514
96643W        W61628  44.488  27.593   4.137
96644W        W61629  23.709  33.922  10.377
96645W        W61630  22.723  44.903   1.010
96646W        W61631  35.622  37.270   4.994
96647W        W61632   7.824  21.784  14.828
96648W        W61633   4.928   8.629  10.705
96649W        W61634   9.343  17.042   9.998
96650W        W61635  31.391   5.792   4.292
96651W        W61636   7.232  27.026   1.600
96652W        W61637   3.430  10.165   1.643
96653W        W61638  25.203  13.627   1.098
96654W        W61639  19.488  38.962   3.883
96655W        W61640  19.381  32.139   4.022
96656W        W61641  35.520   8.931   1.932
96657W        W61642   5.672  21.499  13.204
96658W        W61643  41.987  41.968  14.496
96659W        W61644  43.857  22.725  11.423
96660W        W61645  33.271  15.408   4.984
96661W        W61646   6.437  29.423  13.961
96662W        W61647  31.426   0.963   2.721
96663W        W61648  41.309  41.965  12.622
96664W        W61649   3.970  18.788  12.664
96665W        W61650  16.734  30.744  12.582
96666W        W61651  29.150   3.672  13.019
96667W        W61652  36.592  32.615   3.118
96668W        W61653  19.009  19.042  14.503
96669W        W61654  19.666  17.240   2.290
96670W        W61655  23.753  34.455  14.617
96671W        W61656  33.875  28.199  12.453
96672W        W61657  44.862   0.958   1.832
96673W        W61658  25.227   9.590   4.066
96674W        W61659  10.871  24.777  10.612
96675W        W61660  43.859  42.176   1.686
96676W        W61661   2.491  44.702   4.655
96677W        W61662  33.155  35.489  11.599
96678W        W61663  29.154  41.793  12.772
96679W        W61664  43.619  35.944  13.930
96680W        W61665  25.938  27.495   3.278
96681W        W61666  12.036  44.949   1.347
96682W        W61667   1.875  23.929  14.911
96683W        W61668  39.675   1.294  12.957
96684W        W61669  43.058   5.681   1.857
96685W        W61670   0.868   1.850  10.951
96686W        W61671  24.485   2.839   0.356
96687W        W61672  30.965  40.344  13.797
96688W        W61673   7.129   4.228   0.838
96689W        W61674  11.850  25.044  10.739
96690W        W61675  26.543  40.484  11.106
96691W        W61676  32.040  35.117   3.563
96692W        W61677  22.734  41.949   1.060
96693W        W61678  21.227  35.381   3.399
96694W        W61679  17.570   8.739   0.284
96695W        W61680  17.882   6.114  13.114
96696W        W61681  29.041  15.975  14.742
96697W        W61682   6.434  44.906   4.164
96698W        W61683   0.498   7.982   4.566
96699W        W61684   2.561  28.033   2.316
96700W        W61685  22.184   1.740   0.706
96701W        W61686   3.895   4.643  14.185
96702W        W61687  23.216  24.009   2.806
96703W        W61688   9.267   6.735   0.013
96704W        W61689  43.223  25.213   5.321
96705W        W61690  37.422  43.893   2.242
96706W        W61691  11.287  29.151  12.112
96707W        W61692  38.174  39.235  14.762
96708W        W61693  18.304   2.468   3.162
96709W        W61694  29.165   7.296   0.685
96710W        W61695   3.765  30.889  11.135
96711W        W61696  20.278  27.573  13.334
96712W        W61697  15.518  27.935   1.683
96713W        W61698  34.156  41.668   2.729
96714W        W61699  10.315  33.395  10.958
96715W        W61700  22.512   6.675  13.375
96716W        W61701  29.195  21.731  14.860
96717W        W61702   5.367  37.202   4.227
96718W        W61703   1.366   5.446  13.368
96719W        W61704  21.085   2.802  12.072
96720W        W61705  20.732   8.422   2.414
96721W        W61706  13.544  27.193   9.869
96722W        W61707  26.186  36.397  14.445
96723W        W61708  37.392  20.523   1.444
96724W        W61709  24.129  25.045   0.380
96725W        W61710  40.116   9.181   4.059
96726W        W61711  21.355  10.222  10.743
96727W        W61712  28.963   8.417  13.421
96728W        W61713  33.758  34.377   2.780
96729W        W61714  33.363  25.515   0.708
96730W        W61715  16.588  11.624   0.243
96731W        W61716  37.782  37.368  12.581
96732W        W61717  38.444   7.635   0.629
96733W        W61718  29.405  27.103   4.549
96734W        W61719  39.862   3.478   3.680
96735W        W61720   4.204  12.130  12.892
96736W        W61721   3.177   0.331   3.395
96737W        W61722  40.739  43.327   3.188
96738W        W61723   3.803  15.820  14.812
96739W        W61724  33.646  36.582   3.339
96740W        W61725  26.789  32.026   0.389
96741W        W61726  17.470  28.476  10.372
96742W        W61727  40.807  33.549  11.261
96743W        W61728  43.882  14.134   4.170
96744W        W61729  14.673  37.118   0.526
96745W        W61730  29.460  37.394   1.376
96746W        W61731  33.620  11.990   1.553
96747W        W61732  15.197   2.300  12.538
96748W        W61733  19.739   0.172  14.023
96749W        W61734  17.089  16.362  10.963
96750W        W61735  11.772  32.486   1.772
96751W        W61736  44.510  13.760  13.447
96752W        W61737   0.260  29.062   4.119
96753W        W61738  28.474  32.443   2.809
96754W        W61739  20.118  11.238  10.448
96755W        W61740  31.038   5.050   3.539
96756W        W61741  29.248  13.802   4.107
96757W        W61742   4.164  32.445  12.460
96758W        W61743   5.119  21.106  14.035
96759W        W61744  39.150  39.205   1.038
96760W        W61745  31.464  10.172  11.609
96761W        W61746  17.146   0.412   3.716
96762W        W61747  30.718  19.816   3.189
96763W        W61748   5.311  14.756  11.610
96764W        W61749  35.035  36.657   4.134
96765W        W61750   5.421  17.202  11.592
96766W        W61751  37.438  19.674   2.187
96767W        W61752  24.547  27.089  12.861
96768W        W61753  27.825  42.997  10.303
96769W        W61754  10.498   2.972   0.831
96770W        W61755   9.890  35.270  14.779
96771W        W61756  17.206   9.710  10.049
96772W        W61757   5.037   8.673  12.828
96773W        W61758  41.612  10.791   3.172
96774W        W61759   0.339  33.962  10.782
96775W        W61760  37.749  26.297  12.951
96776W        W61761  31.297  18.941  13.984
96777W        W61762  14.654  34.948   1.672
96778W        W61763  10.606  42.505   4.071
96779W        W61764  16.149  34.314  14.844
96780W        W61765   0.802  39.048   4.510
96781W        W61766   7.312   6.337   4.443
96782W        W61767  28.422   8.256   4.588
96783W        W61768   0.966  20.545   2.967
96784W        W61769  36.596  16.087  13.027
96785W        W61770  28.569  38.301  14.913
96786W        W61771  15.417  37.230   4.111
96787W        W61772  37.424  39.001   0.217
96788W        W61773   8.379  41.726   0.612
96789W        W61774  40.569  10.696  12.337
96790W        W61775   3.060  20.210   0.822
96791W        W61776   1.001  35.460   2.433
96792W        W61777   6.226  15.722  11.037
96793W        W61778  34.976  16.754  10.991
96794W        W61779  21.672   7.662  13.768
96795W        W61780  44.476   5.268  13.434
96796W        W61781   2.576  40.615   4.469
96797W        W61782   3.961  35.017   4.927
96798W        W61783  17.161   6.635  14.708
96799W        W61784  10.836  21.616   0.376
96800W        W61785  19.728  43.459  14.908
96801W        W61786   8.168  17.262   0.399
96802W        W61787  33.079  29.694   3.236
96803W        W61788   9.789   6.382   3.730
96804W        W61789   2.448  43.821   3.736
96805W        W61790  28.688   7.660  14.824
96806W        W61791  29.763  35.380  11.934
96807W        W61792   2.529  39.566   2.688
96808W        W61793  36.987   4.716  11.121
96809W        W61794  36.091   4.420   4.072
96810W        W61795   0.883  36.967  13.951
96811W        W61796  31.878  43.283  14.244
96812W        W61797  30.088  35.928   1.885
96813W        W61798  11.064  16.204   4.446
96814W        W61799  12.627  40.854   0.837
96815W        W61800  24.735  18.850  14.931
96816W        W61801  11.221   0.946  12.182
96817W        W61802  44.175   2.257  11.015
96818W        W61803  37.431  43.134   3.041
96819W        W61804  30.606  37.473  12.569
96820W        W61805  32.178  43.020   0.141
96821W        W61806  29.985  35.996   1.337
96822W        W61807  35.290  31.213  11.386
96823W        W61808  31.924  37.845   2.670
96824W        W61809  20.132   9.385  11.725
96825W        W61810   6.157   0.334  13.806
96826W        W61811  44.043  24.227   0.186
96827W        W61812  33.837  39.855  14.336
96828W        W61813  42.777  33.333  11.776
96829W        W61814  12.143  38.566  12.056
96830W        W61815   4.940   1.388   1.382
96831W        W61816  14.933  35.527   0.885
96832W        W61817  40.546  39.032  10.243
96833W        W61818  24.083  32.012   0.565
96834W        W61819   2.643  28.417  13.891
96835W        W61820  38.410  34.353  10.514
96836W        W61821   4.329  43.758   1.122
96837W        W61822   7.129  34.416   1.435
96838W        W61823  19.505  31.257  10.619
96839W        W61824  14.141  37.628   3.722
96840W        W61825  23.355  26.917  12.989
96841W        W61826  38.613  10.718   3.810
96842W        W61827  28.998   6.596  14.070
96843W        W61828  33.893  13.177  10.669
96844W        W61829  34.166  30.747  13.491
96845W        W61830   7.990  31.937   1.427
96846W        W61831  31.542  12.247   2.818
96847W        W61832  31.126  42.997  12.151
96848W        W61833  17.596   8.310   1.597
96849W        W61834  21.424   0.247  11.305
96850W        W61835   8.881  43.903   3.572
96851W        W61836  38.019   2.466   1.559
96852W        W61837   9.623  42.796  14.293
96853W        W61838  42.085   5.653  13.176
96854W        W61839   6.022   4.299   4.586
96855W        W61840  43.178  29.577   2.323
96856W        W61841  23.988  12.567  10.727
96857W        W61842  35.086  18.565   4.578
96858W        W61843  20.601  30.631   1.510
96859W        W61844  27.989   6.655   1.935
96860W        W61845   2.358  32.956  11.987
96861W        W61846  12.705  31.886   1.813
96862W        W61847  29.711  21.656  11.448
96863W        W61848  28.471  41.265  10.269
96864W        W61849  24.578  24.746   0.428
96865W        W61850  14.205  16.802   3.919
96866W        W61851   1.271  11.866  12.057
96867W        W61852  36.885  31.178  13.519
96868W        W61853   7.590  18.615   1.043
96869W        W61854  39.009  18.175   1.705
96870W        W61855  40.013  42.457   4.127
96871W        W61856   5.678  14.387  13.315
96872W        W61857  22.158  30.232   3.111
96873W        W61858  39.296  27.114  10.506
96874W        W61859  44.553  28.065  11.688
96875W        W61860   4.246  17.071  10.388
96876W        W61861  13.825  39.318   3.271
96877W        W61862  27.486  17.653   4.917
96878W        W61863  20.030  44.998  14.430
96879W        W61864  21.614   0.212  12.628
96880W        W61865   7.806  33.672   1.791
96881W        W61866   0.007   6.908   1.342
96882W        W61867   4.508  12.321  11.979
96883W        W61868  31.461   1.990   3.649
96884W        W61869   4.207   1.298  14.482
96885W        W61870   3.553  39.597  13.203
96886W        W61871  30.113  40.127  13.437
96887W        W61872  20.645   8.966   0.485
96888W        W61873  29.925  12.368  13.377
96889W        W61874  12.791  43.242  11.617
96890W        W61875  37.404  26.417  13.347
96891W        W61876  37.268  35.823   1.606
96892W        W61877   0.481  43.811   0.454
96893W        W61878  15.984  28.068  13.455
96894W        W61879  17.674   6.594  11.244
96895W        W61880  33.390  22.367   5.004
96896W        W61881  43.955  14.107  10.302
96897W        W61882  31.829  38.013   5.153
96898W        W61883   8.418  40.506  12.475
96899W        W61884   6.414   0.219   1.267
96900W        W61885   1.856  19.111   4.683
96901W        W61886  44.299  19.815  13.091
96902W        W61887  42.347  16.285   0.463
96903W        W61888  12.357  23.552   2.109
96904W        W61889  43.271  14.625   0.665
96905W        W61890   8.426  13.791   2.655
96906W        W61891   8.557  16.257  14.527
96907W        W61892   9.343  10.881   3.773
96908W        W61893  28.296  38.289  11.090
96909W        W61894  16.005  16.157   3.799
96910W        W61895   7.075  35.324   1.450
96911W        W61896  21.994  34.504  13.367
96912W        W61897   4.244  34.099   4.211
96913W        W61898   4.404  22.751  11.732
96914W        W61899  25.689   3.084  14.542
96915W        W61900  28.777  10.485  11.028
96916W        W61901  25.507   5.067   4.432
96917W        W61902  10.811  26.727   4.161
96918W        W61903  21.260  29.093   2.750
96919W        W61904   6.145  20.669   0.961
96920W        W61905  11.706  21.217   1.322
96921W        W61906  13.123  25.291  13.425
96922W        W61907   3.514   3.525  11.493
96923W        W61908  29.814  23.482  13.712
96924W        W61909   2.520  29.830  13.518
96925W        W61910  27.458  11.299  11.108
96926W        W61911   2.321  37.107   1.647
96927W        W61912  22.579  44.502   0.227
96928W        W61913  23.029  19.462  13.911
96929W        W61914   4.444   2.073  13.444
96930W        W61915   5.109  44.372  10.607
96931W        W61916  29.862   5.707  13.915
96932W        W61917  23.129   2.087  14.405
96933W        W61918   7.126  37.362   2.209
96934W        W61919   3.463  12.787   2.646
96935W        W61920  13.618  26.439  13.161
96936W        W61921  22.117  13.401   2.340
96937W        W61922  33.073  43.781   3.131
96938W        W61923  27.186   7.611   0.868
96939W        W61924  26.155  14.090  12.529
96940W        W61925  16.632  29.373   3.410
96941W        W61926   9.968  17.356   3.072
96942W        W61927  12.374  39.600   4.253
96943W        W61928  10.268  43.722  10.310
96944W        W61929  22.448  27.525   0.301
96945W        W61930  16.253  43.925   4.655
96946W        W61931  42.868   0.330  12.625
96947W        W61932   2.491  26.609   4.086
96948W        W61933  38.831  19.117   1.951
96949W        W61934  27.314  36.743  11.172
96950W        W61935  11.074   0.369   1.314
96951W        W61936  29.949  13.920   4.541
96952W        W61937  20.525   0.489  13.458
96953W        W61938  11.385   7.779   2.743
96954W        W61939  33.371   7.688   1.423
96955W        W61940  36.484  17.317   3.272
96956W        W61941   0.072  38.010   4.968
96957W        W61942  38.535  15.806  12.311
96958W        W61943  35.065  17.257  12.492
96959W        W61944  19.669  42.745  11.609
96960W        W61945  32.890  36.337  14.499
96961W        W61946  41.481  21.525   4.655
96962W        W61947  10.946  22.150   3.624
96963W        W61948  40.311  40.285  14.414
96964W        W61949  31.131  20.173   4.854
96965W        W61950  32.530  36.208   4.136
96966W        W61951  13.223  41.846  10.968
96967W        W61952  10.729  23.618  12.646
96968W        W61953  13.789   0.785  12.048
96969W        W61954  30.418  28.439  13.301
96970W        W61955  32.840  13.145  14.292
96971W        W61956  17.961  32.989  14.808
96972W        W61957  29.800   3.394   0.279
96973W        W61958  18.952  36.818   0.580
96974W        W61959  20.477  29.818   4.834
96975W        W61960  38.549   5.756   3.307
96976W        W61961  13.034  41.410   1.405
96977W        W61962  32.563  44.886   2.754
96978W        W61963   8.287  37.552  10.768
96979W        W61964  28.426  25.746  13.122
96980W        W61965   3.307  42.680   2.989
96981W        W61966   7.731  43.979   3.644
96982W        W61967   1.736  10.057  12.525
96983W        W61968  37.767  15.467  11.705
96984W        W61969  40.181  23.592  13.979
96985W        W61970  27.065  40.841  14.854
96986W        W61971   0.222   3.473   0.435
96987W        W61972   1.512  39.264  14.793
96988W        W61973  24.720  35.237   2.722
96989W        W61974  16.096  22.966   1.421
96990W        W61975  39.077  23.591   0.462
96991W        W61976  18.019  43.855  14.925
96992W        W61977  33.615  32.381   3.671
96993W        W61978  31.920   4.400  12.980
96994W        W61979  37.609  39.560   0.351
96995W        W61980  18.111   8.847   4.102
96996W        W61981  15.226   6.853  11.869
96997W        W61982  23.513  29.248   3.157
96998W        W61983  22.566  18.126  13.718
96999W        W61984  31.886   7.400  11.182
97000W        W61985  24.779   4.410   4.537
97001W        W61986  42.484  37.633   4.812
97002W        W61987  18.269  42.409   2.236
97003W        W61988  39.631  11.636  12.197
97004W        W61989  21.740  44.275  12.233
97005W        W61990   7.191  24.130  11.453
97006W        W61991  16.444  25.670   3.215
97007W        W61992  35.106  37.080   0.639
97008W        W61993   3.278  27.113   1.289
97009W        W61994  17.323  10.828   4.758
97010W        W61995  12.464  10.575  11.502
97011W        W61996   9.799  30.429   2.197
97012W        W61997  15.691  43.328   0.500
97013W        W61998  40.954   3.739  12.403
97014W        W61999  12.799  12.728  12.299
97015W        W62000  21.768   8.315  12.260
97016W        W62001   9.914  17.567  12.590
97017W        W62002  37.129   0.232   2.455
97018W        W62003   6.263   2.226  14.867
97019W        W62004   8.781  37.623   1.885
97020W        W62005  34.070  21.389  13.939
97021W        W62006   7.812  17.219  14.123
97022W        W62007   4.289  23.717  14.422
97023W        W62008   0.154  12.770  12.057
97024W        W62009  19.202   8.831  14.877
97025W        W62010  11.695  13.263  12.560
97026W        W62011  12.178  29.869   3.739
97027W        W62012   2.014   8.337   1.563
97028W        W62013   6.774  23.531  13.921
97029W        W62014   2.437   4.519   1.398
97030W        W62015  32.003  41.530   2.129
97031W        W62016  10.190   4.406   4.605
97032W        W62017   8.212  36.980  12.799
97033W        W62018  31.579   8.880   5.098
97034W        W62019  21.277   0.356   2.864
97035W        W62020  26.049  12.840   4.567
97036W        W62021   7.561  17.049   3.771
97037W        W62022   7.230  16.070  14.426
97038W        W62023  11.630   1.770  14.869
97039W        W62024  29.193   2.895  13.422
97040W        W62025   8.650  12.803   2.683
97041W        W62026  36.825   2.415  13.351
97042W        W62027   2.155  33.561   4.937
97043W        W62028  39.352  16.726  13.241
97044W        W62029  43.899  15.435   2.068
97045W        W62030   5.509  31.063   3.438
97046W        W62031  22.541  11.650   3.769
97047W        W62032  15.316   9.778   1.646
97048W        W62033  21.460  21.527  13.410
97049W        W62034  42.346   9.707   0.739
97050W        W62035   5.673  31.104  12.378
97051W        W62036  38.284  17.548  12.708
97052W        W62037  10.312  38.764  12.778
97053W        W62038  12.199  29.958  13.836
97054W        W62039  19.960   7.632   0.265
97055W        W62040   8.592  11.836  12.531
97056W        W62041  40.141   2.177  12.067
97057W        W62042  25.725  26.099   0.462
97058W        W62043  39.752  42.430  11.862
97059W        W62044  30.971  44.674   0.411
97060W        W62045  26.468   9.878  13.917
97061W        W62046  42.882  40.384   2.156
97062W        W62047   8.415   6.908   1.181
97063W        W62048  44.957   5.647   0.380
97064W        W62049  14.838  38.978  11.670
97065W        W62050   9.355  21.424  10.485
97066W        W62051  36.485  18.090   2.617
97067W        W62052  12.958  12.711  10.782
97068W        W62053  16.196  20.518  14.734
97069W        W62054  25.473   5.338   2.501
97070W        W62055  32.207  17.637   1.814
97071W        W62056  10.451  14.128  11.699
97072W        W62057  34.163  29.933   0.162
97073W        W62058   5.555   9.841   3.171
97074W        W62059  22.703  10.990  13.940
97075W        W62060  10.198  16.566   3.316
97076W        W62061  18.661  24.372   5.221
97077W        W62062  35.290  43.475  13.625
97078W        W62063  13.564  11.454   1.911
97079W        W62064   9.088   1.906  10.884
97080W        W62065  40.993  17.537   3.033
97081W        W62066   2.366  18.296   0.857
97082W        W62067  15.547  14.016  12.045
97083W        W62068  42.316   7.386  13.942
97084W        W62069  38.601  39.428   4.816
97085W        W62070   9.907   7.433   1.692
97086W        W62071   9.516  29.900   4.204
97087W        W62072  20.548   7.192  11.113
97088W        W62073   3.188   6.879  12.560
97089W        W62074   8.305   1.504   1.332
97090W        W62075   3.725  40.885   4.223
97091W        W62076  35.934  19.112  13.501
97092W        W62077  17.124  37.173   2.697
97093W        W62078   2.005  29.607  14.837
97094W        W62079   6.802  30.479   0.008
97095W        W62080  16.880  18.484  11.197
97096W        W62081   1.078  16.067  13.141
97097W        W62082  21.281   5.899  11.097
97098W        W62083  30.500  14.180  13.073
97099W        W62084  17.476  33.425   3.085
97100W        W62085  37.650  26.609   1.214
97101W        W62086  12.858  14.801  11.124
97102W        W62087  44.403   4.941  11.615
97103W        W62088  21.022   4.169  13.640
97104W        W62089  24.565  13.317   2.778
97105W        W62090  33.885   4.403  12.137
97106W        W62091  10.895  40.365   3.750
97107W        W62092  25.851  39.300  10.783
97108W        W62093  38.926  12.659   3.372
97109W        W62094  23.476  23.038   3.617
97110W        W62095  27.607  22.065   1.426
97111W        W62096   9.392  41.768   1.304
97112W        W62097  44.317  37.558   4.151
97113W        W62098  24.308  38.589   0.796
97114W        W62099  28.137  12.185   2.821
97115W        W62100  43.424   9.737   1.764
97116W        W62101  33.520  39.307   1.266
97117W        W62102  25.736  32.067   3.073
97118W        W62103  11.525  35.321   1.795
97119W        W62104  22.241   2.292  10.770
97120W        W62105  43.793  12.125  13.462
97121W        W62106  22.263  35.838  14.848
97122W        W62107   9.239  30.199  14.840
97123W        W62108   7.887  17.535  12.173
97124W        W62109   5.255  25.505   0.275
97125W        W62110  36.692  13.398  13.926
97126W        W62111   8.684  42.889   0.975
97127W        W62112  19.785  37.470   3.876
97128W        W62113   8.757  14.560   2.186
97129W        W62114  31.381  32.176  10.736
97130W        W62115  38.842   3.780  14.908
97131W        W62116  21.775  15.032   3.720
97132W        W62117  31.892  25.264  12.086
97133W        W62118  23.045  30.883  10.957
97134W        W62119  22.523  18.700  12.029
97135W        W62120  43.502  43.289  12.980
97136W        W62121  16.851  17.893   3.089
97137W        W62122  30.866   8.064  11.119
97138W        W62123  14.815  41.250   0.772
97139W        W62124  18.782  38.833   2.424
97140W        W62125  43.585  23.154  10.283
97141W        W62126  36.441   4.121  11.957
97142W        W62127  44.266  29.807  11.292
97143W        W62128  22.117   1.016   1.327
97144W        W62129  22.576  28.879   0.006
97145W        W62130  38.448  21.109   3.375
97146W        W62131   4.475  26.784   1.642
97147W        W62132  40.908   6.066  13.008
97148W        W62133  30.167  20.524   4.140
97149W        W62134  44.847  42.910   3.196
97150W        W62135  39.988  26.167   0.253
97151W        W62136   8.463  11.581   2.728
97152W        W62137   2.404  36.565  13.963
97153W        W62138   4.453  19.955  11.916
97154W        W62139  13.280   1.037  12.923
97155W        W62140  21.119   4.273  11.576
97156W        W62141   3.464  33.891  12.026
97157W        W62142  28.050  36.363   0.831
97158W        W62143   9.102   1.189   4.875
97159W        W62144  41.696  39.942  11.187
97160W        W62145  14.052  31.382   2.754
97161W        W62146  11.158  11.728  11.717
97162W        W62147   0.660   8.587   4.266
97163W        W62148  39.147  32.231   2.361
97164W        W62149  21.381  10.318  13.422
97165W        W62150   1.977  19.125  12.230
97166W        W62151   5.654  40.964  14.546
97167W        W62152  30.379   0.467   1.521
97168W        W62153  26.279  33.092   4.562
97169W        W62154  30.009  42.907   2.393
97170W        W62155  12.701  23.156  10.949
97171W        W62156  29.679  18.068  14.718
97172W        W62157   1.758  28.078  13.572
97173W        W62158   2.700  10.856   3.579
97174W        W62159  29.207  18.239   1.628
97175W        W62160  34.641  29.919  13.389
97176W        W62161  23.015  21.060   4.328
97177W        W62162  18.587  22.031   0.511
97178W        W62163   5.591  15.840  10.177
97179W        W62164   0.936  30.946   2.389
97180W        W62165   0.188  42.423  13.394
97181W        W62166  44.181  27.852   1.386
97182W        W62167  32.388  19.705  10.779
97183W        W62168  15.865   0.490  14.585
97184W        W62169  21.150   8.180  13.973
97185W        W62170  16.725  16.025   0.854
97186W        W62171   8.017  40.282  12.143
97187W        W62172   8.978   1.797   0.611
97188W        W62173   1.886   9.892  12.053
97189W        W62174   3.551  11.454  10.709
97190W        W62175  36.537  20.975   4.265
97191W        W62176  34.008  37.223   4.106
97192W        W62177  35.648  16.737   4.519
97193W        W62178  41.613  41.502   3.308
97194W        W62179  11.045  23.654  13.072
97195W        W62180   2.791  30.757   2.803
97196W        W62181   4.424  36.852   4.695
97197W        W62182  19.823  38.645  12.576
97198W        W62183  19.083   2.170   3.648
97199W        W62184  23.342   6.175  10.057
97200W        W62185  11.127  15.653   3.213
97201W        W62186  27.724  23.675  12.110
97202W        W62187  26.594  33.730   4.588
97203W        W62188  41.690  43.933  13.997
97204W        W62189  30.458  41.289  12.085
97205W        W62190  15.583  42.973   2.731
97206W        W62191  25.153  44.474   0.700
97207W        W62192   2.750  30.631  14.582
97208W        W62193   2.866  14.559  14.765
97209W        W62194  32.895  26.277  14.935
97210W        W62195  12.439  25.067   2.672
97211W        W62196   0.646   9.517   3.250
97212W        W62197   4.475  19.854  14.520
97213W        W62198  11.713  12.809  14.345
97214W        W62199  13.142   3.484  13.921
97215W        W62200  21.019  14.156  14.629
97216W        W62201   9.901  40.971  12.578
97217W        W62202  25.475  36.307   2.816
97218W        W62203  31.585  41.543  13.380
97219W        W62204  10.022  28.665  13.241
97220W        W62205   6.764  35.378   3.264
97221W        W62206  13.704  42.174   2.965
97222W        W62207  21.289  15.306  10.414
97223W        W62208  37.306  18.119   2.063
97224W        W62209  38.110  23.065   3.048
97225W        W62210   1.799   8.609   0.363
97226W        W62211   5.280  24.235   4.624
97227W        W62212  29.426  18.138  12.488
97228W        W62213  44.231  19.838   0.334
97229W        W62214  29.497  31.642   4.270
97230W        W62215  42.030  38.392  14.449
97231W        W62216  29.449  23.034  11.691
97232W        W62217   4.862  20.774   2.904
97233W        W62218  18.265  29.668  11.187
97234W        W62219   5.000   7.652  11.522
97235W        W62220  22.110  10.211   0.064
97236W        W62221  44.219   6.327   1.097
97237W        W62222  14.779  34.095   4.479
97238W        W62223  36.262  41.924   0.326
97239W        W62224  31.516   0.227   2.189
97240W        W62225  30.034   9.698  14.638
97241W        W62226  11.303  40.995  10.697
97242W        W62227  23.183  13.087  14.369
97243W        W62228  43.374  20.065   2.387
97244W        W62229  37.981  26.996   1.372
97245W        W62230   0.835  33.761   0.726
97246W        W62231  20.998  32.612   1.356
97247W        W62232   0.354  12.342  10.783
97248W        W62233  42.363  17.893   3.662
97249W        W62234  26.179  11.618   4.600
97250W        W62235  14.615  14.651  10.781
97251W        W62236   1.648  18.920  13.784
97252W        W62237  43.558  21.342   5.504
97253W        W62238  37.236   8.164  13.062
97254W        W62239  35.469  19.591  12.030
97255W        W62240  43.821   5.306  11.012
97256W        W62241  13.178  23.524  11.598
97257W        W62242  44.918  33.516  10.112
97258W        W62243  16.119  33.656  13.562
97259W        W62244   6.623  36.507   0.402
97260W        W62245  17.945  27.940   1.252
97261W        W62246   3.112  18.606   2.783
97262W        W62247  16.677  10.065  12.493
97263W        W62248  31.966   3.909  13.806
97264W        W62249  40.383  14.002   3.599
97265W        W62250  39.803   0.403   0.318
97266W        W62251   6.639  14.858  10.724
97267W        W62252  44.053  13.035  14.375
97268W        W62253  42.139  24.220   2.281
97269W        W62254  30.748  22.491   0.769
97270W        W62255  21.296  18.803   5.212
97271W        W62256  34.601  26.580   2.357
97272W        W62257   4.912   2.915   1.691
97273W        W62258  23.475  27.056  11.410
97274W        W62259   3.498  29.169   1.252
97275W        W62260  25.988  35.567  10.528
97276W        W62261  40.883  44.620  13.837
97277W        W62262  38.469   6.332   1.945
97278W        W62263  30.827  24.736  12.983
97279W        W62264   6.377  22.953   2.210
97280W        W62265  39.865  37.264  13.307
97281W        W62266  41.755  30.674   1.762
97282W        W62267  41.905  11.447   0.040
97283W        W62268   8.674  36.066  12.589
97284W        W62269  37.884  39.120   0.487
97285W        W62270  13.705   8.214  11.271
97286W        W62271  14.160  33.952   2.336
97287W        W62272   3.850  14.682   3.862
97288W        W62273  32.330  44.791   4.055
97289W        W62274  17.236   5.900  14.722
97290W        W62275  36.167  34.379   4.587
97291W        W62276   8.571  29.041   4.399
97292W        W62277   5.399  18.582  10.544
97293W        W62278  15.224  18.870   1.021
97294W        W62279   3.933  43.715  11.579
97295W        W62280  37.233   2.721   1.717
97296W        W62281   8.892  43.879   0.882
97297W        W62282  30.384  20.530   2.796
97298W        W62283  38.868  32.285   4.052
97299W        W62284  32.092  34.508   1.196
97300W        W62285  15.023  42.418   4.123
97301W        W62286  22.977  11.206   0.778
97302W        W62287  27.457   4.139   2.875
97303W        W62288  11.353  15.182   3.157
97304W        W62289  26.177  15.339   0.204
97305W        W62290  15.886   2.201   0.417
97306W        W62291  26.760  18.063   3.825
97307W        W62292  26.046  17.315  11.849
97308W        W62293  35.057  24.725  14.398
97309W        W62294  17.764  28.070   1.719
97310W        W62295   1.259  25.382  14.408
97311W        W62296  32.346   1.596  11.106
97312W        W62297  40.179  28.552  10.312
97313W        W62298  15.270   3.501  11.535
97314W        W62299  29.463  29.443  14.517
97315W        W62300  22.600  37.255  12.029
97316W        W62301  11.810  39.607  10.325
97317W        W62302  20.558   2.359   1.078
97318W        W62303  37.819  39.348   1.484
97319W        W62304  37.196  35.596  11.026
97320W        W62305  18.006  37.757   2.966
97321W        W62306   5.612  42.070   3.314
97322W        W62307  25.198  37.243  12.113
97323W        W62308  23.133  27.033   2.759
97324W        W62309  28.383  33.004   0.470
97325W        W62310  42.540  38.502  12.122
97326W        W62311  42.773  38.368   4.108
97327W        W62312  17.206  11.588   2.734
97328W        W62313  30.640  15.385   3.353
97329W        W62314   4.273  12.180  10.985
97330W        W62315   0.098  23.134  12.917
97331W        W62316  29.456   3.726   2.398
97332W        W62317  39.233   1.764   1.490
97333W        W62318  24.114   6.270   0.509
97334W        W62319   8.462  26.321  12.172
97335W        W62320  23.484   1.489   0.691
97336W        W62321  14.158  18.727  11.697
97337W        W62322  19.229  30.826   2.712
97338W        W62323  39.864  34.338  12.860
97339W        W62324  28.105  18.116  13.925
97340W        W62325  27.048  41.617  12.023
97341W        W62326  12.268  34.392   4.393
97342W        W62327  44.646  13.510   2.665
97343W        W62328   1.907  19.551  11.923
97344W        W62329  38.895  10.323  10.179
97345W        W62330  35.052  36.494   1.674
97346W        W62331  14.152   1.601   2.544
97347W        W62332  16.552   4.751  13.899
97348W        W62333  43.343  37.748   1.921
97349W        W62334  27.344  13.580  11.126
97350W        W62335  26.010   9.384   1.832
97351W        W62336  18.456  41.019  12.537
97352W        W62337  41.867  42.470   4.395
97353W        W62338  18.618  25.505  12.727
97354W        W62339  10.091  33.550  13.181
97355W        W62340  28.559  34.909   1.671
97356W        W62341   6.333   1.962   0.632
97357W        W62342  44.305  10.224   2.100
97358W        W62343   7.798  27.031   2.348
97359W        W62344  17.011   6.367   1.037
97360W        W62345  32.802  32.192  11.672
97361W        W62346  18.855  33.209   4.621
97362W        W62347  16.768  26.429   4.205
97363W        W62348  31.008  40.067  14.830
97364W        W62349  41.211  37.817  11.178
97365W        W62350  28.018  17.277   2.209
97366W        W62351  27.283  26.006  14.537
97367W        W62352  16.242  31.767  12.141
97368W        W62353  10.180  39.779  10.472
97369W        W62354  22.995  35.674  10.935
97370W        W62355  24.713  41.109  12.572
97371W        W62356  42.597   9.780   4.353
97372W        W62357  24.112  34.174   0.759
97373W        W62358   0.766  17.061   2.724
97374W        W62359  26.029  17.998  13.250
97375W        W62360  27.976  42.960  11.126
97376W        W62361  30.062  15.679   4.293
97377W        W62362  32.250  15.548  11.989
97378W        W62363  36.587  40.657  14.296
97379W        W62364  19.637  32.472   4.655
97380W        W62365  43.147  12.178   2.280
97381W        W62366  12.452  33.727   2.443
97382W        W62367  20.621  43.870  10.660
97383W        W62368  41.529  11.154   3.558
97384W        W62369   5.790  24.107   0.918
97385W        W62370  27.852  22.740  12.412
97386W        W62371   7.217  25.139  13.477
97387W        W62372  38.577   9.566  14.575
97388W        W62373   1.880  21.903   1.063
97389W        W62374  24.426  36.510  11.411
97390W        W62375   4.269  27.660  12.719
97391W        W62376   8.804  18.273   1.927
97392W        W62377  41.489  39.956  11.660
97393W        W62378   0.415  27.677  11.491
97394W        W62379  19.088  27.780  14.866
97395W        W62380  17.815  27.138  13.492
97396W        W62381  13.228   2.514   0.784
97397W        W62382  31.525  12.041   2.341
97398W        W62383  28.594  23.511  14.839
97399W        W62384  20.075  17.079   2.632
97400W        W62385  40.826  12.287  10.854
97401W        W62386  16.753  25.098   1.816
97402W        W62387  15.094  18.312  11.152
97403W        W62388  33.379  19.217   2.995
97404W        W62389   3.954  19.336   1.963
97405W        W62390  42.359  22.603   2.181
97406W        W62391  32.990   0.307   2.011
97407W        W62392   9.010   6.787  10.303
97408W        W62393  33.739   6.772  11.038
97409W        W62394  21.569  34.693   4.710
97410W        W62395  40.230  22.730  10.772
97411W        W62396  39.517  10.145  10.739
97412W        W62397  36.449  34.067  13.457
97413W        W62398  19.266  28.252  12.620
97414W        W62399  19.810   2.463  14.891
97415W        W62400   9.257  29.258  11.585
97416W        W62401  21.990   5.975   3.090
97417W        W62402  30.449   6.255  13.515
97418W        W62403  34.633   0.470  11.102
97419W        W62404  16.564  23.223   1.496
97420W        W62405  33.599  34.077   0.247
97421W        W62406  40.824  32.376   1.869
97422W        W62407   0.994  19.967  13.027
97423W        W62408   4.804   3.978   1.028
97424W        W62409  21.920  44.799   0.416
97425W        W62410  21.198   0.678  11.489
97426W        W62411  20.742   5.975  14.988
97427W        W62412   0.231  40.208   2.775
97428W        W62413   7.585  33.058  13.764
97429W        W62414  12.416   9.084  14.490
97430W        W62415  13.907  28.642   2.518
97431W        W62416   5.272  31.042   2.080
97432W        W62417  36.614  26.513   0.405
97433W        W62418  21.422  44.671  13.997
97434W        W62419  43.412  32.027   0.223
97435W        W62420  25.182   4.323  14.732
97436W        W62421   5.611  36.915   2.194
97437W        W62422  28.545  35.034   1.152
97438W        W62423   6.671  32.788  12.017
97439W        W62424   3.030  28.489  10.389
97440W        W62425  22.029   3.453   2.817
97441W        W62426  44.820   6.719   3.246
97442W        W62427  22.539  18.065  13.212
97443W        W62428  21.615  24.622  13.391
97444W        W62429  35.425  39.888  12.947
97445W        W62430  13.516  40.387   2.689
97446W        W62431  20.622  39.889  14.928
97447W        W62432   0.961  27.634  11.646
97448W        W62433  34.187  42.221   4.677
97449W        W62434   4.940  18.212  12.012
97450W        W62435  25.629  23.144  12.423
97451W        W62436  17.796  41.585  14.936
97452W        W62437  39.993   8.322  12.337
97453W        W62438  18.609  26.966  10.476
97454W        W62439  28.071  19.343   1.790
97455W        W62440  16.732  16.542   0.821
97456W        W62441  27.350  40.273  11.633
97457W        W62442  11.469  27.662   4.983
97458W        W62443   4.380   6.017   2.822
97459W        W62444  37.988  22.109  11.433
97460W        W62445  19.572  30.123   4.556
97461W        W62446  35.589  20.672  14.420
97462W        W62447  42.027  39.395  13.690
97463W        W62448  22.284   5.059   1.970
97464W        W62449  40.395  13.157  14.977
97465W        W62450  23.706  36.468   0.596
97466W        W62451  35.815   9.134  14.869
97467W        W62452  16.223   2.345   4.958
97468W        W62453   0.394  18.006  14.857
97469W        W62454  25.368  33.349   0.897
97470W        W62455  28.386   2.118  12.022
97471W        W62456  35.473  15.418  12.860
97472W        W62457  28.980  38.737  12.527
97473W        W62458  16.297  12.277   1.838
97474W        W62459  22.333  11.561   1.342
97475W        W62460  31.081  22.285   4.159
97476W        W62461   7.388  26.119   0.311
97477W        W62462  44.966  18.548   1.182
97478W        W62463  19.667  26.496  11.025
97479W        W62464  13.628  32.393   0.270
97480W        W62465   4.336  13.894   2.604
97481W        W62466   8.811  26.712  14.726
97482W        W62467  24.440  38.747   1.278
97483W        W62468   2.236  35.388   0.342
97484W        W62469  16.637   8.416   3.139
97485W        W62470  13.253  29.435   2.362
97486W        W62471  44.347  41.045  13.517
97487W        W62472  30.243  21.606  12.859
97488W        W62473   8.316   4.984  13.892
97489W        W62474   6.910  23.183  13.562
97490W        W62475  41.115  24.427  11.586
97491W        W62476  33.446  17.976   4.320
97492W        W62477   3.920   4.407  10.704
97493W        W62478  28.499  30.397  13.828
97494W        W62479  44.773   2.809   4.500
97495W        W62480  19.801  28.086  14.070
97496W        W62481  32.617  36.469  11.646
97497W        W62482  35.352  39.081  13.312
97498W        W62483  34.931  15.575  12.108
97499W        W62484  29.035  17.376  14.491
97500W        W62485  10.850  35.258  12.095
97501W        W62486  19.046   2.933   0.015
97502W        W62487  33.992  11.188   3.267
97503W        W62488  28.605   7.703   1.446
97504W        W62489  11.419  41.793  14.550
97505W        W62490  38.914   8.997  10.837
97506W        W62491   2.728  27.187   0.418
97507W        W62492  41.899  17.055   2.622
97508W        W62493  28.641  37.487   4.681
97509W        W62494  42.494  25.568  14.483
97510W        W62495   7.463  27.082   4.668
97511W        W62496  20.536   0.103   4.559
97512W        W62497   6.831   7.510  13.877
97513W        W62498   6.373  41.387  14.015
97514W        W62499  17.599  43.390  11.903
97515W        W62500   6.179  21.549  12.299
97516W        W62501  13.776  28.040  11.972
97517W        W62502   4.459  27.244  10.226
97518W        W62503  31.215   1.931   2.813
97519W        W62504  12.103  32.929  12.112
97520W        W62505  12.329  30.546   0.438
97521W        W62506   2.285  23.546   1.315
97522W        W62507  28.829   4.574  13.553
97523W        W62508  19.520  42.352   3.223
97524W        W62509   4.430  43.943  12.179
97525W        W62510  37.700   9.879   4.984
97526W        W62511  15.136  39.525   3.621
97527W        W62512   5.680  35.367   0.435
97528W        W62513  37.271  30.135  11.633
97529W        W62514  12.060  40.281   2.386
97530W        W62515  41.678  29.132   4.205
97531W        W62516  32.581   5.892   0.282
97532W        W62517  16.314   4.183   5.347
97533W        W62518  39.766  39.551   1.719
97534W        W62519  40.384  15.727  14.038
97535W        W62520   5.339   7.217  13.685
97536W        W62521  16.094  31.431   1.777
97537W        W62522  39.534  23.244   3.555
97538W        W62523  23.916  12.344  13.346
97539W        W62524  25.453   4.000   9.554
97540W        W62525   6.412  14.362   2.410
97541W        W62526  17.318   6.383  13.862
97542W        W62527  39.428  21.149  11.586
97543W        W62528  25.682  34.321  13.576
97544W        W62529  35.391  29.006  12.836
97545W        W62530  17.561  23.741   4.892
97546W        W62531  39.164  34.855   2.688
97547W        W62532  39.860  31.855  12.606
97548W        W62533  35.620  27.436  14.522
97549W        W62534  40.357  32.122  13.083
97550W        W62535  37.863  36.810   4.517
97551W        W62536  12.131  23.313   0.681
97552W        W62537  11.159  44.224  14.313
97553W        W62538  29.922  28.481  13.447
97554W        W62539  29.131  28.846  10.455
97555W        W62540  18.412  19.578   2.596
97556W        W62541  23.175   1.773   2.357
97557W        W62542   6.228  28.338   4.222
97558W        W62543   2.428   4.261   4.541
97559W        W62544  23.225  23.469   3.699
97560W        W62545   1.637   6.178  11.542
97561W        W62546  11.743  17.322   4.585
97562W        W62547  10.970   5.585   3.653
97563W        W62548   8.291  36.989   4.665
97564W        W62549  15.332   7.282   4.193
97565W        W62550   5.706  29.954   0.524
97566W        W62551  34.892  40.273   0.461
97567W        W62552   2.262  29.219   2.117
97568W        W62553  14.171  16.769  13.013
97569W        W62554  27.560  40.083   3.882
97570W        W62555   3.405   5.909   3.178
97571W        W62556  29.865  29.599   1.855
97572W        W62557   9.192   7.779  10.999
97573W        W62558   7.906  23.144  12.877
97574W        W62559  29.226  35.564  12.822
97575W        W62560   3.240  43.304   1.783
97576W        W62561  18.804  26.476  12.934
97577W        W62562   2.895  26.398  14.993
97578W        W62563  44.848  42.847   2.342
97579W        W62564  43.026  15.617  10.851
97580W        W62565   4.124  33.108  11.383
97581W        W62566  27.695   7.589   1.422
97582W        W62567  27.539  39.337  11.144
97583W        W62568   3.820  19.671   2.373
97584W        W62569  42.526   0.697   2.921
97585W        W62570  33.983  28.713  13.424
97586W        W62571  27.531  36.052  14.366
97587W        W62572  10.898  23.804   4.190
97588W        W62573  23.150  27.120  14.681
97589W        W62574   1.852  40.333  13.876
97590W        W62575  37.969   9.597   4.163
97591W        W62576  39.359  38.234  11.050
97592W        W62577  19.693  38.911  11.187
97593W        W62578  14.061  27.404  11.691
97594W        W62579   7.300  25.997  13.242
97595W        W62580  20.070  30.090  11.713
97596W        W62581   9.128   3.618   1.350
97597W        W62582  19.045  42.953   2.806
97598W        W62583  37.128   7.336  11.802
97599W        W62584  27.782   1.139  12.903
97600W        W62585  16.699   9.029   0.500
97601W        W62586  19.214  26.507   1.127
97602W        W62587  14.129  13.484   2.850
97603W        W62588  23.502  10.131   0.835
97604W        W62589   8.864   5.223  11.220
97605W        W62590  41.818   6.297   3.413
97606W        W62591  22.172  29.707   3.277
97607W        W62592  17.156   8.320   4.976
97608W        W62593  33.095   8.522   2.304
97609W        W62594  28.943  38.150   3.516
97610W        W62595  39.513  13.382  12.491
97611W        W62596  40.471  11.546  12.100
97612W        W62597  26.063  43.774  11.185
97613W        W62598  44.545  37.877   4.776
97614W        W62599   8.238  24.072   1.289
97615W        W62600  33.162  18.612  12.471
97616W        W62601  27.422  39.078   4.492
97617W        W62602   8.238   6.036  11.073
97618W        W62603  15.518   3.810   5.127
97619W        W62604   4.879   0.678   4.336
97620W        W62605  13.274  40.948   2.172
97621W        W62606   4.492  15.613   4.462
97622W        W62607  36.934   6.156   2.639
97623W        W62608  33.941  32.895  12.632
97624W        W62609   9.843  31.573  12.512
97625W        W62610   5.067  13.124   1.169
97626W        W62611  16.677  19.753   4.575
97627W        W62612   3.453   1.177  11.598
97628W        W62613   3.194   8.292   3.155
97629W        W62614   8.836   3.582  12.632
97630W        W62615  38.502  23.241  14.968
97631W        W62616   3.275  39.115  10.449
97632W        W62617  14.682  15.524  12.967
97633W        W62618   8.401  21.335   2.209
97634W        W62619  33.364  37.393  10.272
97635W        W62620  14.838   7.350  12.930
97636W        W62621  21.188   3.567   4.137
97637W        W62622  24.236  18.261  13.169
97638W        W62623   6.583   6.211   6.002
97639W        W62624  23.619   5.592  12.586
97640W        W62625   4.356  41.382  12.147
97641W        W62626  14.613  29.073  14.459
97642W        W62627  24.650  12.656   1.290
97643W        W62628  40.500  42.068  13.130
97644W        W62629   2.388  19.243   3.966
97645W        W62630  29.312  14.388   4.218
97646W        W62631  10.924  36.421   3.285
97647W        W62632  37.647   4.861   3.273
97648W        W62633   6.235  39.127   3.658
97649W        W62634  36.642  23.278  12.125
97650W        W62635  14.104  18.330  11.125
97651W        W62636  25.029  31.667  13.878
97652W        W62637  13.876  35.636  13.451
97653W        W62638  24.762  44.980  11.531
97654W        W62639   8.315  28.578  13.119
97655W        W62640  20.975  37.579  12.021
97656W        W62641   5.774  27.902  11.610
97657W        W62642  40.095  10.685   2.066
97658W        W62643   6.604  12.010   0.718
97659W        W62644  25.125   0.606  14.904
97660W        W62645   7.954  14.374  11.317
97661W        W62646  39.214   6.725  11.089
97662W        W62647  34.884   9.875   0.388
97663W        W62648  44.315  29.048  10.751
97664W        W62649  17.155  43.846  13.930
97665W        W62650  16.129  20.368  10.253
97666W        W62651  14.358   4.505   2.379
97667W        W62652  26.544  17.538  14.760
97668W        W62653  11.398  10.158  11.044
97669W        W62654  34.418   9.622  10.124
97670W        W62655  37.092  27.414   0.990
97671W        W62656   7.798  29.782   0.740
97672W        W62657  26.554  22.355  12.956
97673W        W62658  36.987   4.249   1.287
97674W        W62659  13.281  32.586   3.446
97675W        W62660  26.510  31.595   0.295
97676W        W62661  22.867  10.058  13.398
97677W        W62662  44.418  10.407   0.706
97678W        W62663   2.878  13.414   1.808
97679W        W62664   1.775  28.675   3.215
97680W        W62665  25.642  18.641  12.841
97681W        W62666  35.362  37.107   0.071
97682W        W62667  44.003  27.860   3.025
97683W        W62668  17.012  16.589   4.163
97684W        W62669  35.803  44.509   0.799
97685W        W62670  24.346  36.402  13.203
97686W        W62671  11.393   1.504  12.861
97687W        W62672  43.933  26.990  10.642
97688W        W62673  34.548  23.549   2.261
97689W        W62674  22.093  22.980  12.113
97690W        W62675  25.744  12.888  10.321
97691W        W62676  37.813  43.494  11.553
97692W        W62677  25.330  38.942   1.465
97693W        W62678  43.008  20.970   3.829
97694W        W62679  21.624  30.159   0.818
97695W        W62680  26.706  35.548   2.768
97696W        W62681  34.833   2.079   3.368
97697W        W62682  25.458  24.852  10.035
97698W        W62683  14.636  42.558   1.929
97699W        W62684  41.505  44.673  11.131
97700W        W62685  37.990  31.087  11.978
97701W        W62686  11.338   2.380   1.919
97702W        W62687   0.569  44.991  12.624
97703W        W62688  19.295  40.791   3.948
97704W        W62689  28.412  23.607   1.865
97705W        W62690   2.741   9.253  10.829
97706W        W62691  25.583  24.171   2.324
97707W        W62692  28.058  17.321  10.495
97708W        W62693  24.571  30.878  13.554
97709W        W62694  20.907   2.008  14.906
97710W        W62695  22.994  19.020  13.093
97711W        W62696  18.204  12.331  14.405
97712W        W62697  35.903  13.147  14.318
97713W        W62698   4.633  35.267  11.949
97714W        W62699  25.175  34.147  13.561
97715W        W62700  19.482  32.739   0.256
97716W        W62701  29.064  37.573  13.317
97717W        W62702  32.549  10.281   0.747
97718W        W62703  36.244  13.898  12.638
97719W        W62704  13.575  24.652   3.170
97720W        W62705  40.734  42.314   1.665
97721W        W62706  23.564  30.261   9.819
97722W        W62707  22.498  21.786   2.386
97723W        W62708  14.628  19.721  13.966
97724W        W62709  18.304  12.873  12.305
97725W        W62710  25.864  41.173   1.238
97726W        W62711  28.092  24.789  11.650
97727W        W62712  31.685  23.525  14.062
97728W        W62713  22.484  28.989   4.946
97729W        W62714  43.426  42.771  12.954
97730W        W62715  22.554  38.369   3.921
97731W        W62716  30.610  41.512   3.188
97732W        W62717  11.036   9.817   0.939
97733W        W62718  32.109   4.773  10.837
97734W        W62719   7.642  19.474   3.683
97735W        W62720  41.277  43.210  12.121
97736W        W62721  34.825  40.128   0.952
97737W        W62722   7.943  35.402   0.931
97738W        W62723  16.294  26.574   5.277
97739W        W62724  19.290  24.642   3.580
97740W        W62725  36.773  41.605  13.543
97741W        W62726  21.229  28.410  10.752
97742W        W62727  11.866  26.516   0.926
97743W        W62728  35.938  34.383  11.962
97744W        W62729  18.702   4.723  12.471
97745W        W62730  35.850   9.255   1.317
97746W        W62731  43.679  40.575  14.721
97747W        W62732   2.405  33.367  11.221
97748W        W62733  26.084   8.773   0.094
97749W        W62734  37.518  13.081   4.916
97750W        W62735  40.126  24.195  12.238
97751W        W62736   7.609  16.645  13.449
97752W        W62737  43.801  30.799   3.702
97753W        W62738  38.063  37.501  12.968
97754W        W62739  34.279  30.608   3.518
97755W        W62740   2.807  14.085   1.242
97756W        W62741   5.108  38.059  10.982
97757W        W62742   3.725  39.836  12.086
97758W        W62743  22.568  34.619   2.722
97759W        W62744  17.285  29.521  12.872
97760W        W62745  23.523  44.927   4.010
97761W        W62746  42.792  34.728   2.752
97762W        W62747  10.277  30.918  14.540
97763W        W62748   0.810  19.008  10.870
97764W        W62749   7.128  23.157   1.528
97765W        W62750  36.910  10.880   0.185
97766W        W62751  14.430  26.017   4.206
97767W        W62752  24.670  19.362  11.728
97768W        W62753  18.359   6.481   0.279
97769W        W62754  14.122  37.115  12.113
97770W        W62755  36.034  42.073   4.667
97771W        W62756  20.290   8.086  13.975
97772W        W62757  17.412  31.163  13.979
97773W        W62758  10.777   3.814  12.213
97774W        W62759  26.979  38.884   3.607
97775W        W62760  31.214  11.090  12.438
97776W        W62761   1.475  36.327  12.339
97777W        W62762  19.913  23.519   3.209
97778W        W62763  23.609  21.640  11.987
97779W        W62764  24.845  14.308  13.078
97780W        W62765  20.177  21.195  11.978
97781W        W62766  39.130  40.501  13.417
97782W        W62767  43.866  11.532  12.548
97783W        W62768   1.809  41.370   0.599
97784W        W62769   0.324  21.449   2.227
97785W        W62770   5.086  35.073  11.720
97786W        W62771  35.353  41.596   2.312
97787W        W62772  22.600  35.311  14.971
97788W        W62773  23.559  41.420  11.651
97789W        W62774   6.462   1.276   3.829
97790W        W62775  15.002  32.032   1.783
97791W        W62776  36.526   2.708  14.027
97792W        W62777  19.269  31.470   3.291
97793W        W62778  23.972  33.616  10.049
97794W        W62779   5.176  31.846  10.569
97795W        W62780  41.906  29.970   2.196
97796W        W62781   4.875  32.897  11.579
97797W        W62782   6.985  30.564   3.229
97798W        W62783  39.013  37.281  12.088
97799W        W62784  19.912  44.198   2.135
97800W        W62785  26.569  34.119   3.858
97801W        W62786   0.890  31.887  14.056
97802W        W62787  34.859  25.893  11.679
97803W        W62788  39.021   3.824   4.216
97804W        W62789  15.050  27.295  12.651
97805W        W62790  14.809  24.019   3.161
97806W        W62791   9.605  34.557  13.858
97807W        W62792   9.288  34.323  14.849
97808W        W62793   7.807   8.184  11.074
97809W        W62794  24.501  36.557  10.566
97810W        W62795   3.835  17.295  13.161
97811W        W62796   2.089   9.470   2.378
97812W        W62797  31.729  11.160  14.393
97813W        W62798  43.935  23.207  14.482
97814W        W62799   1.207   8.908  14.065
97815W        W62800  24.140  21.258   0.706
97816W        W62801   0.204  44.184  12.405
97817W        W62802  36.571  22.171  10.759
97818W        W62803  36.990  32.404   2.800
97819W        W62804  44.261  22.249  12.081
97820W        W62805   5.245  26.248   0.756
97821W        W62806  29.394  18.691  11.201
97822W        W62807  15.921  37.316  12.149
97823W        W62808  37.051  40.249   4.117
97824W        W62809  27.114  38.518   2.698
97825W        W62810   2.416   5.439  12.446
97826W        W62811  39.300   3.545   2.313
97827W        W62812  38.565  37.532  12.953
97828W        W62813  38.491  26.677   0.751
97829W        W62814  32.961   3.040  12.127
97830W        W62815  11.241  35.523   2.370
97831W        W62816  10.784   8.602  13.935
97832W        W62817  41.007  41.756   4.517
97833W        W62818  29.614  38.654   4.067
97834W        W62819  35.140   6.662   0.843
97835W        W62820  40.387   5.535  11.274
97836W        W62821  13.224  18.821  14.348
97837W        W62822  21.649   5.294   0.808
97838W        W62823  10.291  21.163  14.744
97839W        W62824  24.524  20.813  10.373
97840W        W62825  11.603  28.028  12.643
97841W        W62826  23.447  15.332   1.316
97842W        W62827  17.258  16.058   3.093
97843W        W62828  10.844   5.842   0.680
97844W        W62829   9.948  26.787   1.351
97845W        W62830  39.961  26.616   4.862
97846W        W62831  15.566  39.834  12.064
97847W        W62832   1.584  16.805   4.165
97848W        W62833  33.580  42.924   1.250
97849W        W62834  24.755  16.687  11.329
97850W        W62835  29.801   8.844  11.075
97851W        W62836  23.920   1.351   1.505
97852W        W62837  19.016  43.379  11.918
97853W        W62838  14.597  26.564   1.475
97854W        W62839  35.456  21.596  10.918
97855W        W62840   2.707  29.408   2.375
97856W        W62841  35.834  16.894   3.163
97857W        W62842   1.150  14.391  10.414
97858W        W62843   6.437  13.981   4.909
97859W        W62844  44.353   0.697   3.799
97860W        W62845  16.262  23.833  14.014
97861W        W62846  41.987  37.343   0.906
97862W        W62847  34.815  31.959  14.321
97863W        W62848  18.115  13.595   2.668
97864W        W62849  11.909  31.345   4.764
97865W        W62850  38.345   1.929  14.566
97866W        W62851   4.223  44.516  14.422
97867W        W62852  36.011  11.235   1.037
97868W        W62853   7.359   7.200  13.279
97869W        W62854  42.878   8.398   1.908
97870W        W62855  31.451  25.509  12.815
97871W        W62856   2.458  42.530  14.152
97872W        W62857  35.199  27.085  12.973
97873W        W62858  40.481  25.394  13.992
97874W        W62859  15.361   2.872  14.208
97875W        W62860  35.516  38.764  14.772
97876W        W62861  17.509   1.234   2.626
97877W        W62862  18.221  21.200   2.316
97878W        W62863   1.962  27.558   1.364
97879W        W62864  18.604  33.369   1.677
97880W        W62865   6.209  10.842  11.300
97881W        W62866   0.210  18.850   0.299
97882W        W62867  22.204  31.554   1.625
97883W        W62868   6.582  39.366   1.463
97884W        W62869  24.304   8.564   5.093
97885W        W62870  41.351  32.600  13.730
97886W        W62871  39.302  34.309   0.425
97887W        W62872   9.874  11.856   3.704
97888W        W62873   5.341   4.969   4.728
97889W        W62874  14.733  21.263  13.906
97890W        W62875  14.665  39.370  13.994
97891W        W62876  35.103   4.210  14.043
97892W        W62877   4.241   3.127  13.616
97893W        W62878  22.229  44.685   1.246
97894W        W62879  19.839  17.646  14.030
97895W        W62880  32.045   4.106   4.249
97896W        W62881   0.766  18.925  11.916
97897W        W62882  44.930  36.730   1.679
97898W        W62883  34.613  10.155   3.638
97899W        W62884  27.099  29.092   4.052
97900W        W62885  26.172  43.012  13.455
97901W        W62886   4.243  14.336  11.267
97902W        W62887  28.728  29.136   3.785
97903W        W62888   9.753  16.659  13.342
97904W        W62889  19.923  18.659   0.361
97905W        W62890   2.770  25.532   2.869
97906W        W62891  28.246   6.160   2.285
97907W        W62892  36.409  10.462  12.005
97908W        W62893  34.345  27.625  12.229
97909W        W62894  29.987  22.918   2.559
97910W        W62895  33.163  19.750  11.195
97911W        W62896  43.897  44.067   1.187
97912W        W62897  42.283  31.662   1.374
97913W        W62898  13.584  21.052   4.616
97914W        W62899   3.448  23.572   4.062
97915W        W62900  36.166   4.885   2.225
97916W        W62901  12.816  39.801   2.621
97917W        W62902  15.195  16.906   0.274
97918W        W62903   0.417  39.370  14.695
97919W        W62904   1.027  35.533  12.581
97920W        W62905   1.689  32.051   4.704
97921W        W62906  23.309  20.990   3.032
97922W        W62907  32.122  39.866   2.740
97923W        W62908  20.591  23.645  13.888
97924W        W62909   5.843  43.144   0.493
97925W        W62910  36.505   9.663  14.078
97926W        W62911  44.061  27.394  10.371
97927W        W62912   3.499  42.866   4.862
97928W        W62913  38.365  43.298  13.139
97929W        W62914   9.434  20.307   0.316
97930W        W62915  12.291  26.646   0.603
97931W        W62916   4.977  38.421   1.191
97932W        W62917  37.356  29.488  12.468
97933W        W62918  14.742   0.132   4.560
97934W        W62919   7.633  16.718   1.229
97935W        W62920  37.309  23.075  13.808
97936W        W62921  22.256   5.897  12.796
97937W        W62922  13.266  35.064  13.713
97938W        W62923   7.337   0.298   1.255
97939W        W62924  18.672  41.029  10.524
97940W        W62925  33.430  27.506  10.625
97941W        W62926  44.333  44.542   0.834
97942W        W62927  42.603  24.021   2.312
97943W        W62928   9.778   8.074   3.299
97944W        W62929  24.787  36.280   0.215
97945W        W62930   3.399   3.327  14.999
97946W        W62931   3.949  10.775   3.774
97947W        W62932  29.659  10.015   2.227
97948W        W62933  22.562  35.570  13.471
97949W        W62934  10.294  26.249  12.140
97950W        W62935  16.458   4.334  11.621
97951W        W62936  20.757  14.489   4.547
97952W        W62937  36.031  38.014  13.333
97953W        W62938   7.134  21.482   3.346
97954W        W62939  44.351  28.636   2.012
97955W        W62940   6.609  16.543  13.260
97956W        W62941  32.603   7.118  11.985
97957W        W62942  12.982   0.848   1.901
97958W        W62943   4.163  35.846   1.397
97959W        W62944   3.248  12.388   4.243
97960W        W62945  13.148   0.925  11.245
97961W        W62946  43.236   0.981  12.979
97962W        W62947  36.265  29.732   2.167
97963W        W62948  22.197   8.667   3.126
97964W        W62949  43.732  17.287   2.174
97965W        W62950  18.938  28.585  14.768
97966W        W62951   4.545   9.385   0.315
97967W        W62952  33.163  12.119   1.180
97968W        W62953  29.115  24.894   1.216
97969W        W62954   7.624  44.333  11.578
97970W        W62955  14.711   8.515   3.669
97971W        W62956  36.639  37.876  14.005
97972W        W62957   9.621   9.489  11.359
97973W        W62958  17.940   4.506   4.836
97974W        W62959   4.877  44.385   4.664
97975W        W62960  14.773  40.743   4.014
97976W        W62961  42.882   9.363  14.057
97977W        W62962  12.110  14.239   0.716
97978W        W62963  15.008  25.578  13.056
97979W        W62964  27.015   5.361   4.169
97980W        W62965   8.408  16.505  11.123
97981W        W62966  40.012  42.901   0.858
97982W        W62967  12.886  40.884   3.094
97983W        W62968  18.603  38.535   0.847
97984W        W62969  44.567  20.713  10.211
97985W        W62970  19.867  22.998   1.003
97986W        W62971  36.584  27.486   4.075
97987W        W62972  26.739  28.458  10.609
97988W        W62973   1.343  25.396  12.172
97989W        W62974  41.821   8.784   0.374
97990W        W62975  40.840  33.004   3.334
97991W        W62976   4.394  37.594   3.776
97992W        W62977  19.823  31.531  10.919
97993W        W62978  35.355  26.483   1.773
97994W        W62979  32.994  43.788   1.866
97995W        W62980   0.216  22.715  12.565
97996W        W62981   6.463  20.148   0.324
97997W        W62982  35.136  16.610   0.865
97998W        W62983  26.692  40.108   1.219
97999W        W62984  12.319  30.566   4.232
98000W        W62985  29.920  29.624  14.363
98001W        W62986   0.508  18.068   1.719
98002W        W62987  17.276  31.041  10.575
98003W        W62988  43.288  27.962  12.450
98004W        W62989  36.516   1.617   0.892
98005W        W62990  14.423  33.054  10.778
98006W        W62991   1.269  37.577  12.850
98007W        W62992  24.854  16.870   4.250
98008W        W62993  37.974  18.393  11.007
98009W        W62994  18.875  31.404  11.236
98010W        W62995  34.634  41.222   2.769
98011W        W62996  13.045  10.158  12.994
98012W        W62997  13.708  26.005   3.127
98013W        W62998   1.230  19.651   4.252
98014W        W62999  30.903   6.886  13.971
98015W        W63000  26.597  42.824  10.251
98016W        W63001   4.725  20.396  11.978
98017W        W63002  30.572  23.043  14.033
98018W        W63003  12.682  35.310  14.057
98019W        W63004  37.939  38.493   1.815
98020W        W63005   3.905  37.956   1.142
98021W        W63006  30.958  16.261  11.172
98022W        W63007   6.750  25.682  11.934
98023W        W63008   8.195   9.343  12.906
98024W        W63009  10.604  40.400   0.438
98025W        W63010   6.626  12.605   2.751
98026W        W63011  27.873  19.006  14.053
98027W        W63012  15.937  39.751   3.898
98028W        W63013  43.898  30.741   2.685
98029W        W63014  44.913  17.091   3.744
98030W        W63015  26.524  21.067   4.982
98031W        W63016  22.452  10.256   5.132
98032W        W63017  43.642  30.561  14.370
98033W        W63018  36.092   0.329   4.218
98034W        W63019  34.158  31.460  12.452
98035W        W63020  35.976   7.856  13.395
98036W        W63021  24.309  25.105   2.477
98037W        W63022  25.382  20.930  14.380
98038W        W63023  34.884   7.865   3.378
98039W        W63024  20.660  31.818  14.112
98040W        W63025  21.306  21.025   0.937
98041W        W63026   5.038  17.317  10.640
98042W        W63027  30.492  33.456   1.010
98043W        W63028  25.714   5.499   4.692
98044W        W63029  12.646  21.616  12.075
98045W        W63030  40.964  30.967   4.580
98046W        W63031  12.017  36.502  10.559
98047W        W63032   9.669   8.898  13.450
98048W        W63033  18.128  32.372  12.851
98049W        W63034   2.075  10.466   2.070
98050W        W63035  42.846   1.076  14.293
98051W        W63036  24.201  33.301  13.030
98052W        W63037   1.862  36.910   0.251
98053W        W63038  38.418  14.958  12.668
98054W        W63039  24.516   5.284  13.490
98055W        W63040  30.640  17.127   2.829
98056W        W63041   2.747  17.725   1.327
98057W        W63042  30.025  32.685   0.448
98058W        W63043   9.259  41.897  11.467
98059W        W63044  20.574  24.700  14.883
98060W        W63045  24.989  13.756  10.646
98061W        W63046  35.431   2.307   2.178
98062W        W63047  19.350  43.539  10.670
98063W        W63048  32.623  29.075   4.151
98064W        W63049  43.054  16.501   0.981
98065W        W63050  38.423  13.118  12.048
98066W        W63051   2.202  22.719   4.192
98067W        W63052   1.858  44.874  13.844
98068W        W63053  31.440  25.611  10.657
98069W        W63054  29.917  29.274   4.212
98070W        W63055  17.346   6.735   1.203
98071W        W63056  31.408  44.812  10.804
98072W        W63057  43.587  39.367  14.752
98073W        W63058  34.149  32.352   4.811
98074W        W63059  35.260  36.134   4.952
98075W        W63060  10.595  18.832  14.439
98076W        W63061  34.853   7.206  14.016
98077W        W63062  40.207   1.415   2.258
98078W        W63063  23.197  15.503  12.075
98079W        W63064  22.550  26.528   3.866
98080W        W63065  23.095  28.194   3.828
98081W        W63066  43.456   4.165   3.284
98082W        W63067  44.150  41.502  13.418
98083W        W63068  28.320   0.699   4.965
98084W        W63069  35.934   7.654  10.234
98085W        W63070   4.426  15.888   2.949
98086W        W63071  42.456  43.287  12.081
98087W        W63072  13.187  20.769   2.869
98088W        W63073  42.817  27.457   3.130
98089W        W63074   6.435  19.934   1.321
98090W        W63075  18.752  38.860   2.935
98091W        W63076   0.928   1.296   4.286
98092W        W63077  13.048  42.286  10.729
98093W        W63078  24.718  41.829  13.283
98094W        W63079  14.497  18.210  12.070
98095W        W63080  31.514  20.635  12.137
98096W        W63081  25.717   8.159  12.021
98097W        W63082   4.377  34.360   1.903
98098W        W63083  31.183   1.321  12.812
98099W        W63084  17.700  14.732   3.324
98100W        W63085   2.836  15.441   3.608
98101W        W63086  36.477   1.774   0.386
98102W        W63087   6.139  12.326  12.914
98103W        W63088  22.674  26.043   0.360
98104W        W63089  38.424  16.269   1.487
98105W        W63090   6.315  16.947   0.782
98106W        W63091  41.468  38.622  11.740
98107W        W63092  36.055  12.146  14.130
98108W        W63093  13.155   5.363  11.635
98109W        W63094   2.914   6.019  14.821
98110W        W63095  42.820  12.262  12.990
98111W        W63096  21.769  29.694  10.816
98112W        W63097  19.787  40.350  14.418
98113W        W63098  27.148  17.300  12.999
98114W        W63099  10.852  26.073  13.802
98115W        W63100  12.373  40.918  12.572
98116W        W63101  35.620  19.897   4.327
98117W        W63102  40.775  43.736   1.451
98118W        W63103  25.448   2.903  12.504
98119W        W63104  11.145  35.977   0.640
98120W        W63105  27.556   9.845  14.786
98121W        W63106   7.591  43.844  12.092
98122W        W63107  14.600  31.504  10.674
98123W        W63108  34.573  41.788  12.070
98124W        W63109  14.850   5.187  11.530
98125W        W63110  26.511   8.186  14.553
98126W        W63111  32.635  44.335   4.031
98127W        W63112  12.224  21.495  13.082
98128W        W63113  40.241  16.184   3.105
98129W        W63114  32.907  22.762  13.462
98130W        W63115   5.461  24.536  13.532
98131W        W63116  20.458   2.607   3.732
98132W        W63117  43.935   5.465  14.477
98133W        W63118  41.007   3.939   4.141
98134W        W63119  32.919  10.268   3.158
98135W        W63120   5.675   2.714  12.560
98136W        W63121  41.366  30.155  14.000
98137W        W63122  43.230  22.439  13.815
98138W        W63123  10.769   5.053  10.229
98139W        W63124  36.282  20.043   3.795
98140W        W63125  44.026  38.549  10.160
98141W        W63126  18.063   7.974  11.432
98142W        W63127  12.093  30.410   1.303
98143W        W63128  30.046  36.422  14.089
98144W        W63129  41.254  20.107  14.056
98145W        W63130  29.337  33.525  10.829
98146W        W63131  36.305   7.789  13.798
98147W        W63132  27.642  27.113  11.576
98148W        W63133  23.052  29.362  11.442
98149W        W63134  17.150  16.911  11.051
98150W        W63135   6.912  12.290   0.402
98151W        W63136  18.566  23.140  13.222
98152W        W63137  42.600  17.686  13.982
98153W        W63138  35.627  25.610  12.617
98154W        W63139   1.423  40.008   4.119
98155W        W63140  19.213  14.054  10.642
98156W        W63141  33.155  25.550   1.190
98157W        W63142  14.408  38.013   2.769
98158W        W63143  25.247  10.597   2.821
98159W        W63144  31.022  18.985  14.543
98160W        W63145  37.879  37.462   1.693
98161W        W63146  24.585  24.742  14.512
98162W        W63147  37.821   8.760   4.520
98163W        W63148  28.491   2.209   1.860
98164W        W63149  12.088  23.023  13.533
98165W        W63150  19.044  43.864   1.885
98166W        W63151  28.457  22.470   0.309
98167W        W63152  15.627  11.346  14.271
98168W        W63153  30.126  44.765  12.085
98169W        W63154  19.679  22.038  12.813
98170W        W63155  26.536  37.119  12.461
98171W        W63156  16.616  22.237   2.411
98172W        W63157   2.385  32.440  12.110
98173W        W63158  16.665   4.429  14.329
98174W        W63159  25.706  13.726  12.552
98175W        W63160  31.220   0.739   3.269
98176W        W63161  27.715  34.375  12.596
98177W        W63162  40.510  29.965   0.392
98178W        W63163  10.332  42.793   9.974
98179W        W63164   8.305  35.747  14.296
98180W        W63165  28.424  15.628  10.964
98181W        W63166  30.830  12.168   4.144
98182W        W63167  34.585  10.152   4.949
98183W        W63168  20.822  12.110   1.015
98184W        W63169  36.104  29.517  14.838
98185W        W63170   7.831  36.483   1.043
98186W        W63171   9.497  40.624  12.036
98187W        W63172  38.996   5.271  12.993
98188W        W63173  36.279  21.464   3.597
98189W        W63174  23.179  39.024   3.758
98190W        W63175  37.773  18.210  11.461
98191W        W63176   2.542  24.704  12.192
98192W        W63177  33.658  30.195  14.353
98193W        W63178  41.316  26.706  12.000
98194W        W63179  44.313  18.332   4.933
98195W        W63180  22.188  23.151   2.788
98196W        W63181  41.500  28.593   2.494
98197W        W63182  17.069   1.491   2.765
98198W        W63183  27.003   6.204   1.643
98199W        W63184  42.797  42.219   2.673
98200W        W63185  11.379   2.862   4.489
98201W        W63186  43.245  29.670  11.040
98202W        W63187  11.724   5.108  14.375
98203W        W63188  18.548  25.941   2.730
98204W        W63189  39.393  36.244   3.065
98205W        W63190  13.694  20.445  10.973
98206W        W63191  13.297  35.334   1.762
98207W        W63192  29.070  29.506  13.331
98208W        W63193  15.795  30.410   9.789
98209W        W63194   8.173   6.275  10.214
98210W        W63195  17.224  15.604  11.459
98211W        W63196  40.314  41.162   2.386
98212W        W63197  31.107   3.979  13.455
98213W        W63198   2.526  26.956   3.455
98214W        W63199  29.239   4.670  13.836
98215W        W63200  20.804  19.960  10.838
98216W        W63201  13.833   9.046   1.807
98217W        W63202   7.896  39.894  13.145
98218W        W63203  32.569  17.116   2.300
98219W        W63204  37.467   5.377   1.741
98220W        W63205  34.877  14.393   3.080
98221W        W63206  32.978   1.722   4.526
98222W        W63207  27.556  14.735  14.748
98223W        W63208  24.594   1.344   0.361
98224W        W63209  35.793   9.671  11.083
98225W        W63210  32.012  12.642   9.980
98226W        W63211   2.753  16.269   0.375
98227W        W63212  25.713  23.086   3.331
98228W        W63213  36.933  27.367   4.445
98229W        W63214  29.687  28.520  14.966
98230W        W63215  19.786  31.603   3.339
98231W        W63216  42.253   9.682   3.251
98232W        W63217  14.319  29.503   2.466
98233W        W63218  16.971   2.867   4.160
98234W        W63219  22.571  18.507   1.385
98235W        W63220  40.170  34.840  14.518
98236W        W63221  16.432  11.801  13.342
98237W        W63222  40.329   9.749  11.802
98238W        W63223  22.672  29.530  14.048
98239W        W63224  44.347  40.571   2.346
98240W        W63225  12.693  14.638  12.558
98241W        W63226  31.040  38.331   3.027
98242W        W63227   4.399   6.829  13.018
98243W        W63228   8.649  31.827   4.114
98244W        W63229  25.735  21.700  14.452
98245W        W63230  34.592  22.521   0.335
98246W        W63231   5.698   6.937   4.624
98247W        W63232  42.051   8.348  12.177
98248W        W63233  41.763  38.798   2.008
98249W        W63234  28.087  22.892  12.844
98250W        W63235  10.363   3.950   4.842
98251W        W63236  20.195  27.995   3.554
98252W        W63237  31.173   1.268  13.993
98253W        W63238  26.625  30.153  13.435
98254W        W63239   0.968  23.635   3.767
98255W        W63240  12.135  26.746  14.241
98256W        W63241  24.467   3.254   1.678
98257W        W63242  12.077  13.069  11.899
98258W        W63243  26.044  20.102  11.118
98259W        W63244  37.987   4.231   4.088
98260W        W63245  39.494  17.225   2.494
98261W        W63246  43.131  41.807   0.448
98262W        W63247  25.561  34.376   1.491
98263W        W63248  35.058   7.625   1.860
98264W        W63249   2.350  24.708  11.718
98265W        W63250  43.783  33.555  13.979
98266W        W63251  42.225  10.798   4.065
98267W        W63252   6.088  40.767  12.077
98268W        W63253  20.698  29.156  13.781
98269W        W63254  39.538  13.134   3.940
98270W        W63255  24.167   9.877   2.635
98271W        W63256  23.019   4.467   2.988
98272W        W63257   1.765  28.336   2.391
98273W        W63258  38.855  41.993   0.769
98274W        W63259  35.012  42.059  11.239
98275W        W63260  30.589  14.742   4.654
98276W        W63261  28.064  26.981  14.981
98277W        W63262   5.951  44.021  13.042
98278W        W63263  34.955   6.383   3.197
98279W        W63264  22.083  25.446  11.959
98280W        W63265   5.189  28.923   3.328
98281W        W63266   9.800  41.034  12.049
98282W        W63267   4.756  36.904   3.469
98283W        W63268  28.630  41.781  14.054
98284W        W63269  29.172  36.161   0.814
98285W        W63270   2.455  44.187  12.392
98286W        W63271  27.112   7.975   3.805
98287W        W63272  42.442  10.302  11.522
98288W        W63273   3.249  18.715  14.862
98289W        W63274  31.119  42.503   1.468
98290W        W63275   9.236  17.572   3.099
98291W        W63276  25.662  15.797  12.623
98292W        W63277  26.737  18.694   2.165
98293W        W63278  25.266  26.960  13.458
98294W        W63279   4.277  37.675  10.541
98295W        W63280  29.212   2.722   2.735
98296W        W63281  21.636  34.050  14.950
98297W        W63282  14.268  43.972  14.476
98298W        W63283  10.806  43.006  10.285
98299W        W63284  25.750  15.074   0.325
98300W        W63285  24.063  39.817   3.202
98301W        W63286  33.320   1.233  11.132
98302W        W63287   7.663  10.380   0.345
98303W        W63288  12.934  43.560  14.322
98304W        W63289  38.899  31.469  14.437
98305W        W63290  37.419  24.378  11.950
98306W        W63291  44.780  18.136  11.992
98307W        W63292  30.526   3.166   1.910
98308W        W63293   8.583  23.529   0.249
98309W        W63294  14.617  13.387  12.485
98310W        W63295  33.976   4.125   2.205
98311W        W63296  31.433  14.775   2.351
98312W        W63297   9.376  26.013  12.152
98313W        W63298  36.662  35.077  13.594
98314W        W63299  33.175  16.016  11.810
98315W        W63300  23.722  34.073   4.252
98316W        W63301  10.368  24.660  11.568
98317W        W63302   3.490  40.872   3.759
98318W        W63303  28.537   2.924  14.309
98319W        W63304   9.231  30.661   2.266
98320W        W63305  29.024  43.429  14.527
98321W        W63306  19.257  28.076   1.309
98322W        W63307   0.895  30.262  10.716
98323W        W63308  16.173  29.814   5.502
98324W        W63309   7.624  21.749  14.318
98325W        W63310  33.469  15.592  14.023
98326W        W63311  32.501  42.835   1.715
98327W        W63312   0.802   3.487  14.951
98328W        W63313  30.431   2.378  13.487
98329W        W63314   6.436   3.278   1.207
98330W        W63315   0.858  27.940  12.057
98331W        W63316  22.460  11.821   0.903
98332W        W63317   1.208  30.203   3.210
98333W        W63318  25.515  43.568   0.955
98334W        W63319  29.455  33.306  12.138
98335W        W63320  17.310  40.416   3.657
98336W        W63321  26.208  32.149  13.681
98337W        W63322  11.673  10.415  11.948
98338W        W63323   0.445  38.438  11.189
98339W        W63324   5.385  35.961   0.514
98340W        W63325   4.345  37.820  13.219
98341W        W63326   5.723  15.632  11.038
98342W        W63327  33.632  30.259   2.282
98343W        W63328  13.585   3.742   2.234
98344W        W63329   5.286  43.897   1.312
98345W        W63330  43.336   0.823   1.851
98346W        W63331   8.186  36.125  12.827
98347W        W63332  13.457  13.888  11.320
98348W        W63333   4.171  32.166  13.716
98349W        W63334  26.591  19.220   4.664
98350W        W63335  17.270   6.255   1.951
98351W        W63336  27.554   1.768   3.172
98352W        W63337  30.365  20.059  12.088
98353W        W63338   0.718  43.036  11.313
98354W        W63339  34.069  23.751   4.637
98355W        W63340   6.698  14.242  14.820
98356W        W63341   4.648   2.920   0.790
98357W        W63342  13.866  24.450   3.649
98358W        W63343   2.000  17.454   3.243
98359W        W63344  15.614  33.527  13.521
98360W        W63345  42.932  42.901   3.589
98361W        W63346  22.458  23.701  14.768
98362W        W63347  21.704  35.576   4.726
98363W        W63348  29.013  14.079  10.851
98364W        W63349  43.646  12.065   2.457
98365W        W63350  11.678  44.467   3.592
98366W        W63351  28.095  31.605  14.738
98367W        W63352  40.347  32.633   2.758
98368W        W63353  15.134  15.810  12.909
98369W        W63354  12.702  23.466  14.300
98370W        W63355  15.536  36.373   4.982
98371W        W63356  14.233   9.545   5.061
98372W        W63357  44.717  37.912   3.392
98373W        W63358  24.451   4.146   1.228
98374W        W63359  23.032  42.782   1.289
98375W        W63360   3.633   0.436  13.818
98376W        W63361   5.158  14.210   2.816
98377W        W63362  44.525  24.088   4.524
98378W        W63363  16.290  28.217  13.860
98379W        W63364  18.594  11.377   2.869
98380W        W63365   1.914  25.029  12.862
98381W        W63366  23.115  40.500  10.026
98382W        W63367  33.841   1.279  11.130
98383W        W63368   6.150  36.787   4.100
98384W        W63369  44.337  43.403   1.626
98385W        W63370   1.799  21.630   3.813
98386W        W63371  23.220  24.185  12.465
98387W        W63372  30.878  38.016   3.649
98388W        W63373  32.415  22.136   3.756
98389W        W63374  41.542  29.425   0.476
98390W        W63375  31.648  17.738   0.657
98391W        W63376  39.821  26.987  13.871
98392W        W63377  28.887  14.244  13.823
98393W        W63378  25.453   0.654   5.437
98394W        W63379  34.405  18.131   0.725
98395W        W63380  35.992  25.991   0.931
98396W        W63381  13.267  11.216  11.033
98397W        W63382  43.383  12.687  13.547
98398W        W63383  43.827   0.441  12.469
98399W        W63384  38.955  12.381  11.956
98400W        W63385  23.919  39.527  12.083
98401W        W63386   0.539  17.529   4.104
98402W        W63387  44.771   2.271   4.624
98403W        W63388   7.747   0.992  13.638
98404W        W63389  24.733  22.492   4.835
98405W        W63390  37.200  34.217   4.959
98406W        W63391  32.037  31.862  12.456
98407W        W63392  30.187  26.661   2.737
98408W        W63393  42.397  42.960   2.833
98409W        W63394  37.821   5.792   2.732
98410W        W63395  12.114  40.761  13.052
98411W        W63396  39.432  26.689   2.941
98412W        W63397   2.870  32.431  13.510
98413W        W63398   5.751  40.929  12.907
98414W        W63399  21.470   1.829   2.321
98415W        W63400  27.776  11.109  10.736
98416W        W63401  30.908  43.583  13.980
98417W        W63402   3.797  22.997  11.552
98418W        W63403  39.950   5.147   0.936
98419W        W63404  15.297  16.234   4.527
98420W        W63405  25.334  32.072  12.477
98421W        W63406  20.045  21.484   1.828
98422W        W63407   7.173   5.260  11.982
98423W        W63408  31.026  13.244  11.179
98424W        W63409  37.291  23.323  12.938
98425W        W63410   0.357  27.070  10.583
98426W        W63411  33.670  43.577  12.553
98427W        W63412  30.722  28.027  10.956
98428W        W63413  16.095  13.583   0.042
98429W        W63414  10.453  37.070   1.322
98430W        W63415  30.071  33.639   0.355
98431W        W63416  11.324  24.022   4.386
98432W        W63417  15.847  31.896  14.034
98433W        W63418  26.812   3.376   0.510
98434W        W63419  10.700  10.794   4.735
98435W        W63420   4.259  23.029  12.646
98436W        W63421  37.732   7.949  10.388
98437W        W63422  35.966  20.441   2.367
98438W        W63423  17.680  41.012   2.227
98439W        W63424  24.841  12.172  11.086
98440W        W63425   3.407  14.536   1.926
98441W        W63426  25.998   4.754   0.910
98442W        W63427  18.243  24.744   0.922
98443W        W63428  13.381   3.616  13.105
98444W        W63429  25.125  20.034   1.674
98445W        W63430   9.687  12.158   1.575
98446W        W63431  39.827   2.250   2.001
98447W        W63432  12.319   4.488  12.027
98448W        W63433  16.610  31.127   1.208
98449W        W63434  17.764  21.695   4.525
98450W        W63435  43.583   9.205  12.034
98451W        W63436   6.855   3.981   1.242
98452W        W63437   6.711  10.268  12.482
98453W        W63438   8.410  22.592  12.483
98454W        W63439  36.615  11.694   2.212
98455W        W63440  24.458   0.853  10.648
98456W        W63441  42.328  10.597   0.220
98457W        W63442  36.331  35.144  12.323
98458W        W63443  22.243  17.125  12.437
98459W        W63444   7.765  34.545   1.463
98460W        W63445  40.865  31.227  13.837
98461W        W63446   6.785   4.047   0.015
98462W        W63447  34.591  15.655   4.085
98463W        W63448  28.327  32.614   2.329
98464W        W63449  18.330   1.796  14.038
98465W        W63450  30.682   1.742   4.712
98466W        W63451  23.035  31.025   1.093
98467W        W63452  21.638  18.387   9.688
98468W        W63453  44.193  29.671   3.715
98469W        W63454  44.403   7.283  12.776
98470W        W63455  23.389  26.457  12.635
98471W        W63456   5.787  44.391   0.843
98472W        W63457  15.785  38.922  11.713
98473W        W63458  22.123  40.040  11.583
98474W        W63459  28.598  20.848   1.152
98475W        W63460  39.790  30.070  13.769
98476W        W63461  20.154   6.355  10.783
98477W        W63462  17.046  38.494   4.293
98478W        W63463  30.739  39.447   9.993
98479W        W63464  18.734  10.075  10.031
98480W        W63465  30.986  26.648  13.539
98481W        W63466  16.502  16.617   4.177
98482W        W63467  17.129   6.780   0.728
98483W        W63468  24.691   8.742   2.313
98484W        W63469  39.367  35.135  12.090
98485W        W63470  19.007  29.729   3.199
98486W        W63471   3.283  19.562   2.354
98487W        W63472  15.054  23.613   4.577
98488W        W63473  31.176   8.703   2.233
98489W        W63474  17.226  23.733  11.579
98490W        W63475  32.421   3.860  14.069
98491W        W63476  41.303  17.120   2.276
98492W        W63477  36.211  23.050   0.931
98493W        W63478  38.079  36.353  10.549
98494W        W63479  20.089  43.345   2.237
98495W        W63480  41.270  41.526   2.238
98496W        W63481  12.758   5.019   4.903
98497W        W63482  30.898  40.869   1.895
98498W        W63483  37.536  15.576   1.205
98499W        W63484   1.770   6.269  11.055
98500W        W63485   5.280  16.331   1.288
98501W        W63486  42.526  32.424   0.846
98502W        W63487  27.671  11.347  12.922
98503W        W63488  28.960  24.748   0.302
98504W        W63489  30.392   2.882   3.019
98505W        W63490  25.201   4.350   2.189
98506W        W63491  13.845  20.061   0.504
98507W        W63492   6.157   3.522  14.438
98508W        W63493  21.404  21.975  12.505
98509W        W63494   3.239  44.958   1.349
98510W        W63495  41.905  10.753   1.896
98511W        W63496  36.138  37.439  11.713
98512W        W63497  21.267   5.920   0.007
98513W        W63498  44.035  23.205   1.842
98514W        W63499  28.641  42.052   2.652
98515W        W63500  29.951  12.671   4.251
98516W        W63501  38.934   6.332  14.679
98517W        W63502   1.977  11.104  14.085
98518W        W63503  38.456  22.964  14.514
98519W        W63504  27.427  12.515   3.181
98520W        W63505  19.294  40.292   4.081
98521W        W63506  40.419  27.525  14.828
98522W        W63507  18.481   5.425   3.137
98523W        W63508  36.985   8.395   3.656
98524W        W63509   5.190  44.815   4.607
98525W        W63510  10.567   0.431  14.029
98526W        W63511  19.173  36.986   2.552
98527W        W63512   4.877  31.646  14.426
98528W        W63513  37.513  13.142  11.566
98529W        W63514  14.312  36.356   0.766
98530W        W63515  24.388  20.084  14.790
98531W        W63516   3.446  38.482  12.160
98532W        W63517  33.424   2.495  11.492
98533W        W63518  19.221  42.396   0.740
98534W        W63519   0.969  31.285  12.510
98535W        W63520   7.024  21.653   1.977
98536W        W63521  39.281  18.176   2.497
98537W        W63522  23.443  28.706   0.354
98538W        W63523  36.116  20.697   4.213
98539W        W63524  23.401  25.485  12.074
98540W        W63525  31.068   7.872  11.931
98541W        W63526  32.268  13.676   4.405
98542W        W63527   2.508   1.455   2.166
98543W        W63528  44.311  25.888   1.831
98544W        W63529   7.973   8.611  13.372
98545W        W63530  31.041  11.926   2.145
98546W        W63531  14.612  40.833  14.253
98547W        W63532   5.387   3.785  12.021
98548W        W63533  16.539  30.910   0.728
98549W        W63534  40.916  29.761   5.041
98550W        W63535  19.732  30.122   2.835
98551W        W63536  31.492  27.449  11.221
98552W        W63537   9.815  43.442  12.126
98553W        W63538  11.785  24.187  12.947
98554W        W63539   6.422  25.260  11.080
98555W        W63540  38.473  27.454  10.618
98556W        W63541   6.786  37.629  14.013
98557W        W63542  31.615  19.594  11.994
98558W        W63543   2.497  14.058  10.315
98559W        W63544   6.003  42.332  14.824
98560W        W63545  38.865  17.072   0.324
98561W        W63546  34.840  11.305  10.236
98562W        W63547  32.029  27.277  10.683
98563W        W63548  31.870  25.078  14.454
98564W        W63549   6.277  13.819  14.328
98565W        W63550   1.154  17.241  12.069
98566W        W63551  39.112   0.774  12.315
98567W        W63552  30.746   9.393  13.514
98568W        W63553  44.746   4.464   3.985
98569W        W63554  16.177  13.522  10.765
98570W        W63555  42.055  19.459  14.007
98571W        W63556  19.693  27.757  10.615
98572W        W63557  30.639  28.571   4.177
98573W        W63558   6.789  37.499  11.524
98574W        W63559  25.621  35.349   1.302
98575W        W63560  18.815  26.057  11.156
98576W        W63561   6.294  44.258   0.697
98577W        W63562  30.837  39.294  12.501
98578W        W63563  11.698  37.156  11.223
98579W        W63564  23.823  19.388   9.981
98580W        W63565  32.603  16.609  14.756
98581W        W63566   9.200  20.169  10.333
98582W        W63567  19.637  42.264   3.734
98583W        W63568  44.353  22.493   3.200
98584W        W63569  13.670   8.853  13.661
98585W        W63570   7.360  29.467   0.745
98586W        W63571  43.537  27.165  11.986
98587W        W63572  38.164   5.395   2.754
98588W        W63573  39.447  24.798   1.895
98589W        W63574  19.718  19.774   0.988
98590W        W63575  17.313   2.390   1.495
98591W        W63576  11.160  41.479  10.459
98592W        W63577  43.166  39.224   0.378
98593W        W63578  34.475  44.399   2.413
98594W        W63579  32.748   3.079   1.380
98595W        W63580  25.119  43.797  14.418
98596W        W63581  43.880  25.417   4.531
98597W        W63582  14.250  31.381  13.505
98598W        W63583  43.846   4.687   4.344
98599W        W63584  28.964   3.162   2.668
98600W        W63585   9.227  39.428  14.001
98601W        W63586  35.921  44.823  13.430
98602W        W63587  29.703  29.147   3.109
98603W        W63588  16.474  43.920   1.453
98604W        W63589  34.962   6.276   4.425
98605W        W63590  21.509  35.828  13.418
98606W        W63591  31.187  18.552  14.302
98607W        W63592  16.847   9.752  10.872
98608W        W63593  17.531  14.039   1.389
98609W        W63594  37.204  39.795  11.474
98610W        W63595  31.941  30.616   0.940
98611W        W63596  44.795  34.915   3.564
98612W        W63597  32.031   6.960   0.024
98613W        W63598  10.031  31.960  11.876
98614W        W63599   7.480  27.698  11.312
98615W        W63600  38.834  34.608  12.042
98616W        W63601   3.329  44.008  14.291
98617W        W63602  29.191   3.403  11.172
98618W        W63603  14.147  41.369  12.543
98619W        W63604  16.432  15.111   1.419
98620W        W63605  11.357  35.573  13.960
98621W        W63606  30.864  10.856  14.447
98622W        W63607  32.706   9.512   9.750
98623W        W63608  42.393  37.976   9.915
98624W        W63609  24.681  44.707  11.095
98625W        W63610  43.884   3.807  12.867
98626W        W63611  35.015  40.908   2.598
98627W        W63612   1.263  12.046  13.183
98628W        W63613  24.217  34.533  14.855
98629W        W63614  31.170  30.710  14.451
98630W        W63615  19.719  20.249  12.989
98631W        W63616  37.844  22.823   1.817
98632W        W63617  21.558   4.463  11.351
98633W        W63618  34.150  41.300   0.974
98634W        W63619   6.234  43.094   3.029
98635W        W63620   3.453  40.879  13.417
98636W        W63621  37.765  19.138  13.359
98637W        W63622  24.509  42.780  14.914
98638W        W63623  14.478  42.161  14.081
98639W        W63624  15.747   8.323  11.052
98640W        W63625  13.436  13.216   0.714
98641W        W63626  17.097  22.521   4.563
98642W        W63627   0.657   7.707   3.740
98643W        W63628  25.922  38.918   2.077
98644W        W63629  12.583  23.042  13.390
98645W        W63630   2.955   0.310   0.361
98646W        W63631   2.840  13.326  12.444
98647W        W63632  20.370  17.704  10.314
98648W        W63633   7.218   1.252  14.964
98649W        W63634  41.593   0.745  13.688
98650W        W63635   5.135  42.974  13.019
98651W        W63636  38.479  43.493  14.155
98652W        W63637  34.379  19.134   0.400
98653W        W63638  27.983   1.988  12.916
98654W        W63639  11.180  16.604   2.539
98655W        W63640  32.475  28.393  12.356
98656W        W63641   1.665  32.703  14.896
98657W        W63642   2.022  32.039   2.396
98658W        W63643  30.922  42.233   1.859
98659W        W63644  35.380  13.843   3.756
98660W        W63645  15.315   2.651  11.142
98661W        W63646  10.595   7.727   3.515
98662W        W63647  13.714  31.822   1.903
98663W        W63648  23.887  32.200   1.028
98664W        W63649  29.548   9.897  12.548
98665W        W63650   0.354   4.460   2.369
98666W        W63651  31.936  43.879   2.205
98667W        W63652  38.338  24.710  14.061
98668W        W63653  21.245   9.294  11.237
98669W        W63654  40.545  29.651   4.288
98670W        W63655  13.313  19.608  14.978
98671W        W63656  10.415  23.709   2.362
98672W        W63657  39.267   7.533   2.899
98673W        W63658  27.714  13.744  13.715
98674W        W63659   3.397  37.747  11.144
98675W        W63660   0.485  11.130  11.242
98676W        W63661   2.177  21.274   2.281
98677W        W63662  21.024  31.668   0.301
98678W        W63663   1.833  35.976   2.316
98679W        W63664   3.279   4.269  10.863
98680W        W63665   5.829  15.173  12.405
98681W        W63666   2.398  23.082   2.842
98682W        W63667  42.728  32.508  12.036
98683W        W63668  11.655  19.773   2.386
98684W        W63669  40.852  11.205   1.588
98685W        W63670  10.867  35.848  11.230
98686W        W63671  25.436  31.813   0.909
98687W        W63672  40.263  33.493  13.394
98688W        W63673  10.141  31.083   1.386
98689W        W63674  22.110  10.275   2.320
98690W        W63675  14.793  40.067  12.714
98691W        W63676  23.878  31.928  10.616
98692W        W63677  10.696  33.771  13.114
98693W        W63678  41.433  14.924   0.346
98694W        W63679  35.443   6.104   0.498
98695W        W63680   7.880  13.616  14.860
98696W        W63681  30.962   3.666  13.026
98697W        W63682  13.560   1.825  10.310
98698W        W63683  22.833  16.585  12.859
98699W        W63684  35.185  11.433  10.617
98700W        W63685  42.606   8.197  12.148
98701W        W63686   5.327   7.294   1.858
98702W        W63687  19.024  37.484   2.600
98703W        W63688  27.128  43.475   1.233
98704W        W63689  21.658  34.549   0.725
98705W        W63690  17.520   4.578   3.143
98706W        W63691  44.729  13.765  10.724
98707W        W63692  11.286  30.446  11.624
98708W        W63693   1.725  12.779   0.963
98709W        W63694   3.701  33.762   0.787
98710W        W63695  25.782   4.358   3.184
98711W        W63696  17.571  33.646  13.298
98712W        W63697  41.783   2.328   0.268
98713W        W63698  12.701   4.928  12.441
98714W        W63699  43.915   0.280   3.694
98715W        W63700   8.784  18.050  10.788
98716W        W63701  18.681   6.227  12.226
98717W        W63702  23.237  12.572  13.653
98718W        W63703  44.913   6.204   4.123
98719W        W63704  35.792   3.969   4.126
98720W        W63705  28.322   0.367  10.203
98721W        W63706  31.912  44.013   0.774
98722W        W63707  44.063  31.228  13.407
98723W        W63708  42.334  20.702   4.461
98724W        W63709  15.234  13.724   3.585
98725W        W63710   9.726  15.189  12.184
98726W        W63711   7.302  28.052   2.049
98727W        W63712  19.180  12.404  12.624
98728W        W63713  32.125  21.774   4.919
98729W        W63714  33.031  13.108  13.400
98730W        W63715  31.574   1.308  11.872
98731W        W63716  13.164  16.207  12.595
98732W        W63717  28.246  10.832  11.238
98733W        W63718   7.107  42.814  12.881
98734W        W63719  22.655  35.590  10.565
98735W        W63720  36.614  13.238   1.678
98736W        W63721   5.506  24.499   1.132
98737W        W63722  11.583  26.492  13.920
98738W        W63723  19.721  24.194   0.098
98739W        W63724   0.006  24.763   4.160
98740W        W63725  39.073   9.758  12.394
98741W        W63726  22.063  23.127   3.695
98742W        W63727  29.550   6.068  13.317
98743W        W63728  27.182  35.948  12.913
98744W        W63729  37.507  21.268   4.575
98745W        W63730  15.325  15.277   2.221
98746W        W63731  37.601  16.591  12.554
98747W        W63732   7.185  10.549   0.374
98748W        W63733  23.627   1.272  10.451
98749W        W63734  25.714  14.178  14.349
98750W        W63735  25.131  32.916   4.094
98751W        W63736  34.966   7.663  14.963
98752W        W63737  39.789  13.779  13.856
98753W        W63738  29.152  40.139  13.586
98754W        W63739  42.439  28.897  12.444
98755W        W63740   1.492  10.295   2.316
98756W        W63741  32.513  12.630   9.688
98757W        W63742  25.157  40.241  12.540
98758W        W63743   7.919  24.276   2.340
98759W        W63744   5.922  35.370  11.876
98760W        W63745  28.763   8.525   0.961
98761W        W63746   1.275  25.715  13.219
98762W        W63747   6.867  25.386  14.399
98763W        W63748   9.850  29.133  14.292
98764W        W63749  12.377  40.842   3.179
98765W        W63750  30.751   7.519  11.047
98766W        W63751  17.340  12.784   1.473
98767W        W63752  40.807   6.764   0.340
98768W        W63753  33.128  21.436  14.500
98769W        W63754   9.219   5.951  14.395
98770W        W63755  24.734   8.257  10.873
98771W        W63756  22.674  39.287  14.502
98772W        W63757  15.219  12.948   4.663
98773W        W63758  20.969   4.003  10.746
98774W        W63759  40.626   4.757  10.808
98775W        W63760  36.761  27.900  12.814
98776W        W63761  36.428  40.451   1.231
98777W        W63762   2.318  16.270  12.368
98778W        W63763  43.325  31.187   1.939
98779W        W63764  12.859  37.920   3.291
98780W        W63765   4.771  11.875   3.542
98781W        W63766   5.752  42.934  12.120
98782W        W63767  44.395  26.140  12.960
98783W        W63768  44.391  37.669  12.943
98784W        W63769  32.493  20.234   1.776
98785W        W63770  40.689  42.899   5.073
98786W        W63771  35.091  40.743  10.760
98787W        W63772  16.725  17.155  14.367
98788W        W63773  39.327  37.601  14.437
98789W        W63774  10.430  21.613   0.048
98790W        W63775  21.757  26.608   1.833
98791W        W63776  14.233  41.568  12.069
98792W        W63777  12.131   7.451  10.741
98793W        W63778  13.958  34.005   1.432
98794W        W63779   7.820  14.918  14.358
98795W        W63780  10.413   4.361   2.206
98796W        W63781   8.911  40.437   4.654
98797W        W63782   7.526  41.756  11.854
98798W        W63783  14.152   6.929  13.027
98799W        W63784   7.486  28.186  11.175
98800W        W63785  15.080   2.892  10.714
98801W        W63786  21.536  40.061   2.276
98802W        W63787  22.155  42.907  10.678
98803W        W63788  26.734  27.101   0.919
98804W        W63789  23.147  24.116   1.820
98805W        W63790  31.910  41.870  14.052
98806W        W63791   9.152   2.336  14.860
98807W        W63792  44.069  34.869   1.726
98808W        W63793   6.724  40.149   2.159
98809W        W63794   5.350  17.845  13.876
98810W        W63795  39.895   0.734  11.587
98811W        W63796   6.902  16.331   2.196
98812W        W63797  22.713  21.296   3.702
98813W        W63798  14.570  24.074   1.896
98814W        W63799  10.952   5.449   2.756
98815W        W63800  18.934  30.243   3.200
98816W        W63801   2.898  40.001  13.356
98817W        W63802  37.075   9.670  11.447
98818W        W63803   6.843  44.405  14.919
98819W        W63804  28.190  36.095  10.711
98820W        W63805   0.218  34.167  11.714
98821W        W63806  24.262   4.801  12.744
98822W        W63807   4.320  38.050  14.575
98823W        W63808  23.705  14.764  11.233
98824W        W63809  29.814  23.654  11.233
98825W        W63810  34.430  11.022  14.627
98826W        W63811  29.006   0.843  12.654
98827W        W63812   5.934  19.153   2.193
98828W        W63813   1.976  18.637  11.665
98829W        W63814   2.997  30.189   4.171
98830W        W63815  11.982   8.384  11.113
98831W        W63816   5.872  43.787  10.737
98832W        W63817  22.826   1.879  11.242
98833W        W63818  19.268  12.129  10.637
98834W        W63819  37.385  40.315   1.733
98835W        W63820  14.650  14.037   2.010
98836W        W63821  43.682  35.250   0.845
98837W        W63822  28.008  10.362  11.243
98838W        W63823   7.603  32.009  14.398
98839W        W63824  17.368   9.552   0.910
98840W        W63825  34.661   5.714  14.978
98841W        W63826  20.598  40.464   2.378
98842W        W63827  26.970   0.914  13.311
98843W        W63828  11.956   5.345  12.903
98844W        W63829  10.414   4.294  12.612
98845W        W63830  15.763   0.482   0.089
98846W        W63831   9.221  16.084   0.755
98847W        W63832  22.632   2.076  10.434
98848W        W63833  23.724   8.375  11.724
98849W        W63834   2.685  17.979  11.618
98850W        W63835  14.612   7.860  13.824
98851W        W63836  30.953   5.957   1.868
98852W        W63837  30.909  31.904  10.213
98853W        W63838  15.940  34.593   0.904
98854W        W63839  13.993   2.799  13.294
98855W        W63840   5.218  33.151   3.681
98856W        W63841  44.322   1.554  11.893
98857W        W63842  15.685  29.583  14.687
98858W        W63843  37.171  15.208   3.555
98859W        W63844  30.701  18.014  13.413
98860W        W63845  27.484  23.689  13.851
98861W        W63846  19.538  37.937   3.262
98862W        W63847   7.786  31.088   1.407
98863W        W63848  22.577  31.443   2.375
98864W        W63849  13.619  25.159  14.603
98865W        W63850  28.132  29.895   4.121
98866W        W63851  20.164  42.949   1.421
98867W        W63852  39.805  14.688   3.227
98868W        W63853  31.073  28.600  12.146
98869W        W63854   8.897  34.966  13.019
98870W        W63855  12.566  40.779  14.298
98871W        W63856  35.443  11.735   0.006
98872W        W63857  34.663  25.742  12.614
98873W        W63858  24.713  14.709   3.220
98874W        W63859  13.880   5.615   0.290
98875W        W63860  20.005  23.290   1.414
98876W        W63861  13.791  10.902  14.955
98877W        W63862   7.446  14.218  10.675
98878W        W63863   9.876  31.510   1.543
98879W        W63864  17.187  26.694  12.595
98880W        W63865   8.888  24.635   4.117
98881W        W63866  20.708   8.787   0.002
98882W        W63867  21.982   8.787   0.394
98883W        W63868   8.337  44.250   2.451
98884W        W63869  32.072  28.201   3.802
98885W        W63870  20.453  20.541   4.147
98886W        W63871  35.473  31.573  13.460
98887W        W63872  34.029  15.138   1.316
98888W        W63873  19.103  32.250   2.224
98889W        W63874  11.925  13.556   2.213
98890W        W63875  40.062  14.044   4.731
98891W        W63876  19.716  37.389  13.588
98892W        W63877  16.361  26.461  10.684
98893W        W63878   2.876  38.376  14.426
98894W        W63879  22.744  30.809  13.146
98895W        W63880  32.004   3.377   0.679
98896W        W63881  20.747  30.724   2.931
98897W        W63882  33.558  27.279   1.238
98898W        W63883   8.087   2.036  14.023
98899W        W63884  31.568  36.559   2.951
98900W        W63885  44.042   7.894  10.909
98901W        W63886  26.558   6.192   3.786
98902W        W63887  15.465  20.633   1.874
98903W        W63888   0.060  32.490   2.960
98904W        W63889  10.229   9.155  10.702
98905W        W63890  42.576   4.602  12.534
98906W        W63891  23.947   2.548  12.850
98907W        W63892  21.231   4.307  14.918
98908W        W63893   8.397  20.202  13.319
98909W        W63894  20.989   1.361   0.399
98910W        W63895  30.906  44.011   2.636
98911W        W63896   6.827   3.640  14.140
98912W        W63897  26.210   8.122   3.210
98913W        W63898  31.625   9.642  13.021
98914W        W63899  36.121   9.218   0.725
98915W        W63900  30.912  30.547   0.770
98916W        W63901  13.209  40.339  13.121
98917W        W63902  40.804  13.980   1.402
98918W        W63903  28.560  20.831  14.516
98919W        W63904  37.594   8.931  13.449
98920W        W63905  20.048  44.030   3.388
98921W        W63906  42.071  10.537   3.036
98922W        W63907  30.406  31.510   0.912
98923W        W63908  28.560  27.045   2.357
98924W        W63909  37.038  19.267  12.675
98925W        W63910  33.749  37.485  14.186
98926W        W63911  14.111  19.738  10.626
98927W        W63912  41.234  20.703   4.127
98928W        W63913  11.920  29.347   3.767
98929W        W63914  30.228  44.313  10.519
98930W        W63915  27.199  14.406   5.059
98931W        W63916   6.677   9.724   5.034
98932W        W63917   7.990  42.566   3.328
98933W        W63918   7.595  41.191   0.518
98934W        W63919  13.841   2.599   3.792
98935W        W63920  33.036  43.305  11.367
98936W        W63921   6.860  12.294  11.705
98937W        W63922  22.299  37.832   3.134
98938W        W63923   8.737   5.008   0.339
98939W        W63924   2.806  34.995   4.185
98940W        W63925  34.056  35.416   0.397
98941W        W63926  25.167  25.644   3.835
98942W        W63927  32.664  29.181  12.098
98943W        W63928  21.027  12.133  14.735
98944W        W63929  20.289  17.992  11.127
98945W        W63930   9.815  34.783   0.502
98946W        W63931  30.799  27.561  13.745
98947W        W63932   3.815   5.372   4.045
98948W        W63933  40.238  24.176  11.701
98949W        W63934  32.720  40.424   3.250
98950W        W63935   8.932  42.330   3.339
98951W        W63936  22.447   5.320   0.403
98952W        W63937  42.292   0.103  11.050
98953W        W63938  26.104  36.397   0.815
98954W        W63939  27.416  28.941   0.265
98955W        W63940  42.381  41.519   1.986
98956W        W63941  21.259  34.896  11.671
98957W        W63942   5.341  19.316  11.751
98958W        W63943  22.416  43.336  10.807
98959W        W63944   3.582  13.648  14.573
98960W        W63945  33.134   3.187  12.984
98961W        W63946  39.072  28.328   1.161
98962W        W63947  29.180  11.208  13.046
98963W        W63948   0.871  21.519  10.284
98964W        W63949  41.334   7.187  14.843
98965W        W63950  21.155  29.398  10.583
98966W        W63951  41.750  26.875  12.833
98967W        W63952  10.315  39.525  12.640
98968W        W63953  15.597  23.637  12.804
98969W        W63954  13.504  27.331   4.519
98970W        W63955  21.643  42.995   0.793
98971W        W63956  26.219  38.780  11.475
98972W        W63957  43.244  12.605  12.106
98973W        W63958  38.712  30.395  11.735
98974W        W63959   7.872  11.638   5.025
98975W        W63960   8.068  23.939  11.128
98976W        W63961  27.957  39.975  13.737
98977W        W63962  11.918  11.784  10.506
98978W        W63963   9.312  19.778   3.439
98979W        W63964   6.918  30.844  12.055
98980W        W63965  29.424  12.399  14.287
98981W        W63966  15.456  30.632   4.626
98982W        W63967  28.097  16.027  12.262
98983W        W63968  30.641   4.455   4.281
98984W        W63969  30.196  44.771   4.241
98985W        W63970   0.719  25.614   3.771
98986W        W63971  22.092  32.193  12.131
98987W        W63972  44.016  36.301  13.854
98988W        W63973  40.807  33.378  12.528
98989W        W63974  11.687  14.160  14.894
98990W        W63975  11.833  18.709  11.152
98991W        W63976  30.136  24.054  12.968
98992W        W63977  41.789  16.428   4.443
98993W        W63978  32.389   3.417  14.535
98994W        W63979   2.901  17.043   2.881
98995W        W63980  40.888  23.064  11.433
98996W        W63981  33.493   3.721  14.332
98997W        W63982  15.755  38.074  11.054
98998W        W63983  39.266  37.074  11.134
98999W        W63984  35.094  22.259   3.144
99000W        W63985  35.312   5.982  11.674
99001W        W63986  18.852   3.558  11.188
99002W        W63987  12.454  25.024  11.996
99003W        W63988  27.609  25.966   2.278
99004W        W63989  15.685  10.385  11.099
99005W        W63990  36.254  14.440  11.958
99006W        W63991  35.359   1.750   3.314
99007W        W63992  25.635  19.205   0.380
99008W        W63993  27.928  30.139   3.717
99009W        W63994  16.814   4.402   3.628
99010W        W63995  31.839  12.150  10.753
99011W        W63996   7.344  43.301   0.265
99012W        W63997   1.453  34.904   3.476
99013W        W63998  13.554   5.210   4.070
99014W        W63999  31.351   9.114   3.585
99015W        W64000  21.480  33.389   1.327
99016W        W64001  25.969  33.232   9.423
99017W        W64002  31.236   7.666  11.160
99018W        W64003   3.802   0.228  11.595
99019W        W64004  17.235  40.907   2.458
99020W        W64005  26.505   0.077  11.376
99021W        W64006  21.690  37.255  11.242
99022W        W64007   3.383  36.575  12.168
99023W        W64008   6.448  40.263   0.525
99024W        W64009  36.509  25.028  10.616
99025W        W64010  32.077  14.450   1.388
99026W        W64011  23.655  19.301   0.955
99027W        W64012  15.955  32.061  11.359
99028W        W64013  19.570  44.850  12.266
99029W        W64014  14.054  15.002   2.799
99030W        W64015  14.621  35.963   4.135
99031W        W64016  30.086  44.817  10.588
99032W        W64017  41.224  12.864  14.017
99033W        W64018  34.460  19.611  13.707
99034W        W64019  44.197  14.518   4.036
99035W        W64020   9.929  31.375   3.746
99036W        W64021  35.169  22.302  10.372
99037W        W64022   3.828  19.692  14.064
99038W        W64023  20.613  26.606  11.825
99039W        W64024  14.398   6.084   9.894
99040W        W64025  12.183   5.663   3.705
99041W        W64026   7.924  42.184   1.341
99042W        W64027  31.624  30.014   3.720
99043W        W64028   2.674  23.045   2.392
99044W        W64029  40.056  13.606  11.446
99045W        W64030  41.446  38.185  12.011
99046W        W64031  31.371  26.718  13.906
99047W        W64032  16.756  14.246  10.702
99048W        W64033  20.523  16.289   3.086
99049W        W64034   0.469  31.131   3.711
99050W        W64035   7.248   6.348   1.370
99051W        W64036  27.834   1.117   2.736
99052W        W64037   4.801   0.803  10.383
99053W        W64038  18.565   7.416  13.778
99054W        W64039  39.938   3.069  10.526
99055W        W64040  19.675  33.961  11.221
99056W        W64041  41.323  30.421   3.287
99057W        W64042  11.145  35.968  10.812
99058W        W64043   1.218  10.068  10.362
99059W        W64044  18.447  33.293   5.010
99060W        W64045  13.172   4.614   2.670
99061W        W64046  11.231  41.027   0.833
99062W        W64047  35.295   2.110  14.330
99063W        W64048  42.987  23.791   1.314
99064W        W64049  37.490  25.127  14.321
99065W        W64050   6.347  26.535  14.414
99066W        W64051  26.959  29.243  14.687
99067W        W64052  32.244   2.781   4.158
99068W        W64053  16.577  34.632   2.102
99069W        W64054  20.133  38.930   1.270
99070W        W64055   3.947  19.249   4.796
99071W        W64056  43.690   2.105   2.884
99072W        W64057  43.964  24.670   5.552
99073W        W64058  20.818   5.323   2.557
99074W        W64059  35.078  24.044   2.815
99075W        W64060  22.035  18.671  11.168
99076W        W64061  21.510  22.013   3.118
99077W        W64062   7.901  22.019   2.919
99078W        W64063  28.531   6.769  14.279
99079W        W64064   8.165  30.973   0.345
99080W        W64065   5.336  36.702  12.377
99081W        W64066   5.002  29.710  13.750
99082W        W64067   2.342  28.796  14.081
99083W        W64068  28.046   2.515  11.214
99084W        W64069  20.136  11.836   1.163
99085W        W64070  26.797   8.181  11.372
99086W        W64071   3.862   9.716  14.479
99087W        W64072   2.747  18.550  14.823
99088W        W64073  35.464  18.506   1.359
99089W        W64074  40.001   7.763   3.848
99090W        W64075  11.362   4.555   3.860
99091W        W64076  34.654  21.476   2.269
99092W        W64077  28.604  43.735  14.769
99093W        W64078  15.022  17.198   2.396
99094W        W64079  16.571  20.591  14.374
99095W        W64080   2.455  13.328   0.224
99096W        W64081  44.575   7.641   4.187
99097W        W64082  18.031   9.295  12.031
99098W        W64083  10.646  38.469   0.358
99099W        W64084  12.668  31.867  10.577
99100W        W64085  13.263  23.628  14.427
99101W        W64086   3.259  41.623  10.662
99102W        W64087   1.083  26.603   3.657
99103W        W64088   5.300  20.335  11.933
99104W        W64089  41.818   0.316  14.289
99105W        W64090  19.250   8.450  11.121
99106W        W64091  25.417  27.284   1.354
99107W        W64092  20.073  22.437   2.790
99108W        W64093  24.032  35.926   2.820
99109W        W64094  28.129  37.510  12.667
99110W        W64095   5.439  44.450   0.473
99111W        W64096  21.706  15.111   4.582
99112W        W64097  23.477  20.803   0.847
99113W        W64098  41.451  33.876  10.494
99114W        W64099   9.714  15.093  13.589
99115W        W64100  16.203  44.461  10.976
99116W        W64101   7.828  14.663   3.995
99117W        W64102  27.331  40.805   3.155
99118W        W64103   5.874  21.555   4.634
99119W        W64104  44.359  10.781  13.442
99120W        W64105  20.164  19.832  11.441
99121W        W64106  13.592   0.377  11.820
99122W        W64107  40.070   6.894   4.580
99123W        W64108   5.838  13.375  10.845
99124W        W64109  16.086  37.004   2.352
99125W        W64110  28.033  13.821   0.941
99126W        W64111  21.520  25.002   2.556
99127W        W64112  15.210   3.384  13.543
99128W        W64113   7.829  30.515   1.695
99129W        W64114  10.457  36.096   1.422
99130W        W64115  11.883  17.170  13.228
99131W        W64116  37.323   6.394   0.332
99132W        W64117  13.294   6.915   0.428
99133W        W64118  42.308  23.619   3.560
99134W        W64119  38.870  30.142  10.478
99135W        W64120  17.061  13.033  14.396
99136W        W64121  12.428   5.845   2.380
99137W        W64122  24.152  10.649   0.100
99138W        W64123  16.566  37.929  13.464
99139W        W64124  43.716  24.629   4.100
99140W        W64125  12.684  13.225   2.724
99141W        W64126   8.222  12.054   2.700
99142W        W64127  20.999  30.939   3.317
99143W        W64128  13.975  18.816  12.166
99144W        W64129  13.890   4.703   2.348
99145W        W64130  40.427   7.656  12.454
99146W        W64131  25.945  26.314   0.901
99147W        W64132  33.985  36.855   2.176
99148W        W64133   3.898  28.004  10.673
99149W        W64134  16.232  13.780   2.820
99150W        W64135  20.762  17.851   4.842
99151W        W64136  19.247  33.046  10.719
99152W        W64137   5.849  17.730  10.577
99153W        W64138  16.161  44.563   0.308
99154W        W64139  31.128  15.580  12.076
99155W        W64140  13.342  25.206  12.010
99156W        W64141  13.363  17.614  14.953
99157W        W64142  18.231  27.043   1.244
99158W        W64143  19.557  15.180   1.353
99159W        W64144  14.494  24.663   0.962
99160W        W64145   2.473   7.430  12.522
99161W        W64146   4.004  36.884   2.811
99162W        W64147  23.642  25.083  14.334
99163W        W64148  24.747  22.259   1.259
99164W        W64149  17.902  12.628  14.724
99165W        W64150  19.790  31.911  14.946
99166W        W64151  11.526  11.119  12.454
99167W        W64152   6.411  33.475   4.139
99168W        W64153  22.305  30.430  10.622
99169W        W64154  32.392  38.069   2.705
99170W        W64155  44.866  14.544  10.968
99171W        W64156   8.846  44.199  11.155
99172W        W64157  10.057  42.406  14.077
99173W        W64158   8.874  36.352  13.856
99174W        W64159  39.269  23.967  12.073
99175W        W64160   7.651  32.958  12.340
99176W        W64161  27.500   2.463  12.942
99177W        W64162  23.867  41.174   0.600
99178W        W64163  32.231   7.397   2.272
99179W        W64164  42.643   7.989  14.707
99180W        W64165  13.075  27.228   2.921
99181W        W64166  32.629  15.096  10.674
99182W        W64167  20.005  26.275  13.372
99183W        W64168  31.059  31.600  12.141
99184W        W64169  29.855  34.399  13.811
99185W        W64170  19.163  41.887   2.590
99186W        W64171   3.706  36.458   4.048
99187W        W64172   9.634  27.914  10.989
99188W        W64173  30.881  29.054   2.294
99189W        W64174   9.324  32.516  11.636
99190W        W64175   5.542  38.583  12.100
99191W        W64176  10.456  23.379   4.171
99192W        W64177  12.181  16.561   2.205
99193W        W64178  41.004   4.073  12.817
99194W        W64179   9.974   6.993   1.239
99195W        W64180  30.128  14.637  12.000
99196W        W64181  24.623  22.755  11.777
99197W        W64182  31.319  33.445  13.452
99198W        W64183  31.752  26.228   2.453
99199W        W64184  22.496  44.844  11.224
99200W        W64185  28.426  36.500  12.553
99201W        W64186   6.629   0.787   3.670
99202W        W64187  25.322   5.021   3.602
99203W        W64188  13.770  24.734  13.795
99204W        W64189  43.933  25.764   2.860
99205W        W64190   1.939  39.075   1.782
99206W        W64191  34.808  25.025  14.770
99207W        W64192  15.200   4.667  12.800
99208W        W64193   1.500  23.488  14.524
99209W        W64194  37.553  12.779   0.622
99210W        W64195  15.235   3.315   4.334
99211W        W64196  10.737   6.270   4.686
99212W        W64197  37.322  19.593   1.295
99213W        W64198  32.787  10.044  10.229
99214W        W64199  43.424  39.919  12.663
99215W        W64200  22.929   1.957  13.411
99216W        W64201  29.417  33.392   1.823
99217W        W64202  40.890  25.157   1.204
99218W        W64203  11.680  27.018   4.773
99219W        W64204  17.678  15.437  13.576
99220W        W64205  23.633  33.163  14.856
99221W        W64206  25.485  26.960   0.957
99222W        W64207  18.865  14.251   4.600
99223W        W64208  34.888   5.423  12.853
99224W        W64209   1.409   8.254   4.966
99225W        W64210  41.747   6.444  11.133
99226W        W64211  13.671  37.451   1.872
99227W        W64212  26.617   3.176   2.845
99228W        W64213  12.252  17.644   4.593
99229W        W64214  24.096  37.815  11.581
99230W        W64215   4.404  31.972  11.717
99231W        W64216   5.225  42.309   2.014
99232W        W64217  25.268  18.942  11.170
99233W        W64218  35.375  25.256  13.901
99234W        W64219  43.606   0.327  11.981
99235W        W64220   5.661  15.039   4.587
99236W        W64221  43.807  43.519  14.281
99237W        W64222   3.962  32.380   2.744
99238W        W64223   0.013  41.514   0.019
99239W        W64224  43.363   9.224  13.333
99240W        W64225  41.090  33.004  14.009
99241W        W64226  21.320  10.988  12.430
99242W        W64227   7.946  22.593  11.514
99243W        W64228  35.100  31.415   2.397
99244W        W64229  29.029  40.892  12.579
99245W        W64230   5.921  31.545  12.474
99246W        W64231  24.391  25.918  13.468
99247W        W64232  30.560  41.891   3.707
99248W        W64233   3.506   1.395   2.214
99249W        W64234   2.756  22.232   3.219
99250W        W64235  10.610   7.924   0.712
99251W        W64236  42.021  24.623   0.930
99252W        W64237  17.340  16.092  10.606
99253W        W64238  35.167  28.622  14.296
99254W        W64239  22.597  41.836  13.403
99255W        W64240  12.219  25.638  12.755
99256W        W64241  43.352  28.406  11.566
99257W        W64242  19.539  26.757  10.607
99258W        W64243  12.453  16.134   1.964
99259W        W64244  10.620   1.647  12.473
99260W        W64245  32.193  18.121  11.368
99261W        W64246  17.669  27.979  12.462
99262W        W64247  32.965   2.259  10.670
99263W        W64248  37.339   3.855   3.218
99264W        W64249   9.864  38.626  12.943
99265W        W64250  24.411   1.776  11.873
99266W        W64251  30.949  34.145   0.909
99267W        W64252  31.457   7.932   0.286
99268W        W64253  18.515  11.914   3.259
99269W        W64254  25.044  22.106   4.395
99270W        W64255  36.391   4.781   2.679
99271W        W64256  16.234  32.627  13.482
99272W        W64257  20.729   1.817   4.114
99273W        W64258  13.940   6.549  13.310
99274W        W64259  29.699  35.911  10.669
99275W        W64260  43.775  21.651  13.839
99276W        W64261  15.535  16.889   4.094
99277W        W64262  44.182  41.845   0.353
99278W        W64263  16.074  34.409  12.053
99279W        W64264  34.154  22.664  11.183
99280W        W64265  43.449   7.886  13.039
99281W        W64266   6.162  42.569  14.012
99282W        W64267  10.235  26.004   4.085
99283W        W64268   0.215  10.295   4.136
99284W        W64269   4.660  28.485   2.663
99285W        W64270   0.210  39.930   0.337
99286W        W64271  22.646  23.693   3.328
99287W        W64272  36.064   2.978  14.882
99288W        W64273  39.200   3.744  12.088
99289W        W64274  26.995  10.316  11.023
99290W        W64275  14.102  27.758  14.785
99291W        W64276  32.702  10.334   2.191
99292W        W64277   3.886  31.425  13.357
99293W        W64278  20.506  11.901  12.422
99294W        W64279  21.473  10.340   1.354
99295W        W64280  19.073  40.590   0.747
99296W        W64281  11.359  21.002  14.511
99297W        W64282   7.125  33.981   1.733
99298W        W64283  14.343   3.892  11.446
99299W        W64284   9.296  28.501   4.095
99300W        W64285  24.661  21.227  10.632
99301W        W64286  30.452  25.790  10.736
99302W        W64287  22.140   3.953  12.800
99303W        W64288  33.066  27.952  11.298
99304W        W64289  32.241   9.868   0.875
99305W        W64290  21.952   7.909  14.526
99306W        W64291  21.318  28.963   1.904
99307W        W64292  37.835  33.476   2.087
99308W        W64293  42.400  20.602  12.108
99309W        W64294   6.757  14.395   1.614
99310W        W64295  34.397  36.319  12.515
99311W        W64296  39.695  32.380  14.879
99312W        W64297  10.926   4.668  13.233
99313W        W64298  42.722   5.282   3.343
99314W        W64299  42.612  33.056   4.506
99315W        W64300   6.333   7.551  12.788
99316W        W64301  17.835  26.200  14.456
99317W        W64302   6.691  21.182   3.088
99318W        W64303   6.376  16.862   2.589
99319W        W64304  32.219  29.432   4.252
99320W        W64305  29.134  16.662   2.669
99321W        W64306  41.074  34.157   0.276
99322W        W64307   2.198  42.286   1.437
99323W        W64308  10.439  27.524  14.793
99324W        W64309   1.245  16.014   3.300
99325W        W64310   9.841  11.055  12.236
99326W        W64311   8.864  26.587   4.455
99327W        W64312   3.408  39.863  10.364
99328W        W64313  33.871  26.477  11.152
99329W        W64314  31.590  14.953   4.504
99330W        W64315  14.634   8.018  12.369
99331W        W64316  15.176   5.173   3.366
99332W        W64317   8.716  38.067  14.312
99333W        W64318  10.240  38.756   3.200
99334W        W64319   1.597  20.316   0.363
99335W        W64320  31.880   6.271   1.325
99336W        W64321   6.568   5.268  14.877
99337W        W64322   6.304  24.032   0.872
99338W        W64323  23.593  18.592   2.139
99339W        W64324  20.256  40.823  14.861
99340W        W64325  28.980  26.753  12.070
99341W        W64326   1.349   1.901   0.211
99342W        W64327  37.096  28.154  14.372
99343W        W64328  25.994  38.503  13.290
99344W        W64329  29.015  13.656  12.103
99345W        W64330  12.525   0.092  12.866
99346W        W64331  11.526   6.885   3.612
99347W        W64332  13.278  28.075   1.928
99348W        W64333  42.928   2.643   5.139
99349W        W64334  29.988   8.565  14.760
99350W        W64335  22.133  29.162   1.327
99351W        W64336  35.540   1.928  11.440
99352W        W64337  24.647  20.548   0.637
99353W        W64338  37.175  20.531  12.854
99354W        W64339  39.833   9.305  14.749
99355W        W64340   9.327  39.862  13.054
99356W        W64341  18.686  41.985   1.783
99357W        W64342   9.345  34.587   4.149
99358W        W64343  33.961  39.598   2.347
99359W        W64344  14.678  28.211  12.548
99360W        W64345  30.456   9.343  12.641
99361W        W64346  25.376  39.812  14.808
99362W        W64347  18.612  27.777  12.358
99363W        W64348  10.508  18.779   1.864
99364W        W64349  27.540  25.156   3.144
99365W        W64350   8.760   6.815  13.261
99366W        W64351  20.010  15.904  12.853
99367W        W64352  28.676  44.552   3.201
99368W        W64353  26.411  43.752   0.225
99369W        W64354  26.959  37.931   4.441
99370W        W64355  28.969  17.620   3.521
99371W        W64356  13.408  12.562  11.018
99372W        W64357  16.219  14.100   3.842
99373W        W64358  28.025  24.622   0.372
99374W        W64359  21.448  13.783  11.988
99375W        W64360  17.845  14.610   2.632
99376W        W64361  10.229  16.310   1.172
99377W        W64362  24.006  15.370  12.435
99378W        W64363  25.962  43.471   1.244
99379W        W64364  10.451   5.912   2.216
99380W        W64365   0.856  24.756  12.457
99381W        W64366  34.336  27.408   4.534
99382W        W64367  16.133   2.530   0.007
99383W        W64368  11.687   6.407  11.751
99384W        W64369  34.525  42.738  11.661
99385W        W64370   5.269  28.004   4.739
99386W        W64371   8.572  28.415  10.733
99387W        W64372  37.595  24.828  12.162
99388W        W64373  44.372  24.608   0.854
99389W        W64374  29.921  17.503  11.192
99390W        W64375   4.624  33.849   3.446
99391W        W64376   9.424  24.535  14.673
99392W        W64377   9.171  22.634  12.055
99393W        W64378  22.531  40.291  13.799
99394W        W64379  16.158   9.666   0.049
99395W        W64380  29.183  13.012  11.622
99396W        W64381  34.959   1.811  11.550
99397W        W64382  13.132  23.091   4.898
99398W        W64383  14.033  40.778  11.639
99399W        W64384   3.460  39.606  14.924
99400W        W64385  28.052  40.193  12.115
99401W        W64386  12.942  37.389  13.388
99402W        W64387  38.248  15.334   4.555
99403W        W64388  20.620   9.153  13.335
99404W        W64389  36.395   4.975  14.791
99405W        W64390   3.790  11.076  13.519
99406W        W64391  32.707  11.168   3.514
99407W        W64392   3.918  44.895   3.852
99408W        W64393   4.414   6.262  12.888
99409W        W64394  37.224  44.008   1.492
99410W        W64395  21.122  23.378   4.366
99411W        W64396  31.143   9.093  14.463
99412W        W64397   8.903  41.687   0.418
99413W        W64398   8.098  40.358  11.148
99414W        W64399  18.537  15.185  11.580
99415W        W64400   5.059   5.617   5.360
99416W        W64401  37.066  11.635   1.893
99417W        W64402  23.171  37.569   1.791
99418W        W64403   6.425  33.299   0.749
99419W        W64404   3.213  18.767   4.020
99420W        W64405  26.992   8.396   3.552
99421W        W64406  28.577  42.764  13.785
99422W        W64407  30.415  44.155  11.005
99423W        W64408  23.605   2.023   2.182
99424W        W64409   7.289  44.735  14.342
99425W        W64410  33.056  23.672  10.785
99426W        W64411  44.760  19.045   1.379
99427W        W64412  16.863  13.048  11.142
99428W        W64413   7.731  28.792   2.758
99429W        W64414  17.279  22.716  10.990
99430W        W64415  33.010  32.927  12.077
99431W        W64416   3.310  24.518   4.639
99432W        W64417  36.473   5.679  13.531
99433W        W64418  39.407  14.680  11.065
99434W        W64419  32.567   3.764  12.585
99435W        W64420   7.447  39.607  14.904
99436W        W64421   5.009  18.449  10.215
99437W        W64422   3.505  21.115   4.017
99438W        W64423  34.921  42.797   1.277
99439W        W64424  37.580  28.063   0.966
99440W        W64425   8.684   5.797  13.365
99441W        W64426   0.824  21.322   4.571
99442W        W64427  20.768   9.253   4.364
99443W        W64428   6.281  35.026   1.006
99444W        W64429  30.431  39.010   2.817
99445W        W64430   6.257  41.139   3.566
99446W        W64431  42.300  28.987   4.574
99447W        W64432  27.360  36.803   2.490
99448W        W64433  42.488   0.010  13.585
99449W        W64434  25.440  25.063   1.771
99450W        W64435  23.678   0.537   3.776
99451W        W64436  31.796  13.272  14.505
99452W        W64437  11.751  19.764   4.310
99453W        W64438  26.308  27.965   2.667
99454W        W64439  11.685  43.530   0.271
99455W        W64440  21.243  27.920   0.324
99456W        W64441  44.764  25.069  11.585
99457W        W64442   2.971  12.646  12.975
99458W        W64443  34.459   1.700  14.812
99459W        W64444   7.906  24.724   3.836
99460W        W64445  13.530  25.508   3.124
99461W        W64446  20.271  19.334  13.427
99462W        W64447  23.486  30.191  12.038
99463W        W64448  44.844   1.502  11.699
99464W        W64449  14.898   8.390   1.001
99465W        W64450  16.634  31.888  14.896
99466W        W64451  17.737  11.188  11.104
99467W        W64452  38.065  22.137  12.869
99468W        W64453   8.914  24.934  11.662
99469W        W64454  14.691  11.745  12.112
99470W        W64455  13.118  34.956  12.792
99471W        W64456   9.781  31.724  11.202
99472W        W64457  14.865  28.701  12.518
99473W        W64458   6.877  43.364   0.917
99474W        W64459   5.409   5.693   2.567
99475W        W64460   0.292   6.818  10.784
99476W        W64461  16.992  31.524  13.049
99477W        W64462  19.528  30.186   0.896
99478W        W64463  25.498  21.824   4.233
99479W        W64464  34.092  29.296  11.165
99480W        W64465  14.820   9.883   1.801
99481W        W64466  44.713  20.176   1.644
99482W        W64467  32.031  26.660  11.122
99483W        W64468  32.515  38.794  10.747
99484W        W64469  41.578  16.361  14.834
99485W        W64470  19.682  24.453  13.382
99486W        W64471   4.934  22.738   0.364
99487W        W64472   2.839  41.772  12.510
99488W        W64473  33.633  24.217   3.293
99489W        W64474  19.748  43.765  11.511
99490W        W64475  30.016  12.570  14.832
99491W        W64476  33.900  38.162  10.720
99492W        W64477  33.564  44.146  13.270
99493W        W64478  12.414  30.289   3.333
99494W        W64479   0.857   3.466   4.037
99495W        W64480  41.475   1.393   4.783
99496W        W64481  39.065   7.199   2.105
99497W        W64482  30.611  36.045   1.807
99498W        W64483  41.038  14.175   1.845
99499W        W64484  34.387  42.777  13.108
99500W        W64485  20.869  30.669  10.646
99501W        W64486   9.211  42.905   0.638
99502W        W64487  18.613   9.200  11.985
99503W        W64488  31.087  37.253   2.857
99504W        W64489  22.820  30.944  13.963
99505W        W64490  25.005   2.447   1.929
99506W        W64491  15.165  32.736   2.405
99507W        W64492  34.557  13.543  13.528
99508W        W64493  40.551  28.651   0.876
99509W        W64494  22.648  33.392  14.258
99510W        W64495  26.879  27.118   4.232
99511W        W64496   1.422  36.198   3.395
99512W        W64497  25.481  27.235  14.020
99513W        W64498   1.092  34.440  12.158
99514W        W64499   5.479  32.303  13.107
99515W        W64500  29.632  37.476  14.536
99516W        W64501   6.215  15.977   0.940
99517W        W64502  19.643  29.600   4.485
99518W        W64503   2.826  18.246   3.133
99519W        W64504  34.343  39.405  11.756
99520W        W64505  29.603   4.198   2.252
99521W        W64506  32.007  11.030   2.767
99522W        W64507   5.354  23.766   2.291
99523W        W64508   5.698  19.746   2.693
99524W        W64509  37.283   8.469  14.297
99525W        W64510  13.768   8.871   2.306
99526W        W64511  18.636  37.607   0.810
99527W        W64512  29.039  21.196  14.067
99528W        W64513  24.595  42.847   4.559
99529W        W64514   5.635  31.055   2.918
99530W        W64515   3.059  26.595  11.877
99531W        W64516  12.389  26.202   3.404
99532W        W64517  19.311  29.369  14.209
99533W        W64518   7.160  26.683   2.445
99534W        W64519   1.932  22.060  14.987
99535W        W64520  17.788  10.183  14.971
99536W        W64521  35.007  16.385  13.849
99537W        W64522  11.876   7.690   2.900
99538W        W64523  35.876  15.402   1.892
99539W        W64524  31.354  18.615   4.158
99540W        W64525   5.523  43.210  11.685
99541W        W64526  12.075   7.694   3.990
99542W        W64527  34.419  25.468  14.498
99543W        W64528   1.858  29.407   2.362
99544W        W64529  16.086  31.450  14.017
99545W        W64530  12.318  34.202  11.606
99546W        W64531  42.322  42.792  12.120
99547W        W64532   0.057  44.398  11.957
99548W        W64533  40.830  37.437  13.296
99549W        W64534   5.350  23.145   3.863
99550W        W64535  38.694   3.333  10.658
99551W        W64536  11.561  41.554   3.772
99552W        W64537  38.867  40.026   0.150
99553W        W64538  21.981  36.335   1.237
99554W        W64539  31.301  26.475   4.338
99555W        W64540  24.323  31.183  11.662
99556W        W64541  23.670  21.300  10.710
99557W        W64542  23.684   6.415  11.038
99558W        W64543  28.942  17.386  11.903
99559W        W64544  34.833  39.883  14.362
99560W        W64545  29.891  42.532  13.366
99561W        W64546  27.299  34.050   3.845
99562W        W64547   1.723  29.349  11.708
99563W        W64548  25.013  40.324   2.304
99564W        W64549  15.544  24.694   3.202
99565W        W64550  16.498  36.155  12.612
99566W        W64551  14.414  21.251   3.344
99567W        W64552  15.922  26.978   1.979
99568W        W64553  10.220  39.519  13.938
99569W        W64554  31.392  16.234   3.306
99570W        W64555  35.530  13.765   4.532
99571W        W64556  33.843  21.798  14.149
99572W        W64557  15.548  44.972  14.797
99573W        W64558   9.814   7.146   3.152
99574W        W64559  42.311  28.857   3.721
99575W        W64560   4.519  31.969   4.078
99576W        W64561  10.343  16.130   0.296
99577W        W64562  39.432  33.904   1.769
99578W        W64563  30.445  23.408   2.152
99579W        W64564  23.731  24.930  12.851
99580W        W64565   2.465  39.009   1.761
99581W        W64566  18.762  29.547  12.912
99582W        W64567  22.636  37.794  12.624
99583W        W64568  32.359  39.183  11.632
99584W        W64569  34.298  44.231  11.530
99585W        W64570  30.432   8.323  12.548
99586W        W64571  39.835   9.485   0.933
99587W        W64572  12.668  29.146   2.242
99588W        W64573   8.693  14.709  11.616
99589W        W64574  29.611  23.442   1.347
99590W        W64575  34.161  22.552  12.618
99591W        W64576  32.961  35.018   3.721
99592W        W64577  19.491  33.045  12.953
99593W        W64578   7.103  19.328  12.053
99594W        W64579   8.697   1.218   1.173
99595W        W64580  32.004  13.671   3.506
99596W        W64581  13.360  33.010   2.712
99597W        W64582  16.212  21.144   0.090
99598W        W64583   3.659  29.533   2.325
99599W        W64584  41.365  11.300   0.776
99600W        W64585  10.176   9.253   4.522
99601W        W64586  29.532  20.086  11.920
99602W        W64587  35.896  36.895  14.389
99603W        W64588  30.378  20.371  13.928
99604W        W64589  23.083  13.263  12.451
99605W        W64590   6.003  38.495  14.428
99606W        W64591  18.618  25.723   2.242
99607W        W64592  19.317  24.217  12.085
99608W        W64593   8.903  30.933   4.397
99609W        W64594  15.335  16.980  12.673
99610W        W64595   1.550  19.386   3.351
99611W        W64596   0.267   1.236  11.948
99612W        W64597  13.070  20.736  14.306
99613W        W64598  31.863  30.385  10.886
99614W        W64599  39.046  21.251   1.333
99615W        W64600  37.603  10.817  12.890
99616W        W64601  11.101  26.090  14.788
99617W        W64602   3.623  30.579  12.833
99618W        W64603   0.470  39.958  12.548
99619W        W64604  16.011  34.475   3.677
99620W        W64605  21.635   8.225   4.104
99621W        W64606  26.389  21.307  12.924
99622W        W64607  32.462  12.793   2.102
99623W        W64608   9.399   2.114  12.236
99624W        W64609  28.453  41.597  13.096
99625W        W64610  43.807  21.976  12.068
99626W        W64611   6.839  36.077  13.585
99627W        W64612  13.737   2.654  11.576
99628W        W64613  11.803  19.235  14.757
99629W        W64614  13.091  23.799   1.298
99630W        W64615  22.940  41.881   0.529
99631W        W64616   5.823   4.876   9.823
99632W        W64617  27.853   2.764   2.281
99633W        W64618  23.083  21.147   1.285
99634W        W64619  40.462  13.422   0.421
99635W        W64620   0.719  44.935   1.015
99636W        W64621  39.352  26.596  14.943
99637W        W64622  36.395   6.392   1.846
99638W        W64623  13.668  28.825   4.111
99639W        W64624  30.095  38.384   3.275
99640W        W64625  24.032  33.633  14.561
99641W        W64626  16.587  38.688  11.119
99642W        W64627  41.769  16.313   1.644
99643W        W64628  22.551   3.839  11.103
99644W        W64629  15.994  11.315   1.883
99645W        W64630  19.082  22.315  11.069
99646W        W64631  29.476   8.258  13.401
99647W        W64632  19.564   3.748   4.720
99648W        W64633  32.736  25.979  13.935
99649W        W64634   9.583  42.590   3.670
99650W        W64635  12.144  17.361   3.293
99651W        W64636  30.695  13.901   4.230
99652W        W64637  38.408  39.285   0.740
99653W        W64638  24.764  37.021  13.052
99654W        W64639   6.410  27.060  10.723
99655W        W64640  22.305  14.675   1.778
99656W        W64641  23.582  10.425  14.437
99657W        W64642   7.250  43.720   0.001
99658W        W64643  36.428  21.503  11.446
99659W        W64644  31.620  24.598  14.463
99660W        W64645  44.471  36.438  12.097
99661W        W64646  38.279  42.341  14.034
99662W        W64647  18.155  43.280   1.964
99663W        W64648   5.698   7.840  12.017
99664W        W64649  31.744  11.156  10.237
99665W        W64650  31.520  30.169  13.990
99666W        W64651  26.213   1.441  13.348
99667W        W64652   2.191  40.570   2.718
99668W        W64653  30.172   9.877  12.132
99669W        W64654   4.870  14.884   0.801
99670W        W64655  21.299  42.988   4.072
99671W        W64656   8.886  32.625  14.685
99672W        W64657  30.574  33.426  12.361
99673W        W64658  35.085  33.636  13.071
99674W        W64659  37.831   2.717   5.002
99675W        W64660  15.466  22.662   2.629
99676W        W64661  21.704  39.852  11.872
99677W        W64662  23.774  38.819   4.010
99678W        W64663   8.113  18.387  12.077
99679W        W64664  11.236  35.073  12.892
99680W        W64665  14.043  30.142  11.633
99681W        W64666   9.125  12.249   0.798
99682W        W64667   9.110  10.351   0.870
99683W        W64668  39.388  13.029  10.696
99684W        W64669   2.233  21.084   2.757
99685W        W64670   0.799   5.656   2.363
99686W        W64671  28.151   2.075   2.644
99687W        W64672   1.307  13.680  13.537
99688W        W64673  12.681  14.728  12.045
99689W        W64674  12.509  26.115  10.255
99690W        W64675   4.371  44.457  14.910
99691W        W64676  30.316  18.548  14.055
99692W        W64677  28.670  29.613   2.340
99693W        W64678   4.018  21.306   1.508
99694W        W64679  27.146   3.429   2.287
99695W        W64680  25.581  42.993  10.263
99696W        W64681   2.028  27.153  14.969
99697W        W64682   3.452  37.158   3.808
99698W        W64683   6.632  34.504   0.997
99699W        W64684  43.440   2.982  13.052
99700W        W64685   1.788  27.934  11.989
99701W        W64686  27.938  15.154   1.673
99702W        W64687   0.883  19.147  13.983
99703W        W64688   0.288  17.725   3.224
99704W        W64689  32.686  15.841  11.873
99705W        W64690   7.959   5.280   2.836
99706W        W64691  10.166  22.730   1.686
99707W        W64692  31.649  28.170  11.501
99708W        W64693  39.803  25.720  13.524
99709W        W64694  10.669   6.388   9.891
99710W        W64695  32.969   6.919  14.199
99711W        W64696  37.386  21.259  11.885
99712W        W64697  30.125  13.336  11.547
99713W        W64698  28.134  39.060   3.293
99714W        W64699  34.833  19.700   1.777
99715W        W64700  37.530  16.230   1.706
99716W        W64701   6.312  19.770   4.531
99717W        W64702  23.427   9.808   3.178
99718W        W64703  33.607  43.823   2.230
99719W        W64704  19.076  15.243   2.842
99720W        W64705  36.530   9.259   5.462
99721W        W64706   1.749  42.609   3.683
99722W        W64707  30.701   5.601  12.538
99723W        W64708  31.454  41.390   2.221
99724W        W64709  29.429  34.477  12.433
99725W        W64710   5.039  20.074   0.401
99726W        W64711  22.454  28.584   2.297
99727W        W64712  15.278  37.432  10.709
99728W        W64713  41.504  13.946   1.919
99729W        W64714  39.559  22.650   0.154
99730W        W64715  26.082  14.739   3.446
99731W        W64716  15.595  30.037   2.405
99732W        W64717  24.114  26.066  10.571
99733W        W64718  17.603  28.884  13.809
99734W        W64719  11.839  21.864  11.731
99735W        W64720  32.681  28.017  11.618
99736W        W64721  39.986  39.058  10.723
99737W        W64722  19.783   4.248  14.948
99738W        W64723  36.460  15.635  13.918
99739W        W64724  14.190  10.857  14.534
99740W        W64725  31.505  33.549  11.296
99741W        W64726  21.359  18.888   2.367
99742W        W64727  23.001  30.007  12.046
99743W        W64728   8.802  36.529  12.838
99744W        W64729  26.093  36.966  11.569
99745W        W64730  11.201  13.721   2.717
99746W        W64731  43.693  25.471   5.378
99747W        W64732   9.415  18.182   3.204
99748W        W64733  23.732   1.430  14.827
99749W        W64734  37.904   2.480  13.450
99750W        W64735   1.012  25.158  14.803
99751W        W64736   4.891  30.756   2.698
99752W        W64737   2.357  18.917  10.163
99753W        W64738   6.486  11.726   2.778
99754W        W64739  10.862   6.359  12.657
99755W        W64740  29.128  21.208   3.686
99756W        W64741  33.343  35.900  11.293
99757W        W64742   9.690  22.080  14.909
99758W        W64743  21.533  14.076   3.854
99759W        W64744  41.626  19.012   3.638
99760W        W64745  40.892  40.583   2.673
99761W        W64746  35.551  37.546   3.412
99762W        W64747  12.824  39.514  11.960
99763W        W64748  15.370   3.690  14.529
99764W        W64749  29.524  24.234   3.986
99765W        W64750  24.397  19.816  12.359
99766W        W64751   4.859  39.555   2.199
99767W        W64752  16.632   3.685   2.775
99768W        W64753  20.518  23.080   1.659
99769W        W64754  24.409  10.707   3.482
99770W        W64755   2.384  23.331   1.799
99771W        W64756  37.906  41.970  14.022
99772W        W64757  30.419   3.867  14.226
99773W        W64758  14.256  11.281  10.689
99774W        W64759   8.821  30.865   1.114
99775W        W64760  21.390  32.263   1.318
99776W        W64761   8.016  29.167  11.927
99777W        W64762   1.303   9.685  14.521
99778W        W64763  36.373  34.275   5.137
99779W        W64764   5.985  35.960  12.337
99780W        W64765  37.762  17.848   3.274
99781W        W64766  24.317  11.097   3.888
99782W        W64767  26.673   0.109   3.286
99783W        W64768  42.976  21.036   1.713
99784W        W64769  39.082   9.879  10.935
99785W        W64770  31.301  17.984   3.445
99786W        W64771  27.227  33.840   1.245
99787W        W64772  36.798  33.089  14.101
99788W        W64773   1.577  25.394  12.939
99789W        W64774  28.432  15.954   1.223
99790W        W64775  24.397   7.830   2.109
99791W        W64776  30.553  27.387   2.363
99792W        W64777  27.684  28.724  14.004
99793W        W64778  20.637  32.855   4.853
99794W        W64779  32.799  40.843  11.518
99795W        W64780  41.111  26.232  12.073
99796W        W64781  31.596  15.058   0.520
99797W        W64782  13.997  42.360   3.382
99798W        W64783  22.188  32.403   3.760
99799W        W64784  28.025  43.757  10.777
99800W        W64785  26.934  20.735  11.629
99801W        W64786  24.317  15.363   5.024
99802W        W64787  18.734  44.387   0.617
99803W        W64788  35.933   7.989   3.173
99804W        W64789  42.454  12.062   4.521
99805W        W64790  12.186  42.845  10.882
99806W        W64791   7.186  42.068  12.121
99807W        W64792  17.438  15.249   1.593
99808W        W64793  34.309   3.919   4.404
99809W        W64794  14.672  34.008   0.424
99810W        W64795   6.243  26.052  14.627
99811W        W64796   1.181  39.582  12.002
99812W        W64797  30.576  22.969   0.716
99813W        W64798  41.863   7.391   3.643
99814W        W64799  29.195  36.047   4.547
99815W        W64800  19.569  33.596  13.588
99816W        W64801   3.151   5.536  14.860
99817W        W64802  31.806  28.978  13.438
99818W        W64803  14.800  20.243   2.288
99819W        W64804   8.868  23.077   0.524
99820W        W64805  37.441  36.061   4.432
99821W        W64806  39.558  38.351  13.095
99822W        W64807  25.616  16.551  11.974
99823W        W64808  25.523   4.128   1.307
99824W        W64809  28.066   0.055  13.471
99825W        W64810   3.457   5.154   0.794
99826W        W64811  10.600  15.101   4.512
99827W        W64812  28.974  43.154   0.419
99828W        W64813  35.947   8.880   2.845
99829W        W64814  20.575  11.378  14.699
99830W        W64815  33.309   2.241   5.124
99831W        W64816   7.902   1.794   4.555
99832W        W64817  43.333  13.483   0.953
99833W        W64818  41.324  26.185  14.470
99834W        W64819  43.235  30.461   1.189
99835W        W64820  18.172  25.272  12.952
99836W        W64821   3.751  17.160   4.573
99837W        W64822  44.396  17.911  11.548
99838W        W64823  30.081   8.960  13.964
99839W        W64824  42.142  19.252  12.931
99840W        W64825  42.408  31.920   2.821
99841W        W64826  38.941  15.806  11.032
99842W        W64827  21.159   1.220  10.660
99843W        W64828  39.038  34.778   5.003
99844W        W64829   9.229  24.660   2.156
99845W        W64830  42.838  25.674   0.076
99846W        W64831  25.105  21.056   5.073
99847W        W64832   9.325   7.874   3.078
99848W        W64833  28.133  23.242   1.085
99849W        W64834  23.687  11.402  12.909
99850W        W64835  19.465  36.583  14.929
99851W        W64836  34.749  37.434  13.943
99852W        W64837  11.244  32.939  12.538
99853W        W64838  25.063  21.315  13.343
99854W        W64839  20.362   5.431   2.797
99855W        W64840  31.662  31.846  14.985
99856W        W64841  43.938  40.784  12.881
99857W        W64842  36.511  11.133   3.113
99858W        W64843  14.556  17.661   0.799
99859W        W64844  19.263  18.361   5.542
99860W        W64845   2.378   2.983   3.422
99861W        W64846  31.511  23.155   2.826
99862W        W64847  17.611   8.308  12.038
99863W        W64848  38.477  27.667  12.134
99864W        W64849  26.419  42.749   4.141
99865W        W64850  11.953  33.612   2.296
99866W        W64851  41.671  43.688   1.268
99867W        W64852  11.062  31.576   4.509
99868W        W64853  29.931   5.713   2.798
99869W        W64854  40.571  20.146  11.950
99870W        W64855  44.095  33.621   0.349
99871W        W64856   5.857  41.899  11.581
99872W        W64857   6.244  11.634  14.981
99873W        W64858  34.021  24.296   0.880
99874W        W64859  11.123  38.836  14.938
99875W        W64860   2.639  21.711   3.195
99876W        W64861   4.674  41.921   4.323
99877W        W64862  44.440  16.789  10.623
99878W        W64863  26.148   3.242  12.521
99879W        W64864  25.925  40.455  10.782
99880W        W64865  43.175  29.057   3.247
99881W        W64866  20.756  41.145   0.728
99882W        W64867  27.118  20.685  14.866
99883W        W64868  25.603  26.189  14.951
99884W        W64869  16.697  41.593  14.395
99885W        W64870  43.638   7.497   0.022
99886W        W64871  26.402  36.533  10.740
99887W        W64872   7.361  19.841  11.026
99888W        W64873   0.318  22.045  14.068
99889W        W64874   0.540   7.802  13.387
99890W        W64875   3.182  17.663   3.863
99891W        W64876  28.678  40.065  12.357
99892W        W64877  32.648  24.656   1.634
99893W        W64878  44.650  10.147  13.797
99894W        W64879   6.242  21.710   2.625
99895W        W64880  43.723   6.410   0.991
99896W        W64881  37.891  10.921   3.563
99897W        W64882   1.876   6.998   0.223
99898W        W64883  10.173   7.167  11.708
99899W        W64884  15.650  41.088   4.029
99900W        W64885   4.373  21.600   4.111
99901W        W64886  32.618  21.051  13.911
99902W        W64887  14.516  32.141   1.715
99903W        W64888   4.684  39.106   4.315
99904W        W64889  13.237  11.682   1.316
99905W        W64890  13.238  14.477   2.834
99906W        W64891  34.259  18.272  13.475
99907W        W64892  33.862  23.116   0.297
99908W        W64893   3.709  17.721   3.834
99909W        W64894  27.721  19.160  11.628
99910W        W64895  37.029  21.467   1.362
99911W        W64896  12.885  12.637  13.844
99912W        W64897  16.709  15.803  14.908
99913W        W64898   3.197  37.785   0.834
99914W        W64899  12.837  40.737  12.401
99915W        W64900  33.272  29.729   4.120
99916W        W64901  25.808  22.513   9.958
99917W        W64902  20.638  42.150   2.078
99918W        W64903  12.627   6.797  10.870
99919W        W64904  35.820  26.059  12.455
99920W        W64905   6.291   2.043   2.410
99921W        W64906  18.535  29.966  12.005
99922W        W64907  31.597  41.089   4.775
99923W        W64908  41.600  21.446  11.618
99924W        W64909  15.428   6.934   4.669
99925W        W64910  27.906  40.735   1.892
99926W        W64911  15.088  16.163  13.372
99927W        W64912  13.117  13.578   3.679
99928W        W64913  21.305  31.864   1.670
99929W        W64914   2.888  44.512  11.697
99930W        W64915  16.279  40.947   4.501
99931W        W64916  30.082   4.612  10.233
99932W        W64917  33.146  30.467   2.394
99933W        W64918  19.488   3.310  13.386
99934W        W64919   6.614  28.534  13.505
99935W        W64920  18.749  10.060   4.233
99936W        W64921  34.905  22.502   1.540
99937W        W64922  42.884  41.525   4.548
99938W        W64923  11.813  34.608  12.939
99939W        W64924  34.655  44.758  14.761
99940W        W64925  35.079   3.397   4.341
99941W        W64926  23.526  35.372   2.237
99942W        W64927  32.558   6.681   3.731
99943W        W64928   2.841  11.884   1.832
99944W        W64929  25.035  20.076   1.171
99945W        W64930   7.403  42.068   3.388
99946W        W64931   5.626  37.656   1.592
99947W        W64932  39.097   0.736  13.738
99948W        W64933  32.719  20.158   4.969
99949W        W64934   7.188  25.623  12.487
99950W        W64935   7.595  11.655   1.857
99951W        W64936  24.614  11.260   4.350
99952W        W64937  33.114  26.901   1.276
99953W        W64938  11.352  10.824  14.454
99954W        W64939  25.090  37.070  13.466
99955W        W64940  25.142  11.263  10.701
99956W        W64941  19.181  35.872   0.104
99957W        W64942  21.850  42.459   2.939
99958W        W64943   6.830  20.586   3.739
99959W        W64944  33.616  14.877   4.170
99960W        W64945   4.489  29.641  13.734
99961W        W64946  33.499  37.728  11.542
99962W        W64947  27.669   9.411   0.558
99963W        W64948  17.249   3.617   0.683
99964W        W64949  20.059  20.745  13.817
99965W        W64950   6.901  28.029   3.284
99966W        W64951  25.378   3.477   4.507
99967W        W64952  36.448  43.256  12.878
99968W        W64953  11.290  41.071  13.816
99969W        W64954  17.605  16.285  13.865
99970W        W64955  12.048  42.848   1.408
99971W        W64956  26.247  23.652  11.779
99972W        W64957   4.898  26.354   0.355
99973W        W64958   6.285  15.814   3.718
99974W        W64959  27.150   9.385  12.119
99975W        W64960  33.816  42.304  12.588
99976W        W64961  15.209  16.894   3.697
99977W        W64962  30.277  12.846  13.306
99978W        W64963  37.936   5.918  12.869
99979W        W64964  14.128  22.068   4.916
99980W        W64965  43.460  40.980   0.004
99981W        W64966  37.979  27.616  12.059
99982W        W64967  20.641  28.411   0.889
99983W        W64968  28.949   9.384   2.509
99984W        W64969  44.579  29.869   2.091
99985W        W64970   1.933  39.945   3.787
99986W        W64971   7.388   1.426  14.512
99987W        W64972  15.394  26.694   9.745
99988W        W64973   2.641  31.126   1.260
99989W        W64974  34.088   5.744  11.892
99990W        W64975  38.350   8.740   4.522
99991W        W64976  28.093  22.218   1.491
99992W        W64977   3.707   0.391  12.469
99993W        W64978  32.147  34.381  14.475
99994W        W64979   2.827   3.024   2.704
99995W        W64980  32.949  17.966  13.366
99996W        W64981  11.307  31.516  12.451
99997W        W64982  21.568   3.389  13.441
99998W        W64983  11.529   7.719  14.859
99999W        W64984  22.476  18.696   2.954
    0W        W64985  39.887  33.493   1.202
    1W        W64986  15.665   0.855   0.474
    2W        W64987  17.785   2.769  14.891
    3W        W64988   4.022  20.777  14.460
    4W        W64989  26.128  28.361   2.979
    5W        W64990  14.426  36.028   0.363
    6W        W64991  29.456  20.763   3.968
    7W        W64992  33.129   5.204  13.080
    8W        W64993  18.326  39.807   2.165
    9W        W64994  20.582  30.066  14.254
   10W        W64995  22.773  26.023   2.764
   11W        W64996  17.909  14.523  11.904
   12W        W64997  37.115  31.345  12.467
   13W        W64998  19.620  41.058  14.555
   14W        W64999  22.079  14.317   2.583
   15W        W65000   4.856  31.111  13.239
   16W        W65001  25.073  11.264  13.373
   17W        W65002  26.635  30.573  14.518
   18W        W65003  40.164  19.844  14.127
   19W        W65004  20.899  44.697  10.459
   20W        W65005   3.780  42.796   3.778
   21W        W65006   5.547   3.255   0.713
   22W        W65007   2.535  17.130   3.836
   23W        W65008  41.932  33.932   1.382
   24W        W65009  22.899  14.754  12.099
   25W        W65010   9.864   3.911   1.281
   26W        W65011  12.334  39.591  11.144
   27W        W65012   5.172  23.575  13.041
   28W        W65013  23.126  44.401  11.992
   29W        W65014  23.670  13.121   2.177
   30W        W65015  16.768   3.969  14.533
   31W        W65016   2.692  39.114  14.961
   32W        W65017   6.326  32.872   1.813
   33W        W65018  17.253  41.445  13.509
   34W        W65019  34.136   3.954  11.982
   35W        W65020  31.609  32.648   1.312
   36W        W65021  24.129  28.189   0.932
   37W        W65022  31.379  13.841  12.993
   38W        W65023  32.684  40.168   0.101
   39W        W65024  18.364  39.376   0.306
   40W        W65025   0.413   3.298   3.844
   41W        W65026  37.813  12.097   3.752
   42W        W65027  18.036  18.233   0.837
   43W        W65028  17.980  11.026  14.458
   44W        W65029  10.828  30.406  11.920
   45W        W65030  24.143  12.572   3.368
   46W        W65031  34.563  16.128   3.215
   47W        W65032  17.336  43.853   4.513
   48W        W65033  22.550  43.014   1.325
   49W        W65034  12.971  22.346  11.072
   50W        W65035  21.094  14.408   4.933
   51W        W65036  18.238  36.410   1.911
   52W        W65037  40.845   4.253   2.123
   53W        W65038  26.889  41.246  14.458
   54W        W65039  15.575  30.466   0.263
   55W        W65040   8.254  11.796  13.393
   56W        W65041   7.776  31.284   0.182
   57W        W65042   2.266  32.951   3.472
   58W        W65043  37.820   5.364   3.177
   59W        W65044  18.299  23.131   4.557
   60W        W65045  24.574  25.146   3.410
   61W        W65046   7.083  22.345   3.220
   62W        W65047   4.484  19.069   3.622
   63W        W65048  24.951  15.123   1.368
   64W        W65049  11.467   6.372   0.759
   65W        W65050  23.586   4.335   9.809
   66W        W65051  36.210  19.975   2.451
   67W        W65052  41.274  29.421   1.917
   68W        W65053  44.313  29.648  12.448
   69W        W65054   5.358   0.694   3.610
   70W        W65055   6.477  26.882  11.981
   71W        W65056  32.362   1.267   4.191
   72W        W65057  30.640   6.733  13.479
   73W        W65058  38.401  36.566   3.384
   74W        W65059  16.014   2.090  13.416
   75W        W65060  20.705  14.809  13.785
   76W        W65061  42.497  14.871  12.516
   77W        W65062  38.456  21.550  13.324
   78W        W65063  29.151  37.518   4.568
   79W        W65064  11.655  43.564  10.787
   80W        W65065  10.268  36.617  13.008
   81W        W65066  41.881   5.319   1.394
   82W        W65067  37.405   2.841   1.226
   83W        W65068  27.710  44.330  11.649
   84W        W65069   1.112   4.512   4.085
   85W        W65070   3.984   2.744  14.413
   86W        W65071   3.364   4.311  14.469
   87W        W65072  19.607  23.033   2.098
   88W        W65073  44.264   5.981  13.996
   89W        W65074  14.050   6.166   1.578
   90W        W65075   5.567   8.750  13.811
   91W        W65076  13.314  30.187  11.339
   92W        W65077  37.266  25.779  10.182
   93W        W65078   5.328  31.708   2.671
   94W        W65079  40.563   6.210  12.536
   95W        W65080   2.216  13.597  13.452
   96W        W65081  40.874  31.882  13.164
   97W        W65082  27.086  24.192   2.178
   98W        W65083  22.076  43.882   0.698
   99W        W65084  19.131  26.491  14.713
  100W        W65085   2.237  22.993  11.547
  101W        W65086   5.693   7.162  11.212
  102W        W65087   4.429  14.308  14.109
  103W        W65088  33.713  22.782  14.530
  104W        W65089   5.451  32.780  14.026
  105W        W65090   8.090  30.542   4.247
  106W        W65091  42.418  28.584  12.950
  107W        W65092  23.624  22.151  10.417
  108W        W65093   2.058  41.928   2.912
  109W        W65094  23.256  36.008   2.909
  110W        W65095  19.527  39.857  13.544
  111W        W65096  13.139   1.545  14.312
  112W        W65097  14.830  19.447   4.483
  113W        W65098  31.436  23.640  14.937
  114W        W65099  42.973  34.102   3.734
  115W        W65100  18.168  12.902   2.037
  116W        W65101   7.938   7.061  12.667
  117W        W65102  41.517   8.122  11.505
  118W        W65103   6.921   9.382  14.493
  119W        W65104  19.994  27.900  13.021
  120W        W65105   3.667  33.844  13.315
  121W        W65106  38.237  31.303  13.124
  122W        W65107  36.590   0.446  13.448
  123W        W65108   9.314  18.122  10.689
  124W        W65109   3.781  10.684  10.758
  125W        W65110   6.471   1.529  13.508
  126W        W65111  16.586  20.239   4.725
  127W        W65112  24.995  13.848   4.630
  128W        W65113  27.162  11.761  11.156
  129W        W65114  43.327  21.930  13.957
  130W        W65115  40.765  36.418   1.817
  131W        W65116  16.731  27.666  13.410
  132W        W65117  10.202  14.554   2.812
  133W        W65118  28.337  41.523  12.596
  134W        W65119  33.677  35.395   4.068
  135W        W65120  16.057  41.621   3.674
  136W        W65121  27.021   4.199   0.194
  137W        W65122  44.019   9.921  14.932
  138W        W65123  13.632  28.018   3.264
  139W        W65124   4.724  33.073  12.524
  140W        W65125  16.886  36.492   2.565
  141W        W65126  25.516  30.497  13.998
  142W        W65127  28.597  31.626   3.947
  143W        W65128  31.002  22.566  11.940
  144W        W65129  29.658  43.079  11.601
  145W        W65130  23.224  43.042   0.849
  146W        W65131  35.501  34.328   1.957
  147W        W65132  33.081  39.644   0.336
  148W        W65133  28.662  27.389  10.987
  149W        W65134  32.082  39.392  14.847
  150W        W65135  22.035  20.229   1.251
  151W        W65136  22.409  40.079  12.983
  152W        W65137  28.258   6.322  14.286
  153W        W65138   6.357   8.277   0.876
  154W        W65139  14.210  34.576   0.322
  155W        W65140  30.540  16.759   1.871
  156W        W65141  17.149  36.461  13.518
  157W        W65142   9.436  40.916   1.678
  158W        W65143  28.427  38.064   3.358
  159W        W65144  35.967  14.286   0.781
  160W        W65145  29.289  34.642  14.347
  161W        W65146  17.366  23.071  10.360
  162W        W65147   5.695  32.013  12.442
  163W        W65148  42.223  29.922  11.603
  164W        W65149  12.145  14.812  12.124
  165W        W65150  27.993  29.264  10.685
  166W        W65151   5.879  16.299   0.333
  167W        W65152  40.757  41.363  11.599
  168W        W65153  44.342  36.670   5.147
  169W        W65154   6.518  36.623  14.002
  170W        W65155  16.703  34.990   0.809
  171W        W65156  34.879  31.131  13.052
  172W        W65157  25.329  39.271   4.518
  173W        W65158  43.126  29.176  11.098
  174W        W65159  38.420  39.495  13.851
  175W        W65160  24.420   2.250  12.053
  176W        W65161  10.136  36.121   3.464
  177W        W65162   1.676  23.578   0.740
  178W        W65163  16.847   5.879   1.200
  179W        W65164   8.985  35.365  13.879
  180W        W65165  43.710  17.103   3.168
  181W        W65166  11.228  24.379   4.758
  182W        W65167   4.263  22.093  14.518
  183W        W65168  21.343  27.206  14.877
  184W        W65169  15.180   8.358   3.578
  185W        W65170  43.421  35.875  14.424
  186W        W65171  32.964  25.003   3.308
  187W        W65172   3.199  22.930  10.700
  188W        W65173   2.913  16.785   0.415
  189W        W65174  16.533  21.743  12.958
  190W        W65175  10.297  14.608  12.483
  191W        W65176  32.693  12.847  12.030
  192W        W65177  16.077   2.326   0.898
  193W        W65178  29.786  29.070  14.271
  194W        W65179   5.498  43.415   3.224
  195W        W65180  16.173  44.438   4.796
  196W        W65181  13.431   1.888   2.837
  197W        W65182   0.218  36.144   9.736
  198W        W65183  31.106  19.608  11.099
  199W        W65184  23.238  36.933  13.563
  200W        W65185  19.183  29.198   0.875
  201W        W65186   5.649   4.287  14.787
  202W        W65187  38.364  37.162  13.519
  203W        W65188  39.479  20.292   4.664
  204W        W65189  18.761  28.479   2.809
  205W        W65190  12.816  31.891   3.587
  206W        W65191   5.845  11.111  14.354
  207W        W65192  26.774  17.644  11.225
  208W        W65193  30.434  25.641  12.741
  209W        W65194   0.986  35.597  13.614
  210W        W65195  12.869   7.002  12.212
  211W        W65196   0.681  25.426   0.484
  212W        W65197  37.854  19.790   2.535
  213W        W65198   1.715  12.623  13.020
  214W        W65199  33.026  10.224   0.497
  215W        W65200  23.602  21.040   1.277
  216W        W65201  41.602  22.679   2.107
  217W        W65202  38.815  27.059  10.719
  218W        W65203  26.488  12.897   4.334
  219W        W65204  18.298  31.576   3.126
  220W        W65205  23.913  36.423  14.673
  221W        W65206  21.663   7.435   3.600
  222W        W65207  42.993   4.428   2.367
  223W        W65208  19.377  25.638  13.890
  224W        W65209  17.556  22.216   1.364
  225W        W65210  16.806  15.687   2.654
  226W        W65211  24.129  22.320   3.231
  227W        W65212  18.224  36.842   3.372
  228W        W65213  34.417   0.218   0.647
  229W        W65214  20.065  20.044   2.287
  230W        W65215  17.951   7.314   0.074
  231W        W65216  39.464  41.638  11.890
  232W        W65217  24.563   8.507   4.129
  233W        W65218  26.737  34.610  14.368
  234W        W65219  16.929  38.990  10.875
  235W        W65220  24.540   6.994   3.203
  236W        W65221  31.928  37.834  11.618
  237W        W65222   3.192  41.401   1.165
  238W        W65223  39.923  43.922   0.801
  239W        W65224  18.623  38.135   1.652
  240W        W65225  16.592  20.959   0.360
  241W        W65226   8.567  44.307  10.729
  242W        W65227  21.738  40.545  13.267
  243W        W65228  34.103  17.769  13.995
  244W        W65229  20.173  40.086  14.028
  245W        W65230   8.161  42.408   3.780
  246W        W65231  11.271  15.007  12.968
  247W        W65232  16.670  33.453   4.096
  248W        W65233  42.850  23.768  12.542
  249W        W65234  27.520  41.668   3.234
  250W        W65235  33.881  31.402   0.485
  251W        W65236  34.994   7.381  10.643
  252W        W65237  31.613  11.357   4.116
  253W        W65238  37.595  19.465  14.966
  254W        W65239  16.118  34.446   2.359
  255W        W65240  30.021  12.701   0.836
  256W        W65241  19.102  10.836   0.195
  257W        W65242  31.468   7.099   4.098
  258W        W65243  31.148  37.809   3.101
  259W        W65244  30.537  35.122  10.702
  260W        W65245  21.657  39.794  14.930
  261W        W65246  18.885  24.962  13.431
  262W        W65247  13.793   3.195   0.501
  263W        W65248   1.239   4.632   2.355
  264W        W65249   8.971  18.522   5.069
  265W        W65250  17.936   1.279  13.878
  266W        W65251  16.974  12.862   4.650
  267W        W65252   5.388  23.200  13.318
  268W        W65253  23.250   5.252  10.853
  269W        W65254  23.469  39.829   1.728
  270W        W65255  16.113  32.969  10.644
  271W        W65256   0.523  22.902  11.949
  272W        W65257  13.300  10.349   5.045
  273W        W65258  30.963  44.797  12.449
  274W        W65259   1.805  35.588  13.631
  275W        W65260  17.125  42.899   2.313
  276W        W65261   4.189  32.089  13.198
  277W        W65262  24.017  15.370   1.875
  278W        W65263  31.108  21.248   2.877
  279W        W65264  31.940  44.774  10.801
  280W        W65265  19.465  10.644   1.862
  281W        W65266  18.484  30.995   1.461
  282W        W65267   6.680   1.316   2.652
  283W        W65268  43.518  32.012   2.384
  284W        W65269  17.103  18.383  12.961
  285W        W65270  42.754  30.467  14.750
  286W        W65271  38.887  11.927  14.466
  287W        W65272  38.657   0.959   1.817
  288W        W65273   4.483  12.823  12.946
  289W        W65274  19.073  37.152  12.340
  290W        W65275   8.432  28.228  12.763
  291W        W65276   8.311  24.926   2.952
  292W        W65277  17.465   8.659  10.701
  293W        W65278  17.815  30.063   2.823
  294W        W65279  29.069   2.449  10.274
  295W        W65280  16.240  14.046  10.705
  296W        W65281   1.769   3.793   1.166
  297W        W65282  29.448   9.562   2.425
  298W        W65283   5.754  22.232  13.885
  299W        W65284  36.324  28.702   4.645
  300W        W65285   3.641   8.826  12.615
  301W        W65286  28.762  34.621   4.713
  302W        W65287   5.264  37.594   0.935
  303W        W65288  28.130   4.132  14.034
  304W        W65289  36.896   0.845   3.291
  305W        W65290  39.631  29.388  11.197
  306W        W65291  13.331  10.311  11.652
  307W        W65292  25.980  38.392   0.319
  308W        W65293   0.685  30.459  14.426
  309W        W65294  28.225  15.061   3.362
  310W        W65295  32.580  23.580  12.929
  311W        W65296  40.563   9.175   2.653
  312W        W65297  40.569  41.419   1.505
  313W        W65298  41.532  44.865   4.132
  314W        W65299  14.674  44.548   3.921
  315W        W65300  30.204  16.817  13.257
  316W        W65301   5.697  20.786  11.063
  317W        W65302  23.750  28.013  11.590
  318W        W65303  12.135  37.370   3.770
  319W        W65304  11.854  39.492  14.471
  320W        W65305  25.552   5.410  12.452
  321W        W65306  37.364   3.953   1.472
  322W        W65307  22.765  15.356   4.651
  323W        W65308  14.578  39.646   2.396
  324W        W65309  15.841  26.067  14.049
  325W        W65310  34.565   2.653  13.912
  326W        W65311   5.400  43.957   0.295
  327W        W65312  28.580   6.865  13.776
  328W        W65313  13.635  21.612  11.108
  329W        W65314  25.179   0.376  12.919
  330W        W65315  19.623  12.803  11.150
  331W        W65316   3.886  21.432   4.191
  332W        W65317  29.955  27.964  11.528
  333W        W65318  25.395   3.213  12.078
  334W        W65319  34.527  25.459   1.403
  335W        W65320  38.927  40.920  12.377
  336W        W65321  16.749  40.883  13.003
  337W        W65322  12.565  10.194  14.002
  338W        W65323   4.604   6.775   0.251
  339W        W65324  12.385  39.885   2.305
  340W        W65325  11.399  15.588   2.765
  341W        W65326  23.300   6.747  12.916
  342W        W65327  13.147  34.910   3.038
  343W        W65328  19.111  12.327   2.855
  344W        W65329  25.968  38.498   4.992
  345W        W65330   2.748  31.907   0.676
  346W        W65331  18.695  42.500   1.943
  347W        W65332   1.967   0.463   2.766
  348W        W65333  35.637   9.785  13.316
  349W        W65334  39.070  43.083  14.521
  350W        W65335  17.977  34.603   1.855
  351W        W65336  44.444  39.528  13.820
  352W        W65337  37.039  40.747   4.147
  353W        W65338   7.919  36.608  14.428
  354W        W65339  19.292  28.657   9.774
  355W        W65340  34.055  29.012  12.985
  356W        W65341  22.620  19.235   4.109
  357W        W65342  10.993  21.025  10.051
  358W        W65343  26.897   3.698  12.857
  359W        W65344  32.300  42.984   2.902
  360W        W65345  12.061  20.782  12.267
  361W        W65346  41.986   0.890  11.329
  362W        W65347  31.308  29.551  12.890
  363W        W65348   2.739  11.746   2.339
  364W        W65349   0.394  11.082   2.804
  365W        W65350  12.148   5.267  13.384
  366W        W65351  13.329  26.451  11.410
  367W        W65352  19.251  36.322  12.590
  368W        W65353   1.516  19.833  12.044
  369W        W65354  21.051  23.474  14.005
  370W        W65355  19.589  20.728  12.453
  371W        W65356  36.141   6.971   4.040
  372W        W65357  16.111  17.115  13.102
  373W        W65358  14.587  12.776   2.414
  374W        W65359  14.137  29.284  10.632
  375W        W65360  19.656  34.687   0.993
  376W        W65361  14.702  27.023   1.250
  377W        W65362  32.681  13.565  13.407
  378W        W65363  36.033  12.676  11.388
  379W        W65364   7.621  42.484  14.014
  380W        W65365  16.099  20.751   1.219
  381W        W65366   2.918   9.414   1.758
  382W        W65367  43.914  39.105  14.263
  383W        W65368  19.049  21.016  11.612
  384W        W65369  12.563  40.378   2.225
  385W        W65370   1.014  10.154  11.569
  386W        W65371  39.043  36.530   2.745
  387W        W65372  14.093  26.715   5.333
  388W        W65373  20.234  43.483  12.496
  389W        W65374  18.047  23.421   1.112
  390W        W65375  29.211  33.861  12.544
  391W        W65376  16.110  24.218   2.266
  392W        W65377   4.357  26.188   4.399
  393W        W65378   2.340  21.619  14.459
  394W        W65379  37.865  12.549   4.558
  395W        W65380  12.217  39.794  11.599
  396W        W65381  16.726  30.293  11.037
  397W        W65382  30.656  40.504   0.880
  398W        W65383   9.329  44.691  12.893
  399W        W65384   6.993  21.130   2.114
  400W        W65385  35.661  29.048   1.846
  401W        W65386  13.731  35.882  14.869
  402W        W65387   9.377  33.988   2.615
  403W        W65388  32.029  14.101  10.774
  404W        W65389   2.686  23.492  11.209
  405W        W65390  12.662   5.408  14.864
  406W        W65391  25.586  33.402  10.801
  407W        W65392  13.217  41.750  13.455
  408W        W65393  30.638   7.163  11.910
  409W        W65394  34.506  20.981   2.253
  410W        W65395   4.446   8.141   3.920
  411W        W65396  11.295  37.027  14.735
  412W        W65397   9.826   0.783   2.169
  413W        W65398  14.294  37.761  11.547
  414W        W65399  10.499  26.857   3.085
  415W        W65400  17.697  35.129  11.857
  416W        W65401  19.226  13.552  10.707
  417W        W65402  40.759  10.102  14.477
  418W        W65403  36.942  36.342   4.513
  419W        W65404  22.272  41.791   4.175
  420W        W65405  17.972   1.768  11.112
  421W        W65406  35.126  39.082   2.299
  422W        W65407  27.761   3.406  14.431
  423W        W65408   8.522  27.734  11.956
  424W        W65409   0.696  23.335   2.292
  425W        W65410   3.402  38.085  10.745
  426W        W65411  43.977   3.327   1.440
  427W        W65412  22.227  28.516   3.300
  428W        W65413   1.035  27.725   0.785
  429W        W65414  38.660  29.365   3.195
  430W        W65415  44.157  27.027   3.511
  431W        W65416  32.185   5.284   2.229
  432W        W65417  33.477  41.388  14.873
  433W        W65418  33.041   3.360   4.290
  434W        W65419  40.460  18.536   0.271
  435W        W65420   6.884  44.304  12.116
  436W        W65421  26.582  33.124   1.210
  437W        W65422  24.021  35.547   2.128
  438W        W65423  23.914  14.643   0.242
  439W        W65424  38.903   1.657   4.664
  440W        W65425  11.204  35.984   2.620
  441W        W65426  38.365  27.225   1.626
  442W        W65427   5.570  35.824  11.053
  443W        W65428  10.256   3.943   0.038
  444W        W65429   1.440  37.080   1.731
  445W        W65430   7.245  32.482   1.306
  446W        W65431  40.594   0.518  14.727
  447W        W65432  37.934  29.055  13.239
  448W        W65433  29.037   1.827  13.564
  449W        W65434  13.205  13.714   4.165
  450W        W65435  21.574  15.139   2.242
  451W        W65436  15.650  26.615   1.379
  452W        W65437  33.910   8.194  12.144
  453W        W65438  13.927  40.004   1.132
  454W        W65439   1.208  39.484  14.378
  455W        W65440  28.154  34.794   0.875
  456W        W65441  39.990   9.356  13.367
  457W        W65442  34.053  11.554  14.855
  458W        W65443  35.597  27.629  11.622
  459W        W65444  21.464  18.829  12.708
  460W        W65445  43.715  22.600  12.738
  461W        W65446  22.833  40.077   0.959
  462W        W65447  42.016   7.674   5.051
  463W        W65448  19.241  43.486   3.093
  464W        W65449   2.916  40.397  14.981
  465W        W65450  42.427  15.973   3.589
  466W        W65451  42.528  44.966   0.516
  467W        W65452  25.176   0.978   1.514
  468W        W65453  29.298  33.461  14.625
  469W        W65454  35.150  18.747  14.872
  470W        W65455  37.590   3.271  14.373
  471W        W65456  23.591  16.244   2.282
  472W        W65457  37.018  24.673  13.779
  473W        W65458  42.159  26.068  13.008
  474W        W65459  13.795  35.703   1.108
  475W        W65460  14.806  32.004   4.252
  476W        W65461  12.100  37.414   4.782
  477W        W65462  40.792   4.328   1.591
  478W        W65463  17.158  31.128  13.356
  479W        W65464  13.429   6.408  10.609
  480W        W65465   1.713  29.862  13.852
  481W        W65466  31.284  30.384   0.403
  482W        W65467  16.015  41.376  12.972
  483W        W65468   1.287  29.075   2.887
  484W        W65469  43.355  28.917  11.511
  485W        W65470  23.168  31.371   0.001
  486W        W65471  42.257  15.594   3.265
  487W        W65472  37.974  15.061   2.731
  488W        W65473   8.809  11.749   4.812
  489W        W65474  30.927  20.912   3.914
  490W        W65475  22.204   6.398   2.873
  491W        W65476  32.098  35.252   1.511
  492W        W65477   2.073   3.224   3.758
  493W        W65478  30.261   7.916   2.404
  494W        W65479  22.985  31.689  12.400
  495W        W65480  23.602  44.569  12.073
  496W        W65481   5.214  36.578  14.602
  497W        W65482  11.094  44.734  13.380
  498W        W65483   1.412   2.975   1.909
  499W        W65484   8.946  24.796  13.091
  500W        W65485  13.164   6.264  11.025
  501W        W65486   1.465  11.200   2.185
  502W        W65487   5.679  16.258   4.132
  503W        W65488  38.297  27.936   1.348
  504W        W65489   5.030  40.975  14.376
  505W        W65490  12.242   8.229  10.649
  506W        W65491  36.887  12.161   4.174
  507W        W65492  21.351  17.021   0.859
  508W        W65493  44.219  19.282   1.444
  509W        W65494   4.428  42.018  14.995
  510W        W65495  25.068   6.379  13.376
  511W        W65496  26.181  22.818  12.111
  512W        W65497  37.159   1.391  11.941
  513W        W65498  10.204  37.616   2.209
  514W        W65499  31.163   8.306   0.470
  515W        W65500  14.594   8.760   3.249
  516W        W65501  32.708  10.616   3.744
  517W        W65502  23.209  11.718   0.719
  518W        W65503  15.321  42.290  11.125
  519W        W65504  37.695   4.310  10.595
  520W        W65505  10.809  30.452   4.393
  521W        W65506  40.935  24.036   9.934
  522W        W65507  16.381  22.220  12.032
  523W        W65508   5.900  44.214  12.510
  524W        W65509  28.307  27.575  11.608
  525W        W65510  17.784   5.972  12.028
  526W        W65511  38.816  43.529  13.338
  527W        W65512   2.782  19.750   2.373
  528W        W65513  38.918  25.799   0.208
  529W        W65514  13.782  37.244   0.443
  530W        W65515  35.513  11.110  12.398
  531W        W65516   9.687  11.660   1.692
  532W        W65517  29.343  19.126   1.604
  533W        W65518  38.943  21.245  12.929
  534W        W65519  39.835  17.665   0.893
  535W        W65520  43.477   9.355   3.818
  536W        W65521  23.239  30.321   3.386
  537W        W65522  34.772  15.121   3.276
  538W        W65523   0.090  19.692  13.221
  539W        W65524  22.944   4.028   1.203
  540W        W65525  43.164   6.933  12.778
  541W        W65526  11.631  32.701  14.914
  542W        W65527  25.937  27.445  11.841
  543W        W65528  40.309  14.080  13.005
  544W        W65529  33.503  11.799  13.400
  545W        W65530  42.718  13.188  11.095
  546W        W65531  31.474  20.287  11.511
  547W        W65532  21.915  10.777   1.642
  548W        W65533  38.324   1.373   0.207
  549W        W65534  29.851  32.759  11.156
  550W        W65535   6.245  10.262   2.467
  551W        W65536  11.158   4.688   0.167
  552W        W65537  43.761  39.775   0.987
  553W        W65538  33.077   1.688  13.079
  554W        W65539  27.709  25.808  14.795
  555W        W65540  12.700   3.278   5.015
  556W        W65541  36.472  42.374  11.883
  557W        W65542  21.692  11.543   2.315
  558W        W65543  43.046  32.905  11.753
  559W        W65544  23.766  44.978  11.616
  560W        W65545  41.517  19.053  11.329
  561W        W65546   4.879  41.847   1.741
  562W        W65547  38.145  12.106   0.295
  563W        W65548  24.219  16.604   1.187
  564W        W65549  16.929  43.738  11.300
  565W        W65550   6.171  21.691   4.225
  566W        W65551  19.144  24.183   3.903
  567W        W65552  41.966   9.818  12.137
  568W        W65553   7.254   4.785   4.078
  569W        W65554  28.532  30.523   1.448
  570W        W65555  32.400  10.300   3.086
  571W        W65556  12.092   5.882  12.064
  572W        W65557  40.859  11.609   0.335
  573W        W65558   2.276  20.325   1.896
  574W        W65559   7.441  25.158   3.101
  575W        W65560  42.347  21.889  14.852
  576W        W65561  11.616  22.298   2.307
  577W        W65562  17.763  40.841  13.094
  578W        W65563  18.830  34.887   1.974
  579W        W65564  19.369  15.114   1.844
  580W        W65565  20.144  27.522   4.794
  581W        W65566  38.131  42.671   1.233
  582W        W65567  27.082  15.171   2.835
  583W        W65568  15.130  20.637   3.050
  584W        W65569  31.872  19.050   2.797
  585W        W65570   9.561  29.046   1.726
  586W        W65571  11.825  35.930  14.310
  587W        W65572  35.999  37.764   4.428
  588W        W65573  30.635  13.189   4.701
  589W        W65574   2.769  20.530   1.807
  590W        W65575  17.615  17.610  11.516
  591W        W65576   0.832   5.314   2.797
  592W        W65577  22.111  37.341   3.675
  593W        W65578  13.141  37.314   3.594
  594W        W65579   6.607  24.830   0.440
  595W        W65580   8.898  32.304  11.004
  596W        W65581  30.321  22.227  13.535
  597W        W65582  13.314  25.671  10.985
  598W        W65583  33.084  39.597  13.857
  599W        W65584  21.070  42.756  14.025
  600W        W65585  26.084   8.871  12.447
  601W        W65586   3.607  22.544  10.778
  602W        W65587   2.927  37.411  11.607
  603W        W65588  24.542  21.841  12.468
  604W        W65589  10.839  33.183  11.603
  605W        W65590  24.699  28.464   1.819
  606W        W65591  27.975  34.382  14.921
  607W        W65592  25.635  18.089  12.104
  608W        W65593   7.822  31.642   2.712
  609W        W65594   8.391  14.156  11.950
  610W        W65595  19.170  28.899  13.982
  611W        W65596  32.853  25.490  14.035
  612W        W65597   6.350  21.214   3.502
  613W        W65598  37.347  41.712   1.435
  614W        W65599   3.975  30.739  12.461
  615W        W65600  43.332  19.222   3.032
  616W        W65601  26.081  28.272  10.412
  617W        W65602  10.836  13.789  11.523
  618W        W65603  25.180  36.222   0.542
  619W        W65604  17.186  17.650   1.084
  620W        W65605   6.770  18.251   4.082
  621W        W65606  12.850  12.671  11.796
  622W        W65607  27.013  40.881   2.769
  623W        W65608  17.584  29.957  13.043
  624W        W65609  14.681  18.558  11.375
  625W        W65610  13.766  25.301   2.698
  626W        W65611  26.112  26.963  10.685
  627W        W65612  34.858  20.591   4.866
  628W        W65613   0.227   5.439  10.752
  629W        W65614  23.659  33.322  13.914
  630W        W65615  11.088   0.749  11.595
  631W        W65616  33.063  44.704   2.955
  632W        W65617  12.590  39.353   2.798
  633W        W65618  14.251  33.937   3.579
  634W        W65619  22.930  18.231   1.121
  635W        W65620  34.046  30.204   2.638
  636W        W65621  12.690  11.146   2.777
  637W        W65622  24.695  32.102   4.669
  638W        W65623  21.683   0.703  12.362
  639W        W65624  12.483  16.541   0.461
  640W        W65625  37.046  26.805   0.486
  641W        W65626  14.511  23.066   4.199
  642W        W65627  38.013  19.488  13.079
  643W        W65628   8.756   3.922   1.181
  644W        W65629  25.710  22.146  11.501
  645W        W65630  30.169  42.937  13.504
  646W        W65631  40.424  42.937   9.894
  647W        W65632   9.290   3.517  11.931
  648W        W65633  13.585   6.903   1.332
  649W        W65634  21.599   7.308  12.976
  650W        W65635  23.576  26.215  13.481
  651W        W65636  44.267   3.211  14.276
  652W        W65637  41.085   6.409  11.657
  653W        W65638  30.032  38.624   2.836
  654W        W65639  10.810  31.831  13.593
  655W        W65640  44.197   3.687  12.000
  656W        W65641  42.319   6.698  13.527
  657W        W65642  11.636  14.803  14.023
  658W        W65643  44.596  35.076  10.551
  659W        W65644  32.917  38.377  11.637
  660W        W65645  35.428  33.704  10.901
  661W        W65646  44.764  23.498  13.035
  662W        W65647  44.764  43.583   4.948
  663W        W65648  17.121  18.888   3.355
  664W        W65649   2.168  12.314  12.865
  665W        W65650  44.898  13.204  14.882
  666W        W65651   1.652   1.606   1.827
  667W        W65652   0.832  18.862   3.724
  668W        W65653  43.732  37.815   1.598
  669W        W65654  40.446  36.319   2.228
  670W        W65655   9.836  32.635  10.818
  671W        W65656  26.450   2.772  12.624
  672W        W65657  12.412  30.971  10.145
  673W        W65658  10.598  31.155  11.515
  674W        W65659  22.946   5.909  13.876
  675W        W65660  16.397  42.016   1.433
  676W        W65661   6.367   5.505  12.550
  677W        W65662  29.443  25.596  10.726
  678W        W65663  11.320  24.402  12.216
  679W        W65664  37.569  28.180   0.122
  680W        W65665  13.676  29.829  11.150
  681W        W65666  14.164  21.246  10.912
  682W        W65667  25.193  18.522  14.787
  683W        W65668   0.953   6.204   1.025
  684W        W65669  20.808   5.688   2.132
  685W        W65670  33.791  44.906   4.105
  686W        W65671  42.422   2.709  14.122
  687W        W65672   4.265  10.783   4.762
  688W        W65673  20.026   2.349   1.239
  689W        W65674  35.535  17.791   4.634
  690W        W65675  22.057   2.505   4.413
  691W        W65676  14.897  38.933  12.169
  692W        W65677  13.808  25.998  14.958
  693W        W65678  31.712   5.975   2.847
  694W        W65679  22.488  26.656  13.150
  695W        W65680  32.831  34.496  11.619
  696W        W65681  43.287  44.944  11.847
  697W        W65682  36.877  41.291  12.635
  698W        W65683  23.790  32.037  14.024
  699W        W65684   1.454  31.097  12.621
  700W        W65685  11.124  42.589   4.051
  701W        W65686  24.612  38.795  11.132
  702W        W65687   8.176  36.970  12.291
  703W        W65688   4.020  43.196  14.541
  704W        W65689  11.562  23.731  13.052
  705W        W65690  10.325  13.745  11.371
  706W        W65691   8.168  17.484  11.253
  707W        W65692  40.591  29.097   4.938
  708W        W65693  25.286   8.247  13.400
  709W        W65694   0.796  44.643  13.872
  710W        W65695  29.840  26.174   2.918
  711W        W65696  32.142   0.871   3.013
  712W        W65697   8.585   7.353   1.375
  713W        W65698  33.333  13.180   1.716
  714W        W65699  18.122  11.226   4.890
  715W        W65700  27.041  38.604   0.803
  716W        W65701  15.379  32.651  13.118
  717W        W65702  37.515  10.182  10.561
  718W        W65703   6.882   5.738   3.104
  719W        W65704  35.959  29.412   3.345
  720W        W65705  26.469   8.226   4.561
  721W        W65706  24.267   2.847   4.515
  722W        W65707  25.696  23.645   1.041
  723W        W65708  12.980  25.533  14.928
  724W        W65709   1.345   3.704  13.777
  725W        W65710  10.140  38.414   3.569
  726W        W65711  20.660   7.787   3.735
  727W        W65712  28.068  40.597  14.529
  728W        W65713  23.522  16.385   4.502
  729W        W65714  43.881  27.727  13.454
  730W        W65715  33.853  10.357  12.165
  731W        W65716  34.830  37.962  13.778
  732W        W65717  12.417  25.981  11.575
  733W        W65718  42.832  24.062  12.097
  734W        W65719   4.227  25.286   3.810
  735W        W65720  44.784   2.434   1.878
  736W        W65721  15.691  14.404   0.461
  737W        W65722  34.449  29.723   3.289
  738W        W65723  39.775  43.604   1.226
  739W        W65724  40.912  27.793  10.364
  740W        W65725  29.599  19.953   1.324
  741W        W65726  19.491  22.010  10.987
  742W        W65727  36.620  30.578   4.508
  743W        W65728  13.229  17.526   0.487
  744W        W65729   4.232  12.841  13.413
  745W        W65730  24.232  42.807  13.808
  746W        W65731  28.177  12.606  12.697
  747W        W65732  36.182   9.411  11.912
  748W        W65733  42.379  19.584   5.080
  749W        W65734  30.582  35.424   1.596
  750W        W65735  24.183  28.081   1.445
  751W        W65736  26.637   3.940   2.324
  752W        W65737   2.522  30.122   2.786
  753W        W65738  40.018   6.327   0.509
  754W        W65739  35.154  12.346   4.300
  755W        W65740   5.505  34.131   3.682
  756W        W65741  38.309   2.878  13.529
  757W        W65742  23.175  23.995  13.822
  758W        W65743  23.661  39.970  14.300
  759W        W65744   1.394  19.331  12.085
  760W        W65745  27.535  28.158   4.612
  761W        W65746  32.227  39.469   1.724
  762W        W65747  16.368  26.843  14.368
  763W        W65748  37.100  10.406  13.648
  764W        W65749  13.682  10.119  12.050
  765W        W65750  36.849  44.697  11.839
  766W        W65751   2.849  16.047  11.898
  767W        W65752  43.949  37.588   3.770
  768W        W65753  44.002  30.926  10.748
  769W        W65754  36.523  35.733  12.455
  770W        W65755  13.471   6.619   4.151
  771W        W65756   7.123   5.871  14.521
  772W        W65757  20.577  22.012   1.357
  773W        W65758  40.031  40.198   3.723
  774W        W65759  13.742   5.202  12.466
  775W        W65760  19.083  29.391  14.770
  776W        W65761  37.898  25.701   0.821
  777W        W65762  15.930  23.193  13.906
  778W        W65763  43.264  11.309  11.238
  779W        W65764  40.302  30.461  12.599
  780W        W65765  34.018  19.855  12.583
  781W        W65766  11.722  10.079   3.113
  782W        W65767   7.911   8.741   3.689
  783W        W65768  31.688  25.093  10.515
  784W        W65769  42.778   3.705   1.881
  785W        W65770  30.476  28.207  14.453
  786W        W65771  24.227  19.476  11.997
  787W        W65772  13.720  37.078  10.596
  788W        W65773  20.809  31.351  10.661
  789W        W65774  19.886  42.537   4.131
  790W        W65775   4.802  35.581   1.825
  791W        W65776  38.304   4.189  14.186
  792W        W65777  28.052  30.946   3.531
  793W        W65778  43.048  11.209   4.557
  794W        W65779  12.756  24.140  12.956
  795W        W65780  25.139   5.370  11.540
  796W        W65781  40.887   2.148   0.719
  797W        W65782  44.845  44.888  14.959
  798W        W65783  21.217  29.213  13.776
  799W        W65784   7.612  22.680   2.669
  800W        W65785  35.116  25.611   0.891
  801W        W65786   3.323   2.810   2.644
  802W        W65787  18.123  40.891   1.959
  803W        W65788  22.335   8.097   2.921
  804W        W65789   4.985  12.397   2.195
  805W        W65790  24.666  34.298  10.106
  806W        W65791  33.321   7.382   1.850
  807W        W65792  17.384  14.214   4.151
  808W        W65793   7.515   2.254  11.769
  809W        W65794  11.778   3.699   2.777
  810W        W65795  41.485  16.889   3.526
  811W        W65796  28.659  13.743   1.392
  812W        W65797   4.680  33.297  14.408
  813W        W65798  34.064  12.058  13.967
  814W        W65799  19.720  33.887   1.423
  815W        W65800   3.475   4.608   0.779
  816W        W65801  26.179  20.317   3.765
  817W        W65802  30.210  38.476   0.376
  818W        W65803   9.206   2.634  13.992
  819W        W65804  32.396  29.779   2.405
  820W        W65805  16.509   1.429   0.428
  821W        W65806  28.452   8.943   0.610
  822W        W65807  18.259  18.004  13.115
  823W        W65808  36.886  10.875  13.733
  824W        W65809  25.959  43.367   2.879
  825W        W65810  38.582   2.476   1.166
  826W        W65811  33.053  29.668  12.489
  827W        W65812  37.114  35.919   2.476
  828W        W65813  32.419  36.932   0.484
  829W        W65814  18.947  35.441  11.673
  830W        W65815  17.243   5.306   1.456
  831W        W65816  17.750  29.690  14.844
  832W        W65817   7.768  31.539   1.157
  833W        W65818  20.225   7.885  10.660
  834W        W65819  42.383  37.566  11.189
  835W        W65820  22.632  21.047  12.979
  836W        W65821  17.873  11.694   4.709
  837W        W65822  17.661   6.830  14.791
  838W        W65823   3.051  22.483  14.289
  839W        W65824   6.327  23.725   2.743
  840W        W65825  27.055  12.632   4.047
  841W        W65826   4.926  26.063  13.507
  842W        W65827  19.688  34.870  13.320
  843W        W65828   5.925  12.686  10.868
  844W        W65829  36.516   6.045  14.621
  845W        W65830  36.604   0.465   4.228
  846W        W65831  27.119  44.887   5.488
  847W        W65832  11.808  23.728  13.522
  848W        W65833   1.179  36.622   0.155
  849W        W65834  26.973   1.790  12.616
  850W        W65835  18.694  37.077   3.360
  851W        W65836   3.008  42.273  12.526
  852W        W65837   0.333  24.705   3.263
  853W        W65838  33.878  40.029   4.072
  854W        W65839   0.810  26.223   2.336
  855W        W65840  24.007   2.498  10.230
  856W        W65841   8.132   4.390  13.467
  857W        W65842  35.425  13.417   4.958
  858W        W65843  15.195  16.825   2.740
  859W        W65844   9.372  27.548   1.780
  860W        W65845  39.975   0.671   4.335
  861W        W65846  27.925  10.848  12.569
  862W        W65847  37.806   6.737   3.565
  863W        W65848  18.221  23.719  11.678
  864W        W65849   5.605   3.648   4.101
  865W        W65850  35.799  18.343  13.973
  866W        W65851  18.652  26.571  13.435
  867W        W65852  14.915  44.303   1.853
  868W        W65853  41.679  44.548  10.476
  869W        W65854  16.873  12.153  11.612
  870W        W65855  39.153  30.514  10.269
  871W        W65856  11.593  22.532   1.849
  872W        W65857  27.909  44.008   2.157
  873W        W65858  31.830   1.929   0.902
  874W        W65859  33.415  13.640   1.464
  875W        W65860  37.175   4.927  12.476
  876W        W65861  37.421   0.099  12.524
  877W        W65862  19.100  30.534  12.871
  878W        W65863  14.174  35.111  11.115
  879W        W65864  20.207   4.879   2.404
  880W        W65865   7.199   9.303  14.932
  881W        W65866  12.692  40.071   4.018
  882W        W65867  35.908  24.525   0.218
  883W        W65868   0.046  14.479   0.353
  884W        W65869  24.183  27.706  10.523
  885W        W65870  15.714  38.152   4.987
  886W        W65871  37.033  35.587   3.819
  887W        W65872  35.461  11.570   2.637
  888W        W65873  31.199  37.930   1.286
  889W        W65874  40.613  40.484  13.876
  890W        W65875  18.551   8.246   1.735
  891W        W65876  10.871  32.138   3.051
  892W        W65877  39.496  33.558  14.128
  893W        W65878   7.294   1.888  11.477
  894W        W65879  34.413   9.942  12.559
  895W        W65880  15.809   6.761   2.089
  896W        W65881  10.205  40.052   2.350
  897W        W65882  12.478   5.002  10.191
  898W        W65883  12.105  30.543   3.696
  899W        W65884  40.190  18.773  11.088
  900W        W65885  39.797  40.808  14.394
  901W        W65886  13.918   5.203  10.707
  902W        W65887  21.901  24.203   1.666
  903W        W65888  30.715  10.339  13.639
  904W        W65889  33.938  31.463  12.930
  905W        W65890  39.933   2.304   0.835
  906W        W65891  28.159  30.374   4.299
  907W        W65892  30.555  23.593   4.619
  908W        W65893  17.680  31.765  12.733
  909W        W65894  42.655  14.862  10.608
  910W        W65895  39.741   8.202  11.099
  911W        W65896  11.294   6.148   4.710
  912W        W65897  34.130  33.583  13.400
  913W        W65898   6.490   4.186  11.207
  914W        W65899  29.730  26.500  11.605
  915W        W65900   6.289  27.063   3.296
  916W        W65901   5.704  43.162   4.137
  917W        W65902  18.126  24.116   3.042
  918W        W65903   7.828  36.597   1.900
  919W        W65904  32.752  37.433   1.307
  920W        W65905  19.221  27.683   0.768
  921W        W65906  36.438   0.203  13.988
  922W        W65907  29.186  21.304   1.877
  923W        W65908  14.409  40.908   0.729
  924W        W65909  21.568  13.919  14.611
  925W        W65910  23.357  21.116   1.757
  926W        W65911  36.888  13.717  11.720
  927W        W65912   5.258  32.437   1.392
  928W        W65913  24.516  11.338   2.687
  929W        W65914  12.855  11.121   0.337
  930W        W65915  44.822  42.727   0.996
  931W        W65916   1.755   8.515   2.399
  932W        W65917  35.198   4.922   2.098
  933W        W65918  32.407   3.389  11.760
  934W        W65919  24.875  39.857   0.936
  935W        W65920  30.515  24.410  12.012
  936W        W65921   1.439  41.942   1.742
  937W        W65922  16.592  17.044   3.074
  938W        W65923  37.161   9.061  12.167
  939W        W65924   2.310  34.427  14.765
  940W        W65925  22.259  21.759  11.770
  941W        W65926   1.920  28.060   1.624
  942W        W65927  19.981  11.404   4.666
  943W        W65928  27.128   9.578   2.190
  944W        W65929  44.239  42.474  12.461
  945W        W65930  24.635  40.007  11.380
  946W        W65931  27.962  27.598   3.376
  947W        W65932  28.995  41.616   3.745
  948W        W65933  34.574  32.652   4.910
  949W        W65934   6.311  12.400   3.650
  950W        W65935  39.938   8.104  11.550
  951W        W65936  14.244  39.393  13.711
  952W        W65937   1.049  39.865   2.845
  953W        W65938  20.753   3.842   1.640
  954W        W65939  22.012   3.669  10.952
  955W        W65940  40.449  21.616   3.672
  956W        W65941  15.595   7.431  14.277
  957W        W65942  40.704  20.486   2.017
  958W        W65943  25.084  24.160   3.907
  959W        W65944   3.475  24.790   3.944
  960W        W65945   3.905  33.974  12.861
  961W        W65946  43.409   8.356  11.197
  962W        W65947  15.593  43.970  14.251
  963W        W65948  25.706  18.825  10.515
  964W        W65949  40.790   1.259   2.425
  965W        W65950   3.260   1.015  14.431
  966W        W65951  11.180  42.198   4.374
  967W        W65952  24.213  16.588  11.152
  968W        W65953  41.570   7.548   4.092
  969W        W65954  13.711  39.339  12.438
  970W        W65955   3.391  27.631   4.260
  971W        W65956   0.000  21.172   1.871
  972W        W65957  29.199  24.972  13.445
  973W        W65958  39.392  40.763   3.957
  974W        W65959  17.712  11.965   3.786
  975W        W65960  35.091   3.357  12.847
  976W        W65961  29.817  23.722   4.872
  977W        W65962  33.838  36.981  12.901
  978W        W65963  20.367  24.043  12.096
  979W        W65964  11.380  12.425  12.508
  980W        W65965  11.360  13.803  13.420
  981W        W65966  25.605  38.216  14.945
  982W        W65967  30.459  13.108   2.848
  983W        W65968  35.366  37.558  13.274
  984W        W65969  26.633  30.821  10.251
  985W        W65970  13.546  41.445   1.232
  986W        W65971  27.120  36.428  14.889
  987W        W65972  15.777  10.820  14.333
  988W        W65973  32.369  42.585   0.324
  989W        W65974   2.483  15.705  11.703
  990W        W65975   7.802   5.885  14.666
  991W        W65976  43.909  18.639   4.756
  992W        W65977   5.834  16.578  13.862
  993W        W65978  30.805  19.203   4.495
  994W        W65979  21.112  23.671   5.162
  995W        W65980  20.260  44.745   0.438
  996W        W65981  18.592  33.591  13.442
  997W        W65982  32.408  40.226   3.599
  998W        W65983  21.698  31.678  10.956
  999W        W65984  27.966   0.475   5.298
 1000W        W65985   4.842  25.449  14.025
 1001W        W65986  10.103  18.170  11.327
 1002W        W65987  12.496  26.498  14.734
 1003W        W65988  18.638  44.032   4.581
 1004W        W65989  31.826  36.875  12.765
 1005W        W65990  28.617  19.039  12.995
 1006W        W65991  31.181   2.914  13.486
 1007W        W65992  24.691  18.454  11.973
 1008W        W65993  40.912   2.386  13.555
 1009W        W65994   3.272  25.915   0.339
 1010W        W65995  41.326  34.464   1.555
 1011W        W65996  37.007   2.697   4.517
 1012W        W65997  39.186  41.385  13.275
 1013W        W65998   1.735  33.698  13.344
 1014W        W65999  27.934  13.128   1.664
 1015W        W66000  40.202  41.570   3.227
 1016W        W66001   2.217  17.397  10.564
 1017W        W66002  31.150  30.575  11.655
 1018W        W66003   9.577  26.129   0.855
 1019W        W66004  37.700  28.759  11.582
 1020W        W66005  11.355  38.911  10.614
 1021W        W66006   3.128   5.763  11.014
 1022W        W66007   9.239  39.385   0.950
 1023W        W66008   1.704  28.990   1.889
 1024W        W66009  24.053   0.400   0.415
 1025W        W66010   4.334  44.816   0.729
 1026W        W66011  20.673  10.848   4.663
 1027W        W66012  18.737  17.115  12.225
 1028W        W66013  11.663  44.773   1.712
 1029W        W66014  16.945  11.827  13.387
 1030W        W66015  16.850  29.013  13.476
 1031W        W66016  26.410   3.401  12.083
 1032W        W66017  33.498  41.281   4.548
 1033W        W66018   0.571  23.050  12.754
 1034W        W66019   9.631  16.297   2.908
 1035W        W66020  10.314  18.329   3.265
 1036W        W66021   6.937  38.545  14.309
 1037W        W66022  16.811  42.020  11.202
 1038W        W66023   2.970  12.683   2.733
 1039W        W66024  37.468  10.702   3.770
 1040W        W66025   8.886  11.155   4.314
 1041W        W66026  29.498  22.783   2.690
 1042W        W66027  38.853  29.445  13.994
 1043W        W66028  24.299  16.541   2.211
 1044W        W66029  38.436  15.249   2.837
 1045W        W66030  31.396  12.249  11.042
 1046W        W66031  18.767  31.652   1.470
 1047W        W66032  10.728  25.320   0.765
 1048W        W66033   2.211   1.636   0.591
 1049W        W66034  20.260  18.648   3.705
 1050W        W66035  27.584  32.911   2.498
 1051W        W66036  40.806  14.322   4.346
 1052W        W66037   3.506   3.510  10.513
 1053W        W66038  41.847   5.026   5.007
 1054W        W66039  26.885   1.289  11.952
 1055W        W66040  40.845  42.300   0.635
 1056W        W66041  35.491  36.955  14.068
 1057W        W66042  13.742  27.473   2.348
 1058W        W66043  24.934  22.884   2.342
 1059W        W66044  23.677  42.821  10.597
 1060W        W66045  27.998   7.607   1.864
 1061W        W66046  26.555   0.509  12.564
 1062W        W66047  31.850  25.384   4.083
 1063W        W66048  43.103  14.790  14.744
 1064W        W66049   4.948   9.688   2.154
 1065W        W66050   4.073  26.279  11.115
 1066W        W66051  33.103  18.666  13.898
 1067W        W66052   9.736  29.091  11.584
 1068W        W66053  10.688  20.598  11.470
 1069W        W66054  34.102  17.182   4.154
 1070W        W66055  15.539   7.649  11.545
 1071W        W66056   6.137  25.180   3.587
 1072W        W66057  17.670  38.185  11.578
 1073W        W66058  25.099  34.180   1.974
 1074W        W66059  22.719   2.335   1.686
 1075W        W66060   8.366  15.232  13.343
 1076W        W66061  26.506   6.240   1.824
 1077W        W66062  33.550  27.420  11.119
 1078W        W66063  24.955   6.124   0.261
 1079W        W66064  31.394  40.397   0.341
 1080W        W66065  41.830  19.770  13.005
 1081W        W66066   9.871  30.912   0.893
 1082W        W66067   9.882  40.817  11.199
 1083W        W66068  42.372  30.133   5.443
 1084W        W66069  24.058   8.416  13.150
 1085W        W66070  37.347  18.556   2.375
 1086W        W66071  44.894  10.005   3.815
 1087W        W66072  35.145  40.963   1.612
 1088W        W66073  13.292   3.830   1.214
 1089W        W66074  24.198   9.600   4.958
 1090W        W66075   9.048  10.415  13.632
 1091W        W66076  34.514  26.887   3.729
 1092W        W66077   6.921   6.724   1.016
 1093W        W66078  15.822  23.099   0.182
 1094W        W66079  22.473  15.278  13.360
 1095W        W66080   7.748  42.959  10.613
 1096W        W66081   3.147  39.327  13.992
 1097W        W66082  44.791  37.086  11.846
 1098W        W66083   3.741   9.726  12.637
 1099W        W66084   6.854   6.629   4.490
 1100W        W66085  33.732  24.195  12.353
 1101W        W66086  39.990  24.749  14.529
 1102W        W66087  26.899  31.921  14.866
 1103W        W66088  40.998  43.015   0.511
 1104W        W66089  17.276  42.972  11.965
 1105W        W66090  38.644  44.962   5.089
 1106W        W66091  26.656  19.517  11.158
 1107W        W66092  23.014  35.208  10.625
 1108W        W66093   7.067  35.329   0.211
 1109W        W66094   5.884  24.754  12.658
 1110W        W66095  23.492  40.475   4.635
 1111W        W66096  23.224   8.326   0.215
 1112W        W66097  20.296  32.067   5.071
 1113W        W66098  21.034  22.626   0.267
 1114W        W66099  15.058  29.985  11.607
 1115W        W66100  12.242  33.429   4.214
 1116W        W66101  41.181  26.296   5.043
 1117W        W66102  16.695  25.063  10.292
 1118W        W66103  16.385  43.325   2.298
 1119W        W66104  14.102  26.055   2.748
 1120W        W66105  31.010  37.964   2.116
 1121W        W66106   4.882  31.559  13.534
 1122W        W66107   0.724  20.293  12.160
 1123W        W66108  12.322  14.288   3.666
 1124W        W66109  11.276  13.076   3.326
 1125W        W66110   8.391   4.262   2.677
 1126W        W66111  25.026   7.376   0.902
 1127W        W66112  14.502  16.160  14.467
 1128W        W66113  26.014  27.434  10.864
 1129W        W66114   8.331   8.939   9.751
 1130W        W66115  30.192  13.622  11.969
 1131W        W66116  12.815   3.393   0.806
 1132W        W66117  17.296  18.784  11.070
 1133W        W66118  30.092  39.798   3.841
 1134W        W66119  20.498  19.174   1.063
 1135W        W66120  16.227  14.327  12.926
 1136W        W66121  23.043   9.308   4.685
 1137W        W66122  23.098  10.854   4.584
 1138W        W66123  30.718  44.224  10.567
 1139W        W66124  36.599  21.441  14.342
 1140W        W66125  25.088  34.621  11.474
 1141W        W66126  20.361  17.681   0.313
 1142W        W66127  40.456  30.527  10.762
 1143W        W66128  38.775  41.770  10.658
 1144W        W66129  36.304   9.869  14.502
 1145W        W66130  13.576  27.218   1.716
 1146W        W66131  30.233  31.520  13.783
 1147W        W66132   1.316  37.244   0.828
 1148W        W66133  32.863  21.008   2.735
 1149W        W66134   6.375  37.910  13.918
 1150W        W66135  24.975  28.613   3.577
 1151W        W66136   4.379  14.776   3.639
 1152W        W66137  32.914  43.491  11.834
 1153W        W66138  29.606  17.660   1.446
 1154W        W66139  22.545  44.785  12.551
 1155W        W66140  38.770  44.508   0.927
 1156W        W66141  40.025  38.540  11.215
 1157W        W66142   2.499   4.785   4.475
 1158W        W66143  13.253  27.801   5.076
 1159W        W66144  37.401   3.659  12.056
 1160W        W66145  33.636   7.214   4.459
 1161W        W66146  23.060   4.362  13.629
 1162W        W66147  13.278  11.447   0.462
 1163W        W66148   7.171  41.038  12.819
 1164W        W66149  35.029  33.054   1.957
 1165W        W66150   2.985  41.025  13.102
 1166W        W66151  10.459  19.616   1.413
 1167W        W66152  39.956  18.560  12.624
 1168W        W66153  18.773  22.140  14.048
 1169W        W66154  32.798  32.118   4.774
 1170W        W66155   7.489   6.465  10.852
 1171W        W66156   0.905  30.512   0.335
 1172W        W66157  38.853  13.428   0.002
 1173W        W66158  44.416  31.595   4.583
 1174W        W66159  22.345  10.675   0.262
 1175W        W66160  23.189   3.807  12.030
 1176W        W66161   4.976  16.520  13.916
 1177W        W66162  34.383   6.432  10.001
 1178W        W66163  24.696   2.281  12.491
 1179W        W66164  32.675  12.694  14.532
 1180W        W66165  21.795   5.691  14.983
 1181W        W66166   9.607   7.847   3.760
 1182W        W66167   6.257  41.963   2.232
 1183W        W66168  17.948  33.045   2.247
 1184W        W66169  20.753  34.381   2.394
 1185W        W66170  41.796  36.029  12.701
 1186W        W66171  44.752  33.350  14.283
 1187W        W66172  27.856  10.375  12.078
 1188W        W66173   7.741  28.885  11.507
 1189W        W66174   0.911   9.694  14.874
 1190W        W66175  27.699  28.602   4.390
 1191W        W66176  25.064   7.672  11.726
 1192W        W66177  21.388   7.393  10.732
 1193W        W66178  30.605  26.267  10.532
 1194W        W66179  31.394  16.352  11.448
 1195W        W66180  19.879  27.059   3.769
 1196W        W66181  43.895  31.454  13.845
 1197W        W66182  24.151  28.972   3.351
 1198W        W66183  27.567  28.505   2.434
 1199W        W66184  36.258  33.456   2.785
 1200W        W66185  41.306  22.448   4.518
 1201W        W66186  40.804  26.672  11.970
 1202W        W66187   6.687  32.056  13.502
 1203W        W66188  10.604  41.879   0.828
 1204W        W66189  26.591  34.465  12.153
 1205W        W66190  32.005  12.584   2.915
 1206W        W66191  33.081  27.366  12.933
 1207W        W66192  28.400  20.800  11.327
 1208W        W66193  23.950   3.306   0.917
 1209W        W66194  35.366  20.995   3.637
 1210W        W66195  10.740  32.636  12.466
 1211W        W66196  14.785   9.872  14.979
 1212W        W66197  19.740  23.564  10.898
 1213W        W66198  24.928  34.118  14.011
 1214W        W66199   9.263   7.332   2.288
 1215W        W66200  14.077  10.283   4.592
 1216W        W66201  37.536   2.872  14.003
 1217W        W66202  43.892  35.596   4.120
 1218W        W66203  28.026  15.532   2.042
 1219W        W66204  42.997  18.293  12.590
 1220W        W66205  38.271  12.229   4.341
 1221W        W66206   3.856  33.550  10.682
 1222W        W66207  17.765  24.913  14.038
 1223W        W66208  32.314  25.036   2.442
 1224W        W66209   8.350   5.940   3.155
 1225W        W66210   5.959  42.449   3.373
 1226W        W66211  37.948   4.689  11.441
 1227W        W66212  21.179  20.801  12.928
 1228W        W66213  39.270  19.582   3.271
 1229W        W66214  39.124  39.285  13.236
 1230W        W66215  41.830  34.421   3.512
 1231W        W66216  31.033   7.737   2.887
 1232W        W66217  38.310  18.632   2.710
 1233W        W66218  20.860  29.809  12.436
 1234W        W66219  41.885  15.581  10.171
 1235W        W66220   1.015  39.382  14.907
 1236W        W66221  29.487   6.239  12.405
 1237W        W66222   7.183  29.695   3.650
 1238W        W66223  28.973  30.211  13.885
 1239W        W66224   7.443  38.745   4.806
 1240W        W66225  23.582  19.367  13.887
 1241W        W66226  16.737  29.229   5.245
 1242W        W66227   7.198  32.270  12.567
 1243W        W66228  30.563  28.500  12.820
 1244W        W66229  36.533  19.727   3.425
 1245W        W66230  14.670  20.010   3.772
 1246W        W66231   7.862   2.658  14.459
 1247W        W66232  28.469  33.649  12.171
 1248W        W66233  26.890  27.400   5.452
 1249W        W66234  39.026  13.201  12.601
 1250W        W66235  25.222  35.388   3.376
 1251W        W66236  11.169  27.610   2.279
 1252W        W66237  33.864  26.435   0.279
 1253W        W66238   7.319   1.264   2.384
 1254W        W66239  37.786  32.301  14.528
 1255W        W66240  41.128  15.573   4.937
 1256W        W66241  15.129  15.320  13.260
 1257W        W66242  33.583  23.218  13.633
 1258W        W66243  42.000  37.981   0.249
 1259W        W66244  22.557   5.490  12.609
 1260W        W66245  23.012  36.295  11.974
 1261W        W66246  23.301  15.566   0.843
 1262W        W66247  38.656  19.830  11.128
 1263W        W66248   1.673   4.621   4.133
 1264W        W66249  14.880  34.580  13.452
 1265W        W66250  10.032   3.340  13.987
 1266W        W66251   1.876  31.003   4.728
 1267W        W66252  36.855   7.331   2.703
 1268W        W66253   8.105  13.659   3.588
 1269W        W66254  29.130   9.255   0.312
 1270W        W66255  25.564   6.005  10.248
 1271W        W66256  42.279  27.625  14.368
 1272W        W66257  23.017  22.937  12.153
 1273W        W66258  25.200  18.168   4.634
 1274W        W66259  42.676  42.731  13.405
 1275W        W66260  17.659   9.699   2.631
 1276W        W66261  34.195  30.980   4.584
 1277W        W66262  17.377   8.922   3.641
 1278W        W66263  35.016  44.407   0.285
 1279W        W66264  40.773  37.833   0.693
 1280W        W66265  34.113  37.481   3.287
 1281W        W66266  25.341  34.787   1.209
 1282W        W66267  18.430  28.127   1.124
 1283W        W66268  33.603   1.560  14.100
 1284W        W66269  18.405   3.114  10.480
 1285W        W66270  15.837   1.813   4.479
 1286W        W66271   9.481  33.440   0.967
 1287W        W66272  25.500  17.713  12.424
 1288W        W66273   3.150  20.108   2.499
 1289W        W66274   5.598  11.287   2.747
 1290W        W66275  11.921  15.139   2.732
 1291W        W66276  19.114  40.824  14.789
 1292W        W66277   7.134   0.101  11.201
 1293W        W66278  31.646   0.745   1.273
 1294W        W66279  32.640  19.216  10.708
 1295W        W66280   9.010   5.824  12.138
 1296W        W66281  25.744  20.889  11.174
 1297W        W66282  24.282  23.265  12.550
 1298W        W66283   1.847   0.010  12.426
 1299W        W66284  32.592  26.252   3.628
 1300W        W66285  15.514  38.628   2.725
 1301W        W66286  17.314  44.363   2.771
 1302W        W66287  38.966  18.636  10.549
 1303W        W66288  19.602   0.168   1.806
 1304W        W66289  24.728   3.369   2.107
 1305W        W66290  25.899  22.471  13.578
 1306W        W66291  23.574  31.852   1.969
 1307W        W66292  38.855  22.331  11.512
 1308W        W66293  43.943   1.505  14.267
 1309W        W66294  37.399  31.955  14.618
 1310W        W66295  27.195  40.047   0.457
 1311W        W66296  15.387  15.783  11.579
 1312W        W66297  10.748  29.026   4.949
 1313W        W66298   9.553  24.593   3.143
 1314W        W66299  43.485  10.468   0.736
 1315W        W66300  12.292  11.313  13.936
 1316W        W66301  44.974   2.182  10.596
 1317W        W66302  22.057  22.473  14.112
 1318W        W66303  19.558  42.317   1.412
 1319W        W66304  27.224  27.147   3.871
 1320W        W66305  40.561  31.600   3.162
 1321W        W66306   0.707  26.400  13.836
 1322W        W66307  42.554  13.618   0.614
 1323W        W66308  39.208  27.105   2.709
 1324W        W66309  28.046  13.797  11.971
 1325W        W66310   5.233  43.452   3.665
 1326W        W66311  32.614   9.840   3.143
 1327W        W66312  15.077   9.732  12.240
 1328W        W66313  35.571   0.754   0.288
 1329W        W66314  23.075  13.883   1.310
 1330W        W66315  44.396  20.564  11.605
 1331W        W66316  12.025  16.534  13.308
 1332W        W66317   3.684  40.936  14.856
 1333W        W66318   5.319  28.952   1.769
 1334W        W66319  10.310  18.200   3.752
 1335W        W66320  23.178  36.088  14.025
 1336W        W66321  15.191  21.036   4.484
 1337W        W66322  17.734  35.771   0.332
 1338W        W66323  39.124  24.459  13.557
 1339W        W66324  11.709  12.269   4.413
 1340W        W66325  37.436   4.316  13.739
 1341W        W66326  28.468  33.153  12.160
 1342W        W66327  43.960  20.654   3.395
 1343W        W66328  39.099  26.134  14.849
 1344W        W66329   0.303  18.245  13.570
 1345W        W66330  20.527  14.858  11.551
 1346W        W66331  43.686  10.423  13.865
 1347W        W66332  41.300   6.864  11.908
 1348W        W66333   0.470   0.464   2.765
 1349W        W66334  16.794  15.808   1.331
 1350W        W66335  21.305   8.290   2.656
 1351W        W66336  21.559  37.786  11.206
 1352W        W66337  11.158  21.068  11.187
 1353W        W66338  13.251  33.340  12.936
 1354W        W66339  31.989  25.873   4.209
 1355W        W66340  37.376   1.339   1.864
 1356W        W66341   1.011  10.449  11.168
 1357W        W66342   7.774   0.540   4.239
 1358W        W66343  28.764  43.240  10.973
 1359W        W66344  36.714  40.259  10.687
 1360W        W66345  32.649  25.099   4.310
 1361W        W66346  13.796  31.323   5.272
 1362W        W66347  16.824  23.125  10.399
 1363W        W66348  42.580  39.457  10.549
 1364W        W66349  25.416  40.276  13.475
 1365W        W66350  29.451  11.608  11.614
 1366W        W66351   0.257  27.972  14.896
 1367W        W66352  34.457   0.888  12.577
 1368W        W66353  16.120  44.328  12.122
 1369W        W66354   9.862  31.518  14.747
 1370W        W66355  15.201   2.763   5.396
 1371W        W66356   9.880  29.638  13.330
 1372W        W66357   6.263  10.669  13.674
 1373W        W66358   5.858  23.682   0.525
 1374W        W66359  33.979  43.773   3.354
 1375W        W66360  40.947  32.193   0.030
 1376W        W66361  23.433  17.214   0.392
 1377W        W66362  20.260  28.670  11.553
 1378W        W66363  25.003  23.854   1.561
 1379W        W66364  30.359   0.529   0.972
 1380W        W66365  13.102  12.091  14.864
 1381W        W66366  34.168  40.099  10.819
 1382W        W66367  25.737  19.645   0.716
 1383W        W66368  29.789  17.681   0.378
 1384W        W66369  22.482  13.872  12.121
 1385W        W66370  28.858  43.540   3.109
 1386W        W66371  42.003  40.957  12.006
 1387W        W66372  29.846   5.782   2.241
 1388W        W66373  43.775  28.322  10.713
 1389W        W66374  35.066  16.808  13.365
 1390W        W66375  28.310   7.243  14.272
 1391W        W66376   5.789  34.913   0.687
 1392W        W66377  35.818  27.041   3.152
 1393W        W66378  22.611   6.524  14.335
 1394W        W66379   6.410  27.687  13.329
 1395W        W66380  25.729  17.514  10.738
 1396W        W66381  36.052   4.919  12.442
 1397W        W66382   9.376   7.355   3.735
 1398W        W66383  39.126  30.382  12.031
 1399W        W66384  15.675  36.940  12.933
 1400W        W66385  36.127  23.806  12.325
 1401W        W66386  16.348  17.854  10.658
 1402W        W66387  15.717  40.212  11.450
 1403W        W66388  18.047  18.468  13.158
 1404W        W66389  37.337  35.216   4.082
 1405W        W66390  21.222  33.396   1.811
 1406W        W66391   0.853  18.687  14.238
 1407W        W66392   0.252  28.721  12.014
 1408W        W66393  17.629  19.627  11.840
 1409W        W66394  11.166   2.114  10.948
 1410W        W66395  33.521  20.965  12.098
 1411W        W66396  38.779  34.905  11.048
 1412W        W66397  32.135  14.238  13.913
 1413W        W66398  19.486  34.093  12.021
 1414W        W66399  33.457  30.164   1.365
 1415W        W66400  26.740  34.161  11.648
 1416W        W66401  44.838  10.402  13.378
 1417W        W66402  41.499  32.091  13.867
 1418W        W66403  42.998  21.389   2.287
 1419W        W66404  14.568  32.447   4.102
 1420W        W66405  19.139  23.269  11.963
 1421W        W66406   3.924  11.028   3.316
 1422W        W66407   0.812  15.734  11.028
 1423W        W66408  16.370  35.813   1.613
 1424W        W66409  21.544  26.147   4.078
 1425W        W66410  19.478   2.666  11.583
 1426W        W66411  38.263   3.582   4.350
 1427W        W66412   6.253  22.208  14.034
 1428W        W66413  23.427  32.157   0.790
 1429W        W66414  19.116  10.430  12.461
 1430W        W66415  20.030  42.421   2.203
 1431W        W66416  19.193  33.880  11.077
 1432W        W66417  11.069  21.536  12.076
 1433W        W66418   1.498  44.970   3.766
 1434W        W66419  41.348   9.404  13.320
 1435W        W66420  43.891  30.413   4.073
 1436W        W66421  44.339  12.259   4.187
 1437W        W66422  15.875  42.730  11.916
 1438W        W66423  38.385   9.202   3.309
 1439W        W66424  33.907   2.686   3.266
 1440W        W66425  14.546   2.024  10.647
 1441W        W66426   0.329  33.293  11.649
 1442W        W66427  39.490   1.344   1.689
 1443W        W66428  25.044  10.888  12.692
 1444W        W66429  13.413   2.812  14.150
 1445W        W66430  13.620  23.198   4.695
 1446W        W66431   5.309   6.316  11.909
 1447W        W66432  12.551   7.675  13.046
 1448W        W66433  24.140  24.368  14.322
 1449W        W66434  30.704  10.113   1.345
 1450W        W66435  29.542  23.613   0.823
 1451W        W66436  30.177  27.105  13.150
 1452W        W66437  16.233  35.085  14.367
 1453W        W66438  40.832  35.291   2.324
 1454W        W66439  24.689  26.102   3.793
 1455W        W66440  30.925  38.167   1.664
 1456W        W66441  34.085  44.108   1.223
 1457W        W66442  43.299  24.778   1.150
 1458W        W66443  29.194   6.755   2.799
 1459W        W66444  36.552  10.324  12.924
 1460W        W66445  14.745  35.789  11.249
 1461W        W66446  13.698  30.512  10.310
 1462W        W66447  42.002   5.331  10.002
 1463W        W66448  28.757  15.797  13.570
 1464W        W66449   2.306  25.183   4.333
 1465W        W66450   5.948   4.010   2.162
 1466W        W66451  10.154  21.259   3.246
 1467W        W66452  19.006  27.649   2.217
 1468W        W66453  28.093  29.208   2.738
 1469W        W66454  20.544  22.926  13.799
 1470W        W66455  16.433   4.679   5.532
 1471W        W66456  13.574  26.495   2.244
 1472W        W66457   5.413   9.667  13.529
 1473W        W66458   3.688  37.877   2.849
 1474W        W66459  36.085  32.256  12.494
 1475W        W66460  15.233  44.331  14.290
 1476W        W66461   0.524  21.114   1.887
 1477W        W66462  36.528   6.509  11.999
 1478W        W66463  21.988  17.266   0.330
 1479W        W66464  21.812  29.150   4.158
 1480W        W66465  32.465   3.652   0.789
 1481W        W66466  34.604  22.127  14.973
 1482W        W66467   9.975   8.338  12.962
 1483W        W66468   6.938  15.327   3.282
 1484W        W66469   9.968   1.004  14.439
 1485W        W66470  30.542  38.838   0.579
 1486W        W66471   2.414   2.422   4.234
 1487W        W66472  20.315  34.613  11.104
 1488W        W66473  41.974   0.876   1.427
 1489W        W66474   9.792  32.384   1.362
 1490W        W66475  22.536  41.320   1.800
 1491W        W66476  31.033   9.691   4.683
 1492W        W66477  10.399  22.544  12.578
 1493W        W66478  29.045  10.645   1.903
 1494W        W66479   9.611  15.259   3.571
 1495W        W66480  39.950  34.422   0.368
 1496W        W66481  30.067  36.927  10.617
 1497W        W66482  43.755  33.836   4.486
 1498W        W66483  21.542   4.408  11.879
 1499W        W66484  33.110  40.725   1.200
 1500W        W66485   8.030  40.035   4.647
 1501W        W66486  25.873  22.594   3.229
 1502W        W66487   3.891   2.688  10.738
 1503W        W66488   9.918  18.376   4.459
 1504W        W66489  26.606  21.164  14.907
 1505W        W66490  12.507  39.902  14.081
 1506W        W66491   9.725  21.937  13.985
 1507W        W66492   0.860  31.204   4.061
 1508W        W66493  12.119  43.498   2.732
 1509W        W66494   7.816  17.265  12.591
 1510W        W66495  27.373  22.961   3.371
 1511W        W66496  34.644  30.553   2.183
 1512W        W66497  14.348  36.639  12.089
 1513W        W66498   4.445  38.353   1.945
 1514W        W66499  15.661  40.332   2.122
 1515W        W66500  26.862  21.457  12.064
 1516W        W66501   1.401  26.253   0.405
 1517W        W66502  20.253  33.543  12.989
 1518W        W66503   1.869  28.548  13.956
 1519W        W66504   2.833   7.632  14.419
 1520W        W66505  16.630  14.509  11.127
 1521W        W66506  25.736  40.044  11.619
 1522W        W66507  16.859  44.298  11.583
 1523W        W66508  24.556  18.213   4.338
 1524W        W66509  35.015  44.085  11.090
 1525W        W66510   2.779  43.292   4.009
 1526W        W66511  32.613  33.186  13.804
 1527W        W66512  11.155  24.513  13.544
 1528W        W66513  14.524  24.215  11.478
 1529W        W66514  43.312   5.302   2.692
 1530W        W66515  21.047  29.056  11.012
 1531W        W66516  11.027  11.052   4.416
 1532W        W66517  39.823  22.210  13.403
 1533W        W66518  19.728  11.928   2.679
 1534W        W66519   3.194  19.978   1.269
 1535W        W66520   5.145  33.487  14.709
 1536W        W66521  20.719  10.801  13.896
 1537W        W66522  23.618   5.683   0.456
 1538W        W66523  15.726  10.192   2.201
 1539W        W66524  21.909  42.023   2.169
 1540W        W66525  29.723   2.421   3.583
 1541W        W66526  20.331  32.817   3.461
 1542W        W66527   8.082   9.835   9.889
 1543W        W66528   3.248   2.814   3.945
 1544W        W66529   0.000  37.954   0.338
 1545W        W66530  10.270   7.147  10.655
 1546W        W66531  34.584  42.572   3.226
 1547W        W66532  34.635  26.632  12.292
 1548W        W66533  10.114  32.959  11.103
 1549W        W66534  43.225  25.744   5.337
 1550W        W66535  15.641  26.555  14.015
 1551W        W66536  16.129   4.210  14.411
 1552W        W66537   8.529  10.668  10.590
 1553W        W66538  10.629   4.448   2.663
 1554W        W66539  17.309   4.453   3.583
 1555W        W66540  26.476  13.034   0.316
 1556W        W66541  44.370  30.524  12.974
 1557W        W66542   8.919  20.715  14.517
 1558W        W66543  18.124   3.447   0.217
 1559W        W66544  43.436  21.964   4.949
 1560W        W66545  17.667   2.198   2.868
 1561W        W66546  33.695  38.877   2.194
 1562W        W66547   8.215  44.980   4.677
 1563W        W66548   4.172  19.802   0.372
 1564W        W66549  16.862   8.402  14.936
 1565W        W66550   1.872  35.610   2.777
 1566W        W66551  20.546  14.623  13.344
 1567W        W66552  32.283  11.216  13.509
 1568W        W66553   2.124  29.619  11.577
 1569W        W66554  39.805   7.177  14.529
 1570W        W66555  33.608  18.398   4.599
 1571W        W66556  25.491  10.008  10.754
 1572W        W66557  21.216   9.214   4.065
 1573W        W66558   3.232  15.023  12.469
 1574W        W66559   8.738  21.155   1.838
 1575W        W66560   3.326  14.136  11.151
 1576W        W66561  11.939  19.468   0.461
 1577W        W66562   9.189   8.738  13.292
 1578W        W66563  23.981  30.123   5.512
 1579W        W66564  39.943  22.293   4.163
 1580W        W66565  42.309  27.576   4.059
 1581W        W66566  10.276   3.916  12.307
 1582W        W66567   2.474  41.453  12.657
 1583W        W66568   8.171  31.412   4.755
 1584W        W66569  28.045  29.521   1.181
 1585W        W66570  36.299  31.419  12.923
 1586W        W66571  12.855  14.331  14.335
 1587W        W66572   2.745   5.150   2.163
 1588W        W66573  24.237  42.182  13.345
 1589W        W66574  44.326  41.772   1.691
 1590W        W66575  16.400  15.047  12.800
 1591W        W66576   3.299  30.848  13.961
 1592W        W66577  25.534   9.459   2.777
 1593W        W66578  16.714   7.241  13.952
 1594W        W66579  36.036  25.940  12.009
 1595W        W66580  20.633  40.086   4.577
 1596W        W66581  19.016  37.666  12.448
 1597W        W66582   0.908  33.421  12.916
 1598W        W66583  39.257  24.426   3.390
 1599W        W66584  23.322  33.139  11.388
 1600W        W66585  38.772   1.935   3.667
 1601W        W66586   9.917  13.195  13.046
 1602W        W66587  43.293  35.597  11.828
 1603W        W66588   2.408  23.271  13.017
 1604W        W66589  22.528  24.199   4.627
 1605W        W66590  30.939  42.745   2.704
 1606W        W66591  24.177  34.116   3.182
 1607W        W66592  21.526   6.326  14.810
 1608W        W66593  17.856  30.425  12.883
 1609W        W66594   0.915  36.083  10.397
 1610W        W66595  16.342  11.471   4.613
 1611W        W66596  27.109   3.994  13.758
 1612W        W66597  27.444   3.219  14.972
 1613W        W66598  34.178  23.991  11.576
 1614W        W66599  22.475   8.520   1.777
 1615W        W66600  38.732  15.169   4.447
 1616W        W66601  23.318  27.232   4.121
 1617W        W66602  24.971  33.157  13.466
 1618W        W66603  29.429  27.138  14.404
 1619W        W66604   2.996  44.855  13.008
 1620W        W66605  41.948  22.262  13.222
 1621W        W66606  36.021  23.969  13.813
 1622W        W66607  22.616  11.904  11.533
 1623W        W66608  40.256  41.041   4.488
 1624W        W66609  25.007  40.225  14.336
 1625W        W66610  14.785  31.496  11.150
 1626W        W66611  26.039   9.597  13.115
 1627W        W66612  37.193   9.737   4.859
 1628W        W66613   6.652  19.210  14.111
 1629W        W66614  38.607  32.009   1.461
 1630W        W66615  23.147   7.319  14.307
 1631W        W66616   3.624  12.309  11.600
 1632W        W66617  38.370  10.165   3.211
 1633W        W66618  16.582  35.339  12.245
 1634W        W66619  12.342   1.560   1.602
 1635W        W66620   7.253  11.228   1.054
 1636W        W66621  38.674  33.464   3.698
 1637W        W66622  40.556  11.105  10.643
 1638W        W66623   0.026  22.155   3.746
 1639W        W66624  18.846  30.097  13.507
 1640W        W66625  33.877  44.852  11.906
 1641W        W66626  39.060   1.482   2.884
 1642W        W66627  14.543  35.430  13.943
 1643W        W66628   1.927  31.598  12.102
 1644W        W66629   7.756   4.802   2.885
 1645W        W66630  17.788   3.641  13.348
 1646W        W66631  13.868  12.672   2.333
 1647W        W66632  12.298  19.072  13.872
 1648W        W66633   7.446  24.852  12.119
 1649W        W66634  15.166  20.660  13.816
 1650W        W66635   8.201  11.808  11.576
 1651W        W66636  34.520  43.919   2.145
 1652W        W66637  20.435  14.323   1.333
 1653W        W66638   4.166  36.405  14.212
 1654W        W66639   0.987  13.590   0.366
 1655W        W66640  26.142  23.259  10.884
 1656W        W66641  21.187   1.888   4.578
 1657W        W66642  27.858  13.830  10.213
 1658W        W66643   4.865  31.384   0.859
 1659W        W66644   4.277  28.572  12.102
 1660W        W66645  18.898   7.013  12.975
 1661W        W66646  43.484   0.841  14.698
 1662W        W66647   7.354   3.252  12.753
 1663W        W66648  23.576  13.186   3.052
 1664W        W66649   5.719   9.261   3.313
 1665W        W66650  44.167   5.744  14.859
 1666W        W66651   1.649  26.123   1.255
 1667W        W66652  19.588  28.871   0.790
 1668W        W66653   2.356  14.177   1.909
 1669W        W66654  20.875  40.609   2.798
 1670W        W66655  13.264  12.713   3.586
 1671W        W66656  34.441  28.143  14.092
 1672W        W66657  21.486   6.540   1.221
 1673W        W66658  30.390  26.560  13.036
 1674W        W66659  34.011  11.060   0.974
 1675W        W66660  29.143  11.022   4.149
 1676W        W66661  34.068   4.514   3.391
 1677W        W66662   5.200  30.600  11.281
 1678W        W66663  16.278  17.291   4.634
 1679W        W66664  39.720  22.757  11.506
 1680W        W66665  27.470  39.396  11.641
 1681W        W66666  18.160  21.194   4.568
 1682W        W66667  42.408   1.758   4.686
 1683W        W66668  35.136  44.802  11.608
 1684W        W66669  33.116  28.699   4.206
 1685W        W66670  28.699  39.942  13.969
 1686W        W66671  29.006  31.711   0.556
 1687W        W66672  28.879   6.861   3.291
 1688W        W66673  18.076  43.331   0.046
 1689W        W66674  31.695  21.632   1.958
 1690W        W66675  30.653  21.233  11.438
 1691W        W66676  16.651   5.200  13.624
 1692W        W66677  14.385  15.280  11.564
 1693W        W66678  18.312  14.045  12.589
 1694W        W66679  26.978  21.519   0.260
 1695W        W66680  34.194  41.058   1.466
 1696W        W66681  40.505  32.849   0.348
 1697W        W66682  20.067  20.824   3.944
 1698W        W66683  15.279   6.917  13.557
 1699W        W66684  28.291  22.195   2.863
 1700W        W66685  16.169   5.177  11.519
 1701W        W66686   9.632  40.648   1.266
 1702W        W66687  37.842  13.591  11.485
 1703W        W66688  33.236  16.370  10.508
 1704W        W66689  18.731  42.060  14.711
 1705W        W66690   6.824  22.702  14.464
 1706W        W66691   4.793  16.300  10.668
 1707W        W66692   7.848  18.492  11.212
 1708W        W66693  25.636  22.176  14.697
 1709W        W66694   9.607  37.088  12.692
 1710W        W66695  25.878   1.314   2.683
 1711W        W66696  14.108  18.233  14.290
 1712W        W66697  26.969  26.258   1.036
 1713W        W66698   2.336   5.133  14.865
 1714W        W66699  14.864  14.515  13.491
 1715W        W66700  21.679  35.537   3.160
 1716W        W66701  18.348  34.130   4.781
 1717W        W66702  11.373   8.886   2.948
 1718W        W66703  38.445  14.806  11.519
 1719W        W66704  24.704  11.707   2.353
 1720W        W66705  13.326   9.260   0.334
 1721W        W66706  16.426  21.706   3.772
 1722W        W66707   9.437  29.312  13.629
 1723W        W66708  26.146  37.478  11.515
 1724W        W66709  18.230  38.858  14.215
 1725W        W66710  19.749  21.729   3.921
 1726W        W66711  15.037  42.445  11.567
 1727W        W66712  28.931  23.734   1.926
 1728W        W66713  13.911  33.197   1.273
 1729W        W66714  42.506   1.892  14.142
 1730W        W66715   0.280  36.724   3.207
 1731W        W66716  12.062  22.123  13.412
 1732W        W66717  40.162  44.550  14.700
 1733W        W66718  16.273   9.601  14.037
 1734W        W66719   4.460  14.120   2.138
 1735W        W66720  13.911  37.416   9.956
 1736W        W66721   8.622  40.278  14.319
 1737W        W66722   3.893  33.190   0.086
 1738W        W66723   6.569  26.016   0.886
 1739W        W66724   3.889  38.055  14.887
 1740W        W66725   5.535   3.369  13.874
 1741W        W66726  11.801   4.941   5.000
 1742W        W66727   2.181  27.447   2.700
 1743W        W66728  37.922  15.258  12.466
 1744W        W66729  38.107  40.063   1.009
 1745W        W66730  28.228  44.419   0.498
 1746W        W66731   6.224  22.714   2.676
 1747W        W66732  28.524  41.783  13.553
 1748W        W66733  33.597  34.857   4.053
 1749W        W66734  13.328  21.138  14.463
 1750W        W66735  26.668  19.764  11.676
 1751W        W66736  23.755  27.520  13.012
 1752W        W66737  44.880  26.050   3.597
 1753W        W66738  18.055  32.713  13.298
 1754W        W66739  16.755  41.108   1.264
 1755W        W66740  32.886  20.166   2.837
 1756W        W66741  42.747  43.865   2.813
 1757W        W66742  19.799  28.896  11.520
 1758W        W66743  17.837  21.667  11.209
 1759W        W66744  30.292  39.228  11.602
 1760W        W66745  22.115  15.060  13.879
 1761W        W66746  24.220  28.221   0.036
 1762W        W66747  32.959  33.084   3.783
 1763W        W66748  18.176  43.736   3.848
 1764W        W66749  19.592  29.921  11.575
 1765W        W66750  24.946  29.449   0.965
 1766W        W66751  18.151  40.736   1.468
 1767W        W66752  43.509  16.042  13.783
 1768W        W66753   0.690  13.728   2.759
 1769W        W66754   6.476  39.371  10.694
 1770W        W66755  31.494  26.132  11.055
 1771W        W66756  26.035  13.305  14.968
 1772W        W66757  35.645  40.504   0.575
 1773W        W66758  12.760  16.659   0.009
 1774W        W66759  15.690  44.546  14.508
 1775W        W66760  31.486   1.376  14.900
 1776W        W66761  22.164  20.117  14.823
 1777W        W66762  17.865  24.847  13.023
 1778W        W66763  30.195  23.199   4.623
 1779W        W66764  14.338  16.764   2.432
 1780W        W66765  34.842  22.058  10.706
 1781W        W66766  22.307   6.928  14.572
 1782W        W66767  11.443  14.319  12.039
 1783W        W66768  10.761  25.068  13.007
 1784W        W66769  26.018  22.156   2.376
 1785W        W66770   2.483   4.913  12.518
 1786W        W66771  15.369  13.832   3.081
 1787W        W66772   4.475   1.541   4.912
 1788W        W66773   0.926  12.263  12.437
 1789W        W66774  37.580   4.534   4.220
 1790W        W66775  42.968  23.054  14.503
 1791W        W66776  28.751  21.560   1.713
 1792W        W66777  32.188  24.369  13.939
 1793W        W66778  28.160  37.399   1.792
 1794W        W66779  43.210  11.873   0.821
 1795W        W66780  41.577  40.918   4.057
 1796W        W66781  38.272   5.138   2.262
 1797W        W66782  19.249  28.983   4.905
 1798W        W66783  43.180   9.741  12.905
 1799W        W66784  25.465  44.288   3.198
 1800W        W66785   9.083  41.225  13.200
 1801W        W66786  34.724  36.933  11.107
 1802W        W66787  27.510  36.798  12.527
 1803W        W66788  32.733  35.875  14.254
 1804W        W66789  12.322  10.133  10.656
 1805W        W66790   0.840  30.177  11.251
 1806W        W66791   6.752  44.041  13.853
 1807W        W66792  16.586   6.160   0.836
 1808W        W66793  21.498  12.545  14.059
 1809W        W66794  32.656  18.447   4.446
 1810W        W66795  17.061  23.046   1.438
 1811W        W66796   1.794  23.044  14.419
 1812W        W66797   7.790  12.358  11.970
 1813W        W66798   2.562  31.987  11.632
 1814W        W66799  19.598  30.608   2.367
 1815W        W66800  18.979  32.109   3.680
 1816W        W66801  36.650   1.937  11.037
 1817W        W66802  21.180  16.707  10.715
 1818W        W66803   4.120   0.988  12.826
 1819W        W66804  41.011  11.926  10.502
 1820W        W66805  16.745  30.467  12.138
 1821W        W66806  29.916  20.321  12.188
 1822W        W66807  11.614  41.714   0.874
 1823W        W66808   8.334  15.342   4.250
 1824W        W66809  17.606  15.924   1.834
 1825W        W66810  18.778  33.927   3.441
 1826W        W66811   3.709  15.150  14.042
 1827W        W66812  37.856  11.308   2.817
 1828W        W66813  41.418  16.191   4.077
 1829W        W66814  34.178  30.063  14.235
 1830W        W66815  42.865  12.965  14.896
 1831W        W66816  37.334  25.462  14.959
 1832W        W66817  40.545  38.481  11.103
 1833W        W66818  18.135  35.031  12.652
 1834W        W66819   2.936  35.942   0.273
 1835W        W66820  28.137  11.820   0.681
 1836W        W66821  17.211  18.009  12.399
 1837W        W66822  15.322  22.613   3.176
 1838W        W66823  13.860  21.638  13.399
 1839W        W66824  11.406  23.217   1.721
 1840W        W66825  40.196  38.404   3.298
 1841W        W66826  39.336  24.054  14.687
 1842W        W66827  25.168  10.536  12.331
 1843W        W66828  40.081  24.938   3.342
 1844W        W66829   6.319  16.602   0.240
 1845W        W66830  21.491  11.049  12.908
 1846W        W66831  26.486  19.802   1.239
 1847W        W66832  43.697  11.870  14.785
 1848W        W66833  43.834   3.734   0.654
 1849W        W66834  44.934  18.644  10.739
 1850W        W66835  21.524  11.345  14.738
 1851W        W66836  18.062  10.107  12.072
 1852W        W66837  43.076  36.587   0.387
 1853W        W66838  10.915  19.676   0.488
 1854W        W66839  24.204   1.583   2.377
 1855W        W66840  28.762  44.524  12.975
 1856W        W66841  40.005  29.975   0.245
 1857W        W66842   8.165  44.220   1.056
 1858W        W66843   0.150  41.798   1.223
 1859W        W66844  29.056  44.891   3.235
 1860W        W66845  12.663   8.927  11.169
 1861W        W66846  20.090  12.771   3.825
 1862W        W66847  41.003  12.764  10.740
 1863W        W66848  38.489   8.320   4.821
 1864W        W66849  26.234  21.204  14.302
 1865W        W66850  29.314  22.307   2.797
 1866W        W66851  26.423   3.738  14.186
 1867W        W66852   9.716  34.275   0.381
 1868W        W66853  10.583  22.574  13.950
 1869W        W66854   8.431   6.366  11.810
 1870W        W66855  39.294   4.167  14.143
 1871W        W66856  23.112  27.819  14.203
 1872W        W66857  32.105   9.337   0.389
 1873W        W66858  43.534  16.797   1.148
 1874W        W66859  28.613  25.566   1.096
 1875W        W66860  40.551  29.930  14.445
 1876W        W66861  36.454  33.306  12.435
 1877W        W66862  41.254  38.885   2.129
 1878W        W66863  36.327   5.654  11.698
 1879W        W66864  40.572  41.338  11.135
 1880W        W66865  36.563  17.200  14.764
 1881W        W66866  13.018  34.142   3.750
 1882W        W66867  31.166   8.384  11.933
 1883W        W66868  41.906   8.696   4.711
 1884W        W66869  12.201  31.674   1.819
 1885W        W66870  16.669   5.805  13.822
 1886W        W66871  20.674   2.449   2.835
 1887W        W66872  41.774  30.167  11.619
 1888W        W66873  17.087   5.875   0.743
 1889W        W66874  35.499  44.881  12.593
 1890W        W66875   7.018  26.334   0.007
 1891W        W66876  42.226  23.110  13.446
 1892W        W66877  10.239  38.838   0.050
 1893W        W66878  17.490  13.372  14.448
 1894W        W66879   8.453   6.768  14.365
 1895W        W66880  35.415  16.546   3.172
 1896W        W66881  10.736  11.855   3.294
 1897W        W66882  18.861  27.320  10.129
 1898W        W66883   0.885  36.401   2.730
 1899W        W66884  32.974   6.381  10.205
 1900W        W66885  10.211  12.896  10.795
 1901W        W66886  19.332  34.028   1.734
 1902W        W66887  12.084  37.512  12.763
 1903W        W66888  42.461  23.691  12.196
 1904W        W66889  40.085   2.723  14.860
 1905W        W66890   7.773  43.955  11.233
 1906W        W66891  24.536   2.174   2.621
 1907W        W66892  38.759  44.504   3.675
 1908W        W66893   6.924   9.299  12.243
 1909W        W66894  29.465   9.743   1.387
 1910W        W66895   8.405  21.982   2.874
 1911W        W66896  41.891  42.050   0.948
 1912W        W66897  31.385  43.363   0.299
 1913W        W66898   3.047  13.628  14.559
 1914W        W66899   7.907  10.194   1.441
 1915W        W66900   9.221  31.085  11.100
 1916W        W66901   3.189  23.518   3.163
 1917W        W66902  39.953   6.463   4.829
 1918W        W66903  40.514   4.200   4.197
 1919W        W66904  21.717  21.092   4.466
 1920W        W66905   5.177  19.750  13.296
 1921W        W66906  37.554  38.842  12.820
 1922W        W66907  11.570  18.676   2.689
 1923W        W66908  35.397  29.247  10.803
 1924W        W66909  12.171  35.832   2.325
 1925W        W66910  44.527   7.717   0.326
 1926W        W66911  28.440  39.323  14.852
 1927W        W66912  26.143  24.684   1.931
 1928W        W66913  15.118  38.432   1.415
 1929W        W66914  22.970   7.305  13.806
 1930W        W66915  41.817  27.755   3.164
 1931W        W66916  29.168  30.356  14.354
 1932W        W66917  12.203   4.137  12.393
 1933W        W66918  44.005  31.794   4.188
 1934W        W66919   0.823   5.706   0.957
 1935W        W66920  14.804  20.293   3.340
 1936W        W66921  34.495  18.102  13.903
 1937W        W66922  43.535  14.216  13.016
 1938W        W66923  26.189  30.231   0.609
 1939W        W66924  44.856  11.249  12.570
 1940W        W66925  39.561  32.905  12.475
 1941W        W66926   5.980  27.112   3.751
 1942W        W66927  20.038  25.418  13.127
 1943W        W66928  33.158  43.875  10.705
 1944W        W66929   5.280  24.042  14.272
 1945W        W66930  28.915  37.456  12.839
 1946W        W66931  33.696   1.361   2.409
 1947W        W66932  20.064  42.341   3.136
 1948W        W66933   2.241  14.518  11.106
 1949W        W66934  44.962  11.036   3.546
 1950W        W66935  38.466  37.993  14.685
 1951W        W66936  24.808   8.321  14.473
 1952W        W66937  24.066  32.057  12.273
 1953W        W66938  39.840  35.318   3.036
 1954W        W66939   2.596  13.702   0.575
 1955W        W66940  28.995  32.099  13.723
 1956W        W66941  40.431  13.125   3.133
 1957W        W66942   8.813  23.064  10.500
 1958W        W66943  15.637  33.576  12.697
 1959W        W66944  13.358  26.670  14.489
 1960W        W66945  43.873  13.245  11.930
 1961W        W66946   8.898  19.802   2.180
 1962W        W66947   2.033  24.189  14.176
 1963W        W66948  21.523  31.309  13.428
 1964W        W66949  22.263  21.142  11.175
 1965W        W66950   8.387   0.523  13.833
 1966W        W66951  38.706  36.262   4.872
 1967W        W66952  12.569  25.245  13.012
 1968W        W66953  41.825  40.039  10.705
 1969W        W66954  11.370  13.081   0.339
 1970W        W66955  26.490  23.131  12.915
 1971W        W66956  15.248  26.221  12.459
 1972W        W66957  21.965   0.442  10.822
 1973W        W66958  41.231  27.569   1.427
 1974W        W66959  27.579  41.262  14.767
 1975W        W66960   9.332  27.016   2.409
 1976W        W66961  15.115  34.820   3.320
 1977W        W66962  37.186  41.140  11.698
 1978W        W66963   7.671  42.409   2.436
 1979W        W66964  21.178   0.012   3.276
 1980W        W66965  33.925  11.898   4.727
 1981W        W66966   7.424   0.605   2.715
 1982W        W66967  10.148  36.079  13.565
 1983W        W66968  15.210  39.913   1.835
 1984W        W66969  29.406  36.907  11.408
 1985W        W66970  29.496  33.211  14.108
 1986W        W66971  14.240  30.452   2.881
 1987W        W66972  20.013  25.526   1.003
 1988W        W66973  19.799  18.891   3.666
 1989W        W66974  40.387   6.194   4.984
 1990W        W66975  12.414  14.202  10.690
 1991W        W66976  34.404   3.716   0.878
 1992W        W66977  16.098  30.970  11.636
 1993W        W66978  19.614  14.058  12.108
 1994W        W66979  38.760  32.609   3.651
 1995W        W66980  34.338  19.614   0.225
 1996W        W66981   1.404  19.871   2.500
 1997W        W66982  42.502  43.452   2.186
 1998W        W66983   7.744  18.227   0.726
 1999W        W66984  44.306  12.261  13.528
 2000W        W66985  35.060  35.553   1.946
 2001W        W66986   4.187  18.606   2.783
 2002W        W66987  38.234  17.745   3.074
 2003W        W66988   5.085  19.884   4.760
 2004W        W66989   1.430  32.172   0.410
 2005W        W66990  19.582  43.919   4.585
 2006W        W66991   5.192  25.417  13.043
 2007W        W66992  38.924   3.038  11.564
 2008W        W66993  10.791   7.943   3.943
 2009W        W66994   3.714  43.976  14.955
 2010W        W66995   2.996  42.778   3.994
 2011W        W66996  40.268  33.632  11.743
 2012W        W66997  35.401  26.969  13.818
 2013W        W66998  13.644  40.272  12.444
 2014W        W66999   7.886  18.206   1.836
 2015W        W67000   3.940   0.840   3.418
 2016W        W67001  30.741  38.826   2.422
 2017W        W67002  40.806  37.884  13.898
 2018W        W67003  32.583   0.281   1.684
 2019W        W67004   3.677  25.639   2.289
 2020W        W67005  15.507  31.989   1.774
 2021W        W67006  24.637  36.711   0.003
 2022W        W67007  29.524  34.312  11.940
 2023W        W67008  37.895  14.541  14.837
 2024W        W67009  25.531  11.380   4.183
 2025W        W67010   3.886  13.727  12.050
 2026W        W67011  29.126   3.394   1.200
 2027W        W67012  16.506  34.364   1.657
 2028W        W67013  41.417  14.842   1.491
 2029W        W67014  32.849  14.274  12.875
 2030W        W67015  25.077  11.554  11.557
 2031W        W67016  29.965  23.631   0.555
 2032W        W67017  36.650  25.111   3.672
 2033W        W67018  43.852  19.478   4.330
 2034W        W67019  26.417   7.152  14.535
 2035W        W67020  39.986  44.660   0.161
 2036W        W67021  11.805  10.316   3.602
 2037W        W67022  36.139  28.988  12.161
 2038W        W67023   0.756  33.442  10.076
 2039W        W67024   0.699  43.810   1.801
 2040W        W67025  23.632   3.873   5.463
 2041W        W67026  28.639  44.117   0.565
 2042W        W67027  19.957  33.978  10.522
 2043W        W67028   7.109  43.384  13.332
 2044W        W67029  13.687  13.100  13.953
 2045W        W67030  14.374  17.728  12.188
 2046W        W67031  38.653  21.264  11.981
 2047W        W67032  10.906   7.424  13.439
 2048W        W67033  42.292  16.939  13.284
 2049W        W67034   8.152  39.033  10.879
 2050W        W67035  37.933  10.830   3.065
 2051W        W67036  37.419  27.554  11.663
 2052W        W67037  26.513   6.557   2.225
 2053W        W67038  27.518  15.341  12.402
 2054W        W67039  21.497  16.239   3.058
 2055W        W67040  12.366  29.204  11.054
 2056W        W67041  36.012  26.935   4.857
 2057W        W67042  25.480  11.545   1.825
 2058W        W67043  26.967  18.754   4.018
 2059W        W67044  13.796  17.258   4.508
 2060W        W67045  16.717  35.068  14.212
 2061W        W67046   3.009  43.371   3.124
 2062W        W67047   4.247  21.612   4.606
 2063W        W67048  30.082  11.829   1.364
 2064W        W67049  27.968   6.952  12.026
 2065W        W67050   2.424  14.851   4.139
 2066W        W67051  36.370  35.422  10.599
 2067W        W67052  35.597  16.148  14.382
 2068W        W67053  34.000   4.830  12.451
 2069W        W67054  43.748  13.121  12.408
 2070W        W67055  44.307  37.984  12.065
 2071W        W67056  11.943  15.925   4.751
 2072W        W67057  23.198   6.418   0.951
 2073W        W67058  30.400  30.624   2.803
 2074W        W67059  42.807  23.909   1.815
 2075W        W67060   7.887   7.162   0.022
 2076W        W67061  38.832   0.923   4.990
 2077W        W67062  39.525  38.634   0.216
 2078W        W67063  26.003  34.779  13.145
 2079W        W67064  26.054  33.966   0.670
 2080W        W67065   5.988  39.259   4.169
 2081W        W67066  13.070  34.213  11.226
 2082W        W67067  30.585  33.007  12.024
 2083W        W67068  27.484  15.353  11.494
 2084W        W67069  25.499   0.792  10.743
 2085W        W67070  13.100  40.102  12.670
 2086W        W67071  30.473  31.037   5.149
 2087W        W67072  37.411  20.268   3.265
 2088W        W67073   7.617   4.303   3.270
 2089W        W67074   2.875  26.682  12.831
 2090W        W67075  29.860  16.071  13.021
 2091W        W67076  31.453  20.340   2.739
 2092W        W67077  43.603  18.547  11.271
 2093W        W67078  10.380  28.101   0.751
 2094W        W67079   8.035   5.260   0.697
 2095W        W67080   4.936   2.811   2.200
 2096W        W67081  16.855  38.030   0.032
 2097W        W67082   4.758  26.589  14.809
 2098W        W67083  12.184  31.164  12.586
 2099W        W67084   5.738   2.654  13.060
 2100W        W67085  11.540  44.858  12.114
 2101W        W67086  30.169  31.504  11.680
 2102W        W67087   9.607  15.789  11.479
 2103W        W67088  39.345  10.211   3.479
 2104W        W67089  27.643  20.746  14.983
 2105W        W67090  41.130   0.046  11.149
 2106W        W67091   8.314  28.044   3.146
 2107W        W67092  25.658  43.534  11.424
 2108W        W67093  44.009  43.377  12.713
 2109W        W67094  21.111  30.381   4.191
 2110W        W67095  42.833  18.629   1.025
 2111W        W67096  19.043  10.213  10.521
 2112W        W67097  43.885  43.392   1.057
 2113W        W67098  17.290  25.201   4.182
 2114W        W67099  33.426  28.034  10.546
 2115W        W67100  31.141  26.675  14.550
 2116W        W67101   4.512  10.860  14.278
 2117W        W67102  23.254  42.515   0.282
 2118W        W67103   9.700   3.039   1.358
 2119W        W67104  19.862  10.706   2.573
 2120W        W67105   9.646  27.367  12.193
 2121W        W67106  38.252  21.064   2.405
 2122W        W67107   0.534  30.961  10.689
 2123W        W67108  19.741   9.414   4.570
 2124W        W67109  14.296  10.123   0.086
 2125W        W67110  32.044   3.341   0.157
 2126W        W67111  34.973  22.931   0.053
 2127W        W67112  40.236  24.565  11.355
 2128W        W67113  43.322  19.850   0.305
 2129W        W67114  16.538  40.941   3.772
 2130W        W67115   7.800  39.108   4.598
 2131W        W67116   0.734  11.679   3.219
 2132W        W67117  16.842   7.227  14.468
 2133W        W67118  30.439  19.145   0.905
 2134W        W67119  17.134   1.507   4.530
 2135W        W67120   8.265  32.407   2.804
 2136W        W67121  20.606  10.506  14.375
 2137W        W67122  29.529  41.036   2.949
 2138W        W67123  14.931   1.944   3.814
 2139W        W67124  44.901  25.344   3.100
 2140W        W67125  36.731   9.632  10.262
 2141W        W67126  29.107  24.538   2.573
 2142W        W67127   2.512  36.948  11.620
 2143W        W67128   5.333  36.997  14.194
 2144W        W67129   8.912  22.211  14.569
 2145W        W67130  32.499  20.459  12.614
 2146W        W67131  15.425  14.487  11.927
 2147W        W67132  35.322   2.674   0.351
 2148W        W67133   1.883   1.819   2.244
 2149W        W67134  44.836   9.354   4.649
 2150W        W67135  26.220   5.776  12.795
 2151W        W67136   5.176   8.708   1.134
 2152W        W67137  42.291  15.239   4.197
 2153W        W67138  30.695   7.617  13.585
 2154W        W67139  43.938  17.347  14.890
 2155W        W67140  34.984   1.759  14.697
 2156W        W67141   4.353  30.490  11.370
 2157W        W67142  22.276  22.186  14.901
 2158W        W67143  23.728   1.868  11.084
 2159W        W67144  11.014  36.062   3.684
 2160W        W67145  27.042  20.956   1.675
 2161W        W67146   4.703   3.933   1.879
 2162W        W67147   1.943  21.764   2.711
 2163W        W67148  25.593  27.648  10.683
 2164W        W67149  29.381  22.010   3.207
 2165W        W67150  33.022  40.173   0.515
 2166W        W67151  24.499  39.500   1.783
 2167W        W67152  19.120  39.582  14.312
 2168W        W67153  23.593  16.706  11.531
 2169W        W67154  30.064  12.826  11.698
 2170W        W67155  14.753  15.015   1.367
 2171W        W67156  28.565   1.709   0.878
 2172W        W67157  27.441  12.279   4.126
 2173W        W67158  29.611  27.581   4.528
 2174W        W67159  39.323  20.507   2.914
 2175W        W67160  42.974  25.399   0.507
 2176W        W67161   7.792  16.080   2.549
 2177W        W67162  27.206  22.203  12.527
 2178W        W67163  22.412   0.326  11.085
 2179W        W67164  37.109  25.020   1.987
 2180W        W67165   9.366   2.561   2.717
 2181W        W67166   6.459  10.708   0.900
 2182W        W67167  20.639   2.905   4.163
 2183W        W67168  30.937  13.243   4.072
 2184W        W67169  43.318  10.849   1.837
 2185W        W67170  14.146  35.377   1.302
 2186W        W67171  25.519  23.556  10.624
 2187W        W67172  16.545   0.408  12.957
 2188W        W67173   3.795   5.036  11.218
 2189W        W67174  41.326  16.003  13.617
 2190W        W67175  32.554   8.547  14.992
 2191W        W67176  14.362   1.168   4.740
 2192W        W67177  43.927  17.814   9.876
 2193W        W67178  39.867   7.331  12.178
 2194W        W67179  14.383  36.394  12.911
 2195W        W67180  11.707  20.091   2.813
 2196W        W67181  18.073  26.722   3.980
 2197W        W67182  18.731  14.552   4.215
 2198W        W67183   0.054  32.459  11.528
 2199W        W67184  24.824  32.103   1.378
 2200W        W67185  35.190   9.834  12.113
 2201W        W67186   9.751  39.691  14.946
 2202W        W67187   1.882  31.484   2.097
 2203W        W67188  36.287   7.873  12.934
 2204W        W67189  41.415   0.780   2.232
 2205W        W67190  34.448  11.989   3.163
 2206W        W67191  44.881  23.297  11.029
 2207W        W67192  36.360  10.932   4.083
 2208W        W67193  19.558  17.093   4.923
 2209W        W67194   6.672  26.507   0.765
 2210W        W67195  29.956   6.784   3.719
 2211W        W67196   2.416  21.523  12.081
 2212W        W67197  11.808  33.633  13.987
 2213W        W67198  17.629   5.090   0.350
 2214W        W67199  27.490  17.119  11.268
 2215W        W67200  40.224  42.407   1.770
 2216W        W67201  10.641  11.163   1.468
 2217W        W67202  36.764  31.598   0.222
 2218W        W67203   5.795  34.920   1.190
 2219W        W67204  28.854  31.710  10.776
 2220W        W67205  30.909  20.856  14.511
 2221W        W67206  40.801  19.229   2.417
 2222W        W67207  17.755  18.993   1.805
 2223W        W67208   3.888  20.533  12.927
 2224W        W67209  35.049   6.191   2.233
 2225W        W67210  41.552  38.097   0.515
 2226W        W67211  33.389   3.932   3.925
 2227W        W67212   3.647  40.105   0.597
 2228W        W67213  43.801  36.231  14.347
 2229W        W67214  32.382  27.679  13.815
 2230W        W67215  28.996  32.000  11.916
 2231W        W67216   4.511   2.508  14.900
 2232W        W67217  21.119  36.667  13.322
 2233W        W67218  23.951   5.753  13.906
 2234W        W67219  22.903  14.307  13.306
 2235W        W67220  31.852  33.087   4.668
 2236W        W67221   2.379  20.557   4.625
 2237W        W67222  38.635  27.765  12.600
 2238W        W67223  32.565  44.471  11.562
 2239W        W67224  10.936   2.995  11.976
 2240W        W67225  44.417  16.744   2.678
 2241W        W67226  43.882  39.263  12.518
 2242W        W67227  12.582  34.416  11.215
 2243W        W67228  26.747  41.914   1.915
 2244W        W67229  36.918  43.912  11.712
 2245W        W67230  26.098  22.305  11.199
 2246W        W67231  18.671  28.863   0.131
 2247W        W67232  10.563  20.513   1.350
 2248W        W67233  35.138  13.581  14.896
 2249W        W67234  21.296  17.478  13.794
 2250W        W67235  36.616  24.146   2.840
 2251W        W67236  15.745  41.830  10.767
 2252W        W67237  20.534  17.135  14.225
 2253W        W67238   8.876  37.346  13.839
 2254W        W67239   6.830   8.506  11.992
 2255W        W67240  34.028   5.149  13.616
 2256W        W67241  44.264   1.332  12.378
 2257W        W67242  43.740  21.376  10.027
 2258W        W67243  25.777  28.912  11.190
 2259W        W67244  40.793  26.567   3.200
 2260W        W67245  40.345  32.583  13.796
 2261W        W67246   9.655  28.797   2.438
 2262W        W67247  44.787  37.530  14.315
 2263W        W67248  24.577  28.957   3.687
 2264W        W67249  28.677   0.801   3.674
 2265W        W67250  42.489   0.514  14.819
 2266W        W67251  31.492  15.917   0.771
 2267W        W67252  19.258  18.046   1.385
 2268W        W67253  19.288  31.897  12.488
 2269W        W67254  30.357  37.925  12.403
 2270W        W67255   7.327  38.878  10.893
 2271W        W67256   4.457  36.314   4.605
 2272W        W67257   4.195  23.042  10.679
 2273W        W67258  41.041  16.547   0.971
 2274W        W67259  32.386  14.552  12.260
 2275W        W67260  19.824  27.636   0.463
 2276W        W67261  16.874   0.747   4.827
 2277W        W67262   4.837  11.427  12.626
 2278W        W67263   4.940  35.836  10.638
 2279W        W67264  22.049  32.673   4.240
 2280W        W67265  15.818  35.154   4.584
 2281W        W67266  20.710   3.216  14.414
 2282W        W67267  26.978  20.276  10.909
 2283W        W67268   2.299  15.830  10.697
 2284W        W67269   4.946  26.975  12.928
 2285W        W67270  20.553  11.831   2.651
 2286W        W67271  27.631   7.138   4.876
 2287W        W67272  25.385  32.369  13.301
 2288W        W67273   6.196  22.034   1.241
 2289W        W67274  44.885  15.755   4.156
 2290W        W67275   4.675  23.404  14.525
 2291W        W67276  19.476  38.187   0.857
 2292W        W67277  30.824  11.157   2.198
 2293W        W67278  42.562  25.029  12.009
 2294W        W67279  14.734  33.480  10.628
 2295W        W67280  32.754   9.779   0.727
 2296W        W67281  36.793  32.833  14.546
 2297W        W67282  17.505  30.679   0.005
 2298W        W67283  35.635  36.502  13.305
 2299W        W67284  14.790   3.210   4.612
 2300W        W67285   7.980  39.019  13.329
 2301W        W67286  25.059  22.823   4.062
 2302W        W67287  44.593  19.067  14.339
 2303W        W67288  41.083  44.940  13.447
 2304W        W67289  23.991  16.144   4.552
 2305W        W67290  28.883  11.201  13.505
 2306W        W67291   1.861   7.559   0.288
 2307W        W67292  31.154  17.190  14.488
 2308W        W67293  42.114   4.376  12.591
 2309W        W67294  19.635   1.266   0.913
 2310W        W67295  38.945   0.918  12.774
 2311W        W67296  38.973  20.793   0.717
 2312W        W67297  33.995   9.611   4.009
 2313W        W67298   5.255  44.362  10.114
 2314W        W67299  14.311   0.759  13.915
 2315W        W67300  36.680  15.592  10.172
 2316W        W67301   0.786  30.007   0.481
 2317W        W67302  39.225  26.374   1.274
 2318W        W67303  36.722   8.114   5.041
 2319W        W67304  32.400  21.218  10.291
 2320W        W67305  25.823  44.425  11.698
 2321W        W67306  37.467  19.929  13.622
 2322W        W67307  22.673  33.635  14.716
 2323W        W67308   4.226  24.180  11.638
 2324W        W67309  37.997  30.167  10.460
 2325W        W67310  12.601   7.224  10.083
 2326W        W67311  33.460  44.824  10.250
 2327W        W67312   5.836  36.612   2.614
 2328W        W67313  27.735  24.199   4.101
 2329W        W67314  44.801  17.547  11.558
 2330W        W67315  38.033  27.583  14.134
 2331W        W67316   9.780  41.223   0.689
 2332W        W67317  41.315  13.341  14.433
 2333W        W67318  25.103  29.693   2.291
 2334W        W67319  22.574  43.085   0.429
 2335W        W67320   3.481   2.713  14.297
 2336W        W67321  10.887  16.318  11.701
 2337W        W67322  22.400  18.149   1.794
 2338W        W67323   0.690  18.097   5.024
 2339W        W67324  17.232   1.867   3.716
 2340W        W67325  30.509  19.496  14.483
 2341W        W67326  33.912  14.800  13.404
 2342W        W67327   3.494  23.143   4.522
 2343W        W67328  13.238  34.658   3.929
 2344W        W67329  31.871  29.191  12.460
 2345W        W67330  32.306   9.969  10.604
 2346W        W67331  37.079  37.258  12.085
 2347W        W67332   0.619  15.911   5.348
 2348W        W67333  18.094  35.365   2.313
 2349W        W67334  31.163  33.138  13.862
 2350W        W67335   2.808  17.094  11.946
 2351W        W67336   8.746   4.315  11.655
 2352W        W67337  37.523  16.263   2.683
 2353W        W67338   0.803  21.308   2.301
 2354W        W67339  20.340  19.776   2.687
 2355W        W67340  14.289  24.096   3.195
 2356W        W67341  35.173  35.688  13.439
 2357W        W67342  18.479  41.468  12.891
 2358W        W67343   4.151  15.974  13.560
 2359W        W67344  11.358  18.505   2.230
 2360W        W67345  43.403  27.100  13.895
 2361W        W67346  36.604  38.185   1.538
 2362W        W67347  12.345  38.314  11.636
 2363W        W67348  11.751   1.295   0.737
 2364W        W67349  44.985  27.554  14.673
 2365W        W67350  37.803  21.200   4.157
 2366W        W67351   9.100  24.174   3.887
 2367W        W67352  11.240  17.784  13.601
 2368W        W67353  20.631  40.855  14.406
 2369W        W67354   4.001  29.580  13.568
 2370W        W67355   1.677  14.261   4.911
 2371W        W67356  30.158  41.979  14.512
 2372W        W67357  24.108  41.082   0.158
 2373W        W67358  42.341  42.300   0.677
 2374W        W67359  23.094  14.717   3.402
 2375W        W67360  31.177  19.548   1.575
 2376W        W67361  33.165  12.697  11.428
 2377W        W67362  33.016  23.097   1.881
 2378W        W67363  39.510   6.370   1.686
 2379W        W67364  13.557  28.895  11.702
 2380W        W67365  37.963  39.982  10.206
 2381W        W67366  17.128   2.613   0.240
 2382W        W67367  20.606  25.319   3.310
 2383W        W67368  43.937   6.819   4.560
 2384W        W67369  36.779   2.718   0.363
 2385W        W67370  26.649  21.999  14.053
 2386W        W67371  40.501  34.191   3.991
 2387W        W67372  20.246  36.954  14.213
 2388W        W67373  13.051  34.158  14.950
 2389W        W67374  14.352  40.895   1.291
 2390W        W67375  25.510  10.867   4.370
 2391W        W67376  38.504   4.227  13.718
 2392W        W67377  22.150  44.023  12.108
 2393W        W67378  29.611  33.007   2.623
 2394W        W67379   5.806  29.926  11.466
 2395W        W67380  39.465  24.993   0.524
 2396W        W67381   3.782  29.692  14.526
 2397W        W67382  17.181  38.058  10.978
 2398W        W67383  25.060   9.617   2.838
 2399W        W67384  44.739  32.394  14.540
 2400W        W67385   8.874  17.188  10.889
 2401W        W67386   2.435  20.633  10.670
 2402W        W67387  29.505  14.866  13.890
 2403W        W67388  33.816  39.412  11.273
 2404W        W67389  36.256   4.444  12.602
 2405W        W67390   5.306  36.939   0.654
 2406W        W67391  34.642  19.516   3.268
 2407W        W67392  10.643  21.495  14.050
 2408W        W67393  25.299  15.824   1.745
 2409W        W67394  25.553  16.438   1.825
 2410W        W67395   6.691   6.390   1.360
 2411W        W67396   0.211  24.261   0.849
 2412W        W67397  26.928   1.322   0.036
 2413W        W67398   3.031  37.145  13.848
 2414W        W67399  10.418   5.162  11.031
 2415W        W67400  31.039  20.697   1.714
 2416W        W67401   4.365   6.797  10.679
 2417W        W67402   4.760   5.368   1.192
 2418W        W67403  43.290  22.359   2.261
 2419W        W67404  37.602  39.132  12.349
 2420W        W67405   7.647  13.292  10.777
 2421W        W67406   9.912  13.305   0.420
 2422W        W67407   8.534   8.926   5.144
 2423W        W67408  22.040   0.720  13.824
 2424W        W67409   8.240  29.358   0.485
 2425W        W67410  26.584   6.645  14.523
 2426W        W67411  40.399  39.360   2.888
 2427W        W67412  24.585  44.275  13.944
 2428W        W67413  27.224  25.943   4.560
 2429W        W67414  23.518  35.909  14.569
 2430W        W67415   6.807  29.069  14.844
 2431W        W67416  30.454  38.651   1.275
 2432W        W67417   5.833  32.322   3.655
 2433W        W67418  39.642  13.744   4.619
 2434W        W67419  19.878   5.659   9.684
 2435W        W67420  41.850  44.842   4.967
 2436W        W67421   9.530  29.044   5.147
 2437W        W67422  10.611  32.436   0.841
 2438W        W67423  31.873  17.672  14.352
 2439W        W67424  21.130  23.798  12.945
 2440W        W67425  40.977  27.032  14.392
 2441W        W67426  31.592   9.275  11.414
 2442W        W67427  26.197  17.589  14.354
 2443W        W67428  18.004  10.145   0.513
 2444W        W67429  43.947  29.520   4.152
 2445W        W67430  38.154  43.483  14.534
 2446W        W67431  28.502  23.506  12.548
 2447W        W67432  44.737  24.657  13.731
 2448W        W67433  35.655   7.823   1.225
 2449W        W67434  40.838  10.837   4.317
 2450W        W67435  30.832  17.095  11.128
 2451W        W67436   9.270  28.035   1.460
 2452W        W67437  25.429  33.497   2.627
 2453W        W67438  12.664  13.776   1.000
 2454W        W67439  33.231  42.035  11.956
 2455W        W67440  42.759   3.963   2.340
 2456W        W67441  13.830   9.178   0.410
 2457W        W67442  13.378  24.080  12.158
 2458W        W67443  36.918   2.948  11.461
 2459W        W67444  28.090  12.584  13.223
 2460W        W67445  33.364  41.573   1.416
 2461W        W67446  29.583  10.781  12.051
 2462W        W67447  43.774  14.776   0.522
 2463W        W67448  18.859  28.331  10.391
 2464W        W67449   3.793  16.004   1.202
 2465W        W67450  43.829  15.733  11.080
 2466W        W67451   6.350  18.021   3.371
 2467W        W67452  23.206  19.041   0.976
 2468W        W67453  42.296  14.236   9.799
 2469W        W67454   7.279  38.866   1.215
 2470W        W67455   3.394   7.185   1.194
 2471W        W67456  10.464  43.892  11.612
 2472W        W67457   9.132  31.096  13.863
 2473W        W67458  25.348   3.339  11.177
 2474W        W67459   2.208  13.140   3.684
 2475W        W67460  27.041  30.383  14.777
 2476W        W67461  36.476  42.498  12.382
 2477W        W67462  32.933  13.927  10.664
 2478W        W67463   2.615  29.042   4.989
 2479W        W67464  27.992   5.446  13.126
 2480W        W67465  17.540  13.395   2.259
 2481W        W67466   3.929  38.446   1.850
 2482W        W67467  37.378  11.836   0.629
 2483W        W67468  44.382  16.769   2.158
 2484W        W67469  39.732  33.350  11.683
 2485W        W67470  38.976  25.030   0.722
 2486W        W67471   8.659  39.147  10.008
 2487W        W67472  19.401  29.507  12.806
 2488W        W67473  33.924  34.941   0.210
 2489W        W67474  38.095  43.904   3.360
 2490W        W67475  36.773   7.661   0.295
 2491W        W67476  34.453  29.405  12.984
 2492W        W67477  28.727  43.184  13.527
 2493W        W67478  20.371  33.995   0.195
 2494W        W67479  19.470  29.158   9.891
 2495W        W67480  35.431  36.873   2.758
 2496W        W67481  38.691   3.140  11.136
 2497W        W67482  31.603  23.932  12.038
 2498W        W67483  21.190  19.792  13.029
 2499W        W67484  14.755  31.298  13.630
 2500W        W67485  31.673  41.044  14.565
 2501W        W67486  36.240   8.815  12.610
 2502W        W67487  19.396  41.817  11.183
 2503W        W67488   9.474  30.448  11.257
 2504W        W67489   0.019  38.313  13.491
 2505W        W67490  29.046  38.597   2.784
 2506W        W67491  37.154  28.264   4.193
 2507W        W67492  22.459  42.883  11.480
 2508W        W67493  12.787  42.302   1.831
 2509W        W67494  35.777  20.131   3.795
 2510W        W67495  30.108  37.677   1.409
 2511W        W67496  16.345  33.826  13.126
 2512W        W67497  16.027  32.791   4.191
 2513W        W67498  21.539  22.077   2.342
 2514W        W67499  19.742   6.964  10.283
 2515W        W67500  35.943  34.850   3.607
 2516W        W67501  39.030  42.098   2.224
 2517W        W67502  18.626  30.743   2.296
 2518W        W67503  11.732  28.409  12.167
 2519W        W67504  35.080   2.202   1.805
 2520W        W67505  21.490   2.494  11.899
 2521W        W67506  18.557  34.295  14.941
 2522W        W67507  41.486  14.148   0.959
 2523W        W67508  41.359   7.728   4.557
 2524W        W67509  18.145  19.885  13.272
 2525W        W67510  19.131  17.547   5.355
 2526W        W67511  33.994  24.805   0.830
 2527W        W67512  30.658   3.035  11.466
 2528W        W67513  11.155  38.946   4.875
 2529W        W67514  37.618   9.392  14.418
 2530W        W67515  28.588  44.227  12.583
 2531W        W67516  31.134  28.147   0.684
 2532W        W67517  34.705  19.578   4.133
 2533W        W67518  14.623  44.777   2.549
 2534W        W67519  33.366  11.614   1.809
 2535W        W67520  21.911  29.685   3.744
 2536W        W67521  44.953  39.497  13.982
 2537W        W67522  41.091  38.518   3.590
 2538W        W67523  11.124  11.246   3.574
 2539W        W67524  32.058  28.197   2.338
 2540W        W67525  31.435  42.302   4.400
 2541W        W67526  20.465  36.662   1.679
 2542W        W67527  21.827  20.080   0.802
 2543W        W67528  44.802  27.704   3.603
 2544W        W67529  17.793  16.359  10.588
 2545W        W67530  27.588  22.307  13.291
 2546W        W67531  13.964  26.231   4.047
 2547W        W67532  19.428  12.796   2.236
 2548W        W67533   8.703  17.561   3.181
 2549W        W67534  14.646  16.537  12.936
 2550W        W67535   9.625  37.517  10.679
 2551W        W67536   7.338  15.055   1.929
 2552W        W67537  11.224  29.973   3.556
 2553W        W67538   8.366   1.285  14.635
 2554W        W67539  20.914   8.004  11.750
 2555W        W67540  27.565  44.988   1.841
 2556W        W67541   9.425  32.299   2.071
 2557W        W67542  36.714   0.247  10.617
 2558W        W67543  11.746  44.449  11.606
 2559W        W67544  27.579   7.756  11.714
 2560W        W67545  38.338  17.258   2.967
 2561W        W67546  14.399  24.707   1.896
 2562W        W67547   5.197   9.661   1.696
 2563W        W67548   3.733  33.654   0.265
 2564W        W67549  20.540  27.848   4.672
 2565W        W67550   3.274   3.740   3.595
 2566W        W67551  23.053  13.824   0.420
 2567W        W67552  21.414   2.352  14.864
 2568W        W67553   7.234  12.826   1.406
 2569W        W67554  15.626   7.470  10.796
 2570W        W67555  21.776   0.188  14.386
 2571W        W67556  16.178  25.667   2.340
 2572W        W67557  28.762  38.436  14.438
 2573W        W67558  32.421  40.348  10.776
 2574W        W67559   1.178  30.153  13.019
 2575W        W67560   3.788   0.822  13.401
 2576W        W67561  34.796   6.440  11.653
 2577W        W67562  39.683  34.487  10.389
 2578W        W67563  34.963  38.360   0.396
 2579W        W67564  43.065  19.784   3.764
 2580W        W67565   2.736  20.155  10.934
 2581W        W67566  12.133  16.657   3.634
 2582W        W67567  26.343  40.590  11.592
 2583W        W67568   2.165  28.585  11.765
 2584W        W67569  34.540  32.171   4.117
 2585W        W67570  41.072   9.324   1.324
 2586W        W67571  29.716  16.401   4.172
 2587W        W67572  26.921  40.190   5.035
 2588W        W67573  43.954   0.922   1.969
 2589W        W67574   0.483  41.985  11.967
 2590W        W67575  12.290  30.561  14.574
 2591W        W67576  30.611  20.602   4.414
 2592W        W67577  44.433  22.299  14.332
 2593W        W67578  43.249  22.120   0.799
 2594W        W67579  27.936  26.310  10.808
 2595W        W67580  20.206  22.061  11.501
 2596W        W67581   6.924   5.712   2.241
 2597W        W67582  30.539   7.808  13.101
 2598W        W67583  17.115  30.295  10.016
 2599W        W67584   9.701  37.204  13.618
 2600W        W67585  15.161  10.718  14.912
 2601W        W67586   5.044  30.402  13.188
 2602W        W67587  10.395  12.832   2.204
 2603W        W67588  39.847   9.760   1.813
 2604W        W67589   9.726  22.700   3.584
 2605W        W67590  15.029  42.726  12.379
 2606W        W67591  18.536  20.187   3.385
 2607W        W67592  32.235  25.271  12.455
 2608W        W67593  30.055   3.387   1.228
 2609W        W67594  16.266  43.994  10.754
 2610W        W67595  34.557  19.794  12.266
 2611W        W67596  32.697   0.412  13.782
 2612W        W67597  38.996  22.829  11.414
 2613W        W67598  26.014  23.960   3.541
 2614W        W67599  20.656  33.033  12.139
 2615W        W67600  12.280  12.593   3.688
 2616W        W67601   3.451  44.845  14.758
 2617W        W67602  36.012  31.939  12.982
 2618W        W67603  16.229   6.939  13.507
 2619W        W67604  30.303  17.138  11.191
 2620W        W67605   8.699  39.734   4.154
 2621W        W67606  32.558  29.468  10.841
 2622W        W67607  40.580  43.919  13.204
 2623W        W67608  34.893  44.293  12.554
 2624W        W67609   8.642   0.097   2.238
 2625W        W67610  44.351  34.753  12.465
 2626W        W67611  13.393  12.434   4.743
 2627W        W67612  27.062   5.021  13.980
 2628W        W67613   5.178  33.145  13.143
 2629W        W67614  31.495  38.257   3.288
 2630W        W67615   6.613  29.553  11.854
 2631W        W67616  26.686  17.179   5.089
 2632W        W67617  12.163  27.725   0.290
 2633W        W67618  33.356  27.476   3.262
 2634W        W67619  39.776  29.916   1.186
 2635W        W67620  18.387   1.340  11.492
 2636W        W67621  34.927   2.968  11.140
 2637W        W67622  33.160  31.125  13.401
 2638W        W67623   6.776  41.422   2.855
 2639W        W67624  33.362  27.986   4.510
 2640W        W67625  39.199  34.518   4.463
 2641W        W67626  11.361  44.848   3.632
 2642W        W67627   8.730  18.084   0.529
 2643W        W67628  20.179  30.916   2.617
 2644W        W67629   7.878  35.913   1.243
 2645W        W67630  14.557  18.476   2.794
 2646W        W67631  43.031  42.272   4.125
 2647W        W67632  27.373  32.561   1.710
 2648W        W67633   6.382   5.671  13.474
 2649W        W67634  42.001  36.252  10.560
 2650W        W67635   7.750   1.984   0.450
 2651W        W67636   4.395  15.136   4.197
 2652W        W67637  15.001   7.695  12.604
 2653W        W67638   9.781  43.469  10.751
 2654W        W67639  13.074  42.489  12.986
 2655W        W67640   8.185  26.456  10.367
 2656W        W67641  26.531  27.677  12.049
 2657W        W67642  22.602  14.138   0.424
 2658W        W67643  34.903   4.951  10.681
 2659W        W67644  12.134  28.532  13.930
 2660W        W67645  20.713  20.412   1.345
 2661W        W67646  31.729  22.538   0.025
 2662W        W67647  27.660  11.509   0.039
 2663W        W67648  43.409   2.540  14.938
 2664W        W67649  36.937  27.971   4.587
 2665W        W67650   1.865  25.246   4.630
 2666W        W67651  22.029  17.259   2.413
 2667W        W67652  34.856  20.063   3.417
 2668W        W67653   7.600  12.102   0.016
 2669W        W67654   1.374  11.538   0.315
 2670W        W67655   3.389  24.397   3.633
 2671W        W67656  22.728  44.769   2.058
 2672W        W67657  21.523   6.127   3.242
 2673W        W67658  39.769  18.105  12.872
 2674W        W67659  12.034  22.561   2.122
 2675W        W67660  40.356  35.374   0.398
 2676W        W67661  42.923  27.941   2.198
 2677W        W67662   8.354  19.662   1.288
 2678W        W67663   9.464  33.601   2.303
 2679W        W67664  15.050  16.730   0.764
 2680W        W67665  27.265  31.958   2.688
 2681W        W67666  33.941  20.137   3.297
 2682W        W67667   9.297  29.919   2.378
 2683W        W67668   5.249  19.234  13.225
 2684W        W67669  39.933  29.975  14.737
 2685W        W67670   2.368  30.357  14.778
 2686W        W67671   3.297  38.537  11.655
 2687W        W67672  42.979  38.426  12.999
 2688W        W67673  39.073  14.613  13.591
 2689W        W67674  18.173  39.923   1.660
 2690W        W67675  37.758  22.567  12.877
 2691W        W67676  28.700  29.379   4.656
 2692W        W67677  42.301  42.384  13.522
 2693W        W67678   6.742  24.107   1.725
 2694W        W67679   2.535  28.440   1.279
 2695W        W67680   4.889  12.524  14.004
 2696W        W67681  15.224  19.236   3.017
 2697W        W67682  38.999   4.077   1.712
 2698W        W67683  10.427  37.410   1.775
 2699W        W67684   7.453  33.819   2.148
 2700W        W67685  38.507  15.578   4.163
 2701W        W67686  16.248  11.783  13.851
 2702W        W67687   6.966  40.464   0.773
 2703W        W67688  44.966  22.123  12.642
 2704W        W67689   7.713   5.586  12.381
 2705W        W67690  21.695  42.579  14.478
 2706W        W67691  25.234   3.413   0.258
 2707W        W67692  35.756  33.507   2.874
 2708W        W67693  19.737  10.097   0.283
 2709W        W67694  28.660  26.944  13.921
 2710W        W67695  17.309  20.661  12.631
 2711W        W67696  15.048   3.763   0.299
 2712W        W67697  16.773  21.655  13.434
 2713W        W67698  22.955  17.881   0.401
 2714W        W67699  23.072  14.345   0.473
 2715W        W67700  44.975  38.409   3.495
 2716W        W67701   4.276  30.631   0.949
 2717W        W67702  41.684  29.279  11.132
 2718W        W67703  34.503  43.362   0.671
 2719W        W67704  28.455  19.753   4.056
 2720W        W67705  27.070  22.581   3.603
 2721W        W67706  18.765  14.242  12.449
 2722W        W67707  16.801  40.444  13.790
 2723W        W67708  23.088   6.201  13.036
 2724W        W67709  37.012  19.301  10.696
 2725W        W67710  10.222   6.223   2.779
 2726W        W67711  34.369  20.720   5.050
 2727W        W67712  18.528  37.784  11.614
 2728W        W67713  29.581   0.446  11.077
 2729W        W67714   9.176  22.682   0.315
 2730W        W67715  17.053  41.949  13.483
 2731W        W67716  42.275  44.033   2.923
 2732W        W67717  22.081   7.758  14.044
 2733W        W67718  42.636  41.735   0.589
 2734W        W67719  14.800  44.182   4.267
 2735W        W67720   1.671  18.217   3.708
 2736W        W67721  13.617  19.693  13.914
 2737W        W67722  35.030   9.068   3.280
 2738W        W67723  19.128  23.665   1.264
 2739W        W67724   3.040  44.205   1.458
 2740W        W67725  42.423   2.753   1.689
 2741W        W67726  34.381  44.813   1.862
 2742W        W67727  44.445  43.331   4.620
 2743W        W67728  18.324  36.343  12.983
 2744W        W67729  13.279   0.377  12.655
 2745W        W67730  40.560  12.243  13.875
 2746W        W67731  16.143  26.808  13.396
 2747W        W67732  28.790  36.680  14.354
 2748W        W67733  43.894  33.618  11.248
 2749W        W67734  16.387   7.034  11.685
 2750W        W67735  43.332  35.494   1.647
 2751W        W67736   0.001   8.163   2.788
 2752W        W67737  32.998  40.600   0.211
 2753W        W67738  24.001  32.543  11.200
 2754W        W67739  13.960   5.342   9.845
 2755W        W67740  19.644  30.024  10.109
 2756W        W67741  12.849   1.082  14.323
 2757W        W67742   0.849  37.890  13.876
 2758W        W67743  28.882  26.462  13.898
 2759W        W67744   5.969  23.200  11.075
 2760W        W67745  40.707  33.980   3.185
 2761W        W67746  31.757  44.289   2.491
 2762W        W67747  34.412  30.909   1.896
 2763W        W67748  13.318  16.304   3.281
 2764W        W67749  11.089  35.928  14.598
 2765W        W67750  26.797  41.350  10.491
 2766W        W67751  34.588  28.876   2.706
 2767W        W67752  11.994  10.037   4.593
 2768W        W67753  22.360  18.843  12.514
 2769W        W67754   0.860  34.835  13.872
 2770W        W67755  42.987  13.389  10.702
 2771W        W67756  17.163  42.330  11.701
 2772W        W67757  44.867  39.225   4.514
 2773W        W67758  18.330  31.187  12.615
 2774W        W67759  24.199   7.397  12.406
 2775W        W67760  35.569   1.507   2.214
 2776W        W67761  36.556   7.201   2.305
 2777W        W67762  17.234  21.740   4.190
 2778W        W67763   8.163  36.362   1.423
 2779W        W67764  40.329   8.785  12.893
 2780W        W67765  33.372  39.299   3.857
 2781W        W67766  25.536   0.825   2.798
 2782W        W67767  13.544  28.509  12.039
 2783W        W67768  27.117  22.054   0.238
 2784W        W67769  30.507  35.976   4.110
 2785W        W67770  27.374  12.230  11.150
 2786W        W67771  30.379  35.443  13.798
 2787W        W67772  21.436  27.579  11.171
 2788W        W67773  21.108   3.785   3.635
 2789W        W67774   0.440  18.770  11.522
 2790W        W67775   0.370  10.728   3.586
 2791W        W67776  16.257  11.366   3.296
 2792W        W67777   3.959   1.447   3.607
 2793W        W67778  40.942  36.109  13.177
 2794W        W67779  31.609  27.622  12.168
 2795W        W67780  26.975  34.175  13.839
 2796W        W67781  43.818  28.088   0.856
 2797W        W67782  11.657  38.606  11.731
 2798W        W67783  43.738  30.577   1.289
 2799W        W67784  31.617  39.126   3.030
 2800W        W67785  28.632  15.758  11.562
 2801W        W67786  27.895  41.318   1.536
 2802W        W67787  25.451  15.268  14.929
 2803W        W67788  40.265  35.577   1.781
 2804W        W67789   2.308   4.031  13.955
 2805W        W67790  24.120  23.699  13.135
 2806W        W67791  11.772  27.496  13.021
 2807W        W67792  15.677  38.577  11.161
 2808W        W67793  43.389  14.140  13.980
 2809W        W67794   5.870  40.312   4.308
 2810W        W67795  20.941  40.018  11.290
 2811W        W67796  14.300  14.165  13.093
 2812W        W67797  37.949  10.670  14.832
 2813W        W67798  29.107  33.836   4.421
 2814W        W67799  15.237  19.090  12.417
 2815W        W67800  17.167   4.406   0.550
 2816W        W67801  43.387   4.868  14.994
 2817W        W67802  16.603  20.482   3.897
 2818W        W67803   6.682  43.207  10.753
 2819W        W67804   2.692  43.074  12.040
 2820W        W67805  16.852  17.960  11.162
 2821W        W67806  14.688  24.006  14.444
 2822W        W67807  14.340  31.472   2.326
 2823W        W67808   5.940  24.556  11.608
 2824W        W67809   6.118   7.679   1.341
 2825W        W67810  19.729  42.877   2.103
 2826W        W67811  10.823  12.347  13.402
 2827W        W67812  43.826  26.217  10.226
 2828W        W67813  16.090  32.448  12.486
 2829W        W67814  32.586  37.797   2.258
 2830W        W67815   6.848  27.683  13.603
 2831W        W67816  29.390  36.429  13.570
 2832W        W67817  16.476  15.585   0.867
 2833W        W67818   6.502  36.075  14.604
 2834W        W67819  15.087  33.507  13.577
 2835W        W67820  42.447  19.223  12.467
 2836W        W67821   3.789  10.610  11.750
 2837W        W67822  12.574   5.556  13.514
 2838W        W67823  36.730  44.623  14.796
 2839W        W67824  12.147  22.326   0.920
 2840W        W67825  37.950  22.942  11.884
 2841W        W67826  40.995  12.155  12.932
 2842W        W67827  42.358  42.836  10.714
 2843W        W67828  44.914  17.635  10.687
 2844W        W67829  26.933  24.236  11.580
 2845W        W67830   6.273  39.878  11.101
 2846W        W67831  14.662   4.648   3.257
 2847W        W67832  35.521   8.886   3.186
 2848W        W67833   5.357  21.726   4.602
 2849W        W67834  28.387   0.275  11.000
 2850W        W67835  35.747  32.890   4.229
 2851W        W67836   3.013  29.468   1.651
 2852W        W67837   9.577  38.788   2.311
 2853W        W67838  34.893  16.520   0.343
 2854W        W67839  29.228   5.454   3.273
 2855W        W67840  13.716  16.471   1.831
 2856W        W67841  21.172  36.560   3.823
 2857W        W67842   5.832   6.648  14.050
 2858W        W67843  35.097  36.558   4.680
 2859W        W67844  36.141  10.934   1.976
 2860W        W67845  15.683   6.609  13.709
 2861W        W67846  26.917   7.716  10.693
 2862W        W67847  12.140  23.016   0.261
 2863W        W67848  25.003  44.004  12.249
 2864W        W67849  25.734  24.119   0.853
 2865W        W67850   6.854  43.578   0.338
 2866W        W67851  17.199   8.232   4.124
 2867W        W67852   8.107   7.550   0.911
 2868W        W67853   7.960  15.625   2.927
 2869W        W67854   8.436  39.271  14.998
 2870W        W67855  19.072  29.053  12.002
 2871W        W67856   9.314  38.922   1.874
 2872W        W67857   4.359  25.398  12.303
 2873W        W67858  18.240   5.174  12.954
 2874W        W67859   1.281  34.584  13.488
 2875W        W67860   8.786  32.153  14.947
 2876W        W67861  28.979   2.382   0.716
 2877W        W67862   9.460  14.396  11.605
 2878W        W67863  15.931   4.039  12.513
 2879W        W67864  30.714   8.159   3.666
 2880W        W67865   4.730  12.056  11.208
 2881W        W67866   1.819  21.575  14.724
 2882W        W67867  43.370  24.499  13.760
 2883W        W67868  42.051  21.320   1.482
 2884W        W67869  37.896  41.899  14.870
 2885W        W67870   9.813   6.692   4.200
 2886W        W67871  27.046  15.593  12.397
 2887W        W67872  32.371  44.162  13.299
 2888W        W67873  17.880   3.681   2.195
 2889W        W67874  39.368  19.788   4.276
 2890W        W67875  24.778  24.484  12.082
 2891W        W67876  36.304  32.748  12.503
 2892W        W67877  25.595  12.749   5.095
 2893W        W67878  25.146  19.867  12.172
 2894W        W67879  28.230   4.381  11.907
 2895W        W67880  10.683  11.849  13.406
 2896W        W67881  14.199  17.253   1.735
 2897W        W67882  33.803  15.806   3.631
 2898W        W67883   6.253  28.245  12.508
 2899W        W67884  16.578  44.525  11.942
 2900W        W67885  31.211   5.514  12.511
 2901W        W67886  10.320  13.898  10.267
 2902W        W67887   0.954  14.526   2.076
 2903W        W67888   3.454  44.831  13.853
 2904W        W67889  20.025   5.820   2.700
 2905W        W67890   9.220  29.604  12.625
 2906W        W67891  22.419  31.871  14.350
 2907W        W67892  31.574   3.245   4.641
 2908W        W67893   8.161  28.577  11.574
 2909W        W67894  33.148   8.242  13.472
 2910W        W67895  19.476  41.080   0.087
 2911W        W67896   6.245   9.299  13.025
 2912W        W67897  26.825  43.891   2.156
 2913W        W67898  42.025   4.712  12.987
 2914W        W67899   4.252  27.928  11.648
 2915W        W67900  42.051  25.246   3.065
 2916W        W67901   9.661  13.647   0.789
 2917W        W67902   7.186  16.525  10.571
 2918W        W67903  10.243  21.824   3.184
 2919W        W67904  40.348  11.848  13.550
 2920W        W67905   2.469  27.076   2.944
 2921W        W67906  22.159  22.924  13.002
 2922W        W67907  41.514  24.344  11.282
 2923W        W67908  10.736  38.513  13.409
 2924W        W67909  30.601   3.685   3.216
 2925W        W67910  41.900  41.855   2.668
 2926W        W67911  43.209  42.448  10.773
 2927W        W67912   5.695  22.236  11.101
 2928W        W67913  35.627   4.231   2.802
 2929W        W67914  24.943  21.694  13.008
 2930W        W67915  14.299  44.723   3.620
 2931W        W67916  11.861  28.673   2.704
 2932W        W67917  34.968   6.694   2.195
 2933W        W67918  44.014   3.212   3.851
 2934W        W67919  24.886  30.364   0.782
 2935W        W67920  42.960   7.401   0.984
 2936W        W67921  22.107  36.084   0.277
 2937W        W67922   5.297   4.808  12.042
 2938W        W67923   7.037  32.938   1.436
 2939W        W67924   6.368  38.679   5.024
 2940W        W67925   5.492   2.513   2.249
 2941W        W67926  28.310  26.350   3.350
 2942W        W67927  22.798  23.357   4.292
 2943W        W67928  20.300  17.843  13.859
 2944W        W67929  27.465  44.126   2.917
 2945W        W67930  40.347   7.880  13.135
 2946W        W67931   4.934  23.133   3.536
 2947W        W67932   1.356  29.336   1.457
 2948W        W67933   2.371   0.787   1.959
 2949W        W67934   2.011   7.783   0.789
 2950W        W67935  40.058  13.751   3.210
 2951W        W67936  20.157  29.627   4.402
 2952W        W67937  37.590  29.146   4.280
 2953W        W67938  35.099  39.441  13.031
 2954W        W67939   8.567  33.034  14.000
 2955W        W67940  22.916   8.357  13.886
 2956W        W67941  11.701  15.586  10.427
 2957W        W67942  32.502  23.521  13.442
 2958W        W67943  10.614   4.947  13.526
 2959W        W67944  36.570  35.843   0.391
 2960W        W67945  21.904  11.853  12.043
 2961W        W67946  11.294  27.599   3.210
 2962W        W67947   9.342  29.265  10.849
 2963W        W67948  17.880  28.517  12.943
 2964W        W67949  44.571  37.096   1.867
 2965W        W67950  43.529   6.878   0.813
 2966W        W67951  37.359  29.063   0.033
 2967W        W67952  16.240  31.034   0.318
 2968W        W67953   3.856  11.332   2.905
 2969W        W67954  22.950  28.998   3.145
 2970W        W67955  10.915  14.255  11.943
 2971W        W67956  17.877  12.746  10.663
 2972W        W67957  32.518  26.736   4.546
 2973W        W67958  31.365  19.133   2.733
 2974W        W67959  23.771  24.567   3.241
 2975W        W67960  33.193  29.873   0.416
 2976W        W67961   3.196  14.653   3.752
 2977W        W67962  35.034   7.380  14.518
 2978W        W67963  42.621  42.054   1.401
 2979W        W67964  21.938   3.908  14.429
 2980W        W67965  43.718  41.708  10.707
 2981W        W67966   6.426  30.651   3.244
 2982W        W67967   7.324  36.636   3.124
 2983W        W67968  15.186  30.878   3.938
 2984W        W67969  14.364   1.423  12.367
 2985W        W67970  32.126  35.130  13.856
 2986W        W67971  44.152  38.908   0.057
 2987W        W67972  37.117   9.387  13.522
 2988W        W67973  27.409  32.671  13.017
 2989W        W67974  10.320  17.285  12.076
 2990W        W67975  27.100  44.926  14.880
 2991W        W67976  35.985  20.439   1.278
 2992W        W67977  28.069  38.572   1.150
 2993W        W67978   4.691  25.099   2.512
 2994W        W67979  43.605  13.300  11.500
 2995W        W67980   4.657  33.557  10.811
 2996W        W67981   8.400  31.773   3.620
 2997W        W67982  10.308  44.377  10.884
 2998W        W67983   5.125  41.483  11.501
 2999W        W67984  29.737  37.087  12.379
 3000W        W67985  19.250   9.289   4.835
 3001W        W67986  33.341   4.960  10.238
 3002W        W67987  25.998   6.306   2.895
 3003W        W67988   8.140   5.252   2.178
 3004W        W67989  41.599  32.245  11.965
 3005W        W67990   9.359  41.817   3.631
 3006W        W67991   2.604  24.661   3.191
 3007W        W67992  26.471   0.618   4.643
 3008W        W67993  16.937  30.240   2.524
 3009W        W67994  43.859  28.437   2.251
 3010W        W67995   3.635  32.969  13.538
 3011W        W67996  16.609  19.258  10.754
 3012W        W67997  19.810  33.536  14.928
 3013W        W67998   2.860  24.304  10.782
 3014W        W67999  28.122   4.054   4.607
 3015W        W68000  21.166  39.948  14.948
 3016W        W68001   3.433  14.131   1.072
 3017W        W68002  18.281   8.876  11.289
 3018W        W68003   2.692  41.021  13.949
 3019W        W68004  39.919  37.561  14.802
 3020W        W68005  41.474  40.774  11.170
 3021W        W68006  21.413  12.957  11.066
 3022W        W68007  13.528   4.038   0.761
 3023W        W68008   3.247  38.921  12.928
 3024W        W68009  44.059  19.146  13.775
 3025W        W68010  19.900  18.502  10.128
 3026W        W68011  36.820   6.237   4.018
 3027W        W68012  34.019  30.154  14.720
 3028W        W68013  43.255   9.147   4.845
 3029W        W68014  20.192  20.199   1.400
 3030W        W68015   7.846  36.703   4.533
 3031W        W68016  28.268  13.201  11.451
 3032W        W68017  36.618  41.040  11.674
 3033W        W68018  15.553  22.171   2.430
 3034W        W68019  38.049  22.152  10.876
 3035W        W68020  32.519  40.258   2.390
 3036W        W68021  10.920   9.233  11.202
 3037W        W68022  24.830  17.146   0.346
 3038W        W68023  32.757  41.751  12.095
 3039W        W68024  11.435  27.408   1.836
 3040W        W68025  11.828   0.005  14.494
 3041W        W68026  34.925  40.460  10.360
 3042W        W68027  43.766  19.513  14.467
 3043W        W68028   1.219  15.964  11.565
 3044W        W68029  29.381  43.243   4.502
 3045W        W68030  14.222  41.328  11.609
 3046W        W68031  20.701  38.294  13.748
 3047W        W68032  28.979  32.057  14.761
 3048W        W68033  40.326  18.327   2.513
 3049W        W68034   5.115  11.877   2.240
 3050W        W68035  32.831  18.710  11.599
 3051W        W68036  27.447  17.283   0.366
 3052W        W68037  21.918  36.947  12.480
 3053W        W68038  38.905  34.007  12.014
 3054W        W68039  21.642  35.771  11.155
 3055W        W68040   1.452  14.832   2.671
 3056W        W68041  13.296  42.553   4.571
 3057W        W68042   6.037  43.256  11.598
 3058W        W68043  28.185  16.107  13.959
 3059W        W68044  24.274  27.523  13.006
 3060W        W68045  21.188  19.205  14.449
 3061W        W68046   8.405  23.095  11.048
 3062W        W68047  18.133  21.536   1.715
 3063W        W68048  35.622  21.165  11.180
 3064W        W68049  18.520  42.078  12.538
 3065W        W68050  23.800  11.754   4.175
 3066W        W68051  31.998   2.451  13.605
 3067W        W68052   6.004  37.319   1.852
 3068W        W68053  12.945  11.762   3.690
 3069W        W68054  33.122  27.605   2.798
 3070W        W68055   0.007  31.953  10.653
 3071W        W68056  17.622  36.051   0.753
 3072W        W68057  19.789  15.807   4.585
 3073W        W68058  16.201  25.025  10.529
 3074W        W68059  43.976  35.982   0.310
 3075W        W68060  25.737  20.259   1.347
 3076W        W68061   4.842  25.426  12.643
 3077W        W68062   9.707  19.568   3.197
 3078W        W68063  16.426   4.074   3.570
 3079W        W68064  44.342  27.438  11.437
 3080W        W68065  18.747  39.075  14.009
 3081W        W68066  30.431  33.039   3.735
 3082W        W68067  34.369   8.920  11.274
 3083W        W68068  39.752   9.995   0.839
 3084W        W68069  12.663  13.315   1.870
 3085W        W68070  25.772   6.285   0.511
 3086W        W68071  34.121   7.653   9.856
 3087W        W68072  44.834   3.913  11.326
 3088W        W68073  39.838   3.715   3.207
 3089W        W68074  15.098  28.934  14.393
 3090W        W68075  17.609   1.247  13.455
 3091W        W68076   5.170   8.243  11.617
 3092W        W68077  40.867  40.596  13.423
 3093W        W68078  28.130  28.828   1.495
 3094W        W68079   8.923  43.923  10.708
 3095W        W68080   7.079  38.689   1.922
 3096W        W68081  43.007   6.936   0.750
 3097W        W68082   3.201  32.404  14.863
 3098W        W68083  26.658  38.973  14.823
 3099W        W68084  36.404  32.363   2.138
 3100W        W68085  36.120  31.690   0.937
 3101W        W68086  41.567  31.153   1.784
 3102W        W68087   1.520  23.302  14.034
 3103W        W68088   0.429  43.452   0.842
 3104W        W68089  10.839  16.114   1.639
 3105W        W68090  28.955  32.459  10.693
 3106W        W68091  18.653  10.004   2.923
 3107W        W68092  36.638  29.438   1.202
 3108W        W68093  38.008  44.976   4.579
 3109W        W68094  37.075  26.907   0.982
 3110W        W68095  38.457   1.038  13.441
 3111W        W68096  23.426   7.865   4.114
 3112W        W68097  20.587   3.766   4.416
 3113W        W68098  21.129  23.037   0.799
 3114W        W68099   7.659  12.643  14.292
 3115W        W68100   7.881  10.918   4.386
 3116W        W68101  28.017  20.370   3.721
 3117W        W68102   3.367  12.269   2.770
 3118W        W68103   8.656  19.244  12.633
 3119W        W68104  33.160  10.955  12.832
 3120W        W68105  29.680  36.461  12.082
 3121W        W68106  18.724  43.783  12.101
 3122W        W68107  22.187  19.046  13.953
 3123W        W68108  23.001  21.896   3.193
 3124W        W68109  31.523   2.390  14.724
 3125W        W68110  25.753  27.622  13.815
 3126W        W68111  13.257  34.579   3.422
 3127W        W68112  28.542   2.287   2.892
 3128W        W68113   3.263  30.069  13.579
 3129W        W68114  32.907   6.388   1.450
 3130W        W68115  27.271  44.385   3.296
 3131W        W68116  41.829  36.521   0.487
 3132W        W68117  43.568  36.879   1.671
 3133W        W68118   3.586  43.495   2.100
 3134W        W68119  36.305  44.658  10.091
 3135W        W68120  41.685   0.315  10.585
 3136W        W68121  11.099  18.960   5.073
 3137W        W68122   3.682  21.798  13.655
 3138W        W68123  28.949   1.764  13.064
 3139W        W68124   4.381  18.827  12.969
 3140W        W68125  25.582  33.079   3.370
 3141W        W68126  36.949  36.811   2.342
 3142W        W68127  13.510  16.446   0.274
 3143W        W68128  15.083   1.384  13.013
 3144W        W68129  13.806  39.953  11.749
 3145W        W68130  33.417   3.795  10.991
 3146W        W68131  14.796  17.523   3.088
 3147W        W68132  17.379   7.785  14.293
 3148W        W68133  11.894  26.087  13.758
 3149W        W68134  27.272  18.733   2.293
 3150W        W68135   1.994  37.628  11.235
 3151W        W68136  30.133  26.213  10.749
 3152W        W68137  37.075  21.959   3.155
 3153W        W68138  38.098  24.099   3.818
 3154W        W68139  13.324  27.767  12.107
 3155W        W68140  26.450  15.136  14.629
 3156W        W68141   5.473  12.144   0.285
 3157W        W68142  26.434  13.786   3.741
 3158W        W68143   2.384  13.138   2.245
 3159W        W68144   8.187  24.353  14.802
 3160W        W68145  16.318  15.884  14.287
 3161W        W68146  26.947   0.458   4.530
 3162W        W68147   6.466  12.908   0.920
 3163W        W68148  44.580   5.768  13.323
 3164W        W68149  38.123  42.578  11.084
 3165W        W68150   8.328  19.031   0.695
 3166W        W68151  10.654  14.796  12.843
 3167W        W68152  34.997  44.829  12.644
 3168W        W68153  11.826  12.832   0.449
 3169W        W68154   6.626  10.209   2.126
 3170W        W68155  43.509  43.404  10.665
 3171W        W68156  28.750  24.148   0.748
 3172W        W68157  13.376  23.215  13.470
 3173W        W68158  36.778  16.871   0.725
 3174W        W68159  37.406   0.880   3.189
 3175W        W68160  27.411  16.711  12.939
 3176W        W68161  18.224  35.825  14.802
 3177W        W68162  38.068  26.605   4.103
 3178W        W68163  34.072  11.144  11.503
 3179W        W68164   4.751   9.538   3.618
 3180W        W68165   5.695  29.022  12.509
 3181W        W68166  34.852  29.217   1.378
 3182W        W68167   6.770  15.656  12.243
 3183W        W68168  42.617  22.758   3.154
 3184W        W68169  42.348  39.593  14.506
 3185W        W68170   4.159  35.893   4.603
 3186W        W68171  39.916   5.043   2.734
 3187W        W68172  41.754  23.469  13.089
 3188W        W68173  20.241  42.615  12.426
 3189W        W68174  44.824  15.718   0.020
 3190W        W68175  33.121  27.360   0.988
 3191W        W68176  40.832  18.237  14.101
 3192W        W68177  11.156   7.209   2.466
 3193W        W68178  12.264  20.262   2.164
 3194W        W68179  43.542  36.359   2.280
 3195W        W68180  30.618   9.082  11.973
 3196W        W68181  12.645  29.320  10.636
 3197W        W68182  33.068   3.321  10.402
 3198W        W68183  25.110  38.470   0.701
 3199W        W68184   9.796   2.759   0.408
 3200W        W68185  19.003   9.228   3.148
 3201W        W68186   1.851  39.981   0.037
 3202W        W68187  16.543  27.044  12.990
 3203W        W68188  40.560   8.063  14.100
 3204W        W68189  31.649  32.610  12.841
 3205W        W68190  22.089  24.196   2.759
 3206W        W68191  23.147   4.861  10.507
 3207W        W68192  21.782   1.991   0.422
 3208W        W68193  34.293  41.116  12.507
 3209W        W68194  28.911  33.667  14.332
 3210W        W68195  37.056  27.561  13.962
 3211W        W68196  13.419   4.937  11.717
 3212W        W68197  18.788  41.263   4.696
 3213W        W68198  12.204  22.467   4.618
 3214W        W68199  21.637  21.116   1.480
 3215W        W68200  10.331   0.300  10.425
 3216W        W68201   7.178  10.810   3.872
 3217W        W68202  23.923  27.228  11.144
 3218W        W68203  29.639  19.755   0.830
 3219W        W68204   4.459  12.411  13.249
 3220W        W68205  11.054   1.353  11.515
 3221W        W68206  34.671  17.768  11.863
 3222W        W68207  30.004  10.212  10.548
 3223W        W68208  42.859  26.420  14.025
 3224W        W68209   8.961  14.408  13.738
 3225W        W68210  12.228   5.689  12.580
 3226W        W68211   0.418  22.429  11.718
 3227W        W68212  31.184   3.312   2.587
 3228W        W68213   1.693  11.430   0.947
 3229W        W68214  19.217   8.277   2.852
 3230W        W68215  30.130  42.813  12.989
 3231W        W68216  24.012  17.126  13.830
 3232W        W68217  20.688   1.421  10.743
 3233W        W68218   5.382  12.916   1.542
 3234W        W68219  40.878  39.038  13.347
 3235W        W68220  40.363  38.776  12.852
 3236W        W68221  27.156  43.509   2.249
 3237W        W68222  31.880  28.126   1.383
 3238W        W68223  44.985  35.895  10.681
 3239W        W68224  12.889  20.782  13.429
 3240W        W68225  33.453  22.454  14.862
 3241W        W68226  10.340  24.377  11.998
 3242W        W68227  23.602  43.291   1.782
 3243W        W68228   8.157  21.708   0.258
 3244W        W68229  34.960   0.416   2.284
 3245W        W68230   8.711   3.288  13.589
 3246W        W68231  32.466  11.721  13.532
 3247W        W68232  36.838  41.096  13.416
 3248W        W68233  31.416  10.768  12.793
 3249W        W68234  21.274  35.982  10.788
 3250W        W68235  17.331   4.009  11.438
 3251W        W68236   5.143   1.161  12.120
 3252W        W68237   2.397   3.225   1.860
 3253W        W68238  24.463  44.338  11.902
 3254W        W68239  40.575  33.692   4.938
 3255W        W68240  22.495  34.435  14.754
 3256W        W68241  40.992   0.656   4.269
 3257W        W68242  16.535  24.969   3.508
 3258W        W68243  34.084  37.782   4.795
 3259W        W68244  39.848  24.880  11.521
 3260W        W68245  33.540  31.176  13.045
 3261W        W68246   2.313  18.781   3.036
 3262W        W68247  36.948  22.248   1.834
 3263W        W68248  24.434   5.426   0.355
 3264W        W68249  28.783  20.863  12.649
 3265W        W68250   2.458   7.593   0.989
 3266W        W68251  20.033  43.611  11.933
 3267W        W68252  37.983  19.087   2.818
 3268W        W68253  34.912   3.858  12.642
 3269W        W68254  11.461  12.141  11.738
 3270W        W68255  15.488  31.080  12.884
 3271W        W68256  17.959  39.459   1.734
 3272W        W68257  24.214  28.552  14.161
 3273W        W68258  18.274  25.076   4.677
 3274W        W68259  37.700  34.871   1.957
 3275W        W68260   7.551  41.830   1.312
 3276W        W68261  25.642  43.359   1.937
 3277W        W68262  30.470  33.310  13.771
 3278W        W68263   3.121  31.504  11.123
 3279W        W68264  17.242  11.790  11.541
 3280W        W68265   5.334  33.112  11.697
 3281W        W68266  19.758  39.473  11.978
 3282W        W68267   6.239  25.729   2.816
 3283W        W68268  27.427   6.435  13.971
 3284W        W68269  30.174  34.320  14.212
 3285W        W68270  35.602  31.610  11.194
 3286W        W68271   9.478  11.769   2.671
 3287W        W68272   4.725  39.434  10.736
 3288W        W68273  16.038  34.249  11.173
 3289W        W68274  32.414  36.077   2.221
 3290W        W68275  38.111  37.255   4.322
 3291W        W68276   1.797  15.831   1.346
 3292W        W68277   8.802  20.745  14.016
 3293W        W68278  11.745   4.778   3.609
 3294W        W68279   1.351   2.430  11.564
 3295W        W68280   5.767  40.633  13.689
 3296W        W68281  19.523  31.050  13.812
 3297W        W68282  35.427  10.297   3.061
 3298W        W68283  35.080   7.924  13.443
 3299W        W68284  35.838  20.377  11.334
 3300W        W68285  39.053  41.771  11.091
 3301W        W68286  28.109  42.872   4.317
 3302W        W68287   7.736   0.205   2.655
 3303W        W68288  11.301   4.037  14.993
 3304W        W68289  11.337  16.588  11.713
 3305W        W68290  13.311   5.468  12.591
 3306W        W68291   6.329  11.807   4.680
 3307W        W68292  41.268  27.718  14.530
 3308W        W68293  26.956  21.024  13.485
 3309W        W68294  43.865  15.262  14.776
 3310W        W68295  24.701  21.621   4.459
 3311W        W68296  17.232   8.155   3.265
 3312W        W68297   1.224  12.760  14.320
 3313W        W68298  20.240  43.310  10.513
 3314W        W68299   1.934  30.217   3.718
 3315W        W68300  34.688  10.230   1.877
 3316W        W68301  18.004  37.314  12.535
 3317W        W68302  29.981  24.952  11.096
 3318W        W68303  11.798  39.242   0.815
 3319W        W68304  35.087  41.304   0.277
 3320W        W68305  39.014  17.264  13.878
 3321W        W68306  30.013  10.164  14.397
 3322W        W68307  32.038  40.456  11.528
 3323W        W68308   9.323   5.848   3.044
 3324W        W68309  32.217  25.823  13.916
 3325W        W68310  44.809   6.185  12.873
 3326W        W68311   9.085  10.896  13.454
 3327W        W68312  12.715  39.363   0.949
 3328W        W68313  20.284   4.839  11.898
 3329W        W68314   9.142  44.940   3.675
 3330W        W68315  13.349  37.089   1.225
 3331W        W68316  15.750   1.376   0.361
 3332W        W68317  28.391  13.591  12.980
 3333W        W68318   3.684   3.314   2.686
 3334W        W68319  39.446   3.149  11.498
 3335W        W68320  33.128  38.808  13.090
 3336W        W68321  36.483  32.167  13.835
 3337W        W68322  43.267  34.582   2.858
 3338W        W68323   8.250  39.879  11.893
 3339W        W68324  16.283  11.880  11.444
 3340W        W68325  28.927  23.239  12.369
 3341W        W68326  28.650  23.989  10.727
 3342W        W68327   6.306  26.898   4.753
 3343W        W68328  12.585  30.547   1.349
 3344W        W68329   4.934  30.152   4.247
 3345W        W68330  37.556  30.553   2.349
 3346W        W68331  11.845  25.052  13.897
 3347W        W68332  39.602   2.311  13.007
 3348W        W68333  22.099  29.081  14.348
 3349W        W68334  28.036   0.607   3.653
 3350W        W68335  42.295  28.802   9.888
 3351W        W68336  38.492  27.729   2.823
 3352W        W68337  19.582  27.538  11.129
 3353W        W68338  19.227  43.273  12.369
 3354W        W68339  28.200  26.937  13.293
 3355W        W68340  23.147   7.435   0.158
 3356W        W68341  32.349  19.410  14.645
 3357W        W68342  26.231   7.324   1.157
 3358W        W68343  40.477  24.761   3.029
 3359W        W68344  41.765  18.085  13.784
 3360W        W68345  17.745  21.658   3.515
 3361W        W68346   2.207  38.906   2.203
 3362W        W68347  28.933   4.693  13.059
 3363W        W68348  44.150  28.556   5.127
 3364W        W68349   2.251   3.450   3.272
 3365W        W68350  15.762  32.797  14.028
 3366W        W68351  21.057  42.876  12.317
 3367W        W68352   9.786  20.653  12.217
 3368W        W68353  30.256  14.106  14.067
 3369W        W68354  20.070  36.905   2.774
 3370W        W68355  26.481   1.060   1.712
 3371W        W68356  31.777  22.983   0.330
 3372W        W68357   1.945   5.794  14.366
 3373W        W68358  30.637  14.509   1.528
 3374W        W68359  22.215  22.606   1.919
 3375W        W68360  12.680  12.351  11.032
 3376W        W68361  41.580  38.003  10.461
 3377W        W68362  43.059  12.339   3.741
 3378W        W68363  13.105  15.054   0.997
 3379W        W68364  14.594   9.190  12.885
 3380W        W68365   5.973  23.615  13.534
 3381W        W68366   1.765  17.307   4.076
 3382W        W68367   3.432  24.188  12.947
 3383W        W68368   2.302  35.346  10.983
 3384W        W68369  20.575  13.595   1.666
 3385W        W68370   3.320   2.408   2.209
 3386W        W68371  39.874  22.519   4.616
 3387W        W68372   3.483  18.715  13.957
 3388W        W68373  27.476   8.945   2.870
 3389W        W68374  41.485   7.913  10.704
 3390W        W68375  32.513  41.556  12.543
 3391W        W68376  14.477   0.825  12.505
 3392W        W68377  35.084  26.720  13.354
 3393W        W68378  31.609  17.684   4.622
 3394W        W68379  24.771  42.996  13.517
 3395W        W68380   2.865   4.278  14.684
 3396W        W68381  16.124   8.685  11.215
 3397W        W68382  31.435  44.894   3.602
 3398W        W68383  43.776  13.629   1.160
 3399W        W68384  27.684   7.683   2.298
 3400W        W68385   9.655  28.183   4.281
 3401W        W68386  21.314  24.026  10.712
 3402W        W68387   4.719  22.963  10.628
 3403W        W68388  25.836  14.233  13.452
 3404W        W68389  27.616  31.444  14.614
 3405W        W68390  21.664   2.872   3.782
 3406W        W68391  19.353  10.247   3.621
 3407W        W68392   1.721   9.206   1.861
 3408W        W68393  26.821  41.541  13.470
 3409W        W68394  15.213  31.680   4.270
 3410W        W68395  33.339   0.335  12.441
 3411W        W68396  34.593  14.775   0.658
 3412W        W68397  31.095  43.854  13.368
 3413W        W68398  30.213  10.321  13.435
 3414W        W68399   7.690   7.230   2.386
 3415W        W68400  35.358  30.037  10.471
 3416W        W68401  44.557  27.983  12.213
 3417W        W68402  26.892  16.862   4.681
 3418W        W68403  11.384  21.605   1.913
 3419W        W68404  30.150  17.314  14.407
 3420W        W68405  12.435  37.125  14.492
 3421W        W68406  11.155  20.568   4.427
 3422W        W68407  13.697  10.628  14.531
 3423W        W68408  43.831  21.645  12.869
 3424W        W68409  19.781  22.637  12.097
 3425W        W68410  21.051  18.090  12.430
 3426W        W68411  12.621   6.246  14.866
 3427W        W68412  11.709  20.788  12.645
 3428W        W68413  36.026  37.970   3.387
 3429W        W68414  18.033  15.297   2.262
 3430W        W68415  17.062   5.506   2.713
 3431W        W68416  13.681  39.155   0.937
 3432W        W68417  22.219  19.834  12.997
 3433W        W68418  26.493   7.690  13.690
 3434W        W68419  21.199  26.490  10.583
 3435W        W68420   4.835  14.207  13.788
 3436W        W68421   1.378  40.100  13.199
 3437W        W68422  35.515   0.260  14.327
 3438W        W68423  23.246  23.844   2.274
 3439W        W68424  26.409  25.046  11.105
 3440W        W68425  27.495   8.314   2.150
 3441W        W68426  44.320  23.150  13.690
 3442W        W68427  18.456  44.040   0.893
 3443W        W68428  25.280   2.527   5.378
 3444W        W68429  37.568  38.384  10.500
 3445W        W68430  27.733  43.256  13.540
 3446W        W68431  32.239   4.449   1.938
 3447W        W68432  11.332  21.318   4.219
 3448W        W68433  28.376  39.268  13.966
 3449W        W68434  27.571  40.188  11.184
 3450W        W68435  32.991   6.907   1.352
 3451W        W68436   5.928  22.685   4.339
 3452W        W68437   3.812  18.852  11.475
 3453W        W68438  33.536  15.303  11.697
 3454W        W68439  44.605  20.000  14.450
 3455W        W68440  42.057  38.858  12.459
 3456W        W68441  22.733  27.921   4.070
 3457W        W68442  21.199  34.038   2.159
 3458W        W68443  12.601  29.058   1.313
 3459W        W68444  15.061  25.214   1.467
 3460W        W68445  13.864   3.186   4.001
 3461W        W68446  36.548  41.498   2.121
 3462W        W68447  38.573  15.893   0.696
 3463W        W68448  30.712  10.585  11.962
 3464W        W68449  41.428  34.257   0.634
 3465W        W68450  39.572  41.493  12.371
 3466W        W68451  36.218  42.386   1.808
 3467W        W68452  20.561  20.235   2.367
 3468W        W68453  26.696  22.457  13.822
 3469W        W68454  23.134  16.222   2.604
 3470W        W68455  24.132   7.350   0.386
 3471W        W68456  38.820  30.223   4.215
 3472W        W68457  19.542   2.760   4.832
 3473W        W68458  17.261  19.386  13.484
 3474W        W68459  15.699   4.727  14.290
 3475W        W68460  24.586   4.237  11.959
 3476W        W68461  33.632  21.223  10.247
 3477W        W68462  37.377  24.230   4.371
 3478W        W68463  33.862  32.964   1.307
 3479W        W68464  32.123  24.002  14.881
 3480W        W68465  31.211  17.618   1.498
 3481W        W68466  23.418  28.371   1.215
 3482W        W68467  14.168   9.248   2.145
 3483W        W68468   6.927   4.160   3.056
 3484W        W68469  27.754  29.867   0.308
 3485W        W68470  23.022  17.749  14.309
 3486W        W68471   1.545  13.787   4.188
 3487W        W68472  26.654  42.912   0.776
 3488W        W68473  14.178  26.447   0.378
 3489W        W68474  30.330  35.612  14.292
 3490W        W68475   0.703   5.971  11.246
 3491W        W68476  22.035  24.866   1.319
 3492W        W68477  43.083   1.265  13.863
 3493W        W68478  16.458  29.499   2.918
 3494W        W68479  20.511  37.667  13.862
 3495W        W68480  39.492   2.200   2.420
 3496W        W68481  30.435  38.930   4.118
 3497W        W68482  40.790   9.085  12.003
 3498W        W68483  40.330  21.768  12.395
 3499W        W68484  29.230  16.901  14.421
 3500W        W68485  13.220  23.050   4.369
 3501W        W68486   4.858  14.846  11.396
 3502W        W68487   8.008  33.500   0.973
 3503W        W68488   5.301  33.129  12.564
 3504W        W68489  19.366  32.015   4.572
 3505W        W68490   9.760  23.428  13.493
 3506W        W68491  10.624  22.040   2.246
 3507W        W68492  22.771   1.277  14.932
 3508W        W68493  23.114  12.252   1.425
 3509W        W68494  38.437  39.136   3.136
 3510W        W68495   7.436  10.753   2.469
 3511W        W68496  27.877  40.049   3.250
 3512W        W68497  21.304   7.233   1.708
 3513W        W68498  44.814  38.269   4.588
 3514W        W68499  21.332   5.336   1.669
 3515W        W68500   4.481  17.236   3.856
 3516W        W68501  18.758  22.240   3.443
 3517W        W68502  19.284  44.789  12.987
 3518W        W68503  36.332  22.777  14.040
 3519W        W68504  17.912  44.585  10.778
 3520W        W68505  19.274   1.451  12.363
 3521W        W68506  22.465  23.120   4.006
 3522W        W68507  29.988  10.869  13.221
 3523W        W68508  23.512   6.368   2.812
 3524W        W68509  27.395  43.937   2.131
 3525W        W68510  41.410   4.656  14.006
 3526W        W68511  17.714   7.805  10.592
 3527W        W68512  19.640  23.297  11.703
 3528W        W68513   0.013  21.281  13.172
 3529W        W68514  10.335   3.770  14.008
 3530W        W68515  39.515  41.330   0.015
 3531W        W68516   6.203  34.346   1.237
 3532W        W68517   4.485  30.081   3.104
 3533W        W68518  22.397  30.968   2.239
 3534W        W68519   0.268  18.877  12.827
 3535W        W68520  21.122   9.055  12.603
 3536W        W68521  27.168  44.390  13.388
 3537W        W68522  10.364   9.987  11.623
 3538W        W68523   1.785  27.139  13.544
 3539W        W68524  15.592  11.862   0.217
 3540W        W68525   9.996  40.989   1.113
 3541W        W68526  21.800  21.699   2.816
 3542W        W68527  40.446  42.543   4.755
 3543W        W68528  40.000  37.802  12.485
 3544W        W68529  41.025   7.142  14.061
 3545W        W68530  36.905  44.802  10.819
 3546W        W68531  28.640  17.740   3.154
 3547W        W68532   2.470   0.863  10.725
 3548W        W68533  28.570  36.378  13.694
 3549W        W68534  26.541  39.370   0.771
 3550W        W68535  35.929   7.198   2.726
 3551W        W68536  26.061   1.450  14.834
 3552W        W68537  35.198  44.079   3.861
 3553W        W68538  36.886   0.406   4.682
 3554W        W68539   5.669  20.776   0.795
 3555W        W68540  43.324  10.862  12.614
 3556W        W68541  30.846  34.573  10.814
 3557W        W68542   8.654  21.290  11.209
 3558W        W68543  30.099  10.684  11.936
 3559W        W68544  36.096  23.086  10.666
 3560W        W68545   3.177  16.780  11.642
 3561W        W68546  30.617  16.990   5.113
 3562W        W68547   4.230  32.665   4.402
 3563W        W68548  14.654  42.423   1.412
 3564W        W68549  13.703  17.210  14.933
 3565W        W68550  28.263  40.677  12.896
 3566W        W68551  27.207  23.663  12.096
 3567W        W68552  10.950  43.792  11.464
 3568W        W68553  34.625  18.486   3.224
 3569W        W68554  39.603   8.114   1.772
 3570W        W68555  42.570   0.546  12.257
 3571W        W68556  12.715  17.566  10.522
 3572W        W68557  27.144  23.520   0.931
 3573W        W68558  17.076  35.941  12.962
 3574W        W68559  43.300  37.642  14.989
 3575W        W68560  40.461  13.244  13.379
 3576W        W68561   2.849  17.781   0.335
 3577W        W68562  19.213  26.178  10.767
 3578W        W68563   7.905  44.686   0.376
 3579W        W68564  29.598  25.939   0.373
 3580W        W68565  42.416  21.411  11.686
 3581W        W68566   7.905  22.973  11.156
 3582W        W68567   5.983  14.761  14.187
 3583W        W68568   5.070  36.213  13.239
 3584W        W68569  18.081  16.905   3.799
 3585W        W68570  18.049  11.646  12.550
 3586W        W68571  28.231   4.695   4.003
 3587W        W68572  32.972  41.059  11.940
 3588W        W68573  28.498   3.411   2.665
 3589W        W68574  32.578  19.525  12.845
 3590W        W68575  23.613  35.554  13.484
 3591W        W68576  36.492  22.011  12.597
 3592W        W68577  12.665  15.196  13.432
 3593W        W68578  30.816  29.132  10.491
 3594W        W68579  34.002  14.576  11.421
 3595W        W68580   4.287   7.614  13.573
 3596W        W68581  36.387  37.432  10.576
 3597W        W68582  20.786  13.046  11.888
 3598W        W68583  18.147  32.537   4.580
 3599W        W68584  30.312  41.453   3.620
 3600W        W68585  21.250   0.506   2.261
 3601W        W68586  26.017  38.289   2.670
 3602W        W68587  26.202  28.131   4.542
 3603W        W68588   3.394   6.162   1.259
 3604W        W68589  40.572  41.034  14.775
 3605W        W68590   9.437  28.909  11.200
 3606W        W68591  28.656  29.449  12.372
 3607W        W68592  10.522  28.889  12.453
 3608W        W68593  39.872  41.512   4.151
 3609W        W68594  17.526   6.799  12.575
 3610W        W68595   3.959  16.007  11.189
 3611W        W68596  34.435  29.380  14.884
 3612W        W68597   8.224  34.626  13.956
 3613W        W68598  41.966  41.800   2.147
 3614W        W68599  22.927  42.922   3.467
 3615W        W68600   3.462   7.112  14.804
 3616W        W68601  16.139  41.998  10.462
 3617W        W68602   3.848  10.674  12.757
 3618W        W68603  21.845   2.999  13.249
 3619W        W68604  38.059  40.625  13.417
 3620W        W68605  37.994   7.636  14.346
 3621W        W68606  30.482  13.666   3.750
 3622W        W68607  40.360  28.549   1.357
 3623W        W68608  40.373  32.114   1.886
 3624W        W68609  16.308  12.440   3.167
 3625W        W68610  12.602  26.511  10.657
 3626W        W68611  15.872   2.850   1.788
 3627W        W68612  41.975  33.642   2.245
 3628W        W68613  25.510  25.266  12.410
 3629W        W68614  39.151   3.956   0.292
 3630W        W68615   7.869  28.363  10.618
 3631W        W68616  14.879  33.738  10.155
 3632W        W68617  34.056  19.833  13.972
 3633W        W68618   5.917   3.742  12.082
 3634W        W68619  31.888  16.093  14.783
 3635W        W68620  30.512  35.902  13.546
 3636W        W68621   1.251   9.481   2.770
 3637W        W68622  30.543  28.443  12.321
 3638W        W68623  40.458  36.119  11.993
 3639W        W68624  39.255  16.788   2.332
 3640W        W68625  24.004  33.365  12.181
 3641W        W68626  27.225  14.451  14.389
 3642W        W68627  38.885  22.682  11.881
 3643W        W68628  30.590  23.927   4.010
 3644W        W68629  28.443  17.575   2.721
 3645W        W68630  12.701  30.986   3.099
 3646W        W68631  34.607  14.933  13.867
 3647W        W68632  13.725   3.681   3.829
 3648W        W68633  22.907  37.509   0.344
 3649W        W68634  41.012  29.239  12.234
 3650W        W68635  44.231  13.733  13.923
 3651W        W68636  10.314  40.216  10.730
 3652W        W68637  38.999  11.918   4.229
 3653W        W68638  27.923   8.271  13.451
 3654W        W68639  15.758  14.108  13.549
 3655W        W68640  14.645   9.721   0.865
 3656W        W68641  13.152  24.156  12.617
 3657W        W68642  17.787  23.110   4.654
 3658W        W68643  13.343  11.835   2.197
 3659W        W68644   4.061  34.616   2.815
 3660W        W68645  24.354   4.325   9.990
 3661W        W68646  36.188  35.882   3.706
 3662W        W68647  10.339  22.517  13.496
 3663W        W68648  25.154  17.766  12.810
 3664W        W68649  28.574  12.840   1.370
 3665W        W68650  22.138  23.004  11.163
 3666W        W68651  17.828  37.993  14.533
 3667W        W68652  36.096  20.679  12.225
 3668W        W68653   9.445  10.167   0.521
 3669W        W68654  36.673  29.041  10.145
 3670W        W68655  43.952  10.195   0.639
 3671W        W68656  42.791  32.994  12.202
 3672W        W68657   8.794  28.555  12.910
 3673W        W68658   1.860  33.425   4.554
 3674W        W68659   4.298  20.389  14.016
 3675W        W68660   9.421   4.294  11.211
 3676W        W68661  39.105  36.143   1.332
 3677W        W68662  23.232  11.728   4.640
 3678W        W68663   1.653  39.404  12.663
 3679W        W68664  32.922  21.605  12.711
 3680W        W68665  15.401  13.000   4.083
 3681W        W68666  18.556  11.262  11.560
 3682W        W68667  18.630  43.416   0.569
 3683W        W68668   7.130  25.806  14.619
 3684W        W68669   2.916   8.836   0.818
 3685W        W68670  43.190   3.299   3.008
 3686W        W68671   2.903  10.139   0.985
 3687W        W68672  35.592  24.043   2.730
 3688W        W68673  41.445  23.556   1.183
 3689W        W68674  36.165  43.751   2.794
 3690W        W68675  37.098  28.912  12.352
 3691W        W68676  33.395  34.478  14.893
 3692W        W68677   5.427  17.375  14.879
 3693W        W68678   2.501  14.294  11.576
 3694W        W68679  12.114  18.105  11.142
 3695W        W68680  10.602  29.071  10.436
 3696W        W68681   5.433  37.688  12.584
 3697W        W68682  15.025  17.125  12.287
 3698W        W68683  25.051   6.065  10.368
 3699W        W68684  44.723  19.685   4.098
 3700W        W68685  23.991  31.522  14.069
 3701W        W68686  14.754   9.318  14.958
 3702W        W68687  21.366   7.150   5.033
 3703W        W68688  13.115   9.299  14.010
 3704W        W68689  16.650  12.858   0.868
 3705W        W68690  43.500  11.500  10.825
 3706W        W68691   6.760  31.605  12.918
 3707W        W68692  20.326  32.904   2.164
 3708W        W68693  14.001   0.228  14.872
 3709W        W68694  14.916  15.168  11.544
 3710W        W68695  27.576  12.815  10.389
 3711W        W68696  35.534  23.293   1.416
 3712W        W68697  31.913  43.325   3.320
 3713W        W68698  19.173  17.173   4.452
 3714W        W68699   7.298   2.214   2.195
 3715W        W68700  23.532   2.904   3.145
 3716W        W68701  16.360  30.773   4.454
 3717W        W68702  23.335  23.930   0.445
 3718W        W68703   8.074  32.438   2.318
 3719W        W68704  32.638   3.585   1.288
 3720W        W68705  28.532  31.027   3.743
 3721W        W68706  23.140  19.962  13.842
 3722W        W68707  42.757  13.605  11.517
 3723W        W68708  21.905  30.968  13.469
 3724W        W68709  36.285  14.179  13.885
 3725W        W68710  27.417   2.983  12.912
 3726W        W68711  16.686  28.102  10.460
 3727W        W68712   9.851   0.116  13.466
 3728W        W68713  21.737  18.157   4.770
 3729W        W68714  20.655   3.418  10.179
 3730W        W68715  30.621  36.039  10.794
 3731W        W68716  16.146   7.422  10.746
 3732W        W68717   6.412  36.112  13.942
 3733W        W68718  24.646   0.767  12.453
 3734W        W68719  11.765  44.982   2.783
 3735W        W68720  20.498  11.681   0.801
 3736W        W68721  37.932  19.829   1.918
 3737W        W68722  12.113   1.655  12.545
 3738W        W68723  38.631  43.914   3.624
 3739W        W68724  27.927  23.409  12.948
 3740W        W68725  37.720  39.475   3.235
 3741W        W68726  14.345  25.587   0.779
 3742W        W68727  15.226  28.992   1.423
 3743W        W68728  26.033  29.619   3.571
 3744W        W68729  11.813  37.983   4.061
 3745W        W68730   8.274  38.060   4.433
 3746W        W68731  21.771  32.644  13.076
 3747W        W68732  41.597  27.688   1.831
 3748W        W68733  34.084  26.327  12.952
 3749W        W68734  41.071  42.385  11.538
 3750W        W68735   3.819  25.559   1.770
 3751W        W68736   1.349  11.261  13.402
 3752W        W68737  32.514  28.027   0.060
 3753W        W68738  29.676  37.826  12.865
 3754W        W68739   8.548  12.737   1.251
 3755W        W68740  33.422  40.795  12.099
 3756W        W68741  30.924   4.204   3.915
 3757W        W68742  37.749  17.677  14.507
 3758W        W68743  14.896  10.713  12.612
 3759W        W68744  29.361  13.087  13.758
 3760W        W68745  25.001  42.582  11.558
 3761W        W68746   2.379  32.591  13.554
 3762W        W68747   6.790  38.806  12.029
 3763W        W68748   7.931  11.655   0.897
 3764W        W68749  12.210  15.791   1.681
 3765W        W68750  41.674  10.425  11.928
 3766W        W68751  18.537  36.010  13.443
 3767W        W68752  18.335  33.108  11.540
 3768W        W68753  32.619  25.553   3.701
 3769W        W68754   7.184  28.611  11.168
 3770W        W68755  27.693  22.062   0.265
 3771W        W68756  40.977  25.648  11.252
 3772W        W68757  32.873  10.800  12.416
 3773W        W68758  35.071   3.509   1.254
 3774W        W68759  19.785  18.050   4.079
 3775W        W68760  37.476   1.221   2.756
 3776W        W68761  29.735  29.321  11.991
 3777W        W68762  39.502  42.420  11.419
 3778W        W68763  13.746  37.403   5.036
 3779W        W68764  38.890  21.483  14.025
 3780W        W68765   6.590  28.432   3.333
 3781W        W68766  33.532  23.807  11.010
 3782W        W68767  44.952  33.781  11.921
 3783W        W68768   9.386  25.855  14.528
 3784W        W68769  16.035  39.424   1.692
 3785W        W68770  40.994  17.745   0.304
 3786W        W68771  20.202  32.500   4.782
 3787W        W68772  21.981  18.177   2.399
 3788W        W68773  36.447  14.732   2.362
 3789W        W68774  44.945  19.823  14.946
 3790W        W68775  30.787  39.990   0.865
 3791W        W68776  13.465   6.712   0.867
 3792W        W68777   5.353  30.740   2.483
 3793W        W68778  10.120  39.512   2.428
 3794W        W68779  17.526  42.897   1.172
 3795W        W68780  22.431   4.746  10.774
 3796W        W68781  38.237  17.654   1.781
 3797W        W68782  42.017  23.057   4.676
 3798W        W68783  32.553  39.360   2.144
 3799W        W68784  13.644  26.539   1.731
 3800W        W68785  41.953  38.992   2.964
 3801W        W68786  40.857  27.640   2.368
 3802W        W68787  39.339  31.345  10.705
 3803W        W68788  37.420  13.334   3.569
 3804W        W68789  11.602  14.755  10.542
 3805W        W68790   4.840  31.160   0.376
 3806W        W68791  38.587  36.078  12.752
 3807W        W68792  11.761  20.315   2.346
 3808W        W68793   3.901  19.469  10.661
 3809W        W68794  37.499  27.642   1.226
 3810W        W68795  38.039  16.619  12.816
 3811W        W68796  37.541   9.174   0.778
 3812W        W68797  15.722  38.401  12.041
 3813W        W68798  15.100  36.811   0.473
 3814W        W68799  34.696  39.762   2.756
 3815W        W68800  16.431  26.008  11.128
 3816W        W68801  25.803  41.889   2.648
 3817W        W68802  43.326   9.161   2.603
 3818W        W68803  15.078  32.717   3.837
 3819W        W68804  12.991   9.186  13.162
 3820W        W68805   6.863  38.130   4.204
 3821W        W68806  33.597   3.498  14.817
 3822W        W68807   2.344  22.480   3.600
 3823W        W68808  16.243   5.455   2.180
 3824W        W68809   0.863   4.281  10.675
 3825W        W68810  12.166   8.700  14.261
 3826W        W68811  24.486   3.081  10.322
 3827W        W68812  43.904  13.307   2.309
 3828W        W68813   2.761  27.681   1.964
 3829W        W68814  13.962   5.748  11.146
 3830W        W68815   3.851  20.525   2.732
 3831W        W68816  13.599  36.942   1.672
 3832W        W68817  39.967  30.448  10.576
 3833W        W68818  41.443  43.356   2.803
 3834W        W68819   8.295  12.249   4.779
 3835W        W68820  44.518  34.372   4.562
 3836W        W68821  44.009  41.384  10.993
 3837W        W68822  23.964  22.800  12.429
 3838W        W68823  21.372  22.687  11.183
 3839W        W68824  41.794  21.836  13.466
 3840W        W68825  12.123  17.761  14.341
 3841W        W68826  32.304  19.602  12.420
 3842W        W68827  40.379   5.909  13.816
 3843W        W68828  40.655  16.115  12.602
 3844W        W68829  21.582   6.484  12.260
 3845W        W68830  31.729  26.190   4.556
 3846W        W68831  41.437  29.950   3.143
 3847W        W68832  18.232  22.733   2.906
 3848W        W68833  42.854   4.817  12.103
 3849W        W68834  23.519  38.702   2.599
 3850W        W68835   4.963  38.901   0.257
 3851W        W68836  32.070   8.230   2.191
 3852W        W68837  31.656  38.220   4.693
 3853W        W68838  24.133  18.542  10.311
 3854W        W68839   7.708  40.231  10.825
 3855W        W68840  24.619  12.698  13.736
 3856W        W68841  29.893  16.698  11.857
 3857W        W68842  11.237   2.378   2.929
 3858W        W68843  28.577   2.054  13.791
 3859W        W68844  12.687   6.943  14.316
 3860W        W68845  13.943   2.237  11.147
 3861W        W68846  44.604  23.214   4.578
 3862W        W68847  17.471   8.822   5.314
 3863W        W68848  19.016   7.764  10.812
 3864W        W68849   8.461  24.993   1.395
 3865W        W68850  29.612  13.777  11.391
 3866W        W68851  27.648  34.278   4.798
 3867W        W68852  30.068  28.501   0.309
 3868W        W68853   0.309   5.365  12.966
 3869W        W68854   0.147   4.120  13.528
 3870W        W68855   5.343  27.389  14.621
 3871W        W68856  44.431   2.734  12.423
 3872W        W68857  38.614  21.678  14.469
 3873W        W68858  39.942   9.037   4.542
 3874W        W68859  41.359   7.343   3.622
 3875W        W68860  11.055  26.463  14.095
 3876W        W68861  28.418  16.834   4.517
 3877W        W68862  17.226   2.182   2.137
 3878W        W68863  44.494  44.835   2.212
 3879W        W68864  11.926  41.892   1.357
 3880W        W68865  36.495  38.481   0.289
 3881W        W68866   6.088  34.041  10.679
 3882W        W68867  20.265  18.722  14.977
 3883W        W68868  21.674  42.420   4.442
 3884W        W68869  20.229  42.886   0.363
 3885W        W68870  30.075  41.674   0.870
 3886W        W68871  40.123  26.168  14.771
 3887W        W68872   5.795  20.501  10.653
 3888W        W68873  44.405  11.290  13.393
 3889W        W68874  34.640  32.457  11.508
 3890W        W68875   7.732  37.500  14.899
 3891W        W68876  20.555  17.028   1.859
 3892W        W68877  17.045  43.409   4.589
 3893W        W68878  16.655  25.462   2.212
 3894W        W68879   2.639   3.761   0.225
 3895W        W68880  11.635  27.392   3.562
 3896W        W68881  27.075  31.934   3.169
 3897W        W68882  32.046  31.746  12.964
 3898W        W68883   5.770   0.016   2.234
 3899W        W68884  28.112   0.850  11.764
 3900W        W68885  42.287  43.817   4.228
 3901W        W68886  15.986  40.451   1.665
 3902W        W68887  17.144  15.056   4.170
 3903W        W68888  14.714  36.928  13.915
 3904W        W68889  30.465  29.860  12.076
 3905W        W68890  12.352  44.863  13.806
 3906W        W68891   9.727  38.648   0.850
 3907W        W68892  18.637  23.565   1.006
 3908W        W68893   0.311   2.369  12.983
 3909W        W68894  13.741  19.534   3.333
 3910W        W68895  21.119  22.232  13.980
 3911W        W68896  21.567  23.826   0.728
 3912W        W68897  32.420  10.322  11.639
 3913W        W68898  21.276  12.726   0.470
 3914W        W68899  28.408  14.104   4.145
 3915W        W68900  11.692  25.633  12.077
 3916W        W68901  15.349  43.374   4.241
 3917W        W68902  34.925  37.676  14.381
 3918W        W68903  43.336  18.212  13.886
 3919W        W68904  32.296  19.086  11.176
 3920W        W68905  20.322   3.175   3.335
 3921W        W68906  40.182  21.241  12.425
 3922W        W68907  42.046  25.556   0.750
 3923W        W68908  29.212  35.743  10.558
 3924W        W68909  34.130  16.553  11.545
 3925W        W68910  40.474  27.088  14.477
 3926W        W68911  36.072  30.351   2.396
 3927W        W68912  32.173  25.910   4.706
 3928W        W68913  39.312   1.656   2.404
 3929W        W68914  41.726  43.819  14.874
 3930W        W68915  10.377  37.617  11.995
 3931W        W68916  36.403  29.925  10.700
 3932W        W68917  36.655  40.615  11.993
 3933W        W68918  10.059  35.995  11.685
 3934W        W68919  23.973   6.997  14.447
 3935W        W68920  34.413   1.251   4.053
 3936W        W68921  19.025  40.277   4.515
 3937W        W68922   3.995  41.494  10.781
 3938W        W68923  25.501  19.481  12.311
 3939W        W68924  44.274  38.448   0.294
 3940W        W68925  12.340  11.681  11.030
 3941W        W68926  34.895  22.757   4.542
 3942W        W68927   1.645   9.873  14.013
 3943W        W68928  36.858   3.469  13.362
 3944W        W68929  32.067  23.544   3.218
 3945W        W68930  29.526  16.930   0.866
 3946W        W68931  32.610  20.163  14.744
 3947W        W68932  39.600  34.502  11.442
 3948W        W68933  25.261  38.998  12.334
 3949W        W68934  24.120  15.682  12.047
 3950W        W68935  34.598  12.362  12.879
 3951W        W68936  32.120   3.370   4.313
 3952W        W68937   4.558   9.609  12.200
 3953W        W68938  36.483  42.297   1.326
 3954W        W68939  14.908  37.037  13.446
 3955W        W68940  12.620   2.683   3.957
 3956W        W68941  27.491  12.228  12.154
 3957W        W68942  37.615   4.752  14.586
 3958W        W68943  39.325  21.005  12.634
 3959W        W68944  32.531  18.297   1.779
 3960W        W68945  30.480  29.003  10.852
 3961W        W68946   1.456  20.640   1.577
 3962W        W68947   2.808  27.884   3.690
 3963W        W68948  37.533   7.414   9.701
 3964W        W68949  14.734   2.579  14.939
 3965W        W68950   1.941   0.473  13.126
 3966W        W68951  32.982   2.599  11.865
 3967W        W68952  10.644   0.319   4.717
 3968W        W68953  18.708  31.159   0.394
 3969W        W68954  11.812  23.530   0.326
 3970W        W68955   1.983  29.914  13.393
 3971W        W68956  29.241  39.936  13.123
 3972W        W68957  10.181   5.230   4.160
 3973W        W68958  24.205   5.928  13.488
 3974W        W68959  40.906  15.029  10.235
 3975W        W68960  20.289  26.912  12.782
 3976W        W68961  15.493   0.940  14.975
 3977W        W68962   1.786  31.751  11.464
 3978W        W68963  18.739  43.396  13.047
 3979W        W68964  30.100   9.634   0.132
 3980W        W68965  22.238  19.325   1.260
 3981W        W68966  15.866  41.216  14.788
 3982W        W68967  32.919  20.961  13.342
 3983W        W68968  13.600   3.652   0.283
 3984W        W68969   7.814  34.851  13.409
 3985W        W68970  21.323  34.220  12.752
 3986W        W68971  37.430  32.916  14.993
 3987W        W68972  11.202  10.750   1.776
 3988W        W68973  14.624  25.394  14.972
 3989W        W68974   7.611   6.773  11.830
 3990W        W68975  40.504  33.836   3.625
 3991W        W68976  25.608   6.840   4.823
 3992W        W68977  43.057  36.958   3.329
 3993W        W68978   4.785  25.013   0.031
 3994W        W68979  10.512  26.167  11.655
 3995W        W68980  16.647  36.946  10.878
 3996W        W68981  27.907  35.386   3.323
 3997W        W68982   7.950  29.058  14.517
 3998W        W68983  17.954  35.374  11.506
 3999W        W68984  36.641  18.721  13.040
 4000W        W68985   1.483  32.836   3.613
 4001W        W68986  33.006   1.342   2.318
 4002W        W68987   8.899  30.530   0.075
 4003W        W68988  31.344  29.074  11.566
 4004W        W68989  28.425   8.428  12.552
 4005W        W68990  24.705  42.001  14.277
 4006W        W68991   9.010   9.751  13.087
 4007W        W68992   4.895  34.110  14.979
 4008W        W68993   8.844   2.359   3.670
 4009W        W68994  15.572  40.471  14.440
 4010W        W68995   4.692  20.824   0.911
 4011W        W68996  31.699  23.121  11.572
 4012W        W68997  32.571   5.139   0.851
 4013W        W68998   6.914  30.001  10.823
 4014W        W68999   9.761  22.017   0.724
 4015W        W69000  16.832  28.166   2.140
 4016W        W69001  28.039  38.361   1.908
 4017W        W69002   3.790  10.720  11.264
 4018W        W69003  36.612   3.863   3.709
 4019W        W69004  39.491   0.888   1.440
 4020W        W69005  41.228  38.013   3.801
 4021W        W69006  22.837  20.257   0.557
 4022W        W69007  26.499  12.855   2.217
 4023W        W69008  44.229  37.638   1.746
 4024W        W69009  32.675  11.683   0.808
 4025W        W69010  14.257   3.178  13.539
 4026W        W69011  42.823  14.370   2.270
 4027W        W69012  35.670  22.016  12.671
 4028W        W69013  32.565  32.959   1.854
 4029W        W69014   3.518  10.939  14.485
 4030W        W69015  41.863  41.446  11.948
 4031W        W69016   9.793  34.522   3.592
 4032W        W69017  12.879  33.624   4.990
 4033W        W69018  25.589  15.756   3.991
 4034W        W69019  29.552  31.567   5.588
 4035W        W69020  29.193   7.488   3.569
 4036W        W69021   2.925  24.279   2.489
 4037W        W69022  36.945  30.422  11.171
 4038W        W69023  37.775  40.540   3.618
 4039W        W69024  37.402  16.342  14.902
 4040W        W69025   3.136  33.394   4.098
 4041W        W69026  37.324  25.073   0.881
 4042W        W69027  23.644   9.603   4.091
 4043W        W69028   5.648   7.417   0.795
 4044W        W69029  36.853  10.250   3.080
 4045W        W69030  37.887  18.814  12.601
 4046W        W69031  22.991  42.824  12.383
 4047W        W69032   6.729  24.087   4.079
 4048W        W69033   5.953   6.424  13.583
 4049W        W69034  36.136  30.710   1.253
 4050W        W69035  33.284  11.556   2.717
 4051W        W69036  38.740  17.784  12.633
 4052W        W69037  33.409  12.835  13.125
 4053W        W69038   2.300  16.713   3.634
 4054W        W69039  12.866   9.664   2.722
 4055W        W69040  30.998   5.220  14.251
 4056W        W69041   1.577  37.912  11.473
 4057W        W69042  35.820  29.875   3.135
 4058W        W69043   7.307  20.868  13.085
 4059W        W69044  44.272  36.616  12.983
 4060W        W69045  34.107  18.607   3.359
 4061W        W69046   8.224  34.032  12.179
 4062W        W69047  32.203  36.682  14.574
 4063W        W69048  39.492   6.390   0.625
 4064W        W69049  23.426  42.003  11.991
 4065W        W69050  14.586  20.118   1.821
 4066W        W69051  31.914   3.741   4.599
 4067W        W69052  37.135   8.744   1.427
 4068W        W69053  42.135  16.183  11.645
 4069W        W69054  22.194  43.841  10.722
 4070W        W69055  30.996  25.242  14.241
 4071W        W69056   7.957  37.277   0.321
 4072W        W69057   3.658   9.255   3.701
 4073W        W69058  20.766  39.326   1.797
 4074W        W69059   4.503  27.474   3.613
 4075W        W69060  18.830  35.389  13.940
 4076W        W69061  13.283  21.043  13.933
 4077W        W69062  16.978   4.354  11.601
 4078W        W69063  44.225  44.676  14.426
 4079W        W69064  10.807  24.938  11.507
 4080W        W69065  16.624  39.145  13.831
 4081W        W69066  12.534  31.178  12.993
 4082W        W69067   8.297  19.313   4.642
 4083W        W69068  31.835  15.724   1.124
 4084W        W69069  22.258  10.015  13.086
 4085W        W69070  10.603  29.510  12.130
 4086W        W69071  40.543  13.899   3.123
 4087W        W69072   2.937  27.238   3.191
 4088W        W69073   4.109  16.791  11.786
 4089W        W69074   2.884  30.646  12.737
 4090W        W69075  29.877  34.714  12.517
 4091W        W69076  33.404   6.292   2.733
 4092W        W69077  18.399  44.773   0.447
 4093W        W69078  21.174  34.551  14.041
 4094W        W69079  37.320   6.819  11.059
 4095W        W69080  31.500  42.803  13.885
 4096W        W69081  25.564  14.054   1.867
 4097W        W69082  24.045  37.250   1.613
 4098W        W69083  14.618   1.784   3.255
 4099W        W69084  16.036   0.989  13.346
 4100W        W69085  28.713  33.660  10.341
 4101W        W69086   0.482  34.636   2.459
 4102W        W69087  20.285  24.050  13.868
 4103W        W69088  34.363  28.415   3.874
 4104W        W69089  11.502   2.391  12.684
 4105W        W69090  23.885  39.715   4.224
 4106W        W69091   0.627   7.533  10.303
 4107W        W69092  17.575  24.474  14.246
 4108W        W69093  34.916  25.222   0.522
 4109W        W69094  39.459  23.058   2.733
 4110W        W69095  42.893  20.955  10.026
 4111W        W69096  20.694  32.384  12.552
 4112W        W69097  26.154  38.908   0.399
 4113W        W69098  37.086  33.001   0.372
 4114W        W69099  12.462  24.732  12.989
 4115W        W69100   8.930   7.469  14.037
 4116W        W69101  33.941  23.653   3.117
 4117W        W69102  26.682  10.918   1.282
 4118W        W69103  42.131  41.844   0.524
 4119W        W69104   0.256  21.597   1.725
 4120W        W69105  27.838   5.640  11.748
 4121W        W69106  28.956  33.853  12.094
 4122W        W69107  33.526  24.151   1.744
 4123W        W69108  13.210   0.323   4.781
 4124W        W69109  25.744  25.775  11.909
 4125W        W69110  24.845  31.147   1.316
 4126W        W69111   4.334  11.182  12.414
 4127W        W69112  13.591  16.838   2.183
 4128W        W69113  31.219   1.200   2.280
 4129W        W69114   2.897  41.503  12.964
 4130W        W69115  15.336  14.769  14.340
 4131W        W69116  22.495  39.893   0.009
 4132W        W69117  12.523  18.077   0.377
 4133W        W69118  16.255   5.141   0.494
 4134W        W69119  36.076  37.819  14.750
 4135W        W69120  11.439  36.479  14.914
 4136W        W69121  24.124   8.910  12.589
 4137W        W69122   5.662   0.231  13.662
 4138W        W69123   8.217  23.075   3.860
 4139W        W69124  24.140  16.523  14.699
 4140W        W69125  33.492   3.689   9.989
 4141W        W69126  28.664  41.326   4.036
 4142W        W69127  15.286   8.042   1.735
 4143W        W69128  21.756  18.233  13.874
 4144W        W69129   5.537   1.394  13.044
 4145W        W69130  14.814  16.220   2.244
 4146W        W69131  10.369  37.881  13.514
 4147W        W69132   1.870   1.410   4.272
 4148W        W69133  25.095  41.018   4.875
 4149W        W69134  19.786  15.632   2.412
 4150W        W69135   0.222  10.769   1.665
 4151W        W69136  34.551  17.420   4.894
 4152W        W69137  21.293   8.698  13.068
 4153W        W69138  40.949  35.497   1.156
 4154W        W69139  38.777   9.571   4.196
 4155W        W69140  36.155  31.479  14.345
 4156W        W69141  12.474  19.361  12.630
 4157W        W69142  25.217  32.550   4.459
 4158W        W69143  29.070  10.109  12.320
 4159W        W69144  23.906  12.774  10.264
 4160W        W69145  43.840  23.750  12.006
 4161W        W69146   1.361  34.412   1.001
 4162W        W69147  39.750  24.073  14.297
 4163W        W69148  44.026  16.825   3.936
 4164W        W69149   1.896  38.376  10.729
 4165W        W69150  43.558  33.059   4.013
 4166W        W69151  40.157  38.262   4.635
 4167W        W69152  44.957  12.359   2.251
 4168W        W69153  31.128  24.986   2.759
 4169W        W69154   1.751  16.125  12.316
 4170W        W69155  32.856   2.933  11.090
 4171W        W69156  42.918  25.759  10.061
 4172W        W69157   4.774   4.188   2.663
 4173W        W69158  38.812  12.780   1.462
 4174W        W69159  29.625  42.373  14.690
 4175W        W69160  43.489  15.789   2.889
 4176W        W69161  26.509   7.335   3.794
 4177W        W69162   5.176   2.999  13.900
 4178W        W69163   4.385  20.017   0.817
 4179W        W69164  15.654  17.994  11.209
 4180W        W69165  39.059   7.129   2.609
 4181W        W69166  31.064   5.338  12.008
 4182W        W69167   5.331   6.731   1.822
 4183W        W69168  33.584  27.234  12.856
 4184W        W69169  25.083   5.378   4.543
 4185W        W69170  18.605  21.130   4.275
 4186W        W69171  27.696  40.547   4.596
 4187W        W69172  16.662  35.035  13.240
 4188W        W69173  29.497  11.537   4.043
 4189W        W69174  38.758   1.430  14.178
 4190W        W69175  11.203   7.691   2.275
 4191W        W69176  41.377  42.634   4.433
 4192W        W69177  42.473   2.788   2.733
 4193W        W69178  13.168  27.951  12.583
 4194W        W69179  43.530  39.978  11.089
 4195W        W69180  18.728  38.869  12.075
 4196W        W69181  43.708  21.583  12.362
 4197W        W69182  41.033  19.747   0.631
 4198W        W69183  26.392  23.779   2.616
 4199W        W69184   8.660  33.629  11.499
 4200W        W69185  42.057  37.718  11.620
 4201W        W69186  24.094  11.352   4.271
 4202W        W69187  38.488  22.650  14.079
 4203W        W69188  25.481  23.324   4.165
 4204W        W69189   9.820   0.545  14.768
 4205W        W69190   9.869  12.266   4.963
 4206W        W69191  20.716  35.604  12.890
 4207W        W69192  24.550   1.864   1.871
 4208W        W69193  25.883   1.432   1.785
 4209W        W69194  33.770  18.877  12.950
 4210W        W69195  31.594   4.160   1.002
 4211W        W69196   6.761   5.641  13.918
 4212W        W69197  17.560  34.754   1.327
 4213W        W69198   4.279  34.561   1.011
 4214W        W69199   2.860   2.880  14.327
 4215W        W69200  21.101  26.685   2.493
 4216W        W69201  35.027  12.602   3.261
 4217W        W69202  25.738  27.409   2.799
 4218W        W69203  30.082  31.835   3.614
 4219W        W69204   7.367  24.799  14.850
 4220W        W69205   3.649  15.542   1.336
 4221W        W69206   3.903  44.803   1.027
 4222W        W69207  32.772  36.412   2.432
 4223W        W69208  13.418   6.755  11.578
 4224W        W69209  24.600  33.579   0.527
 4225W        W69210   2.909  23.282  12.463
 4226W        W69211  33.326   0.429   3.302
 4227W        W69212  26.080  20.996   0.895
 4228W        W69213  17.817   5.383  13.135
 4229W        W69214   6.182  27.691  10.126
 4230W        W69215  33.283  32.510   0.797
 4231W        W69216  14.551  33.905   2.671
 4232W        W69217  25.001   8.307   0.823
 4233W        W69218  37.888  29.004  13.745
 4234W        W69219  14.806  21.652   1.257
 4235W        W69220  43.894  23.491   4.155
 4236W        W69221  38.959   4.325  13.325
 4237W        W69222   5.874  21.937   3.768
 4238W        W69223  31.090  33.327  11.104
 4239W        W69224  35.476  43.674   0.789
 4240W        W69225  41.051  19.904   0.046
 4241W        W69226  40.788  21.955   1.873
 4242W        W69227  43.307  32.601  13.443
 4243W        W69228  11.816  40.550  13.509
 4244W        W69229  12.337  39.821   4.842
 4245W        W69230  22.749  43.848  12.957
 4246W        W69231  39.500  35.428  14.778
 4247W        W69232  17.801  20.084   2.147
 4248W        W69233   2.844  11.736  13.086
 4249W        W69234  23.482  16.158   0.274
 4250W        W69235  34.384   6.139  14.836
 4251W        W69236  12.211  38.145   1.798
 4252W        W69237  41.514  16.792  13.980
 4253W        W69238  14.223   2.835   1.020
 4254W        W69239  24.554  16.076   4.472
 4255W        W69240  19.714  26.465  12.875
 4256W        W69241  15.377   2.775  12.384
 4257W        W69242  44.900   2.038   3.403
 4258W        W69243  17.197  18.276   4.661
 4259W        W69244  27.418  28.113   4.109
 4260W        W69245  14.130   2.260   4.070
 4261W        W69246  39.900  18.152   1.830
 4262W        W69247   1.425  33.830   1.852
 4263W        W69248   8.943  32.478   1.912
 4264W        W69249  27.411  40.653  11.035
 4265W        W69250  10.869  41.113   3.185
 4266W        W69251  12.321   8.110  11.406
 4267W        W69252  35.021  27.679  13.351
 4268W        W69253   9.609  42.816   1.048
 4269W        W69254  31.143   1.305  11.554
 4270W        W69255   4.978  28.978  12.096
 4271W        W69256  35.837  26.120  11.490
 4272W        W69257  16.582  25.534  10.496
 4273W        W69258  42.725  21.540   0.513
 4274W        W69259  28.930  16.960  10.999
 4275W        W69260  25.529  19.757   4.767
 4276W        W69261  10.404  10.888  13.496
 4277W        W69262  24.474  28.022  12.089
 4278W        W69263  24.420  37.577  13.904
 4279W        W69264  13.280   8.340  12.968
 4280W        W69265  38.004  34.251   4.722
 4281W        W69266   7.702  34.588  12.567
 4282W        W69267  34.107  12.984   1.186
 4283W        W69268   9.743  11.427   4.529
 4284W        W69269   9.127  31.923   1.831
 4285W        W69270   8.269   0.365   4.305
 4286W        W69271  35.318  24.265   2.352
 4287W        W69272  16.785  40.030   4.181
 4288W        W69273  33.108  17.767  11.426
 4289W        W69274  13.323  14.345  11.087
 4290W        W69275  33.289  26.747   2.569
 4291W        W69276  13.858  27.687  14.288
 4292W        W69277  34.879  14.228   4.969
 4293W        W69278  32.694  13.667  12.553
 4294W        W69279  24.049  41.876   3.659
 4295W        W69280  28.136  39.915  14.962
 4296W        W69281  28.444  22.619   4.598
 4297W        W69282  42.468  32.219   4.198
 4298W        W69283  25.318  44.768   3.414
 4299W        W69284   9.364  25.527   0.867
 4300W        W69285   0.023  19.715   4.525
 4301W        W69286  24.557   4.911  13.892
 4302W        W69287   8.949   4.792   3.773
 4303W        W69288   7.605  21.676   3.181
 4304W        W69289  25.470  15.814  14.952
 4305W        W69290  40.339  34.533  13.029
 4306W        W69291  43.588  36.794   2.788
 4307W        W69292  19.658  36.386   2.186
 4308W        W69293  38.799  29.594   1.420
 4309W        W69294  27.701  40.234  10.673
 4310W        W69295  22.033  30.663   2.788
 4311W        W69296  34.608   6.344   5.037
 4312W        W69297  16.677   0.833   3.159
 4313W        W69298  30.601  10.346  12.619
 4314W        W69299  35.931  34.416  11.439
 4315W        W69300  12.135  19.051   4.049
 4316W        W69301  30.681   9.650  13.032
 4317W        W69302  23.297  28.980   1.533
 4318W        W69303  30.757  13.690   1.457
 4319W        W69304  41.731  22.472   1.650
 4320W        W69305  34.373  37.966  10.701
 4321W        W69306  17.175  26.183   2.837
 4322W        W69307  32.340  32.435   0.920
 4323W        W69308  11.227  25.213  11.511
 4324W        W69309  27.699  29.744  14.080
 4325W        W69310  17.599  26.882   4.081
 4326W        W69311  32.840  23.087   1.337
 4327W        W69312  16.360  24.710  11.150
 4328W        W69313   1.628  14.712   4.673
 4329W        W69314  21.127  42.358   3.199
 4330W        W69315  20.993  13.662  10.731
 4331W        W69316  18.841  15.388  14.919
 4332W        W69317  28.026  30.660   2.549
 4333W        W69318  39.691  27.139  13.364
 4334W        W69319  27.012  26.685   0.729
 4335W        W69320  40.012   9.547   4.402
 4336W        W69321  18.726  14.065   0.283
 4337W        W69322  17.261  12.065   1.989
 4338W        W69323  31.241   8.408   4.537
 4339W        W69324  23.457   1.893  13.372
 4340W        W69325  32.221  44.949  14.837
 4341W        W69326   6.133   3.481  11.595
 4342W        W69327  20.746  11.743   4.100
 4343W        W69328  15.617  12.870  14.406
 4344W        W69329  12.067  11.285   1.632
 4345W        W69330   7.771  38.322  10.881
 4346W        W69331  27.552  35.489  10.707
 4347W        W69332  41.552  24.093  13.817
 4348W        W69333  20.081  43.442  13.034
 4349W        W69334   1.557   1.805   1.170
 4350W        W69335  15.137  42.311  14.067
 4351W        W69336  10.984  39.824  12.063
 4352W        W69337  43.736   2.092  12.256
 4353W        W69338   6.497  44.447   3.206
 4354W        W69339  28.859   9.125   3.630
 4355W        W69340  24.452  18.153   1.341
 4356W        W69341  16.639  42.993  10.184
 4357W        W69342   5.488  14.457   0.427
 4358W        W69343  15.341   6.729   0.781
 4359W        W69344  23.290  39.958   2.187
 4360W        W69345  42.886  23.567   2.740
 4361W        W69346  44.696  16.824  12.610
 4362W        W69347  30.476  39.794  10.940
 4363W        W69348   4.402  11.317  11.845
 4364W        W69349  16.206   8.215   0.474
 4365W        W69350   0.511  37.473   1.495
 4366W        W69351   6.965  40.197  12.495
 4367W        W69352  34.149  24.670   0.352
 4368W        W69353  13.334  35.869   3.057
 4369W        W69354   5.933  30.260   5.153
 4370W        W69355  25.984  28.976   0.021
 4371W        W69356  11.003   8.355  10.352
 4372W        W69357  25.197  39.960  10.755
 4373W        W69358  15.140  10.988   0.381
 4374W        W69359   5.805   0.661  13.385
 4375W        W69360  40.529  13.180   2.644
 4376W        W69361  12.707   6.567   4.527
 4377W        W69362  33.474  11.720   4.887
 4378W        W69363   0.003  26.565  11.633
 4379W        W69364   5.232  13.746   2.110
 4380W        W69365   1.777   7.271  10.750
 4381W        W69366  27.737  10.600   1.806
 4382W        W69367  25.531  38.513   4.682
 4383W        W69368  17.578  33.847   4.117
 4384W        W69369   6.959  31.141  12.878
 4385W        W69370  21.130  44.237  11.248
 4386W        W69371  12.218  21.026   3.382
 4387W        W69372  32.493  12.203   2.929
 4388W        W69373   4.860  42.932  11.077
 4389W        W69374  38.731  10.087  12.596
 4390W        W69375  26.639  31.500  11.683
 4391W        W69376  12.557  10.378   3.190
 4392W        W69377  20.835  33.391  14.795
 4393W        W69378  10.435   9.142   1.270
 4394W        W69379  11.597   1.836  10.984
 4395W        W69380  26.826  25.279   0.815
 4396W        W69381   6.129   2.664  12.168
 4397W        W69382  42.911  25.069  13.383
 4398W        W69383   9.850   1.114  13.653
 4399W        W69384  35.394   8.292   1.372
 4400W        W69385  21.724   5.039   2.151
 4401W        W69386   9.418  17.660   0.492
 4402W        W69387  18.299  10.709   4.638
 4403W        W69388  32.395  32.593   0.043
 4404W        W69389  25.463  20.644   3.683
 4405W        W69390  20.534  12.761  11.520
 4406W        W69391  16.612  22.789   3.803
 4407W        W69392   7.424  17.559  14.192
 4408W        W69393  38.517  41.033  11.089
 4409W        W69394  22.463  34.563  14.244
 4410W        W69395   3.308  16.738   3.705
 4411W        W69396  29.404  19.744   3.556
 4412W        W69397   2.126  16.048  11.491
 4413W        W69398   1.817  41.352   3.595
 4414W        W69399  41.069   6.825  12.538
 4415W        W69400  37.764  41.768   3.419
 4416W        W69401  13.391   4.642  12.956
 4417W        W69402  18.784  30.616  12.419
 4418W        W69403  12.084  11.032   4.512
 4419W        W69404  28.958   5.317  10.961
 4420W        W69405  44.994  39.741   4.427
 4421W        W69406  20.699  33.712  11.054
 4422W        W69407  12.528  28.401  10.011
 4423W        W69408  12.229  23.473  12.387
 4424W        W69409  41.855   6.911  11.277
 4425W        W69410  43.635  21.718  14.342
 4426W        W69411   8.769  30.369   2.975
 4427W        W69412  22.966   9.993   0.520
 4428W        W69413  14.599  11.983  14.670
 4429W        W69414  34.186  24.807  14.284
 4430W        W69415  39.342  32.530   0.666
 4431W        W69416   3.324  44.325   9.904
 4432W        W69417  16.063  36.090   1.289
 4433W        W69418  36.134  36.388  13.570
 4434W        W69419  20.714  37.797  14.694
 4435W        W69420  41.421  19.104  12.629
 4436W        W69421  21.113  31.166   4.595
 4437W        W69422  19.148  32.624   3.814
 4438W        W69423   8.629  28.006  13.910
 4439W        W69424   7.955   1.857   1.930
 4440W        W69425  24.217   1.666  10.963
 4441W        W69426  39.912  38.304   0.304
 4442W        W69427  38.886  25.741   2.678
 4443W        W69428   7.433  21.162  13.522
 4444W        W69429  36.527  38.111  13.549
 4445W        W69430  42.953  24.657  12.432
 4446W        W69431  36.972  22.171  11.564
 4447W        W69432  12.880   2.649  12.271
 4448W        W69433  22.061  31.563   4.117
 4449W        W69434   4.470  39.548   0.920
 4450W        W69435  12.907  21.255  11.777
 4451W        W69436  17.802  21.675  13.964
 4452W        W69437  36.391  14.661  14.031
 4453W        W69438  32.933  21.232  10.959
 4454W        W69439   2.854  36.027  13.195
 4455W        W69440  38.313   5.729  11.738
 4456W        W69441  16.001  20.255   1.226
 4457W        W69442  21.152  43.357  11.107
 4458W        W69443  27.121  15.105   4.446
 4459W        W69444   5.397  23.755  11.678
 4460W        W69445  30.000  24.634   4.151
 4461W        W69446  39.665  21.318   2.486
 4462W        W69447  41.912  21.539   1.931
 4463W        W69448  36.117  39.812  12.502
 4464W        W69449  16.800  35.867   1.296
 4465W        W69450  21.079  18.174   4.589
 4466W        W69451  13.541  31.798   3.314
 4467W        W69452  20.842  40.812  13.889
 4468W        W69453  27.469  38.073   3.590
 4469W        W69454   0.466   3.159  13.399
 4470W        W69455  10.345  26.256  12.686
 4471W        W69456   8.418  20.587  10.646
 4472W        W69457  11.893   8.571   1.264
 4473W        W69458  12.089  37.339  13.236
 4474W        W69459   0.347  44.674  12.284
 4475W        W69460  11.656  31.051  12.054
 4476W        W69461   0.352   2.236  11.595
 4477W        W69462   4.751  14.685   2.805
 4478W        W69463  12.390  36.758   1.243
 4479W        W69464   7.870  38.538   4.543
 4480W        W69465  18.509  18.295  13.479
 4481W        W69466  35.595  27.934  14.630
 4482W        W69467   4.911  43.427   0.056
 4483W        W69468  44.878   3.367   0.890
 4484W        W69469  37.533  43.912  11.407
 4485W        W69470   6.598  30.443  10.767
 4486W        W69471  13.348  38.851  12.061
 4487W        W69472  10.803  21.289  12.481
 4488W        W69473   8.797   2.742   4.006
 4489W        W69474  27.261   0.942  11.996
 4490W        W69475  37.895  30.026   4.417
 4491W        W69476  10.279  14.444  13.813
 4492W        W69477  33.295  28.007   1.628
 4493W        W69478  14.838   6.875   0.783
 4494W        W69479   9.116  40.967  11.952
 4495W        W69480  10.858  43.468   1.851
 4496W        W69481  28.192  22.472  13.146
 4497W        W69482  22.988  33.706   3.684
 4498W        W69483  44.504   8.337   2.875
 4499W        W69484   1.384  33.482  14.779
 4500W        W69485  32.516   6.179   2.439
 4501W        W69486  26.758  10.659   0.309
 4502W        W69487  34.539   0.983  13.531
 4503W        W69488  26.113  38.999  13.388
 4504W        W69489  15.253  11.048   2.283
 4505W        W69490  26.733  26.323  10.663
 4506W        W69491  12.056  21.547  14.107
 4507W        W69492  39.353  35.481   0.308
 4508W        W69493  24.448  11.743  12.191
 4509W        W69494  17.784  22.183  10.269
 4510W        W69495  33.401   5.654  13.257
 4511W        W69496   6.729  43.358   2.397
 4512W        W69497  30.075  43.037  11.902
 4513W        W69498  29.561  33.673  11.267
 4514W        W69499  18.958  28.472  11.358
 4515W        W69500  32.004  25.640  14.427
 4516W        W69501  28.144  26.940   4.120
 4517W        W69502   4.005   6.685  11.020
 4518W        W69503   6.764  18.724  11.640
 4519W        W69504  20.745  26.746   3.756
 4520W        W69505  31.487  21.076   3.210
 4521W        W69506  41.097  24.530   4.103
 4522W        W69507   0.143  20.064  10.124
 4523W        W69508  34.880   9.735   1.902
 4524W        W69509  11.906   3.212   0.957
 4525W        W69510  41.549   4.726  11.666
 4526W        W69511  19.554   3.854   3.334
 4527W        W69512   2.050  32.587   1.727
 4528W        W69513  23.125  11.074   4.051
 4529W        W69514  30.076  32.391   1.857
 4530W        W69515   0.002  36.955   3.626
 4531W        W69516  43.046  42.854  14.184
 4532W        W69517  31.590  26.952   3.164
 4533W        W69518   0.726  19.819  12.433
 4534W        W69519   9.820  38.853   3.642
 4535W        W69520  29.470  32.979   3.277
 4536W        W69521  44.429   3.370   1.208
 4537W        W69522  20.592   3.939   0.662
 4538W        W69523  22.257  10.086   3.763
 4539W        W69524  11.402  42.370   3.090
 4540W        W69525  12.096  23.779  13.102
 4541W        W69526  26.660  34.699   3.202
 4542W        W69527  12.469   3.571  13.208
 4543W        W69528  20.563   1.482   3.105
 4544W        W69529  33.100   0.685  14.442
 4545W        W69530  19.194  21.730  14.352
 4546W        W69531  17.201  25.921   1.828
 4547W        W69532  19.239  12.668  13.510
 4548W        W69533   7.196  35.193  11.168
 4549W        W69534  11.269  26.922  14.049
 4550W        W69535  22.698   7.192   2.885
 4551W        W69536   9.474  31.995   2.493
 4552W        W69537   4.197  37.547  12.507
 4553W        W69538  35.266  27.987  13.708
 4554W        W69539   8.318  27.095   3.607
 4555W        W69540  35.950   0.942  11.669
 4556W        W69541  36.431  42.738   3.871
 4557W        W69542  12.024  22.592   1.566
 4558W        W69543   4.720   8.897  11.112
 4559W        W69544  40.547  22.471  12.153
 4560W        W69545  25.209   6.417  12.876
 4561W        W69546  36.290   2.458   4.023
 4562W        W69547  30.873  43.181   4.476
 4563W        W69548  44.351   4.248  13.940
 4564W        W69549  23.210  30.254  12.458
 4565W        W69550  12.100  29.749  13.030
 4566W        W69551  36.358   1.480  12.867
 4567W        W69552  29.713   1.701   5.406
 4568W        W69553   0.437  22.487  11.180
 4569W        W69554  25.836   8.723  12.885
 4570W        W69555  30.851  18.754  13.065
 4571W        W69556  37.032  43.306  10.957
 4572W        W69557  33.464  22.366   2.669
 4573W        W69558  44.863   6.387  12.357
 4574W        W69559   3.342  28.979  13.935
 4575W        W69560   5.681  22.566  10.688
 4576W        W69561  16.311  42.448  10.659
 4577W        W69562  35.413  32.138  11.679
 4578W        W69563   2.725  44.948  11.513
 4579W        W69564  24.851   2.345   3.835
 4580W        W69565  43.850  36.348   3.575
 4581W        W69566  22.950  32.528  11.843
 4582W        W69567  25.457   8.363  12.921
 4583W        W69568   5.294  17.804   4.858
 4584W        W69569  38.945  14.318  11.031
 4585W        W69570  40.579  44.383   4.315
 4586W        W69571   2.210   7.932  12.549
 4587W        W69572   5.430   2.401   0.350
 4588W        W69573  21.204  34.537  10.425
 4589W        W69574  30.337  26.163   2.784
 4590W        W69575   8.195  12.319   3.690
 4591W        W69576   9.152  18.998  13.835
 4592W        W69577  13.049   5.345   1.997
 4593W        W69578  29.129  41.976  14.203
 4594W        W69579  27.971  21.076  12.897
 4595W        W69580  27.518  12.193   4.624
 4596W        W69581  26.687  10.166   0.895
 4597W        W69582  36.939  14.538   4.741
 4598W        W69583   6.418   9.389  12.128
 4599W        W69584  33.394   1.507   3.352
 4600W        W69585  40.731  24.708   4.965
 4601W        W69586  30.641  31.376  12.921
 4602W        W69587  32.845  29.898  12.923
 4603W        W69588  39.954  44.418  11.116
 4604W        W69589  23.499  21.812   3.191
 4605W        W69590  41.373  33.592  13.355
 4606W        W69591  37.137  35.122  14.940
 4607W        W69592  44.007   1.721   2.992
 4608W        W69593  24.004   6.201   2.750
 4609W        W69594   8.409  19.017  11.593
 4610W        W69595   9.801  44.465  12.090
 4611W        W69596  34.112  27.964   1.310
 4612W        W69597   8.320   0.765   2.980
 4613W        W69598  10.305  23.747   1.845
 4614W        W69599  17.652  40.824   2.788
 4615W        W69600  15.943   7.798   4.326
 4616W        W69601  20.031   6.773  14.293
 4617W        W69602  40.438  39.241   1.049
 4618W        W69603  14.770  11.352   4.812
 4619W        W69604  20.672  26.279  12.401
 4620W        W69605   2.081   5.583  14.819
 4621W        W69606  23.149   1.803   4.680
 4622W        W69607  38.270  21.784  11.145
 4623W        W69608  34.531   2.412  12.147
 4624W        W69609   2.665  15.052   2.786
 4625W        W69610  31.149  23.653  12.237
 4626W        W69611   6.217   2.091  11.443
 4627W        W69612  18.136  18.526  13.770
 4628W        W69613   9.788   8.166  14.585
 4629W        W69614  11.656  24.192   5.021
 4630W        W69615  14.824  12.183   3.393
 4631W        W69616  15.580   3.228  12.157
 4632W        W69617   0.572  25.914  13.847
 4633W        W69618   3.675   4.268  14.959
 4634W        W69619  21.066  20.250   2.431
 4635W        W69620  19.247  41.270   4.458
 4636W        W69621   1.951  36.033  13.959
 4637W        W69622  22.616  18.086  14.245
 4638W        W69623  25.182  13.275   1.471
 4639W        W69624  28.615  40.211   4.558
 4640W        W69625   1.434   6.525  10.748
 4641W        W69626  42.882  16.245  14.314
 4642W        W69627   4.018  37.907   2.455
 4643W        W69628  21.211  43.307   0.857
 4644W        W69629  19.922  27.905   2.543
 4645W        W69630  34.325  32.936   0.135
 4646W        W69631  39.001  35.115   0.502
 4647W        W69632  31.902   6.713  13.931
 4648W        W69633  39.363  31.522   4.381
 4649W        W69634   1.294  28.746  13.300
 4650W        W69635  28.573  18.458   0.420
 4651W        W69636  20.281   5.178   0.831
 4652W        W69637  14.720  23.545  14.214
 4653W        W69638  43.700  43.261  12.326
 4654W        W69639  21.632  24.954  11.474
 4655W        W69640   1.469  28.437   3.681
 4656W        W69641  42.565  11.304   2.967
 4657W        W69642   7.347  31.923  11.269
 4658W        W69643   3.767  26.930   3.587
 4659W        W69644  43.780  42.573   0.736
 4660W        W69645  43.813  32.405   3.577
 4661W        W69646  37.960  17.409   4.086
 4662W        W69647  26.447   2.928   3.265
 4663W        W69648  36.151   2.480   0.037
 4664W        W69649  22.223  24.203  11.501
 4665W        W69650  39.647   1.352   2.189
 4666W        W69651  16.342  27.221   4.061
 4667W        W69652  30.131  16.233  12.577
 4668W        W69653  44.246  38.497   4.164
 4669W        W69654   8.598   3.846  11.436
 4670W        W69655  35.946  17.320   0.859
 4671W        W69656  42.253   9.206  11.071
 4672W        W69657  40.707  22.621   0.958
 4673W        W69658  28.422  26.442  11.078
 4674W        W69659  34.844  26.396   0.079
 4675W        W69660   8.155  16.509  14.754
 4676W        W69661   5.844  33.542   1.618
 4677W        W69662   6.509  10.558  14.693
 4678W        W69663  43.087  21.125  13.723
 4679W        W69664  31.611  28.630   1.367
 4680W        W69665  38.541   8.355   2.313
 4681W        W69666  33.915   8.209  13.019
 4682W        W69667  24.547  19.613   4.481
 4683W        W69668   8.174   3.415  12.431
 4684W        W69669  32.410  13.180   0.914
 4685W        W69670   7.967   8.818   1.916
 4686W        W69671  27.129  11.268   4.809
 4687W        W69672  12.827  13.638   0.516
 4688W        W69673  32.311  32.512   2.575
 4689W        W69674  39.447  29.068  14.633
 4690W        W69675  29.011  42.366  11.794
 4691W        W69676  21.047  33.999  13.180
 4692W        W69677  33.454   2.700   2.119
 4693W        W69678   8.236  31.492   1.411
 4694W        W69679  42.938  36.874   0.832
 4695W        W69680   3.951  17.543  11.164
 4696W        W69681  28.496  27.437  13.906
 4697W        W69682  34.772  39.110  11.745
 4698W        W69683  44.754  27.006  11.622
 4699W        W69684  26.210  23.526  13.427
 4700W        W69685  20.998  29.994  10.719
 4701W        W69686   8.843  32.342   3.202
 4702W        W69687  42.856  22.079  14.749
 4703W        W69688   6.553  13.457  12.017
 4704W        W69689  11.499  37.323   2.716
 4705W        W69690   1.677   2.143   1.806
 4706W        W69691  12.223  29.437  12.661
 4707W        W69692  32.900   9.267  14.909
 4708W        W69693  19.267  16.127   1.530
 4709W        W69694  31.156  44.826   3.167
 4710W        W69695  18.574  13.059   0.349
 4711W        W69696  13.657  42.808   0.143
 4712W        W69697  41.931  18.642  10.632
 4713W        W69698   6.863   8.846   4.000
 4714W        W69699  11.060  38.496  10.679
 4715W        W69700  42.888  28.992   3.710
 4716W        W69701  41.654  29.469  10.310
 4717W        W69702  21.584  34.519  11.432
 4718W        W69703   8.108   1.566  13.780
 4719W        W69704   1.440  41.546  10.696
 4720W        W69705  23.139  33.360  14.741
 4721W        W69706  24.334  26.041   1.118
 4722W        W69707   2.927  23.589   0.139
 4723W        W69708  10.763  44.926  11.644
 4724W        W69709   3.054  12.654   1.434
 4725W        W69710  40.020   2.327   2.498
 4726W        W69711   8.412  20.525  14.494
 4727W        W69712  31.574  43.564  13.390
 4728W        W69713  17.170  20.878  12.179
 4729W        W69714  32.013  43.009   1.642
 4730W        W69715  15.134  31.567   4.815
 4731W        W69716  36.029  33.651   4.079
 4732W        W69717  18.758  36.948  13.986
 4733W        W69718  20.739  25.817   3.264
 4734W        W69719   4.290   6.012   1.898
 4735W        W69720  43.715   9.285  10.976
 4736W        W69721  44.836  27.455   1.642
 4737W        W69722  12.574   7.790   4.997
 4738W        W69723   5.749   4.573  12.129
 4739W        W69724  24.794   1.695   1.271
 4740W        W69725  32.637  16.623  11.591
 4741W        W69726  20.456  33.964  10.662
 4742W        W69727  14.520  14.861   0.797
 4743W        W69728   0.403  39.304   2.818
 4744W        W69729   8.746  16.127   1.074
 4745W        W69730   3.767  31.048  13.990
 4746W        W69731  43.212  12.461   0.865
 4747W        W69732   1.908  17.344   0.280
 4748W        W69733  39.937  23.521   2.380
 4749W        W69734  44.054  32.467   0.417
 4750W        W69735  43.530  15.595   0.822
 4751W        W69736  19.826  15.069  13.849
 4752W        W69737  34.848  44.277  10.654
 4753W        W69738  41.318  23.615  13.620
 4754W        W69739   1.803  23.080  11.118
 4755W        W69740  23.598  31.172   0.194
 4756W        W69741   8.387  41.821  11.009
 4757W        W69742  15.567  25.474   0.265
 4758W        W69743  41.311  12.284   2.835
 4759W        W69744   9.453  11.244  11.332
 4760W        W69745  16.647  31.197  13.320
 4761W        W69746  33.004  20.405   0.983
 4762W        W69747  21.865  40.597  12.427
 4763W        W69748  28.796  35.555  12.001
 4764W        W69749  24.154   1.080   2.311
 4765W        W69750   6.230  16.572   3.038
 4766W        W69751  38.026   5.635  14.509
 4767W        W69752  11.099  16.240   2.162
 4768W        W69753   5.634  29.396  11.932
 4769W        W69754  33.551  10.125   2.772
 4770W        W69755  34.397  43.725   4.272
 4771W        W69756  20.923  41.147   2.794
 4772W        W69757  15.705  34.488  13.055
 4773W        W69758   2.791   2.777   3.206
 4774W        W69759  33.907  40.332  11.235
 4775W        W69760   2.196  43.370   4.558
 4776W        W69761  32.729  19.009  12.911
 4777W        W69762  25.234  13.754  13.885
 4778W        W69763   2.096  28.676   3.651
 4779W        W69764  41.835  23.603  14.877
 4780W        W69765  35.572  18.670   4.381
 4781W        W69766  19.594  28.620  12.422
 4782W        W69767  36.829  29.085   2.428
 4783W        W69768  35.970  28.510   2.241
 4784W        W69769  41.300   8.726  10.759
 4785W        W69770  34.079  11.286  14.365
 4786W        W69771  42.525  31.859  10.815
 4787W        W69772  30.617  33.991   1.741
 4788W        W69773  16.761   9.945   0.357
 4789W        W69774   3.441   5.015   4.143
 4790W        W69775   9.694  10.788  10.893
 4791W        W69776  12.063  30.096  14.345
 4792W        W69777  26.438  43.575   2.772
 4793W        W69778   0.225  11.802  12.403
 4794W        W69779  22.496  14.000   3.628
 4795W        W69780   0.212  12.707   4.093
 4796W        W69781  15.927  24.220  13.961
 4797W        W69782  11.338  37.098   1.855
 4798W        W69783  11.201  37.377   2.288
 4799W        W69784   6.882  14.342  12.162
 4800W        W69785   8.793   7.362   0.436
 4801W        W69786   4.916  41.951  11.174
 4802W        W69787  27.620   4.824   3.224
 4803W        W69788  42.905   6.141   3.212
 4804W        W69789  10.507  44.342   1.948
 4805W        W69790   4.684  22.242  13.095
 4806W        W69791  44.293  26.757  13.943
 4807W        W69792  19.087   5.686   2.385
 4808W        W69793   4.862  22.195   3.180
 4809W        W69794  42.260  23.954  12.614
 4810W        W69795   2.692  13.627  13.046
 4811W        W69796  28.577  35.022   0.649
 4812W        W69797  10.536  16.041  13.474
 4813W        W69798   3.376   2.592   4.942
 4814W        W69799  23.478  10.901  14.294
 4815W        W69800  27.670  35.238   2.109
 4816W        W69801  30.030  14.269   1.791
 4817W        W69802  12.251   2.383  13.276
 4818W        W69803  25.213  44.976   1.451
 4819W        W69804  35.025  15.073  11.973
 4820W        W69805   6.200  32.149  14.544
 4821W        W69806  22.411   7.490   1.730
 4822W        W69807  39.333  23.249  14.293
 4823W        W69808  14.763  41.036  10.747
 4824W        W69809  26.565  11.757  14.081
 4825W        W69810  27.507  15.789  10.594
 4826W        W69811  39.992   3.160  11.032
 4827W        W69812   8.356  44.243  13.059
 4828W        W69813  19.322  42.359  12.794
 4829W        W69814   3.855  37.845  14.396
 4830W        W69815  19.145  31.933  14.021
 4831W        W69816  26.700   6.056   0.814
 4832W        W69817  23.778  33.568   3.105
 4833W        W69818  42.970  44.226   0.735
 4834W        W69819  33.688  28.494   0.380
 4835W        W69820  17.461  26.756  10.238
 4836W        W69821   1.753   1.892  13.070
 4837W        W69822  35.660  39.798  13.925
 4838W        W69823  41.771  29.510   2.378
 4839W        W69824   0.720  32.545  13.058
 4840W        W69825  27.177   2.141   3.235
 4841W        W69826   0.818  43.802   0.879
 4842W        W69827  13.385   1.945  13.423
 4843W        W69828   9.427  17.526   1.733
 4844W        W69829  31.441  23.549   4.549
 4845W        W69830  15.741  14.763   1.300
 4846W        W69831  34.196  29.913  11.991
 4847W        W69832  31.679  33.864   0.797
 4848W        W69833  34.032  30.117  12.565
 4849W        W69834   9.335   8.372   0.968
 4850W        W69835  23.635   4.275  13.052
 4851W        W69836  34.167  17.758  10.654
 4852W        W69837  16.582   1.044  14.580
 4853W        W69838  22.652  25.880  13.816
 4854W        W69839   6.673  26.623  11.019
 4855W        W69840  19.808   9.442  12.110
 4856W        W69841   5.376  28.041   2.641
 4857W        W69842  29.867  44.423   4.468
 4858W        W69843  14.237  39.994   2.242
 4859W        W69844  30.301  42.665   1.292
 4860W        W69845  34.150   7.077   0.827
 4861W        W69846  39.287  44.398   0.764
 4862W        W69847  21.866  30.830   3.471
 4863W        W69848  40.252   4.499   3.326
 4864W        W69849  27.199  26.490  14.728
 4865W        W69850  23.935  21.197  11.916
 4866W        W69851  12.648  34.968  14.823
 4867W        W69852   3.014  42.852  11.656
 4868W        W69853   0.421   0.026  10.814
 4869W        W69854  16.171  39.056   4.842
 4870W        W69855  35.575  26.064   3.908
 4871W        W69856   0.449  30.067  10.899
 4872W        W69857  38.278  37.139   5.658
 4873W        W69858  12.185  29.587  10.518
 4874W        W69859  30.210   0.084   1.232
 4875W        W69860  20.670  39.884  10.448
 4876W        W69861   6.178  29.923   2.112
 4877W        W69862   4.297  42.799  13.437
 4878W        W69863  39.641  36.487  12.190
 4879W        W69864  19.708  37.471   3.374
 4880W        W69865   4.972  19.324   0.844
 4881W        W69866  42.771  44.865  11.860
 4882W        W69867  29.120  36.836   4.167
 4883W        W69868   2.881   6.639  10.678
 4884W        W69869  18.994  42.840   0.855
 4885W        W69870  42.460  27.150  12.033
 4886W        W69871  42.774  29.454  13.872
 4887W        W69872   0.372  33.160   4.665
 4888W        W69873   9.218  20.998   3.696
 4889W        W69874  15.293  23.127   0.259
 4890W        W69875   5.404  38.083   3.828
 4891W        W69876  17.318  31.377  14.475
 4892W        W69877  25.504  44.840  12.612
 4893W        W69878  29.128  24.225  13.038
 4894W        W69879  23.025  33.636   4.553
 4895W        W69880   9.620   7.920  12.077
 4896W        W69881  15.069  44.164  13.817
 4897W        W69882  15.072  11.682   2.384
 4898W        W69883  20.165   9.100  13.057
 4899W        W69884  31.569  10.857  10.847
 4900W        W69885  44.550  32.896   2.808
 4901W        W69886  17.282  12.427  13.321
 4902W        W69887  34.420   6.383   3.739
 4903W        W69888   8.840   2.435   0.403
 4904W        W69889   6.312  33.889   0.945
 4905W        W69890  27.093  11.589  10.681
 4906W        W69891  16.268  16.391  14.295
 4907W        W69892   1.272  24.488  11.632
 4908W        W69893   2.470  44.944   2.314
 4909W        W69894  22.025  20.697  14.535
 4910W        W69895  19.321   4.929  10.722
 4911W        W69896   0.370  16.996  13.851
 4912W        W69897  12.072  31.962   4.653
 4913W        W69898   6.267  24.157  11.464
 4914W        W69899  42.804  16.513   0.368
 4915W        W69900  11.698  23.910   3.134
 4916W        W69901  27.662  17.309  14.527
 4917W        W69902   0.426   9.897  10.722
 4918W        W69903   2.980   5.343  11.320
 4919W        W69904   7.368  31.156  10.760
 4920W        W69905  17.666  34.634  10.983
 4921W        W69906   8.923  40.413   3.408
 4922W        W69907   8.125  23.259   2.248
 4923W        W69908  20.780  32.006  13.639
 4924W        W69909  18.154  40.853  14.978
 4925W        W69910  20.091  13.630  10.548
 4926W        W69911  15.741  35.079  13.270
 4927W        W69912   2.543  33.052  14.378
 4928W        W69913   3.423  23.851  14.304
 4929W        W69914  21.762  11.922   0.302
 4930W        W69915   5.346  43.667   1.811
 4931W        W69916  20.456  13.384  14.669
 4932W        W69917  18.379   7.896  14.511
 4933W        W69918  29.988   1.320   2.907
 4934W        W69919   4.203  41.544   1.217
 4935W        W69920  29.085  22.038   2.402
 4936W        W69921  37.251  24.012  10.920
 4937W        W69922  11.322  22.158  11.052
 4938W        W69923  33.406   0.334   2.333
 4939W        W69924  15.792  17.102   0.486
 4940W        W69925  10.607   9.823  10.990
 4941W        W69926  21.629  37.390   3.813
 4942W        W69927  31.611  23.054  13.891
 4943W        W69928  26.648   0.155  10.166
 4944W        W69929  18.732   8.919  11.559
 4945W        W69930   8.090  38.403   3.601
 4946W        W69931   7.075   9.276  10.508
 4947W        W69932   3.362  22.062   3.080
 4948W        W69933  37.573  33.510   5.092
 4949W        W69934   8.661   1.751   1.029
 4950W        W69935  26.704   0.015  14.329
 4951W        W69936  23.724  22.025   0.492
 4952W        W69937   6.729  30.151   1.442
 4953W        W69938  43.433  43.568   1.793
 4954W        W69939  42.350  24.327  14.951
 4955W        W69940  41.867  29.704  13.582
 4956W        W69941  37.061  23.772   0.380
 4957W        W69942  24.480  35.049  14.962
 4958W        W69943  38.479  30.132   2.095
 4959W        W69944   2.965  20.074  11.958
 4960W        W69945   5.527   3.633   1.270
 4961W        W69946  16.689   6.965   0.400
 4962W        W69947   6.311  33.373  12.412
 4963W        W69948  43.322  13.433  12.509
 4964W        W69949  22.084  31.110   1.350
 4965W        W69950  11.436  13.705   4.537
 4966W        W69951   4.970  24.810   0.473
 4967W        W69952  44.441  44.571   1.749
 4968W        W69953  27.170   9.165  13.043
 4969W        W69954  31.048  36.550   2.216
 4970W        W69955  19.043  27.498  12.312
 4971W        W69956   1.701  17.515   0.912
 4972W        W69957  25.248  32.881  12.473
 4973W        W69958  32.953  11.734  13.334
 4974W        W69959  17.818  37.559   1.238
 4975W        W69960  14.370  31.961   0.358
 4976W        W69961  38.912  14.809  13.143
 4977W        W69962  29.658   9.005   3.653
 4978W        W69963  29.098   8.226   3.353
 4979W        W69964   4.030  20.460   4.113
 4980W        W69965  40.820  12.187   2.966
 4981W        W69966   4.168   4.939  12.912
 4982W        W69967   4.745  42.827   1.478
 4983W        W69968  11.592   9.206   0.698
 4984W        W69969  25.486  12.869  12.051
 4985W        W69970  20.278  37.848   4.544
 4986W        W69971  19.196   1.679  13.035
 4987W        W69972  43.573  36.837   0.387
 4988W        W69973   8.637  32.765  10.915
 4989W        W69974  11.330  13.288  11.234
 4990W        W69975  17.079  36.121  13.909
 4991W        W69976   6.216  10.224  13.407
 4992W        W69977  29.604  27.067  13.901
 4993W        W69978  29.926  21.497   0.506
 4994W        W69979   6.785  19.777   3.268
 4995W        W69980  13.988  33.339  10.698
 4996W        W69981  21.637  36.853  12.071
 4997W        W69982   9.651  18.581   4.068
 4998W        W69983  16.779   6.947  12.016
 4999W        W69984   4.548  19.024   0.814
 5000W        W69985  16.921   6.252   0.019
 5001W        W69986  14.201  43.668   3.661
 5002W        W69987   5.201  39.973   0.764
 5003W        W69988  35.453  11.914  11.249
 5004W        W69989   4.520  41.432   4.129
 5005W        W69990  24.613  36.944  11.571
 5006W        W69991  24.570  15.840  12.240
 5007W        W69992   4.095  17.625  12.879
 5008W        W69993  20.808  20.367  13.877
 5009W        W69994  22.742  42.893   4.152
 5010W        W69995  36.045  15.825   4.147
 5011W        W69996  31.065  42.818  13.527
 5012W        W69997  15.309  20.375  11.907
 5013W        W69998  14.103  32.074   2.225
 5014W        W69999  14.509  21.268   0.331
 5015W        W70000  38.464   4.275   1.223
 5016W        W70001  43.620  25.795   4.990
 5017W        W70002  23.962  38.772  14.638
 5018W        W70003   2.286  38.882   3.707
 5019W        W70004   5.804  43.872   1.287
 5020W        W70005  16.692  25.115   3.033
 5021W        W70006  33.820  19.193  12.087
 5022W        W70007  36.957   1.655   1.979
 5023W        W70008  26.573  24.575   1.161
 5024W        W70009  12.986  18.737   4.555
 5025W        W70010  42.697   7.729  13.836
 5026W        W70011  16.739  31.130   4.551
 5027W        W70012   0.688  38.588   2.217
 5028W        W70013  31.063  28.913   4.589
 5029W        W70014  24.796   9.577  12.525
 5030W        W70015  38.992  16.985   5.521
 5031W        W70016  27.929  17.568   4.667
 5032W        W70017  35.020  23.740  11.170
 5033W        W70018  21.270  12.533  11.341
 5034W        W70019  38.495  40.040  13.572
 5035W        W70020  17.611   8.715   0.808
 5036W        W70021  40.185  32.077  11.722
 5037W        W70022  15.583  40.921   2.762
 5038W        W70023  31.645  22.782  10.757
 5039W        W70024  14.123  15.971  13.567
 5040W        W70025  42.863  37.496   4.275
 5041W        W70026  44.722  41.843   0.297
 5042W        W70027   5.268  41.913  12.365
 5043W        W70028  14.202  27.412   1.870
 5044W        W70029  34.084  40.119   1.426
 5045W        W70030  28.525  22.709  11.824
 5046W        W70031  16.575  40.077   3.308
 5047W        W70032  10.249  31.846  12.341
 5048W        W70033  31.886  35.993  11.627
 5049W        W70034  36.365  15.176   2.101
 5050W        W70035  15.821  10.664  13.356
 5051W        W70036   2.577   4.443  11.247
 5052W        W70037  25.540   0.773   0.224
 5053W        W70038   1.362  32.104   2.133
 5054W        W70039  44.498  16.305  10.853
 5055W        W70040  25.597  40.062   1.759
 5056W        W70041  17.334  35.702  12.584
 5057W        W70042   9.171  17.365   2.194
 5058W        W70043   4.209   5.464   2.754
 5059W        W70044  32.079  39.419  10.620
 5060W        W70045  32.201  39.690  12.558
 5061W        W70046  23.608  15.227  11.483
 5062W        W70047   9.341   4.376  12.666
 5063W        W70048  38.565  21.503  11.538
 5064W        W70049  26.591  42.195   0.904
 5065W        W70050  21.429   3.211  12.963
 5066W        W70051  33.392   1.002   3.311
 5067W        W70052  43.557  25.600  10.601
 5068W        W70053  28.164  26.884   2.030
 5069W        W70054  36.369  34.529  14.857
 5070W        W70055  38.950  26.732   3.143
 5071W        W70056  40.067   0.221  14.229
 5072W        W70057  31.536  31.717   2.570
 5073W        W70058  28.222   4.807   2.208
 5074W        W70059  18.787  41.647  12.540
 5075W        W70060  36.397  35.792   0.884
 5076W        W70061  26.743  14.648  14.641
 5077W        W70062  22.958  35.105   0.846
 5078W        W70063   2.642  19.173   1.325
 5079W        W70064  29.477  43.653   0.933
 5080W        W70065  43.261  44.396  13.581
 5081W        W70066  40.121   9.077   2.899
 5082W        W70067  14.115  34.055  12.563
 5083W        W70068   3.087  39.042   3.369
 5084W        W70069   9.729  14.119   3.208
 5085W        W70070   5.740  13.735   3.923
 5086W        W70071  29.573  37.978  10.666
 5087W        W70072  41.013  40.037   1.367
 5088W        W70073  29.200  19.499   3.136
 5089W        W70074  42.743  32.505   1.729
 5090W        W70075  41.266  30.555   1.885
 5091W        W70076  13.440  34.666  12.448
 5092W        W70077   9.189  18.267   0.696
 5093W        W70078  26.434  39.608   2.707
 5094W        W70079  42.535  42.119  12.351
 5095W        W70080   4.750  25.579   4.419
 5096W        W70081  42.105  19.062  11.538
 5097W        W70082  17.332  21.811  11.954
 5098W        W70083  37.966  34.560   2.671
 5099W        W70084  19.613  11.981   3.564
 5100W        W70085   4.442   5.238   4.653
 5101W        W70086  24.728  24.248  14.494
 5102W        W70087  42.817   6.629   4.140
 5103W        W70088  13.148  40.477  14.034
 5104W        W70089   5.186  24.901   1.090
 5105W        W70090  25.557  19.740   0.236
 5106W        W70091   7.164  19.153   2.819
 5107W        W70092   2.459   7.511  13.442
 5108W        W70093  12.359  27.208   1.859
 5109W        W70094   7.191  11.333   3.779
 5110W        W70095  29.417   3.354  14.311
 5111W        W70096   8.646  37.805  11.485
 5112W        W70097  20.422  35.113  11.302
 5113W        W70098  26.538  33.222   3.161
 5114W        W70099  13.842   1.454   1.797
 5115W        W70100  19.205  26.941   2.016
 5116W        W70101  29.402   2.359  13.466
 5117W        W70102  13.131  29.546   1.838
 5118W        W70103  13.250   7.012  12.672
 5119W        W70104  31.939   7.423  14.756
 5120W        W70105  13.104  42.749   3.656
 5121W        W70106  27.991  17.566   4.122
 5122W        W70107   3.698   7.355   4.279
 5123W        W70108  27.745  34.957  14.942
 5124W        W70109  21.088  41.314  13.914
 5125W        W70110   8.223  35.084  13.717
 5126W        W70111  38.857  14.914  14.920
 5127W        W70112  43.002  39.101   1.774
 5128W        W70113  10.656  31.419   1.772
 5129W        W70114  22.645  38.650  14.440
 5130W        W70115  39.484  21.650   0.967
 5131W        W70116   0.771  35.853   0.436
 5132W        W70117  44.015  28.719   3.154
 5133W        W70118  12.324  23.252   4.204
 5134W        W70119  15.331  21.470  14.626
 5135W        W70120  19.761  21.503  12.005
 5136W        W70121  16.747  11.747   3.986
 5137W        W70122   2.764  32.940  13.369
 5138W        W70123  32.093   7.317  14.269
 5139W        W70124  28.469  35.797   4.116
 5140W        W70125  43.050  26.421   3.314
 5141W        W70126  10.108  26.477   2.267
 5142W        W70127  20.096  11.344   0.946
 5143W        W70128  14.134  14.747  10.628
 5144W        W70129  39.317  32.576   4.169
 5145W        W70130  36.628  44.483  12.513
 5146W        W70131  16.942  19.624  10.911
 5147W        W70132   6.794  23.966   0.191
 5148W        W70133  35.578  32.536   2.442
 5149W        W70134  38.451  39.618  12.545
 5150W        W70135  32.390  42.295   1.763
 5151W        W70136  41.805  42.472   4.915
 5152W        W70137  24.805  42.847   1.635
 5153W        W70138  21.568  36.537  12.536
 5154W        W70139  38.771   6.823   1.800
 5155W        W70140  13.365  35.361   2.886
 5156W        W70141  22.519  25.497  14.913
 5157W        W70142  17.235  38.869   0.768
 5158W        W70143  44.887   3.563  12.788
 5159W        W70144  13.044  27.084   4.583
 5160W        W70145  19.891  18.834  10.635
 5161W        W70146  25.442  35.351   0.783
 5162W        W70147  44.347  17.678   2.222
 5163W        W70148   7.231  36.976  13.633
 5164W        W70149  30.441   0.243  14.834
 5165W        W70150   6.790  24.238  10.786
 5166W        W70151  34.551  16.372  13.153
 5167W        W70152   7.392   5.305   2.837
 5168W        W70153   7.297   5.344   0.258
 5169W        W70154   7.362   6.559   0.753
 5170W        W70155  28.590   6.351  13.876
 5171W        W70156  36.823   3.913   4.179
 5172W        W70157   9.923  16.854   2.951
 5173W        W70158   7.922   1.063   2.180
 5174W        W70159   8.614  34.979  14.050
 5175W        W70160  36.450  11.003  13.486
 5176W        W70161   4.876  32.150   1.185
 5177W        W70162   7.099  19.011   0.575
 5178W        W70163  40.329  18.134  14.366
 5179W        W70164  35.028  12.840   2.390
 5180W        W70165  30.504   7.921   3.176
 5181W        W70166  28.585  40.572  13.321
 5182W        W70167  24.034   1.894   1.862
 5183W        W70168  33.531  24.179   4.182
 5184W        W70169  33.242  30.880   2.752
 5185W        W70170   3.647  30.126   0.326
 5186W        W70171  31.523  22.545  14.043
 5187W        W70172  44.654  21.506  14.432
 5188W        W70173  11.739  18.230   2.876
 5189W        W70174  42.318  30.679   1.356
 5190W        W70175  36.401  38.442   2.869
 5191W        W70176   0.238  17.155   2.646
 5192W        W70177  26.082  34.335   0.233
 5193W        W70178  13.186  40.382  12.210
 5194W        W70179  12.861  15.483  11.508
 5195W        W70180  23.756  11.676  13.928
 5196W        W70181  39.259   0.416   1.178
 5197W        W70182  12.626  15.380  14.003
 5198W        W70183  15.890  20.719  12.470
 5199W        W70184  26.002   9.449  11.162
 5200W        W70185  14.609  15.654   4.548
 5201W        W70186  32.709   9.948   4.964
 5202W        W70187  44.589   8.914   4.587
 5203W        W70188  28.111  40.081  11.186
 5204W        W70189   0.352  15.812   4.361
 5205W        W70190  27.600   8.626  10.753
 5206W        W70191  24.690   1.307  14.393
 5207W        W70192   2.705   0.934  11.572
 5208W        W70193  18.549  30.064   1.842
 5209W        W70194  39.051  41.254  13.804
 5210W        W70195   4.308   3.492  14.660
 5211W        W70196  24.174  43.916   3.718
 5212W        W70197  19.646  37.103  11.044
 5213W        W70198  14.772  38.492  10.912
 5214W        W70199  28.542   6.685   3.657
 5215W        W70200  15.654  41.024  10.260
 5216W        W70201   4.628  23.428  11.308
 5217W        W70202  11.683   3.772  12.923
 5218W        W70203  36.362   5.563   3.704
 5219W        W70204  31.080  34.379   3.253
 5220W        W70205   7.598  14.636  13.503
 5221W        W70206  44.543  28.222   1.227
 5222W        W70207   1.911  34.188  11.149
 5223W        W70208  34.252  20.621  12.107
 5224W        W70209   8.658  23.932  12.397
 5225W        W70210  27.030  21.483  14.410
 5226W        W70211  38.978  22.128   3.818
 5227W        W70212  37.760  42.942   3.407
 5228W        W70213  23.681  22.212  10.928
 5229W        W70214  22.993   3.817  14.399
 5230W        W70215  34.145  20.995   4.649
 5231W        W70216  41.251  11.631   2.282
 5232W        W70217  43.897  25.104   3.893
 5233W        W70218  24.232  29.013   1.878
 5234W        W70219   4.854   7.751   0.822
 5235W        W70220  30.776  33.404  13.286
 5236W        W70221  41.597  31.538  13.089
 5237W        W70222  43.551  42.808   1.456
 5238W        W70223  37.865  38.168   2.233
 5239W        W70224  19.039  29.458   2.293
 5240W        W70225   2.558  38.066  13.944
 5241W        W70226  13.623   9.703  13.469
 5242W        W70227  34.039  44.349   4.850
 5243W        W70228   8.198  24.015  14.406
 5244W        W70229  43.224   0.214   3.144
 5245W        W70230  36.566   8.336   3.371
 5246W        W70231   4.971   9.279  10.125
 5247W        W70232   6.977   2.839  11.427
 5248W        W70233  15.998  31.579  13.128
 5249W        W70234   7.305   7.257   3.369
 5250W        W70235  34.658  12.244  13.367
 5251W        W70236  42.093   6.375  12.645
 5252W        W70237  19.548  11.170   1.317
 5253W        W70238   6.370  31.254  14.596
 5254W        W70239  26.380  41.573  11.266
 5255W        W70240   4.469  38.228  14.119
 5256W        W70241   3.987  17.201   4.074
 5257W        W70242  35.205   3.703  11.554
 5258W        W70243   3.959   3.636  11.854
 5259W        W70244   4.342  20.679   2.714
 5260W        W70245   8.353  32.543   3.294
 5261W        W70246  39.013   5.439  11.638
 5262W        W70247  37.381  35.891  11.938
 5263W        W70248  36.114   4.895   0.281
 5264W        W70249  16.653  18.403   1.338
 5265W        W70250  44.172  42.987  14.843
 5266W        W70251  19.156  11.974  12.324
 5267W        W70252   4.921   6.827   4.450
 5268W        W70253   3.908  18.326   1.761
 5269W        W70254   9.758   4.750   2.769
 5270W        W70255  40.315  30.053   3.117
 5271W        W70256   4.241  28.194   1.176
 5272W        W70257  43.346   7.454   1.991
 5273W        W70258  12.284  14.086  14.741
 5274W        W70259  37.988   5.219  13.496
 5275W        W70260  30.151  33.035   4.622
 5276W        W70261   0.768  31.482  11.418
 5277W        W70262  38.068  11.753   4.596
 5278W        W70263  20.535   5.207  12.983
 5279W        W70264  35.907  23.504   1.748
 5280W        W70265  34.664  24.919  12.003
 5281W        W70266  38.212  28.731  10.325
 5282W        W70267   1.169  23.485  12.987
 5283W        W70268  10.865  23.038   3.618
 5284W        W70269  27.969   8.908  10.511
 5285W        W70270  20.002  44.322   0.270
 5286W        W70271  29.378  10.682  14.479
 5287W        W70272   1.105  42.950  12.556
 5288W        W70273   7.345  16.780   2.708
 5289W        W70274  13.589  42.267  11.559
 5290W        W70275   7.236  13.076   2.889
 5291W        W70276  41.093  23.857   3.335
 5292W        W70277  41.411  40.806   3.581
 5293W        W70278  20.834  19.497   1.307
 5294W        W70279  42.433  37.041   0.887
 5295W        W70280  35.806  43.807   2.383
 5296W        W70281  39.538   3.957  11.147
 5297W        W70282  23.987  20.836   0.984
 5298W        W70283  38.865   6.370  14.182
 5299W        W70284  19.737  36.485   3.173
 5300W        W70285  28.081  19.526   0.891
 5301W        W70286   5.192  32.175  14.834
 5302W        W70287   8.263  21.821   2.368
 5303W        W70288  21.580   8.431  11.524
 5304W        W70289  37.913  15.573  10.830
 5305W        W70290   0.792  11.944  13.410
 5306W        W70291  36.917  28.860  13.791
 5307W        W70292  44.976  15.545  12.024
 5308W        W70293  33.425  26.372  14.963
 5309W        W70294  26.303  39.831  14.356
 5310W        W70295   5.333  44.483  13.684
 5311W        W70296  39.259  12.286  14.683
 5312W        W70297  38.833   1.838  14.497
 5313W        W70298   7.039  28.191  13.610
 5314W        W70299  38.476  41.911   3.670
 5315W        W70300   8.352  34.366   0.829
 5316W        W70301  26.386  31.419  14.284
 5317W        W70302  38.140   4.648  12.343
 5318W        W70303  39.289  17.690   1.725
 5319W        W70304   1.596  36.992   2.743
 5320W        W70305  39.342  23.964   1.646
 5321W        W70306  40.905  23.540   2.449
 5322W        W70307  37.886  35.378  10.223
 5323W        W70308  37.683  38.837  10.265
 5324W        W70309   3.589  20.253   3.956
 5325W        W70310  18.304  19.424  12.543
 5326W        W70311  25.194  39.980   1.372
 5327W        W70312  41.954   2.465   1.786
 5328W        W70313  43.246   9.575   2.935
 5329W        W70314   0.930  13.160   1.924
 5330W        W70315  32.947   2.306  11.464
 5331W        W70316  32.512  42.284  10.743
 5332W        W70317   0.721   9.748  11.584
 5333W        W70318  28.512   9.142   4.015
 5334W        W70319  29.608   9.807  14.925
 5335W        W70320  13.776  22.561   1.186
 5336W        W70321   7.394  18.203   1.344
 5337W        W70322  33.668  22.190  12.350
 5338W        W70323   6.892  16.275   1.665
 5339W        W70324  42.004  39.331  14.202
 5340W        W70325  20.452   7.085   3.166
 5341W        W70326  12.516   6.342   4.066
 5342W        W70327  20.254   9.192   2.876
 5343W        W70328   7.754  37.120  12.559
 5344W        W70329  20.694  21.572   4.308
 5345W        W70330  10.461  13.556  13.356
 5346W        W70331   0.527  38.138   0.248
 5347W        W70332   8.778  34.917   1.484
 5348W        W70333   0.696  35.915   2.682
 5349W        W70334   9.151  40.599   0.485
 5350W        W70335  32.620   5.106   4.656
 5351W        W70336   9.768  15.271  11.676
 5352W        W70337  11.034  33.481  13.470
 5353W        W70338   4.729  24.009   3.173
 5354W        W70339  18.242  28.508   4.120
 5355W        W70340   6.753  11.761   1.377
 5356W        W70341  26.554  20.308   1.236
 5357W        W70342  41.442  32.842   0.480
 5358W        W70343  17.366  12.111  14.754
 5359W        W70344  17.829  23.807  12.998
 5360W        W70345  28.030  37.571   2.262
 5361W        W70346  39.936  33.059  13.374
 5362W        W70347  37.485  15.278   3.972
 5363W        W70348  14.967  26.242   5.062
 5364W        W70349  34.317  18.184   3.702
 5365W        W70350  33.311  20.074  11.626
 5366W        W70351  36.642  22.513  13.496
 5367W        W70352  25.059  13.882   3.161
 5368W        W70353  10.810  44.838   4.506
 5369W        W70354  17.279  24.066  14.361
 5370W        W70355  28.464  34.639  13.946
 5371W        W70356  41.312  10.880   2.743
 5372W        W70357  19.121   9.042  10.311
 5373W        W70358  16.579   7.330   2.206
 5374W        W70359   2.161  35.785  14.477
 5375W        W70360   5.732  30.157   2.845
 5376W        W70361   7.193  13.154  11.022
 5377W        W70362   9.579  15.607  13.536
 5378W        W70363   4.691  44.263   3.649
 5379W        W70364  41.535  44.957  12.040
 5380W        W70365  24.528  22.694   0.208
 5381W        W70366  26.674  23.054   4.803
 5382W        W70367  14.341  15.902   4.179
 5383W        W70368  39.181  35.145  11.237
 5384W        W70369  13.436  19.341  11.222
 5385W        W70370   4.331  31.050  11.422
 5386W        W70371  40.921   0.603   4.827
 5387W        W70372  42.840   4.805   3.128
 5388W        W70373  41.225  13.422   4.194
 5389W        W70374   0.791  38.876   3.232
 5390W        W70375   9.775  18.986   3.282
 5391W        W70376  18.891  11.630   4.600
 5392W        W70377  38.592  38.516  10.444
 5393W        W70378   1.368   9.188  13.646
 5394W        W70379  21.012  20.000   1.204
 5395W        W70380  28.939  43.954   2.202
 5396W        W70381   0.632  36.083   0.880
 5397W        W70382  15.690  34.978  12.768
 5398W        W70383   9.730  10.939   2.746
 5399W        W70384  33.616  41.579  10.323
 5400W        W70385  40.854  40.801   3.143
 5401W        W70386  31.593  34.855   3.739
 5402W        W70387  39.414  26.787   1.016
 5403W        W70388  43.202  12.278   0.382
 5404W        W70389  37.605  19.777  11.030
 5405W        W70390  44.428  10.064   3.188
 5406W        W70391   7.570   4.075   1.768
 5407W        W70392  17.736  41.083  11.499
 5408W        W70393  42.683  30.872   4.098
 5409W        W70394   6.223  36.029   2.078
 5410W        W70395  15.817  44.053   2.078
 5411W        W70396  33.469  23.348  10.821
 5412W        W70397   5.965  29.012   0.459
 5413W        W70398  38.347  20.646   2.164
 5414W        W70399   7.286  12.082   1.813
 5415W        W70400  39.398   7.144  12.342
 5416W        W70401   6.046  40.104   3.756
 5417W        W70402  20.284  25.453   2.455
 5418W        W70403  30.585   8.060  13.845
 5419W        W70404  29.341   7.992  11.202
 5420W        W70405  21.558  12.354   4.219
 5421W        W70406  32.026   4.423   0.837
 5422W        W70407  21.791  34.952  11.652
 5423W        W70408  18.131   0.442   2.851
 5424W        W70409   5.714   9.012  12.586
 5425W        W70410  16.095   2.349  14.215
 5426W        W70411  28.409  18.724  14.948
 5427W        W70412  33.395  27.501   1.735
 5428W        W70413  26.729  24.748   2.790
 5429W        W70414  16.080  23.254  11.512
 5430W        W70415  23.165  16.517   3.173
 5431W        W70416  18.583  32.134  14.256
 5432W        W70417   8.650   8.838   1.370
 5433W        W70418   6.165  26.736  13.432
 5434W        W70419  26.405  19.161  12.993
 5435W        W70420  24.619  26.012  14.861
 5436W        W70421   6.098  17.604   2.792
 5437W        W70422  15.748   1.403   3.612
 5438W        W70423  20.111  25.761  11.217
 5439W        W70424  27.382  18.678   4.851
 5440W        W70425  41.322  33.959   5.381
 5441W        W70426  22.550   2.886  14.311
 5442W        W70427  12.443  14.390  12.969
 5443W        W70428   2.468  28.056  11.969
 5444W        W70429  33.374   6.880   1.010
 5445W        W70430  27.259  42.766  14.194
 5446W        W70431  42.046  26.568  14.091
 5447W        W70432  39.157   9.703   1.403
 5448W        W70433  38.038  12.287  12.126
 5449W        W70434  25.983  19.483  12.880
 5450W        W70435  22.690  24.022  11.622
 5451W        W70436  36.898  20.131  13.018
 5452W        W70437  41.149  34.818   3.167
 5453W        W70438  26.818  27.923  12.415
 5454W        W70439  44.994  29.504   4.209
 5455W        W70440  31.029  36.835  10.992
 5456W        W70441  31.598  32.418   3.801
 5457W        W70442   4.580  22.055  11.782
 5458W        W70443  24.597  18.037  13.998
 5459W        W70444   8.940  20.950   0.714
 5460W        W70445  12.205  24.483  11.361
 5461W        W70446  14.418  15.187  10.677
 5462W        W70447  16.966   0.144   3.327
 5463W        W70448   6.064  13.382  12.114
 5464W        W70449  31.525  12.955  12.418
 5465W        W70450  30.611  11.716   1.393
 5466W        W70451  21.630  31.192   0.559
 5467W        W70452  15.942  34.882   2.782
 5468W        W70453  32.414  41.169   3.804
 5469W        W70454   4.676  43.741   0.436
 5470W        W70455  10.314  10.655   0.231
 5471W        W70456  28.896   0.345  11.030
 5472W        W70457   5.213  36.969   3.696
 5473W        W70458  16.530  10.080   1.900
 5474W        W70459  20.696   8.236  11.093
 5475W        W70460  26.048  17.314  12.883
 5476W        W70461  32.662  18.036   3.213
 5477W        W70462  29.107  41.276  11.030
 5478W        W70463   7.302  13.116   1.873
 5479W        W70464  19.694  33.866   4.655
 5480W        W70465  35.573  41.333  13.996
 5481W        W70466  10.799  32.945  14.230
 5482W        W70467  15.562  36.825   2.386
 5483W        W70468   4.872  29.965  10.491
 5484W        W70469  28.088  23.720   0.805
 5485W        W70470  22.122  33.194   4.285
 5486W        W70471  24.018  13.198  11.399
 5487W        W70472  29.226  25.039   4.193
 5488W        W70473   2.247   7.376   0.569
 5489W        W70474   9.394  16.362  12.487
 5490W        W70475  21.746   6.721  11.172
 5491W        W70476  35.980   5.817  12.042
 5492W        W70477  41.738  19.273  14.365
 5493W        W70478  12.873  21.083   3.162
 5494W        W70479  37.127   1.892  13.865
 5495W        W70480  44.926  13.323   3.632
 5496W        W70481   5.368  12.429  10.778
 5497W        W70482   8.890  34.874   5.069
 5498W        W70483  13.689  40.838   2.470
 5499W        W70484  44.506   5.657  12.033
 5500W        W70485   8.358   3.597  12.886
 5501W        W70486  10.641   9.108  13.947
 5502W        W70487  33.127  22.409  14.447
 5503W        W70488  27.836  39.381   2.355
 5504W        W70489  42.990  37.414   1.240
 5505W        W70490  38.589   6.751   1.303
 5506W        W70491  43.341  21.689  10.777
 5507W        W70492  34.572   4.528  10.666
 5508W        W70493  39.929  16.220   3.500
 5509W        W70494  21.272  26.003   0.703
 5510W        W70495  18.643  14.368  13.963
 5511W        W70496  13.749  27.724   2.838
 5512W        W70497  27.447  34.526  14.939
 5513W        W70498  13.068  39.282   3.695
 5514W        W70499  17.920   9.304   3.423
 5515W        W70500  34.003  32.038  11.177
 5516W        W70501  33.338  40.331   2.125
 5517W        W70502  16.609  35.584  11.240
 5518W        W70503  25.942  14.318   3.171
 5519W        W70504   8.678  11.306   2.350
 5520W        W70505  11.294  30.602   4.178
 5521W        W70506   4.783  19.127   0.326
 5522W        W70507  13.715  13.279   1.649
 5523W        W70508   5.830  33.443  13.394
 5524W        W70509  11.639   3.879   3.239
 5525W        W70510  15.260  41.066  10.608
 5526W        W70511  30.166   2.411   3.864
 5527W        W70512  12.856  22.725  11.753
 5528W        W70513   0.483   5.516   0.328
 5529W        W70514  25.588  29.382   5.347
 5530W        W70515   7.647   2.204  14.955
 5531W        W70516   3.220  32.657   1.698
 5532W        W70517  44.407  30.675   2.384
 5533W        W70518  30.086  16.821   0.865
 5534W        W70519  14.244   4.196  13.084
 5535W        W70520  44.940  30.201  11.137
 5536W        W70521  11.334  44.452  14.796
 5537W        W70522  33.486  23.476  14.966
 5538W        W70523  28.723   8.601   3.513
 5539W        W70524   3.206  16.183  14.541
 5540W        W70525  20.510  15.711   9.918
 5541W        W70526  19.370  17.118   3.970
 5542W        W70527  32.591  35.479  14.543
 5543W        W70528  36.918  18.511   4.677
 5544W        W70529  25.016  38.373  11.197
 5545W        W70530  15.134  36.107  14.779
 5546W        W70531  12.005  29.414  14.851
 5547W        W70532  24.695  33.129   3.271
 5548W        W70533   7.151  43.589  12.580
 5549W        W70534   6.223  24.098  13.355
 5550W        W70535  24.543   3.957  13.316
 5551W        W70536   7.438  30.251   0.231
 5552W        W70537  32.673  20.579   2.504
 5553W        W70538  41.039  41.581   2.939
 5554W        W70539  22.084  42.800  14.767
 5555W        W70540   5.453  35.457  10.682
 5556W        W70541  20.528  12.704  13.638
 5557W        W70542  13.260  43.423   4.326
 5558W        W70543  22.058   8.362  11.074
 5559W        W70544  19.282  37.016  14.009
 5560W        W70545   8.585  10.445   2.223
 5561W        W70546   3.599  27.997  11.105
 5562W        W70547  42.047   4.681   4.697
 5563W        W70548  39.771  13.767   0.229
 5564W        W70549  43.123  22.502  11.034
 5565W        W70550   2.180   1.299   1.802
 5566W        W70551  30.615  13.183  11.507
 5567W        W70552  27.411  36.420  11.630
 5568W        W70553  36.797   6.699   3.778
 5569W        W70554  26.184  34.508   4.141
 5570W        W70555  36.552  41.535  14.028
 5571W        W70556  25.018  42.106   3.006
 5572W        W70557   9.268   8.904   3.161
 5573W        W70558  23.409   5.077   4.521
 5574W        W70559   5.732  24.320   3.331
 5575W        W70560  30.803  16.760   1.138
 5576W        W70561  18.619  13.421   2.640
 5577W        W70562  21.604  27.204  11.960
 5578W        W70563  41.899  15.707  11.613
 5579W        W70564  19.808   2.625  12.634
 5580W        W70565   3.799   9.356  13.444
 5581W        W70566   5.136   3.823  14.524
 5582W        W70567  13.799  43.988   3.687
 5583W        W70568  17.166  39.540   2.762
 5584W        W70569  40.606  16.532  14.396
 5585W        W70570   1.240  27.023  10.556
 5586W        W70571  18.081  14.612   1.751
 5587W        W70572  11.789   4.992  13.638
 5588W        W70573  24.263   8.653  14.860
 5589W        W70574  12.422   5.656  14.006
 5590W        W70575  35.067  27.588   3.782
 5591W        W70576  13.354  11.767  12.580
 5592W        W70577  34.141  34.524  13.430
 5593W        W70578  17.646  39.846   1.587
 5594W        W70579   4.730  13.708   1.845
 5595W        W70580   6.803  18.407  13.499
 5596W        W70581  34.702  19.154   4.422
 5597W        W70582  38.292  31.076  14.579
 5598W        W70583  17.473   7.538   4.516
 5599W        W70584  22.687  22.134   0.242
 5600W        W70585  27.752  42.658  14.353
 5601W        W70586  25.323  24.352  13.949
 5602W        W70587  23.115   2.447   3.085
 5603W        W70588  10.076   5.751  14.740
 5604W        W70589  31.485  32.739   2.832
 5605W        W70590  20.721  36.152  14.458
 5606W        W70591  13.053  35.113   4.052
 5607W        W70592   4.616  15.292  11.545
 5608W        W70593  22.753  11.080  12.368
 5609W        W70594  35.153  44.510  14.792
 5610W        W70595  40.552   5.899   4.575
 5611W        W70596  36.286  13.397   0.777
 5612W        W70597  30.665  11.791   0.272
 5613W        W70598  41.042  43.150  13.198
 5614W        W70599   5.351  34.362  11.525
 5615W        W70600   1.262  16.429  10.622
 5616W        W70601  19.287  20.235   1.647
 5617W        W70602  44.012  23.641   1.143
 5618W        W70603   1.132  37.817  11.218
 5619W        W70604  37.078  26.053   3.900
 5620W        W70605  25.494  27.260   0.018
 5621W        W70606  24.260   9.589   4.154
 5622W        W70607   5.836  14.652  12.881
 5623W        W70608   7.682  13.948   2.727
 5624W        W70609  22.341  37.055   4.975
 5625W        W70610  25.554  40.503  12.164
 5626W        W70611  18.911  24.507   1.029
 5627W        W70612  40.467   8.532   5.010
 5628W        W70613   9.606  33.002  11.078
 5629W        W70614  43.506   4.527   2.365
 5630W        W70615  24.515  11.649   5.182
 5631W        W70616   2.341  42.476  14.675
 5632W        W70617  13.331  29.166  14.060
 5633W        W70618  23.644   5.603  11.389
 5634W        W70619  25.173  43.187   0.865
 5635W        W70620  22.468  25.820  11.907
 5636W        W70621  28.803   3.828  11.943
 5637W        W70622  30.387  42.468   1.806
 5638W        W70623  25.798   8.872   0.628
 5639W        W70624   1.970   4.858   4.512
 5640W        W70625   8.816  20.707   1.516
 5641W        W70626  11.598  12.102  12.857
 5642W        W70627  18.735  10.387  12.892
 5643W        W70628  35.428  41.099  13.542
 5644W        W70629  36.360   4.127  14.366
 5645W        W70630  25.141  28.926  14.777
 5646W        W70631  13.679  20.688  11.974
 5647W        W70632  17.181  39.470  12.541
 5648W        W70633  17.278  15.182   1.089
 5649W        W70634  20.782  16.570   4.287
 5650W        W70635  38.958   5.173   2.809
 5651W        W70636   8.874  13.595   1.239
 5652W        W70637   7.282  33.935   4.082
 5653W        W70638  16.229  30.616   1.930
 5654W        W70639  32.840  42.246   0.985
 5655W        W70640  35.528  24.320   4.948
 5656W        W70641  11.119  31.738   3.239
 5657W        W70642  20.037  40.744  10.781
 5658W        W70643  42.633  28.767   1.346
 5659W        W70644   2.475   3.903  12.495
 5660W        W70645   5.902  29.069   3.745
 5661W        W70646  11.988  26.666  11.997
 5662W        W70647  35.380  27.576  12.971
 5663W        W70648  18.332  24.569  12.201
 5664W        W70649   0.577  33.184  12.569
 5665W        W70650  36.462  34.348   3.769
 5666W        W70651   3.315  41.617   4.559
 5667W        W70652  10.917  31.963   2.040
 5668W        W70653   8.910  24.690  11.012
 5669W        W70654  25.465  16.033   0.453
 5670W        W70655  21.054  22.541   0.775
 5671W        W70656  23.096  16.998   3.925
 5672W        W70657  44.859  42.096   2.867
 5673W        W70658  27.421  39.019  13.253
 5674W        W70659  19.211   8.329   3.790
 5675W        W70660  43.442  28.387   1.817
 5676W        W70661  32.625  34.061   2.482
 5677W        W70662  44.796   4.351   4.506
 5678W        W70663   8.492  17.725   0.819
 5679W        W70664  35.008  10.861  13.495
 5680W        W70665  12.611  37.459  11.915
 5681W        W70666   0.992   6.779  10.928
 5682W        W70667  31.357   1.319   0.438
 5683W        W70668  32.243  41.828  14.419
 5684W        W70669   9.720  27.686   4.459
 5685W        W70670  20.699   5.657   0.920
 5686W        W70671   6.145  43.806  14.920
 5687W        W70672  34.697   7.734   2.516
 5688W        W70673  27.232  18.994  11.593
 5689W        W70674  32.088  32.460  14.064
 5690W        W70675  40.090  39.350  14.335
 5691W        W70676  25.372  34.546   4.520
 5692W        W70677   5.361   9.434   4.022
 5693W        W70678  11.044  29.239  11.222
 5694W        W70679  34.188  22.210  11.452
 5695W        W70680  19.299  15.782   2.210
 5696W        W70681  41.375  24.478  12.444
 5697W        W70682   9.777  11.394   1.259
 5698W        W70683  29.636  39.780  14.814
 5699W        W70684   3.870  22.257  13.813
 5700W        W70685   4.358  39.045   0.856
 5701W        W70686  27.206  25.161   0.405
 5702W        W70687  27.380  11.101  14.853
 5703W        W70688  13.307  27.316   0.808
 5704W        W70689  17.717  42.086  13.053
 5705W        W70690  27.665  37.563  14.495
 5706W        W70691  18.536  27.637   2.712
 5707W        W70692  37.522  29.965   1.303
 5708W        W70693  27.024  28.776  11.567
 5709W        W70694   0.189  39.616  13.464
 5710W        W70695  10.955  21.265   2.657
 5711W        W70696   0.808  30.184  13.519
 5712W        W70697  39.556   4.220  11.598
 5713W        W70698   4.802  29.010  14.053
 5714W        W70699  42.418   0.945  14.557
 5715W        W70700  11.136  15.563  13.849
 5716W        W70701  35.339  36.495   1.239
 5717W        W70702  21.556  42.159   0.353
 5718W        W70703  12.143  20.636  11.121
 5719W        W70704  13.888  21.703  14.374
 5720W        W70705  18.284  14.529  10.790
 5721W        W70706  27.853  33.207   1.755
 5722W        W70707   4.813  12.403  11.584
 5723W        W70708  33.421  22.497  13.157
 5724W        W70709  11.093  14.302  14.760
 5725W        W70710  20.675  30.298   3.904
 5726W        W70711  34.108  32.754   2.146
 5727W        W70712  34.855  23.173  12.261
 5728W        W70713   8.832  16.671   0.934
 5729W        W70714  20.512  16.536   0.949
 5730W        W70715  41.372   5.574  11.266
 5731W        W70716  31.991  35.922   0.820
 5732W        W70717  17.152  30.374  14.812
 5733W        W70718  41.711  13.308   4.083
 5734W        W70719  18.838  44.507  12.537
 5735W        W70720  30.554   3.982   3.632
 5736W        W70721  44.553  16.248   1.460
 5737W        W70722  20.486  23.283  12.559
 5738W        W70723  33.546  41.558   0.917
 5739W        W70724  36.513  19.104   0.278
 5740W        W70725  17.664  43.794  12.244
 5741W        W70726   8.515  16.230   0.066
 5742W        W70727  13.551  23.169  12.949
 5743W        W70728  33.550   2.398  13.103
 5744W        W70729  40.295  22.695   4.275
 5745W        W70730  17.641  42.466  11.476
 5746W        W70731  22.529  36.816  11.258
 5747W        W70732  13.585   1.771   3.338
 5748W        W70733  16.242  43.496   1.249
 5749W        W70734  31.723  27.105   2.267
 5750W        W70735  44.617   6.952   2.800
 5751W        W70736  30.516  24.164  13.348
 5752W        W70737  21.999  21.377   2.094
 5753W        W70738  25.146  14.018   4.158
 5754W        W70739   2.795  35.186  14.947
 5755W        W70740  37.973   9.928   2.961
 5756W        W70741  10.373   7.167   0.306
 5757W        W70742   6.727   0.815   0.891
 5758W        W70743  10.414  13.584  14.259
 5759W        W70744  44.806  25.641   2.685
 5760W        W70745  38.164  41.501   1.650
 5761W        W70746  22.240  39.057  14.403
 5762W        W70747   0.464  36.931  14.432
 5763W        W70748  27.944  39.685   0.394
 5764W        W70749   2.345  42.854   3.342
 5765W        W70750  27.522   0.002  14.511
 5766W        W70751  28.147  21.764  10.927
 5767W        W70752  28.753   6.273  14.403
 5768W        W70753   1.919  37.037  13.361
 5769W        W70754  30.011   5.972   0.803
 5770W        W70755  36.565   6.398  12.986
 5771W        W70756  30.742  25.027  12.492
 5772W        W70757  12.707  42.066   3.337
 5773W        W70758  15.799  18.033  13.066
 5774W        W70759   2.345   5.034   1.230
 5775W        W70760   8.666  11.628  11.715
 5776W        W70761  39.355   0.617  10.538
 5777W        W70762  27.660   6.363   0.660
 5778W        W70763  33.699  41.635  14.441
 5779W        W70764  14.169   5.252  13.749
 5780W        W70765  20.848   8.734   3.224
 5781W        W70766  27.945  17.298   9.933
 5782W        W70767  38.395  18.732  14.328
 5783W        W70768  22.168  14.619   2.988
 5784W        W70769  20.333  29.977   4.054
 5785W        W70770   4.620  40.031   3.785
 5786W        W70771  37.005  32.196  13.976
 5787W        W70772   9.342   9.730  11.794
 5788W        W70773   4.913  23.819   0.491
 5789W        W70774  34.051  11.179  13.824
 5790W        W70775  26.618   0.451  11.692
 5791W        W70776  18.047  22.614  13.387
 5792W        W70777  39.855  42.363   0.924
 5793W        W70778   4.968  24.950  14.171
 5794W        W70779   0.509   5.174  11.555
 5795W        W70780  31.169  20.151   0.988
 5796W        W70781  28.504  38.911  14.344
 5797W        W70782  24.977   5.404  13.292
 5798W        W70783  32.878   6.331   2.862
 5799W        W70784  23.534  32.260   2.292
 5800W        W70785  29.658   1.956   3.231
 5801W        W70786   3.517  32.059   0.252
 5802W        W70787   6.148  31.953   2.610
 5803W        W70788   4.024  10.782  14.535
 5804W        W70789  33.037   2.663   3.755
 5805W        W70790  15.037   5.652   2.615
 5806W        W70791  32.310  26.119   1.827
 5807W        W70792  13.854  23.016  13.345
 5808W        W70793  23.680  35.390   0.493
 5809W        W70794  26.330  17.195  12.271
 5810W        W70795   7.283   1.936  14.440
 5811W        W70796  16.827  20.281   1.363
 5812W        W70797  29.236  31.761   3.841
 5813W        W70798  16.047  42.527  14.545
 5814W        W70799  34.357  27.069  13.494
 5815W        W70800  23.473  12.078  11.527
 5816W        W70801   0.534  33.908   1.960
 5817W        W70802  40.307   3.435  10.685
 5818W        W70803  12.710  39.274  12.411
 5819W        W70804  35.975  15.906   0.197
 5820W        W70805  22.557  33.376   4.548
 5821W        W70806  23.389  27.234   3.152
 5822W        W70807  23.276  16.509  11.166
 5823W        W70808  32.581  32.635  11.913
 5824W        W70809  14.077  42.281  10.742
 5825W        W70810  40.833  29.949  14.900
 5826W        W70811  32.047  35.511   0.450
 5827W        W70812  40.751  13.169  12.935
 5828W        W70813  40.454  10.354   0.409
 5829W        W70814  10.928   4.958   4.577
 5830W        W70815  14.039  40.111  13.904
 5831W        W70816  38.090  32.561   1.747
 5832W        W70817  42.970  30.447  13.805
 5833W        W70818  11.159  36.040  13.141
 5834W        W70819  28.233  36.002  13.823
 5835W        W70820  41.020  19.979  13.212
 5836W        W70821  42.418  18.742  13.337
 5837W        W70822  21.660  26.089   1.429
 5838W        W70823  26.975  33.695  11.309
 5839W        W70824  13.809  20.520   3.571
 5840W        W70825  26.033  16.560   0.826
 5841W        W70826   7.179  27.687   0.264
 5842W        W70827  16.819   4.447   1.527
 5843W        W70828  33.350  44.524  11.434
 5844W        W70829  35.453  21.616  11.448
 5845W        W70830   8.722   6.307  13.471
 5846W        W70831   2.331  36.191  10.466
 5847W        W70832  32.128  35.015   0.198
 5848W        W70833  10.342  22.076  11.926
 5849W        W70834  14.904  23.992  13.927
 5850W        W70835   0.478   3.323  13.920
 5851W        W70836   2.401  18.882   2.428
 5852W        W70837  12.697  32.888  12.471
 5853W        W70838  12.795  34.561   0.810
 5854W        W70839   9.126  38.417  13.421
 5855W        W70840   0.738  44.165  13.379
 5856W        W70841   5.582  38.094   4.544
 5857W        W70842   7.767  23.084   0.940
 5858W        W70843   6.352  12.673   3.204
 5859W        W70844  27.137  44.978   0.907
 5860W        W70845  35.737  30.600   3.702
 5861W        W70846  23.054  41.794  12.487
 5862W        W70847  38.742  30.735   4.197
 5863W        W70848  38.551  12.659  13.008
 5864W        W70849  26.570   6.838  11.107
 5865W        W70850  19.535   4.330  12.081
 5866W        W70851  12.354  26.838   9.803
 5867W        W70852  38.896  29.084  13.349
 5868W        W70853  33.791  34.623   1.798
 5869W        W70854  24.572  26.458   1.835
 5870W        W70855  36.773  21.597  13.509
 5871W        W70856   9.718  14.053  14.956
 5872W        W70857  14.193  37.859   2.323
 5873W        W70858  43.750  44.270  13.751
 5874W        W70859   2.939  24.920  14.790
 5875W        W70860   9.268  43.333  10.723
 5876W        W70861   3.820  32.451   1.214
 5877W        W70862  19.499  30.644  14.445
 5878W        W70863  28.424  35.948  13.342
 5879W        W70864  43.951  22.993   5.441
 5880W        W70865  22.592  33.871  11.053
 5881W        W70866  39.906  33.176   4.176
 5882W        W70867  39.720  15.420  13.289
 5883W        W70868  13.270  38.689  12.822
 5884W        W70869  13.186  27.296  14.789
 5885W        W70870  31.731   3.796   0.201
 5886W        W70871  27.465  23.636  12.563
 5887W        W70872  12.360   4.413  13.048
 5888W        W70873  33.324   2.238   3.836
 5889W        W70874  20.207  35.445  14.148
 5890W        W70875  18.529  25.485  13.641
 5891W        W70876  33.182  37.264   1.008
 5892W        W70877  35.341  24.200   1.396
 5893W        W70878  20.507  13.816  11.592
 5894W        W70879  29.669  39.486   4.935
 5895W        W70880  12.745   3.694   4.682
 5896W        W70881  27.228  38.367   3.198
 5897W        W70882  27.463  10.601  13.053
 5898W        W70883  22.633  32.136   3.164
 5899W        W70884  35.195  31.649  11.644
 5900W        W70885  27.688   9.419  11.084
 5901W        W70886  14.982   4.716   4.104
 5902W        W70887  25.829  12.392  11.220
 5903W        W70888  24.559   8.755  10.972
 5904W        W70889   9.341  29.348  14.358
 5905W        W70890  26.902  29.520   3.101
 5906W        W70891  16.339  16.140   1.230
 5907W        W70892  34.602  22.624  14.831
 5908W        W70893  43.343  20.891   5.609
 5909W        W70894  13.164  31.581   0.722
 5910W        W70895  22.456   6.835   1.213
 5911W        W70896  22.203   6.766  14.104
 5912W        W70897   9.545  30.972  12.925
 5913W        W70898   1.749   9.286  10.545
 5914W        W70899  43.937  23.483  12.454
 5915W        W70900  19.335  23.127   2.822
 5916W        W70901   3.919  17.674   0.925
 5917W        W70902  36.761  44.330   3.338
 5918W        W70903  43.981  17.675  12.142
 5919W        W70904  43.425  41.365   0.372
 5920W        W70905  16.086  24.567   4.537
 5921W        W70906  19.144  44.574  10.246
 5922W        W70907   5.007  28.030  12.075
 5923W        W70908   5.391  12.689   2.424
 5924W        W70909  17.719  32.559  14.986
 5925W        W70910  10.300   6.605   1.362
 5926W        W70911   9.873  26.132  12.534
 5927W        W70912   8.455  14.605  13.154
 5928W        W70913  44.077  22.271   1.943
 5929W        W70914  17.070  22.501   3.642
 5930W        W70915   0.806  20.231  11.645
 5931W        W70916  31.132  10.277   3.598
 5932W        W70917  40.548   3.380  12.085
 5933W        W70918  35.012  15.574   2.380
 5934W        W70919  26.519  21.367  11.155
 5935W        W70920  27.700   8.885  12.421
 5936W        W70921   5.105   2.404   3.207
 5937W        W70922  33.637  20.446  10.789
 5938W        W70923  11.290  44.070   0.811
 5939W        W70924   8.330   2.480   1.425
 5940W        W70925  14.649  12.204   2.508
 5941W        W70926   1.936  29.015  13.305
 5942W        W70927  14.873  32.886  10.962
 5943W        W70928  39.788  40.011  14.719
 5944W        W70929   1.710   5.277   3.343
 5945W        W70930  29.992  21.677  12.399
 5946W        W70931  16.263  10.224   2.357
 5947W        W70932  31.045  11.412   4.865
 5948W        W70933   5.794  27.409   4.197
 5949W        W70934  21.152   4.883   2.783
 5950W        W70935  27.982  29.486   1.685
 5951W        W70936  35.921  30.535   0.813
 5952W        W70937  21.009  40.886  12.510
 5953W        W70938  11.747  16.628   1.398
 5954W        W70939   7.668   3.062   2.655
 5955W        W70940   8.830  35.472   1.129
 5956W        W70941  13.390   0.399   1.313
 5957W        W70942  44.827  28.485   1.680
 5958W        W70943   4.898  36.645   1.786
 5959W        W70944   0.756  16.308   2.433
 5960W        W70945  12.046   1.725   3.724
 5961W        W70946  14.216  23.762   2.756
 5962W        W70947  19.803  20.145   3.645
 5963W        W70948   9.973   3.001  11.846
 5964W        W70949  37.062  29.518  12.899
 5965W        W70950  18.721  31.067   1.895
 5966W        W70951  22.976  26.561   0.901
 5967W        W70952  40.604  23.605  10.711
 5968W        W70953   8.924  26.042  13.667
 5969W        W70954   1.723  44.000   3.365
 5970W        W70955   8.346  14.687  11.222
 5971W        W70956  15.355  15.683  14.417
 5972W        W70957   1.977  14.107  14.727
 5973W        W70958  44.242  23.900  11.117
 5974W        W70959  20.556   5.307  10.278
 5975W        W70960  27.911   6.260   1.581
 5976W        W70961  23.170  26.150   0.653
 5977W        W70962  41.426  22.058   4.160
 5978W        W70963  24.802  34.077  12.192
 5979W        W70964   0.246  11.797  14.835
 5980W        W70965  17.161   0.623   3.247
 5981W        W70966  23.134  37.876  13.380
 5982W        W70967  22.594  41.609  14.984
 5983W        W70968  10.029  39.385  12.208
 5984W        W70969   8.851   7.290   3.654
 5985W        W70970  33.558  27.371  13.364
 5986W        W70971  41.812  38.020   1.666
 5987W        W70972   4.641  19.223   2.311
 5988W        W70973  38.143  44.622   3.224
 5989W        W70974  31.842  20.457   4.929
 5990W        W70975  18.969  18.472   1.418
 5991W        W70976  26.680  24.301  12.603
 5992W        W70977  38.985  19.849   0.784
 5993W        W70978   3.053  17.787  13.686
 5994W        W70979  36.726   2.343  12.845
 5995W        W70980  16.060  10.231   0.443
 5996W        W70981  14.769  35.492   4.310
 5997W        W70982  29.298  43.204  10.921
 5998W        W70983  26.632  28.161   3.739
 5999W        W70984  10.830  38.342  11.998
 6000W        W70985   8.566  44.969  11.113
 6001W        W70986  37.900   6.635  10.201
 6002W        W70987  19.239  16.266  13.613
 6003W        W70988   2.551  34.960   0.407
 6004W        W70989  19.210   3.637  13.104
 6005W        W70990   6.466  32.733  10.410
 6006W        W70991  15.604  14.299   2.226
 6007W        W70992  14.601  30.950  13.091
 6008W        W70993  20.570  13.851   0.414
 6009W        W70994   1.684  37.832  13.070
 6010W        W70995   2.852   1.887   4.606
 6011W        W70996  31.928   2.517   0.011
 6012W        W70997  25.045   1.306   4.204
 6013W        W70998  41.287  35.349   4.028
 6014W        W70999  43.446   5.482  12.905
 6015W        W71000  12.300  31.463   4.040
 6016W        W71001   0.236  10.886  14.831
 6017W        W71002   7.838  34.822   4.184
 6018W        W71003  15.724  38.295   3.703
 6019W        W71004   5.371   4.439   4.051
 6020W        W71005   7.034  12.701  11.959
 6021W        W71006  11.865  26.189   2.779
 6022W        W71007  18.935   8.751   2.728
 6023W        W71008  43.949  29.402   0.552
 6024W        W71009   8.785   7.111   3.169
 6025W        W71010  13.752  10.684   4.332
 6026W        W71011  37.394  41.394   4.621
 6027W        W71012  10.237  18.133  12.995
 6028W        W71013  19.875  10.696   3.070
 6029W        W71014  32.939   5.982  13.526
 6030W        W71015  31.459  36.399   1.430
 6031W        W71016  32.028  40.120   9.861
 6032W        W71017   1.937  30.084   4.217
 6033W        W71018  29.935  31.236   0.210
 6034W        W71019   1.624   3.948  12.048
 6035W        W71020  16.200  39.914   1.610
 6036W        W71021   6.244  44.292   4.620
 6037W        W71022  32.442  34.009  12.827
 6038W        W71023  26.749   9.631  14.291
 6039W        W71024  17.973   9.312  14.731
 6040W        W71025  26.726  14.255   4.872
 6041W        W71026   8.014  13.353  14.439
 6042W        W71027  37.240   0.047  13.021
 6043W        W71028  33.825  32.027   4.560
 6044W        W71029   9.957  33.105   4.378
 6045W        W71030  17.062  33.958  12.626
 6046W        W71031  39.524  41.300   2.613
 6047W        W71032  11.748  31.838  10.244
 6048W        W71033   3.944  39.320  13.388
 6049W        W71034  35.530  11.819  10.736
 6050W        W71035   8.078  42.974  14.471
 6051W        W71036  23.110  30.067   0.690
 6052W        W71037  28.208  29.173   3.723
 6053W        W71038  28.138  17.218  12.468
 6054W        W71039  42.901  38.532  13.504
 6055W        W71040  41.979  37.416  12.121
 6056W        W71041  14.264  25.184   2.702
 6057W        W71042  35.321  17.286  11.572
 6058W        W71043  22.641  40.014   3.392
 6059W        W71044  22.914  32.391   1.903
 6060W        W71045  19.578  26.180   2.178
 6061W        W71046  11.777  13.081   3.606
 6062W        W71047  23.385  30.542  10.212
 6063W        W71048  26.602   2.478   2.172
 6064W        W71049  10.983   4.256   1.327
 6065W        W71050  16.758  12.861  11.935
 6066W        W71051  38.608  33.916  13.300
 6067W        W71052  13.818  18.999  11.147
 6068W        W71053   7.086  32.640  14.945
 6069W        W71054  32.714  25.357  12.582
 6070W        W71055  37.736  39.750   1.167
 6071W        W71056  13.662  18.502  14.262
 6072W        W71057  13.621  15.795  10.637
 6073W        W71058   5.184   2.736  12.005
 6074W        W71059  28.369  22.731  13.590
 6075W        W71060  43.164  26.016   2.553
 6076W        W71061  36.225  27.054  13.088
 6077W        W71062   4.605  11.804  12.933
 6078W        W71063  27.664  30.775   2.127
 6079W        W71064  40.438  11.321   2.742
 6080W        W71065  36.279  23.505   2.963
 6081W        W71066  13.257  44.449  10.225
 6082W        W71067  29.078  24.792   3.031
 6083W        W71068  15.076   3.671  12.381
 6084W        W71069  22.786  11.603  10.444
 6085W        W71070  20.176   3.069   2.558
 6086W        W71071  39.076  16.592   0.279
 6087W        W71072   2.677  31.194  11.110
 6088W        W71073  34.531  44.175   0.286
 6089W        W71074  28.164  14.296  11.999
 6090W        W71075  26.744   3.488   3.244
 6091W        W71076  21.178  42.289   3.714
 6092W        W71077  26.162   1.904  13.075
 6093W        W71078  42.777  24.805   4.420
 6094W        W71079  23.661  22.053  12.826
 6095W        W71080  27.043  27.864  11.933
 6096W        W71081  31.495  17.221   4.365
 6097W        W71082  30.211  32.303  10.292
 6098W        W71083  32.791  25.285  14.825
 6099W        W71084  14.308  33.551  13.894
 6100W        W71085   8.356  34.369   2.262
 6101W        W71086  21.543  33.151  10.945
 6102W        W71087  25.985  17.653   3.340
 6103W        W71088  25.676  40.523   4.355
 6104W        W71089  32.059  28.086   0.885
 6105W        W71090  14.523  42.064   2.734
 6106W        W71091  31.999  28.029  13.796
 6107W        W71092  28.587  38.765  12.067
 6108W        W71093  33.701  42.164  14.394
 6109W        W71094  30.038   9.183  14.886
 6110W        W71095  41.271  26.618  13.734
 6111W        W71096  28.454  41.451  14.898
 6112W        W71097  12.134   5.561  14.434
 6113W        W71098  28.518  13.817   3.707
 6114W        W71099  19.157  10.070  13.736
 6115W        W71100  34.066  40.906  11.281
 6116W        W71101  37.848  14.673   4.522
 6117W        W71102   8.328  14.100   0.065
 6118W        W71103  36.046  20.014  11.632
 6119W        W71104  24.009  25.639   1.738
 6120W        W71105  31.528   4.921   2.334
 6121W        W71106  11.172  26.707  10.844
 6122W        W71107   2.714   5.340   3.158
 6123W        W71108  18.166  43.345  13.111
 6124W        W71109  19.559  28.164   4.333
 6125W        W71110  43.849  24.989   2.389
 6126W        W71111  16.803  28.324   9.993
 6127W        W71112  12.682  31.697  13.665
 6128W        W71113  14.335   3.467   2.590
 6129W        W71114  22.397   3.685  13.779
 6130W        W71115  30.184   3.712   3.897
 6131W        W71116  29.496   5.024  13.038
 6132W        W71117  43.865  21.637  10.484
 6133W        W71118  40.083   8.472  11.859
 6134W        W71119  35.008   0.970   2.345
 6135W        W71120   8.113  37.571  14.570
 6136W        W71121  40.515  11.759  11.176
 6137W        W71122  16.758  37.639   0.795
 6138W        W71123  20.630  13.681   3.098
 6139W        W71124  11.355   1.426   1.302
 6140W        W71125  18.125  16.595   2.780
 6141W        W71126  20.065  19.333   3.595
 6142W        W71127  13.326   6.092  14.453
 6143W        W71128  37.439  13.898  13.922
 6144W        W71129  18.174  24.693  13.827
 6145W        W71130  21.623  27.227   4.013
 6146W        W71131   2.766   7.630  12.125
 6147W        W71132  13.921  43.870  13.180
 6148W        W71133  26.277  34.768  12.459
 6149W        W71134  36.288   8.288   0.023
 6150W        W71135  34.864  38.162  14.239
 6151W        W71136   5.180  11.717   0.379
 6152W        W71137  25.580  43.602  14.522
 6153W        W71138  21.058  31.873  12.964
 6154W        W71139  43.760   5.608   0.828
 6155W        W71140  38.877  12.202  12.445
 6156W        W71141  14.156   3.821  10.465
 6157W        W71142  17.937   8.287   3.026
 6158W        W71143   7.839  29.418  12.726
 6159W        W71144  12.835   5.865  11.254
 6160W        W71145  44.526   8.654   1.236
 6161W        W71146  29.908  34.571   1.755
 6162W        W71147   2.448  15.849  13.104
 6163W        W71148  21.859  14.467   3.768
 6164W        W71149  41.361  34.701  10.336
 6165W        W71150   0.379  34.971   1.326
 6166W        W71151  11.080   6.982   5.546
 6167W        W71152   8.896  13.789   2.898
 6168W        W71153  33.050  13.632  14.253
 6169W        W71154  38.514  22.487   3.216
 6170W        W71155  44.056   9.883  12.141
 6171W        W71156  29.549  23.199   2.356
 6172W        W71157  39.843  33.169   2.380
 6173W        W71158   0.462   2.033   4.146
 6174W        W71159  36.686  22.802   2.309
 6175W        W71160  34.118  44.409  11.995
 6176W        W71161  19.510  40.919   1.195
 6177W        W71162   5.240  38.903  11.046
 6178W        W71163   6.530  19.779   9.831
 6179W        W71164   2.088  29.371  12.161
 6180W        W71165  37.584  26.725   3.367
 6181W        W71166  29.890   3.870   0.036
 6182W        W71167  15.725  34.397   0.467
 6183W        W71168   6.528  30.072  14.794
 6184W        W71169   5.346  35.187  13.984
 6185W        W71170   8.246  32.409  14.960
 6186W        W71171  25.049  32.520   2.685
 6187W        W71172  41.499  25.390   3.121
 6188W        W71173   2.404   1.990  12.052
 6189W        W71174  20.735  30.550  13.514
 6190W        W71175  38.199  33.585   0.860
 6191W        W71176  36.814  14.452   2.617
 6192W        W71177   6.694  28.017   0.025
 6193W        W71178  32.982  14.160  14.270
 6194W        W71179  41.868   2.700   3.748
 6195W        W71180  18.092  26.835   4.468
 6196W        W71181   6.753  25.051   4.275
 6197W        W71182  31.464  21.681   3.762
 6198W        W71183  41.689  34.285  10.297
 6199W        W71184  37.481  42.769  12.485
 6200W        W71185  16.978   6.242   1.538
 6201W        W71186  30.381  37.553  11.209
 6202W        W71187  17.775  44.804   0.775
 6203W        W71188  18.061  31.485  14.745
 6204W        W71189  44.694  20.110   0.310
 6205W        W71190  26.162  43.613  12.068
 6206W        W71191  42.432  28.535   2.796
 6207W        W71192   2.300   8.345  14.517
 6208W        W71193   4.608  23.442   4.461
 6209W        W71194   5.497  18.589   4.232
 6210W        W71195  17.326  20.192   1.276
 6211W        W71196  13.716  16.868  11.854
 6212W        W71197   4.393   7.247  10.964
 6213W        W71198  13.615  23.972   1.812
 6214W        W71199   5.667   2.346   4.057
 6215W        W71200  43.967  12.151   4.534
 6216W        W71201  17.943  35.385  13.145
 6217W        W71202   5.227   2.734   4.651
 6218W        W71203  33.381  24.601  12.386
 6219W        W71204  31.905  39.670  14.438
 6220W        W71205   8.938  12.810  12.494
 6221W        W71206  35.296  32.544  11.360
 6222W        W71207  11.345  39.750   0.359
 6223W        W71208  21.611  25.733  11.914
 6224W        W71209  18.316  11.382  12.910
 6225W        W71210  21.084  18.048   0.741
 6226W        W71211  29.972  44.280  12.125
 6227W        W71212  31.000  16.402   1.928
 6228W        W71213  26.845   8.946  13.905
 6229W        W71214   4.292  24.680   2.946
 6230W        W71215  14.133  26.969  10.162
 6231W        W71216   3.823  42.654  11.426
 6232W        W71217  10.414  40.495   2.548
 6233W        W71218  44.521  41.780  11.998
 6234W        W71219  23.959   9.614  14.176
 6235W        W71220  10.842  41.226  12.584
 6236W        W71221  30.993  38.525   3.537
 6237W        W71222  44.054  14.131   3.688
 6238W        W71223  28.142  41.932  13.870
 6239W        W71224  41.262  21.732   1.860
 6240W        W71225   5.690  11.170   3.262
 6241W        W71226  20.719  12.292  10.648
 6242W        W71227   1.192  10.846  13.788
 6243W        W71228   5.479  34.903  13.571
 6244W        W71229  21.072  31.614  10.178
 6245W        W71230  17.464  16.312   4.212
 6246W        W71231  37.875   0.918   2.967
 6247W        W71232  41.707  19.268   4.536
 6248W        W71233  42.635   7.856  11.574
 6249W        W71234  24.515  11.275   0.810
 6250W        W71235  26.230  27.064  13.498
 6251W        W71236  15.640  31.858  10.976
 6252W        W71237  31.354  36.081   0.223
 6253W        W71238  44.596  23.365  10.326
 6254W        W71239  33.748  22.835   2.620
 6255W        W71240  18.437  11.640   5.181
 6256W        W71241  28.577  17.262  10.734
 6257W        W71242  24.475  12.635  12.167
 6258W        W71243  14.075  17.739  14.436
 6259W        W71244  40.779  28.924   3.796
 6260W        W71245  40.625  15.501  13.105
 6261W        W71246  30.438  11.375   3.291
 6262W        W71247  35.702  16.701   0.012
 6263W        W71248   3.132  41.728   3.197
 6264W        W71249  34.417  32.102  13.352
 6265W        W71250  26.043   7.944  14.488
 6266W        W71251  33.700   7.693  12.483
 6267W        W71252  27.135   6.881  13.851
 6268W        W71253  30.544  33.482   4.272
 6269W        W71254  35.963  23.746  11.178
 6270W        W71255  37.582   3.762   0.496
 6271W        W71256  21.768  11.278   2.796
 6272W        W71257  14.475  33.911  11.665
 6273W        W71258  29.892  19.694  13.061
 6274W        W71259   1.635  40.508  13.444
 6275W        W71260  32.118  20.058   3.630
 6276W        W71261  31.689  38.783  12.347
 6277W        W71262  39.313  42.489   0.793
 6278W        W71263   2.137  43.897   0.454
 6279W        W71264  11.278  13.302  14.872
 6280W        W71265  19.661   0.434  10.795
 6281W        W71266  19.542  26.631   2.431
 6282W        W71267  16.315  18.148  14.927
 6283W        W71268  39.592  13.518   3.280
 6284W        W71269  42.539  25.385  11.620
 6285W        W71270  42.905  11.559   0.209
 6286W        W71271  27.732  29.355   0.251
 6287W        W71272  12.140  18.254   3.202
 6288W        W71273  21.006  14.608  12.438
 6289W        W71274  10.169   4.906   3.737
 6290W        W71275  18.382   4.842   1.724
 6291W        W71276  31.914  38.718   4.539
 6292W        W71277  14.544  38.435  14.770
 6293W        W71278   4.689  27.660  11.843
 6294W        W71279  39.886  39.278  12.053
 6295W        W71280  26.426  11.357  13.334
 6296W        W71281  18.546   6.625  10.843
 6297W        W71282  36.340  31.024  14.561
 6298W        W71283  37.816   7.861   9.855
 6299W        W71284  33.306  22.192  11.060
 6300W        W71285  26.401  15.713  11.056
 6301W        W71286   6.645  34.575   4.749
 6302W        W71287  12.428  36.010  11.085
 6303W        W71288  21.574  20.201   3.238
 6304W        W71289  35.168   7.977   0.407
 6305W        W71290   7.178  34.586  12.990
 6306W        W71291   4.075  16.904  12.935
 6307W        W71292  33.415  35.064   0.276
 6308W        W71293  14.366  39.547   1.397
 6309W        W71294  35.371  20.420   2.211
 6310W        W71295   0.485  37.962   4.544
 6311W        W71296  26.657  29.345  12.421
 6312W        W71297  15.237  22.685  14.955
 6313W        W71298  42.676  14.261   4.551
 6314W        W71299   8.035  40.605   3.770
 6315W        W71300   7.187  27.082  14.944
 6316W        W71301  12.799   9.051   4.110
 6317W        W71302  31.583  20.266   0.306
 6318W        W71303   0.516  40.866   4.546
 6319W        W71304   6.830   8.568  14.984
 6320W        W71305  29.540  26.390  12.837
 6321W        W71306  29.384  37.997   4.581
 6322W        W71307  33.412   8.664   3.051
 6323W        W71308   5.705  42.830  14.046
 6324W        W71309  17.017   0.816   0.199
 6325W        W71310  20.544  23.245  14.212
 6326W        W71311  13.101  39.841   3.603
 6327W        W71312  27.715  42.880  11.578
 6328W        W71313  16.726   3.081   3.669
 6329W        W71314  44.328  17.985   3.674
 6330W        W71315  34.341  31.917   2.151
 6331W        W71316  36.902   6.736   1.950
 6332W        W71317   9.957  18.586   3.644
 6333W        W71318  31.979   7.665  11.609
 6334W        W71319  11.092  26.076  13.330
 6335W        W71320  12.656  10.645   2.757
 6336W        W71321  27.333  23.542   4.528
 6337W        W71322   5.327  26.551   4.137
 6338W        W71323   1.926  21.570  13.293
 6339W        W71324   5.853  27.261   1.257
 6340W        W71325  18.149   9.177  14.252
 6341W        W71326  35.388  34.102  11.268
 6342W        W71327  36.481  38.817  11.593
 6343W        W71328  25.615  33.004  11.201
 6344W        W71329  40.881   2.248   2.085
 6345W        W71330  12.346   8.315   3.420
 6346W        W71331  38.027  41.022   4.253
 6347W        W71332  41.125  38.411   2.305
 6348W        W71333  44.741  22.321   4.486
 6349W        W71334  38.067  28.122  12.121
 6350W        W71335   3.311  11.794   2.386
 6351W        W71336   8.989  36.495   2.610
 6352W        W71337  14.687   0.708  14.667
 6353W        W71338  14.152   8.559   0.742
 6354W        W71339  42.747  13.840  10.627
 6355W        W71340   0.424  44.446   3.243
 6356W        W71341  30.579  12.680  11.884
 6357W        W71342  42.956  30.792  12.241
 6358W        W71343  24.570  19.010  13.833
 6359W        W71344   2.444  34.471   3.789
 6360W        W71345  32.926  17.193   3.425
 6361W        W71346  35.506   9.413  10.689
 6362W        W71347  15.651  20.131  12.998
 6363W        W71348  25.554  16.158   3.289
 6364W        W71349   0.793  39.579  11.075
 6365W        W71350  20.766  20.670   5.114
 6366W        W71351  43.044  35.180   2.801
 6367W        W71352  10.198  18.491  12.577
 6368W        W71353   7.874  27.404   2.707
 6369W        W71354  20.984  12.237   4.623
 6370W        W71355  26.476   1.978   0.246
 6371W        W71356  34.669   5.072  10.252
 6372W        W71357  34.182   7.731   2.835
 6373W        W71358   9.594  41.713  14.915
 6374W        W71359   1.189   6.275  13.078
 6375W        W71360  12.874  33.439  12.097
 6376W        W71361  31.100  13.105  12.671
 6377W        W71362   7.189  12.180   4.153
 6378W        W71363  27.492  34.778   0.389
 6379W        W71364   9.403  32.187   4.552
 6380W        W71365  19.694  40.542   3.300
 6381W        W71366  43.024  20.409   2.972
 6382W        W71367   3.288  14.381   0.639
 6383W        W71368  23.171  31.596  14.530
 6384W        W71369   6.271  28.517  13.895
 6385W        W71370  11.719  43.369  11.268
 6386W        W71371  21.323   8.160  13.109
 6387W        W71372   4.912  27.022   1.112
 6388W        W71373  19.625   3.263   0.237
 6389W        W71374  39.757   6.720   0.319
 6390W        W71375   6.026  25.494  11.541
 6391W        W71376   7.784  40.259   1.294
 6392W        W71377  41.148  25.980  14.900
 6393W        W71378  17.747   0.064  10.688
 6394W        W71379  21.195  19.123   1.255
 6395W        W71380  11.131  26.022   4.192
 6396W        W71381   9.932  38.986   4.670
 6397W        W71382  39.330  14.382  12.617
 6398W        W71383  19.599  32.530  12.954
 6399W        W71384  31.426  25.969   3.167
 6400W        W71385  27.247  17.576  12.577
 6401W        W71386  13.711  13.034   3.314
 6402W        W71387  34.327  12.012   4.131
 6403W        W71388  13.040   0.419   0.913
 6404W        W71389  44.610  20.000   4.700
 6405W        W71390  16.100  40.980  10.981
 6406W        W71391  43.844   4.183   0.384
 6407W        W71392  18.108   3.610   1.238
 6408W        W71393  38.519  27.591  13.062
 6409W        W71394  33.903  14.209  14.518
 6410W        W71395  28.843  19.690   3.679
 6411W        W71396   9.341  38.696   0.113
 6412W        W71397   9.248  15.898   2.223
 6413W        W71398   5.259  29.972   1.891
 6414W        W71399   0.443  14.299   3.375
 6415W        W71400  44.970  32.190   2.073
 6416W        W71401  11.332  20.742  10.831
 6417W        W71402  32.101  19.794   4.290
 6418W        W71403  11.674  28.741  11.616
 6419W        W71404  18.995   8.226   0.916
 6420W        W71405  40.290  31.079  13.001
 6421W        W71406  23.276   2.483   2.199
 6422W        W71407  37.507   4.801  11.159
 6423W        W71408  10.583  21.612   0.816
 6424W        W71409  25.619  34.325  14.972
 6425W        W71410  32.213  15.773  12.813
 6426W        W71411  41.030  27.162   2.259
 6427W        W71412  15.655  23.163   2.772
 6428W        W71413  35.025  34.172   3.206
 6429W        W71414  35.736   7.953   0.232
 6430W        W71415  19.827   3.977   2.906
 6431W        W71416  38.274  13.163   3.341
 6432W        W71417  21.276  15.527  13.967
 6433W        W71418  24.902   4.759   2.146
 6434W        W71419   7.165  25.725   2.097
 6435W        W71420   4.465  25.634   0.757
 6436W        W71421   0.378   6.362  11.055
 6437W        W71422   3.137   3.261   0.462
 6438W        W71423  21.179   9.736  14.216
 6439W        W71424   3.654  20.158   3.348
 6440W        W71425  16.521  28.305  11.279
 6441W        W71426  35.987  11.684   0.781
 6442W        W71427  15.282  35.521   2.836
 6443W        W71428   8.654  10.650  13.328
 6444W        W71429  11.917   7.565  14.485
 6445W        W71430  29.480   4.950  14.188
 6446W        W71431  22.701  41.024   1.336
 6447W        W71432  29.615  31.335  11.069
 6448W        W71433  12.390  12.632  10.700
 6449W        W71434  38.925  12.222  13.994
 6450W        W71435  30.344   5.856   2.529
 6451W        W71436  32.509  42.283  14.531
 6452W        W71437   8.746  39.709  11.725
 6453W        W71438  27.798   3.423   3.254
 6454W        W71439  10.487  13.376   2.287
 6455W        W71440   9.938  10.449  10.181
 6456W        W71441  23.657  13.655   3.761
 6457W        W71442  35.548  34.763  12.043
 6458W        W71443  39.562   9.764  14.911
 6459W        W71444  39.342   8.591  12.520
 6460W        W71445  23.801  26.138   3.730
 6461W        W71446  15.320  37.961  14.769
 6462W        W71447   0.365   5.491   1.174
 6463W        W71448   6.329  18.242  13.363
 6464W        W71449  30.691  42.958  14.862
 6465W        W71450  39.567  14.142  14.354
 6466W        W71451  28.173  41.427  13.983
 6467W        W71452  39.002  39.319   2.788
 6468W        W71453  15.593  10.350   0.238
 6469W        W71454   4.699  37.792   3.283
 6470W        W71455  37.960  42.962  13.936
 6471W        W71456  25.663  33.090   2.875
 6472W        W71457  29.495  31.260  14.907
 6473W        W71458   5.679  30.207  12.427
 6474W        W71459  39.792  24.648  12.374
 6475W        W71460   1.224  16.068  14.070
 6476W        W71461  39.933  44.290  12.619
 6477W        W71462  40.608   4.204   0.584
 6478W        W71463  26.965  44.951   4.566
 6479W        W71464  26.384  27.475  11.575
 6480W        W71465  38.016  42.097   3.800
 6481W        W71466  11.881   0.485   0.386
 6482W        W71467  14.134  24.914   4.014
 6483W        W71468  44.749  28.920  12.061
 6484W        W71469   6.097  21.069  12.529
 6485W        W71470  15.323  18.326  12.921
 6486W        W71471  36.879  39.909  12.860
 6487W        W71472  41.457  34.461   9.863
 6488W        W71473  18.160   7.362  11.065
 6489W        W71474   5.922   8.182   3.079
 6490W        W71475  41.875  15.604   0.532
 6491W        W71476   9.693   1.751  12.480
 6492W        W71477   3.353  27.194  14.524
 6493W        W71478  28.387  18.176  10.293
 6494W        W71479  23.294  38.764   4.189
 6495W        W71480  31.350  43.719  12.926
 6496W        W71481  10.559  42.442  12.860
 6497W        W71482  31.209  35.625  13.762
 6498W        W71483   4.209  26.470  13.529
 6499W        W71484  26.228  12.807   0.722
 6500W        W71485  37.065  30.259   1.283
 6501W        W71486   2.649  38.609  14.015
 6502W        W71487  18.316   1.324  14.252
 6503W        W71488  13.684  39.576   4.282
 6504W        W71489   5.673  29.191  14.539
 6505W        W71490  33.967  11.103  10.364
 6506W        W71491   7.997  11.378   4.156
 6507W        W71492  16.300   8.207  12.947
 6508W        W71493  43.293  32.925   1.385
 6509W        W71494   6.371  20.043   4.069
 6510W        W71495  11.012  19.208  12.608
 6511W        W71496   7.533  15.286  14.596
 6512W        W71497  26.038  14.139   1.243
 6513W        W71498  20.494  27.741   3.931
 6514W        W71499  33.076  27.220   4.073
 6515W        W71500  31.869  34.710  14.805
 6516W        W71501  11.042  10.227   4.172
 6517W        W71502  23.517  30.571  12.918
 6518W        W71503  41.532  26.753  13.322
 6519W        W71504   6.278   2.200   4.826
 6520W        W71505   9.406  33.472   3.219
 6521W        W71506  41.774  27.202  13.277
 6522W        W71507   2.325  42.076   0.514
 6523W        W71508  31.744  36.238  11.208
 6524W        W71509  41.841  16.775  13.117
 6525W        W71510  29.444  42.365   2.320
 6526W        W71511  11.222   2.309   2.409
 6527W        W71512  13.104   2.443  14.347
 6528W        W71513  16.968  38.142   3.908
 6529W        W71514  23.684  23.660   1.332
 6530W        W71515   8.219  43.365   0.360
 6531W        W71516  30.661  39.933   1.372
 6532W        W71517  42.035  19.659   2.780
 6533W        W71518  42.770  23.696  10.559
 6534W        W71519  37.964  30.229   1.280
 6535W        W71520  24.366  20.611  14.803
 6536W        W71521  22.156   2.607   2.167
 6537W        W71522  29.734   4.584  13.923
 6538W        W71523  15.839   0.042  12.556
 6539W        W71524  24.095   5.813  11.293
 6540W        W71525  30.923  34.349   1.974
 6541W        W71526  36.370   7.739   5.006
 6542W        W71527  17.308  31.655   0.340
 6543W        W71528  35.189  19.023   4.395
 6544W        W71529  30.439  42.060  10.779
 6545W        W71530  41.099  34.062   1.279
 6546W        W71531  35.811  38.199  10.746
 6547W        W71532  27.145  21.225  14.850
 6548W        W71533   6.417  17.305  11.654
 6549W        W71534  25.006  32.118   5.083
 6550W        W71535  14.025  28.508  10.990
 6551W        W71536  42.943  10.369  11.503
 6552W        W71537  25.171  40.728   0.870
 6553W        W71538  40.493  12.950   4.286
 6554W        W71539  17.192  15.567   4.141
 6555W        W71540  25.748   3.174   4.699
 6556W        W71541  33.499  17.492  11.197
 6557W        W71542  23.778  36.632   3.304
 6558W        W71543  36.276  20.249  13.817
 6559W        W71544  36.597   5.367   0.594
 6560W        W71545  42.728  17.301  12.457
 6561W        W71546   0.383  43.292   4.584
 6562W        W71547   9.897  12.165   4.154
 6563W        W71548  37.603  41.179  14.796
 6564W        W71549  24.897  17.008  12.384
 6565W        W71550  43.613  20.873   4.538
 6566W        W71551  12.730  41.842  10.700
 6567W        W71552  33.991  15.510  13.237
 6568W        W71553   4.156  38.008  12.756
 6569W        W71554  30.541   9.204   0.803
 6570W        W71555  17.330  44.126  11.471
 6571W        W71556  19.227  35.277   3.217
 6572W        W71557  12.625  20.609  12.403
 6573W        W71558  40.328   7.442  11.975
 6574W        W71559  22.478  22.606  13.282
 6575W        W71560  26.327   0.495  12.103
 6576W        W71561  43.928   7.719   4.182
 6577W        W71562   7.959  37.623  12.562
 6578W        W71563  17.182   6.731   5.620
 6579W        W71564  22.459  17.560   3.635
 6580W        W71565  38.881  40.320   1.425
 6581W        W71566  23.275   3.405  14.182
 6582W        W71567   0.873  44.758   0.019
 6583W        W71568   2.525   6.302   2.788
 6584W        W71569  15.784  18.074  11.746
 6585W        W71570  37.255   7.120   0.938
 6586W        W71571  44.268  40.317   1.893
 6587W        W71572  19.272  15.788  10.432
 6588W        W71573  35.818  33.573   3.596
 6589W        W71574  21.747   7.595   1.297
 6590W        W71575  26.192  27.882   0.047
 6591W        W71576  24.844  17.141  13.322
 6592W        W71577  39.069  10.279  11.640
 6593W        W71578   6.165  21.807  10.419
 6594W        W71579   5.888  19.666   3.194
 6595W        W71580  13.899   2.214  13.026
 6596W        W71581  38.885  39.293  13.690
 6597W        W71582  18.637   4.164   1.300
 6598W        W71583  43.799  32.274   2.762
 6599W        W71584   5.075   5.189   3.752
 6600W        W71585   4.139  23.411   3.100
 6601W        W71586  30.404  43.776  12.994
 6602W        W71587  43.624   5.355  13.946
 6603W        W71588  25.272  14.084  12.595
 6604W        W71589   2.728   1.311   0.005
 6605W        W71590  34.312  42.672  14.021
 6606W        W71591  25.899  29.475   0.233
 6607W        W71592  28.982  11.132   4.622
 6608W        W71593  39.372   1.982   3.325
 6609W        W71594   4.931  17.779  12.305
 6610W        W71595  10.353  41.011   1.949
 6611W        W71596  34.929  41.871   1.637
 6612W        W71597  30.289  22.667   1.734
 6613W        W71598   7.716  27.239  10.414
 6614W        W71599   9.654  37.467  14.428
 6615W        W71600  21.710   9.124  11.117
 6616W        W71601  26.858  18.248  10.389
 6617W        W71602  29.177   7.408  11.990
 6618W        W71603   0.323  31.566  13.189
 6619W        W71604  29.130  41.493   4.217
 6620W        W71605  43.333   9.001  11.613
 6621W        W71606   0.517  28.242   0.264
 6622W        W71607  27.066  13.703   3.334
 6623W        W71608   8.839  39.119   2.000
 6624W        W71609  21.096   9.186  13.093
 6625W        W71610  44.290  38.352  10.568
 6626W        W71611  41.405   0.283   1.414
 6627W        W71612  22.661  28.724  12.088
 6628W        W71613  37.616  29.636  13.799
 6629W        W71614  18.333  16.592  10.614
 6630W        W71615  27.579   0.379   3.509
 6631W        W71616  34.448  10.110  14.750
 6632W        W71617  25.716  43.299  12.285
 6633W        W71618  39.179  23.981  13.812
 6634W        W71619  25.592  27.351   3.672
 6635W        W71620  38.333  30.214   0.933
 6636W        W71621  39.948   1.149  11.905
 6637W        W71622  21.014  24.480   0.723
 6638W        W71623  42.250   3.493   3.268
 6639W        W71624  41.006  38.043  13.441
 6640W        W71625  31.743   5.952   2.332
 6641W        W71626  17.481   8.655  13.290
 6642W        W71627  41.749   1.102   1.895
 6643W        W71628  15.121  14.980   4.306
 6644W        W71629  17.710   9.767   3.921
 6645W        W71630   9.442  32.475  14.447
 6646W        W71631  37.016  22.289  11.068
 6647W        W71632  39.695  29.610  12.050
 6648W        W71633  20.194  43.892  13.289
 6649W        W71634  20.564  15.807   3.253
 6650W        W71635  11.251   9.225  11.720
 6651W        W71636  19.279  18.781   1.804
 6652W        W71637  30.680   7.302   3.729
 6653W        W71638  39.764   1.872  13.524
 6654W        W71639   4.126  30.530  14.727
 6655W        W71640  10.240  29.370  14.550
 6656W        W71641  27.975   9.146   4.649
 6657W        W71642   2.014  36.490  13.632
 6658W        W71643  44.613  35.529  13.696
 6659W        W71644  17.992   3.956  12.479
 6660W        W71645  34.947  17.843   4.187
 6661W        W71646  10.823  42.029  13.081
 6662W        W71647  12.268  41.379  13.521
 6663W        W71648  17.271  27.683  12.929
 6664W        W71649  36.562  28.469  14.001
 6665W        W71650  41.300  13.308   3.694
 6666W        W71651  27.170   4.153  12.904
 6667W        W71652  41.769  25.542  12.870
 6668W        W71653   7.442   9.732  12.371
 6669W        W71654   2.742   0.370   4.090
 6670W        W71655  33.047  30.135  14.915
 6671W        W71656  22.950   1.425   4.312
 6672W        W71657  27.023  28.433   1.603
 6673W        W71658   7.881  14.158  14.838
 6674W        W71659  20.724  18.966   3.009
 6675W        W71660  21.298  42.898  14.494
 6676W        W71661  33.016   5.069   9.825
 6677W        W71662  31.214   1.950   1.704
 6678W        W71663   0.904   8.978   1.594
 6679W        W71664  11.660   3.734   3.732
 6680W        W71665   5.386  41.516   1.336
 6681W        W71666  19.864  11.168   2.327
 6682W        W71667  24.782  37.590   0.276
 6683W        W71668  41.863  12.070  11.487
 6684W        W71669  41.597   9.255   1.240
 6685W        W71670  20.798  34.479   1.460
 6686W        W71671  13.881  36.926   1.214
 6687W        W71672  28.973  34.312  12.291
 6688W        W71673  31.666   8.733  14.878
 6689W        W71674   7.828  19.745   3.259
 6690W        W71675  15.761   9.174  12.050
 6691W        W71676  21.625  12.025  13.926
 6692W        W71677  16.876   3.841   1.871
 6693W        W71678  13.396   8.005  10.083
 6694W        W71679  36.349   8.930  12.109
 6695W        W71680   5.808  16.653  12.645
 6696W        W71681  42.761  42.698  11.019
 6697W        W71682  16.094  39.510   2.633
 6698W        W71683  12.822  27.018   2.122
 6699W        W71684  28.968   8.905   0.694
 6700W        W71685  34.647  44.366   1.888
 6701W        W71686  38.210  35.548  11.191
 6702W        W71687  26.150  33.396  12.616
 6703W        W71688  33.440  23.755  14.481
 6704W        W71689   7.944  31.920   2.265
 6705W        W71690  20.215   3.029  11.028
 6706W        W71691  19.680  11.667   3.161
 6707W        W71692   2.278  34.996  12.529
 6708W        W71693   3.380  17.737   2.490
 6709W        W71694   3.271  23.643   1.510
 6710W        W71695  40.308  40.807  14.396
 6711W        W71696  25.254  27.389   2.674
 6712W        W71697  37.535  26.975   3.821
 6713W        W71698  19.301   2.778  12.563
 6714W        W71699   8.385  25.952  14.405
 6715W        W71700  25.176   4.109   1.738
 6716W        W71701  24.952   2.739  11.567
 6717W        W71702  43.001  20.650  12.351
 6718W        W71703  19.485  19.780  13.029
 6719W        W71704  32.714  10.734   2.862
 6720W        W71705   4.208  23.730   1.765
 6721W        W71706  18.745  30.721   4.853
 6722W        W71707   6.763  15.822   4.904
 6723W        W71708  12.474   6.450   3.286
 6724W        W71709  12.325   7.155   0.340
 6725W        W71710  27.106   7.220   0.052
 6726W        W71711  11.770   1.680   3.283
 6727W        W71712   6.700  44.788  12.531
 6728W        W71713  27.140  35.476   0.270
 6729W        W71714  36.942   7.277  12.427
 6730W        W71715   4.700  36.058   3.725
 6731W        W71716  37.878  30.481  13.933
 6732W        W71717  33.477  33.125  11.890
 6733W        W71718  11.417  28.437   2.342
 6734W        W71719  29.228  39.931   0.851
 6735W        W71720  36.886  16.215  13.996
 6736W        W71721  13.321  36.175  13.682
 6737W        W71722  39.621  35.889  13.088
 6738W        W71723  27.518   3.737   0.695
 6739W        W71724   9.434  13.567  10.777
 6740W        W71725  13.177   9.899   3.854
 6741W        W71726  25.444  33.681   3.617
 6742W        W71727  41.474  16.536   3.124
 6743W        W71728  36.506  16.708  14.534
 6744W        W71729   9.972   3.056   0.827
 6745W        W71730  25.903   7.494   2.349
 6746W        W71731  24.169  29.552  14.317
 6747W        W71732   1.960  39.525  14.816
 6748W        W71733  18.781  36.609   3.214
 6749W        W71734  26.486   5.403   4.181
 6750W        W71735  31.893   1.323   2.842
 6751W        W71736  21.504   7.200  13.920
 6752W        W71737  27.545  28.028   0.726
 6753W        W71738   4.733  17.574   1.387
 6754W        W71739  40.151  44.748  11.910
 6755W        W71740  18.725  35.212   1.055
 6756W        W71741  28.382  43.275   3.212
 6757W        W71742  27.242  44.886  10.724
 6758W        W71743  24.586  11.694  12.692
 6759W        W71744  30.279  29.835  14.044
 6760W        W71745  23.244   8.204  12.122
 6761W        W71746  12.783  41.821   1.999
 6762W        W71747  30.506  40.286  11.106
 6763W        W71748  16.035  30.023  12.473
 6764W        W71749  11.387  22.662  11.125
 6765W        W71750   6.869  20.217  14.435
 6766W        W71751   2.284  18.254   3.009
 6767W        W71752   1.474  13.222   1.017
 6768W        W71753  12.548  10.838   3.656
 6769W        W71754  34.128   3.003   1.402
 6770W        W71755  25.435   6.908   4.297
 6771W        W71756  26.691   1.382  13.871
 6772W        W71757  36.585  35.624   1.356
 6773W        W71758  34.793  26.001  13.855
 6774W        W71759  36.514  38.936   2.658
 6775W        W71760  35.519  26.100   4.799
 6776W        W71761  10.402  36.253   4.313
 6777W        W71762   8.752  32.639   0.181
 6778W        W71763  11.729  30.956   2.013
 6779W        W71764   5.626  21.550  11.857
 6780W        W71765  36.690   5.786  10.127
 6781W        W71766  23.007  35.688  14.294
 6782W        W71767  33.869  20.549  14.971
 6783W        W71768  29.379  44.871  10.367
 6784W        W71769  39.838  30.210   4.261
 6785W        W71770  34.127  22.497   2.437
 6786W        W71771  33.817   9.204   3.752
 6787W        W71772  28.425  40.768  13.803
 6788W        W71773  20.599   1.318   0.097
 6789W        W71774  43.619  44.973   1.827
 6790W        W71775  25.565  15.080  14.406
 6791W        W71776  13.311  35.870   4.610
 6792W        W71777  32.364  25.476  11.959
 6793W        W71778  27.194  16.571   1.306
 6794W        W71779  26.407  27.051   1.365
 6795W        W71780   1.299  34.906   4.509
 6796W        W71781   2.887  18.710  10.568
 6797W        W71782  24.469  17.680   4.578
 6798W        W71783  23.886  20.045   3.948
 6799W        W71784  15.132  24.545  10.259
 6800W        W71785  17.344  38.078  14.291
 6801W        W71786   0.946  22.437   5.350
 6802W        W71787  18.658   9.484   2.818
 6803W        W71788  23.194  12.428  10.908
 6804W        W71789  14.969   4.367   1.867
 6805W        W71790  15.264  23.719   2.337
 6806W        W71791   4.385  20.264   0.359
 6807W        W71792   2.798   7.133  14.371
 6808W        W71793   4.377  27.070   2.325
 6809W        W71794   5.669  31.187   2.390
 6810W        W71795  21.240  37.058   3.794
 6811W        W71796  14.115  37.916  13.282
 6812W        W71797  43.392  42.771   3.397
 6813W        W71798   6.990  12.372   4.589
 6814W        W71799  25.140   2.026   2.179
 6815W        W71800   7.515   1.487   2.804
 6816W        W71801  32.085   5.107  11.458
 6817W        W71802  43.849  29.607   1.021
 6818W        W71803   1.733  13.696  14.988
 6819W        W71804  28.091  41.434  11.248
 6820W        W71805  43.519  42.953   4.811
 6821W        W71806   0.994  30.692   3.195
 6822W        W71807  32.351  32.087  14.354
 6823W        W71808  32.094  23.255  14.450
 6824W        W71809  13.045  27.473   5.413
 6825W        W71810   7.344  16.302  13.772
 6826W        W71811  33.371  34.309   0.941
 6827W        W71812   1.325  30.045  11.996
 6828W        W71813   9.247   7.354   3.168
 6829W        W71814  41.309  28.497  11.065
 6830W        W71815  15.427   1.547  10.686
 6831W        W71816  31.043  10.658   3.266
 6832W        W71817  31.694  39.850   1.411
 6833W        W71818   5.337  19.351  12.253
 6834W        W71819  34.876  30.929  12.268
 6835W        W71820  21.470  11.848  14.851
 6836W        W71821  28.910  18.617   0.074
 6837W        W71822   3.498  11.350   0.581
 6838W        W71823  17.492   1.738  13.363
 6839W        W71824  38.574  37.481  14.786
 6840W        W71825   3.982   0.599   2.029
 6841W        W71826  44.533  24.130  11.468
 6842W        W71827  14.524  30.463  13.291
 6843W        W71828  34.383  26.064  11.541
 6844W        W71829   0.676  27.830  13.898
 6845W        W71830  40.566  31.846   3.627
 6846W        W71831  29.016  34.323   2.226
 6847W        W71832   2.487  23.452   3.635
 6848W        W71833  23.924   6.376  12.417
 6849W        W71834  19.782  30.430  14.837
 6850W        W71835   8.612  33.853   4.159
 6851W        W71836  14.741  21.485  13.432
 6852W        W71837  23.381  36.378   1.330
 6853W        W71838  12.818  38.033  10.719
 6854W        W71839  44.331  37.030  12.086
 6855W        W71840  22.792  44.090   4.296
 6856W        W71841  14.086  25.599   2.420
 6857W        W71842  10.127  29.097   1.217
 6858W        W71843  12.598  14.873  13.023
 6859W        W71844  14.077  14.700  13.035
 6860W        W71845  39.858  23.244  11.571
 6861W        W71846  24.033  34.120  12.634
 6862W        W71847  14.558  21.731   1.747
 6863W        W71848  14.028  21.236   4.818
 6864W        W71849  24.476  27.424  13.500
 6865W        W71850  37.301  25.475   3.501
 6866W        W71851  17.581  32.708  13.548
 6867W        W71852  18.810  37.183   1.276
 6868W        W71853  39.856   5.751   3.389
 6869W        W71854   5.731   3.791  13.054
 6870W        W71855  24.463  12.165  12.470
 6871W        W71856   8.204   2.851  12.933
 6872W        W71857   0.491  13.887  14.512
 6873W        W71858  31.416   7.597   1.686
 6874W        W71859  24.574  29.659   2.249
 6875W        W71860  37.259  36.299  12.649
 6876W        W71861  30.890  23.338  14.312
 6877W        W71862  21.107  40.461   3.567
 6878W        W71863  12.929  21.688  12.549
 6879W        W71864   4.697  24.049  13.387
 6880W        W71865  36.506  25.347  14.592
 6881W        W71866   7.831  44.509  13.384
 6882W        W71867  12.298  30.553  10.419
 6883W        W71868  27.182  31.273  12.968
 6884W        W71869  13.149  35.449   4.953
 6885W        W71870  28.156  24.253  10.287
 6886W        W71871  32.064  18.797   1.348
 6887W        W71872  29.989  14.772  14.265
 6888W        W71873  36.765   5.959  11.690
 6889W        W71874  35.465  44.003  12.039
 6890W        W71875  36.834  14.268   1.115
 6891W        W71876   9.267   7.948  14.469
 6892W        W71877  39.476   5.440  12.929
 6893W        W71878  16.083   0.798  13.830
 6894W        W71879  13.739  32.654  14.839
 6895W        W71880   3.794  44.812   2.434
 6896W        W71881  33.562  44.022   3.135
 6897W        W71882  13.042  39.269   0.013
 6898W        W71883  32.699   1.966   2.696
 6899W        W71884   0.847  35.535  10.647
 6900W        W71885  40.836   0.812   0.914
 6901W        W71886  12.060  11.375  11.731
 6902W        W71887  42.954   0.312  14.856
 6903W        W71888  31.127  15.211   3.209
 6904W        W71889   0.244   0.703   1.469
 6905W        W71890  36.396  32.252  11.993
 6906W        W71891  35.460  44.724  14.378
 6907W        W71892  15.598   5.762  13.116
 6908W        W71893   5.286  14.833  11.111
 6909W        W71894  29.096  10.764  10.731
 6910W        W71895  39.118   8.169   4.167
 6911W        W71896   6.120  15.011  11.587
 6912W        W71897  44.350  42.350  11.606
 6913W        W71898   9.104  33.002  10.980
 6914W        W71899   6.145  23.724  13.034
 6915W        W71900  27.226  29.770   2.758
 6916W        W71901  43.572  26.321   9.764
 6917W        W71902  28.821   5.298   2.127
 6918W        W71903  42.400  10.450   1.291
 6919W        W71904  34.066  20.092   0.905
 6920W        W71905   7.249   9.141  11.584
 6921W        W71906  20.987  17.731   2.009
 6922W        W71907  33.159   3.765  12.151
 6923W        W71908  21.945   3.973   0.355
 6924W        W71909  27.486  42.336   0.920
 6925W        W71910  12.624  19.618   4.571
 6926W        W71911   2.951   3.661  13.336
 6927W        W71912  33.555  11.119  11.589
 6928W        W71913  10.281  29.070  13.064
 6929W        W71914   3.714  12.830  13.391
 6930W        W71915  17.021   9.903   2.085
 6931W        W71916  26.346  28.851   4.533
 6932W        W71917   2.436  17.621  12.098
 6933W        W71918  18.219  29.532   1.404
 6934W        W71919  35.231  31.650  10.833
 6935W        W71920  33.617  41.495  13.645
 6936W        W71921  11.617  21.536   2.824
 6937W        W71922  11.015  12.948  11.043
 6938W        W71923   2.523  19.664   0.248
 6939W        W71924  32.975  21.479   1.783
 6940W        W71925  24.275  32.111  11.230
 6941W        W71926  41.959  12.588  14.368
 6942W        W71927  26.999  36.335  11.964
 6943W        W71928  39.266  41.954  11.550
 6944W        W71929  23.611  29.072  12.992
 6945W        W71930  44.257  37.642  14.769
 6946W        W71931   2.918  44.489   0.058
 6947W        W71932  37.413  18.673   0.348
 6948W        W71933  23.963  16.685   3.683
 6949W        W71934   1.425  27.400  11.565
 6950W        W71935  36.939  43.461  12.493
 6951W        W71936   1.259   8.400  12.479
 6952W        W71937  25.194  28.789  14.062
 6953W        W71938  41.992  13.052  11.500
 6954W        W71939   6.769   3.961   2.420
 6955W        W71940  28.562  44.329  12.064
 6956W        W71941  29.488  27.089  12.320
 6957W        W71942  42.926   8.148   2.786
 6958W        W71943  11.090   7.361  13.947
 6959W        W71944  40.418  36.412   1.213
 6960W        W71945  15.569  21.418  13.672
 6961W        W71946  32.565  30.362  14.907
 6962W        W71947   1.263   3.888   0.473
 6963W        W71948  23.907  24.834   1.749
 6964W        W71949  13.474  23.755   3.166
 6965W        W71950  34.661   4.171   0.622
 6966W        W71951  27.569  40.451  14.355
 6967W        W71952  29.040  13.681   4.608
 6968W        W71953  30.116  35.866   4.873
 6969W        W71954  44.259  36.632  14.869
 6970W        W71955  29.572  20.528  14.398
 6971W        W71956  23.627  23.270   4.933
 6972W        W71957  26.951  12.766   4.519
 6973W        W71958  19.249   3.701   4.226
 6974W        W71959  35.624  19.829  13.372
 6975W        W71960  29.531   7.439   4.572
 6976W        W71961  22.445  22.938   1.544
 6977W        W71962  13.091  38.398   0.952
 6978W        W71963  26.062  26.686   1.215
 6979W        W71964  28.087   9.221   0.292
 6980W        W71965  24.196  44.123   3.219
 6981W        W71966  23.818   1.284  12.549
 6982W        W71967  43.074  38.371   3.161
 6983W        W71968  35.848  27.023   2.312
 6984W        W71969  43.923  12.612  13.551
 6985W        W71970  35.492  12.045  12.343
 6986W        W71971  33.311  42.867   2.783
 6987W        W71972   0.816  20.085   4.219
 6988W        W71973  26.698  10.637   1.709
 6989W        W71974  26.869  29.579   3.997
 6990W        W71975  37.238  38.793   3.373
 6991W        W71976  15.194  23.573  11.499
 6992W        W71977  22.052  12.143   1.689
 6993W        W71978  40.559  43.052  13.063
 6994W        W71979   5.186  31.660   3.619
 6995W        W71980  31.521   7.440  11.542
 6996W        W71981  37.462  32.331   2.587
 6997W        W71982  21.617  26.156  11.515
 6998W        W71983  18.978   8.842  14.380
 6999W        W71984  30.559  41.102  11.625
 7000W        W71985  27.942  19.353   3.286
 7001W        W71986   3.134  23.055   1.397
 7002W        W71987   0.817  24.915   3.300
 7003W        W71988  43.973  26.478   3.379
 7004W        W71989  25.781  18.707   0.383
 7005W        W71990  26.095  15.836  10.641
 7006W        W71991  13.522  37.370  11.505
 7007W        W71992  38.594   4.451  12.466
 7008W        W71993  26.035   9.870   1.667
 7009W        W71994  28.059  34.013   4.517
 7010W        W71995   2.053  29.606   4.097
 7011W        W71996  14.793  29.571   1.509
 7012W        W71997  25.688   6.694   1.307
 7013W        W71998   9.733  26.674  10.669
 7014W        W71999  10.677  26.244   4.204
 7015W        W72000   6.720  39.570  13.289
 7016W        W72001  44.730  24.827   3.099
 7017W        W72002  32.195  25.896   3.720
 7018W        W72003  18.211   2.848   2.395
 7019W        W72004  44.756  33.669  11.004
 7020W        W72005  13.328  43.030   0.498
 7021W        W72006   6.533   9.111   4.282
 7022W        W72007  18.134  19.935  12.375
 7023W        W72008  13.629  35.458   4.739
 7024W        W72009  30.585  44.694  10.399
 7025W        W72010  31.914  16.166  13.077
 7026W        W72011  22.424  28.930   3.082
 7027W        W72012   4.398  23.579  14.928
 7028W        W72013  22.121   4.687   2.335
 7029W        W72014  10.241  25.642  13.795
 7030W        W72015  14.402  16.126   4.652
 7031W        W72016  30.050   9.907   3.815
 7032W        W72017  12.205  39.465   3.713
 7033W        W72018  18.489  35.716   4.781
 7034W        W72019   5.748  36.591  10.595
 7035W        W72020   6.816  31.484   1.940
 7036W        W72021  33.607  36.635  13.267
 7037W        W72022  12.748  44.042  14.268
 7038W        W72023  26.042  13.841   1.738
 7039W        W72024  33.428  27.578   0.215
 7040W        W72025  11.726  20.476   0.479
 7041W        W72026  21.311  30.826  11.168
 7042W        W72027  10.707  11.494   1.050
 7043W        W72028  10.442   5.210   1.438
 7044W        W72029  27.620  10.827  12.044
 7045W        W72030  22.842   0.762   0.803
 7046W        W72031  29.643   8.868  14.982
 7047W        W72032  37.986  23.971  14.560
 7048W        W72033   5.970  10.628  11.684
 7049W        W72034   4.199  23.978  12.513
 7050W        W72035  21.743  10.173  11.064
 7051W        W72036  21.222  32.870  12.604
 7052W        W72037   6.529  36.984   3.786
 7053W        W72038   6.763  25.536   3.036
 7054W        W72039  27.758   6.356  14.353
 7055W        W72040  27.703  34.536   0.795
 7056W        W72041  19.654  11.312   2.782
 7057W        W72042  16.945  43.267  13.661
 7058W        W72043  10.944  33.290  12.911
 7059W        W72044  10.347  43.845  12.950
 7060W        W72045  35.010  22.346  11.097
 7061W        W72046  31.051  31.394  12.622
 7062W        W72047  40.344   4.188   1.888
 7063W        W72048   2.880  20.576   4.441
 7064W        W72049  24.137  25.689  10.924
 7065W        W72050  29.514  25.874  12.715
 7066W        W72051  33.102  42.256  11.420
 7067W        W72052  24.526   3.047   4.115
 7068W        W72053  27.718  27.975  12.099
 7069W        W72054  33.640  25.079   4.088
 7070W        W72055  34.407  37.793  11.536
 7071W        W72056   8.121  40.921  10.447
 7072W        W72057  20.456   0.453   4.195
 7073W        W72058  39.426  22.235   2.065
 7074W        W72059   5.082  39.099  14.026
 7075W        W72060   7.403   3.829   0.643
 7076W        W72061  36.892  20.713  12.467
 7077W        W72062  38.870   5.413  13.960
 7078W        W72063  20.083  22.689  10.676
 7079W        W72064  15.067  31.817  13.402
 7080W        W72065  28.987  35.315  12.435
 7081W        W72066  35.523  36.422   4.382
 7082W        W72067  14.813  11.185  12.106
 7083W        W72068  13.222  15.529   3.751
 7084W        W72069  32.002   0.067   0.836
 7085W        W72070  42.060   7.859   1.695
 7086W        W72071  44.952  41.432   3.372
 7087W        W72072  19.315  15.010  14.043
 7088W        W72073  14.436   2.005   3.686
 7089W        W72074  36.924  38.667   4.756
 7090W        W72075  26.992  11.641   4.075
 7091W        W72076  12.951  14.116   0.712
 7092W        W72077  23.403  35.260   3.088
 7093W        W72078  30.524  30.052   2.789
 7094W        W72079  16.904  33.942  11.188
 7095W        W72080  15.316  27.148  13.630
 7096W        W72081   2.272  14.535   0.724
 7097W        W72082  41.675  16.120  10.714
 7098W        W72083  26.519  10.229  14.875
 7099W        W72084  21.478  25.494   3.772
 7100W        W72085  42.362   1.742   2.902
 7101W        W72086   2.860   7.306   1.189
 7102W        W72087  29.445  42.634  10.732
 7103W        W72088  31.103   6.628   0.308
 7104W        W72089   3.836   0.017   0.064
 7105W        W72090   0.660  24.240   0.543
 7106W        W72091  29.788  13.046  12.525
 7107W        W72092   0.192  27.690   3.933
 7108W        W72093   1.285  35.356   4.753
 7109W        W72094   8.328  17.949   1.247
 7110W        W72095  11.881  11.938  11.001
 7111W        W72096  18.558  10.125  10.684
 7112W        W72097  27.009  15.825   0.207
 7113W        W72098   6.855   8.413   0.867
 7114W        W72099   9.960  32.361  14.491
 7115W        W72100  34.702  36.388   0.342
 7116W        W72101  29.793   8.035  11.456
 7117W        W72102  42.922   2.859  13.079
 7118W        W72103   1.946  30.475  13.058
 7119W        W72104  36.415   5.597   4.554
 7120W        W72105   8.103  36.628  14.951
 7121W        W72106  18.320  15.139   3.229
 7122W        W72107   1.307  40.785   1.303
 7123W        W72108   2.534  26.553  13.778
 7124W        W72109  20.204  13.790   3.383
 7125W        W72110  19.777  12.523   1.965
 7126W        W72111   7.646  10.221   4.169
 7127W        W72112  22.750  41.518   2.267
 7128W        W72113   1.791  29.195   4.305
 7129W        W72114  21.667  28.609   4.163
 7130W        W72115  13.418  41.785  11.446
 7131W        W72116  26.038  29.083   3.577
 7132W        W72117  14.503  41.298   2.128
 7133W        W72118  27.139  43.896  12.501
 7134W        W72119  26.664  20.109   3.632
 7135W        W72120  31.600  42.139   2.818
 7136W        W72121  40.446  15.764  14.921
 7137W        W72122  41.437  24.204  10.794
 7138W        W72123  24.124  15.489  14.800
 7139W        W72124  42.024   2.245  12.518
 7140W        W72125  31.319   4.810   0.000
 7141W        W72126  42.270   9.849  11.724
 7142W        W72127   1.463  40.033  13.700
 7143W        W72128   0.163  12.601   1.681
 7144W        W72129  12.207  43.362  11.148
 7145W        W72130  12.238  13.669   0.037
 7146W        W72131  43.137  38.131  14.835
 7147W        W72132  12.152   1.265   2.394
 7148W        W72133  21.323  43.378  10.629
 7149W        W72134   5.001  35.062  14.581
 7150W        W72135  25.654   3.619   1.180
 7151W        W72136  20.206  41.731   1.193
 7152W        W72137  28.609  27.199  11.451
 7153W        W72138  39.283  23.544  14.712
 7154W        W72139  24.199  21.535  12.218
 7155W        W72140  16.328   9.967   4.582
 7156W        W72141  43.992   8.306   0.484
 7157W        W72142  24.713  43.499   2.385
 7158W        W72143  34.916  43.807   1.454
 7159W        W72144   1.059  14.112  13.384
 7160W        W72145  30.001  14.619  14.808
 7161W        W72146  44.770  13.350   2.185
 7162W        W72147  23.015  35.870   0.512
 7163W        W72148  20.483  11.257   1.484
 7164W        W72149  35.481  31.260  11.858
 7165W        W72150  11.332  23.495  13.469
 7166W        W72151   8.897   1.424  14.506
 7167W        W72152  29.038  28.120   0.573
 7168W        W72153  23.678   0.491  11.520
 7169W        W72154  22.789  35.954   2.690
 7170W        W72155  29.163  37.686  14.606
 7171W        W72156   3.484  26.001   2.661
 7172W        W72157  39.238  27.675   1.236
 7173W        W72158  27.944  14.545   2.880
 7174W        W72159   0.878  24.698   1.421
 7175W        W72160  32.548  43.689   2.165
 7176W        W72161   4.363  13.703  11.712
 7177W        W72162  34.017  40.722   3.176
 7178W        W72163  21.610  13.758   3.299
 7179W        W72164   4.588  13.826  14.481
 7180W        W72165  21.660  42.072  14.508
 7181W        W72166   1.773  25.879  12.994
 7182W        W72167  23.024  38.522   4.550
 7183W        W72168   7.668   0.984  13.109
 7184W        W72169  39.872  32.264  12.930
 7185W        W72170  16.695   4.556  11.219
 7186W        W72171   2.788  20.451   3.872
 7187W        W72172   6.648  19.360  13.544
 7188W        W72173  36.949   1.789  10.642
 7189W        W72174  38.983  31.923  10.945
 7190W        W72175  29.972   9.633   2.432
 7191W        W72176  30.692  41.717  12.937
 7192W        W72177  33.559  13.731  12.275
 7193W        W72178  27.487   7.978   2.696
 7194W        W72179  34.060  12.147   1.785
 7195W        W72180  27.862  23.508   4.509
 7196W        W72181  18.788  29.261  13.833
 7197W        W72182   2.123  29.902   0.558
 7198W        W72183  21.423  36.369   0.699
 7199W        W72184  22.484  41.450   0.908
 7200W        W72185   2.669  11.890  13.561
 7201W        W72186  26.957  35.789  11.186
 7202W        W72187  28.722  27.643  11.925
 7203W        W72188  39.731  28.876   0.925
 7204W        W72189   0.415  33.079  10.696
 7205W        W72190  37.904  29.590  14.918
 7206W        W72191  29.089   8.700  13.848
 7207W        W72192  27.225  27.609   0.695
 7208W        W72193  25.696  36.554  13.787
 7209W        W72194  30.788   4.885  12.025
 7210W        W72195  39.910  41.566  14.168
 7211W        W72196  23.218  36.924  13.043
 7212W        W72197  27.003   2.424  12.024
 7213W        W72198  22.520  11.383  10.837
 7214W        W72199  10.383   6.700  11.606
 7215W        W72200   9.282  19.405   2.141
 7216W        W72201  18.495  20.001   0.495
 7217W        W72202   3.324   0.909   0.752
 7218W        W72203  34.431   7.139  14.844
 7219W        W72204  42.418  13.856   1.963
 7220W        W72205  34.291  11.231   4.624
 7221W        W72206  36.549  21.740  12.171
 7222W        W72207   4.697   4.193  13.078
 7223W        W72208   4.413  39.763   1.391
 7224W        W72209   7.692  20.083   1.770
 7225W        W72210  20.329  22.236  10.626
 7226W        W72211  43.044   9.630   1.350
 7227W        W72212   2.805  30.017  14.920
 7228W        W72213  35.453  11.676   1.743
 7229W        W72214   6.203  23.896   1.384
 7230W        W72215  27.267  32.031   0.206
 7231W        W72216  40.792  43.144  11.930
 7232W        W72217  16.177  28.063  12.517
 7233W        W72218   7.615  22.674  10.446
 7234W        W72219   1.244   5.948  13.949
 7235W        W72220  11.737   0.275   1.658
 7236W        W72221  14.139  18.171  12.451
 7237W        W72222  31.681  42.966   3.042
 7238W        W72223  44.884  24.343  12.037
 7239W        W72224  25.536  17.089  12.927
 7240W        W72225  38.054   8.273   4.521
 7241W        W72226  17.710  32.087  14.762
 7242W        W72227  22.616  22.519   0.992
 7243W        W72228  12.015  10.082  12.171
 7244W        W72229  34.673  28.458  10.252
 7245W        W72230  25.444   1.827  14.435
 7246W        W72231  20.686  15.951   2.736
 7247W        W72232  32.883  41.775   4.529
 7248W        W72233  16.579  30.643   0.281
 7249W        W72234   9.768  18.794   2.771
 7250W        W72235  42.443  12.676   4.073
 7251W        W72236   4.190   6.487  11.456
 7252W        W72237  20.996  12.026  13.254
 7253W        W72238  14.133  26.689  13.987
 7254W        W72239  23.680  34.399   1.697
 7255W        W72240  10.627  35.986  13.295
 7256W        W72241  43.932  26.067   3.716
 7257W        W72242  44.773  30.568   4.601
 7258W        W72243   2.459  24.181  12.050
 7259W        W72244  32.629  23.538   4.581
 7260W        W72245  21.834  41.255  11.957
 7261W        W72246  38.429  14.119  13.067
 7262W        W72247  40.374  26.627  14.721
 7263W        W72248  16.862  44.957   0.286
 7264W        W72249  21.068   9.939   5.139
 7265W        W72250   4.750  33.155   1.569
 7266W        W72251  17.966  10.463   5.243
 7267W        W72252   7.140  15.725   1.205
 7268W        W72253  33.842  24.036   3.784
 7269W        W72254  24.453  23.341   0.679
 7270W        W72255  20.289  24.421  10.696
 7271W        W72256  20.141  36.012   1.134
 7272W        W72257  39.642  31.357   0.838
 7273W        W72258  24.947  36.835   3.671
 7274W        W72259  42.505  34.559   2.331
 7275W        W72260  34.400  20.488   2.216
 7276W        W72261   8.118  11.280  13.550
 7277W        W72262  16.836  18.987  14.031
 7278W        W72263  39.832  32.875   2.815
 7279W        W72264  18.192   4.915   4.037
 7280W        W72265  35.162  28.153  14.819
 7281W        W72266  23.864  43.461   0.471
 7282W        W72267   7.267  15.839   1.691
 7283W        W72268   5.816  24.009  10.983
 7284W        W72269  32.115   9.102   1.315
 7285W        W72270  11.393  15.339   1.828
 7286W        W72271  33.491   9.081  12.276
 7287W        W72272  41.555  33.047  10.690
 7288W        W72273   9.590  12.621   1.795
 7289W        W72274  23.310  44.293   1.446
 7290W        W72275   1.898  34.118  12.079
 7291W        W72276  25.773  41.688   1.357
 7292W        W72277  35.110  17.242  10.788
 7293W        W72278  33.435  22.908  12.274
 7294W        W72279  38.545   5.523  14.785
 7295W        W72280  38.616  35.928  10.348
 7296W        W72281   7.774  31.135   2.811
 7297W        W72282   1.349  28.578   1.147
 7298W        W72283  44.029  18.526  10.989
 7299W        W72284  17.832   5.089   3.713
 7300W        W72285  41.316  12.118   1.425
 7301W        W72286  30.387  44.956  13.830
 7302W        W72287  22.361  34.842   0.028
 7303W        W72288  29.848   5.286   2.496
 7304W        W72289  39.028  25.835  12.948
 7305W        W72290  44.916  44.516   0.321
 7306W        W72291  22.934   2.538   2.619
 7307W        W72292  23.479   4.730   3.208
 7308W        W72293  30.936  31.001  10.634
 7309W        W72294   9.792  21.975  11.726
 7310W        W72295   0.530  28.575   2.931
 7311W        W72296  15.410  36.596  12.046
 7312W        W72297  22.964  43.336  11.561
 7313W        W72298   9.677  39.140   0.791
 7314W        W72299   2.638  33.545   4.076
 7315W        W72300  11.670  42.798   3.128
 7316W        W72301  23.893  44.816   0.776
 7317W        W72302  15.568  11.629   1.725
 7318W        W72303  11.665   4.605  14.436
 7319W        W72304  36.869  22.567  13.006
 7320W        W72305  17.083  21.291  12.496
 7321W        W72306   2.963  21.469  13.408
 7322W        W72307  11.711  20.826   2.236
 7323W        W72308   8.939  29.719   5.023
 7324W        W72309  10.858  23.525  11.273
 7325W        W72310  14.478  16.152   0.278
 7326W        W72311  13.238  44.503  11.547
 7327W        W72312  11.654  34.111  13.028
 7328W        W72313  30.743  26.282  11.573
 7329W        W72314  25.134  22.915  13.129
 7330W        W72315  41.275  18.633  12.533
 7331W        W72316  15.952  18.676  10.673
 7332W        W72317  21.150  33.512   4.431
 7333W        W72318  10.109  37.394  11.612
 7334W        W72319  23.935  43.665  11.221
 7335W        W72320  41.100   9.875  13.408
 7336W        W72321  30.626  41.118   4.417
 7337W        W72322  15.560  23.987   2.663
 7338W        W72323   8.607  11.330   3.885
 7339W        W72324  10.689  35.904  14.937
 7340W        W72325  11.807  11.767   4.299
 7341W        W72326  10.688  31.104  14.842
 7342W        W72327  13.648  24.651   2.241
 7343W        W72328  41.194  24.064   3.860
 7344W        W72329  23.093  22.566   3.778
 7345W        W72330  23.688  24.557  14.548
 7346W        W72331   8.852   9.715  12.014
 7347W        W72332   4.343  14.372   0.455
 7348W        W72333  38.851  23.302  11.590
 7349W        W72334   5.754  32.821   3.320
 7350W        W72335  31.743  18.685   0.536
 7351W        W72336  22.815  13.246  11.554
 7352W        W72337   3.956  32.108  14.378
 7353W        W72338   7.281   4.343  14.055
 7354W        W72339   1.456  36.583   1.843
 7355W        W72340  18.014  28.474  14.984
 7356W        W72341  12.370  19.768  10.419
 7357W        W72342  22.645   4.121   2.927
 7358W        W72343  31.870  15.847   4.665
 7359W        W72344   3.715  34.078  14.944
 7360W        W72345  22.601  31.095  10.732
 7361W        W72346   1.033  43.424   3.190
 7362W        W72347  31.374  20.700   1.297
 7363W        W72348  39.743  39.037  11.175
 7364W        W72349  35.973  33.157  12.563
 7365W        W72350  25.687  14.176  12.327
 7366W        W72351   2.207   1.722  12.901
 7367W        W72352   0.435  19.277  11.715
 7368W        W72353  23.292  13.746   2.903
 7369W        W72354  11.410   8.869   1.437
 7370W        W72355  37.769  11.746   0.309
 7371W        W72356  36.809  40.399  12.511
 7372W        W72357  28.987  28.724   2.763
 7373W        W72358   2.041  36.954  13.846
 7374W        W72359  26.604  15.695   0.532
 7375W        W72360  27.881  22.277   1.012
 7376W        W72361  19.850  39.410   0.421
 7377W        W72362  14.184   8.204  11.073
 7378W        W72363  18.423   5.438   4.061
 7379W        W72364  41.298   5.704  13.112
 7380W        W72365  28.207  12.343   3.755
 7381W        W72366  22.004  34.125   2.709
 7382W        W72367   5.023  13.902  14.809
 7383W        W72368   6.568  15.577   2.871
 7384W        W72369  17.682  39.404   2.192
 7385W        W72370  25.576  24.791  11.139
 7386W        W72371  22.009  13.204  11.611
 7387W        W72372   3.984   1.946  14.038
 7388W        W72373   9.087  21.701  14.601
 7389W        W72374  10.635  12.198   0.932
 7390W        W72375  30.805  28.677  13.525
 7391W        W72376  35.827   9.313  11.486
 7392W        W72377  38.741   9.275   2.925
 7393W        W72378  37.519  34.324  10.966
 7394W        W72379  14.058  41.910   2.200
 7395W        W72380   8.988  25.683  11.990
 7396W        W72381  34.954  29.241  13.043
 7397W        W72382  32.828  10.297   1.590
 7398W        W72383  28.539   5.420  13.825
 7399W        W72384  19.065  34.576   0.444
 7400W        W72385  31.509  10.611  11.297
 7401W        W72386   0.686  29.886   1.471
 7402W        W72387  25.480  16.803   2.667
 7403W        W72388  14.232   0.333   4.492
 7404W        W72389  13.419  32.941   2.214
 7405W        W72390  11.845  15.595  14.905
 7406W        W72391  25.255   6.398   1.360
 7407W        W72392   2.591  28.604  14.810
 7408W        W72393   0.289  16.077   9.838
 7409W        W72394   6.505  14.353   3.223
 7410W        W72395   0.981  41.309  10.570
 7411W        W72396  14.160  43.652  12.333
 7412W        W72397   4.475   4.894   1.932
 7413W        W72398  17.895   3.167  11.241
 7414W        W72399   8.259  24.089  10.655
 7415W        W72400  36.382  35.883  12.910
 7416W        W72401  20.314  19.480  14.293
 7417W        W72402   0.093  26.207  10.040
 7418W        W72403   0.680   2.215   2.370
 7419W        W72404  44.058  16.150   4.977
 7420W        W72405  15.570   1.688  12.038
 7421W        W72406   8.290  31.482  11.628
 7422W        W72407  32.721   0.835  12.627
 7423W        W72408  24.828  22.258  11.699
 7424W        W72409  36.104  35.712   2.722
 7425W        W72410  44.724   2.102  12.862
 7426W        W72411  31.572  16.224   3.851
 7427W        W72412  39.496  10.342  12.963
 7428W        W72413  28.537  19.311  13.492
 7429W        W72414   7.747  30.204   1.075
 7430W        W72415  29.599  16.132   1.396
 7431W        W72416  44.756  14.344  13.451
 7432W        W72417  17.839  19.663   1.045
 7433W        W72418   1.238  35.995   2.643
 7434W        W72419  40.886  11.638   0.844
 7435W        W72420   4.080  11.707   1.108
 7436W        W72421  40.990  44.811   4.055
 7437W        W72422  29.652  42.349  11.154
 7438W        W72423  27.540  32.595   1.227
 7439W        W72424   7.360  30.533   2.603
 7440W        W72425  40.323  40.255   0.943
 7441W        W72426  40.502  42.457   4.243
 7442W        W72427  43.292  33.331   1.734
 7443W        W72428  29.576  25.348  12.060
 7444W        W72429  13.561  44.717   3.295
 7445W        W72430  16.642   0.211  10.818
 7446W        W72431  40.201  10.244   2.336
 7447W        W72432  26.658  27.847  13.889
 7448W        W72433  13.264   7.892  10.545
 7449W        W72434  15.349  12.793  13.394
 7450W        W72435  10.660  44.506  13.585
 7451W        W72436  34.052  15.069   0.385
 7452W        W72437   1.567  39.754   2.764
 7453W        W72438  23.643  29.315  14.557
 7454W        W72439  31.418  38.445  12.623
 7455W        W72440  43.409  10.514  11.640
 7456W        W72441  25.477  35.460  13.060
 7457W        W72442  17.525  31.642  11.719
 7458W        W72443  23.715  28.734   4.440
 7459W        W72444  27.457  41.037   4.038
 7460W        W72445  20.925  18.186   1.754
 7461W        W72446  19.549  43.297  11.488
 7462W        W72447  16.131   9.052   1.865
 7463W        W72448  34.364  18.617  11.485
 7464W        W72449  17.628  21.218  11.505
 7465W        W72450  27.234   5.813  14.902
 7466W        W72451  29.205  27.847  10.249
 7467W        W72452   1.184  37.439  14.801
 7468W        W72453  29.050  39.985   2.772
 7469W        W72454  26.032  41.468  12.794
 7470W        W72455  13.696  42.667   2.829
 7471W        W72456  14.134  18.696  14.542
 7472W        W72457  15.190  22.433  10.793
 7473W        W72458  29.918  19.043   3.133
 7474W        W72459  40.328  22.725  12.551
 7475W        W72460  38.972  34.736   4.048
 7476W        W72461  37.828   7.709   2.224
 7477W        W72462   8.444  34.647  10.504
 7478W        W72463  30.110  18.726  13.596
 7479W        W72464  27.968  32.849   3.306
 7480W        W72465  17.424   7.129   1.935
 7481W        W72466  23.232   5.821   1.725
 7482W        W72467  34.178  34.869   2.604
 7483W        W72468  44.310  14.945  11.196
 7484W        W72469  39.755  38.117  11.400
 7485W        W72470  34.408  22.862  10.763
 7486W        W72471  20.208  15.075   3.618
 7487W        W72472  30.563  27.238   1.823
 7488W        W72473  18.273  22.983   0.948
 7489W        W72474  35.911  18.383  10.959
 7490W        W72475  44.538  11.680  10.782
 7491W        W72476  26.894   7.024  14.319
 7492W        W72477  22.904   3.505  13.822
 7493W        W72478  35.881  25.158  14.001
 7494W        W72479  10.390  33.997   1.460
 7495W        W72480  42.496  24.835   0.008
 7496W        W72481  40.568  33.079   0.820
 7497W        W72482  36.490  36.918   0.157
 7498W        W72483  26.884  13.689  13.974
 7499W        W72484  24.998  33.840   2.797
 7500W        W72485  36.478  17.093   1.692
 7501W        W72486   5.353   1.661  11.177
 7502W        W72487  14.634  31.528  13.192
 7503W        W72488  39.304  11.090   3.641
 7504W        W72489  35.338  28.708   0.890
 7505W        W72490  39.277   5.651   4.159
 7506W        W72491   6.890   0.545  11.370
 7507W        W72492  17.736  18.658  10.202
 7508W        W72493   2.971  26.041  13.352
 7509W        W72494   9.655  32.127  11.502
 7510W        W72495   1.276  10.784   3.108
 7511W        W72496  28.490  28.025  13.257
 7512W        W72497   1.048   8.784   3.476
 7513W        W72498  20.100  39.701  11.026
 7514W        W72499   6.232   7.370  11.463
 7515W        W72500  23.950  34.619  12.573
 7516W        W72501   3.924  18.049  10.274
 7517W        W72502   7.122  16.698   1.149
 7518W        W72503  33.167  35.982   3.643
 7519W        W72504   6.267  42.081  12.400
 7520W        W72505   6.678  35.761   2.905
 7521W        W72506  20.763  28.503  11.230
 7522W        W72507   5.330  28.089   3.168
 7523W        W72508  29.591  21.135  12.135
 7524W        W72509  29.138  30.020   3.224
 7525W        W72510  24.458  21.140  11.081
 7526W        W72511  26.036  18.572   4.260
 7527W        W72512  33.353   4.835  13.971
 7528W        W72513  44.836   5.109  10.670
 7529W        W72514  32.056  31.389  10.698
 7530W        W72515  38.752  43.937  13.030
 7531W        W72516  14.839  11.185   1.369
 7532W        W72517   1.025  33.009   3.766
 7533W        W72518   6.230  15.896  12.366
 7534W        W72519  25.171  14.654   1.255
 7535W        W72520  25.010  20.396  11.164
 7536W        W72521   6.131  16.881  14.847
 7537W        W72522  37.310  10.100  12.287
 7538W        W72523  15.658  41.778   3.246
 7539W        W72524  15.923  30.519   4.300
 7540W        W72525  26.184  41.510   2.780
 7541W        W72526  13.273  33.042   3.721
 7542W        W72527  39.135  32.612   1.966
 7543W        W72528  10.608  19.195   3.241
 7544W        W72529  16.815   7.438  12.446
 7545W        W72530  36.400  37.999   4.702
 7546W        W72531   3.398  32.685   3.793
 7547W        W72532  14.229   2.306   5.314
 7548W        W72533  37.290  27.005   4.271
 7549W        W72534  31.986  37.792   0.420
 7550W        W72535   6.350  35.083  11.959
 7551W        W72536   5.873  32.389   2.637
 7552W        W72537  44.790  26.081  11.545
 7553W        W72538  29.184  20.727  13.904
 7554W        W72539  37.964  20.000  14.397
 7555W        W72540  16.368  19.961  13.976
 7556W        W72541  27.689  18.466  12.889
 7557W        W72542  42.900  39.361   2.234
 7558W        W72543   3.948  41.087   2.420
 7559W        W72544  11.969  31.013   0.466
 7560W        W72545  21.330  38.408  11.561
 7561W        W72546  30.194  32.495  14.989
 7562W        W72547  17.132  11.288  11.663
 7563W        W72548  21.630   7.848   0.856
 7564W        W72549  26.030  15.555   4.363
 7565W        W72550   3.196  21.563   3.234
 7566W        W72551  13.032   0.051   1.984
 7567W        W72552  33.327  28.406  12.165
 7568W        W72553  30.781  24.218  13.867
 7569W        W72554   7.944   9.806   1.794
 7570W        W72555  13.820  23.421  12.540
 7571W        W72556  14.386  43.907   3.223
 7572W        W72557   4.863  44.445   0.003
 7573W        W72558  21.296  15.301   3.646
 7574W        W72559  22.873  18.098  12.819
 7575W        W72560  32.052  39.501  13.023
 7576W        W72561  16.184   7.064   4.920
 7577W        W72562   0.952   9.880  11.134
 7578W        W72563  43.753  11.102  11.175
 7579W        W72564  34.047   4.708   4.726
 7580W        W72565   5.841  25.997  11.475
 7581W        W72566  32.397  14.108   4.673
 7582W        W72567   2.738  14.921   3.742
 7583W        W72568  29.956  37.641  13.290
 7584W        W72569  26.169  32.878  11.849
 7585W        W72570  43.340  30.070   2.384
 7586W        W72571  32.930  24.896   3.870
 7587W        W72572  27.260  13.975  14.590
 7588W        W72573  40.886  33.262   4.170
 7589W        W72574   4.651  39.654  11.679
 7590W        W72575  12.943  36.346  14.904
 7591W        W72576  19.988   9.016   1.254
 7592W        W72577  22.599  37.446   0.794
 7593W        W72578   4.169  12.213   0.886
 7594W        W72579  27.574  11.855  13.063
 7595W        W72580   4.886   6.201  13.158
 7596W        W72581  10.856  24.609  13.955
 7597W        W72582  34.792  44.354  11.491
 7598W        W72583   0.571  24.793   2.250
 7599W        W72584   8.707  12.383  14.776
 7600W        W72585   9.239  15.737   4.626
 7601W        W72586  14.693   5.216  10.524
 7602W        W72587  20.942   5.308  14.414
 7603W        W72588   5.778  35.365   3.272
 7604W        W72589  43.184  37.455   3.290
 7605W        W72590  27.964   7.389   3.673
 7606W        W72591  27.670  12.660  12.407
 7607W        W72592  11.246   3.215  11.620
 7608W        W72593  11.061  39.878   2.234
 7609W        W72594  30.002  24.812   3.641
 7610W        W72595   7.442   0.278  12.886
 7611W        W72596   2.866  38.350  10.658
 7612W        W72597   3.526  22.243  10.362
 7613W        W72598  19.097  28.938   1.374
 7614W        W72599  12.640  37.431   2.635
 7615W        W72600  30.936  10.902   4.790
 7616W        W72601  35.482   7.160  12.122
 7617W        W72602   5.486  42.588   3.453
 7618W        W72603  38.436  21.498   2.585
 7619W        W72604   1.974   2.237  13.417
 7620W        W72605   5.648   1.405   2.620
 7621W        W72606   4.788  40.423  14.484
 7622W        W72607  25.970   4.513  13.248
 7623W        W72608  34.238  39.334   1.926
 7624W        W72609  25.176  42.071   0.335
 7625W        W72610  21.569  41.226  11.195
 7626W        W72611   6.762  28.439   0.346
 7627W        W72612  40.322  44.564  11.465
 7628W        W72613  10.417  29.700   1.246
 7629W        W72614  16.593  26.125  12.004
 7630W        W72615  30.167  42.284  11.240
 7631W        W72616  11.152   4.457   2.706
 7632W        W72617  23.525  20.184  14.466
 7633W        W72618  31.195  18.374  13.824
 7634W        W72619   7.430  43.837  11.604
 7635W        W72620  38.092  30.212  11.464
 7636W        W72621   2.233  34.250   1.374
 7637W        W72622   6.876  28.094   2.381
 7638W        W72623  16.121  34.079   0.364
 7639W        W72624  43.893  15.212   0.786
 7640W        W72625  12.209  41.844  14.885
 7641W        W72626  25.828   3.485  14.221
 7642W        W72627  13.092  23.077   0.843
 7643W        W72628  35.060  19.238   2.825
 7644W        W72629   9.891  27.947   3.432
 7645W        W72630  13.728   4.262   3.491
 7646W        W72631   8.870   2.489  11.675
 7647W        W72632  32.010  42.785  12.936
 7648W        W72633  25.807  33.849  14.312
 7649W        W72634  43.839   4.832  14.761
 7650W        W72635  26.138   7.673   2.778
 7651W        W72636   7.826  27.222  12.085
 7652W        W72637  43.859  38.313   1.859
 7653W        W72638  42.122  39.617   1.727
 7654W        W72639  32.008  42.284   4.867
 7655W        W72640  22.779  28.544  11.110
 7656W        W72641  22.977  35.204  13.641
 7657W        W72642  20.717  11.181   3.401
 7658W        W72643   6.631  43.497  14.886
 7659W        W72644  26.741   7.277   3.339
 7660W        W72645   6.209   6.834  12.712
 7661W        W72646   3.956   4.642  10.249
 7662W        W72647  42.674  24.255  12.564
 7663W        W72648  37.054  32.030   0.507
 7664W        W72649   6.318  19.957   3.177
 7665W        W72650  19.966  40.511  13.817
 7666W        W72651  29.461   9.281  14.199
 7667W        W72652  20.544  23.810   9.846
 7668W        W72653  34.415  32.639  13.340
 7669W        W72654  23.959  16.324   1.884
 7670W        W72655  22.311  35.618   0.388
 7671W        W72656   6.675   8.331  14.539
 7672W        W72657   0.903  35.763   1.706
 7673W        W72658   2.764  29.351   4.603
 7674W        W72659   1.922   5.166  10.697
 7675W        W72660  42.922  39.175  14.444
 7676W        W72661  24.453  43.434  10.728
 7677W        W72662   0.450   6.152  13.451
 7678W        W72663  43.996  37.281  13.852
 7679W        W72664  10.669   2.494   0.845
 7680W        W72665  36.008   4.872   4.292
 7681W        W72666  12.353  33.044   3.198
 7682W        W72667   6.380  26.585   5.176
 7683W        W72668  14.273   6.920  11.583
 7684W        W72669   3.857  44.881  14.375
 7685W        W72670   3.766  19.533   0.540
 7686W        W72671  19.777   6.439   3.750
 7687W        W72672  12.608   7.332   5.304
 7688W        W72673  17.696  38.082   0.966
 7689W        W72674  16.405  16.577   1.536
 7690W        W72675  19.858  15.447  12.016
 7691W        W72676  10.579  30.756   2.735
 7692W        W72677  35.045  36.547   0.739
 7693W        W72678  41.800  19.964   1.829
 7694W        W72679  38.369   9.429   1.261
 7695W        W72680  17.339  37.893   2.234
 7696W        W72681  18.826  29.547   0.744
 7697W        W72682  36.838  42.817   3.374
 7698W        W72683   0.287  41.845   0.298
 7699W        W72684  39.155   5.971  14.383
 7700W        W72685  34.166  13.813  13.319
 7701W        W72686  25.964  16.148   1.154
 7702W        W72687  18.250  27.557   1.047
 7703W        W72688  23.690  25.433  13.766
 7704W        W72689  17.342  10.382  14.795
 7705W        W72690  17.770  38.404  14.192
 7706W        W72691  12.156  27.378  11.478
 7707W        W72692   9.255  21.122  14.889
 7708W        W72693  15.208  40.351  13.544
 7709W        W72694  25.499  14.077   2.396
 7710W        W72695  29.361  19.353   4.341
 7711W        W72696   8.791  25.731   2.770
 7712W        W72697  42.466  39.297  11.019
 7713W        W72698  31.788   0.277  10.921
 7714W        W72699  37.942  12.896   1.888
 7715W        W72700  28.994   4.211  13.886
 7716W        W72701  25.366  38.498  11.593
 7717W        W72702   9.659   5.783   1.212
 7718W        W72703  24.985  16.226  14.306
 7719W        W72704  10.707   2.390   2.316
 7720W        W72705  24.236  23.127   3.051
 7721W        W72706  44.397  27.244   0.737
 7722W        W72707  34.035  29.452  12.128
 7723W        W72708   7.633  21.785   4.993
 7724W        W72709  16.184  28.085  10.329
 7725W        W72710  43.709  28.950   0.441
 7726W        W72711  38.305  19.180   4.640
 7727W        W72712  30.394   1.740  13.915
 7728W        W72713  27.930   6.756   4.636
 7729W        W72714   4.508   2.987   2.428
 7730W        W72715  44.791  38.468   2.007
 7731W        W72716  30.972  31.885   1.378
 7732W        W72717  39.472  30.474   4.522
 7733W        W72718  31.879  35.579   1.844
 7734W        W72719  26.716   2.993  11.190
 7735W        W72720  44.036   1.859  11.281
 7736W        W72721   2.505  28.879  12.047
 7737W        W72722  38.921  12.080  13.483
 7738W        W72723  12.973   3.028   4.149
 7739W        W72724  15.894  34.368  12.557
 7740W        W72725   5.925   5.652  13.799
 7741W        W72726  11.680  11.197   1.280
 7742W        W72727   6.714  16.786  10.508
 7743W        W72728   4.271   4.977   9.975
 7744W        W72729   0.140  28.157   3.665
 7745W        W72730  34.447  13.099  14.394
 7746W        W72731  37.358  40.832   0.796
 7747W        W72732  21.240   2.586   4.012
 7748W        W72733   6.617  10.839   3.155
 7749W        W72734   6.346  14.079  13.886
 7750W        W72735  30.410  20.540  13.396
 7751W        W72736  25.049  44.545   1.699
 7752W        W72737  34.939  43.573   0.917
 7753W        W72738  13.835  16.285  10.727
 7754W        W72739  37.974  17.664  11.506
 7755W        W72740   7.520  41.299  11.198
 7756W        W72741   6.876   4.863  14.908
 7757W        W72742  35.625  34.890   0.479
 7758W        W72743   9.967  15.779  11.078
 7759W        W72744  21.849   5.181   1.677
 7760W        W72745  12.063  41.541  11.991
 7761W        W72746  25.960  35.403   0.901
 7762W        W72747   3.477  11.465  13.507
 7763W        W72748  32.227  15.854  14.455
 7764W        W72749  40.885  44.082   2.817
 7765W        W72750  40.829  33.477  13.923
 7766W        W72751  41.738  44.793   2.848
 7767W        W72752  34.619  36.523   2.876
 7768W        W72753  11.335  14.318   2.860
 7769W        W72754  40.922  25.741  13.035
 7770W        W72755  29.926  33.258   1.139
 7771W        W72756   2.469   9.128   4.132
 7772W        W72757  41.266  18.142  14.831
 7773W        W72758   9.975  36.874   1.216
 7774W        W72759  33.756  16.491   3.589
 7775W        W72760  14.175  15.534  14.730
 7776W        W72761  19.348  30.338  11.816
 7777W        W72762  13.835  25.595   1.740
 7778W        W72763  41.971  34.106   2.753
 7779W        W72764  36.094  39.063   1.909
 7780W        W72765  40.117  27.525   2.942
 7781W        W72766  15.574  24.136  13.079
 7782W        W72767  44.883  35.893   0.238
 7783W        W72768  41.306   8.280  11.058
 7784W        W72769  25.000  23.655   2.827
 7785W        W72770  30.347  14.739  12.457
 7786W        W72771   2.677  13.383   3.658
 7787W        W72772  29.055  26.068  13.606
 7788W        W72773  20.809  18.784   1.240
 7789W        W72774  31.171  26.738  13.046
 7790W        W72775  10.207   4.208   1.751
 7791W        W72776   1.653  31.713   0.362
 7792W        W72777  27.891  21.101   1.441
 7793W        W72778  20.702  13.592  13.467
 7794W        W72779  38.574  30.128  11.287
 7795W        W72780  23.396  31.134   4.204
 7796W        W72781  12.005  12.276  13.880
 7797W        W72782  29.127  40.084   3.601
 7798W        W72783  20.106   6.982   5.449
 7799W        W72784  34.890  11.401   3.957
 7800W        W72785  12.959   4.795  13.802
 7801W        W72786  35.831  25.224   4.260
 7802W        W72787  27.842  23.067  11.160
 7803W        W72788  31.486   9.139   0.755
 7804W        W72789  42.475  12.158   4.018
 7805W        W72790   4.720  24.546  14.009
 7806W        W72791  29.809   5.443  13.433
 7807W        W72792  44.829  24.237   2.896
 7808W        W72793   4.303  37.389   3.318
 7809W        W72794  43.629   7.091  14.136
 7810W        W72795  24.093  33.482   1.321
 7811W        W72796  30.934  16.893  12.559
 7812W        W72797   4.874  13.194   1.647
 7813W        W72798   3.696   2.895   4.669
 7814W        W72799   3.824   1.595  11.659
 7815W        W72800  41.060  23.194  12.788
 7816W        W72801  21.229  20.049  10.478
 7817W        W72802  42.573  19.488   3.653
 7818W        W72803   8.680  35.415  14.320
 7819W        W72804  44.000  28.462   0.314
 7820W        W72805  21.816  42.213  13.606
 7821W        W72806  18.506  22.017  14.995
 7822W        W72807  21.183   3.400  14.623
 7823W        W72808  15.472  13.370   2.279
 7824W        W72809  23.453  27.611  13.447
 7825W        W72810  18.325  31.457   0.207
 7826W        W72811   3.701  34.612   3.789
 7827W        W72812  44.927  31.636   2.833
 7828W        W72813  19.598  40.574  12.379
 7829W        W72814  41.487   3.329  12.979
 7830W        W72815  26.181  22.931  14.640
 7831W        W72816   8.350   9.007  12.072
 7832W        W72817  21.546  19.380   2.367
 7833W        W72818  27.728   6.270   4.583
 7834W        W72819   4.435  35.099   3.521
 7835W        W72820  35.613   3.312  12.918
 7836W        W72821  41.740  39.130  13.356
 7837W        W72822  44.407  42.335   0.302
 7838W        W72823   5.185   3.963   4.036
 7839W        W72824  12.750  16.839  12.989
 7840W        W72825  27.401  39.993  14.611
 7841W        W72826  27.151  26.718  10.759
 7842W        W72827  40.132   6.089  11.604
 7843W        W72828  38.762  24.462  10.505
 7844W        W72829  15.641  19.478   2.225
 7845W        W72830   2.754  39.168  11.114
 7846W        W72831  21.212  41.822  11.280
 7847W        W72832  13.146   3.297   0.319
 7848W        W72833  32.617   6.198   3.913
 7849W        W72834  39.357   6.976  12.849
 7850W        W72835  15.347   2.941   1.775
 7851W        W72836  25.099   5.147   1.836
 7852W        W72837  13.532  33.101  14.980
 7853W        W72838   4.860  18.012  14.010
 7854W        W72839   8.905  30.902  12.423
 7855W        W72840  18.671   3.859  12.949
 7856W        W72841  33.042  37.717  13.928
 7857W        W72842  28.490  13.396   2.795
 7858W        W72843  15.007  20.701   2.126
 7859W        W72844  20.106  13.782  14.540
 7860W        W72845  16.580  28.187  14.383
 7861W        W72846  24.470  30.571   1.019
 7862W        W72847  13.293  35.993  11.462
 7863W        W72848  36.809   9.619   0.358
 7864W        W72849  36.494  24.949  11.125
 7865W        W72850  21.669  34.989  14.434
 7866W        W72851  19.787  37.081  14.007
 7867W        W72852   3.751  41.977   2.358
 7868W        W72853  39.845  29.028  12.929
 7869W        W72854  34.420  24.596  12.869
 7870W        W72855  39.990  37.554   1.156
 7871W        W72856   2.179  43.764   3.243
 7872W        W72857  29.464  38.912  10.353
 7873W        W72858  16.717  40.896   0.262
 7874W        W72859  17.375  42.880  14.400
 7875W        W72860  25.671  34.545   4.113
 7876W        W72861  31.487   9.497   4.517
 7877W        W72862  35.432  10.180  12.461
 7878W        W72863   9.693   4.579   4.417
 7879W        W72864  44.045  32.170  12.355
 7880W        W72865  15.697   2.487  11.517
 7881W        W72866  41.085   1.782   0.353
 7882W        W72867  12.527  42.322  10.766
 7883W        W72868  27.649  24.948   0.655
 7884W        W72869  11.211   2.907  13.391
 7885W        W72870  27.922  37.147   1.282
 7886W        W72871  24.543  34.081  12.651
 7887W        W72872  34.353  23.375  10.758
 7888W        W72873  29.222  35.915  14.057
 7889W        W72874  20.139  35.561  11.216
 7890W        W72875  37.859  37.844  13.296
 7891W        W72876  20.068  23.598  11.643
 7892W        W72877  14.256  30.142  12.968
 7893W        W72878  39.896   4.490   1.696
 7894W        W72879  38.180  16.142   4.578
 7895W        W72880  16.746  21.625   1.464
 7896W        W72881  33.375  26.104  11.740
 7897W        W72882  27.288  39.478   2.387
 7898W        W72883  25.248  43.043  13.335
 7899W        W72884   8.302  43.006  11.506
 7900W        W72885  40.719   8.292   0.894
 7901W        W72886   9.117  26.690  11.579
 7902W        W72887  33.142  30.073  11.029
 7903W        W72888   7.339   0.871   4.195
 7904W        W72889  26.714  26.621   4.941
 7905W        W72890  39.095   8.473  11.533
 7906W        W72891   6.866  19.265  11.075
 7907W        W72892  30.429  12.458   1.847
 7908W        W72893  18.532  23.055  11.008
 7909W        W72894  37.879  27.602  14.627
 7910W        W72895  38.895  20.344  12.190
 7911W        W72896  25.165   7.748  12.226
 7912W        W72897   2.365  15.312  13.087
 7913W        W72898   5.867   2.287   3.589
 7914W        W72899  11.836  19.658  11.148
 7915W        W72900   8.250  35.875   3.725
 7916W        W72901   4.428  25.920  13.477
 7917W        W72902  34.602  19.250   1.887
 7918W        W72903  43.966  24.078   2.850
 7919W        W72904  20.446  41.005   0.311
 7920W        W72905   0.563  15.904   2.971
 7921W        W72906  23.603  28.722  11.946
 7922W        W72907  39.403  44.101  11.961
 7923W        W72908   8.225  17.508   1.492
 7924W        W72909  21.280   7.032  10.387
 7925W        W72910  27.046  43.052   1.552
 7926W        W72911  44.900   1.533   3.501
 7927W        W72912  40.314  20.578  12.124
 7928W        W72913  37.607  22.705  14.083
 7929W        W72914  38.225  11.791   3.560
 7930W        W72915  37.522  44.969   2.180
 7931W        W72916  39.221  10.297   5.101
 7932W        W72917   9.143  35.935   3.750
 7933W        W72918  32.466  28.160  13.608
 7934W        W72919  37.597   1.683  14.943
 7935W        W72920   6.846  32.884   0.347
 7936W        W72921  37.331  15.256  13.531
 7937W        W72922  18.190  36.089   0.277
 7938W        W72923  17.739  44.168  14.548
 7939W        W72924  43.110  33.592  13.356
 7940W        W72925  42.270  13.413   0.213
 7941W        W72926  33.399  29.598  13.759
 7942W        W72927  19.372  20.986   4.139
 7943W        W72928  18.599  15.234   2.379
 7944W        W72929  30.541  41.258  14.038
 7945W        W72930  44.440   0.555  12.069
 7946W        W72931   0.756   2.641   1.682
 7947W        W72932  42.439  20.992   1.387
 7948W        W72933   9.100  39.112  10.988
 7949W        W72934  32.423  14.649  13.633
 7950W        W72935   2.739  14.425   1.611
 7951W        W72936  28.976   9.278   1.243
 7952W        W72937   8.884  29.483   4.546
 7953W        W72938  17.176   8.913   2.791
 7954W        W72939  39.494  44.595  11.948
 7955W        W72940  15.736  34.105   1.332
 7956W        W72941  35.402  24.297  11.788
 7957W        W72942  22.434   9.752   4.127
 7958W        W72943  28.150  18.824   4.657
 7959W        W72944  37.559   3.648   2.788
 7960W        W72945   2.210  16.805  14.905
 7961W        W72946   2.643  14.465   3.551
 7962W        W72947  14.922  41.339  14.968
 7963W        W72948  21.362  40.386   4.975
 7964W        W72949   3.396  42.286  14.967
 7965W        W72950  28.595  44.273  14.711
 7966W        W72951  31.082  31.058   3.277
 7967W        W72952  32.079  37.038   2.303
 7968W        W72953   4.419  23.497   2.356
 7969W        W72954   5.487  43.414   1.370
 7970W        W72955  20.585   1.704  11.160
 7971W        W72956  14.066  44.100  11.122
 7972W        W72957   6.650  18.758   0.006
 7973W        W72958  41.113  30.589  13.044
 7974W        W72959  36.843  39.416   1.162
 7975W        W72960  38.971  31.657   5.108
 7976W        W72961   5.176   7.244   0.817
 7977W        W72962  24.601   3.029  12.690
 7978W        W72963  41.749  31.646  13.992
 7979W        W72964  31.551  29.306  14.938
 7980W        W72965   8.021  18.676  11.661
 7981W        W72966  23.311  22.098   3.595
 7982W        W72967  25.680  28.526   5.190
 7983W        W72968  24.695  21.386  11.481
 7984W        W72969   9.246  15.415   2.434
 7985W        W72970  27.704  19.697   2.277
 7986W        W72971  17.712  16.265  11.463
 7987W        W72972   4.743   8.754   2.932
 7988W        W72973   7.895   0.935  12.625
 7989W        W72974   8.896  43.851  11.523
 7990W        W72975  30.056  29.099   0.095
 7991W        W72976  23.058   8.321   1.206
 7992W        W72977   1.847   7.198   4.419
 7993W        W72978  34.103  16.696   2.816
 7994W        W72979  39.879  34.442   3.100
 7995W        W72980  27.981  28.153  14.404
 7996W        W72981  13.446  19.008   4.562
 7997W        W72982  36.678   1.640  10.213
 7998W        W72983  42.989  23.584  14.361
 7999W        W72984   9.867  17.541   0.236
 8000W        W72985  38.387  41.505   2.393
 8001W        W72986  33.382  15.013   0.739
 8002W        W72987   3.038  10.872   3.166
 8003W        W72988  14.098  23.700   4.543
 8004W        W72989  32.065  11.817  12.350
 8005W        W72990  38.456  33.921   2.626
 8006W        W72991  10.649  30.994   0.365
 8007W        W72992   0.998  13.760  11.119
 8008W        W72993  33.138  33.671   3.224
 8009W        W72994  36.071  32.680   1.848
 8010W        W72995  41.861  31.052  13.035
 8011W        W72996  43.870   8.464   3.833
 8012W        W72997  32.825  30.759  13.551
 8013W        W72998  14.334  21.460   2.122
 8014W        W72999  16.092  12.100   2.277
 8015W        W73000  22.550  44.307  12.843
 8016W        W73001  27.812  42.100   2.838
 8017W        W73002   4.663  21.684   2.594
 8018W        W73003   7.722  39.963   0.866
 8019W        W73004  39.656  28.937   5.196
 8020W        W73005   9.432   4.867  11.967
 8021W        W73006  37.607  13.251   2.123
 8022W        W73007  18.840  28.803  13.592
 8023W        W73008   8.746   7.895  12.371
 8024W        W73009  19.589  23.923   1.961
 8025W        W73010  11.377  35.163   4.716
 8026W        W73011  41.337   1.099  13.960
 8027W        W73012  28.438  30.130   3.549
 8028W        W73013   5.768  30.336   0.178
 8029W        W73014  14.125   2.381   0.754
 8030W        W73015   6.392  12.296   0.330
 8031W        W73016  43.777  29.463   4.653
 8032W        W73017  34.340   9.068   2.688
 8033W        W73018   3.184   2.038  11.676
 8034W        W73019  20.727  35.019   3.906
 8035W        W73020  17.953  24.416   4.174
 8036W        W73021  21.223  13.173  12.571
 8037W        W73022  17.743   2.402  13.922
 8038W        W73023  29.338  24.075  12.544
 8039W        W73024  41.827   2.700  11.026
 8040W        W73025   5.371  39.759  14.103
 8041W        W73026  12.648   7.925   0.623
 8042W        W73027  21.522  39.123   3.196
 8043W        W73028  16.395  24.379   2.674
 8044W        W73029  18.698  39.875   4.449
 8045W        W73030   1.175  11.323   0.776
 8046W        W73031  26.566  28.484  11.506
 8047W        W73032  34.388  22.960   3.415
 8048W        W73033  20.058  37.360  10.791
 8049W        W73034  20.389  17.536  13.404
 8050W        W73035  21.550  32.018   2.213
 8051W        W73036   5.829  30.631   2.639
 8052W        W73037   1.038  18.160  12.578
 8053W        W73038   2.667  17.016   3.349
 8054W        W73039   3.468  28.613  13.007
 8055W        W73040  20.509  42.407   0.256
 8056W        W73041   2.921  22.306   4.331
 8057W        W73042   5.848  32.430  13.503
 8058W        W73043  31.386   6.197   0.379
 8059W        W73044  28.637  28.951  12.443
 8060W        W73045   5.414  26.491  14.417
 8061W        W73046   3.429  43.558   0.230
 8062W        W73047  13.573  27.239   2.796
 8063W        W73048  25.971  26.479  14.715
 8064W        W73049  21.542  38.319  11.113
 8065W        W73050   5.464   3.881   2.277
 8066W        W73051  20.590  29.245   0.450
 8067W        W73052   8.041  43.326   2.732
 8068W        W73053  41.746  14.998   1.872
 8069W        W73054  12.021  32.376  14.457
 8070W        W73055   2.777   0.520   4.794
 8071W        W73056  43.766  12.262   1.562
 8072W        W73057  21.256  41.333   0.278
 8073W        W73058  42.381  13.834  14.370
 8074W        W73059   8.446  22.121  14.351
 8075W        W73060  21.292   9.652  14.705
 8076W        W73061  35.583  42.693  11.564
 8077W        W73062   1.269  13.162  13.372
 8078W        W73063  20.711  44.504   3.735
 8079W        W73064   2.792  27.353   3.688
 8080W        W73065  28.456  30.909  14.648
 8081W        W73066  14.201  33.639   5.020
 8082W        W73067  28.392  34.879   2.718
 8083W        W73068  32.389  35.224  12.499
 8084W        W73069  34.173  24.569   4.808
 8085W        W73070  16.821  15.604   0.403
 8086W        W73071   8.917  38.487   4.051
 8087W        W73072   8.264   5.904  11.589
 8088W        W73073  16.378  38.127   0.705
 8089W        W73074   9.284  42.031   4.629
 8090W        W73075  21.032  26.418  12.035
 8091W        W73076   1.500  17.001   0.365
 8092W        W73077  22.537   2.757   4.412
 8093W        W73078  34.804   8.473   0.141
 8094W        W73079  35.682   1.165   1.251
 8095W        W73080  22.516  20.726   1.757
 8096W        W73081  14.278  11.916   3.769
 8097W        W73082  23.757  20.372  14.021
 8098W        W73083  26.171  39.035  13.981
 8099W        W73084  38.068  13.808   0.983
 8100W        W73085  13.504   0.819  11.593
 8101W        W73086   0.501  11.359  13.933
 8102W        W73087  13.755  35.120  13.573
 8103W        W73088  34.677  41.005   4.970
 8104W        W73089  26.177  36.640  13.953
 8105W        W73090  30.191   9.354  12.153
 8106W        W73091  26.285  18.681  10.966
 8107W        W73092  19.625  16.173   2.303
 8108W        W73093  40.783  42.409  11.979
 8109W        W73094  37.599   2.530  13.030
 8110W        W73095  19.313  41.466   5.073
 8111W        W73096  40.016  25.468   3.303
 8112W        W73097  20.714  42.820  13.179
 8113W        W73098  26.638  15.290  12.470
 8114W        W73099  39.363  32.648  12.060
 8115W        W73100  13.944  39.839  13.031
 8116W        W73101  15.399   9.704  11.506
 8117W        W73102  27.194  10.135  11.512
 8118W        W73103  16.326  10.132  13.091
 8119W        W73104  38.582  14.263   2.723
 8120W        W73105  35.284  44.535   0.930
 8121W        W73106  10.536   1.429  11.554
 8122W        W73107  24.602   0.439   3.119
 8123W        W73108  36.524  43.719  11.455
 8124W        W73109  23.973  17.032   4.059
 8125W        W73110  37.355  11.305   2.725
 8126W        W73111  17.540  37.748   3.292
 8127W        W73112  15.537  21.898   3.856
 8128W        W73113  42.983  42.785   4.140
 8129W        W73114  44.174  36.942  10.387
 8130W        W73115  40.243  28.288   4.589
 8131W        W73116  39.509  23.028   4.553
 8132W        W73117  15.984  14.599   0.860
 8133W        W73118  22.091  32.736   3.275
 8134W        W73119  18.419  25.281   4.210
 8135W        W73120  10.522  37.667   2.655
 8136W        W73121  12.368  27.723  11.120
 8137W        W73122   8.319  30.111  10.691
 8138W        W73123  28.081   5.227  13.597
 8139W        W73124  19.004  41.529  14.024
 8140W        W73125   5.361   1.238   0.706
 8141W        W73126  26.345  12.386   2.318
 8142W        W73127  38.002  32.525  11.670
 8143W        W73128  24.158  23.987   2.756
 8144W        W73129  11.247  22.073  14.132
 8145W        W73130  18.429  15.745   3.777
 8146W        W73131  36.543  33.126   4.508
 8147W        W73132  41.543  30.206   4.741
 8148W        W73133  27.159  44.423   4.191
 8149W        W73134  37.772  13.266  14.813
 8150W        W73135  11.065   5.314   4.129
 8151W        W73136  33.668  19.765   0.910
 8152W        W73137  16.598   6.912   3.178
 8153W        W73138  41.413  20.015  13.559
 8154W        W73139   4.160  39.759  11.098
 8155W        W73140  13.753  28.855  11.247
 8156W        W73141  39.146  27.993  11.122
 8157W        W73142  16.086  28.645   0.447
 8158W        W73143   8.306  35.101   4.298
 8159W        W73144  35.863   5.330   4.018
 8160W        W73145  13.313  23.014   3.244
 8161W        W73146   7.878  29.410  10.657
 8162W        W73147  10.288  16.772  12.121
 8163W        W73148  11.233  34.431   0.874
 8164W        W73149  22.737  19.148  11.884
 8165W        W73150  43.887  42.478  13.598
 8166W        W73151  43.495  44.774   3.256
 8167W        W73152  39.928  37.952   3.449
 8168W        W73153  10.807  36.059   1.046
 8169W        W73154  11.681  18.160  13.163
 8170W        W73155  23.954  10.945  13.023
 8171W        W73156  12.647  16.610   1.927
 8172W        W73157  16.072  44.273  14.286
 8173W        W73158  17.071   0.923  14.701
 8174W        W73159  13.707  36.446   4.625
 8175W        W73160  37.349  21.549   3.365
 8176W        W73161   7.665   1.495  11.459
 8177W        W73162   5.395   2.961   2.471
 8178W        W73163  43.899   0.759   2.999
 8179W        W73164  34.150   9.917   3.628
 8180W        W73165  39.879   4.189   2.126
 8181W        W73166  37.361  19.663  12.122
 8182W        W73167  13.120  44.753  14.900
 8183W        W73168  30.095  38.017   2.142
 8184W        W73169  30.075  24.560  10.734
 8185W        W73170  42.917   7.837   0.667
 8186W        W73171   7.311  42.002  13.489
 8187W        W73172  35.649  21.297   1.334
 8188W        W73173  22.721   8.364  14.385
 8189W        W73174  43.663  15.761   2.410
 8190W        W73175   0.256  22.888  13.372
 8191W        W73176  29.657  33.866  13.358
 8192W        W73177   8.425  35.331   2.417
 8193W        W73178  19.827  25.119   4.072
 8194W        W73179  16.832  19.323   3.268
 8195W        W73180  12.808  42.994   0.460
 8196W        W73181   1.465   0.605   2.793
 8197W        W73182  31.792  42.131   0.371
 8198W        W73183   5.399  35.323   4.683
 8199W        W73184  15.701  19.251   4.648
 8200W        W73185   8.928  21.127   4.978
 8201W        W73186  31.816  18.434  12.911
 8202W        W73187  13.218   4.116  11.951
 8203W        W73188  35.161  29.480  12.632
 8204W        W73189   1.492  28.525  14.333
 8205W        W73190  28.665  23.229  14.406
 8206W        W73191  44.651   9.311   1.843
 8207W        W73192  26.898  38.001  14.293
 8208W        W73193  13.927  41.768  11.485
 8209W        W73194  15.591   4.691  12.013
 8210W        W73195  24.648  25.497   3.036
 8211W        W73196  16.571   3.442   1.706
 8212W        W73197  40.590  30.410  14.184
 8213W        W73198  31.000  12.897   4.957
 8214W        W73199  16.727   0.336  12.465
 8215W        W73200   8.403   2.376  14.304
 8216W        W73201   0.022  34.933   3.116
 8217W        W73202   2.351  15.313  12.565
 8218W        W73203  24.546  34.771   2.660
 8219W        W73204  15.642  33.946   4.868
 8220W        W73205   1.459   4.314   4.833
 8221W        W73206  15.724  33.707   3.183
 8222W        W73207  12.172  28.245   0.278
 8223W        W73208  30.994  44.352  14.978
 8224W        W73209   8.426  34.273  11.623
 8225W        W73210   1.444  12.666   0.539
 8226W        W73211  26.209   9.602   4.123
 8227W        W73212  31.903  40.407  13.780
 8228W        W73213  32.933   1.192   1.740
 8229W        W73214   6.450  11.598   0.977
 8230W        W73215  32.219  40.981  12.961
 8231W        W73216  44.937  19.990   3.204
 8232W        W73217  44.043   7.117  14.870
 8233W        W73218  42.562  38.055  13.418
 8234W        W73219  36.366  44.030  12.395
 8235W        W73220  28.668  44.843  12.038
 8236W        W73221  14.921   8.908  11.890
 8237W        W73222  21.151  19.982  13.966
 8238W        W73223  14.635  23.577   4.272
 8239W        W73224  33.399   0.432  11.498
 8240W        W73225  24.424  28.099   4.148
 8241W        W73226  10.604   2.332   0.260
 8242W        W73227  36.631   9.405   0.809
 8243W        W73228  44.984  14.075  13.081
 8244W        W73229  31.115  37.035   3.635
 8245W        W73230  33.582  18.896   3.746
 8246W        W73231  27.207  13.888  13.592
 8247W        W73232  17.535  12.337   1.670
 8248W        W73233  20.241  31.620   0.126
 8249W        W73234   6.650  31.459   3.808
 8250W        W73235  41.928  38.272  12.916
 8251W        W73236  40.410   0.912   2.405
 8252W        W73237  37.584  36.532  13.580
 8253W        W73238   5.114  36.867  13.695
 8254W        W73239   7.423   9.826   1.779
 8255W        W73240  22.163  31.552  11.206
 8256W        W73241  22.787  13.874  10.371
 8257W        W73242  39.001   3.894   0.791
 8258W        W73243   5.328  39.007   0.630
 8259W        W73244  17.477  38.052   3.731
 8260W        W73245  13.502  41.450  10.648
 8261W        W73246  16.316  42.401  11.190
 8262W        W73247  38.484   3.770   3.531
 8263W        W73248   4.335  43.363   4.115
 8264W        W73249  15.240  11.136   3.616
 8265W        W73250   1.843  41.544   2.650
 8266W        W73251  35.504  13.265   0.217
 8267W        W73252  19.794  22.548  14.896
 8268W        W73253   7.739  21.278  12.704
 8269W        W73254  43.800  27.928  11.042
 8270W        W73255  20.143  35.915  11.616
 8271W        W73256  40.446  29.852  11.609
 8272W        W73257   5.644  27.376  10.427
 8273W        W73258   7.244  29.911  12.939
 8274W        W73259   8.444  16.640   3.654
 8275W        W73260  13.637  41.969  13.693
 8276W        W73261  38.056   4.037   0.962
 8277W        W73262  17.540   1.224   0.759
 8278W        W73263  13.065   1.857   0.235
 8279W        W73264   3.804  34.453  14.253
 8280W        W73265   3.424  28.494  11.187
 8281W        W73266  11.030  10.899  12.446
 8282W        W73267  18.686  21.215  12.600
 8283W        W73268   1.519  44.842   3.245
 8284W        W73269  30.980  37.814  14.418
 8285W        W73270  33.945   5.457   1.454
 8286W        W73271  19.223  14.908   3.228
 8287W        W73272  43.269  24.179  14.779
 8288W        W73273  17.795  26.752  14.453
 8289W        W73274  15.495   6.042  14.388
 8290W        W73275  20.440  36.584  14.555
 8291W        W73276   7.434  15.646   3.732
 8292W        W73277  25.622  14.875   1.427
 8293W        W73278   0.807   8.709  11.661
 8294W        W73279  32.609  24.657  11.733
 8295W        W73280   7.547  43.979   0.337
 8296W        W73281  43.918  18.789   0.883
 8297W        W73282   9.835   9.376  12.748
 8298W        W73283   5.713  25.001  13.666
 8299W        W73284  26.918  10.470  13.781
 8300W        W73285   9.761   8.770  13.942
 8301W        W73286   3.462  36.988   0.454
 8302W        W73287  38.135   6.496   9.761
 8303W        W73288  16.550  43.162  13.993
 8304W        W73289  27.590  29.398   2.253
 8305W        W73290  21.691  32.936   3.543
 8306W        W73291  14.028  44.721  13.038
 8307W        W73292  11.822  41.253  14.285
 8308W        W73293   5.906  31.478  13.410
 8309W        W73294  29.919  20.083   4.247
 8310W        W73295   1.020   8.553  14.375
 8311W        W73296  38.617  24.131  11.367
 8312W        W73297  17.820  15.813  10.545
 8313W        W73298  42.803  34.829  13.230
 8314W        W73299  10.234  35.862   9.978
 8315W        W73300  26.947  10.537  14.837
 8316W        W73301   0.567  35.854  12.910
 8317W        W73302  40.951  27.140   1.357
 8318W        W73303  32.598  40.940   1.261
 8319W        W73304  21.590  34.451  13.713
 8320W        W73305   7.910  42.494  12.383
 8321W        W73306  36.422  26.135  13.448
 8322W        W73307  36.452  23.575   1.715
 8323W        W73308  34.554   9.600   3.631
 8324W        W73309  33.635  14.596  13.800
 8325W        W73310  21.759   3.843   1.949
 8326W        W73311  33.833   3.294  11.649
 8327W        W73312  16.648  38.159   1.792
 8328W        W73313   9.295  34.818  11.455
 8329W        W73314  25.015  14.747   4.586
 8330W        W73315  44.912  27.075   0.613
 8331W        W73316  22.590  42.489   1.267
 8332W        W73317  17.454  12.374  12.367
 8333W        W73318  22.735   8.618  14.869
 8334W        W73319  26.460  30.586   1.776
 8335W        W73320  41.491  25.019   2.648
 8336W        W73321  38.487  32.492   1.378
 8337W        W73322  18.308  30.341   4.167
 8338W        W73323   3.858  37.080   0.071
 8339W        W73324  29.127  31.102   2.197
 8340W        W73325  19.648   7.481  14.172
 8341W        W73326  14.444  38.338  13.933
 8342W        W73327  42.534   3.611  13.953
 8343W        W73328  31.828  21.521  12.474
 8344W        W73329  30.354   6.436   2.307
 8345W        W73330   1.451  11.668   1.337
 8346W        W73331  21.343   9.640   2.799
 8347W        W73332  33.717  36.332   2.845
 8348W        W73333  20.510  40.687   1.583
 8349W        W73334  37.483  15.796  13.474
 8350W        W73335   0.483  25.477  11.637
 8351W        W73336   6.016  19.488  10.664
 8352W        W73337  24.799  34.866   0.344
 8353W        W73338  27.511  13.555  11.920
 8354W        W73339  11.793  26.583   3.991
 8355W        W73340  28.450  41.556  12.068
 8356W        W73341  28.211  43.395   3.775
 8357W        W73342  28.508   9.459  10.480
 8358W        W73343  11.437  22.565  12.375
 8359W        W73344  36.479  43.617   4.473
 8360W        W73345  37.915  26.187  11.605
 8361W        W73346  31.366  10.436  10.572
 8362W        W73347  38.333  16.947  10.095
 8363W        W73348  23.553  35.867   1.399
 8364W        W73349  17.087  18.619   0.035
 8365W        W73350  31.073  37.791   2.592
 8366W        W73351  10.799  13.264  14.332
 8367W        W73352  27.202  27.140  13.970
 8368W        W73353  22.463  27.984  10.449
 8369W        W73354   6.184  42.751  10.435
 8370W        W73355  42.897  13.128  12.438
 8371W        W73356   7.848  26.460  11.603
 8372W        W73357  28.421  36.542  10.693
 8373W        W73358   0.538  32.105   3.769
 8374W        W73359  20.571  33.875  14.703
 8375W        W73360  28.551   4.391   3.385
 8376W        W73361  24.509  26.587   3.746
 8377W        W73362  27.426  33.390   2.657
 8378W        W73363  37.392  39.008  13.312
 8379W        W73364  30.741  26.063  13.956
 8380W        W73365  19.668  17.074  14.099
 8381W        W73366   7.319   3.363   1.317
 8382W        W73367   1.374  28.303   3.117
 8383W        W73368  36.141   0.799   2.337
 8384W        W73369  20.926  31.148  13.384
 8385W        W73370   8.752  10.218   4.587
 8386W        W73371   3.953  40.146   2.317
 8387W        W73372   1.740  17.156  10.675
 8388W        W73373  19.626  12.729  12.143
 8389W        W73374   9.836  20.545  11.254
 8390W        W73375  30.822  41.295  13.589
 8391W        W73376  23.328  37.783   2.271
 8392W        W73377   9.458  13.491  11.285
 8393W        W73378  30.645  23.521  12.174
 8394W        W73379   7.909  26.717   4.290
 8395W        W73380  28.197  43.420  14.836
 8396W        W73381  42.444   8.031   4.250
 8397W        W73382  12.259  41.904   3.115
 8398W        W73383  14.645   3.422   1.730
 8399W        W73384   3.018  23.474   3.667
 8400W        W73385  26.929  36.887  12.007
 8401W        W73386  15.079   5.620  13.894
 8402W        W73387  31.918  11.672  13.858
 8403W        W73388  38.270  16.707  13.714
 8404W        W73389  40.748   0.289  10.885
 8405W        W73390  28.566  21.551  10.661
 8406W        W73391  26.074  41.061  11.597
 8407W        W73392  27.673  39.630   3.678
 8408W        W73393  13.532   2.731   3.432
 8409W        W73394  41.025  24.209   0.327
 8410W        W73395   1.852  17.218  14.381
 8411W        W73396  34.143   8.634  11.738
 8412W        W73397   4.402  17.665   4.178
 8413W        W73398  16.165  36.605   3.644
 8414W        W73399   0.832   6.900  14.016
 8415W        W73400  12.561   8.368  14.300
 8416W        W73401  33.875  38.301  14.914
 8417W        W73402  41.369   6.788  11.420
 8418W        W73403  19.729   9.245   1.631
 8419W        W73404  34.983  32.399  14.533
 8420W        W73405  22.634  23.108  10.557
 8421W        W73406  20.947  32.014  14.504
 8422W        W73407  15.056   2.710   2.300
 8423W        W73408  15.156  12.335  13.349
 8424W        W73409  36.811  28.011  13.944
 8425W        W73410  14.774  44.945   0.277
 8426W        W73411  35.933  19.822  10.592
 8427W        W73412   4.306   4.178  10.442
 8428W        W73413  24.433   5.313   3.767
 8429W        W73414  40.211   6.454  11.223
 8430W        W73415  11.372  43.471   1.846
 8431W        W73416  40.752   2.449   0.297
 8432W        W73417  43.163   6.045  11.199
 8433W        W73418  10.311  31.714  14.973
 8434W        W73419  35.812  25.592   1.720
 8435W        W73420  35.815  35.114  12.322
 8436W        W73421   9.320  21.647   2.222
 8437W        W73422  17.485  11.613   2.126
 8438W        W73423  10.724  39.538   4.477
 8439W        W73424  37.415  28.908  13.467
 8440W        W73425  23.709  18.587   5.633
 8441W        W73426   2.204  10.801   1.479
 8442W        W73427  13.333  25.600  14.573
 8443W        W73428  17.105  44.423  10.321
 8444W        W73429  17.527  21.179  14.472
 8445W        W73430  26.478  40.923  14.827
 8446W        W73431  30.387   1.758  14.809
 8447W        W73432  31.615  33.099  10.998
 8448W        W73433  28.722  44.548  14.284
 8449W        W73434   5.304  36.881  11.480
 8450W        W73435   3.463  12.281   2.225
 8451W        W73436  31.176  21.456  13.030
 8452W        W73437   4.160   0.458  13.719
 8453W        W73438  23.254  39.990  13.414
 8454W        W73439  13.875  23.610   2.334
 8455W        W73440  34.252   2.485   4.005
 8456W        W73441  22.198  13.697   4.923
 8457W        W73442  13.834  40.880   1.461
 8458W        W73443  36.608  10.486  13.441
 8459W        W73444   7.966  22.055  13.479
 8460W        W73445  14.315  44.491  12.000
 8461W        W73446  39.249   4.425   0.047
 8462W        W73447  16.819   5.813  11.327
 8463W        W73448  33.108  33.396  11.100
 8464W        W73449   1.895  42.921   4.524
 8465W        W73450  36.057  35.531  12.533
 8466W        W73451  21.322  14.764   2.677
 8467W        W73452  12.324  17.825  10.743
 8468W        W73453   0.777  17.581  10.838
 8469W        W73454  14.238  23.806  13.390
 8470W        W73455  44.447  22.785   2.780
 8471W        W73456  16.569  41.714   1.018
 8472W        W73457  37.404  27.062  10.774
 8473W        W73458  26.795  33.669  11.802
 8474W        W73459   8.723  24.892   3.266
 8475W        W73460  12.942  36.478  12.602
 8476W        W73461  15.424   9.786  13.917
 8477W        W73462  14.625  36.845   3.614
 8478W        W73463   6.336   6.976   4.559
 8479W        W73464  33.613  31.974  13.566
 8480W        W73465  24.041  31.314  14.947
 8481W        W73466  39.294  10.044   2.244
 8482W        W73467  23.282  31.027   0.622
 8483W        W73468  19.728   1.088  13.657
 8484W        W73469   5.534  13.812  14.834
 8485W        W73470  17.185  12.575  11.953
 8486W        W73471  27.843  42.840  14.845
 8487W        W73472  44.734  18.034   1.305
 8488W        W73473   9.877  27.543   1.855
 8489W        W73474   6.703  41.637   0.152
 8490W        W73475  42.860  13.751   1.046
 8491W        W73476  44.143  17.002  12.693
 8492W        W73477  38.238  39.715  11.686
 8493W        W73478  44.716  43.448   3.921
 8494W        W73479  19.712  15.482   1.911
 8495W        W73480   3.823   3.778   1.688
 8496W        W73481   9.850  10.894   3.669
 8497W        W73482  41.536   0.023   0.237
 8498W        W73483   8.259  33.970   4.522
 8499W        W73484  21.761  44.719   1.536
 8500W        W73485   3.604  33.828   1.352
 8501W        W73486  18.264  24.605   1.797
 8502W        W73487  14.269  39.984  14.378
 8503W        W73488  31.192   3.416  10.137
 8504W        W73489  16.797   4.334  13.000
 8505W        W73490  27.537  37.931   1.268
 8506W        W73491  16.545  39.501   1.690
 8507W        W73492  22.744  43.423   2.304
 8508W        W73493  40.471   5.389  13.860
 8509W        W73494  41.014  23.000   3.725
 8510W        W73495  27.400  44.760   2.293
 8511W        W73496  20.036  30.929   3.143
 8512W        W73497  41.482  41.501   0.505
 8513W        W73498   7.017  17.117   1.974
 8514W        W73499  40.518  10.884  12.841
 8515W        W73500  11.895  42.403  14.804
 8516W        W73501  42.975  20.274  11.073
 8517W        W73502  41.122  36.036   1.795
 8518W        W73503   4.828  33.053   4.695
 8519W        W73504  17.775  39.949  12.998
 8520W        W73505  44.510   3.503  14.641
 8521W        W73506  11.886  38.372   4.433
 8522W        W73507   7.577  32.845   1.479
 8523W        W73508  24.229   2.553   5.360
 8524W        W73509   3.341  12.608   0.206
 8525W        W73510  25.421  29.688  11.986
 8526W        W73511  15.155  23.564   1.498
 8527W        W73512   3.640  23.563   1.153
 8528W        W73513  22.862   9.197  11.072
 8529W        W73514  31.108   4.974  13.417
 8530W        W73515  43.382  38.418   1.272
 8531W        W73516  27.941  22.887  13.853
 8532W        W73517   9.745  16.927   4.772
 8533W        W73518  28.029   0.307   1.851
 8534W        W73519  21.681   0.710   1.250
 8535W        W73520  29.179  36.314  12.168
 8536W        W73521  18.285  28.516  11.998
 8537W        W73522   3.387  28.841  12.552
 8538W        W73523   0.765  44.292  10.739
 8539W        W73524   2.974  33.715  11.135
 8540W        W73525  24.054  41.982  14.911
 8541W        W73526   9.295  32.932  13.391
 8542W        W73527   3.484  14.483   3.346
 8543W        W73528  27.124  43.051  10.709
 8544W        W73529  41.379   5.428   4.542
 8545W        W73530  25.503  43.890  14.983
 8546W        W73531  31.114  21.799  14.280
 8547W        W73532  25.880  17.192   3.142
 8548W        W73533   8.816  25.374   1.359
 8549W        W73534  38.443   8.163  12.311
 8550W        W73535  13.794   2.480  12.067
 8551W        W73536  44.752  33.966   2.436
 8552W        W73537  13.473  42.502   3.284
 8553W        W73538  14.890  37.256   4.141
 8554W        W73539  19.747  36.460  12.564
 8555W        W73540  35.803  22.961   4.583
 8556W        W73541  12.166  12.237   4.092
 8557W        W73542  29.922  27.166  11.189
 8558W        W73543  28.714  26.094  14.234
 8559W        W73544  34.015   8.580   2.347
 8560W        W73545  26.417  35.483  13.915
 8561W        W73546  17.180  19.283   5.660
 8562W        W73547  27.660  32.537  13.958
 8563W        W73548  14.611  25.679   1.214
 8564W        W73549  18.007   1.696  13.588
 8565W        W73550  12.352  28.551   2.582
 8566W        W73551  43.891  26.194  12.390
 8567W        W73552  33.040  12.260   2.152
 8568W        W73553  37.913  14.044  13.515
 8569W        W73554  35.515  44.528   3.992
 8570W        W73555  20.817   8.315   3.796
 8571W        W73556  23.494  32.031   3.192
 8572W        W73557  23.444  24.989  13.837
 8573W        W73558   2.305  36.837   2.220
 8574W        W73559  28.507   5.923  12.568
 8575W        W73560  21.595   6.196  10.343
 8576W        W73561  24.792   8.778   0.771
 8577W        W73562  34.497  24.938   0.708
 8578W        W73563   9.857  33.662  11.546
 8579W        W73564  17.506  30.861   3.064
 8580W        W73565   1.746  35.186  11.627
 8581W        W73566  36.865  10.993  10.425
 8582W        W73567  41.855  43.500   0.296
 8583W        W73568  26.986   0.349  10.527
 8584W        W73569  25.991  18.859   2.401
 8585W        W73570  16.409  39.896   2.468
 8586W        W73571  20.300  16.660   2.421
 8587W        W73572  23.575  31.559   4.449
 8588W        W73573   0.711  37.345  13.184
 8589W        W73574  32.852  32.158  14.315
 8590W        W73575  26.986  42.551   3.064
 8591W        W73576  13.861   3.599   4.317
 8592W        W73577  39.733  34.885   3.336
 8593W        W73578  20.544  24.988  11.085
 8594W        W73579   1.005  18.779  10.462
 8595W        W73580  43.002   8.689   0.458
 8596W        W73581   7.260  23.693   0.768
 8597W        W73582  24.524  17.152  13.856
 8598W        W73583  32.912  39.071  12.679
 8599W        W73584  38.640  44.872  13.845
 8600W        W73585   2.732   9.202  13.018
 8601W        W73586  21.250  11.905   1.279
 8602W        W73587  24.950  18.762   0.811
 8603W        W73588  27.496  18.336   1.425
 8604W        W73589   6.898  27.351   2.681
 8605W        W73590  22.133  28.378   1.911
 8606W        W73591  31.494  11.644  13.521
 8607W        W73592  23.201  12.606   3.770
 8608W        W73593   8.962  22.349   3.710
 8609W        W73594   9.658  15.167  12.699
 8610W        W73595  19.826  41.997   1.741
 8611W        W73596  31.692  32.096  13.568
 8612W        W73597  30.650  44.576  13.173
 8613W        W73598  31.978   8.600   3.208
 8614W        W73599  33.907  32.134  13.087
 8615W        W73600   3.748  25.217   3.609
 8616W        W73601   2.786  28.451  11.872
 8617W        W73602  23.730  31.730   0.836
 8618W        W73603  10.340  43.041  11.098
 8619W        W73604  30.521  25.099  14.449
 8620W        W73605  15.801  10.809   4.584
 8621W        W73606  17.305  41.363  11.584
 8622W        W73607  18.768  39.078   1.977
 8623W        W73608  24.030  31.527  13.558
 8624W        W73609  35.936  37.418  14.336
 8625W        W73610  17.827   0.798  14.155
 8626W        W73611  22.839  11.756  11.025
 8627W        W73612   3.475  30.134  13.107
 8628W        W73613  18.104  44.910  14.257
 8629W        W73614   1.553  30.494   4.048
 8630W        W73615  23.620  38.368  14.530
 8631W        W73616  31.976  16.812   0.417
 8632W        W73617   9.765  39.173  14.920
 8633W        W73618   3.738  43.981   3.323
 8634W        W73619  44.732  16.524   1.878
 8635W        W73620  32.855  26.093  11.734
 8636W        W73621   0.902  27.087  14.278
 8637W        W73622  27.007   2.054  14.329
 8638W        W73623  42.190  15.575   5.069
 8639W        W73624  29.608   3.769   3.334
 8640W        W73625  35.597  19.008   2.138
 8641W        W73626  42.267   2.183  13.366
 8642W        W73627  33.886  38.525  13.954
 8643W        W73628   6.421   9.748  12.502
 8644W        W73629  28.553  18.301  11.146
 8645W        W73630  13.504  44.727  13.046
 8646W        W73631  16.780   7.932   4.921
 8647W        W73632  32.050  20.021   0.411
 8648W        W73633  19.322  41.431   1.216
 8649W        W73634   4.032  11.681  10.353
 8650W        W73635  20.187  25.844   3.274
 8651W        W73636  14.581  14.815  14.779
 8652W        W73637  18.958  16.675  13.824
 8653W        W73638  23.243  14.681  13.458
 8654W        W73639   0.993  16.179   2.885
 8655W        W73640  24.562  32.712   0.443
 8656W        W73641  21.584  26.063  14.564
 8657W        W73642   8.819  16.264  13.669
 8658W        W73643  30.500  14.717   2.446
 8659W        W73644  38.890  18.513   0.332
 8660W        W73645   3.925  22.045   0.790
 8661W        W73646   6.788   1.992  12.816
 8662W        W73647  26.132  44.318  10.360
 8663W        W73648  39.952  32.318   0.526
 8664W        W73649  35.542  38.784   0.818
 8665W        W73650  40.407   2.956  10.800
 8666W        W73651  12.797  27.489   1.938
 8667W        W73652  23.238  20.474  12.838
 8668W        W73653  14.308  34.332  14.292
 8669W        W73654  32.143   5.395   4.376
 8670W        W73655  44.112  20.071  10.940
 8671W        W73656   4.028  26.802   1.379
 8672W        W73657   6.855   7.886  11.176
 8673W        W73658  18.809  13.745   2.242
 8674W        W73659  34.980  13.601   0.834
 8675W        W73660   4.505   9.863   4.355
 8676W        W73661  11.582  12.848  11.146
 8677W        W73662   8.814  10.558   0.493
 8678W        W73663  29.119  18.870  12.096
 8679W        W73664  20.239  26.069  11.619
 8680W        W73665   0.757  35.134  12.406
 8681W        W73666  21.111  19.768   1.646
 8682W        W73667  19.373  15.297  12.026
 8683W        W73668  42.312  32.879  12.067
 8684W        W73669  21.065  15.477   0.823
 8685W        W73670  22.874  28.313  13.418
 8686W        W73671  37.249  40.534   3.711
 8687W        W73672  18.644  21.397  11.567
 8688W        W73673  40.591  40.049  12.589
 8689W        W73674  19.099  25.191  12.041
 8690W        W73675   2.821  23.007   3.701
 8691W        W73676  44.497  28.469  12.002
 8692W        W73677  29.408  38.478  12.403
 8693W        W73678  36.573   1.950   1.800
 8694W        W73679  27.080  28.493  14.388
 8695W        W73680   8.238  15.899  14.805
 8696W        W73681  38.905  31.081  11.488
 8697W        W73682  26.100  18.822   3.294
 8698W        W73683  29.392  17.234  14.845
 8699W        W73684  15.690   2.985   5.438
 8700W        W73685   3.198  20.292   1.666
 8701W        W73686  36.873  41.493   2.896
 8702W        W73687  30.065  21.255   1.906
 8703W        W73688  19.518  18.838   3.225
 8704W        W73689  38.309  24.657   3.556
 8705W        W73690  32.878  39.424  14.904
 8706W        W73691  35.712  15.301  13.737
 8707W        W73692   2.952  28.068  14.434
 8708W        W73693   6.040   6.559  10.818
 8709W        W73694  27.042  29.400   4.454
 8710W        W73695  24.580  20.672  12.902
 8711W        W73696  18.301  37.237  13.474
 8712W        W73697   7.751  40.347   2.269
 8713W        W73698  31.511  41.266   3.680
 8714W        W73699   0.793  23.925  12.028
 8715W        W73700  11.861  31.399   4.260
 8716W        W73701  41.353  28.510  10.541
 8717W        W73702  31.417  22.609   0.437
 8718W        W73703  38.096  33.461  11.620
 8719W        W73704  21.566  16.343   2.155
 8720W        W73705  32.535  19.537   1.100
 8721W        W73706   6.644  37.896   0.474
 8722W        W73707  18.337  31.408   1.238
 8723W        W73708  37.482  28.234   3.802
 8724W        W73709  10.887   3.227  12.436
 8725W        W73710  27.789   8.273   0.633
 8726W        W73711  31.614  21.770   4.800
 8727W        W73712  22.103  34.583   2.466
 8728W        W73713   1.817  29.669  11.185
 8729W        W73714  18.751  36.003  12.422
 8730W        W73715   4.805   8.838   1.477
 8731W        W73716  33.651  13.305   3.290
 8732W        W73717  12.955  33.564  14.147
 8733W        W73718  19.394  13.647  11.199
 8734W        W73719   1.683  12.893   2.295
 8735W        W73720   3.923  37.389   2.396
 8736W        W73721  16.451   9.845  11.187
 8737W        W73722  34.358   0.734  10.760
 8738W        W73723  13.189  32.950  12.594
 8739W        W73724  44.433   3.281   3.572
 8740W        W73725  33.161  22.563   0.290
 8741W        W73726  29.781   1.794  10.640
 8742W        W73727   2.869  20.759  13.776
 8743W        W73728  12.321  26.838   1.479
 8744W        W73729  42.028   8.176  14.357
 8745W        W73730   6.531   9.611  14.202
 8746W        W73731  13.544   3.539  11.147
 8747W        W73732  40.010   7.119  11.730
 8748W        W73733  19.247  13.672  13.104
 8749W        W73734  29.016   7.377  11.484
 8750W        W73735  32.222   3.191   3.844
 8751W        W73736   6.023   0.826  11.214
 8752W        W73737  14.575  38.895  11.231
 8753W        W73738  22.245   5.294  13.529
 8754W        W73739   8.868  44.667   0.411
 8755W        W73740  33.655   5.867  10.165
 8756W        W73741  32.513  33.489  13.397
 8757W        W73742  38.198  24.284  11.101
 8758W        W73743  35.144  43.565   3.729
 8759W        W73744  19.544   6.569  12.643
 8760W        W73745  24.306  40.351   0.874
 8761W        W73746   6.741  40.073  11.142
 8762W        W73747  13.561  13.121  13.402
 8763W        W73748  41.302  15.376  14.781
 8764W        W73749  35.547  43.747   0.294
 8765W        W73750  15.306  27.759  12.138
 8766W        W73751  39.264  37.579   3.129
 8767W        W73752  32.464  37.297  10.407
 8768W        W73753  30.382  34.243   3.757
 8769W        W73754  37.753  44.363  14.950
 8770W        W73755   9.272  13.696  14.209
 8771W        W73756  39.623   2.803   4.404
 8772W        W73757  30.077   2.645   2.682
 8773W        W73758   8.197  33.587   1.460
 8774W        W73759  24.512  26.463   5.174
 8775W        W73760  28.447  21.007   4.354
 8776W        W73761  20.496  31.183   2.926
 8777W        W73762  19.225  25.750  11.069
 8778W        W73763   2.906   9.658   2.225
 8779W        W73764  38.844  10.970   1.384
 8780W        W73765  10.912   8.775  14.397
 8781W        W73766  16.576  18.544  13.999
 8782W        W73767   7.879   9.202  11.971
 8783W        W73768  30.657  24.603  10.701
 8784W        W73769  31.531  35.000  14.488
 8785W        W73770  22.736  35.652   0.886
 8786W        W73771   2.526  33.234   1.505
 8787W        W73772  41.160   5.951  13.532
 8788W        W73773  19.881  41.157   0.436
 8789W        W73774   0.673  35.029   2.777
 8790W        W73775  11.032  16.195  13.480
 8791W        W73776  30.422   3.186  14.056
 8792W        W73777  22.396   2.725  11.982
 8793W        W73778   9.600  34.371  12.151
 8794W        W73779   7.968  26.971  13.728
 8795W        W73780  26.737   5.240   3.734
 8796W        W73781  13.921  12.480  11.109
 8797W        W73782  11.204  29.035   3.073
 8798W        W73783  19.526  34.549   1.849
 8799W        W73784  38.257  12.804  10.968
 8800W        W73785  31.679  37.547  10.758
 8801W        W73786  26.222  26.107  14.353
 8802W        W73787  10.732  16.871   4.169
 8803W        W73788  42.933  39.411  14.938
 8804W        W73789  29.918  18.526   1.265
 8805W        W73790  16.414  28.955   3.641
 8806W        W73791  16.973  11.126   2.798
 8807W        W73792  13.414  35.785   2.562
 8808W        W73793  34.515   7.399   4.515
 8809W        W73794  19.905  21.745   9.828
 8810W        W73795  41.148  31.714  14.959
 8811W        W73796  37.105  42.749   0.508
 8812W        W73797  16.266  38.896   4.328
 8813W        W73798  36.775  44.452   2.162
 8814W        W73799   5.736  19.290  13.905
 8815W        W73800  19.531  10.310   3.143
 8816W        W73801  21.615  25.536   0.180
 8817W        W73802   5.398  44.805   3.679
 8818W        W73803  38.829  34.032  10.508
 8819W        W73804  17.184   2.195  12.348
 8820W        W73805  15.913   9.961  13.885
 8821W        W73806  42.336   0.866  13.057
 8822W        W73807  35.360   6.930   3.711
 8823W        W73808   8.775  38.715  13.677
 8824W        W73809  40.534  27.460  11.133
 8825W        W73810  37.058   3.690  12.932
 8826W        W73811  18.452  19.598  12.996
 8827W        W73812   8.732  26.332   0.165
 8828W        W73813   0.502  11.337  14.886
 8829W        W73814  26.376  23.700  11.021
 8830W        W73815  26.348  38.289  11.553
 8831W        W73816  23.120  35.555  13.282
 8832W        W73817   1.260  42.436   2.413
 8833W        W73818   4.859  26.567  10.645
 8834W        W73819  42.828   2.971   1.437
 8835W        W73820   0.029  38.440   2.922
 8836W        W73821   9.899  11.185  13.980
 8837W        W73822  22.121  14.826   2.237
 8838W        W73823   4.919  21.065   1.328
 8839W        W73824  32.034  16.216  12.576
 8840W        W73825  29.095  21.571  11.289
 8841W        W73826  38.648  11.598  10.878
 8842W        W73827  43.725  29.452  14.751
 8843W        W73828   3.251  10.162  11.879
 8844W        W73829   8.034   6.385  10.748
 8845W        W73830  36.323  37.633  13.509
 8846W        W73831  27.620  35.354  13.898
 8847W        W73832  32.026  12.062   4.557
 8848W        W73833  23.467  34.465  12.684
 8849W        W73834  43.840   7.455  11.096
 8850W        W73835   7.873  17.826  14.241
 8851W        W73836  35.847   9.623   0.895
 8852W        W73837  38.722  12.907  11.172
 8853W        W73838   8.989  36.887  11.921
 8854W        W73839  25.803  40.986  12.026
 8855W        W73840  13.378  18.856   1.227
 8856W        W73841  26.651  36.921   2.507
 8857W        W73842  14.512  16.626  11.533
 8858W        W73843  10.085  26.722   4.671
 8859W        W73844  15.739  25.489   2.100
 8860W        W73845  29.064  22.335  11.066
 8861W        W73846  34.080   9.963  10.360
 8862W        W73847   6.269  28.244   0.199
 8863W        W73848   8.786  25.897  11.553
 8864W        W73849  43.463  33.202  12.981
 8865W        W73850  27.391  20.416  14.246
 8866W        W73851  29.246   7.632  10.672
 8867W        W73852  14.264  11.684   1.764
 8868W        W73853  40.765  30.877   1.389
 8869W        W73854   0.967  39.898   3.354
 8870W        W73855  17.155  44.845   2.578
 8871W        W73856  15.408  24.165  13.977
 8872W        W73857  40.733   7.927   3.324
 8873W        W73858  15.699  44.034   3.741
 8874W        W73859   3.830  16.566  13.788
 8875W        W73860  15.576  10.873  11.234
 8876W        W73861  30.112   3.150   9.957
 8877W        W73862  41.229   4.445  10.761
 8878W        W73863   3.023  13.253   4.716
 8879W        W73864  37.856   1.969   1.455
 8880W        W73865  38.932   1.258  12.386
 8881W        W73866  17.928  18.485   4.804
 8882W        W73867  29.844  36.183  14.841
 8883W        W73868  14.816   0.179  11.531
 8884W        W73869  16.115  26.009  10.718
 8885W        W73870  30.976  11.671   3.050
 8886W        W73871  39.505  11.189   4.205
 8887W        W73872  15.781  27.939  12.219
 8888W        W73873   3.930  43.410  14.068
 8889W        W73874  36.083  31.157   0.960
 8890W        W73875  14.566   4.117  14.386
 8891W        W73876   0.478   1.024  14.804
 8892W        W73877  23.656   2.951  12.947
 8893W        W73878   5.255  13.616  14.430
 8894W        W73879  38.121  21.539   0.403
 8895W        W73880  42.954   4.932  12.602
 8896W        W73881  14.298   6.804   3.221
 8897W        W73882  12.990   1.400  11.142
 8898W        W73883  20.787  11.157   2.462
 8899W        W73884   3.340  39.666   3.897
 8900W        W73885   6.188  12.901   3.645
 8901W        W73886  27.366  36.980  14.279
 8902W        W73887  28.590  26.664  13.017
 8903W        W73888  19.528  44.866   3.307
 8904W        W73889  26.452  19.051   2.395
 8905W        W73890  12.236  44.299  12.076
 8906W        W73891   2.915  19.184   0.878
 8907W        W73892  14.010  14.858   0.801
 8908W        W73893  10.119  30.156  14.969
 8909W        W73894  38.771  11.615  11.635
 8910W        W73895  29.685  17.762  11.557
 8911W        W73896  25.789  43.849   3.946
 8912W        W73897  23.462  35.298  14.078
 8913W        W73898  43.256  17.729  14.699
 8914W        W73899  40.493  19.815  14.941
 8915W        W73900   6.645  19.071   2.889
 8916W        W73901   4.804  19.780  10.583
 8917W        W73902  38.554  12.888  13.471
 8918W        W73903   0.540   1.291  13.477
 8919W        W73904  39.627  14.260   4.550
 8920W        W73905  33.594   9.695   3.048
 8921W        W73906  25.689  42.951  14.070
 8922W        W73907  11.654   9.940  10.657
 8923W        W73908   1.354   4.591  11.582
 8924W        W73909  15.405  10.640   0.692
 8925W        W73910  14.635  44.185  10.726
 8926W        W73911  22.613   6.352  11.683
 8927W        W73912  17.603  35.520  13.514
 8928W        W73913  29.257  35.120   3.229
 8929W        W73914  17.600   8.470   3.415
 8930W        W73915  13.903  30.880   2.834
 8931W        W73916  33.186  17.762  10.664
 8932W        W73917  14.715  41.282   3.135
 8933W        W73918  42.860  11.591  14.295
 8934W        W73919  13.614  32.259   2.173
 8935W        W73920  17.499  28.486   0.038
 8936W        W73921  21.630  26.047   0.074
 8937W        W73922  11.828   5.787   1.663
 8938W        W73923  44.406  13.366  11.019
 8939W        W73924   0.390  44.379  14.224
 8940W        W73925   1.420   1.849  14.306
 8941W        W73926  38.831  24.182  14.789
 8942W        W73927  39.861   0.892   1.060
 8943W        W73928  32.953   8.000   2.327
 8944W        W73929  19.039  33.014  14.966
 8945W        W73930  25.685   7.653  12.139
 8946W        W73931  30.403  38.315   1.665
 8947W        W73932  44.074  10.397   1.605
 8948W        W73933  36.546  40.854   0.874
 8949W        W73934   8.447  38.506  11.118
 8950W        W73935   8.902  22.206  12.133
 8951W        W73936  42.999  23.715   2.260
 8952W        W73937  14.581  21.124   2.453
 8953W        W73938   6.934   0.054   0.420
 8954W        W73939  42.899   2.389  12.799
 8955W        W73940  23.790   5.815   1.649
 8956W        W73941  15.341   3.402   2.905
 8957W        W73942  41.774  19.048  13.881
 8958W        W73943   9.237  32.975   3.251
 8959W        W73944   5.391  24.238  10.762
 8960W        W73945  38.608  21.237  11.109
 8961W        W73946  21.078  14.353   2.148
 8962W        W73947  12.864  37.334   4.032
 8963W        W73948  29.128  35.428  14.970
 8964W        W73949  10.733  17.061  13.346
 8965W        W73950   0.231  20.308   2.909
 8966W        W73951  15.188   2.841   3.653
 8967W        W73952  25.784   6.438  14.138
 8968W        W73953  38.089  26.767   1.835
 8969W        W73954   7.937   5.247   3.661
 8970W        W73955   0.862  23.023   1.902
 8971W        W73956  14.271  44.432   2.641
 8972W        W73957  10.204  34.847   4.304
 8973W        W73958  23.797  31.663   2.907
 8974W        W73959  43.980  13.672  12.207
 8975W        W73960  32.046  12.159  10.274
 8976W        W73961  23.706  42.548   2.724
 8977W        W73962  34.903  29.022   0.820
 8978W        W73963  29.442   9.637  13.326
 8979W        W73964   7.948  26.237  12.075
 8980W        W73965  29.705  19.611  13.586
 8981W        W73966  22.287  31.205   3.285
 8982W        W73967  34.850  17.222   3.733
 8983W        W73968  39.744  19.052  14.394
 8984W        W73969  10.686  44.123  11.174
 8985W        W73970  12.963   2.997  13.939
 8986W        W73971  33.630  21.013   4.615
 8987W        W73972   4.965   4.948  14.885
 8988W        W73973  30.590  34.089  14.410
 8989W        W73974  23.184  14.894   2.418
 8990W        W73975  34.311  42.348   0.318
 8991W        W73976  34.458  33.452   0.663
 8992W        W73977  43.725  27.526   2.712
 8993W        W73978  14.833   0.011   1.143
 8994W        W73979   0.478  17.328   1.306
 8995W        W73980  19.690  36.677   3.668
 8996W        W73981  12.557  28.432  10.618
 8997W        W73982   4.650  35.054   4.054
 8998W        W73983   6.446  24.787   3.434
 8999W        W73984  10.755  28.187  10.378
 9000W        W73985  25.084  35.894   3.889
 9001W        W73986  18.580  25.692   3.925
 9002W        W73987  44.962  20.996  10.513
 9003W        W73988  14.604  35.892   3.612
 9004W        W73989  36.508  32.522  13.380
 9005W        W73990  38.903  38.940   3.190
 9006W        W73991   1.490  39.009   0.906
 9007W        W73992  27.072  42.572   1.336
 9008W        W73993   0.253  26.898  12.611
 9009W        W73994  40.560  28.435  14.388
 9010W        W73995  12.192   1.738  14.309
 9011W        W73996   9.907  43.944   3.824
 9012W        W73997  14.364  22.526   4.103
 9013W        W73998  16.357  28.977  14.874
 9014W        W73999  43.474  27.105  11.070
 9015W        W74000  44.487  12.291  14.851
 9016W        W74001  33.803  27.096   2.059
 9017W        W74002  35.273  41.789  13.949
 9018W        W74003  31.215  30.141  14.938
 9019W        W74004  22.610   2.662  13.851
 9020W        W74005  26.201  22.384  14.011
 9021W        W74006  31.880  20.208   4.056
 9022W        W74007  19.303  30.746   4.086
 9023W        W74008   3.862   3.425   4.047
 9024W        W74009   0.887  18.261  13.926
 9025W        W74010  17.334   7.225   3.979
 9026W        W74011  42.278  43.989  13.973
 9027W        W74012  30.090  25.978  13.936
 9028W        W74013  15.551  39.832   2.211
 9029W        W74014  42.041   6.214  11.551
 9030W        W74015  30.862   3.404   1.121
 9031W        W74016   1.729  11.498   4.664
 9032W        W74017  26.407  12.282  13.449
 9033W        W74018  19.584  29.431  14.917
 9034W        W74019  24.008  13.500   2.051
 9035W        W74020  10.587   2.484   4.255
 9036W        W74021  16.679  26.945  11.601
 9037W        W74022  39.396  12.256  13.393
 9038W        W74023  10.397  37.015  13.368
 9039W        W74024  15.863   7.888   0.770
 9040W        W74025  42.578   4.109   1.638
 9041W        W74026  37.186  14.743  12.094
 9042W        W74027  17.634   9.108  14.318
 9043W        W74028  43.296  37.033  12.022
 9044W        W74029  22.144  27.980   0.295
 9045W        W74030  29.610   3.839   0.480
 9046W        W74031  16.671  38.127   2.700
 9047W        W74032   0.875  23.197  11.230
 9048W        W74033   2.682  23.604  12.099
 9049W        W74034  24.971  32.631  13.482
 9050W        W74035  42.944   8.249   4.175
 9051W        W74036  30.871   4.267  11.612
 9052W        W74037  39.591  39.039   0.600
 9053W        W74038   3.406  11.322   1.094
 9054W        W74039  39.928  25.797  14.432
 9055W        W74040   3.989  36.415   2.600
 9056W        W74041  23.882  12.459  14.404
 9057W        W74042   3.535   6.507  11.091
 9058W        W74043  19.753   8.777  12.673
 9059W        W74044   2.798  43.744  13.440
 9060W        W74045   5.002  24.420  12.553
 9061W        W74046  34.898  16.552   3.239
 9062W        W74047  30.072  13.093  14.758
 9063W        W74048   5.807  38.297   0.729
 9064W        W74049  26.516  31.838   2.349
 9065W        W74050  18.642  16.401   2.712
 9066W        W74051  33.648  32.471  10.548
 9067W        W74052  38.043  42.679   3.768
 9068W        W74053   6.258  33.584  10.854
 9069W        W74054  22.662  24.040   0.997
 9070W        W74055  20.258  24.833  13.134
 9071W        W74056  13.676   1.438   2.707
 9072W        W74057   8.785   2.917  12.027
 9073W        W74058  28.738  24.764  13.273
 9074W        W74059  10.322   6.714   1.850
 9075W        W74060  33.591  35.638  10.645
 9076W        W74061  19.269  37.466  14.520
 9077W        W74062   2.302  41.249   3.735
 9078W        W74063  31.222  16.633  13.063
 9079W        W74064  20.314  26.541  11.415
 9080W        W74065  25.198  42.978   3.211
 9081W        W74066  19.104  16.111   2.775
 9082W        W74067   1.724   9.943   4.345
 9083W        W74068  18.960   9.433   1.326
 9084W        W74069  19.716  16.043   2.788
 9085W        W74070  19.706  11.823  10.672
 9086W        W74071  28.735  34.184   4.974
 9087W        W74072  37.169  26.617  10.650
 9088W        W74073  42.878  35.612  12.154
 9089W        W74074  22.790  31.224   4.512
 9090W        W74075  15.734  30.124  13.099
 9091W        W74076  43.951  41.751   0.840
 9092W        W74077  13.933   8.513   1.754
 9093W        W74078  27.447  43.978  14.615
 9094W        W74079  32.201  18.696   3.721
 9095W        W74080  44.971   3.122   2.642
 9096W        W74081  37.534  32.853   4.326
 9097W        W74082   2.336  35.273   1.305
 9098W        W74083   2.748  12.787  14.565
 9099W        W74084  40.748  16.143   1.401
 9100W        W74085  37.104  19.121   1.334
 9101W        W74086  22.149  42.331  14.531
 9102W        W74087  32.387  27.784  14.339
 9103W        W74088  44.018  39.546   3.685
 9104W        W74089  28.297   9.644  14.404
 9105W        W74090  40.555  12.632   2.991
 9106W        W74091  18.527  37.886   4.284
 9107W        W74092   2.064   1.238  14.139
 9108W        W74093  17.850  18.492   1.905
 9109W        W74094  26.718  22.702   2.222
 9110W        W74095  13.192  25.125   3.389
 9111W        W74096   3.972  42.188  11.659
 9112W        W74097  15.183  38.568  10.606
 9113W        W74098  13.800   5.406   1.522
 9114W        W74099   7.945  15.718  13.936
 9115W        W74100  18.998  17.785  12.985
 9116W        W74101  27.647  12.300   2.780
 9117W        W74102  33.976  36.024  12.577
 9118W        W74103  25.976  11.079   0.033
 9119W        W74104  33.622  12.634   0.343
 9120W        W74105  34.959  12.429  11.948
 9121W        W74106  17.916  28.547  11.658
 9122W        W74107   2.807   8.807  13.961
 9123W        W74108  30.681  19.087   0.458
 9124W        W74109   4.032   1.353   2.210
 9125W        W74110  29.935   1.967  14.585
 9126W        W74111  22.572  38.473   3.413
 9127W        W74112  13.037   4.807  10.868
 9128W        W74113  25.449  40.703   3.570
 9129W        W74114  21.380  13.400   5.059
 9130W        W74115  18.701   4.563  11.152
 9131W        W74116   5.634  43.070   3.615
 9132W        W74117  19.481  41.540  14.810
 9133W        W74118   1.313  43.461   2.247
 9134W        W74119  10.890  34.888  11.002
 9135W        W74120  20.392  35.356  12.110
 9136W        W74121  34.286  16.110  14.454
 9137W        W74122  34.291  13.221   3.789
 9138W        W74123  24.974   2.714  12.494
 9139W        W74124   1.021  44.979  14.224
 9140W        W74125  28.173  25.028  12.226
 9141W        W74126  15.620  32.422  12.687
 9142W        W74127  42.922  28.039  13.266
 9143W        W74128  40.377   1.504   0.919
 9144W        W74129  26.083  40.414   1.812
 9145W        W74130  19.090  11.031   0.670
 9146W        W74131  25.451  16.641   3.577
 9147W        W74132  13.969  17.188   2.184
 9148W        W74133  42.022  11.405   1.338
 9149W        W74134  19.350  16.150   3.671
 9150W        W74135  21.107  13.577   1.752
 9151W        W74136  33.630   8.203  12.572
 9152W        W74137  14.615   4.033   3.616
 9153W        W74138  44.384   4.241   4.814
 9154W        W74139  29.561  22.277   0.526
 9155W        W74140  26.967  40.516  10.762
 9156W        W74141   0.207   2.994  12.085
 9157W        W74142  22.238  18.189   2.900
 9158W        W74143   3.689  38.895   2.784
 9159W        W74144   7.032  29.961   4.495
 9160W        W74145   4.040   0.730  14.706
 9161W        W74146  19.113   2.305   1.625
 9162W        W74147  36.524   0.401  12.375
 9163W        W74148   9.329  34.467   2.359
 9164W        W74149  36.302  38.000  10.731
 9165W        W74150   3.077  23.167  11.158
 9166W        W74151  36.579  41.872  12.028
 9167W        W74152  13.539  44.232   4.066
 9168W        W74153  11.191  34.612   2.377
 9169W        W74154  35.837   1.283   3.604
 9170W        W74155   3.590  14.739   0.901
 9171W        W74156   0.897   3.346  13.076
 9172W        W74157  17.082  35.638  11.497
 9173W        W74158  40.912  40.594  14.774
 9174W        W74159  12.124  37.099   3.318
 9175W        W74160   4.926   4.970  13.815
 9176W        W74161  35.150  30.564   2.173
 9177W        W74162  13.311   3.740   2.671
 9178W        W74163  34.102  20.127  12.136
 9179W        W74164  21.808  24.041   2.290
 9180W        W74165  37.553   4.133  14.697
 9181W        W74166  44.405  40.868  10.492
 9182W        W74167  17.387  15.596  10.725
 9183W        W74168  36.228  33.034   4.090
 9184W        W74169  14.110   7.749   2.410
 9185W        W74170  28.472  16.592  13.930
 9186W        W74171  11.601  38.056  13.865
 9187W        W74172  41.642  35.116   0.234
 9188W        W74173  44.440   7.882  10.059
 9189W        W74174  18.488  17.558  12.958
 9190W        W74175  19.013   6.296  11.816
 9191W        W74176  12.351  44.036  14.917
 9192W        W74177  17.868  13.285   1.885
 9193W        W74178  35.411  40.102  12.047
 9194W        W74179   6.323  23.221  11.446
 9195W        W74180  24.925   6.307  11.590
 9196W        W74181  40.385  36.060  13.860
 9197W        W74182  42.539  24.667  14.535
 9198W        W74183  43.516  32.077   0.812
 9199W        W74184  22.952  37.830   4.475
 9200W        W74185   2.637  17.110  14.788
 9201W        W74186  33.097  30.082   1.760
 9202W        W74187  23.502  29.067  11.259
 9203W        W74188   9.745   9.469   3.785
 9204W        W74189  40.827  23.840   0.657
 9205W        W74190   0.663  20.808   1.303
 9206W        W74191  26.524  16.316  12.260
 9207W        W74192  30.188  13.708   3.227
 9208W        W74193  29.857  14.296   4.896
 9209W        W74194   4.361  42.745  10.348
 9210W        W74195  29.500  43.951   1.406
 9211W        W74196  27.583  13.978  12.730
 9212W        W74197  42.981   2.022  13.406
 9213W        W74198  29.515  29.939   3.580
 9214W        W74199  44.856  29.915   0.721
 9215W        W74200  33.053  35.533  13.509
 9216W        W74201  21.152  13.345  12.077
 9217W        W74202   9.129  17.871   2.228
 9218W        W74203  21.025  17.276   1.692
 9219W        W74204  31.560  38.549  13.989
 9220W        W74205  16.470   6.023  12.573
 9221W        W74206  34.459  21.603  13.675
 9222W        W74207  41.153  29.923   4.560
 9223W        W74208   7.292  39.401  10.694
 9224W        W74209  36.029  21.447  12.892
 9225W        W74210  20.306  28.257  11.221
 9226W        W74211  18.529  40.702   2.768
 9227W        W74212  34.379  40.742   2.765
 9228W        W74213  35.109   3.042  12.043
 9229W        W74214  20.097  28.595  12.536
 9230W        W74215  36.933  24.366  13.387
 9231W        W74216   5.511   7.626   4.534
 9232W        W74217  37.335  20.065   3.747
 9233W        W74218   4.959  12.763   3.441
 9234W        W74219  39.983  13.623  12.530
 9235W        W74220  31.543  16.677   3.586
 9236W        W74221  37.560  24.620  14.522
 9237W        W74222   9.718  26.282   2.704
 9238W        W74223  37.073  14.738  12.605
 9239W        W74224   4.493   0.757  10.829
 9240W        W74225  43.246  40.505   2.560
 9241W        W74226  36.032   2.959   4.163
 9242W        W74227  39.344   0.020   4.186
 9243W        W74228   0.584   8.446   4.762
 9244W        W74229  36.113  21.182   4.018
 9245W        W74230  44.303  20.343   2.883
 9246W        W74231  35.159  31.835   5.059
 9247W        W74232  25.347  26.557   4.686
 9248W        W74233   1.328  34.101   1.430
 9249W        W74234  13.450  17.037   5.074
 9250W        W74235  17.551  40.907   3.704
 9251W        W74236  17.175   2.468  13.867
 9252W        W74237  25.485  38.578   0.328
 9253W        W74238  21.444  28.743   2.390
 9254W        W74239  29.094  37.811   1.306
 9255W        W74240   0.738   3.838   1.254
 9256W        W74241  37.928  34.730  12.046
 9257W        W74242  14.343  44.765  13.990
 9258W        W74243  11.395  11.654  12.156
 9259W        W74244  15.513   4.703  13.790
 9260W        W74245  14.600   7.806  13.313
 9261W        W74246  40.029   9.431   1.450
 9262W        W74247  29.226  32.127   0.800
 9263W        W74248  29.496  29.976  10.619
 9264W        W74249   3.440  25.026  13.070
 9265W        W74250  26.621  36.781   1.350
 9266W        W74251  36.048  13.077  12.575
 9267W        W74252  12.175  19.022   0.305
 9268W        W74253  21.505  28.738   3.681
 9269W        W74254  28.217   6.880  14.827
 9270W        W74255   0.859  35.498   2.946
 9271W        W74256   4.773  15.755   3.592
 9272W        W74257  35.036   5.690   4.657
 9273W        W74258  15.092  40.980  14.281
 9274W        W74259  25.631  44.677  12.092
 9275W        W74260  13.709  19.983  10.810
 9276W        W74261  39.249  28.188  12.137
 9277W        W74262   5.872  23.840  12.609
 9278W        W74263   4.929  12.778  12.679
 9279W        W74264   7.372  12.062   2.708
 9280W        W74265  36.407   3.928   2.343
 9281W        W74266  34.880  44.044   2.950
 9282W        W74267  43.186   0.703   2.339
 9283W        W74268  40.939  25.624   0.976
 9284W        W74269  17.093   1.968   4.978
 9285W        W74270  39.013  18.244   0.783
 9286W        W74271  15.559   2.005  11.601
 9287W        W74272   0.158   8.170   0.725
 9288W        W74273   9.907  19.506   1.388
 9289W        W74274  13.403  42.894   0.997
 9290W        W74275  28.477  41.043  11.504
 9291W        W74276   9.392  26.830  11.160
 9292W        W74277  39.049   8.936  14.557
 9293W        W74278  24.231  36.376   0.179
 9294W        W74279  15.209  20.011   4.285
 9295W        W74280  30.693  12.245  12.684
 9296W        W74281  21.535  43.537  10.184
 9297W        W74282   1.482   0.773  14.769
 9298W        W74283  17.849  12.160  14.917
 9299W        W74284   0.805  19.793   1.270
 9300W        W74285  44.850  31.460   4.223
 9301W        W74286  17.521  42.403   3.466
 9302W        W74287  12.289   0.626  11.276
 9303W        W74288  28.023   3.870  11.143
 9304W        W74289  10.623   2.427  11.663
 9305W        W74290  43.821  24.683   3.592
 9306W        W74291  11.375  17.130  14.352
 9307W        W74292  41.601  44.024  10.479
 9308W        W74293   2.735  41.272  13.491
 9309W        W74294  24.094  10.443  13.795
 9310W        W74295  26.013   4.856  14.998
 9311W        W74296  43.938  20.243  11.405
 9312W        W74297  25.386  16.695  13.855
 9313W        W74298  42.085  31.349   0.326
 9314W        W74299   5.349  34.258  14.223
 9315W        W74300   5.332  15.265  13.571
 9316W        W74301   2.555   5.291   0.319
 9317W        W74302   4.628  12.844  10.301
 9318W        W74303  30.809  19.167  11.214
 9319W        W74304  35.496  10.280  14.529
 9320W        W74305  34.317   5.347   4.160
 9321W        W74306  26.057  14.166  10.604
 9322W        W74307  21.321  35.871   2.334
 9323W        W74308  22.281  17.603  12.210
 9324W        W74309  33.945  34.460  11.620
 9325W        W74310   5.130  10.785  12.083
 9326W        W74311  26.295  21.586  11.996
 9327W        W74312   3.686   9.997  14.866
 9328W        W74313  17.238   9.277  12.838
 9329W        W74314  39.020  24.085   0.262
 9330W        W74315  43.815  30.307   1.756
 9331W        W74316   8.207  29.700  12.399
 9332W        W74317  36.476  13.877  14.398
 9333W        W74318  33.547   3.947   1.931
 9334W        W74319  33.838  10.575   0.939
 9335W        W74320  15.123  18.669   4.299
 9336W        W74321  40.174  23.071  13.836
 9337W        W74322  36.697  11.850  10.562
 9338W        W74323   4.837  28.561  10.378
 9339W        W74324  27.629  20.638   3.238
 9340W        W74325  40.985  27.689   9.849
 9341W        W74326   7.092  43.848  11.987
 9342W        W74327  27.124  38.886  11.169
 9343W        W74328   3.196  37.566  14.074
 9344W        W74329  34.997  19.731  13.992
 9345W        W74330  43.930  34.268  12.379
 9346W        W74331  33.596   4.700   3.229
 9347W        W74332   4.855  14.811   3.862
 9348W        W74333   5.387  31.570  12.324
 9349W        W74334  40.258   4.765   5.292
 9350W        W74335  17.591   8.654  13.812
 9351W        W74336  23.633  18.409  10.106
 9352W        W74337  26.717  44.616  14.696
 9353W        W74338  13.783   5.210   2.385
 9354W        W74339  25.926  23.823  12.145
 9355W        W74340  22.568  20.762  13.503
 9356W        W74341   6.413  37.505  11.909
 9357W        W74342   6.317  12.442   0.803
 9358W        W74343   9.663  42.956   3.282
 9359W        W74344  38.897   6.228   2.384
 9360W        W74345   0.514  19.818  11.949
 9361W        W74346  24.120  18.548   1.196
 9362W        W74347  15.111  35.124   1.870
 9363W        W74348  19.002  30.435  14.331
 9364W        W74349  40.364  10.038   3.165
 9365W        W74350  40.698   5.768  13.418
 9366W        W74351  32.816  18.478   2.972
 9367W        W74352  17.671  26.672   2.242
 9368W        W74353  31.035  13.833  11.838
 9369W        W74354  44.277  24.884  12.384
 9370W        W74355  35.069  36.342   2.702
 9371W        W74356  24.630  21.253   1.395
 9372W        W74357  25.585   1.025   2.325
 9373W        W74358  33.532  31.967   3.258
 9374W        W74359  18.002  12.495   2.323
 9375W        W74360  39.396   4.847  11.512
 9376W        W74361  10.955  24.090  13.847
 9377W        W74362   8.924  42.120  13.356
 9378W        W74363  35.840  29.484  11.058
 9379W        W74364  31.637  34.998   2.627
 9380W        W74365  13.055  16.792  13.431
 9381W        W74366   6.160  38.125  14.904
 9382W        W74367  43.316   1.214   2.294
 9383W        W74368  41.508   0.754   1.139
 9384W        W74369  40.847  34.106   2.376
 9385W        W74370  35.982  19.064   1.441
 9386W        W74371   6.763   3.012  14.851
 9387W        W74372  34.617   1.244  10.726
 9388W        W74373  25.399  39.499   0.207
 9389W        W74374  25.589  44.778   0.387
 9390W        W74375  28.940  11.953   2.425
 9391W        W74376  29.060  10.212   3.680
 9392W        W74377  25.651  32.732  13.034
 9393W        W74378  21.024  21.675   1.694
 9394W        W74379  14.361  14.076  14.025
 9395W        W74380  20.862  14.576   2.601
 9396W        W74381   2.345   0.164  12.418
 9397W        W74382   7.614  36.730  13.883
 9398W        W74383  43.217   1.014   0.836
 9399W        W74384  31.129   0.894  12.509
 9400W        W74385   4.993   1.111  14.789
 9401W        W74386  41.026   4.744   1.385
 9402W        W74387  44.814  23.524  12.101
 9403W        W74388  16.046   5.925   2.329
 9404W        W74389  21.304   7.169   4.237
 9405W        W74390  28.657   7.315   4.868
 9406W        W74391  23.561   0.387  14.564
 9407W        W74392  36.045   7.706   4.575
 9408W        W74393  28.714  23.070   4.627
 9409W        W74394  38.964  40.981   3.773
 9410W        W74395  14.003  30.576  11.372
 9411W        W74396  16.928  38.111   0.537
 9412W        W74397  31.957  26.209   1.449
 9413W        W74398  23.085  20.474   0.946
 9414W        W74399  37.244   0.063   2.952
 9415W        W74400  25.120  19.616  13.118
 9416W        W74401  40.618  23.057   2.867
 9417W        W74402  28.298   4.882   0.833
 9418W        W74403  24.720  38.416  11.631
 9419W        W74404  30.910  34.242  12.016
 9420W        W74405  20.130  11.389  12.479
 9421W        W74406   0.315  41.980  10.701
 9422W        W74407  12.737   0.022   0.742
 9423W        W74408  26.787  38.993  12.555
 9424W        W74409   7.391  28.564  10.674
 9425W        W74410  16.812  22.258  10.440
 9426W        W74411  39.358  24.400  14.048
 9427W        W74412  14.704  34.417   1.807
 9428W        W74413  14.799  40.872   2.284
 9429W        W74414   3.464   3.008  10.650
 9430W        W74415   4.630   9.059   3.688
 9431W        W74416  16.603  16.184   4.461
 9432W        W74417  22.563  17.516  11.160
 9433W        W74418  42.908  41.020  11.550
 9434W        W74419  26.941  12.097   0.295
 9435W        W74420  22.006  39.907   2.131
 9436W        W74421  44.713  31.866  14.457
 9437W        W74422  37.691  21.212  11.070
 9438W        W74423  26.577  20.558  14.836
 9439W        W74424   8.161  19.928  11.135
 9440W        W74425  44.011  21.783  11.450
 9441W        W74426  12.445  14.593   1.423
 9442W        W74427  28.622  44.356   2.293
 9443W        W74428  27.438  27.657  12.375
 9444W        W74429  25.615  29.641  14.837
 9445W        W74430  24.014  34.442  11.201
 9446W        W74431  40.383  33.269  10.032
 9447W        W74432  40.827  26.834   4.498
 9448W        W74433  20.201  36.493   3.429
 9449W        W74434   8.484  34.549   1.782
 9450W        W74435  38.974   6.722   2.286
 9451W        W74436  44.493   7.614   1.731
 9452W        W74437  35.127  41.383  14.253
 9453W        W74438  21.057  15.237  12.393
 9454W        W74439  15.090  35.483   4.737
 9455W        W74440  41.956   2.820   0.954
 9456W        W74441   1.187  34.884  14.280
 9457W        W74442  10.436  15.771   3.704
 9458W        W74443  30.976  37.834  12.433
 9459W        W74444  29.651  27.125   1.420
 9460W        W74445  26.197   3.465   4.522
 9461W        W74446  43.304  40.307  14.461
 9462W        W74447   2.732  27.730  11.191
 9463W        W74448   2.840  14.199  13.339
 9464W        W74449  15.364  12.850  13.944
 9465W        W74450   6.535  40.287   3.790
 9466W        W74451  32.471  22.560  13.874
 9467W        W74452   1.450  24.263  14.937
 9468W        W74453  14.475  32.671   0.620
 9469W        W74454   8.709  38.925   1.076
 9470W        W74455  25.305  44.885   0.949
 9471W        W74456  34.908  23.802   4.481
 9472W        W74457  28.099   2.288  13.874
 9473W        W74458  32.616  12.083   5.205
 9474W        W74459  22.918  35.098   4.680
 9475W        W74460  39.345  21.558  10.516
 9476W        W74461  36.761  44.033  12.729
 9477W        W74462  39.888  38.904  13.021
 9478W        W74463   4.500  19.857   3.111
 9479W        W74464   9.231  21.579   3.087
 9480W        W74465  35.311  12.431   0.244
 9481W        W74466  23.033  18.258   2.385
 9482W        W74467  14.158  16.287  12.236
 9483W        W74468  37.282   8.791  12.598
 9484W        W74469  13.619   5.611  11.550
 9485W        W74470   4.453  30.323   2.257
 9486W        W74471   4.527  14.951  12.473
 9487W        W74472  21.343  21.696  12.066
 9488W        W74473  40.472  14.687  10.740
 9489W        W74474  13.151  14.994   2.881
 9490W        W74475   1.502   2.528   4.774
 9491W        W74476   1.278   3.173   4.031
 9492W        W74477  13.336   3.269   1.801
 9493W        W74478  10.726  23.759  10.830
 9494W        W74479  27.098   8.454   4.089
 9495W        W74480  39.603  40.247  10.742
 9496W        W74481  43.770  24.050   1.382
 9497W        W74482   0.490  32.325   3.294
 9498W        W74483  22.076   3.882   3.195
 9499W        W74484  29.729  21.127  11.496
 9500W        W74485  25.061  33.667  14.835
 9501W        W74486  34.780  40.012   2.207
 9502W        W74487   0.726  25.074  12.832
 9503W        W74488  20.458  14.333   0.257
 9504W        W74489   7.229  37.961  14.238
 9505W        W74490  19.749  29.472  13.917
 9506W        W74491  13.879  15.075  11.407
 9507W        W74492  17.104  43.435   2.656
 9508W        W74493  12.149  27.389  13.422
 9509W        W74494  34.833   4.641  14.034
 9510W        W74495  35.508  36.629   3.433
 9511W        W74496  15.168   4.368   2.350
 9512W        W74497  31.789  23.805  13.146
 9513W        W74498   2.024  42.085  14.503
 9514W        W74499  25.451  12.261   4.262
 9515W        W74500   5.161   9.540  13.984
 9516W        W74501  27.625  19.281  14.408
 9517W        W74502  12.664  12.674  13.337
 9518W        W74503  22.573   6.729   2.661
 9519W        W74504   1.525  31.458   4.089
 9520W        W74505  40.321  16.788   0.870
 9521W        W74506   2.222  22.096  12.033
 9522W        W74507  43.567  35.924  12.621
 9523W        W74508  26.364  11.532   1.838
 9524W        W74509  24.765  25.761   1.292
 9525W        W74510  15.722   5.946  14.877
 9526W        W74511   6.670   6.948   1.425
 9527W        W74512  26.898   9.617  13.092
 9528W        W74513  36.807  14.299  12.801
 9529W        W74514   6.833  14.666  14.510
 9530W        W74515  35.498  34.465   4.285
 9531W        W74516   6.230  21.229  13.933
 9532W        W74517   1.823   5.371   4.550
 9533W        W74518  10.579  10.323   2.138
 9534W        W74519  30.826  12.948   1.002
 9535W        W74520  16.592  15.291   0.014
 9536W        W74521  43.699  40.796   3.147
 9537W        W74522  36.860  10.447   1.352
 9538W        W74523  21.445  20.129   5.405
 9539W        W74524  17.929  18.812   9.747
 9540W        W74525  20.319  44.450  11.019
 9541W        W74526  26.922  16.088  10.616
 9542W        W74527  41.389  25.038  13.356
 9543W        W74528   4.692  41.372  11.751
 9544W        W74529  24.587  20.354  10.582
 9545W        W74530  24.157  38.554  13.789
 9546W        W74531  37.545  39.816  12.525
 9547W        W74532   4.395  24.286  14.363
 9548W        W74533   1.233   5.262   3.596
 9549W        W74534   7.218  29.078   4.883
 9550W        W74535  43.454  29.623  10.574
 9551W        W74536  16.175   7.439   0.704
 9552W        W74537  33.438  21.164  13.215
 9553W        W74538  43.626  32.577  11.546
 9554W        W74539  12.861  39.889   2.119
 9555W        W74540  24.942   6.713  11.205
 9556W        W74541  43.460  23.672   0.275
 9557W        W74542   6.903  29.590  14.177
 9558W        W74543  43.897  12.378   3.247
 9559W        W74544  32.648  15.309   1.363
 9560W        W74545  15.323   1.434   0.074
 9561W        W74546  19.748  32.838   2.138
 9562W        W74547  43.777  10.353   3.915
 9563W        W74548  22.685   4.884   2.973
 9564W        W74549  17.170  23.196  10.825
 9565W        W74550  12.850  39.304   1.452
 9566W        W74551  16.275  24.114   4.337
 9567W        W74552  27.084   1.000   0.901
 9568W        W74553  24.781  41.034   0.408
 9569W        W74554  28.690  36.003  10.613
 9570W        W74555  40.920  18.376   3.180
 9571W        W74556  11.557  22.799   1.411
 9572W        W74557   6.035  15.086   0.788
 9573W        W74558  14.073  44.915  12.167
 9574W        W74559  30.444   0.509   4.122
 9575W        W74560   5.364  22.335  10.290
 9576W        W74561  13.600   2.529  14.981
 9577W        W74562   7.970  11.628   2.841
 9578W        W74563  21.633  40.404   3.572
 9579W        W74564   3.960  38.420   4.509
 9580W        W74565  13.192  21.348   2.220
 9581W        W74566  22.515  43.703  12.000
 9582W        W74567  27.147   1.729  13.920
 9583W        W74568  39.783   7.846  14.185
 9584W        W74569  13.238  28.246  14.496
 9585W        W74570  16.169  28.755  11.967
 9586W        W74571  13.933  20.949  11.608
 9587W        W74572  19.333   0.256   3.610
 9588W        W74573  36.911  30.530  14.142
 9589W        W74574  19.102   4.760   4.219
 9590W        W74575  14.660  33.684   0.843
 9591W        W74576  39.983  24.256  14.728
 9592W        W74577  18.036  15.598   1.830
 9593W        W74578   1.331  16.982  11.607
 9594W        W74579  40.777   3.729   3.301
 9595W        W74580  36.200  29.695   1.396
 9596W        W74581  37.981  24.053   2.511
 9597W        W74582   3.254  34.682   1.174
 9598W        W74583  13.722  13.820   1.488
 9599W        W74584  25.494  10.348  11.975
 9600W        W74585   1.456  32.006   4.138
 9601W        W74586  44.893  40.444  13.982
 9602W        W74587  36.318   3.360  10.925
 9603W        W74588  30.458  16.269  14.607
 9604W        W74589   9.675  18.026   1.397
 9605W        W74590  43.389  25.113   2.659
 9606W        W74591  43.416  29.864   4.709
 9607W        W74592  39.024  31.469  13.464
 9608W        W74593  36.492  10.623   0.366
 9609W        W74594  37.827  43.289  10.718
 9610W        W74595  14.148  38.832  13.236
 9611W        W74596  16.575  42.654  14.110
 9612W        W74597  31.444   9.373   1.226
 9613W        W74598  14.596  23.338   1.197
 9614W        W74599   4.108  15.653   4.818
 9615W        W74600  34.358  30.693  10.802
 9616W        W74601   9.353  21.019  13.330
 9617W        W74602  23.131  30.463  10.673
 9618W        W74603  12.120   6.657  11.043
 9619W        W74604  26.602  16.776  11.107
 9620W        W74605  29.729  31.663  12.871
 9621W        W74606  40.839  36.562   3.125
 9622W        W74607  38.877  10.344  12.140
 9623W        W74608  34.142  14.292  11.842
 9624W        W74609  43.464  30.993  14.946
 9625W        W74610  36.458   8.753  14.424
 9626W        W74611  27.342  13.910  14.085
 9627W        W74612  15.634  42.381  13.978
 9628W        W74613  28.960  12.480   0.127
 9629W        W74614  44.728  18.400  13.966
 9630W        W74615  12.868   7.270  12.921
 9631W        W74616  29.448  29.360   2.680
 9632W        W74617  28.250  33.610  13.491
 9633W        W74618  44.616   0.066   1.736
 9634W        W74619  16.300   9.314   2.341
 9635W        W74620  17.057  19.954  13.745
 9636W        W74621  21.970  34.999   4.704
 9637W        W74622   0.906  22.658   1.516
 9638W        W74623  34.558  22.724   0.808
 9639W        W74624  33.178  10.667  14.666
 9640W        W74625  31.142  41.619  14.947
 9641W        W74626  37.940  11.405   3.785
 9642W        W74627  21.766  38.998  10.728
 9643W        W74628  24.058  42.505   4.983
 9644W        W74629  39.586  41.984  13.682
 9645W        W74630  21.753  21.148   3.948
 9646W        W74631  13.630  12.612  12.040
 9647W        W74632  42.438  30.910   4.590
 9648W        W74633  24.620  12.766   4.693
 9649W        W74634  12.184  42.480  11.673
 9650W        W74635  32.162  20.522   0.326
 9651W        W74636  21.359  18.563  11.742
 9652W        W74637   1.872  39.826  13.986
 9653W        W74638  13.822  44.872  14.006
 9654W        W74639  28.846   0.785  13.956
 9655W        W74640  40.076  16.203  11.179
 9656W        W74641  22.425  42.990   2.277
 9657W        W74642   7.657   2.349  14.092
 9658W        W74643  37.731  41.061  11.128
 9659W        W74644  30.978  36.018   1.367
 9660W        W74645  35.881  30.175  14.708
 9661W        W74646  33.613  20.120   4.519
 9662W        W74647  35.076   2.984   1.259
 9663W        W74648  34.194  12.707  11.517
 9664W        W74649  32.631  38.739   3.887
 9665W        W74650  25.047  32.149   2.306
 9666W        W74651  30.205   9.647   1.001
 9667W        W74652  12.326  23.499   0.236
 9668W        W74653   1.901   6.671   4.502
 9669W        W74654   0.440  42.539  12.965
 9670W        W74655   8.702  11.296  14.858
 9671W        W74656  19.075  12.886   0.425
 9672W        W74657  22.039  25.514   2.874
 9673W        W74658  38.421  41.583  11.130
 9674W        W74659  44.305  34.164  13.047
 9675W        W74660  27.158  23.216  12.368
 9676W        W74661  17.043  40.872   3.731
 9677W        W74662  15.981  34.932  11.584
 9678W        W74663  43.376   3.005  11.792
 9679W        W74664  21.223   5.553  12.453
 9680W        W74665  42.390   0.352  13.201
 9681W        W74666  16.628  38.554   4.589
 9682W        W74667  20.469  25.245  11.613
 9683W        W74668  15.294  21.247  10.988
 9684W        W74669  42.318  11.936   2.200
 9685W        W74670   7.217  19.453   2.160
 9686W        W74671  16.467   7.857  10.772
 9687W        W74672  12.122  36.467   1.819
 9688W        W74673  29.670  10.686  13.584
 9689W        W74674  39.346   8.627  13.366
 9690W        W74675  39.485  23.043   9.385
 9691W        W74676  37.425  28.143   4.652
 9692W        W74677   3.102  15.451  10.528
 9693W        W74678   0.875  24.649   0.342
 9694W        W74679   6.374   6.505  14.098
 9695W        W74680   0.412  38.759  13.827
 9696W        W74681  17.423   4.526  11.395
 9697W        W74682  11.353   6.921  13.979
 9698W        W74683   7.904  18.771   2.443
 9699W        W74684  23.718  40.429  14.589
 9700W        W74685  19.121  39.462   2.160
 9701W        W74686   6.904  15.395   1.834
 9702W        W74687   5.617  24.110   4.993
 9703W        W74688   3.979  38.225   0.399
 9704W        W74689  41.888  44.730  14.936
 9705W        W74690   2.422  12.207   2.197
 9706W        W74691  34.043  33.107   1.768
 9707W        W74692  27.488  15.886   4.685
 9708W        W74693  23.347  20.615   1.359
 9709W        W74694  20.763  30.287   4.816
 9710W        W74695  19.090   7.228   4.777
 9711W        W74696  31.543   1.802   1.343
 9712W        W74697  44.983   2.041   3.901
 9713W        W74698  24.037  17.134   1.459
 9714W        W74699  37.181   0.957  11.099
 9715W        W74700   8.245   9.642   3.791
 9716W        W74701  32.999  21.157   2.222
 9717W        W74702  11.725  38.127  12.833
 9718W        W74703  40.745  20.792  11.544
 9719W        W74704  42.927  33.122   0.528
 9720W        W74705  28.444  14.058   0.570
 9721W        W74706  33.563  44.745   0.225
 9722W        W74707  42.855   0.399   4.361
 9723W        W74708  44.147  11.227   0.249
 9724W        W74709  10.325  12.274  13.533
 9725W        W74710  22.952   3.514   2.796
 9726W        W74711  25.090  26.886  12.096
 9727W        W74712  30.472  26.892  11.748
 9728W        W74713  41.568  35.621  10.206
 9729W        W74714  18.793  38.325  14.459
 9730W        W74715  14.603  31.029   2.204
 9731W        W74716  23.641  27.095   0.967
 9732W        W74717  21.490   6.458   2.319
 9733W        W74718  33.447   2.217   2.266
 9734W        W74719   2.529  14.770  14.394
 9735W        W74720  38.872   2.018   0.693
 9736W        W74721  32.732   2.726  10.623
 9737W        W74722   7.838  16.565   0.785
 9738W        W74723  34.272   9.453  12.477
 9739W        W74724  35.338  37.894   1.743
 9740W        W74725  38.946  16.147   2.967
 9741W        W74726  26.496  18.769  11.468
 9742W        W74727  23.571   7.301  11.638
 9743W        W74728   5.258  17.541  13.435
 9744W        W74729  36.893  19.668  11.892
 9745W        W74730  16.229   4.705  14.327
 9746W        W74731  19.148  40.568   0.248
 9747W        W74732  11.083  28.665   4.722
 9748W        W74733  14.281  41.895  14.499
 9749W        W74734   4.713  13.273  11.902
 9750W        W74735  32.150   8.238   2.695
 9751W        W74736  39.815   4.854  10.204
 9752W        W74737   5.264   5.489  13.051
 9753W        W74738  35.570  31.602   2.631
 9754W        W74739  41.926  19.065  12.428
 9755W        W74740  44.071  44.873   4.634
 9756W        W74741  18.849  14.374   2.786
 9757W        W74742  24.203  14.607  12.058
 9758W        W74743  42.963  29.419  14.382
 9759W        W74744  17.074  38.838   4.676
 9760W        W74745  28.833  30.138   5.490
 9761W        W74746  30.596  21.764  11.109
 9762W        W74747  18.679  25.049  12.968
 9763W        W74748   1.751  22.049   4.614
 9764W        W74749  41.703   8.009   4.817
 9765W        W74750  18.951  40.631   5.032
 9766W        W74751  26.442  11.861  12.139
 9767W        W74752  15.443  40.783  12.458
 9768W        W74753  37.277  12.647  14.370
 9769W        W74754  25.204  32.881  11.544
 9770W        W74755  24.363  44.659   0.647
 9771W        W74756  12.191  40.364   3.295
 9772W        W74757   6.688  28.090  13.225
 9773W        W74758  25.576  11.544  10.782
 9774W        W74759  27.759  10.289  13.356
 9775W        W74760  20.906  39.938  14.494
 9776W        W74761  24.653   0.431  13.095
 9777W        W74762  22.176  32.001   4.693
 9778W        W74763   5.226  26.079   1.796
 9779W        W74764  10.472  39.627   3.293
 9780W        W74765  32.420  16.852  12.007
 9781W        W74766  42.249  22.302   9.724
 9782W        W74767   6.113  41.991   3.524
 9783W        W74768  27.375   3.901   1.158
 9784W        W74769  24.408  12.261  13.412
 9785W        W74770  30.815  35.489  14.070
 9786W        W74771   9.172  44.396  11.557
 9787W        W74772  34.314  43.279  13.637
 9788W        W74773  20.364  28.193  14.047
 9789W        W74774  22.166  44.144   2.705
 9790W        W74775   4.919  12.403  12.317
 9791W        W74776  23.068  35.925   1.189
 9792W        W74777  33.428  44.322   0.480
 9793W        W74778   9.422  15.834   2.721
 9794W        W74779  44.284  19.757   1.182
 9795W        W74780  32.113  12.835   3.990
 9796W        W74781  43.207   8.112   3.230
 9797W        W74782  30.948  26.025   0.314
 9798W        W74783  17.014  19.267  14.422
 9799W        W74784  34.850  43.645  13.088
 9800W        W74785   4.063   3.171   2.232
 9801W        W74786  35.586  21.241   4.073
 9802W        W74787  29.103  27.042   1.701
 9803W        W74788  30.705  15.838   3.089
 9804W        W74789  28.990   7.884  14.457
 9805W        W74790  32.017   8.399   0.796
 9806W        W74791  25.025  27.656  11.162
 9807W        W74792  10.266  11.571   1.299
 9808W        W74793  43.568  29.199   4.045
 9809W        W74794  12.836   4.608   3.071
 9810W        W74795  25.980  43.224  11.149
 9811W        W74796   9.954  17.159  10.725
 9812W        W74797  40.116  13.593   4.463
 9813W        W74798  20.194  29.406   3.388
 9814W        W74799  31.412  19.743   1.175
 9815W        W74800   2.536  44.950   3.272
 9816W        W74801  38.683  26.413   4.068
 9817W        W74802  39.491  37.057  13.784
 9818W        W74803   1.328   5.346  12.850
 9819W        W74804  30.874   5.305   2.770
 9820W        W74805   8.917   9.696  10.575
 9821W        W74806  23.091   0.031   1.779
 9822W        W74807  22.431   7.995   1.748
 9823W        W74808  31.605   1.045   0.825
 9824W        W74809  32.273   1.399  14.349
 9825W        W74810  38.996  28.029   0.746
 9826W        W74811  37.422  22.289   0.442
 9827W        W74812  19.941  32.140  14.502
 9828W        W74813   0.160   0.423   2.281
 9829W        W74814  31.833  18.047   1.728
 9830W        W74815  32.033  31.895   0.394
 9831W        W74816  36.454  37.827   3.651
 9832W        W74817   7.693   2.791   1.621
 9833W        W74818  25.452   0.350   1.186
 9834W        W74819  38.522  12.643   3.055
 9835W        W74820  39.923  16.351  10.383
 9836W        W74821   1.370  22.622  12.806
 9837W        W74822   1.786  16.270  11.804
 9838W        W74823  23.263  17.985  14.967
 9839W        W74824  38.010  11.203  13.976
 9840W        W74825  12.724  29.329   0.835
 9841W        W74826  40.368  26.617  10.402
 9842W        W74827  25.217  36.504  12.533
 9843W        W74828  40.782  26.957   2.644
 9844W        W74829   3.818  14.293   0.746
 9845W        W74830  31.416  25.456  13.313
 9846W        W74831   6.372  32.364   1.839
 9847W        W74832   9.684  42.486  10.876
 9848W        W74833   5.167  39.558  11.621
 9849W        W74834  19.064   8.586  12.864
 9850W        W74835  14.053   9.751   2.310
 9851W        W74836  33.847   6.352   1.353
 9852W        W74837   1.420  21.618  11.911
 9853W        W74838  29.435  32.108  12.835
 9854W        W74839  39.477  36.777   4.125
 9855W        W74840  24.205   5.582   4.170
 9856W        W74841   1.742  21.166  10.453
 9857W        W74842  16.890   3.285  11.662
 9858W        W74843  24.479  11.860   1.882
 9859W        W74844  20.849   6.832  12.047
 9860W        W74845  16.237  28.114   3.997
 9861W        W74846  36.962  37.550  14.285
 9862W        W74847  44.384  16.034   4.084
 9863W        W74848  35.362  39.475   0.576
 9864W        W74849  35.499  22.962  14.272
 9865W        W74850  34.014  13.780  14.773
 9866W        W74851  39.380  34.879   1.325
 9867W        W74852  39.355   2.748  14.413
 9868W        W74853  16.593  41.227  10.731
 9869W        W74854  28.390  20.020   3.615
 9870W        W74855  43.380  21.199   2.599
 9871W        W74856  22.018  43.239   0.467
 9872W        W74857  17.584  25.993   1.038
 9873W        W74858  42.288  24.526   5.114
 9874W        W74859  41.907   3.727   3.812
 9875W        W74860  12.750  44.377   3.150
 9876W        W74861   7.857  35.558  14.453
 9877W        W74862  30.191  37.327  11.623
 9878W        W74863  11.294  18.052  14.444
 9879W        W74864  37.343  24.636  13.128
 9880W        W74865   6.339   9.774   2.664
 9881W        W74866  36.849  14.768  14.935
 9882W        W74867  24.245  15.685   1.292
 9883W        W74868  26.399  22.520  13.431
 9884W        W74869   9.247  24.166   2.338
 9885W        W74870  20.144  13.836   2.843
 9886W        W74871  20.758   0.499   1.325
 9887W        W74872  24.627  29.367  11.409
 9888W        W74873   6.634  14.353  11.141
 9889W        W74874  18.052  19.228   2.721
 9890W        W74875  36.793  27.616   0.578
 9891W        W74876  42.816   3.982   1.198
 9892W        W74877  42.533  38.996   1.562
 9893W        W74878   4.876   4.484  11.083
 9894W        W74879   9.544  20.559   2.046
 9895W        W74880  32.385  19.978  13.910
 9896W        W74881  19.600   6.739  14.951
 9897W        W74882  19.508  17.343  10.646
 9898W        W74883  20.070   9.444   2.393
 9899W        W74884  30.939  38.806   0.246
 9900W        W74885  35.691  21.823   1.330
 9901W        W74886  36.422  27.894   5.015
 9902W        W74887  37.166  40.773  12.660
 9903W        W74888  39.351   8.894  12.928
 9904W        W74889  27.181  38.097   2.385
 9905W        W74890  39.351  27.099   3.241
 9906W        W74891   0.883  41.391   0.019
 9907W        W74892  40.464  24.126  11.205
 9908W        W74893   6.457  19.232  14.898
 9909W        W74894  18.269  10.139  11.594
 9910W        W74895  27.072   5.017   2.851
 9911W        W74896  42.862  22.649   2.332
 9912W        W74897  34.119  30.102   4.629
 9913W        W74898  37.501  21.817   4.679
 9914W        W74899  13.040  29.610  13.995
 9915W        W74900  20.106  24.119  12.583
 9916W        W74901  43.816  44.009   9.837
 9917W        W74902  23.125  21.932  12.025
 9918W        W74903  10.841  28.534   0.672
 9919W        W74904  35.920   6.158   0.718
 9920W        W74905  21.983   6.746  12.019
 9921W        W74906  25.983  29.492   1.732
 9922W        W74907  38.375  19.085   4.145
 9923W        W74908   0.204  29.177   1.796
 9924W        W74909  42.120  36.068   0.492
 9925W        W74910  29.118   9.577  14.899
 9926W        W74911  29.207  21.057  11.280
 9927W        W74912  32.110  10.714  11.661
 9928W        W74913  22.197  11.163   0.420
 9929W        W74914  28.414   9.743  11.012
 9930W        W74915  17.729   1.476   0.337
 9931W        W74916  24.148  13.753  13.275
 9932W        W74917   2.966  28.943   2.479
 9933W        W74918  34.716  33.710   1.617
 9934W        W74919   9.349  37.887   4.645
 9935W        W74920  40.829   1.864  13.466
 9936W        W74921  20.222  43.914   3.850
 9937W        W74922   2.578  33.359   2.197
 9938W        W74923  38.054   6.523  14.121
 9939W        W74924  11.002  18.302  12.429
 9940W        W74925  10.338  29.915   1.721
 9941W        W74926  14.573   7.810  11.693
 9942W        W74927  42.924  31.392  11.554
 9943W        W74928  35.952   8.898  14.288
 9944W        W74929  22.768  25.520  11.098
 9945W        W74930  11.831  11.509   0.831
 9946W        W74931  31.843  18.783   4.175
 9947W        W74932  43.918  21.112  10.445
 9948W        W74933  22.554  10.448  14.794
 9949W        W74934  32.783  34.452   1.757
 9950W        W74935  19.871  36.336  11.537
 9951W        W74936  36.169  19.103  13.972
 9952W        W74937   6.349  36.606   4.574
 9953W        W74938   6.362   7.363  14.794
 9954W        W74939  29.479  41.861   0.610
 9955W        W74940   7.681   0.867   1.769
 9956W        W74941  17.631  29.993   1.830
 9957W        W74942  23.181  27.034   0.708
 9958W        W74943  16.940  15.010  14.049
 9959W        W74944  29.098  16.027  11.556
 9960W        W74945  29.530  11.337  14.844
 9961W        W74946  23.005  37.066  11.208
 9962W        W74947  10.206  39.886  11.473
 9963W        W74948  20.046  21.987  12.453
 9964W        W74949  10.008  14.311  14.586
 9965W        W74950  40.469  19.260  14.925
 9966W        W74951  44.471  17.595  12.487
 9967W        W74952  13.076  11.145  11.500
 9968W        W74953  38.336  27.929  11.729
 9969W        W74954  10.111  16.366   4.692
 9970W        W74955  15.810  35.161  14.857
 9971W        W74956  23.560  44.947   4.531
 9972W        W74957  27.109  37.413  13.064
 9973W        W74958  29.639  26.470   4.109
 9974W        W74959  11.668   7.617  10.909
 9975W        W74960  33.378  38.121  12.476
 9976W        W74961  37.598  20.267   4.141
 9977W        W74962  43.048   9.427   3.462
 9978W        W74963  29.116  18.032   4.807
 9979W        W74964   6.249  35.537   3.077
 9980W        W74965  23.076  16.563   4.209
 9981W        W74966  19.070  12.312   4.289
 9982W        W74967   8.328  14.300   3.408
 9983W        W74968   9.692  29.538   1.773
 9984W        W74969  20.799  36.180  10.614
 9985W        W74970   4.180  13.249   3.827
 9986W        W74971  13.295   0.658  14.089
 9987W        W74972  42.878  21.597  13.874
 9988W        W74973  21.594  24.662   3.894
 9989W        W74974  21.142  10.413   0.898
 9990W        W74975  40.388  42.951   4.079
 9991W        W74976   3.332  33.816   4.303
 9992W        W74977  13.301  38.228  13.037
 9993W        W74978   7.779   2.536  10.889
 9994W        W74979   1.692  42.561   2.766
 9995W        W74980  29.201  22.317  12.457
 9996W        W74981  26.624  43.666   4.411
 9997W        W74982  24.997   0.946   2.001
 9998W        W74983  39.297  41.838  10.619
 9999W        W74984  31.579   7.552  10.802
10000W        W74985   5.261  22.272  10.773
10001W        W74986  31.724  30.524   3.598
10002W        W74987   8.405  28.185  14.868
10003W        W74988  39.438  40.975  12.489
10004W        W74989  37.806  44.445  13.792
10005W        W74990  40.736  24.411  13.883
10006W        W74991   9.530   2.805   1.812
10007W        W74992  21.294  12.054   1.951
10008W        W74993   0.682  12.799   0.903
10009W        W74994  17.279  37.347   5.012
10010W        W74995  23.618  18.944   4.957
10011W        W74996   8.470  13.437  11.181
10012W        W74997  38.398  26.458  13.730
10013W        W74998  35.382  37.382   4.502
10014W        W74999  35.045  42.505  13.006
10015W        W75000  13.274  15.287   2.451
10016W        W75001  10.776   6.698  14.554
10017W        W75002  15.729  23.695  13.965
10018W        W75003   3.014  17.408   0.030
10019W        W75004  21.033   9.671  12.963
10020W        W75005   6.740   3.131   3.679
10021W        W75006   6.350  28.114  14.204
10022W        W75007  19.760  17.692   9.834
10023W        W75008  31.692   2.167  10.615
10024W        W75009   9.264  30.083   3.813
10025W        W75010   5.991  43.367   3.367
10026W        W75011  37.031  34.624   0.654
10027W        W75012  41.784   7.993  11.917
10028W        W75013  36.573   4.245   3.325
10029W        W75014  18.979  31.501   3.706
10030W        W75015  15.279  16.428  11.159
10031W        W75016  30.246   5.461   2.189
10032W        W75017  20.551   8.822  11.907
10033W        W75018  20.778   6.494  11.609
10034W        W75019  38.391  12.359  12.493
10035W        W75020  34.535   3.188  14.846
10036W        W75021  12.996   1.902  13.103
10037W        W75022  43.952   8.080  12.981
10038W        W75023  23.169  36.447  11.504
10039W        W75024  21.541  32.871  11.856
10040W        W75025  16.300  15.725   2.746
10041W        W75026  12.226  15.175   4.106
10042W        W75027   3.728  13.379   0.037
10043W        W75028  13.325  39.636  14.336
10044W        W75029   8.249  40.863   2.787
10045W        W75030  27.089  15.603   1.705
10046W        W75031   3.265   5.033  14.814
10047W        W75032  15.235  35.218  11.599
10048W        W75033  40.834  34.316  13.010
10049W        W75034   2.334  15.686  11.193
10050W        W75035  15.965  18.157  10.842
10051W        W75036  34.890   5.155   5.054
10052W        W75037  17.536  38.671  11.431
10053W        W75038  10.612  29.764   4.935
10054W        W75039  18.354  14.174   1.826
10055W        W75040  38.467  31.173   3.850
10056W        W75041   7.976  23.575  14.547
10057W        W75042  43.408  30.211   4.190
10058W        W75043  40.383   9.715  14.188
10059W        W75044  23.318  22.852   4.721
10060W        W75045  11.580  22.647   4.082
10061W        W75046  25.393  44.495  10.719
10062W        W75047   7.773  13.665   1.999
10063W        W75048  38.625  25.069   3.735
10064W        W75049  21.961  16.564  11.182
10065W        W75050  16.579  34.088  14.445
10066W        W75051  43.003  18.281   3.243
10067W        W75052   7.808   9.914  14.435
10068W        W75053   1.897  27.640  11.563
10069W        W75054  26.567  26.127  12.986
10070W        W75055  16.461  28.759   2.785
10071W        W75056  15.147  10.090  10.282
10072W        W75057   4.512   5.701  13.995
10073W        W75058   1.447  13.303  14.354
10074W        W75059  29.607  27.557  14.636
10075W        W75060   2.394  25.386   1.936
10076W        W75061  40.992  42.047  11.024
10077W        W75062  27.267  34.531   5.478
10078W        W75063  13.856  26.825   2.680
10079W        W75064  23.116  20.109  14.786
10080W        W75065  25.055  16.128  10.720
10081W        W75066  11.788  35.461   2.297
10082W        W75067  42.571  42.925   4.443
10083W        W75068  41.608  15.277   2.861
10084W        W75069  21.287  41.012   1.862
10085W        W75070   8.839   0.811  13.836
10086W        W75071  16.003   4.233   1.819
10087W        W75072  38.364  39.922  12.133
10088W        W75073  44.557  41.460  13.799
10089W        W75074  31.122  37.147   4.138
10090W        W75075   3.869  18.991  10.825
10091W        W75076  12.904  10.215   0.515
10092W        W75077  26.694  39.106  13.958
10093W        W75078  28.592   7.381  13.797
10094W        W75079  24.141  42.504   0.863
10095W        W75080  38.473  11.681   4.911
10096W        W75081  19.808  20.248   0.769
10097W        W75082  19.190  28.058   2.521
10098W        W75083   9.837  38.947  12.447
10099W        W75084  42.494   8.106   0.802
10100W        W75085  44.819  39.273  13.551
10101W        W75086  32.715  28.598  14.900
10102W        W75087   4.710   4.369  12.602
10103W        W75088  35.638  43.446  12.129
10104W        W75089  35.381  27.265  13.401
10105W        W75090  37.376  37.573  13.499
10106W        W75091  23.058  39.521   3.906
10107W        W75092  41.091  39.352  12.984
10108W        W75093  40.276  40.612   1.788
10109W        W75094   6.372   6.431   2.008
10110W        W75095  32.601  19.370   1.601
10111W        W75096  10.551  12.839   4.441
10112W        W75097  38.311  16.259  14.999
10113W        W75098  32.617  32.026   1.738
10114W        W75099  31.952   9.425   0.904
10115W        W75100  39.609  36.460   3.741
10116W        W75101  44.510  38.430  13.489
10117W        W75102  31.874   7.402   3.986
10118W        W75103   3.210  11.613  13.919
10119W        W75104  21.881   3.768  13.624
10120W        W75105  41.028   0.986  12.995
10121W        W75106  14.007   4.006   0.367
10122W        W75107  20.054  14.651  10.633
10123W        W75108   6.877  39.860   3.107
10124W        W75109   0.671  30.415  11.723
10125W        W75110  40.477   1.281  13.591
10126W        W75111  22.724  25.269   2.413
10127W        W75112  40.164  17.072   3.087
10128W        W75113  28.215   1.796  14.704
10129W        W75114  21.960  42.534  13.219
10130W        W75115   0.893  42.369   0.075
10131W        W75116  28.140   7.997   0.886
10132W        W75117  41.569  19.437   2.782
10133W        W75118  40.354  32.588   4.093
10134W        W75119  23.948  29.988   4.998
10135W        W75120  14.079  16.270   2.886
10136W        W75121  43.465  14.055   4.983
10137W        W75122  16.568  11.291   3.759
10138W        W75123  11.164  17.028   1.017
10139W        W75124  30.711  20.928   2.717
10140W        W75125  23.566  43.032   0.443
10141W        W75126  13.140  35.535  11.241
10142W        W75127  17.652  36.831   0.240
10143W        W75128  44.899  35.726   4.220
10144W        W75129  23.126  39.043   0.622
10145W        W75130  29.946  27.170  10.675
10146W        W75131  30.154  28.891  11.231
10147W        W75132  33.401  23.662   5.159
10148W        W75133   8.760  32.203  13.236
10149W        W75134  19.213  12.790   4.372
10150W        W75135   3.970  44.576  11.277
10151W        W75136  24.786  39.056   3.755
10152W        W75137  23.707  33.369  13.034
10153W        W75138   7.784  18.052   5.023
10154W        W75139  13.210   4.458  14.110
10155W        W75140  21.721  31.537  11.448
10156W        W75141  33.751  41.071   0.738
10157W        W75142  19.793  27.057   1.280
10158W        W75143  11.721  25.567  13.860
10159W        W75144  42.748  19.447  10.247
10160W        W75145  33.577  36.804  13.770
10161W        W75146  24.655  11.252  13.875
10162W        W75147  44.497  33.128   4.724
10163W        W75148  37.081  44.711   1.179
10164W        W75149  12.924  40.890   1.309
10165W        W75150   7.904  28.987   1.282
10166W        W75151  28.311   3.491   3.131
10167W        W75152  22.731  40.991   2.176
10168W        W75153  14.789  44.351  12.074
10169W        W75154   9.218  44.146   1.968
10170W        W75155  28.627  35.531  14.225
10171W        W75156  14.219   6.699   1.409
10172W        W75157  13.268   8.940   3.843
10173W        W75158  35.612  21.488   1.843
10174W        W75159  11.308   1.790   0.306
10175W        W75160   8.767  44.718  12.438
10176W        W75161   0.103  24.787  11.920
10177W        W75162   2.791   7.184  10.962
10178W        W75163   8.746   0.755  10.681
10179W        W75164  40.437   0.389   1.748
10180W        W75165   7.539  40.546   3.614
10181W        W75166   8.788  32.187   0.485
10182W        W75167  38.678   4.899  10.035
10183W        W75168  41.975  13.220  11.968
10184W        W75169  28.946  38.331   3.980
10185W        W75170  16.381  33.880  11.157
10186W        W75171  35.086  34.087   1.707
10187W        W75172  28.140  23.894  10.662
10188W        W75173   8.249  29.074  11.482
10189W        W75174  13.856   4.631   3.133
10190W        W75175  29.661  42.338  12.927
10191W        W75176  24.418   8.823   3.111
10192W        W75177   1.585  34.510  12.095
10193W        W75178  26.644   4.214  10.305
10194W        W75179   3.962  21.481  13.330
10195W        W75180  31.177   8.812   5.417
10196W        W75181  26.680   6.390  11.872
10197W        W75182  25.479  39.871  11.207
10198W        W75183  11.833  13.259   1.341
10199W        W75184  33.424  13.927   3.891
10200W        W75185  31.580  29.887   2.799
10201W        W75186  13.118  13.195   4.152
10202W        W75187   7.769   3.334   3.494
10203W        W75188  39.215  36.061  11.462
10204W        W75189  10.727  20.101   3.670
10205W        W75190  20.349  25.323  12.260
10206W        W75191   9.862  16.892  14.867
10207W        W75192  28.250  30.543   3.796
10208W        W75193  14.579   0.059   4.065
10209W        W75194  14.163  33.575  12.938
10210W        W75195  19.501  39.525   1.780
10211W        W75196  34.973  43.273   4.771
10212W        W75197  32.882  25.860  12.608
10213W        W75198  27.588  42.263   4.539
10214W        W75199  10.571  30.897   1.836
10215W        W75200  12.209  16.846  14.882
10216W        W75201  21.691  40.767   1.681
10217W        W75202   8.853  34.380   0.171
10218W        W75203  13.199   3.791   4.470
10219W        W75204  35.755  33.945  13.971
10220W        W75205  12.586   9.296   0.796
10221W        W75206  26.917  35.756   3.805
10222W        W75207  35.798  33.602   2.345
10223W        W75208  12.851  20.726   0.000
10224W        W75209  27.031  38.752   0.284
10225W        W75210  35.335   9.207  11.667
10226W        W75211   0.092  31.745   1.829
10227W        W75212  13.516  34.194   0.357
10228W        W75213  15.727  18.815  12.624
10229W        W75214  37.908  29.498  14.408
10230W        W75215  24.479   2.493   1.048
10231W        W75216  29.963  38.757  14.749
10232W        W75217  22.716  34.553   1.729
10233W        W75218  34.680  23.048   2.239
10234W        W75219  16.603  19.083  13.065
10235W        W75220  19.377  42.440   4.165
10236W        W75221  28.427  15.316   2.919
10237W        W75222  30.017   2.501   5.546
10238W        W75223  40.487  27.629  10.623
10239W        W75224   3.413  20.030  14.043
10240W        W75225  19.229  38.948   2.184
10241W        W75226  24.181  26.492   1.515
10242W        W75227   0.047   2.881   0.911
10243W        W75228   1.891  10.970   4.750
10244W        W75229  12.558   4.762  10.647
10245W        W75230  27.025  21.299   2.170
10246W        W75231  19.214   2.700  12.035
10247W        W75232  24.912  30.182   2.230
10248W        W75233  22.128  44.239  12.575
10249W        W75234   4.448  22.601   1.382
10250W        W75235  32.996  32.238   3.155
10251W        W75236  14.266  35.316  12.120
10252W        W75237  16.000  37.510   5.035
10253W        W75238  18.774  31.632  11.705
10254W        W75239   8.847  15.306  14.226
10255W        W75240  25.664  19.562  13.287
10256W        W75241  43.809  20.553   1.262
10257W        W75242  17.596  18.986   3.128
10258W        W75243  14.655   3.093   2.379
10259W        W75244  23.713  10.626  11.564
10260W        W75245  37.828   7.046   1.639
10261W        W75246  41.633  18.468   2.394
10262W        W75247  41.887  23.490   1.731
10263W        W75248  42.020   7.666  10.754
10264W        W75249  42.781   0.574  14.370
10265W        W75250  39.261  21.534   3.292
10266W        W75251   7.902  21.369   2.318
10267W        W75252  40.467   9.756   0.735
10268W        W75253   0.849  42.304  12.099
10269W        W75254   0.582  22.904  13.826
10270W        W75255  26.421  43.726  14.718
10271W        W75256  22.093  44.281   0.326
10272W        W75257   9.674  43.787  11.144
10273W        W75258  32.437  37.965   1.794
10274W        W75259  23.097  26.039  14.004
10275W        W75260  10.011  33.671   2.353
10276W        W75261  15.723  31.618   1.451
10277W        W75262  29.956  33.887  10.552
10278W        W75263  25.097  20.077   4.707
10279W        W75264   2.429  23.922  14.383
10280W        W75265  29.363  28.565   3.702
10281W        W75266  31.845  25.981   2.891
10282W        W75267  31.669  28.964   2.855
10283W        W75268  35.808  17.708  12.135
10284W        W75269  43.376  44.009  14.917
10285W        W75270  16.654  18.150  13.067
10286W        W75271  15.621  21.639  12.841
10287W        W75272  30.576  15.454  13.010
10288W        W75273   4.853  42.272  13.895
10289W        W75274  44.189  30.675   1.656
10290W        W75275   1.431   9.451   4.133
10291W        W75276  41.348  24.122  14.336
10292W        W75277  37.589   2.401   0.335
10293W        W75278  16.088  26.662  10.282
10294W        W75279  17.846   0.914  13.079
10295W        W75280   5.441  23.742   4.655
10296W        W75281  31.843  40.884  13.448
10297W        W75282  24.468  44.779  14.845
10298W        W75283   2.244  29.474  14.342
10299W        W75284   6.317  28.011   4.651
10300W        W75285  11.382   2.352  14.421
10301W        W75286  39.177  11.669  12.942
10302W        W75287  37.851  30.824  14.368
10303W        W75288  29.089   7.255   3.071
10304W        W75289  17.349  33.183  11.788
10305W        W75290  41.279   7.723  14.764
10306W        W75291  27.606  34.143  14.618
10307W        W75292  24.814  35.596  11.703
10308W        W75293  36.707  16.152  12.250
10309W        W75294   0.521  19.683   2.444
10310W        W75295  11.833  28.783   1.823
10311W        W75296  35.478  23.065  11.394
10312W        W75297  27.740   5.375  14.351
10313W        W75298  17.243  39.659  11.181
10314W        W75299  25.729  20.175   2.386
10315W        W75300  36.827  42.764  12.064
10316W        W75301  28.694  30.918   0.651
10317W        W75302   9.301  23.226  11.228
10318W        W75303  30.329   8.186  10.431
10319W        W75304   3.710  40.982   0.816
10320W        W75305   9.980  33.971  13.482
10321W        W75306  41.950  43.897  11.722
10322W        W75307  11.241  43.844   4.525
10323W        W75308  34.993  31.383  13.476
10324W        W75309  35.885  10.779   1.524
10325W        W75310  29.394  13.081   3.209
10326W        W75311   5.646  36.424   4.254
10327W        W75312  10.584   7.053   4.054
10328W        W75313  17.606  39.333   4.108
10329W        W75314  23.263   0.210  11.555
10330W        W75315  34.388   3.306   1.734
10331W        W75316   0.634  26.190   1.457
10332W        W75317  20.334  27.644   2.741
10333W        W75318   5.426  22.729  14.429
10334W        W75319  20.992  16.173   4.007
10335W        W75320  43.417  26.527  10.205
10336W        W75321   4.301  12.721   4.140
10337W        W75322  16.235  33.431   1.419
10338W        W75323  13.098  38.864  13.295
10339W        W75324  24.659  14.675   1.398
10340W        W75325  32.617  41.011  13.994
10341W        W75326  32.007  41.436   3.571
10342W        W75327   7.141   8.918  13.858
10343W        W75328  42.009  31.755  10.699
10344W        W75329  35.943  44.871  10.418
10345W        W75330  37.502  16.606   0.357
10346W        W75331   1.166   8.773  14.800
10347W        W75332  26.700  14.091  12.501
10348W        W75333  40.585  26.639  11.499
10349W        W75334  32.443   9.630   3.610
10350W        W75335  24.367  26.539   1.014
10351W        W75336  17.624  34.495   3.660
10352W        W75337  40.906  43.962   0.964
10353W        W75338  15.353   7.277   2.718
10354W        W75339   9.300   0.477  10.617
10355W        W75340  34.716  22.164  11.464
10356W        W75341   9.711  15.785  10.609
10357W        W75342  37.396  33.124  14.071
10358W        W75343   7.446  39.026   0.758
10359W        W75344   8.217  34.519  12.028
10360W        W75345  41.992  17.184  12.848
10361W        W75346  17.612  18.327   1.472
10362W        W75347   8.917   3.795  12.144
10363W        W75348  32.075  20.560   1.862
10364W        W75349  12.906   6.954  11.691
10365W        W75350  42.198   2.072   3.256
10366W        W75351  13.416  37.859   3.440
10367W        W75352   8.378  40.917   4.095
10368W        W75353  28.129  18.596  14.290
10369W        W75354  33.319  33.862   1.284
10370W        W75355  29.654  20.006   0.370
10371W        W75356  40.451   6.827   2.844
10372W        W75357   7.876  31.245  11.021
10373W        W75358  43.788  18.742  13.967
10374W        W75359  15.582  42.626   1.331
10375W        W75360  18.708  41.362  13.361
10376W        W75361  12.105  30.088   0.356
10377W        W75362  12.646  18.643  13.590
10378W        W75363   1.248   2.601   0.778
10379W        W75364   2.624   8.320  10.724
10380W        W75365  37.476   6.416  11.323
10381W        W75366  25.694  30.460   0.464
10382W        W75367  44.925  28.006   3.196
10383W        W75368  10.460   0.463   1.401
10384W        W75369  20.163   5.830  12.435
10385W        W75370  27.675  41.485   3.828
10386W        W75371  18.039  25.313  10.846
10387W        W75372  26.072  17.351   2.276
10388W        W75373  26.639  18.139  12.100
10389W        W75374  20.182  27.945  10.788
10390W        W75375  16.562  43.813   0.950
10391W        W75376   7.312   2.961   0.373
10392W        W75377  38.063  23.552   2.306
10393W        W75378  36.948  26.889   3.648
10394W        W75379   0.333  43.855  11.460
10395W        W75380   6.665  42.973   4.164
10396W        W75381  42.412  43.754  11.112
10397W        W75382  30.553  14.208  14.773
10398W        W75383  13.400   5.941   4.801
10399W        W75384  30.041   0.443   3.303
10400W        W75385  20.034  22.636   4.180
10401W        W75386  41.743   6.155   4.243
10402W        W75387   5.781  13.047   2.286
10403W        W75388  35.096  34.373  10.950
10404W        W75389  36.813   5.138  12.780
10405W        W75390  28.094  33.339  11.222
10406W        W75391  20.650  26.619   1.151
10407W        W75392  20.052  24.638   4.253
10408W        W75393  30.009  40.635  13.477
10409W        W75394  18.887  42.969  11.182
10410W        W75395  42.136   8.238   4.643
10411W        W75396  30.651  30.145  12.466
10412W        W75397  35.996  12.550  14.758
10413W        W75398  25.710  40.660  14.408
10414W        W75399  41.378  21.606   0.000
10415W        W75400  38.657  20.627  10.151
10416W        W75401  40.563  28.737   4.567
10417W        W75402  16.769   1.646  10.537
10418W        W75403  32.568  37.266   2.270
10419W        W75404  42.890  14.880   2.182
10420W        W75405   3.360  12.224   1.208
10421W        W75406  14.397  18.752   3.207
10422W        W75407  16.791  17.265  11.635
10423W        W75408   1.618   1.350  14.395
10424W        W75409  10.414  14.057   4.023
10425W        W75410  36.536   9.299   2.539
10426W        W75411  33.617  16.129  13.618
10427W        W75412   1.696  35.538   1.405
10428W        W75413  31.601  15.304   1.411
10429W        W75414  15.647  25.777  12.030
10430W        W75415  23.309  32.631   0.984
10431W        W75416   1.280  22.149   0.801
10432W        W75417   3.774  13.960  14.936
10433W        W75418  18.276   4.567   4.439
10434W        W75419  23.446   3.310  10.664
10435W        W75420  16.486   3.937   2.351
10436W        W75421  34.225  18.145   3.166
10437W        W75422  12.628  23.597  10.711
10438W        W75423  17.757  39.146  11.538
10439W        W75424   4.434  34.096   0.780
10440W        W75425   4.174  29.526   2.295
10441W        W75426  29.372  23.076  12.214
10442W        W75427  41.004  15.544   0.802
10443W        W75428  27.778  29.980   5.393
10444W        W75429  33.657  10.190  13.706
10445W        W75430  32.429  15.118   1.824
10446W        W75431  32.214   0.344  13.866
10447W        W75432   3.408  25.808   4.178
10448W        W75433  12.343  41.372   3.183
10449W        W75434  38.499  44.841   1.217
10450W        W75435  16.850  25.047  14.460
10451W        W75436   3.712  15.238  13.199
10452W        W75437   9.909   9.941  10.320
10453W        W75438  33.069   1.772   3.638
10454W        W75439  14.290   8.355  14.834
10455W        W75440   7.326  39.499   2.686
10456W        W75441  26.544   9.236   2.937
10457W        W75442  40.851   6.292   3.232
10458W        W75443  35.934  13.658   1.607
10459W        W75444  35.445  12.303   3.256
10460W        W75445  24.657   9.316   3.176
10461W        W75446  21.968   7.020  11.570
10462W        W75447  26.215  25.079   1.298
10463W        W75448   4.772  29.690  13.291
10464W        W75449  32.995  15.284  14.031
10465W        W75450  22.230  32.994  12.318
10466W        W75451  34.098  33.602  14.206
10467W        W75452  18.465  22.679   5.031
10468W        W75453  24.453  32.502   2.666
10469W        W75454  37.234   1.619   0.837
10470W        W75455  26.994  40.799   3.909
10471W        W75456  37.777  25.435  11.068
10472W        W75457  31.635  38.721   2.134
10473W        W75458  39.954  36.372   2.384
10474W        W75459  12.869  38.638   4.705
10475W        W75460   1.227  42.027  14.800
10476W        W75461  39.438   1.012  13.453
10477W        W75462  11.407   7.278   0.660
10478W        W75463  26.243   7.266   9.993
10479W        W75464   1.432  29.712   3.237
10480W        W75465  33.988   3.682  14.524
10481W        W75466  12.144   0.800   2.218
10482W        W75467  13.963  16.938   4.874
10483W        W75468  33.956  32.664  13.092
10484W        W75469  24.497  14.578  14.373
10485W        W75470  26.059  15.028   4.288
10486W        W75471  11.234  38.559  13.093
10487W        W75472   7.783  20.103  12.945
10488W        W75473  43.488  20.551  11.669
10489W        W75474  18.278  12.759  12.811
10490W        W75475  38.199   0.991  11.166
10491W        W75476  23.167   0.436  14.049
10492W        W75477  33.867  39.621  11.744
10493W        W75478  36.777  18.349  11.477
10494W        W75479   6.963  43.937   1.169
10495W        W75480  39.837  43.248  11.618
10496W        W75481  10.893   4.629  11.781
10497W        W75482  25.900  31.669  12.196
10498W        W75483  13.292  26.044   1.446
10499W        W75484  30.733  32.846  13.925
10500W        W75485  33.524  31.705  13.132
10501W        W75486  25.610   8.241   4.729
10502W        W75487  10.440  19.777  12.051
10503W        W75488   0.302  28.586   2.443
10504W        W75489   8.403  16.835   4.674
10505W        W75490  33.163  25.133   4.255
10506W        W75491  22.790  22.762   4.182
10507W        W75492  40.076  28.766   4.444
10508W        W75493  20.146  18.183  10.493
10509W        W75494  13.250  27.959  11.090
10510W        W75495  16.342   7.073   4.117
10511W        W75496  44.863  27.959   1.756
10512W        W75497   7.721  10.055   0.839
10513W        W75498   0.195  25.692   2.316
10514W        W75499  11.229  11.065  13.462
10515W        W75500  19.756  27.622  13.391
10516W        W75501   5.862  26.362   2.295
10517W        W75502  17.125  39.406   0.805
10518W        W75503  41.292  35.706  11.798
10519W        W75504  44.038  25.621  14.372
10520W        W75505  21.609  42.510   3.932
10521W        W75506  26.640   6.393  11.362
10522W        W75507   1.032  19.028   5.083
10523W        W75508  31.715   6.752  11.175
10524W        W75509  31.183  23.590  13.944
10525W        W75510  12.228  23.379  11.010
10526W        W75511   2.540  30.305  11.959
10527W        W75512   8.366  15.400  14.975
10528W        W75513  36.440   3.886  12.916
10529W        W75514  39.774  28.105   2.207
10530W        W75515  22.029   8.876   2.654
10531W        W75516  13.050  10.987   3.660
10532W        W75517  33.469   5.022   4.075
10533W        W75518  15.040   3.264   1.445
10534W        W75519  33.220  36.496  12.897
10535W        W75520  42.082  17.503  11.831
10536W        W75521  16.822  13.488  12.823
10537W        W75522   7.836  31.671  11.305
10538W        W75523  36.734  33.170   4.029
10539W        W75524  38.846   8.738   3.598
10540W        W75525  10.419  16.102   3.305
10541W        W75526  12.053  29.157  13.083
10542W        W75527  35.055  20.482   0.382
10543W        W75528   4.275  43.248   2.395
10544W        W75529   3.560  20.131   0.961
10545W        W75530  16.537  15.198   0.532
10546W        W75531   5.533  17.079  12.071
10547W        W75532  25.955  27.492  14.258
10548W        W75533   9.510  28.406  11.130
10549W        W75534  15.588  29.418   3.470
10550W        W75535  10.852  12.926  12.071
10551W        W75536  33.117  23.258   4.198
10552W        W75537  33.105  43.736   4.438
10553W        W75538   7.770  11.691  13.866
10554W        W75539  16.510  22.880   1.096
10555W        W75540  32.491  20.785  14.342
10556W        W75541  35.080  43.309  12.777
10557W        W75542  21.944  12.097   4.509
10558W        W75543  36.009  43.921   0.089
10559W        W75544  43.015   9.779   2.117
10560W        W75545  28.019  42.877  13.965
10561W        W75546  42.477  22.779   3.686
10562W        W75547  30.123  26.197   1.496
10563W        W75548  11.072  12.110   1.746
10564W        W75549  16.143  23.069   3.806
10565W        W75550  40.626  12.517  14.478
10566W        W75551  11.567  19.380  12.870
10567W        W75552  13.567   4.198  12.351
10568W        W75553  13.543  26.938   3.212
10569W        W75554  14.801  21.471  10.288
10570W        W75555  21.160  10.269   3.370
10571W        W75556   9.856   6.686  11.611
10572W        W75557  19.237  31.134   0.022
10573W        W75558  11.580  12.849  13.323
10574W        W75559   2.759   4.132  14.203
10575W        W75560   3.331  34.381  13.973
10576W        W75561  42.380  31.628  14.064
10577W        W75562  19.028  41.308  14.940
10578W        W75563  14.749  34.570  14.434
10579W        W75564  41.509   7.863   0.808
10580W        W75565  10.189  44.225  11.894
10581W        W75566  36.049  14.259   4.195
10582W        W75567  43.353  42.179  11.570
10583W        W75568  19.321  18.004   9.888
10584W        W75569   3.710  19.767   3.704
10585W        W75570  10.626  43.838   2.121
10586W        W75571  12.956  12.142  11.740
10587W        W75572  42.097  26.325  11.730
10588W        W75573  12.705  12.242  13.058
10589W        W75574  43.984   8.627  10.782
10590W        W75575  39.663  41.596  13.333
10591W        W75576  13.546  39.801   3.301
10592W        W75577  37.280  13.204  14.691
10593W        W75578  22.580  43.800   1.920
10594W        W75579  21.277   0.382   1.297
10595W        W75580  29.710  21.550  13.018
10596W        W75581  34.918  43.299   1.356
10597W        W75582  15.174  20.756  13.304
10598W        W75583  30.893  42.835  14.399
10599W        W75584  21.482  44.542   4.175
10600W        W75585  15.783  17.786   1.162
10601W        W75586   0.919  35.012   1.403
10602W        W75587  31.727   1.864   2.744
10603W        W75588  18.685  43.994   1.389
10604W        W75589  33.424  31.161   0.393
10605W        W75590   7.908  37.110   1.861
10606W        W75591  24.125  26.951   0.248
10607W        W75592  14.232  13.066   5.068
10608W        W75593  31.407  18.447   3.284
10609W        W75594   5.014   9.178   1.821
10610W        W75595  22.405  38.961   4.951
10611W        W75596  40.319  19.398   3.358
10612W        W75597   5.769  30.685   1.618
10613W        W75598  39.437  32.019   0.830
10614W        W75599   5.238  24.515  14.030
10615W        W75600  33.195   7.117  10.318
10616W        W75601  14.206   0.899   0.484
10617W        W75602  21.755  30.696  13.078
10618W        W75603  31.216  29.769  11.196
10619W        W75604   1.318  41.287   3.658
10620W        W75605  33.628   1.540   2.901
10621W        W75606   5.819  27.891  10.460
10622W        W75607   2.745  23.054  11.510
10623W        W75608  28.176   1.403  14.319
10624W        W75609   6.635  39.888   4.564
10625W        W75610  10.404  37.046   0.279
10626W        W75611  44.833   0.688   0.492
10627W        W75612  20.153  19.128  12.020
10628W        W75613  11.401  43.580   4.114
10629W        W75614  16.132  13.607   0.969
10630W        W75615  21.480  39.770  11.030
10631W        W75616   9.928  27.972  10.555
10632W        W75617   3.766   9.471  14.924
10633W        W75618   9.971  31.922   2.655
10634W        W75619   4.827   2.692   5.055
10635W        W75620   1.728   9.485   4.608
10636W        W75621  25.944  14.171   2.690
10637W        W75622  27.852  23.590   3.633
10638W        W75623  28.322   7.015  12.896
10639W        W75624   5.702  17.370   3.810
10640W        W75625  43.093   9.210   0.532
10641W        W75626   2.396  16.593   4.841
10642W        W75627  33.663  12.131   0.255
10643W        W75628   7.286  37.173  14.766
10644W        W75629  36.030  18.196   4.884
10645W        W75630  24.575   7.529   2.514
10646W        W75631  21.488  44.836   2.908
10647W        W75632  29.542  39.535   0.753
10648W        W75633  41.485  15.710  11.959
10649W        W75634  14.800  40.709  11.152
10650W        W75635  17.746  23.005   3.765
10651W        W75636  11.993   1.113  12.397
10652W        W75637  36.732  40.373  13.094
10653W        W75638  10.368  36.399  11.708
10654W        W75639  34.854   8.587  12.130
10655W        W75640  12.133  16.998  11.181
10656W        W75641  32.345  18.546  14.413
10657W        W75642   4.144   0.465   4.664
10658W        W75643  36.099  38.542   1.925
10659W        W75644  41.255  34.310   5.004
10660W        W75645   4.782  35.958  11.719
10661W        W75646  40.961  28.498  13.456
10662W        W75647  28.192  15.064  10.529
10663W        W75648  34.407  29.782  11.005
10664W        W75649  29.146  17.814  12.140
10665W        W75650  20.565  44.822   1.931
10666W        W75651  23.981  15.237  12.919
10667W        W75652   3.804  38.934   1.732
10668W        W75653  12.603   4.985  11.089
10669W        W75654  20.541  22.729   2.887
10670W        W75655  44.757  25.528   4.920
10671W        W75656  29.908  33.119  12.315
10672W        W75657   9.688   0.181  12.543
10673W        W75658   9.362   7.682   4.174
10674W        W75659  11.752   6.668  10.593
10675W        W75660  14.086   0.828   4.486
10676W        W75661   3.125   8.744  12.690
10677W        W75662  37.224  14.768   2.723
10678W        W75663  41.546  23.221   4.890
10679W        W75664  39.782  14.968  11.522
10680W        W75665  24.795  38.470   3.424
10681W        W75666  20.684  21.868  11.515
10682W        W75667  30.097   5.011  13.299
10683W        W75668  28.436   6.757  12.058
10684W        W75669  36.003   4.651   1.774
10685W        W75670  11.087  38.226   3.334
10686W        W75671  12.106  20.168  13.865
10687W        W75672  18.580   8.729   0.767
10688W        W75673  23.451  36.118   0.898
10689W        W75674  34.359  15.123   2.895
10690W        W75675  21.480  28.982   0.818
10691W        W75676   8.036  18.902  13.828
10692W        W75677  15.021   4.254   3.888
10693W        W75678   2.828   8.030  11.746
10694W        W75679  14.806  35.867   2.808
10695W        W75680  25.583   0.370  14.836
10696W        W75681  32.581  30.152   1.631
10697W        W75682  33.032  40.314  12.492
10698W        W75683  12.065  42.063  11.945
10699W        W75684  25.703  14.699  13.320
10700W        W75685  27.391  13.405  13.922
10701W        W75686   1.513  38.595   1.676
10702W        W75687  30.057  14.596  12.883
10703W        W75688   9.022   7.063  11.197
10704W        W75689   8.193  37.028  13.310
10705W        W75690  34.338  14.351  14.803
10706W        W75691  43.442  31.647  11.534
10707W        W75692  15.246   6.641  14.005
10708W        W75693  27.602   7.993  12.172
10709W        W75694  39.952  13.099  12.510
10710W        W75695  20.236  26.421   1.456
10711W        W75696  29.657  12.117   4.788
10712W        W75697  31.628  40.562   0.755
10713W        W75698  31.947  28.729  12.644
10714W        W75699  42.804  21.332   4.798
10715W        W75700  19.340   4.707  11.764
10716W        W75701  11.688  14.371   0.419
10717W        W75702  37.253  27.527  13.492
10718W        W75703  26.445   3.342  12.939
10719W        W75704  38.435  24.657  12.469
10720W        W75705  16.706  13.681   4.649
10721W        W75706  21.554  19.589   0.760
10722W        W75707  28.528  12.049   0.970
10723W        W75708  30.288  37.894  13.842
10724W        W75709   8.450  10.840  12.328
10725W        W75710  32.417  35.451   4.470
10726W        W75711  19.255  21.896   4.028
10727W        W75712  29.977  36.640  12.480
10728W        W75713  29.434  17.782  13.107
10729W        W75714  40.421   3.666  11.543
10730W        W75715  43.540  27.877   3.702
10731W        W75716   5.209  38.599  13.887
10732W        W75717  19.699  20.220   4.580
10733W        W75718  15.042  25.500   0.300
10734W        W75719  37.807  28.016   1.430
10735W        W75720   8.898  26.212  14.162
10736W        W75721  22.686  40.843   4.428
10737W        W75722  36.764  19.502   0.482
10738W        W75723  37.371  22.988   3.555
10739W        W75724  22.297  38.008   3.631
10740W        W75725  37.883  31.040   0.754
10741W        W75726  14.576  24.217  10.979
10742W        W75727  27.911  23.887  11.685
10743W        W75728  28.237   8.251   2.840
10744W        W75729   1.188  38.315   0.767
10745W        W75730  34.881  21.122   1.592
10746W        W75731   6.603  10.540  10.767
10747W        W75732  17.460  33.413   0.327
10748W        W75733  33.127  20.900   4.589
10749W        W75734  17.412  44.438   3.277
10750W        W75735   9.764  40.021  12.871
10751W        W75736  42.373  33.203   1.352
10752W        W75737   3.747  20.243   4.475
10753W        W75738  19.210  43.200  12.895
10754W        W75739  24.022  43.873   1.898
10755W        W75740  31.464  39.090   0.891
10756W        W75741  36.662   5.111   1.499
10757W        W75742  20.690   0.709  11.373
10758W        W75743  15.247  13.258  14.264
10759W        W75744   8.505  39.411  14.512
10760W        W75745  24.734   3.459  13.512
10761W        W75746  31.379  35.978  11.559
10762W        W75747  16.600  17.906   3.667
10763W        W75748  26.420  23.982  14.812
10764W        W75749  41.287   0.710   0.690
10765W        W75750   3.945  24.962   4.081
10766W        W75751  30.808  30.451   4.594
10767W        W75752  11.345  16.388  13.888
10768W        W75753  28.062  37.609  10.730
10769W        W75754  39.502   7.201  11.845
10770W        W75755  20.491   7.437  13.940
10771W        W75756  24.806  40.863  12.086
10772W        W75757  30.965  34.618   0.084
10773W        W75758  15.779  26.001   3.277
10774W        W75759  12.421  34.581  14.453
10775W        W75760  42.814  30.380   0.265
10776W        W75761  10.663  39.038  13.482
10777W        W75762  23.057   2.076   3.764
10778W        W75763  42.228  11.192   1.793
10779W        W75764   8.734  38.193   2.214
10780W        W75765  20.227  36.967   1.246
10781W        W75766   7.058  32.630   0.846
10782W        W75767  19.622  37.163   4.300
10783W        W75768  28.852   7.907   3.691
10784W        W75769   9.839   9.876   2.421
10785W        W75770  34.470  21.247  14.239
10786W        W75771  19.853  34.156  11.659
10787W        W75772  11.166   6.258   2.107
10788W        W75773   1.445  42.883  14.405
10789W        W75774  27.503  36.470  13.046
10790W        W75775  17.542  13.828  11.548
10791W        W75776   0.800  44.001  11.673
10792W        W75777  29.099  26.672  12.940
10793W        W75778  20.253  12.706   0.022
10794W        W75779  27.803  37.521   5.289
10795W        W75780   3.196   9.771  11.265
10796W        W75781  32.394   2.146  13.459
10797W        W75782  22.111  13.143  14.049
10798W        W75783  37.095  37.327   2.240
10799W        W75784  43.747  15.835   4.120
10800W        W75785  29.132  20.545   2.587
10801W        W75786  14.929  38.540  11.393
10802W        W75787  25.084  32.069   4.311
10803W        W75788  24.490  20.000   1.958
10804W        W75789  32.205  26.546  12.139
10805W        W75790  37.515  33.482   3.202
10806W        W75791  37.384  21.073   3.172
10807W        W75792  29.701  40.315  14.845
10808W        W75793  17.703   7.410  14.091
10809W        W75794   1.029  26.471   4.512
10810W        W75795   0.638   8.770  14.663
10811W        W75796   0.437  38.414   5.029
10812W        W75797  36.935  30.638   2.200
10813W        W75798  30.280  44.457  14.618
10814W        W75799   8.756  19.255   2.358
10815W        W75800  38.498   0.489  10.377
10816W        W75801  20.128  10.649  13.018
10817W        W75802   9.589  17.138  12.521
10818W        W75803  18.600  43.492   0.017
10819W        W75804   5.981   1.508  10.756
10820W        W75805  15.637   0.501   3.612
10821W        W75806  28.157  25.132   1.431
10822W        W75807  10.771  23.248  14.398
10823W        W75808   0.910   2.057  14.436
10824W        W75809   5.133  31.006   3.076
10825W        W75810   3.786  30.909   4.635
10826W        W75811  39.403  22.072  10.662
10827W        W75812  19.762  42.205  13.036
10828W        W75813  35.339   5.655   1.684
10829W        W75814   8.938   2.842   2.483
10830W        W75815   5.234  43.052  14.885
10831W        W75816   3.764  42.907   1.245
10832W        W75817  27.152   1.479   4.028
10833W        W75818  35.953  37.007   0.963
10834W        W75819   1.535  30.043   4.534
10835W        W75820  38.271  36.820  13.939
10836W        W75821  18.517  35.535   2.658
10837W        W75822  39.022  19.029   0.239
10838W        W75823  10.106  34.648  14.755
10839W        W75824   7.810   7.660   0.265
10840W        W75825  28.208   6.715   1.475
10841W        W75826  11.543  39.289   5.032
10842W        W75827  36.115  40.718   0.656
10843W        W75828  29.430  37.945  13.300
10844W        W75829  30.801   2.764   4.320
10845W        W75830  28.435  43.256  13.964
10846W        W75831  19.638  30.160  14.399
10847W        W75832  16.671   7.676  10.319
10848W        W75833  33.123  21.341  11.895
10849W        W75834  15.857  27.237  11.598
10850W        W75835  22.187  43.358  12.497
10851W        W75836  16.727  40.908  13.994
10852W        W75837  43.928   9.090  10.568
10853W        W75838  11.772  23.558   1.832
10854W        W75839  19.840  15.935  13.955
10855W        W75840  25.560   3.760   1.667
10856W        W75841  24.200  35.565   0.682
10857W        W75842  39.103  33.908  14.356
10858W        W75843  29.521  14.679  12.910
10859W        W75844  30.712  39.493  11.757
10860W        W75845   3.689  23.059  10.726
10861W        W75846  16.143  25.639  13.924
10862W        W75847   9.861  19.981   0.357
10863W        W75848  19.275  38.190   0.378
10864W        W75849  23.787  30.992  13.049
10865W        W75850  27.511  11.560  11.556
10866W        W75851  25.667  32.531   1.213
10867W        W75852   2.290   2.145  14.335
10868W        W75853  18.257  18.615  10.155
10869W        W75854  17.699   4.019   4.432
10870W        W75855  15.221  26.964   1.228
10871W        W75856  26.497   0.109   4.651
10872W        W75857  19.738   6.142  13.580
10873W        W75858   8.446   4.826  14.757
10874W        W75859  42.980  44.771   2.686
10875W        W75860  19.009  43.409  11.411
10876W        W75861  39.379  37.909   1.845
10877W        W75862  15.362  41.451  13.492
10878W        W75863  35.832  31.455  13.813
10879W        W75864  17.635  15.428   0.267
10880W        W75865  14.736  11.722   3.574
10881W        W75866  13.716  11.225  12.925
10882W        W75867  40.786  10.689  14.054
10883W        W75868  30.348  11.867   4.209
10884W        W75869  27.518  13.794   1.123
10885W        W75870  28.991  39.662  13.581
10886W        W75871  36.911  19.585   4.668
10887W        W75872  41.363  33.027  13.082
10888W        W75873  44.787  24.485   2.172
10889W        W75874  15.083  29.676   2.724
10890W        W75875  11.412  31.575   4.126
10891W        W75876   0.258  12.763  14.818
10892W        W75877  44.206  31.016  12.868
10893W        W75878  12.729  25.919  11.992
10894W        W75879   1.494  24.200   3.554
10895W        W75880  35.554  17.105  14.714
10896W        W75881   6.609   8.345  11.103
10897W        W75882   7.354  33.639   0.369
10898W        W75883  26.462  44.409   1.377
10899W        W75884  25.863  39.850  12.073
10900W        W75885   2.909  10.257   3.723
10901W        W75886  37.016  15.994  11.070
10902W        W75887  33.188  15.385  10.688
10903W        W75888  11.391  41.018  12.545
10904W        W75889   7.450  32.486  12.187
10905W        W75890  27.553   4.956  10.600
10906W        W75891  32.418  26.598   2.037
10907W        W75892  15.078  33.836  14.379
10908W        W75893   4.267  14.396   2.751
10909W        W75894  28.094  34.858   4.253
10910W        W75895  37.375   5.007   1.369
10911W        W75896  24.205  34.537  10.061
10912W        W75897  13.808   6.455   1.219
10913W        W75898   4.207  24.068   3.753
10914W        W75899  28.187  23.948  12.108
10915W        W75900  30.008   8.670   3.046
10916W        W75901  20.707  10.636   3.376
10917W        W75902  16.070  24.780  14.400
10918W        W75903   7.697   9.716   1.334
10919W        W75904  41.432  41.663  12.135
10920W        W75905   8.821   5.733   0.852
10921W        W75906  41.444  32.553  10.802
10922W        W75907  29.869  36.172  13.392
10923W        W75908  44.928   3.957  10.807
10924W        W75909  42.320  12.355   1.400
10925W        W75910  26.270   6.224  11.041
10926W        W75911   3.604  33.310   2.246
10927W        W75912  24.636  12.936  12.842
10928W        W75913  41.783  35.356  13.891
10929W        W75914  22.630  37.241  10.341
10930W        W75915  41.826   9.747   1.482
10931W        W75916  38.036  22.011   1.430
10932W        W75917  37.073  40.312  12.018
10933W        W75918  27.296  41.734  12.846
10934W        W75919   5.387  24.216   1.553
10935W        W75920  23.650  42.874  11.585
10936W        W75921  15.801   2.458  10.526
10937W        W75922   3.682  12.358   4.553
10938W        W75923  28.916  13.326   1.249
10939W        W75924  20.485  41.307  14.829
10940W        W75925  28.874  39.829   3.224
10941W        W75926  41.530  25.993  13.658
10942W        W75927  12.353  10.204  11.183
10943W        W75928  44.900  14.048  14.102
10944W        W75929  21.099  35.091  13.396
10945W        W75930  44.482   3.252  11.233
10946W        W75931  30.547   8.490  11.268
10947W        W75932  43.192  24.134  12.487
10948W        W75933   7.180  12.143  11.173
10949W        W75934  32.757   8.441   1.262
10950W        W75935  33.774  15.654   2.668
10951W        W75936  26.490  23.236   4.337
10952W        W75937  12.919  19.453  11.179
10953W        W75938   6.629   5.247   3.067
10954W        W75939  22.591   6.280  11.189
10955W        W75940  19.608   9.009   4.267
10956W        W75941  43.153  20.687  10.376
10957W        W75942  43.972  24.938  13.943
10958W        W75943  42.359   8.103  12.571
10959W        W75944   7.899  33.429   5.071
10960W        W75945   3.906  17.826  11.600
10961W        W75946  16.157  38.522   2.261
10962W        W75947  24.416   0.853  14.309
10963W        W75948   1.968  34.784   4.527
10964W        W75949  14.076   5.818   0.741
10965W        W75950  37.567  44.848   0.184
10966W        W75951  10.843   6.806  14.048
10967W        W75952  21.541  32.273   4.228
10968W        W75953  30.875  27.056   2.681
10969W        W75954   1.551  24.967   4.941
10970W        W75955  27.668  35.069   0.787
10971W        W75956  18.069  11.339   4.363
10972W        W75957  29.622  37.931  14.791
10973W        W75958   0.976  38.459  13.417
10974W        W75959  31.065   4.774  10.120
10975W        W75960   0.832  38.973  12.551
10976W        W75961   3.775  12.628   3.257
10977W        W75962   6.113  16.549   4.099
10978W        W75963  23.502  18.606  14.358
10979W        W75964  35.604   1.354  10.529
10980W        W75965  18.576  36.904  11.515
10981W        W75966  27.901  17.198   0.630
10982W        W75967  37.874  37.986   1.738
10983W        W75968  19.308   0.171   2.486
10984W        W75969  43.571  14.294  10.703
10985W        W75970  22.647   0.847  14.554
10986W        W75971  44.802  24.050  14.244
10987W        W75972  41.471  44.549  12.934
10988W        W75973  19.321  29.791   2.746
10989W        W75974  23.435  32.531  11.989
10990W        W75975  19.871   7.758  11.004
10991W        W75976  36.996  43.433   3.721
10992W        W75977  41.654  38.951   1.187
10993W        W75978   0.145  10.066  13.673
10994W        W75979  39.209  28.961  10.173
10995W        W75980   1.856  29.638   4.573
10996W        W75981   7.278  39.825  13.992
10997W        W75982  30.623  34.363   2.426
10998W        W75983   0.248  36.899   9.632
10999W        W75984   1.934   4.199  14.786
11000W        W75985  21.056  21.510  14.719
11001W        W75986  14.162  20.247  10.792
11002W        W75987   5.481  11.785   2.607
11003W        W75988  28.837  38.022   1.705
11004W        W75989  36.438  39.380  13.309
11005W        W75990  30.640  44.464   1.987
11006W        W75991  29.410  12.108  13.400
11007W        W75992   7.922  14.055   2.289
11008W        W75993  37.868  43.877   0.134
11009W        W75994   2.049  22.569  14.244
11010W        W75995  25.695  25.145   1.315
11011W        W75996  30.630  19.957   0.380
11012W        W75997  28.278  33.493   3.743
11013W        W75998   6.709  22.059   1.242
11014W        W75999   9.408   8.146  14.952
11015W        W76000  43.179   0.204   2.476
11016W        W76001  18.681  31.077  13.305
11017W        W76002  39.078  40.470   0.333
11018W        W76003  16.861  24.904  11.233
11019W        W76004   3.032   6.162   2.857
11020W        W76005   1.533   5.477  14.926
11021W        W76006  42.740  44.376   2.379
11022W        W76007   2.544  25.194  10.826
11023W        W76008   8.550   6.150   1.789
11024W        W76009  26.813  24.334  14.851
11025W        W76010  43.431   9.498  11.620
11026W        W76011  38.737  36.544  13.852
11027W        W76012  35.294   4.681  12.209
11028W        W76013  19.453   3.642   0.532
11029W        W76014  14.757  41.563   3.604
11030W        W76015   8.566  17.192   3.884
11031W        W76016  25.229  27.986   4.180
11032W        W76017  42.317   4.902  14.268
11033W        W76018  12.429  38.196  13.131
11034W        W76019   6.835  24.583   0.971
11035W        W76020   2.771  32.233   2.895
11036W        W76021  31.413  15.359  13.746
11037W        W76022  16.794  42.918  12.172
11038W        W76023   0.344  22.596  14.227
11039W        W76024  28.354  13.326   1.318
11040W        W76025   1.452  12.712   3.672
11041W        W76026  33.650  35.875  12.213
11042W        W76027  16.398  26.296   1.989
11043W        W76028  36.794  13.158   2.916
11044W        W76029  14.366   5.034   9.856
11045W        W76030   1.699   5.898   2.385
11046W        W76031  11.503   6.271   4.203
11047W        W76032  34.882  30.509   4.163
11048W        W76033  29.883  41.895  11.037
11049W        W76034  14.185  26.367  10.918
11050W        W76035  19.132  35.901   1.136
11051W        W76036   6.391  32.698  10.921
11052W        W76037  24.605  13.824   2.835
11053W        W76038  18.365   8.310   2.229
11054W        W76039  23.941  17.766  14.230
11055W        W76040   7.834  32.938   3.901
11056W        W76041  21.802  24.771   0.840
11057W        W76042   0.427  28.582   3.978
11058W        W76043  18.697  30.169   4.482
11059W        W76044  26.571  23.087  12.384
11060W        W76045  41.923  43.859  12.228
11061W        W76046  33.477   7.007  14.179
11062W        W76047  20.107  26.251  11.068
11063W        W76048   9.301   3.739  12.477
11064W        W76049  20.133  28.963   3.703
11065W        W76050   7.226   7.076   0.734
11066W        W76051  37.949  26.730  13.987
11067W        W76052   6.570  38.632   1.900
11068W        W76053   7.713  18.796  12.527
11069W        W76054  26.497  41.534   4.539
11070W        W76055   2.916   5.795   0.791
11071W        W76056  37.977  12.788  14.901
11072W        W76057   8.921  14.317   4.141
11073W        W76058  43.030   8.192   0.310
11074W        W76059  15.722  34.798  10.608
11075W        W76060  23.106   9.610   4.172
11076W        W76061  20.004  22.492  12.544
11077W        W76062  33.406  16.061   0.813
11078W        W76063  31.014   8.410   0.959
11079W        W76064   4.321  23.255  11.681
11080W        W76065  35.052  22.772   0.542
11081W        W76066  40.503  23.705   1.648
11082W        W76067  40.945  30.254   9.735
11083W        W76068  26.223  31.185  10.951
11084W        W76069  21.214   6.812   4.641
11085W        W76070   3.472  22.756   1.704
11086W        W76071   1.783  44.529  12.639
11087W        W76072  19.603   6.437   3.189
11088W        W76073  33.904  42.985   2.174
11089W        W76074  41.640  14.673  12.656
11090W        W76075  33.424  18.279   0.978
11091W        W76076  43.822  13.848  10.743
11092W        W76077  36.592   1.052   2.160
11093W        W76078  36.033  13.511  12.880
11094W        W76079  44.780  22.122   2.354
11095W        W76080  19.647  27.240   5.390
11096W        W76081  39.023  35.894   0.437
11097W        W76082   6.289  12.430  12.092
11098W        W76083   0.292   3.499   1.253
11099W        W76084  32.815  25.730  12.101
11100W        W76085  38.945  17.430  10.484
11101W        W76086  17.016  29.471  13.304
11102W        W76087  14.601  34.212   0.898
11103W        W76088   4.815  36.836   0.466
11104W        W76089   6.921  32.985  11.596
11105W        W76090  15.826  21.658   2.303
11106W        W76091  35.978  30.146   3.796
11107W        W76092  40.715  13.516  12.109
11108W        W76093  13.886   3.385  10.304
11109W        W76094  22.537  22.667   3.720
11110W        W76095  29.697  13.946   3.233
11111W        W76096   5.243  15.769  14.957
11112W        W76097  35.955   5.612  14.356
11113W        W76098   7.336   5.960  11.233
11114W        W76099  34.835  11.601   4.753
11115W        W76100  42.871  19.424  10.753
11116W        W76101   6.958  13.633  11.119
11117W        W76102   5.691   4.313  11.678
11118W        W76103  26.444  38.386  12.045
11119W        W76104  10.150   6.238  13.388
11120W        W76105  37.749  36.046  13.839
11121W        W76106  22.204  42.774   2.706
11122W        W76107  25.399  23.125   2.305
11123W        W76108  10.217  26.648  13.038
11124W        W76109  24.764   5.510  12.845
11125W        W76110  36.057   3.198   1.276
11126W        W76111  37.369  20.474   1.935
11127W        W76112  41.689  15.280  12.523
11128W        W76113  44.626  34.609  10.781
11129W        W76114  13.034   7.151  10.410
11130W        W76115  36.937  22.759   1.840
11131W        W76116  14.611   7.168   4.651
11132W        W76117  24.213  11.822  14.962
11133W        W76118  25.322  34.501   2.297
11134W        W76119  31.495  30.319   0.873
11135W        W76120  23.190   8.795  11.116
11136W        W76121   0.046  14.563   1.661
11137W        W76122  23.067  35.106  12.658
11138W        W76123  43.103  17.506  13.852
11139W        W76124   9.381   5.153  13.018
11140W        W76125  39.543  10.800  12.684
11141W        W76126  11.940   5.906  13.992
11142W        W76127  24.156  26.223  14.739
11143W        W76128   8.302  39.864   2.912
11144W        W76129   0.342  20.560  13.450
11145W        W76130  23.938  20.796   4.146
11146W        W76131  30.809  33.095   3.188
11147W        W76132   4.722  41.038  12.982
11148W        W76133  36.464   9.155   3.510
11149W        W76134  13.584   5.918  11.969
11150W        W76135  33.796  37.134   1.781
11151W        W76136  11.257  17.694   4.476
11152W        W76137   3.110  24.720   2.270
11153W        W76138  19.835  42.565  12.078
11154W        W76139  35.450   9.322  13.577
11155W        W76140   4.091   2.276   4.340
11156W        W76141  15.656  32.553   4.500
11157W        W76142  36.539  11.186   3.627
11158W        W76143  40.340   3.665   3.658
11159W        W76144  28.391  31.897   4.902
11160W        W76145   2.813  17.299   0.565
11161W        W76146  25.564  37.367  13.393
11162W        W76147  39.122  24.574   0.951
11163W        W76148  10.213  14.551   4.160
11164W        W76149  13.691   4.531  13.374
11165W        W76150  40.411   6.879  11.435
11166W        W76151  41.347  10.913  11.203
11167W        W76152   9.266  23.041  10.754
11168W        W76153  39.538  37.672   0.702
11169W        W76154  16.672   8.224   4.522
11170W        W76155  34.423   0.738   0.720
11171W        W76156  21.530  16.745  10.337
11172W        W76157  36.599  25.545  14.089
11173W        W76158  10.098   5.714   2.701
11174W        W76159  33.393   8.567  12.224
11175W        W76160  16.770  10.884  13.565
11176W        W76161  34.651  31.816   1.737
11177W        W76162  29.231  30.898  13.113
11178W        W76163  14.369  16.487  14.880
11179W        W76164  38.256  13.388   4.307
11180W        W76165   2.514  42.387  12.458
11181W        W76166  38.998   5.505   4.828
11182W        W76167   4.899  37.811   0.293
11183W        W76168   3.555  33.444   4.621
11184W        W76169  34.869   1.079   4.951
11185W        W76170  30.602  23.696  10.708
11186W        W76171  32.933  35.850   1.294
11187W        W76172  32.565  14.817   3.466
11188W        W76173   3.023  14.681   0.275
11189W        W76174   5.797  37.640   2.688
11190W        W76175  23.637  36.624   4.680
11191W        W76176  43.707  34.176   3.206
11192W        W76177  40.907   1.509   1.417
11193W        W76178  31.322  15.630  12.589
11194W        W76179  29.384  13.246  12.063
11195W        W76180  11.345  37.015  12.476
11196W        W76181  36.358  17.047  13.682
11197W        W76182  39.120  30.510   1.361
11198W        W76183   8.651  11.189  13.422
11199W        W76184  21.197  38.137   4.592
11200W        W76185  21.931   5.394   0.404
11201W        W76186  19.322   0.916   3.106
11202W        W76187  34.893  36.435  11.015
11203W        W76188   6.523  29.038  10.697
11204W        W76189  27.690  13.578  12.394
11205W        W76190   8.360  13.666   1.221
11206W        W76191  31.453  12.149   0.922
11207W        W76192  12.628   4.404  14.824
11208W        W76193   8.926  44.462  14.936
11209W        W76194  30.188  41.082   4.708
11210W        W76195   8.379  35.651  10.556
11211W        W76196   0.289  37.055   4.060
11212W        W76197   4.923   8.133   0.423
11213W        W76198   2.292  43.868  13.859
11214W        W76199  19.611  10.374   2.271
11215W        W76200  40.478  36.090  12.990
11216W        W76201  24.967   0.027   1.897
11217W        W76202  36.463  14.236  10.672
11218W        W76203  36.842  26.594   1.805
11219W        W76204  17.419  14.537  11.121
11220W        W76205  39.416  33.632  10.862
11221W        W76206  35.447   6.777   1.269
11222W        W76207  34.841  17.047  12.062
11223W        W76208  40.780   9.690   3.295
11224W        W76209   8.849  14.675  11.139
11225W        W76210  44.920  23.990  12.843
11226W        W76211   3.511  20.118  12.959
11227W        W76212  22.325   5.569   0.832
11228W        W76213  12.647   5.284  11.491
11229W        W76214   1.734  27.048  10.767
11230W        W76215   7.410  32.901  11.439
11231W        W76216  44.220   1.380  12.900
11232W        W76217  21.810  20.627  14.060
11233W        W76218  37.896  16.303   2.303
11234W        W76219   8.283  39.480  12.623
11235W        W76220  31.492  24.477   4.199
11236W        W76221   7.370  35.989  13.394
11237W        W76222  28.668  11.218  12.973
11238W        W76223  22.101  38.117   1.445
11239W        W76224  34.596  19.246  10.649
11240W        W76225  31.231  31.149   4.104
11241W        W76226  37.591  26.869   1.687
11242W        W76227  14.824  23.808  11.187
11243W        W76228  18.714  44.222   3.251
11244W        W76229   6.187  36.443  14.384
11245W        W76230  34.365  22.023   1.450
11246W        W76231  17.250  24.054  13.331
11247W        W76232   4.070  11.951   2.132
11248W        W76233   7.809  23.792   4.084
11249W        W76234  10.448  34.222   1.909
11250W        W76235  14.599  44.965   1.641
11251W        W76236  14.340  40.288  11.636
11252W        W76237  22.707  22.647  11.852
11253W        W76238  26.156  35.103   1.288
11254W        W76239  15.992   5.140  14.501
11255W        W76240  32.097  39.615   2.224
11256W        W76241  23.411  32.366  13.883
11257W        W76242  32.464   5.098   1.369
11258W        W76243  29.312  17.183   1.320
11259W        W76244  13.703  30.563   0.689
11260W        W76245   5.805  40.454  14.502
11261W        W76246  14.801  10.735   2.239
11262W        W76247  10.816   7.949  13.359
11263W        W76248  20.824  32.991  13.489
11264W        W76249  25.202  23.808  14.817
11265W        W76250  41.072   8.248  10.605
11266W        W76251  16.656  12.896   0.321
11267W        W76252  27.926  16.686  12.384
11268W        W76253  24.604  38.883   4.208
11269W        W76254  38.474  26.926   3.322
11270W        W76255  22.696  17.158  10.804
11271W        W76256  12.668  18.664   1.760
11272W        W76257  27.180  34.116   4.583
11273W        W76258  20.566  40.279   1.899
11274W        W76259  35.833  42.643  14.465
11275W        W76260  32.071  27.310  13.023
11276W        W76261  12.174  20.166  12.951
11277W        W76262   0.821   5.358  12.894
11278W        W76263  41.357  35.280   3.159
11279W        W76264  35.894  44.346   1.411
11280W        W76265   6.833  20.271   4.164
11281W        W76266  17.628  32.932   0.352
11282W        W76267  25.128  14.157  10.960
11283W        W76268   1.852  13.076  14.111
11284W        W76269  21.226  41.986  11.747
11285W        W76270   6.953  36.965   2.955
11286W        W76271   7.338  19.693   2.626
11287W        W76272  41.502  33.551   3.234
11288W        W76273  34.803  39.637   1.382
11289W        W76274  42.882  20.668  13.858
11290W        W76275  26.881   9.780   0.180
11291W        W76276  27.450   4.809  12.035
11292W        W76277  22.094  38.985   1.667
11293W        W76278   4.480  13.852   0.476
11294W        W76279  12.382  11.819   0.297
11295W        W76280  17.725  41.386  14.465
11296W        W76281  11.814  44.978   3.796
11297W        W76282  11.766  18.422   1.857
11298W        W76283  42.657   1.738   3.757
11299W        W76284  11.109  40.053  12.985
11300W        W76285  33.933   1.282   4.260
11301W        W76286  13.387  40.754   4.984
11302W        W76287  24.744   0.748   0.894
11303W        W76288  27.841  27.396   9.882
11304W        W76289  10.732   7.864   2.094
11305W        W76290  31.724  32.416  11.591
11306W        W76291   7.271   4.094   9.968
11307W        W76292  17.559  14.013  11.040
11308W        W76293  18.007   9.215  10.531
11309W        W76294   0.051  23.493  11.483
11310W        W76295   4.817   0.775   2.920
11311W        W76296  31.503  17.894   0.188
11312W        W76297  30.716   8.741   1.275
11313W        W76298  29.697   7.725   0.013
11314W        W76299  10.257   8.727   3.646
11315W        W76300  24.458   1.742  14.239
11316W        W76301  11.612  28.661  13.480
11317W        W76302  40.470  16.288   3.571
11318W        W76303  10.349  11.669   2.640
11319W        W76304  18.240  39.680   3.080
11320W        W76305  19.110  37.333  10.433
11321W        W76306  10.921  38.327  11.145
11322W        W76307   8.894  29.172   2.201
11323W        W76308  24.033   2.459   1.960
11324W        W76309  34.411  25.008  11.564
11325W        W76310   5.781  29.475   0.354
11326W        W76311  32.039  41.849   0.729
11327W        W76312  18.060  23.169  14.943
11328W        W76313   3.643  23.774  12.034
11329W        W76314  12.396  29.907   2.940
11330W        W76315  14.861  32.143  12.140
11331W        W76316   3.687  33.516  14.223
11332W        W76317   8.837   5.511   0.340
11333W        W76318   0.242  14.787  11.593
11334W        W76319   4.043   3.936  13.798
11335W        W76320  37.009  17.771   1.202
11336W        W76321  39.778  11.904   1.904
11337W        W76322  37.035  36.596  14.327
11338W        W76323  29.127   0.923  14.377
11339W        W76324  38.341   8.206  13.415
11340W        W76325  37.528  32.954   3.296
11341W        W76326  23.406   3.354  14.677
11342W        W76327  22.085  13.112   1.910
11343W        W76328  33.101  37.586   3.138
11344W        W76329  20.513   4.809   3.221
11345W        W76330  14.735  13.793   4.839
11346W        W76331   2.043  28.966  12.814
11347W        W76332  27.103  39.221   0.089
11348W        W76333  17.810  40.692   3.280
11349W        W76334  21.178  22.508   1.680
11350W        W76335   0.179  30.538  14.517
11351W        W76336  37.501   6.794   1.305
11352W        W76337  31.128  14.304  11.996
11353W        W76338  11.187   9.628  10.534
11354W        W76339  22.930  23.046   3.753
11355W        W76340  32.305  28.028   5.050
11356W        W76341  31.866  36.286   4.867
11357W        W76342  10.448  30.103   4.174
11358W        W76343  41.055  33.426  12.961
11359W        W76344  41.081  40.871  13.847
11360W        W76345   7.088  14.769  13.667
11361W        W76346  23.971  38.050  12.023
11362W        W76347  16.583  22.214   4.619
11363W        W76348  43.386  43.574  13.964
11364W        W76349  23.793  30.052  14.901
11365W        W76350   3.923  22.297   3.993
11366W        W76351  10.393  33.206   0.750
11367W        W76352   7.947  37.504  13.475
11368W        W76353  19.711   8.835  14.913
11369W        W76354  25.248  21.810  14.716
11370W        W76355   6.611  37.278   2.658
11371W        W76356  34.754  32.311   3.636
11372W        W76357  19.638   4.935  10.147
11373W        W76358  20.418  22.192  14.993
11374W        W76359   1.241   2.345   2.561
11375W        W76360  25.643   4.936  12.602
11376W        W76361   9.594  32.757   2.292
11377W        W76362  17.384   7.036   3.508
11378W        W76363  17.071   6.704   3.223
11379W        W76364  39.415  18.513   2.867
11380W        W76365   9.138   2.420   2.244
11381W        W76366   1.770  42.288  14.955
11382W        W76367  32.433  24.197   0.277
11383W        W76368  34.672  23.602   1.427
11384W        W76369  18.372   3.379  11.242
11385W        W76370  16.749  19.150  12.083
11386W        W76371  34.418  40.512  13.901
11387W        W76372  22.453   8.307  13.444
11388W        W76373  31.009  14.880   2.668
11389W        W76374   0.251  32.886  14.983
11390W        W76375  25.659   0.254   4.652
11391W        W76376   5.611  13.198   0.972
11392W        W76377  35.809  39.056  10.589
11393W        W76378  28.006  32.492  12.172
11394W        W76379  23.795  15.155   4.521
11395W        W76380  26.336  42.443  14.451
11396W        W76381  31.691  38.923   4.072
11397W        W76382  13.714   1.669  11.800
11398W        W76383  11.727  28.715   3.202
11399W        W76384  40.860   1.326  12.027
11400W        W76385  23.184  33.906   4.128
11401W        W76386  34.762  43.078   0.315
11402W        W76387   0.803   1.232  10.760
11403W        W76388  10.147   7.229  14.102
11404W        W76389  26.471  33.111  10.198
11405W        W76390  13.257  34.204   4.214
11406W        W76391  16.862  25.603   0.679
11407W        W76392  32.822  11.047  14.872
11408W        W76393  30.114  32.555   9.835
11409W        W76394   3.993  20.607   0.323
11410W        W76395  15.747  33.043  11.984
11411W        W76396  22.071  38.503   3.695
11412W        W76397  16.889  15.660  10.590
11413W        W76398  13.211  15.508   9.808
11414W        W76399   4.253   4.338  12.376
11415W        W76400  32.475  31.699   4.678
11416W        W76401  30.711  40.931  12.628
11417W        W76402  11.249  18.733  14.031
11418W        W76403  13.197   6.493  12.710
11419W        W76404   9.150  10.792   1.161
11420W        W76405   5.850   4.916  12.533
11421W        W76406  15.172  13.559   2.677
11422W        W76407  22.846  21.154   1.794
11423W        W76408   7.624  31.321  12.012
11424W        W76409   8.724  34.951   0.088
11425W        W76410  31.052   0.627  14.275
11426W        W76411  28.928  10.549   4.076
11427W        W76412  10.914  12.091   4.138
11428W        W76413  28.457  44.537   1.403
11429W        W76414  16.437  28.823   5.356
11430W        W76415  24.803  30.867   0.094
11431W        W76416  26.033  41.035   3.622
11432W        W76417  35.020  31.324   3.286
11433W        W76418  40.687   6.381   2.655
11434W        W76419  19.477  14.758  13.602
11435W        W76420  19.526  37.480  14.994
11436W        W76421  20.232  41.158   0.834
11437W        W76422  34.472  31.140   4.193
11438W        W76423  40.948  26.685  13.316
11439W        W76424   5.728  43.873  14.060
11440W        W76425  19.042  39.889  14.812
11441W        W76426   2.220   3.439  11.879
11442W        W76427   4.842  43.121  13.453
11443W        W76428   7.347  27.480  13.010
11444W        W76429  43.940  13.235  14.838
11445W        W76430  37.618  14.656   1.910
11446W        W76431  41.586   2.436   4.590
11447W        W76432  28.585  21.984   0.381
11448W        W76433  33.053  31.148   4.267
11449W        W76434  42.779  24.448   3.181
11450W        W76435  38.635   9.882  14.980
11451W        W76436   4.407   4.810   5.460
11452W        W76437  15.797   3.207   3.604
11453W        W76438   3.939  25.465  14.559
11454W        W76439  37.461  42.775  13.864
11455W        W76440   4.413  32.001   0.242
11456W        W76441  29.756  10.847   1.248
11457W        W76442  16.029  44.445   0.829
11458W        W76443   1.682  40.321   3.527
11459W        W76444  29.679  20.495  13.005
11460W        W76445   8.817  44.902  14.277
11461W        W76446  17.755  21.456   2.291
11462W        W76447  22.219  19.712   2.626
11463W        W76448  39.098  16.799  12.508
11464W        W76449  12.394  14.568  14.414
11465W        W76450  18.965  14.619  13.501
11466W        W76451  39.070  27.535   3.118
11467W        W76452  26.887  24.963  11.006
11468W        W76453   8.829  31.496  10.469
11469W        W76454  17.188   1.055  10.096
11470W        W76455  12.746  11.432  11.234
11471W        W76456  31.198  19.580   2.090
11472W        W76457  36.863   4.168   2.275
11473W        W76458  12.367  35.925   4.708
11474W        W76459  32.644  39.438   4.714
11475W        W76460  38.775   7.797   2.009
11476W        W76461  17.579  41.833  13.499
11477W        W76462  10.097   6.670  10.241
11478W        W76463   2.519  22.008  12.571
11479W        W76464  43.562  42.855  13.450
11480W        W76465  17.300   9.778  12.975
11481W        W76466  15.021  39.340   0.727
11482W        W76467  23.040  32.622  12.349
11483W        W76468  14.734  19.316   2.268
11484W        W76469  41.341  30.813   4.121
11485W        W76470   0.388  33.920  13.186
11486W        W76471  10.081  10.740   0.939
11487W        W76472  30.168  30.209   4.079
11488W        W76473  12.293   3.637   4.951
11489W        W76474  23.589  15.734   3.346
11490W        W76475  24.021  41.520  12.950
11491W        W76476  31.371   8.168  13.593
11492W        W76477   2.427   0.576  11.826
11493W        W76478  40.386   0.301  11.233
11494W        W76479  38.424   2.343  11.911
11495W        W76480   4.207  33.621   0.888
11496W        W76481  31.843   0.198   3.427
11497W        W76482  36.519  39.756  10.408
11498W        W76483   8.693  12.340  12.414
11499W        W76484   6.387  28.085   2.213
11500W        W76485   2.225  30.961  11.031
11501W        W76486   6.804   7.739   2.604
11502W        W76487  29.145  22.547   2.335
11503W        W76488  43.282  26.623  11.109
11504W        W76489   0.361  15.516  11.105
11505W        W76490  30.967  36.409  10.709
11506W        W76491  44.047  14.833  13.955
11507W        W76492  40.888  25.955   4.227
11508W        W76493  43.724  40.845  11.806
11509W        W76494   6.152  17.650   3.700
11510W        W76495  22.770  15.570  12.395
11511W        W76496  31.599  27.488   0.434
11512W        W76497   9.845   4.403  10.910
11513W        W76498  40.108  41.360   0.824
11514W        W76499  20.725   0.217  13.854
11515W        W76500  32.671  30.151   2.147
11516W        W76501  35.531  14.696   0.428
11517W        W76502  31.247  16.361   0.208
11518W        W76503  11.211  34.319   1.955
11519W        W76504   4.323  33.268   1.257
11520W        W76505  39.241  17.316  11.987
11521W        W76506  11.533  28.352   1.841
11522W        W76507  27.719  33.080   2.945
11523W        W76508   9.549  14.838   1.801
11524W        W76509  41.057   9.224   1.918
11525W        W76510  23.007  18.722  13.524
11526W        W76511  26.187  43.494   9.913
11527W        W76512   6.694  25.988  14.838
11528W        W76513  24.143  42.925   3.196
11529W        W76514  42.258  15.752   1.362
11530W        W76515  14.532  17.174  11.121
11531W        W76516  41.899  43.051   5.118
11532W        W76517  36.412   6.326   0.398
11533W        W76518  35.141  40.410   2.251
11534W        W76519  13.049   8.554  12.505
11535W        W76520  25.413  37.051   2.224
11536W        W76521  38.458  23.231   3.799
11537W        W76522  24.126  44.303   0.966
11538W        W76523  44.420  44.884   2.710
11539W        W76524  13.814  27.774  13.360
11540W        W76525  37.793  14.303  13.943
11541W        W76526  42.898  38.271   2.219
11542W        W76527   9.154  42.293   2.225
11543W        W76528  18.552  35.824   3.906
11544W        W76529  23.467   2.424   0.678
11545W        W76530   2.401  18.710   1.171
11546W        W76531   8.005  42.008   4.592
11547W        W76532  11.301  18.660  12.194
11548W        W76533  11.815  30.349  13.891
11549W        W76534  11.388   8.593  10.620
11550W        W76535  41.757  28.617   1.855
11551W        W76536  24.082  25.189  13.155
11552W        W76537  33.421   1.919  10.665
11553W        W76538   6.186  39.502   1.826
11554W        W76539  34.220  16.185   0.940
11555W        W76540  36.916   4.835   2.718
11556W        W76541  11.624  31.601  12.055
11557W        W76542   0.938  40.541   4.517
11558W        W76543  28.788  21.071  11.596
11559W        W76544  11.347  28.652   4.246
11560W        W76545   6.314  31.851  10.426
11561W        W76546  24.145   4.547  14.039
11562W        W76547  38.537  25.581  12.866
11563W        W76548  42.929  13.409  11.975
11564W        W76549  44.275  33.236   2.517
11565W        W76550  30.512  20.602   3.745
11566W        W76551  12.834  27.476  10.240
11567W        W76552   9.945  12.381  14.510
11568W        W76553  25.434  29.651  12.904
11569W        W76554  36.810  21.867   4.045
11570W        W76555   7.929   3.734   1.933
11571W        W76556  12.598   6.165   1.130
11572W        W76557  32.550  12.628   5.097
11573W        W76558  24.569  21.094   3.729
11574W        W76559  21.019   0.907   2.484
11575W        W76560  15.627  22.501   0.809
11576W        W76561   6.041  39.118  10.576
11577W        W76562  33.498  40.058   1.691
11578W        W76563  12.608  35.992   1.013
11579W        W76564   4.799   0.363  10.699
11580W        W76565  30.186  20.845  13.836
11581W        W76566  30.379   9.667   1.528
11582W        W76567   1.999  30.482  14.443
11583W        W76568  24.400  41.661   1.353
11584W        W76569  40.314  39.453   4.170
11585W        W76570  34.271  26.719  12.638
11586W        W76571   5.118  16.151   0.820
11587W        W76572  26.560   5.144  12.434
11588W        W76573  44.975  40.883   4.551
11589W        W76574  25.028  36.344  11.277
11590W        W76575  30.353  22.608   2.736
11591W        W76576  18.280   7.417   4.002
11592W        W76577  40.082  11.580  12.454
11593W        W76578  35.875  21.219   2.583
11594W        W76579  37.378  44.496   4.849
11595W        W76580   2.952  40.739  12.140
11596W        W76581  33.177  17.709  14.072
11597W        W76582  33.614  15.085  14.086
11598W        W76583  20.245  44.308  13.969
11599W        W76584  41.348  39.069  11.509
11600W        W76585   9.023  35.006   2.357
11601W        W76586  25.681  37.150   4.038
11602W        W76587  25.154  37.272  14.353
11603W        W76588  11.384  25.213   4.187
11604W        W76589  10.101   8.183   0.526
11605W        W76590  44.370  33.170   0.849
11606W        W76591  14.763  17.502   0.328
11607W        W76592  32.666  40.560   4.368
11608W        W76593  43.020   1.799  11.590
11609W        W76594  23.555  39.717   2.832
11610W        W76595  14.791   6.186  13.060
11611W        W76596  33.191  11.139   4.240
11612W        W76597   3.072  44.816   3.275
11613W        W76598  11.188  31.243  10.665
11614W        W76599  43.562  13.334   2.712
11615W        W76600  44.590  36.990   4.833
11616W        W76601  15.226  19.655   4.769
11617W        W76602   1.599  14.627  11.216
11618W        W76603   8.912  15.863   2.662
11619W        W76604   4.017  23.628   4.011
11620W        W76605  19.766  15.688  11.166
11621W        W76606  28.321  11.364  12.116
11622W        W76607  31.219  21.210  14.769
11623W        W76608  31.312  19.377  14.319
11624W        W76609  28.554  29.452   2.835
11625W        W76610  34.007  22.106   2.062
11626W        W76611  43.522  15.192  12.184
11627W        W76612  30.586  25.698   1.899
11628W        W76613   2.762  11.237  11.072
11629W        W76614  32.477  27.706   1.423
11630W        W76615  41.824   4.640   0.243
11631W        W76616   1.308  21.169   2.343
11632W        W76617  21.806  37.392   2.815
11633W        W76618  34.501  41.386  14.965
11634W        W76619  10.108   1.872  14.835
11635W        W76620   7.491   5.960  10.744
11636W        W76621  21.927  32.199   5.105
11637W        W76622  21.690  31.491   1.403
11638W        W76623  10.171  13.741   0.834
11639W        W76624   8.352  39.911  11.399
11640W        W76625  17.246  24.889   4.608
11641W        W76626   8.641  19.530  10.853
11642W        W76627   9.837  17.894   1.861
11643W        W76628   4.834  10.517   2.738
11644W        W76629   5.178   4.559  11.572
11645W        W76630  21.647  14.773   5.001
11646W        W76631  31.344  12.215  12.915
11647W        W76632  28.272   3.441  14.392
11648W        W76633   3.407  37.864   4.395
11649W        W76634  24.401   2.956   1.266
11650W        W76635   2.003   8.515   4.420
11651W        W76636  20.258   7.673   2.289
11652W        W76637  44.015  21.651   0.522
11653W        W76638   8.654   4.278  14.005
11654W        W76639  17.221  37.345  10.734
11655W        W76640  37.304  10.544  10.965
11656W        W76641  11.174  34.917  11.813
11657W        W76642   9.758  30.669  13.284
11658W        W76643  29.393   3.927  14.989
11659W        W76644  29.529  41.286   2.488
11660W        W76645   6.886  10.097   3.687
11661W        W76646  33.920  29.262   1.409
11662W        W76647  23.548  38.990   0.941
11663W        W76648  33.632  23.638   3.568
11664W        W76649  13.030  40.715   0.540
11665W        W76650  16.744  19.215   4.672
11666W        W76651  39.581  32.568   3.200
11667W        W76652   9.613  13.693  13.803
11668W        W76653   2.587  19.735   4.670
11669W        W76654  13.598  10.143   3.669
11670W        W76655  19.945  41.247  14.906
11671W        W76656  33.303  11.084   0.036
11672W        W76657  33.474  36.443   0.769
11673W        W76658  25.356   2.854  10.257
11674W        W76659  14.509  25.392  13.013
11675W        W76660  16.738   0.263   4.126
11676W        W76661   8.240   9.264  14.825
11677W        W76662   7.083   2.724   0.767
11678W        W76663  34.531  25.687  13.532
11679W        W76664  21.052  19.697  11.661
11680W        W76665  38.814  21.644   3.021
11681W        W76666  27.614  44.268   0.023
11682W        W76667  10.295   9.486  11.605
11683W        W76668  13.648  32.546   2.617
11684W        W76669  12.530  33.268   2.746
11685W        W76670  24.594  15.591  11.789
11686W        W76671   8.595  24.179   0.887
11687W        W76672   8.470  29.004  14.511
11688W        W76673  19.000  10.134  12.003
11689W        W76674  29.348   5.975   2.134
11690W        W76675  22.666  19.850  13.580
11691W        W76676   8.826   0.767   3.281
11692W        W76677   5.785  34.047   1.694
11693W        W76678   2.252  20.123   0.304
11694W        W76679   1.035  29.453  10.553
11695W        W76680   0.870   1.203  12.908
11696W        W76681  42.850   1.337  11.209
11697W        W76682   8.091  37.888  13.766
11698W        W76683  41.165  30.383  13.549
11699W        W76684  19.820  25.063   1.219
11700W        W76685  27.538  22.754  13.569
11701W        W76686  43.800  41.538  13.036
11702W        W76687  37.863  14.926   4.075
11703W        W76688   7.361  10.637  13.748
11704W        W76689   8.212  41.426  14.801
11705W        W76690   6.841   8.046   0.054
11706W        W76691   0.442  41.463  11.947
11707W        W76692  14.913  42.958  10.414
11708W        W76693  11.458  22.074   0.466
11709W        W76694   3.544  29.537   4.228
11710W        W76695  41.183  27.092  13.521
11711W        W76696  29.263  40.544   2.086
11712W        W76697  43.747  30.252  12.614
11713W        W76698   8.332  21.517   1.357
11714W        W76699  22.984  42.448   4.316
11715W        W76700  25.574  31.449  13.734
11716W        W76701  33.547  21.959  14.770
11717W        W76702  17.699   6.715   2.605
11718W        W76703  24.291  17.375  11.607
11719W        W76704  35.959  18.596  12.336
11720W        W76705  27.637  36.307   4.168
11721W        W76706   6.109  42.907   0.864
11722W        W76707   4.349  42.356   4.251
11723W        W76708  13.077  29.085  14.495
11724W        W76709  15.696  42.644  11.129
11725W        W76710   0.408  18.690  14.510
11726W        W76711   0.454  35.541  12.513
11727W        W76712  10.745  20.036   2.344
11728W        W76713  38.753  16.628   9.977
11729W        W76714  27.349  16.217  12.756
11730W        W76715  29.606   5.844  14.411
11731W        W76716  18.725  27.697   0.934
11732W        W76717   0.813  14.051  12.194
11733W        W76718   2.531  28.523  10.623
11734W        W76719  30.073   8.014  14.000
11735W        W76720  19.322   6.954  13.600
11736W        W76721   0.180  35.824   2.807
11737W        W76722  20.811  30.541  14.947
11738W        W76723  38.389  27.268   3.701
11739W        W76724   3.465  13.642   2.855
11740W        W76725   4.672  20.077  14.987
11741W        W76726  35.860  15.438  14.977
11742W        W76727   9.680  34.322   1.329
11743W        W76728   8.335  39.232  13.658
11744W        W76729   2.925   7.693  10.758
11745W        W76730  33.765  22.366   3.470
11746W        W76731  35.618  14.875   0.910
11747W        W76732  38.830  23.443   4.117
11748W        W76733  23.408   8.843  10.241
11749W        W76734  23.927  16.322   4.070
11750W        W76735  20.029  29.926  14.064
11751W        W76736  29.634   9.398   0.239
11752W        W76737  41.875  32.590   0.293
11753W        W76738  35.539  36.136   0.041
11754W        W76739  25.452  27.638  13.390
11755W        W76740  26.709   5.509  13.310
11756W        W76741  16.491  17.728   0.272
11757W        W76742  40.966  30.535  14.519
11758W        W76743  24.304  10.884  12.627
11759W        W76744  36.424  38.315   3.437
11760W        W76745  10.672  44.360  11.693
11761W        W76746  23.992   6.872  12.255
11762W        W76747  19.086  23.686   4.480
11763W        W76748   5.471  25.289   4.215
11764W        W76749   3.573  31.822   0.759
11765W        W76750  31.382  27.416  12.563
11766W        W76751  27.200   6.173   2.154
11767W        W76752   1.896  16.361   4.096
11768W        W76753  30.404  29.837  13.096
11769W        W76754  21.843  20.657  12.123
11770W        W76755  42.753  13.306   4.061
11771W        W76756   7.874  15.106   4.253
11772W        W76757  30.958  32.659   0.786
11773W        W76758  42.830  19.297  12.133
11774W        W76759   0.373  39.376   4.401
11775W        W76760   7.676  43.799  12.584
11776W        W76761  31.675  21.237   3.657
11777W        W76762  21.201  18.497   2.066
11778W        W76763  15.263  28.744  14.848
11779W        W76764  24.107  17.642  10.886
11780W        W76765  15.344  35.684  14.991
11781W        W76766  29.219   8.761   3.508
11782W        W76767   5.323  27.477   4.879
11783W        W76768  44.764   5.513  14.320
11784W        W76769   6.698  29.872   3.815
11785W        W76770  36.051  29.173  14.384
11786W        W76771   2.587  29.140   1.517
11787W        W76772  32.118  21.446   0.373
11788W        W76773  43.402  41.087   4.889
11789W        W76774  20.593  35.441   4.171
11790W        W76775  13.336  21.003   1.849
11791W        W76776   3.463  20.397  10.264
11792W        W76777  27.566   3.489   1.389
11793W        W76778  27.154  31.414   3.148
11794W        W76779  42.353  15.273  11.514
11795W        W76780  35.393  44.159   2.290
11796W        W76781  41.622  38.330  14.144
11797W        W76782  21.271   9.613   0.226
11798W        W76783  35.816  40.936   3.801
11799W        W76784  14.710  13.636  14.188
11800W        W76785  12.213   6.436   1.371
11801W        W76786  15.055  21.572  12.163
11802W        W76787  44.423   1.728  14.461
11803W        W76788  12.416  31.926   1.388
11804W        W76789   9.148  31.339  13.066
11805W        W76790  16.159  22.277   0.794
11806W        W76791  11.123  11.159   1.218
11807W        W76792  34.400   7.178  14.335
11808W        W76793  34.448  44.423  14.329
11809W        W76794   0.716   3.045  12.104
11810W        W76795   8.908  19.340  14.536
11811W        W76796  10.402  32.525   3.174
11812W        W76797   9.421  41.993   4.121
11813W        W76798   5.351  14.385   1.353
11814W        W76799  40.968  16.302  13.015
11815W        W76800  32.864  10.818   1.676
11816W        W76801  16.797   6.652   2.758
11817W        W76802   4.049  42.584   0.328
11818W        W76803  31.450   9.764  12.551
11819W        W76804  44.831  31.528   3.328
11820W        W76805  16.269  12.125   1.334
11821W        W76806  23.261  44.530  13.564
11822W        W76807  25.726  21.272  14.153
11823W        W76808  23.666  38.144  11.626
11824W        W76809  33.172  29.380  12.043
11825W        W76810  17.784  44.506  13.006
11826W        W76811   7.231   6.675  13.034
11827W        W76812  22.815  27.734  10.125
11828W        W76813  29.847  32.199   5.497
11829W        W76814   1.252   2.985  12.896
11830W        W76815  42.498  40.103  11.627
11831W        W76816  11.713  38.802   4.018
11832W        W76817  38.946  30.348   0.268
11833W        W76818  44.300  20.319  12.195
11834W        W76819  20.943   8.321  14.825
11835W        W76820  16.798  10.851  14.114
11836W        W76821  44.685  40.272  13.042
11837W        W76822  38.508  20.765  12.928
11838W        W76823   7.783   3.146   4.968
11839W        W76824  18.388  32.150   3.778
11840W        W76825  11.276  34.575   3.371
11841W        W76826   5.742  11.270   0.669
11842W        W76827  36.661   0.447  14.391
11843W        W76828  44.740  17.928   4.031
11844W        W76829  32.415  35.979   3.153
11845W        W76830  41.371  21.731   0.505
11846W        W76831  17.228  26.171  13.870
11847W        W76832  24.116  11.657   2.783
11848W        W76833  11.613   4.467  14.968
11849W        W76834  29.592  40.312  12.044
11850W        W76835  37.460  33.640   4.207
11851W        W76836  38.611  13.896  10.991
11852W        W76837  39.763  12.782   1.789
11853W        W76838   5.289  27.356  11.134
11854W        W76839  30.507   9.458  10.509
11855W        W76840  32.129  33.115  11.163
11856W        W76841  16.895  22.476   1.923
11857W        W76842   9.284  29.002   1.207
11858W        W76843  29.689  38.458   0.316
11859W        W76844  14.714  34.528   4.186
11860W        W76845  23.794  14.037  12.946
11861W        W76846  14.245  13.029  13.844
11862W        W76847  13.577  14.813   2.654
11863W        W76848  39.277  37.982  11.503
11864W        W76849  41.765  20.368  13.370
11865W        W76850  38.416  38.030   3.394
11866W        W76851  33.078  18.106  12.390
11867W        W76852   8.647  38.856  12.758
11868W        W76853   2.397   5.712   0.568
11869W        W76854  16.489  18.294  13.552
11870W        W76855  34.555   4.883   4.238
11871W        W76856  11.334  29.394  12.573
11872W        W76857  23.304  32.516   4.558
11873W        W76858  23.465  10.702   1.860
11874W        W76859  13.829  35.013  12.195
11875W        W76860  30.031  30.556  10.783
11876W        W76861   7.680  10.691  12.061
11877W        W76862   3.591   1.120   4.911
11878W        W76863  35.897  17.250  13.396
11879W        W76864  11.653  39.523   1.771
11880W        W76865  16.801  22.218   3.295
11881W        W76866  23.201  37.900  10.744
11882W        W76867  41.075   4.862  13.383
11883W        W76868   2.763  41.658   2.356
11884W        W76869  10.285  23.493  13.548
11885W        W76870  12.719  17.783   2.762
11886W        W76871  35.384   4.211   3.291
11887W        W76872  43.729   8.389   4.874
11888W        W76873  25.551  16.777   4.496
11889W        W76874  37.067   4.009  12.532
11890W        W76875   4.856  30.546  12.135
11891W        W76876  42.413   1.957   0.086
11892W        W76877  15.084  28.575   0.313
11893W        W76878   0.496  36.854  12.064
11894W        W76879  40.610   9.020  13.665
11895W        W76880  27.059  16.143   4.791
11896W        W76881   2.450  43.756   0.085
11897W        W76882  12.766  44.934   0.228
11898W        W76883  24.783  34.430  13.328
11899W        W76884   9.048  10.204  12.075
11900W        W76885  37.020  19.080  14.593
11901W        W76886   1.519  27.143   1.872
11902W        W76887  29.462   8.459  10.432
11903W        W76888  34.815  40.728   0.234
11904W        W76889   7.577  10.125  14.888
11905W        W76890  16.573  17.792  13.696
11906W        W76891  15.467  14.569   0.914
11907W        W76892  44.841   5.377   4.661
11908W        W76893  32.751  35.571   3.119
11909W        W76894  27.725  10.734  14.993
11910W        W76895  30.168  43.476   1.699
11911W        W76896  17.650  20.615   1.268
11912W        W76897  27.193   2.436  13.369
11913W        W76898  12.676   4.181   3.760
11914W        W76899  30.767  41.845   5.082
11915W        W76900   7.235  10.131  11.596
11916W        W76901  28.809  28.869  14.186
11917W        W76902  24.598  39.801   3.276
11918W        W76903  38.312  19.042  13.485
11919W        W76904  30.992  20.542   3.519
11920W        W76905  18.100  29.893  13.076
11921W        W76906   0.030  40.685  12.931
11922W        W76907  30.916   6.403   1.361
11923W        W76908   3.849  42.919  13.839
11924W        W76909  17.563  18.654   3.512
11925W        W76910  23.316  26.078  14.736
11926W        W76911  37.495   0.349   1.721
11927W        W76912  44.325  32.050   3.290
11928W        W76913   4.967  40.538  13.033
11929W        W76914   6.041  32.606  14.762
11930W        W76915  43.121  41.769   4.109
11931W        W76916  20.641   3.250   0.244
11932W        W76917  33.568  17.164   2.732
11933W        W76918  19.906  17.821  12.144
11934W        W76919  42.736   5.360  12.025
11935W        W76920  20.043  34.649  12.494
11936W        W76921  36.086   1.316   0.971
11937W        W76922  30.684  37.439   2.610
11938W        W76923   6.375  12.799   2.327
11939W        W76924  16.513  25.071  11.978
11940W        W76925   2.397  25.051   2.397
11941W        W76926  33.601  36.653   1.863
11942W        W76927  25.171  32.150  10.832
11943W        W76928   6.851  28.209   0.991
11944W        W76929  16.383   4.911  14.769
11945W        W76930  25.763  28.107   3.973
11946W        W76931  21.858  26.451  14.341
11947W        W76932  38.965  39.153   4.079
11948W        W76933  11.937  21.114   2.621
11949W        W76934  32.923  31.182  10.598
11950W        W76935  21.283  10.332  11.247
11951W        W76936  29.546  18.447  14.005
11952W        W76937   5.079  30.307  10.859
11953W        W76938  39.285  17.551  13.513
11954W        W76939  22.752  41.530  12.110
11955W        W76940  32.670  24.999   0.992
11956W        W76941  30.036  26.366  11.217
11957W        W76942  22.286  25.594  11.487
11958W        W76943  26.099  25.071  10.686
11959W        W76944  24.867   9.519  14.415
11960W        W76945  15.144  35.457  11.170
11961W        W76946   7.780  23.837   4.610
11962W        W76947  40.827  20.614  12.020
11963W        W76948   1.468   4.397   3.723
11964W        W76949  27.013   1.777  10.837
11965W        W76950  11.671  22.492   0.700
11966W        W76951  43.789  22.671   1.715
11967W        W76952  15.820  17.622   4.563
11968W        W76953  24.539   2.326   2.107
11969W        W76954  33.160  44.032   2.316
11970W        W76955  11.718  44.450  13.109
11971W        W76956  28.495  12.598  14.397
11972W        W76957  31.885  31.098  13.501
11973W        W76958   1.900   3.181   5.206
11974W        W76959   0.730   1.426   2.951
11975W        W76960  31.090  33.459  11.589
11976W        W76961  28.679  32.520  12.701
11977W        W76962  37.551  23.162  13.343
11978W        W76963  26.527  16.109   3.219
11979W        W76964  10.840  39.323   3.526
11980W        W76965  40.422  30.091  11.067
11981W        W76966   8.437  24.161  12.790
11982W        W76967  12.747   4.369  11.568
11983W        W76968   2.580  41.886   3.076
11984W        W76969   8.337  27.936   4.985
11985W        W76970   4.041  17.490  14.094
11986W        W76971  11.402  41.906   1.319
11987W        W76972   1.606  28.425  14.840
11988W        W76973   5.094  33.568   2.665
11989W        W76974  13.266  34.688   0.993
11990W        W76975  31.309  16.704   1.201
11991W        W76976  27.915  35.737  12.491
11992W        W76977  15.711  28.109  14.385
11993W        W76978   5.828  19.637  14.526
11994W        W76979  42.331  11.426   2.257
11995W        W76980   7.378  37.519  10.321
11996W        W76981  39.886  19.710  10.639
11997W        W76982  39.381  13.624  12.043
11998W        W76983  17.152  21.088  14.847
11999W        W76984  28.433  23.966   1.117
12000W        W76985  17.794  35.429  12.662
12001W        W76986  13.051  29.362   2.844
12002W        W76987   0.036  14.148   0.748
12003W        W76988   4.173  34.896   3.904
12004W        W76989   2.839  42.006  12.976
12005W        W76990  22.841  36.858  13.874
12006W        W76991   8.758   1.839   3.751
12007W        W76992  30.257  36.604   2.741
12008W        W76993  19.812  25.465  12.122
12009W        W76994  43.255  41.852  13.726
12010W        W76995  43.000  33.843  12.842
12011W        W76996  31.622  18.601   4.638
12012W        W76997  42.046  42.410  13.039
12013W        W76998  36.440  16.571   3.907
12014W        W76999   3.694  40.020  13.955
12015W        W77000   8.257  31.910   2.672
12016W        W77001  22.423   7.681  11.995
12017W        W77002  39.610  38.844   3.899
12018W        W77003  13.102  19.123   3.310
12019W        W77004  40.370  38.115  14.058
12020W        W77005   0.201  38.441   4.030
12021W        W77006  15.656  18.817   0.315
12022W        W77007  28.063  38.304   2.807
12023W        W77008  19.233   7.343   0.848
12024W        W77009  19.959  12.362  14.255
12025W        W77010   0.493  14.822  14.570
12026W        W77011  25.054  21.079   0.244
12027W        W77012  34.094  41.456  11.235
12028W        W77013   2.828   0.356   2.574
12029W        W77014  13.193  43.561   0.423
12030W        W77015  20.477  30.966  13.721
12031W        W77016   7.757  25.632   3.616
12032W        W77017   4.687   3.947   0.530
12033W        W77018  33.748  19.215   4.129
12034W        W77019  41.349  18.275   4.603
12035W        W77020  33.899  34.451  10.789
12036W        W77021  20.585  14.697   4.099
12037W        W77022  21.304  40.867  12.956
12038W        W77023  25.655  35.936  10.786
12039W        W77024   8.387  29.176   2.192
12040W        W77025   9.049  16.569   1.963
12041W        W77026  20.039  17.171  13.358
12042W        W77027  30.552   8.972  10.733
12043W        W77028   1.866  17.510   2.371
12044W        W77029  38.062  31.267   0.240
12045W        W77030  39.584  14.750  14.441
12046W        W77031  16.843  14.800   1.397
12047W        W77032  38.981  27.153  11.729
12048W        W77033  16.912  21.906   3.701
12049W        W77034  11.818   8.265  13.142
12050W        W77035  38.360  24.095   2.883
12051W        W77036  24.234  15.872   1.798
12052W        W77037  13.135  26.929  12.435
12053W        W77038  28.653  26.012   1.408
12054W        W77039  25.762  25.469   0.832
12055W        W77040  28.827  39.500   2.734
12056W        W77041  14.591   9.600   0.371
12057W        W77042  33.266  30.173  13.056
12058W        W77043  32.122  41.014  13.875
12059W        W77044  15.050  34.261  13.083
12060W        W77045  38.523  26.984   2.037
12061W        W77046  43.382   7.246   3.339
12062W        W77047   6.766   2.574  10.470
12063W        W77048  42.255  28.061   0.833
12064W        W77049  10.242  17.170   2.668
12065W        W77050   4.215   3.312  11.077
12066W        W77051   9.389  12.765  11.664
12067W        W77052  13.604   6.055   0.267
12068W        W77053  27.080  17.365   3.763
12069W        W77054  16.822   7.404   1.369
12070W        W77055  10.802  16.761  11.966
12071W        W77056  17.065   4.781  12.992
12072W        W77057  25.175  15.019   4.059
12073W        W77058  40.548  21.746  11.541
12074W        W77059  34.958  35.868   4.651
12075W        W77060  43.746  26.049   3.236
12076W        W77061  26.689  32.703   0.715
12077W        W77062  36.772  22.763   3.281
12078W        W77063   8.184  29.729   4.913
12079W        W77064   1.053  28.517   4.645
12080W        W77065  35.766  41.003   0.353
12081W        W77066  12.030  17.853   4.129
12082W        W77067  29.396  31.062  11.444
12083W        W77068  38.825  22.272   1.713
12084W        W77069   1.731  11.780  13.803
12085W        W77070  17.737  44.310   1.031
12086W        W77071  16.292   3.767   3.164
12087W        W77072  21.763  25.487   2.442
12088W        W77073  40.448  28.586   4.073
12089W        W77074  29.617  11.706  13.631
12090W        W77075   1.903   3.401   0.821
12091W        W77076  15.748   0.158   4.449
12092W        W77077  19.747  14.959   0.720
12093W        W77078   9.208  11.201  14.708
12094W        W77079  44.916  34.630  14.749
12095W        W77080  39.076  11.183  11.614
12096W        W77081  25.778  43.884  10.467
12097W        W77082   5.551  28.984   4.270
12098W        W77083  44.067  33.971   1.270
12099W        W77084   5.992  26.995  10.440
12100W        W77085  16.482  44.058   2.734
12101W        W77086  15.661   7.397   4.575
12102W        W77087   8.298   7.378   0.265
12103W        W77088  18.186   6.680   1.451
12104W        W77089  33.412  43.406   4.153
12105W        W77090  31.453   1.734  13.964
12106W        W77091  26.438   8.498   1.873
12107W        W77092  23.953  38.581  12.071
12108W        W77093   8.569  24.732  14.926
12109W        W77094  37.397  36.563   4.530
12110W        W77095  31.976  34.921  13.029
12111W        W77096  29.460  26.479  10.361
12112W        W77097   1.008  19.543  14.291
12113W        W77098  37.925   8.299  10.778
12114W        W77099  28.906  33.457  13.066
12115W        W77100  14.063  37.114   1.840
12116W        W77101  19.390  22.229   2.820
12117W        W77102   6.340  20.616  11.041
12118W        W77103  15.568  34.522  12.031
12119W        W77104  17.018  19.668   4.118
12120W        W77105  21.716  32.570  14.462
12121W        W77106   2.558  29.034  14.485
12122W        W77107   1.860  14.705   4.200
12123W        W77108   2.524  40.934   1.676
12124W        W77109  22.582  24.269  14.009
12125W        W77110  23.009  14.680  10.698
12126W        W77111  14.135  25.160   1.809
12127W        W77112  31.950  13.832   0.248
12128W        W77113  33.487  14.147  14.058
12129W        W77114  19.342  28.136   4.798
12130W        W77115  23.580  30.163   0.366
12131W        W77116  33.232  32.595   2.266
12132W        W77117  15.504  19.963  14.860
12133W        W77118  42.353  20.644  14.598
12134W        W77119   9.674  44.960   0.994
12135W        W77120  32.997   3.689  12.891
12136W        W77121  25.669   7.831   1.836
12137W        W77122  20.529  44.936  13.439
12138W        W77123  37.867  28.002  13.873
12139W        W77124  14.105  19.084   0.308
12140W        W77125  29.515  21.595  14.427
12141W        W77126  38.559  17.135  14.494
12142W        W77127  27.131  19.211   3.820
12143W        W77128  10.897  13.171   1.463
12144W        W77129  42.248  37.203   4.641
12145W        W77130  14.608   1.891   1.270
12146W        W77131  34.176  22.645  13.583
12147W        W77132  43.844   0.498  11.193
12148W        W77133  24.032  31.986  11.660
12149W        W77134  28.097  36.598  13.579
12150W        W77135   3.928  24.560  14.461
12151W        W77136  15.676  31.855   0.454
12152W        W77137  19.240  20.761  11.148
12153W        W77138  41.181  43.364   1.444
12154W        W77139  18.641  10.527   3.036
12155W        W77140  13.345  30.402  12.282
12156W        W77141   9.853  23.291   4.859
12157W        W77142   0.873  39.042   0.321
12158W        W77143  34.006   3.195   3.301
12159W        W77144  37.578  35.506   1.303
12160W        W77145   2.738  10.939  13.497
12161W        W77146   2.595  41.892   4.970
12162W        W77147   4.489  29.871   4.174
12163W        W77148   2.042   9.616   1.878
12164W        W77149  27.983  19.822  11.601
12165W        W77150  38.770  15.610   0.331
12166W        W77151  41.449  34.942  13.884
12167W        W77152  39.313  39.983  13.806
12168W        W77153   5.693  15.192   1.402
12169W        W77154  35.143  23.015  11.854
12170W        W77155  21.067  11.299  12.106
12171W        W77156  28.675   1.279   2.292
12172W        W77157  21.750  38.112  11.627
12173W        W77158  26.624  17.321  13.553
12174W        W77159  11.978   9.730  14.922
12175W        W77160  28.211  42.027   4.194
12176W        W77161  29.740  25.154  10.685
12177W        W77162  36.901  44.773   2.552
12178W        W77163  37.402   1.733   2.886
12179W        W77164  21.546  22.618   0.283
12180W        W77165  19.203  12.670   4.876
12181W        W77166  13.747  39.081   4.052
12182W        W77167  31.541  10.650   0.791
12183W        W77168   0.294  15.685   1.750
12184W        W77169  12.793  42.072  11.158
12185W        W77170  25.562  11.037  13.109
12186W        W77171  37.073   5.649   3.230
12187W        W77172  41.429  22.976   3.083
12188W        W77173  17.557  42.741  10.412
12189W        W77174  15.366  42.018   4.074
12190W        W77175  39.811  16.964  13.293
12191W        W77176  39.003  40.046   4.307
12192W        W77177  24.761  28.107  11.675
12193W        W77178  27.384  37.545  14.972
12194W        W77179  11.951  15.683  13.060
12195W        W77180   3.887  39.967   3.368
12196W        W77181  40.445   1.408   1.668
12197W        W77182  16.382   5.294  13.140
12198W        W77183  33.033  38.929  14.904
12199W        W77184  36.516  25.758   4.640
12200W        W77185  10.955  26.624   5.028
12201W        W77186  17.940   7.905   3.791
12202W        W77187  20.187  11.609  13.802
12203W        W77188   3.318  24.310   4.138
12204W        W77189  29.544   0.475  13.343
12205W        W77190  21.568  33.401   2.695
12206W        W77191  13.759  38.841   0.027
12207W        W77192  17.360  42.738   3.869
12208W        W77193  42.753   4.378   2.828
12209W        W77194  35.100  40.048   2.619
12210W        W77195  18.477  26.608   0.339
12211W        W77196  37.332  43.511   1.351
12212W        W77197  24.026   3.750  14.566
12213W        W77198  19.401  36.392  11.692
12214W        W77199  21.313  39.396   3.989
12215W        W77200  30.106  32.871   2.660
12216W        W77201  23.535  27.032  13.878
12217W        W77202  34.975  33.141  10.443
12218W        W77203   5.875  35.139  13.986
12219W        W77204  33.529  31.896  14.922
12220W        W77205   1.166   7.594   2.636
12221W        W77206  11.156  29.492   1.844
12222W        W77207  23.963  12.605   2.323
12223W        W77208   7.662  32.161   4.995
12224W        W77209  39.791   2.409  12.533
12225W        W77210  30.786  17.712   0.121
12226W        W77211  21.499  36.363  13.587
12227W        W77212   8.812   5.608  14.458
12228W        W77213  27.001  15.793  13.810
12229W        W77214  19.308  10.156   0.638
12230W        W77215  41.953  10.892   4.490
12231W        W77216  24.296  43.318  14.848
12232W        W77217  23.971  11.169   2.966
12233W        W77218  25.633  35.327  13.522
12234W        W77219   5.179  23.290  10.680
12235W        W77220  43.434   2.976   2.682
12236W        W77221   2.778  40.105   4.363
12237W        W77222  19.549   5.797  13.258
12238W        W77223  13.450  30.912  14.371
12239W        W77224  38.515  29.224   1.053
12240W        W77225  11.723   2.562   2.212
12241W        W77226  43.980  35.882  14.758
12242W        W77227  17.771  43.924  11.253
12243W        W77228  39.049  13.597  13.343
12244W        W77229  44.393  35.161   0.421
12245W        W77230  37.582  27.926   4.205
12246W        W77231  42.528   6.901  13.979
12247W        W77232   6.645   8.249   1.843
12248W        W77233  23.314  18.405  11.884
12249W        W77234   0.779   1.410  11.676
12250W        W77235  25.593  19.379  11.681
12251W        W77236   5.756  29.595  13.269
12252W        W77237  13.624  41.997   3.476
12253W        W77238  21.116  33.974  14.723
12254W        W77239  17.079  14.394  12.862
12255W        W77240  34.102   9.134  11.675
12256W        W77241  32.637   7.056  13.795
12257W        W77242  11.309  12.921  12.408
12258W        W77243   5.440  29.475  12.843
12259W        W77244  13.646   5.331  11.130
12260W        W77245  33.432  25.592   2.745
12261W        W77246  19.559  12.780  11.651
12262W        W77247  14.328  32.473   1.389
12263W        W77248  33.378  31.053  11.938
12264W        W77249  13.597   0.089  14.406
12265W        W77250  13.214   2.865   2.648
12266W        W77251  15.766  30.936   0.124
12267W        W77252   8.129  37.919   0.508
12268W        W77253  14.538  16.995  10.213
12269W        W77254  39.975  25.277  14.423
12270W        W77255  14.384  42.975  11.861
12271W        W77256  20.287  30.160  12.543
12272W        W77257  14.734  34.627  12.906
12273W        W77258  13.129  27.433   1.554
12274W        W77259  19.146  12.802  12.941
12275W        W77260   4.287  14.066   0.051
12276W        W77261  20.445   8.335  14.899
12277W        W77262   9.968  22.845   3.126
12278W        W77263  14.301  20.715   2.668
12279W        W77264  31.023   2.094   2.370
12280W        W77265  16.285  15.514  12.607
12281W        W77266  10.630   3.392  11.982
12282W        W77267  36.966  21.415  13.069
12283W        W77268   4.299  32.949  14.375
12284W        W77269  19.635  29.941  14.880
12285W        W77270  17.541  14.910   0.347
12286W        W77271   5.986   6.946   4.180
12287W        W77272  22.023   6.337  12.921
12288W        W77273  11.915  11.383  12.243
12289W        W77274  18.508  41.438  11.202
12290W        W77275  37.181   5.183  10.933
12291W        W77276  29.423   5.436  11.134
12292W        W77277  43.144  21.250  12.972
12293W        W77278  24.077  38.975   4.896
12294W        W77279  10.830  36.341   2.390
12295W        W77280  15.452  23.734   3.597
12296W        W77281  23.718  36.219   0.124
12297W        W77282  34.763  17.177  11.162
12298W        W77283  42.350  38.550   3.233
12299W        W77284  44.383  43.427  11.187
12300W        W77285  11.983  11.012   0.766
12301W        W77286   3.779  12.023   2.552
12302W        W77287   5.208   3.957  12.956
12303W        W77288  32.068  17.228   2.089
12304W        W77289  27.477   2.994   3.165
12305W        W77290  21.166  21.352  13.802
12306W        W77291  42.088  29.985   1.708
12307W        W77292  16.571   5.966  10.896
12308W        W77293  30.114  31.405   9.829
12309W        W77294  17.560  26.261   0.573
12310W        W77295  37.780  37.029   5.551
12311W        W77296  20.715   3.536  14.833
12312W        W77297  10.653  30.988   4.081
12313W        W77298  16.744  17.796   2.600
12314W        W77299  19.043   5.554   0.329
12315W        W77300  17.788  42.822   3.606
12316W        W77301  11.094   8.208   2.181
12317W        W77302   2.883  28.602  14.351
12318W        W77303  10.876  27.570  11.603
12319W        W77304  22.407  31.103  12.206
12320W        W77305  18.787  21.800   3.743
12321W        W77306  24.464   6.430  13.858
12322W        W77307  15.667  32.963  10.926
12323W        W77308  20.948   0.413   4.046
12324W        W77309  27.917  28.156   4.236
12325W        W77310   9.824   0.003  14.835
12326W        W77311  16.716   9.604  12.257
12327W        W77312  11.592  10.449  13.174
12328W        W77313   6.535  16.521  11.346
12329W        W77314  16.116   4.573   9.726
12330W        W77315  32.783  44.927   4.301
12331W        W77316   1.702  41.702   2.150
12332W        W77317   7.401  43.457   3.572
12333W        W77318  17.606  22.637   4.540
12334W        W77319   9.731  28.958  10.682
12335W        W77320  43.510  15.256   0.437
12336W        W77321  38.336  35.474   4.093
12337W        W77322  12.632  38.353  12.562
12338W        W77323   2.603  14.278  13.861
12339W        W77324  31.224  32.908  12.821
12340W        W77325   2.912  18.770   3.261
12341W        W77326   2.812  21.542  14.240
12342W        W77327  30.048  15.046   1.330
12343W        W77328   7.983  19.496  12.104
12344W        W77329   1.766   7.024   1.483
12345W        W77330  44.428  29.654   0.199
12346W        W77331  17.504  24.430   2.686
12347W        W77332  42.049   4.810  11.674
12348W        W77333  13.142  42.187   0.164
12349W        W77334  30.680  41.132   0.453
12350W        W77335  22.446   2.232  12.098
12351W        W77336  18.142  37.075   1.312
12352W        W77337  29.319  37.589   0.899
12353W        W77338  18.747  39.549   3.800
12354W        W77339  38.836   8.755  12.644
12355W        W77340  21.673   3.000   2.794
12356W        W77341  30.357  29.000   4.201
12357W        W77342  13.803  33.436  13.944
12358W        W77343  28.504  11.133  14.815
12359W        W77344  38.864   3.300   4.181
12360W        W77345  23.409   2.713   2.669
12361W        W77346  41.326   6.791   1.288
12362W        W77347  12.830  23.976  13.428
12363W        W77348  38.849  22.658  12.390
12364W        W77349   9.055   1.532  11.609
12365W        W77350  42.960   5.165  14.953
12366W        W77351  43.306  21.575  13.585
12367W        W77352  14.654  34.564   3.307
12368W        W77353   5.130  12.582  11.210
12369W        W77354  11.844  10.759  14.645
12370W        W77355  26.164  40.906  10.745
12371W        W77356   0.394  34.741  10.326
12372W        W77357  34.882  33.503   2.876
12373W        W77358  34.057   7.697   3.640
12374W        W77359  42.489  15.292  14.267
12375W        W77360  31.989  16.826   3.859
12376W        W77361  23.750   4.686  14.410
12377W        W77362  36.073  35.731   0.465
12378W        W77363  43.279  22.626   1.822
12379W        W77364   4.816  10.254  13.432
12380W        W77365  40.914   9.952  12.068
12381W        W77366  13.024  36.817   0.882
12382W        W77367  29.030  33.828  11.130
12383W        W77368   6.884  20.047  12.968
12384W        W77369  37.538  22.104  12.890
12385W        W77370   3.535  32.032   5.072
12386W        W77371  39.447   3.160   3.596
12387W        W77372   2.258   0.371  13.771
12388W        W77373  27.530  33.539   3.132
12389W        W77374  13.792  12.758  10.699
12390W        W77375  17.068  44.799  13.457
12391W        W77376  29.735  21.046   0.308
12392W        W77377  25.093  22.534   0.424
12393W        W77378  31.093  18.330  13.265
12394W        W77379  16.199  37.268   1.910
12395W        W77380  22.230  18.863   4.145
12396W        W77381  39.483  25.447  14.341
12397W        W77382  36.622   4.975   0.267
12398W        W77383  34.066  32.483   0.079
12399W        W77384   0.473  23.962   1.814
12400W        W77385   1.086  12.289  14.946
12401W        W77386  10.724  24.456   2.430
12402W        W77387  21.643  42.031   3.675
12403W        W77388   1.577  29.473  10.445
12404W        W77389  38.791  39.445  14.233
12405W        W77390   9.109  31.735  12.235
12406W        W77391   8.662  37.542   2.859
12407W        W77392  21.217  32.854   1.771
12408W        W77393  20.509  26.159  13.402
12409W        W77394  37.794  23.698   0.845
12410W        W77395  11.164   3.790  13.434
12411W        W77396   4.969  37.536   4.162
12412W        W77397  32.066   7.787   3.680
12413W        W77398  29.716   1.511   1.381
12414W        W77399  24.665  13.903   1.834
12415W        W77400  11.854  16.137  11.551
12416W        W77401  32.097  44.694  14.105
12417W        W77402  33.047  37.003  12.541
12418W        W77403   7.939  43.910  11.705
12419W        W77404  26.739  12.793   0.728
12420W        W77405  19.269  24.231   0.348
12421W        W77406   6.022  23.138   0.691
12422W        W77407  43.579  44.874   3.785
12423W        W77408  31.235  42.120  14.789
12424W        W77409  34.554  40.996   3.232
12425W        W77410   8.129  29.433   2.947
12426W        W77411  37.414  14.039   0.341
12427W        W77412  23.617   6.569  13.257
12428W        W77413  15.699  13.652  13.857
12429W        W77414  10.701  10.377   0.552
12430W        W77415  12.414  21.512  14.495
12431W        W77416   6.252  24.120  12.404
12432W        W77417  33.430  44.817   1.259
12433W        W77418  28.793  31.091  13.339
12434W        W77419  14.272  27.164  12.979
12435W        W77420   9.615  22.986  14.871
12436W        W77421  21.711  12.352   2.035
12437W        W77422   3.407   9.699  10.782
12438W        W77423  36.824  39.119   3.426
12439W        W77424   0.232  25.222   4.189
12440W        W77425  23.784  29.022   1.344
12441W        W77426  18.655   6.908   0.169
12442W        W77427  33.410  19.559   0.503
12443W        W77428  37.277  18.266  11.517
12444W        W77429  38.044  10.281  14.260
12445W        W77430  25.281  42.986   1.827
12446W        W77431   9.423   1.431  13.614
12447W        W77432  11.395  12.632  11.583
12448W        W77433  22.547  33.833  11.983
12449W        W77434  35.761  41.984   0.292
12450W        W77435  25.514  41.190  13.351
12451W        W77436   7.740   7.610   4.656
12452W        W77437   0.029   5.679   3.213
12453W        W77438  25.309  29.267  10.276
12454W        W77439   8.454  34.349   3.797
12455W        W77440   6.959  25.068  13.046
12456W        W77441  44.108  34.909  10.650
12457W        W77442  12.126   0.847   0.907
12458W        W77443  44.484  31.986  10.734
12459W        W77444  21.671  27.709   3.669
12460W        W77445  10.882  35.948   4.643
12461W        W77446  14.086  24.274   1.872
12462W        W77447  25.722  34.770   2.483
12463W        W77448  41.400  41.931  14.187
12464W        W77449  11.922  19.620  10.653
12465W        W77450   0.297  30.728   1.019
12466W        W77451  11.065  37.549  13.131
12467W        W77452  16.032  27.633   3.941
12468W        W77453  21.220  38.844   4.011
12469W        W77454  12.909  10.865  12.411
12470W        W77455  43.572  14.368   2.775
12471W        W77456  31.097  30.930  13.992
12472W        W77457  34.301   2.414  12.589
12473W        W77458  41.810  22.027  11.082
12474W        W77459   8.776   2.574  11.190
12475W        W77460  25.502  25.620   1.274
12476W        W77461   0.278  23.740   4.369
12477W        W77462  39.620  10.643  14.515
12478W        W77463  35.990  34.517   1.886
12479W        W77464  36.823  27.172   3.207
12480W        W77465   1.372  11.065  11.474
12481W        W77466  11.260  18.188  13.936
12482W        W77467  33.067  40.723  12.873
12483W        W77468  12.079  24.721   4.344
12484W        W77469   8.911   5.882   2.174
12485W        W77470  26.461  22.789  11.669
12486W        W77471  12.813  42.894  12.012
12487W        W77472  36.949  44.716  11.312
12488W        W77473  26.794  10.798   3.592
12489W        W77474   6.209  29.996  11.182
12490W        W77475  13.080  35.562  14.466
12491W        W77476  41.888  41.924   4.897
12492W        W77477  18.516  41.586   3.186
12493W        W77478  11.244   7.143  10.556
12494W        W77479  19.723  28.777   4.043
12495W        W77480  17.692  11.676  10.698
12496W        W77481   6.466  27.201   0.602
12497W        W77482  14.237  38.973   4.138
12498W        W77483  34.079  39.781   3.633
12499W        W77484   0.424  30.301   1.277
12500W        W77485  35.953   7.172   0.709
12501W        W77486  21.438  40.926   1.257
12502W        W77487  25.674  28.182   1.325
12503W        W77488  40.198   2.815   2.596
12504W        W77489  35.867  11.904   4.152
12505W        W77490  41.357  11.483   0.270
12506W        W77491   0.213   7.756   1.048
12507W        W77492  30.678   2.837  13.320
12508W        W77493  16.567   7.334  13.466
12509W        W77494  18.628  13.858   0.817
12510W        W77495  21.730   9.848  10.652
12511W        W77496  23.133  24.922  10.681
12512W        W77497   6.857   6.399  13.269
12513W        W77498   1.581   5.813  11.175
12514W        W77499  25.104   1.092   0.115
12515W        W77500  27.327  20.935   2.426
12516W        W77501  20.255   5.430   5.698
12517W        W77502  19.188  15.122   3.700
12518W        W77503  36.978  44.420   3.802
12519W        W77504  12.041  33.570   0.447
12520W        W77505  33.599  29.506  11.503
12521W        W77506  26.584  31.122   1.708
12522W        W77507  26.740  12.210   2.881
12523W        W77508  10.401  37.248  12.348
12524W        W77509   8.238   9.285   5.381
12525W        W77510  35.902  13.824   2.627
12526W        W77511  14.977  39.989   3.851
12527W        W77512  24.503  23.710  12.434
12528W        W77513   5.404   9.309  11.768
12529W        W77514   9.373  10.454  11.149
12530W        W77515  32.692   1.175  12.987
12531W        W77516   4.178   7.939   0.352
12532W        W77517  12.761  22.193   4.094
12533W        W77518  42.424  34.245   1.445
12534W        W77519  29.262  28.393   4.654
12535W        W77520  30.037  12.783   1.913
12536W        W77521  39.900  36.328   0.304
12537W        W77522   4.461  39.893  10.690
12538W        W77523  29.978  10.114   0.922
12539W        W77524  13.139   8.333   4.548
12540W        W77525   7.803   4.899  11.779
12541W        W77526  30.376  24.504  12.977
12542W        W77527  15.357  40.258  14.872
12543W        W77528  20.544  12.806  12.566
12544W        W77529  19.986  39.436  11.515
12545W        W77530  36.886  21.476  11.170
12546W        W77531   9.645  41.968  13.939
12547W        W77532  31.681  44.037  11.567
12548W        W77533  32.315  35.516   0.957
12549W        W77534  27.417  33.035   1.498
12550W        W77535  16.098  39.914   0.278
12551W        W77536   3.312  26.242  11.566
12552W        W77537  43.534  43.003   0.920
12553W        W77538  37.467  19.176  12.396
12554W        W77539  23.614  30.730  13.513
12555W        W77540  43.382  41.954  14.995
12556W        W77541  39.061   7.451  12.951
12557W        W77542   4.196  23.972   0.931
12558W        W77543   8.938  17.678   2.687
12559W        W77544  35.005  15.013   4.524
12560W        W77545  18.462  42.681  11.339
12561W        W77546  30.678  29.741  14.419
12562W        W77547  10.252  12.114   3.270
12563W        W77548  22.557   5.414   2.235
12564W        W77549  10.311  35.227   2.871
12565W        W77550  33.963   7.252   5.216
12566W        W77551  37.855  29.516  12.522
12567W        W77552  11.453  40.503  11.522
12568W        W77553  12.432   8.734  10.643
12569W        W77554  11.086  19.097   3.414
12570W        W77555  22.868  31.925   3.955
12571W        W77556  29.729  13.394  13.520
12572W        W77557  34.799   0.354   3.760
12573W        W77558  44.529  42.751  13.379
12574W        W77559  34.278   7.396  11.073
12575W        W77560  12.830  36.336   0.660
12576W        W77561  38.303  18.537  12.351
12577W        W77562  29.232  14.286   2.191
12578W        W77563  32.133  34.498   0.343
12579W        W77564  30.152  35.790  12.207
12580W        W77565  35.866  43.019   3.208
12581W        W77566   8.756  15.082   2.228
12582W        W77567  11.725  29.973  12.133
12583W        W77568  41.765  24.499   1.379
12584W        W77569  31.570   7.597   0.647
12585W        W77570  36.149   5.776   1.076
12586W        W77571  32.125  38.996  13.046
12587W        W77572  34.561   1.244   2.020
12588W        W77573  14.050  13.082   1.232
12589W        W77574   8.941  39.789  10.249
12590W        W77575  37.020  38.000   1.799
12591W        W77576  18.533  39.834   1.290
12592W        W77577   8.227   0.692   0.915
12593W        W77578  18.338  26.201   1.695
12594W        W77579  30.640   9.725   5.004
12595W        W77580  43.533  30.476  11.168
12596W        W77581  23.179  13.527  13.327
12597W        W77582  37.803   7.284  13.501
12598W        W77583   9.421  29.089   3.467
12599W        W77584  22.925  30.538  14.986
12600W        W77585  28.018  20.481   4.305
12601W        W77586  15.739  10.628  10.568
12602W        W77587  33.924  35.012   0.727
12603W        W77588  34.212  35.258   2.279
12604W        W77589  21.168  39.081   3.568
12605W        W77590  36.619  38.130  11.127
12606W        W77591  26.936  37.308  13.950
12607W        W77592   8.001   9.853  13.083
12608W        W77593  26.532  21.477  12.453
12609W        W77594  24.044  16.835  10.743
12610W        W77595  15.683   2.817   4.529
12611W        W77596  25.052  32.138  13.612
12612W        W77597  20.616  29.202   1.311
12613W        W77598   9.337  34.839   2.737
12614W        W77599  20.928  15.847   2.288
12615W        W77600  40.138  33.969   0.516
12616W        W77601  27.850  33.710   1.790
12617W        W77602  29.550  15.654   1.646
12618W        W77603  10.110  30.391  10.789
12619W        W77604  30.518  39.420   3.853
12620W        W77605  27.373  27.972  13.617
12621W        W77606   4.792  20.297  10.683
12622W        W77607  43.880  24.531   2.628
12623W        W77608  17.352  10.322   2.800
12624W        W77609  31.541   2.893   2.479
12625W        W77610   4.901   6.934  14.855
12626W        W77611  24.074   3.531  12.080
12627W        W77612   6.412  37.801   3.264
12628W        W77613   4.286  18.526  14.947
12629W        W77614  13.232  28.228   1.391
12630W        W77615  21.561  30.458   1.691
12631W        W77616  34.425  11.908  11.563
12632W        W77617  16.673  32.926  13.593
12633W        W77618  42.202   2.354   1.335
12634W        W77619  34.696  26.689   0.944
12635W        W77620  41.778  36.146   1.471
12636W        W77621   6.861  10.504  12.972
12637W        W77622  11.714  43.057  10.872
12638W        W77623  22.448   3.375  13.365
12639W        W77624  12.622  32.377   0.224
12640W        W77625  17.977  33.812  13.033
12641W        W77626  12.874   5.206   3.646
12642W        W77627   0.299  16.244   2.650
12643W        W77628  39.781  16.469  14.762
12644W        W77629  30.461   6.255   4.748
12645W        W77630   8.766  44.290  13.402
12646W        W77631  33.120  21.027  14.976
12647W        W77632   7.945   0.413   4.696
12648W        W77633   6.791  22.969  11.205
12649W        W77634   4.728  31.134   1.286
12650W        W77635  18.829  23.526  12.994
12651W        W77636   3.496  32.991  12.055
12652W        W77637   2.741  14.409   4.033
12653W        W77638  17.819  11.242   3.205
12654W        W77639   4.243  24.551  12.033
12655W        W77640  38.857   8.516   4.490
12656W        W77641  30.959   3.544   4.590
12657W        W77642  24.228  23.655   3.282
12658W        W77643  25.250  35.960   2.259
12659W        W77644  20.297  36.039   4.254
12660W        W77645  33.498   4.085   4.397
12661W        W77646  31.514  40.067   1.873
12662W        W77647   6.382   4.190   1.336
12663W        W77648  27.696  21.643   2.364
12664W        W77649  30.729   5.645   2.229
12665W        W77650   5.416  27.057   4.563
12666W        W77651  16.348  19.010  13.845
12667W        W77652  41.854   4.333   1.100
12668W        W77653  17.343   8.710   1.866
12669W        W77654  20.095  17.013   2.104
12670W        W77655   7.083  36.141  12.018
12671W        W77656  13.215  11.321   2.372
12672W        W77657  23.694  16.771   3.168
12673W        W77658  21.108  20.867   2.839
12674W        W77659  36.471  22.001  13.504
12675W        W77660  35.015  13.419   2.805
12676W        W77661  43.380   7.789   2.390
12677W        W77662  32.958  41.348  12.374
12678W        W77663  21.143  39.821  10.252
12679W        W77664   9.367  25.727  13.451
12680W        W77665  29.091  33.348  11.239
12681W        W77666  14.645   8.668  12.946
12682W        W77667  38.052  37.221   2.872
12683W        W77668  14.715  36.453   0.433
12684W        W77669  15.241  19.045   1.500
12685W        W77670  18.622  16.220   3.684
12686W        W77671  38.589  43.174   4.375
12687W        W77672  13.663  28.224   2.278
12688W        W77673  43.509  21.654   0.721
12689W        W77674  37.947   0.406   4.286
12690W        W77675  16.201  18.372  13.020
12691W        W77676  35.455  11.936   0.496
12692W        W77677   4.078   5.173   5.633
12693W        W77678   2.716  21.249  13.817
12694W        W77679  41.453   8.361   3.742
12695W        W77680  34.054  44.015   2.375
12696W        W77681   8.486  41.244   0.707
12697W        W77682  14.017   2.638   3.245
12698W        W77683  30.486  44.700  10.917
12699W        W77684  18.550   0.883  14.878
12700W        W77685   1.012  28.352   0.458
12701W        W77686  22.576  12.957  13.877
12702W        W77687  39.959  23.290  14.817
12703W        W77688  44.302   1.358   2.483
12704W        W77689  29.173  37.174  14.563
12705W        W77690  17.310  31.674   0.862
12706W        W77691   0.797   5.944   0.484
12707W        W77692  35.899  30.557  13.294
12708W        W77693  15.705  25.344  13.466
12709W        W77694  32.928   4.748   1.826
12710W        W77695  23.177  22.200   1.920
12711W        W77696  25.028  40.206   4.990
12712W        W77697  11.150  40.035  13.944
12713W        W77698  39.826  17.214   3.481
12714W        W77699   5.588  20.821  14.454
12715W        W77700  25.709  20.759   1.250
12716W        W77701  37.098  35.394   3.341
12717W        W77702  27.511   2.441  12.062
12718W        W77703  34.809  38.605  11.589
12719W        W77704  20.808   1.978  11.560
12720W        W77705  25.464  21.321  11.027
12721W        W77706  13.366  40.391   0.323
12722W        W77707   7.671  33.345   1.361
12723W        W77708  19.484  33.430   1.423
12724W        W77709  29.847  20.043   1.847
12725W        W77710  32.926   5.946   1.083
12726W        W77711   3.755   7.637   0.255
12727W        W77712  42.540  37.480  13.849
12728W        W77713  40.418   9.049  10.740
12729W        W77714  35.358  18.422  13.693
12730W        W77715   8.234  26.994  12.745
12731W        W77716  38.299   8.245   3.824
12732W        W77717   2.236   4.880   0.321
12733W        W77718  22.442  14.155   2.955
12734W        W77719   1.944  42.372  11.475
12735W        W77720  25.271  24.109  12.691
12736W        W77721  21.999  34.258  12.903
12737W        W77722  33.656  21.038   0.086
12738W        W77723  27.125  34.127  14.808
12739W        W77724  42.557   9.025  12.085
12740W        W77725  16.376   3.871   0.730
12741W        W77726  22.485   8.024  13.871
12742W        W77727  26.229   6.660   2.626
12743W        W77728  17.212  37.093   0.414
12744W        W77729  11.661  15.108  10.148
12745W        W77730  20.037  11.165   3.753
12746W        W77731  26.440  19.608   1.742
12747W        W77732  20.557   9.396   2.294
12748W        W77733   5.654  33.047   1.041
12749W        W77734  37.047  30.596  10.691
12750W        W77735  31.019  23.733   0.267
12751W        W77736   5.796  11.313  10.696
12752W        W77737  32.381  26.741   3.610
12753W        W77738  12.293  39.562   0.339
12754W        W77739  42.051  20.516  12.505
12755W        W77740   3.304  31.638   4.354
12756W        W77741  31.556  39.376  10.642
12757W        W77742  37.827  30.521   0.844
12758W        W77743  29.756  18.734  13.205
12759W        W77744  12.579  11.305  13.485
12760W        W77745  20.066  12.606  10.474
12761W        W77746   4.723   5.242  14.197
12762W        W77747  40.370  39.974   0.477
12763W        W77748  23.956   0.714  10.578
12764W        W77749  24.130  40.128  11.261
12765W        W77750   1.406  30.981   3.837
12766W        W77751  34.621  12.982  12.336
12767W        W77752   6.459  35.316   3.944
12768W        W77753  23.724  40.912   3.035
12769W        W77754  43.890   3.418  12.504
12770W        W77755  35.948  32.928  10.742
12771W        W77756   6.212   2.853   0.455
12772W        W77757  18.205  29.149  11.194
12773W        W77758  32.516  37.817   0.377
12774W        W77759  15.155   9.689   0.804
12775W        W77760   3.505  39.571   2.601
12776W        W77761   7.268   1.897   3.064
12777W        W77762  13.382  14.394   4.529
12778W        W77763  32.672  38.343   3.551
12779W        W77764   0.767  12.059  12.007
12780W        W77765   8.861  14.279   2.630
12781W        W77766  10.483  28.667   2.647
12782W        W77767   6.205  37.659   3.808
12783W        W77768  24.949   8.690  12.204
12784W        W77769  18.571   0.353  11.075
12785W        W77770  25.187  27.300   4.963
12786W        W77771   9.271   3.667   0.463
12787W        W77772  12.830  38.411   0.509
12788W        W77773   4.456  16.027   4.804
12789W        W77774  38.777  17.605  13.501
12790W        W77775  17.690  42.860   2.596
12791W        W77776  17.340  33.303   5.089
12792W        W77777   5.451   9.815   3.686
12793W        W77778  26.565  32.478   0.254
12794W        W77779  39.491  36.373   2.586
12795W        W77780   3.265  43.807   1.708
12796W        W77781  40.929  26.904   1.806
12797W        W77782  11.135  16.697  13.482
12798W        W77783  20.812   1.089  14.251
12799W        W77784  25.111  25.448  14.027
12800W        W77785  35.441  19.508  11.104
12801W        W77786  23.276  11.196   1.835
12802W        W77787  18.979  40.539  12.897
12803W        W77788  29.055  34.012   3.949
12804W        W77789  25.269  13.654   2.198
12805W        W77790  23.492  20.547  13.298
12806W        W77791  19.675  41.748   3.771
12807W        W77792   0.625   5.826   4.108
12808W        W77793   8.568   3.344  10.728
12809W        W77794  37.064  35.509   1.241
12810W        W77795  14.849  27.010  13.855
12811W        W77796  15.864   4.989  14.989
12812W        W77797  13.740   4.480   1.113
12813W        W77798  22.625  13.633  11.223
12814W        W77799  20.203  41.874   3.635
12815W        W77800  19.159   1.902  12.566
12816W        W77801   0.945  27.685  14.315
12817W        W77802  38.746  44.020  10.648
12818W        W77803  12.316  23.490  13.513
12819W        W77804  20.541  36.284   1.355
12820W        W77805  42.872  26.397   2.367
12821W        W77806  29.265  30.962   4.909
12822W        W77807  42.997   6.970   1.283
12823W        W77808   9.237  38.083  14.393
12824W        W77809  39.052  27.615  12.844
12825W        W77810   0.617  41.074  12.976
12826W        W77811  30.516  22.025   3.707
12827W        W77812  35.028   2.376  13.968
12828W        W77813  40.763  44.852   3.099
12829W        W77814   8.550   8.314  13.103
12830W        W77815  13.555  20.444   3.005
12831W        W77816  40.595  11.634  10.690
12832W        W77817  32.167  23.674  14.126
12833W        W77818  17.215  36.417  10.450
12834W        W77819  37.492  12.348  10.507
12835W        W77820  39.533  28.090   4.054
12836W        W77821  40.650  38.377  13.716
12837W        W77822  26.759  14.721   3.666
12838W        W77823  16.137  43.325   2.919
12839W        W77824  38.303  12.318  14.410
12840W        W77825   8.985  32.059  12.822
12841W        W77826   5.939  15.246   2.319
12842W        W77827  37.069  11.955   2.298
12843W        W77828  32.015   3.479  13.487
12844W        W77829  43.499  11.319   4.825
12845W        W77830  10.455  44.882   4.125
12846W        W77831  18.384  14.960  12.052
12847W        W77832   3.555  10.855   0.824
12848W        W77833  20.215   6.295  14.247
12849W        W77834  21.238  44.365   2.888
12850W        W77835  18.133  38.850   0.703
12851W        W77836  44.482   6.305   4.404
12852W        W77837  15.288  22.057   4.343
12853W        W77838  27.582   8.120   4.044
12854W        W77839   7.451  15.827  13.952
12855W        W77840  34.438  32.083   1.306
12856W        W77841  21.081  26.083   0.228
12857W        W77842  22.636  27.273  11.384
12858W        W77843   1.468  39.363  11.604
12859W        W77844  15.098  30.748  10.558
12860W        W77845  23.106  14.244  13.776
12861W        W77846  33.089   5.056  12.537
12862W        W77847  20.152  37.939  14.395
12863W        W77848   9.098   0.545   0.508
12864W        W77849  29.581  20.128   2.298
12865W        W77850  33.834   0.357  12.888
12866W        W77851  16.136  19.196   2.897
12867W        W77852  34.537  42.743  14.502
12868W        W77853   8.454  22.652   4.136
12869W        W77854  44.532   6.159   0.728
12870W        W77855  36.441  33.798   0.200
12871W        W77856   7.425  20.171  12.166
12872W        W77857  23.119   0.065   4.826
12873W        W77858  11.504  30.185  13.446
12874W        W77859  13.629  40.389  11.947
12875W        W77860  30.714   7.403   4.614
12876W        W77861  23.192  34.020   1.428
12877W        W77862  19.059  20.270   2.294
12878W        W77863  21.250  41.736  12.943
12879W        W77864  17.791  28.406   0.463
12880W        W77865  33.198  32.998   4.256
12881W        W77866  18.415   2.942   5.168
12882W        W77867   7.651  24.020   0.682
12883W        W77868  37.960   7.532   1.412
12884W        W77869  38.854   4.767  13.050
12885W        W77870  23.845   3.846  12.685
12886W        W77871  32.565  37.271  14.524
12887W        W77872  37.300   4.922   4.437
12888W        W77873  17.410  35.993  10.664
12889W        W77874  22.117   6.401  11.033
12890W        W77875  41.735   8.439   4.231
12891W        W77876   0.227  39.131  14.259
12892W        W77877  30.636  29.755   2.372
12893W        W77878  41.075  41.517  12.468
12894W        W77879  37.859  42.257  10.746
12895W        W77880  43.032  42.863   4.671
12896W        W77881   3.854  34.417   0.733
12897W        W77882   9.589  27.003  12.589
12898W        W77883  27.159   9.537  14.833
12899W        W77884  43.208  32.492   0.223
12900W        W77885   1.363  25.269   1.938
12901W        W77886  16.236  13.234   2.735
12902W        W77887  38.283  39.406  12.988
12903W        W77888   4.753   5.729  13.537
12904W        W77889  37.711  26.357   3.013
12905W        W77890  37.780   9.816  12.019
12906W        W77891   6.867   1.556  11.684
12907W        W77892  12.560   2.352  11.977
12908W        W77893   9.378   8.627  12.810
12909W        W77894  29.043  40.415  13.119
12910W        W77895   3.365  31.200   0.324
12911W        W77896  30.865  16.556   4.705
12912W        W77897  19.752  30.528   3.867
12913W        W77898  43.883  28.101   4.959
12914W        W77899  29.008  18.778   3.687
12915W        W77900  39.468  17.207   1.491
12916W        W77901  39.792  39.791  13.008
12917W        W77902  24.060  21.020  10.491
12918W        W77903  21.533   2.549  10.603
12919W        W77904  32.367  38.537  13.000
12920W        W77905  40.674   7.536  14.090
12921W        W77906  21.070  23.133   3.642
12922W        W77907  29.024   3.663  13.916
12923W        W77908   5.732   5.685  12.979
12924W        W77909  22.218  39.938   3.087
12925W        W77910   2.811  36.423  12.820
12926W        W77911   7.025   1.009  11.037
12927W        W77912   6.263  12.677   4.104
12928W        W77913  38.852   9.379  12.116
12929W        W77914  10.572   3.502  14.851
12930W        W77915  22.314  15.676  12.588
12931W        W77916  32.103  44.876   1.316
12932W        W77917   3.415   9.458   4.240
12933W        W77918  25.698   9.574  13.510
12934W        W77919  20.041  33.968  14.754
12935W        W77920  10.324  32.353   4.943
12936W        W77921  43.849   0.756   3.520
12937W        W77922  36.948   8.106   3.112
12938W        W77923   5.239  32.466   1.898
12939W        W77924  10.573   3.819   2.716
12940W        W77925  20.739   7.538   0.958
12941W        W77926   1.950  20.242   4.161
12942W        W77927   4.456   3.549   3.110
12943W        W77928  26.426  23.597  12.427
12944W        W77929  23.968  10.662   1.602
12945W        W77930  30.381  34.419   1.958
12946W        W77931  43.990  30.892   3.219
12947W        W77932   1.667  26.632  13.508
12948W        W77933  17.767  33.926  11.236
12949W        W77934  25.595  29.571  14.318
12950W        W77935  14.786  43.316   2.497
12951W        W77936   0.399  25.954   1.051
12952W        W77937   0.412  25.547  12.145
12953W        W77938   9.622   6.882   4.638
12954W        W77939  20.544  18.213  12.456
12955W        W77940  11.743  39.715  12.469
12956W        W77941   3.894  30.478  12.041
12957W        W77942  44.831  19.196   2.445
12958W        W77943  25.513  15.279  11.291
12959W        W77944   8.378  26.954  12.256
12960W        W77945   4.449  37.305  11.892
12961W        W77946   5.928  39.453   4.657
12962W        W77947   1.059  16.511  13.860
12963W        W77948  41.185  29.036   4.537
12964W        W77949  37.230  40.029   3.689
12965W        W77950   9.726  13.267  12.555
12966W        W77951  38.118  24.353  12.756
12967W        W77952  24.203  38.456  14.307
12968W        W77953  20.718   1.127   3.445
12969W        W77954  32.997  20.121   1.976
12970W        W77955  26.021  34.477   0.726
12971W        W77956  37.997  24.032   0.524
12972W        W77957  16.861  16.585   3.025
12973W        W77958  40.453   5.761  10.813
12974W        W77959  30.110  12.111  13.820
12975W        W77960  38.000  13.502  12.661
12976W        W77961   9.393   8.368  11.962
12977W        W77962   8.345  29.404  12.807
12978W        W77963   6.967  37.740  11.112
12979W        W77964  22.229  38.294  13.795
12980W        W77965  19.155  24.282  14.473
12981W        W77966  12.671  24.510  14.308
12982W        W77967  20.930   8.045  12.782
12983W        W77968  44.235   8.151   4.018
12984W        W77969  19.818  41.926   3.300
12985W        W77970  38.576  31.635  12.520
12986W        W77971   9.736  35.364   1.297
12987W        W77972  32.020  10.166  13.401
12988W        W77973  16.852   1.163  10.767
12989W        W77974  25.486  27.080   1.853
12990W        W77975  32.699  30.559   5.004
12991W        W77976  36.428  43.504  12.417
12992W        W77977  29.478  27.618   4.045
12993W        W77978  31.062   3.008   4.743
12994W        W77979  19.558   7.944   0.200
12995W        W77980  42.992  16.805   1.397
12996W        W77981  25.088  35.317  14.427
12997W        W77982  30.222  43.483  12.102
12998W        W77983  40.858  12.091  14.290
12999W        W77984  43.317  11.831  14.422
13000W        W77985   9.545   9.040   5.021
13001W        W77986   6.465  34.483   4.265
13002W        W77987   4.244  35.455   0.957
13003W        W77988  18.698  30.222   2.325
13004W        W77989  16.643  29.882   3.200
13005W        W77990  17.077   3.481   3.757
13006W        W77991   3.969  14.786   4.360
13007W        W77992  37.025   4.800   1.746
13008W        W77993  40.998  26.425   1.645
13009W        W77994  42.099  32.244  10.805
13010W        W77995  12.164   9.705   2.003
13011W        W77996  20.878  20.120  11.335
13012W        W77997  34.580  39.425  13.083
13013W        W77998  15.349  25.376  12.297
13014W        W77999  31.133  26.722   2.985
13015W        W78000  38.485   3.236   3.416
13016W        W78001  14.751   6.823  12.134
13017W        W78002  41.277  38.983   0.239
13018W        W78003   7.177  26.542  13.649
13019W        W78004  35.127  14.405   0.278
13020W        W78005  39.647   3.170   2.327
13021W        W78006  24.198   6.242  11.025
13022W        W78007   4.446  17.555   0.918
13023W        W78008  18.786   8.023   1.334
13024W        W78009  26.497  10.965  10.687
13025W        W78010   8.981  15.601  13.807
13026W        W78011   0.407  44.278   0.242
13027W        W78012   7.259  31.088   3.345
13028W        W78013  33.279  15.812   2.775
13029W        W78014  15.618  13.436   3.340
13030W        W78015  27.433  22.485   1.146
13031W        W78016  38.833   2.961   2.590
13032W        W78017  29.030  22.224  13.070
13033W        W78018  24.721  35.253   1.731
13034W        W78019  11.626  25.628   3.966
13035W        W78020  17.694  12.726   4.136
13036W        W78021  11.512  10.295  13.963
13037W        W78022  15.602  10.439   1.135
13038W        W78023  13.112  28.685  12.991
13039W        W78024  13.894  37.886   0.804
13040W        W78025  19.478  31.096   4.493
13041W        W78026  37.415   0.685   2.707
13042W        W78027  18.967  10.200   3.300
13043W        W78028  43.643  26.163   2.712
13044W        W78029  10.445  13.955  13.729
13045W        W78030  41.784   6.772  10.495
13046W        W78031  36.504  20.386  12.469
13047W        W78032  21.620  21.034  12.827
13048W        W78033  15.092   9.231  11.501
13049W        W78034  28.144   1.996   0.499
13050W        W78035   8.862  11.835   1.267
13051W        W78036  10.452  20.621  10.598
13052W        W78037  38.131  25.217   1.997
13053W        W78038   5.805  38.602   3.214
13054W        W78039  35.228  15.204  12.441
13055W        W78040  27.930  29.710  11.404
13056W        W78041  31.501   9.765   4.949
13057W        W78042  38.882   0.294  13.541
13058W        W78043   1.058   8.288   4.525
13059W        W78044  13.933  42.165   3.859
13060W        W78045  37.078  22.159  10.569
13061W        W78046  13.605  30.540   3.688
13062W        W78047   1.218   6.167  11.132
13063W        W78048  31.368  14.836  14.774
13064W        W78049  43.502  19.523  11.577
13065W        W78050  42.971  24.629   1.824
13066W        W78051  22.230  38.621  11.903
13067W        W78052  38.257  44.995  14.358
13068W        W78053  32.699  21.064   3.843
13069W        W78054  19.223  26.339  14.227
13070W        W78055  41.815   5.739   1.809
13071W        W78056  39.380  25.505   2.803
13072W        W78057  34.955  33.308   4.533
13073W        W78058  11.821   7.256  12.766
13074W        W78059  30.952  25.226  12.043
13075W        W78060   9.984  17.623   3.684
13076W        W78061   3.021   9.803  12.164
13077W        W78062  12.408  37.164   4.155
13078W        W78063  34.027  25.561   1.449
13079W        W78064   3.949   5.619  11.134
13080W        W78065   0.293  28.813  13.055
13081W        W78066   5.265  11.412   0.802
13082W        W78067  41.263   9.182  11.067
13083W        W78068   3.382  16.421  14.070
13084W        W78069  44.749  25.724   0.929
13085W        W78070  38.035   2.964   3.343
13086W        W78071  25.546  42.047   3.138
13087W        W78072  40.773  13.603   3.831
13088W        W78073  42.308  33.852   4.039
13089W        W78074   6.099  40.052  14.319
13090W        W78075  38.465  12.817  14.414
13091W        W78076  10.892   5.884  12.454
13092W        W78077  36.239   3.111  14.212
13093W        W78078  37.869  29.026  12.725
13094W        W78079  13.721  33.978   0.801
13095W        W78080  21.979  44.333  13.040
13096W        W78081   8.428   4.339  10.317
13097W        W78082  17.819  31.141  14.349
13098W        W78083  35.421   8.925   2.701
13099W        W78084   7.938  28.761   3.224
13100W        W78085  31.034   2.393   1.922
13101W        W78086  42.502  32.194   3.274
13102W        W78087  16.605   1.735  14.920
13103W        W78088  24.325  11.857  11.291
13104W        W78089  28.182  19.282  10.757
13105W        W78090   3.727   0.293  10.646
13106W        W78091  30.673  27.598  12.719
13107W        W78092  12.452  30.310   0.001
13108W        W78093   9.986  23.493   2.166
13109W        W78094  30.045  16.153   0.895
13110W        W78095  33.075  13.744   0.679
13111W        W78096  30.249  18.259  13.413
13112W        W78097   0.683  36.376   3.285
13113W        W78098  21.286  28.909  13.367
13114W        W78099  15.189  33.513   1.686
13115W        W78100  43.397   0.173  13.305
13116W        W78101  14.407  33.603   3.093
13117W        W78102  42.337  22.576  11.527
13118W        W78103  25.477   4.877   0.905
13119W        W78104   0.359  43.348  11.645
13120W        W78105   1.084  41.768   3.761
13121W        W78106   7.786  44.103  12.974
13122W        W78107  24.447  22.690  13.449
13123W        W78108  32.971   4.060  12.515
13124W        W78109  32.942  13.766   3.708
13125W        W78110  33.439  13.657   2.445
13126W        W78111  12.363  36.999  11.671
13127W        W78112  24.790   4.141   0.397
13128W        W78113  44.438  15.242  12.548
13129W        W78114  36.941  31.821   1.188
13130W        W78115   6.696  10.507   2.617
13131W        W78116  36.676  44.495   4.197
13132W        W78117  14.649   0.975   2.290
13133W        W78118  36.050  14.884  12.115
13134W        W78119  18.930  25.383   4.181
13135W        W78120  14.126   9.148  13.814
13136W        W78121   5.981  41.403  14.338
13137W        W78122  17.348  11.499   1.294
13138W        W78123  35.044   1.878  13.819
13139W        W78124  28.636  42.440  14.865
13140W        W78125   4.963  13.739  10.567
13141W        W78126  15.046  26.003   4.069
13142W        W78127   4.945  36.089   2.350
13143W        W78128   0.339   0.647   3.835
13144W        W78129  12.424  29.685   0.333
13145W        W78130   0.334   2.034  12.110
13146W        W78131  37.083  19.598  13.870
13147W        W78132  22.483  11.207   4.677
13148W        W78133  32.550  44.256  12.054
13149W        W78134  43.797   7.914   4.651
13150W        W78135  20.911  38.340   1.762
13151W        W78136  10.940  44.773   3.368
13152W        W78137  12.260  12.728   0.183
13153W        W78138  27.352   2.366   0.460
13154W        W78139   2.864   9.703  13.036
13155W        W78140  29.692   7.655  12.562
13156W        W78141  44.239  29.527  13.870
13157W        W78142  38.788   0.443  12.658
13158W        W78143  42.938  15.843  12.643
13159W        W78144   8.127  42.592   2.733
13160W        W78145  39.027   2.212  11.250
13161W        W78146  41.008  20.953  13.193
13162W        W78147  40.537  24.380   9.920
13163W        W78148   2.839  28.884  13.898
13164W        W78149   7.758   3.606   5.249
13165W        W78150   8.516  21.336   0.412
13166W        W78151  39.088  40.258  10.706
13167W        W78152  27.332  23.550   3.692
13168W        W78153  39.554  27.303  12.001
13169W        W78154   5.001  41.517   0.992
13170W        W78155  21.316   2.411  14.322
13171W        W78156   9.067  14.630  11.950
13172W        W78157  19.737  44.636   1.853
13173W        W78158  14.424  19.242   4.212
13174W        W78159  32.595  44.288  14.924
13175W        W78160  26.105  39.312  11.646
13176W        W78161  25.152  20.946   2.744
13177W        W78162  26.429  40.284   4.274
13178W        W78163  16.573  14.817  12.248
13179W        W78164  42.865  36.000  10.183
13180W        W78165  26.202  36.107   4.738
13181W        W78166  18.084  31.893  13.032
13182W        W78167  40.566  22.111  14.808
13183W        W78168  39.014  27.040  14.882
13184W        W78169  12.084  41.362  11.022
13185W        W78170  36.310  14.362  11.460
13186W        W78171  20.991  40.840  11.163
13187W        W78172  39.081  42.040  14.413
13188W        W78173  10.888  39.483   3.048
13189W        W78174  29.819  44.794  12.953
13190W        W78175  30.975   6.685  11.562
13191W        W78176  16.601  32.981  10.910
13192W        W78177   7.481  17.655  13.444
13193W        W78178  24.070   0.511  13.785
13194W        W78179  42.542  11.131  12.909
13195W        W78180  34.671  16.082   3.736
13196W        W78181   5.651   3.787   0.419
13197W        W78182  26.919  16.836  13.002
13198W        W78183  15.602   8.782  11.239
13199W        W78184  31.507  27.058  10.540
13200W        W78185  18.165  16.060   3.484
13201W        W78186  22.250  38.043  12.906
13202W        W78187  17.448  26.883  11.736
13203W        W78188  23.077  17.080   4.431
13204W        W78189   8.185  15.831  10.616
13205W        W78190   5.426  14.947  12.664
13206W        W78191   3.835  13.116   1.595
13207W        W78192  14.629   3.242  14.496
13208W        W78193  20.228  30.993   4.211
13209W        W78194  12.811   9.711  12.970
13210W        W78195   4.901  18.697  10.658
13211W        W78196   5.226   6.649  10.619
13212W        W78197  10.053   8.325   4.541
13213W        W78198  24.767  11.708  14.073
13214W        W78199  35.669  38.885  12.887
13215W        W78200   7.216  31.672  10.756
13216W        W78201   2.517  40.484  12.156
13217W        W78202  39.707  36.330   4.253
13218W        W78203  43.464  36.740  11.137
13219W        W78204  42.400  20.920  12.575
13220W        W78205  32.693  42.433  11.642
13221W        W78206  38.939  39.610  12.164
13222W        W78207  43.439   3.886   0.976
13223W        W78208  43.645  21.462  14.781
13224W        W78209  41.273  32.981   5.133
13225W        W78210   6.268  27.053   1.515
13226W        W78211  18.281  15.797  13.499
13227W        W78212  14.583   1.863   2.335
13228W        W78213  22.692  39.787   1.369
13229W        W78214  21.644  22.801  12.939
13230W        W78215   3.917  30.623   3.074
13231W        W78216  34.528   5.254  14.788
13232W        W78217  12.887  20.658  10.634
13233W        W78218  33.840  34.978  12.560
13234W        W78219  30.681  43.792  12.027
13235W        W78220   5.356  10.272  12.073
13236W        W78221   0.017  30.897  10.672
13237W        W78222  26.535  31.060  14.697
13238W        W78223  17.962  29.596   4.013
13239W        W78224  33.642  19.539  11.232
13240W        W78225  39.592   9.290  13.922
13241W        W78226  19.634  16.319  12.027
13242W        W78227  33.395  27.248  11.593
13243W        W78228  41.281  22.782  12.611
13244W        W78229   4.369   1.960   1.069
13245W        W78230  39.850   0.012   0.982
13246W        W78231  41.986  30.052  13.213
13247W        W78232  19.649  38.873  13.624
13248W        W78233  24.553  35.756   2.723
13249W        W78234  37.396  16.337  13.972
13250W        W78235  37.021  32.622  13.434
13251W        W78236   9.634  33.056  12.373
13252W        W78237   7.293  32.979   1.879
13253W        W78238  11.595  19.143   1.210
13254W        W78239  44.199   8.015  13.919
13255W        W78240   8.759  21.301  14.775
13256W        W78241   6.031   3.337  13.752
13257W        W78242  27.061  31.556   0.333
13258W        W78243  27.149  30.051  13.526
13259W        W78244  43.299   9.494  13.759
13260W        W78245  11.145   9.483   2.171
13261W        W78246  23.039  10.741   3.607
13262W        W78247  29.682  17.146   3.771
13263W        W78248   1.948  34.558   4.011
13264W        W78249  12.995  39.022   5.084
13265W        W78250   3.690  38.498  13.935
13266W        W78251   2.407  21.252   0.886
13267W        W78252   1.300  27.507   2.183
13268W        W78253  42.751  28.088   0.692
13269W        W78254  20.210  28.943  10.622
13270W        W78255   1.490  29.389  14.932
13271W        W78256   2.600  12.734  12.575
13272W        W78257  37.528  28.629  12.521
13273W        W78258  42.439  41.051  12.650
13274W        W78259  28.645   0.401   0.258
13275W        W78260   5.936   1.310   3.852
13276W        W78261   4.640  21.301  13.972
13277W        W78262   9.861  20.190  13.375
13278W        W78263  27.268  32.961  14.112
13279W        W78264  42.290  12.380   1.907
13280W        W78265  10.870  29.415   1.202
13281W        W78266  25.426   5.532   3.721
13282W        W78267  43.356  26.378  13.862
13283W        W78268  11.307  21.664  11.240
13284W        W78269  43.392  31.746  14.117
13285W        W78270   6.687  31.022  12.474
13286W        W78271   2.073  17.793   0.041
13287W        W78272   1.943  39.525   4.109
13288W        W78273  41.335   4.426   3.064
13289W        W78274  38.105  44.888  13.861
13290W        W78275  16.631  25.186   0.484
13291W        W78276   3.925  40.962   1.384
13292W        W78277  41.219   4.068   1.721
13293W        W78278   1.469  38.130   1.880
13294W        W78279  27.584  23.988   4.537
13295W        W78280  42.784   8.449  14.917
13296W        W78281  11.561   3.412  10.348
13297W        W78282  17.648   7.966  11.109
13298W        W78283  37.609  39.913  14.107
13299W        W78284  10.054  36.885   3.520
13300W        W78285  35.412  15.688  14.998
13301W        W78286  19.185  38.915   5.238
13302W        W78287   9.309  36.353   0.861
13303W        W78288  32.024  38.009  14.500
13304W        W78289   0.276  38.516   0.515
13305W        W78290  16.328  30.567   3.983
13306W        W78291  44.863  17.255  12.386
13307W        W78292   9.695  40.709  13.476
13308W        W78293  25.220  14.234  12.105
13309W        W78294  34.400  38.114   2.169
13310W        W78295  27.520  25.420   2.687
13311W        W78296  33.662  18.401   3.578
13312W        W78297  12.256   5.836   1.349
13313W        W78298  15.850  39.351  14.361
13314W        W78299  42.020   8.777  10.805
13315W        W78300  43.040  36.074   0.364
13316W        W78301  41.154  36.861  14.938
13317W        W78302  29.084  41.815   0.992
13318W        W78303  18.510  16.758  11.937
13319W        W78304  14.247  42.740   4.645
13320W        W78305  44.719   2.284  12.368
13321W        W78306   4.354  36.978   0.240
13322W        W78307  30.418  26.167   1.048
13323W        W78308  12.877  12.502   1.355
13324W        W78309  29.566  24.926   3.335
13325W        W78310   4.958  19.675  11.490
13326W        W78311  42.381  42.514   2.583
13327W        W78312  31.911  16.804  11.762
13328W        W78313  15.622  11.906   3.706
13329W        W78314  25.417   9.825  11.771
13330W        W78315  40.406   8.829   1.760
13331W        W78316   7.932   8.345   5.026
13332W        W78317  37.728  39.788  11.579
13333W        W78318  32.091  17.641   4.924
13334W        W78319  24.749   7.845   0.787
13335W        W78320  10.693  24.048   3.394
13336W        W78321  41.055  38.095  14.806
13337W        W78322  44.896  27.051   9.915
13338W        W78323  44.722  33.457   3.587
13339W        W78324   3.436  31.113   2.633
13340W        W78325  16.450  25.689  14.384
13341W        W78326  43.477   5.532   2.146
13342W        W78327  44.459   0.231   4.606
13343W        W78328  17.116  17.380  13.104
13344W        W78329  10.832  26.605   1.702
13345W        W78330  23.927  25.293  11.753
13346W        W78331  36.024  43.568   0.490
13347W        W78332  30.291  21.127  12.668
13348W        W78333   6.901  29.978  11.992
13349W        W78334  31.841  36.482  13.815
13350W        W78335  28.032  13.694   3.506
13351W        W78336  33.995  38.739  13.464
13352W        W78337  29.822  42.170   4.050
13353W        W78338  13.711  34.738   3.691
13354W        W78339  34.347   7.543   4.990
13355W        W78340  36.821  33.638   0.880
13356W        W78341  34.038  31.733  13.353
13357W        W78342  12.821  42.093  13.400
13358W        W78343  17.191  44.461  13.888
13359W        W78344  21.831  12.362  12.005
13360W        W78345  42.931   3.236  13.924
13361W        W78346  41.568  21.155  12.919
13362W        W78347   0.168  40.344   0.022
13363W        W78348  20.461  30.070   0.900
13364W        W78349   9.782  20.395  14.008
13365W        W78350  14.807   2.956   1.891
13366W        W78351  35.907   9.931   0.466
13367W        W78352  25.916  26.831   0.705
13368W        W78353  12.800   6.922   0.275
13369W        W78354  28.020  16.522  10.596
13370W        W78355   3.208  11.820  11.705
13371W        W78356  36.497   0.074  11.046
13372W        W78357  13.432  16.535  10.923
13373W        W78358  12.977  25.321  10.850
13374W        W78359  12.393  22.157   3.707
13375W        W78360  36.723   8.166  12.910
13376W        W78361  26.812  16.485  10.248
13377W        W78362  42.137  28.864   1.183
13378W        W78363  38.897  22.787   1.681
13379W        W78364  42.525  27.636  13.910
13380W        W78365  34.806   5.719   2.583
13381W        W78366   7.730   1.474   0.987
13382W        W78367   2.497   3.963   3.588
13383W        W78368   6.897   1.048  11.539
13384W        W78369  40.185   0.539  12.477
13385W        W78370  34.376  33.135  12.441
13386W        W78371  21.599  41.962  12.085
13387W        W78372   9.141  36.807  14.972
13388W        W78373  44.715  28.989   1.807
13389W        W78374   8.802  37.610  11.048
13390W        W78375  26.399  43.756  12.979
13391W        W78376  11.683  11.838   4.798
13392W        W78377  38.750  34.298  12.485
13393W        W78378  39.356  13.282   1.036
13394W        W78379   4.714  21.319  10.888
13395W        W78380  18.017   1.007   0.035
13396W        W78381  32.060  40.987  12.083
13397W        W78382  24.889   6.622  14.348
13398W        W78383  36.781   0.944  14.223
13399W        W78384  15.288  21.132   3.010
13400W        W78385  33.976  37.743  10.421
13401W        W78386   5.863  34.903  11.058
13402W        W78387  43.309  20.603  13.587
13403W        W78388  20.323  26.416  14.215
13404W        W78389   0.317  14.072   2.924
13405W        W78390  44.243  19.213   3.264
13406W        W78391   8.703  25.446   3.731
13407W        W78392  33.470  21.252  11.117
13408W        W78393   4.711  23.060   1.421
13409W        W78394   9.876  19.633   4.980
13410W        W78395  27.467  32.135  12.936
13411W        W78396   0.338  11.597   2.725
13412W        W78397  16.875  10.949   1.680
13413W        W78398  22.143  37.604  12.003
13414W        W78399  10.167  34.880  12.553
13415W        W78400  18.097  34.834   3.229
13416W        W78401  44.521  11.419  13.878
13417W        W78402  36.053  36.363   4.472
13418W        W78403   8.322  16.770   4.149
13419W        W78404  24.656   5.887  12.503
13420W        W78405  29.047   6.726  13.565
13421W        W78406  39.663  11.163   3.262
13422W        W78407  14.459  14.179   0.411
13423W        W78408   3.954   3.249   3.579
13424W        W78409   8.504  40.316  12.007
13425W        W78410  13.008  10.762  10.772
13426W        W78411  37.420   0.990   1.390
13427W        W78412  21.234   5.783  12.947
13428W        W78413  39.974  30.492  12.176
13429W        W78414   6.177  30.054   4.726
13430W        W78415  10.389   1.443   1.294
13431W        W78416  29.886   1.353   1.868
13432W        W78417  44.287  44.458  14.947
13433W        W78418   9.807  41.846   3.258
13434W        W78419  28.901   1.225  11.015
13435W        W78420  29.932  31.882  13.999
13436W        W78421  43.584  34.717   0.946
13437W        W78422  28.926   4.220   4.186
13438W        W78423  26.599  25.408   4.928
13439W        W78424  11.805  13.251  13.547
13440W        W78425  15.827  19.025  14.012
13441W        W78426  21.255   7.614  12.618
13442W        W78427  20.490  40.423  13.797
13443W        W78428  37.478  30.082   4.734
13444W        W78429   8.641  44.275  11.640
13445W        W78430  34.900  13.701   1.359
13446W        W78431  24.528   7.285   0.049
13447W        W78432  30.852  23.965   2.834
13448W        W78433  19.199  35.768  14.012
13449W        W78434  34.454  31.236  10.447
13450W        W78435  41.403  19.488  11.083
13451W        W78436  18.783  23.518  10.926
13452W        W78437  29.171   5.967  11.877
13453W        W78438  16.212  16.295   4.806
13454W        W78439  18.809  15.593   2.048
13455W        W78440  36.375  15.180   0.701
13456W        W78441  30.934  35.650  12.435
13457W        W78442  26.027  33.659  10.706
13458W        W78443  17.670  19.683  12.360
13459W        W78444  12.788   5.471  12.458
13460W        W78445  41.544  36.481  10.211
13461W        W78446  10.309  34.132  14.836
13462W        W78447  36.508  36.391  12.982
13463W        W78448  14.568  30.223   0.897
13464W        W78449   5.670  43.034  13.091
13465W        W78450  12.287  21.264  12.252
13466W        W78451   4.010   5.949  12.591
13467W        W78452  28.198  26.196   1.248
13468W        W78453  11.732  16.536   3.249
13469W        W78454  33.502  20.252   0.784
13470W        W78455  34.864  22.135   2.686
13471W        W78456   8.630   2.097  10.207
13472W        W78457  14.865  22.524  13.462
13473W        W78458   7.897  42.911   2.381
13474W        W78459  44.463   2.696  14.364
13475W        W78460  22.212  35.674   0.916
13476W        W78461   0.422   8.402  11.535
13477W        W78462   4.976  11.786  10.818
13478W        W78463  29.882  32.999  12.804
13479W        W78464  10.729   2.300   2.852
13480W        W78465   7.815   8.716  11.009
13481W        W78466  17.056   2.778   1.219
13482W        W78467   7.417  30.160  13.347
13483W        W78468  21.042  17.366   1.150
13484W        W78469   0.376  24.731  10.188
13485W        W78470  20.247  16.361   4.532
13486W        W78471  33.037   0.746   3.023
13487W        W78472  18.031  26.210   0.800
13488W        W78473  42.399  35.895  14.405
13489W        W78474  32.619   2.265   4.497
13490W        W78475  27.531  14.253  14.965
13491W        W78476   1.735  44.511   3.566
13492W        W78477  18.973  37.041  14.438
13493W        W78478  35.544  13.835  13.506
13494W        W78479  37.483  35.499  14.875
13495W        W78480  26.132  30.739  11.230
13496W        W78481  30.998  12.111   3.653
13497W        W78482  39.082  17.782  13.939
13498W        W78483   7.904   9.224  12.501
13499W        W78484   2.336   2.246   3.721
13500W        W78485  37.829  27.390   3.667
13501W        W78486  15.124  37.298   0.298
13502W        W78487  34.889  11.500   3.452
13503W        W78488  15.855   8.783  14.314
13504W        W78489  36.102  18.620  11.822
13505W        W78490  17.508   4.650   0.895
13506W        W78491  34.498  44.321   5.113
13507W        W78492   3.778  31.713  12.383
13508W        W78493   3.719   4.223   1.916
13509W        W78494   1.511  31.894  14.686
13510W        W78495  18.203   6.825  14.862
13511W        W78496  19.679  22.006   1.293
13512W        W78497  18.639  39.407   2.359
13513W        W78498  25.786   4.112  13.504
13514W        W78499  43.296  23.704   3.856
13515W        W78500  16.253  43.735  12.962
13516W        W78501   3.803  29.109  13.767
13517W        W78502  13.923  17.329   1.303
13518W        W78503   4.772   2.818   0.310
13519W        W78504  18.670  35.882   0.252
13520W        W78505   1.329  13.906   5.060
13521W        W78506  43.816  20.787   2.913
13522W        W78507  37.839  19.007   1.799
13523W        W78508   3.807  22.761   2.581
13524W        W78509  39.087  10.736   0.213
13525W        W78510  23.197  23.794  14.295
13526W        W78511  43.821  32.037   3.229
13527W        W78512   1.211  44.934   0.827
13528W        W78513   5.332  39.472   0.894
13529W        W78514  22.990  17.561  11.445
13530W        W78515  22.688  19.102  10.871
13531W        W78516  43.535  27.072   0.340
13532W        W78517  20.485  17.743   4.427
13533W        W78518  29.260  19.680  13.932
13534W        W78519  28.604  41.196   2.236
13535W        W78520  30.731  36.745   2.856
13536W        W78521  16.805  25.941   4.028
13537W        W78522  25.936  39.296   2.742
13538W        W78523  12.085  40.345   1.480
13539W        W78524   9.709  16.790   0.673
13540W        W78525  11.935  34.044  12.466
13541W        W78526  23.068  42.909  14.788
13542W        W78527  25.680  33.503   9.979
13543W        W78528  42.143  36.265   2.790
13544W        W78529  33.678  21.837   3.562
13545W        W78530  41.846  24.742  12.559
13546W        W78531  19.517  31.092   3.075
13547W        W78532   4.877  21.994  12.691
13548W        W78533  43.860  42.393   4.055
13549W        W78534  44.410  11.314   1.258
13550W        W78535  43.473  17.567   9.903
13551W        W78536  22.544  14.165   4.116
13552W        W78537  34.373   7.720  10.649
13553W        W78538  44.528  39.962  11.546
13554W        W78539  27.447   6.290  12.405
13555W        W78540  21.492   4.308  12.430
13556W        W78541  17.765   9.373  13.891
13557W        W78542  19.752  35.998   4.103
13558W        W78543   2.494   6.930  13.867
13559W        W78544   1.196  36.389   2.261
13560W        W78545   8.594  43.182  12.327
13561W        W78546  36.950  15.223   2.159
13562W        W78547  12.945  29.527   3.658
13563W        W78548  41.934   4.925  10.825
13564W        W78549  28.909   1.264  14.842
13565W        W78550  21.559  41.053   4.213
13566W        W78551  14.897   7.895  11.008
13567W        W78552  26.037  33.322  12.086
13568W        W78553  32.070  23.576   3.747
13569W        W78554  23.116  21.654   1.816
13570W        W78555  34.879   8.133  13.889
13571W        W78556   6.284  35.914  10.060
13572W        W78557  24.120   2.083   2.326
13573W        W78558  25.167  22.215   1.812
13574W        W78559  12.840  33.359  12.615
13575W        W78560  37.424  25.267   5.325
13576W        W78561   3.829  34.513   1.267
13577W        W78562  36.588   2.253   0.244
13578W        W78563  20.917   4.390   2.292
13579W        W78564  32.008  25.432   4.568
13580W        W78565   3.692  20.144  11.206
13581W        W78566  20.025  32.251  11.158
13582W        W78567  32.592  25.139  13.060
13583W        W78568  40.060  22.722   0.015
13584W        W78569   6.361  43.619  13.048
13585W        W78570   8.179  39.045  12.873
13586W        W78571  24.756  11.771  14.957
13587W        W78572  27.705  31.873  12.471
13588W        W78573   2.710  32.507   4.380
13589W        W78574  15.573  25.125   1.500
13590W        W78575  34.052  34.602   4.110
13591W        W78576  37.165  39.870   0.367
13592W        W78577  11.637  26.089  14.795
13593W        W78578  17.827  40.356   3.661
13594W        W78579   7.745  14.210   1.803
13595W        W78580  35.940  15.517  11.383
13596W        W78581  30.977  10.640  12.399
13597W        W78582   1.141  24.865  13.473
13598W        W78583  12.127  20.691  13.708
13599W        W78584  44.318  31.091   0.553
13600W        W78585  28.858  36.246  11.645
13601W        W78586   6.331  23.464   2.190
13602W        W78587  27.724  33.105  11.546
13603W        W78588   1.208  23.571  11.141
13604W        W78589  18.075  19.878  11.767
13605W        W78590  38.106  11.801   0.702
13606W        W78591  31.309  36.541  13.589
13607W        W78592  24.789  22.424   3.225
13608W        W78593  13.718   8.633  11.676
13609W        W78594  25.763  41.661  14.789
13610W        W78595  22.146  36.799   4.572
13611W        W78596  44.442  44.827   4.276
13612W        W78597  42.847  37.056  14.173
13613W        W78598  10.460  16.094  12.593
13614W        W78599  41.507  17.558   3.195
13615W        W78600   6.749  18.566   1.793
13616W        W78601  23.393  44.235   2.274
13617W        W78602  35.304  12.619  14.052
13618W        W78603  25.024  28.529  11.588
13619W        W78604   0.563  36.554  14.090
13620W        W78605   1.770  16.674   3.695
13621W        W78606   0.059  25.788  10.895
13622W        W78607  17.736  16.640  12.368
13623W        W78608  23.287  30.230   1.656
13624W        W78609  33.365  28.014   0.491
13625W        W78610   0.579  37.180   1.921
13626W        W78611  17.316  26.952  13.453
13627W        W78612  14.157  11.409   2.763
13628W        W78613   1.826   5.047  14.923
13629W        W78614  30.552   0.733  14.949
13630W        W78615  19.706  44.906   2.301
13631W        W78616  12.811  33.477  13.659
13632W        W78617  25.007  28.656   2.189
13633W        W78618  43.199   9.891   3.684
13634W        W78619  14.807  16.145   3.225
13635W        W78620   6.158  18.106   2.907
13636W        W78621  18.397   8.335   0.040
13637W        W78622  27.140  29.797  11.611
13638W        W78623  27.707  32.973  14.372
13639W        W78624  23.006   3.412  12.393
13640W        W78625  14.116   5.746  12.088
13641W        W78626  10.272   0.597  13.053
13642W        W78627  12.629  14.633  13.937
13643W        W78628  42.101   1.447   1.259
13644W        W78629   2.093  35.017  10.655
13645W        W78630   6.452   3.257  14.073
13646W        W78631  40.725  14.550  10.302
13647W        W78632  43.550  27.731   3.210
13648W        W78633  34.298  34.127  14.096
13649W        W78634  22.309   0.474  13.404
13650W        W78635  44.990  33.224   3.182
13651W        W78636  26.549  26.507   3.477
13652W        W78637  43.793   3.936  11.092
13653W        W78638   3.590  27.748   2.134
13654W        W78639   6.376  44.501   0.218
13655W        W78640  10.939   9.272  13.132
13656W        W78641  31.563  29.826  13.520
13657W        W78642  32.501  10.188  12.647
13658W        W78643   1.073  41.994   4.512
13659W        W78644  25.213  26.452  11.542
13660W        W78645  35.199  10.462   4.918
13661W        W78646  21.099  43.428   3.138
13662W        W78647  19.773   3.759  13.371
13663W        W78648  29.723  32.909   0.822
13664W        W78649  33.071  25.171  13.353
13665W        W78650   5.603  36.251  14.742
13666W        W78651  16.760  20.900  12.594
13667W        W78652  33.451   9.409   0.263
13668W        W78653  34.930  18.354  13.969
13669W        W78654  13.657   3.499   1.425
13670W        W78655   4.741   8.537  11.589
13671W        W78656  39.350  43.611  12.085
13672W        W78657  17.533  17.753   4.066
13673W        W78658  30.526  29.924   3.817
13674W        W78659  16.092  33.090   0.107
13675W        W78660   6.264  24.662  14.917
13676W        W78661  31.633  19.972   0.757
13677W        W78662  35.485  41.927  12.533
13678W        W78663   5.974  15.456   1.765
13679W        W78664   1.962  10.366   2.573
13680W        W78665  40.032  33.010  10.503
13681W        W78666  34.493  37.150   1.310
13682W        W78667  35.096  30.266  12.799
13683W        W78668  19.767  19.679   3.860
13684W        W78669   8.579   0.400   1.795
13685W        W78670  20.431   5.656  13.578
13686W        W78671  40.741  19.705  12.887
13687W        W78672  36.258  30.602   3.710
13688W        W78673  37.423  16.293   0.755
13689W        W78674  23.044  43.867   0.260
13690W        W78675  38.373   3.318   4.789
13691W        W78676  12.571  29.038  13.499
13692W        W78677  36.035  35.979   0.016
13693W        W78678  17.539  33.563  11.528
13694W        W78679  18.080  37.430  12.032
13695W        W78680  38.674  26.392   1.187
13696W        W78681  40.497  22.746  11.237
13697W        W78682  32.629  20.177  10.823
13698W        W78683  30.150  36.102   2.879
13699W        W78684  17.245  29.499   4.659
13700W        W78685  21.002  15.485   3.222
13701W        W78686  36.772  35.507   4.807
13702W        W78687  39.110  44.910  14.034
13703W        W78688  12.622  23.708  14.785
13704W        W78689   0.687  12.648   1.811
13705W        W78690  15.242   4.698   3.607
13706W        W78691  26.945  22.032  12.934
13707W        W78692   6.803  41.474  11.427
13708W        W78693  13.749  30.079  12.972
13709W        W78694   0.423  14.565   0.016
13710W        W78695  44.776  32.992   4.279
13711W        W78696  38.128   1.798   0.006
13712W        W78697   3.555   3.999   3.187
13713W        W78698  14.816  34.004  10.653
13714W        W78699   0.408  34.498   1.095
13715W        W78700  13.021   1.523  11.925
13716W        W78701  11.657  40.991  12.994
13717W        W78702   6.124   4.375   3.285
13718W        W78703  43.806  42.926  10.709
13719W        W78704  13.701  18.762   0.361
13720W        W78705  14.269  43.248   2.433
13721W        W78706  43.309  20.568   4.215
13722W        W78707  16.855   6.893   1.296
13723W        W78708  11.811  33.029  13.114
13724W        W78709   0.702  37.965   3.321
13725W        W78710  38.869  30.844  11.936
13726W        W78711  40.859  32.730   4.931
13727W        W78712   7.286   6.976   2.597
13728W        W78713  15.869   0.030  14.368
13729W        W78714  20.077  16.765   1.653
13730W        W78715  13.127  38.946   1.207
13731W        W78716   9.798  15.972  13.862
13732W        W78717  29.668   6.699  11.624
13733W        W78718  39.354  23.091  11.688
13734W        W78719  25.229  32.456  12.808
13735W        W78720  22.264  20.031  13.889
13736W        W78721  25.236  38.819   3.570
13737W        W78722  10.899  22.674  12.536
13738W        W78723  29.534  10.513  10.606
13739W        W78724  24.571   9.551   2.694
13740W        W78725  10.179  35.684   2.173
13741W        W78726  44.759  20.661   1.441
13742W        W78727  32.568  29.879  12.499
13743W        W78728  31.126  19.106   2.286
13744W        W78729  34.448  11.455   3.176
13745W        W78730  25.622  40.920  10.926
13746W        W78731  44.912  27.548  10.558
13747W        W78732   5.303  42.833  14.410
13748W        W78733  19.048  26.903   4.238
13749W        W78734   5.475  14.593   2.658
13750W        W78735   1.534   1.287  11.148
13751W        W78736  15.380  41.887  13.778
13752W        W78737   3.638  19.032   3.905
13753W        W78738  40.784  35.009  12.305
13754W        W78739   5.412  35.371   4.163
13755W        W78740  40.494  40.564  12.859
13756W        W78741  20.917  26.909  10.771
13757W        W78742  15.095  12.797  14.415
13758W        W78743  27.405  13.944   4.107
13759W        W78744  27.421   0.821  13.863
13760W        W78745  26.036  21.134   3.231
13761W        W78746  39.469  35.694   3.076
13762W        W78747  36.183  15.796   1.691
13763W        W78748  24.376  40.171   2.956
13764W        W78749   1.362  41.420  14.845
13765W        W78750  20.396  23.122  10.356
13766W        W78751  27.925   9.322  12.605
13767W        W78752  40.132  20.068   0.269
13768W        W78753  39.765  21.709  10.862
13769W        W78754  20.692  42.420   0.738
13770W        W78755  20.286  16.537  13.421
13771W        W78756  22.517  27.167  10.465
13772W        W78757  24.392  39.603   4.199
13773W        W78758  13.739  39.492  11.945
13774W        W78759   6.190  17.465  12.964
13775W        W78760  10.334  28.620   0.809
13776W        W78761  16.792  24.263  13.446
13777W        W78762  24.630  13.859   4.999
13778W        W78763   9.050  36.271  11.352
13779W        W78764  32.164  40.440   4.499
13780W        W78765  24.556  24.152  13.472
13781W        W78766  17.778  38.496   0.203
13782W        W78767  26.103  37.788   3.668
13783W        W78768  30.952   8.316  12.450
13784W        W78769   4.507  26.566   3.054
13785W        W78770   5.828  44.539   4.892
13786W        W78771  40.930  24.039  14.834
13787W        W78772   6.650  13.961  11.919
13788W        W78773  34.205  36.932   4.526
13789W        W78774  40.054   0.805   1.542
13790W        W78775   4.207  15.822   3.453
13791W        W78776   1.434  32.006  10.777
13792W        W78777  42.278  21.134  12.117
13793W        W78778  16.912  39.948   2.398
13794W        W78779  41.481  13.130   4.544
13795W        W78780  17.011   7.666  12.906
13796W        W78781  32.986  34.267   4.823
13797W        W78782  32.530   2.477  12.770
13798W        W78783  16.729  20.552   0.640
13799W        W78784  44.530   8.680   2.118
13800W        W78785   7.610  26.185   0.970
13801W        W78786  23.237  10.951  10.714
13802W        W78787  30.210  38.813  12.940
13803W        W78788   1.340  42.756   0.373
13804W        W78789  18.038  12.201  11.146
13805W        W78790   7.947  26.413   3.253
13806W        W78791   8.906  38.467   0.294
13807W        W78792   0.198   3.989   0.406
13808W        W78793  18.280   4.287  11.038
13809W        W78794  25.233  15.684   3.584
13810W        W78795  32.424  29.507  11.324
13811W        W78796   3.757  36.592  12.991
13812W        W78797  23.102  30.565   9.778
13813W        W78798  25.294   2.779   1.669
13814W        W78799   3.473  10.708   4.004
13815W        W78800  41.348  11.907  11.624
13816W        W78801  13.751  29.385  13.408
13817W        W78802  31.670  19.229  12.983
13818W        W78803  32.631  41.965  12.977
13819W        W78804  22.008  37.124   0.259
13820W        W78805  22.161  26.118  13.910
13821W        W78806  25.606  31.074  14.516
13822W        W78807   6.608  27.563   0.272
13823W        W78808   0.828  30.570   2.729
13824W        W78809  32.258  20.482  13.087
13825W        W78810   1.982   1.351  12.598
13826W        W78811  31.505  40.148  12.103
13827W        W78812  13.070   6.292   5.046
13828W        W78813  34.428  19.580   4.571
13829W        W78814  43.217  21.708   5.356
13830W        W78815  42.434  41.964   2.373
13831W        W78816   3.110  26.088  13.862
13832W        W78817  33.790  42.029   0.752
13833W        W78818  29.634  26.245  12.367
13834W        W78819  16.854  26.053  14.254
13835W        W78820  42.155  14.591  12.862
13836W        W78821   8.445  41.857   4.362
13837W        W78822  13.254  18.109  14.874
13838W        W78823  22.738  14.386   1.812
13839W        W78824  28.601  21.206  14.870
13840W        W78825   7.441  19.126   4.326
13841W        W78826  10.888  27.960   3.751
13842W        W78827  16.156   3.202   1.457
13843W        W78828  29.090  25.365   2.161
13844W        W78829  43.042  21.198   3.331
13845W        W78830  13.208   8.097   4.097
13846W        W78831  29.177  27.347   2.180
13847W        W78832   2.561  25.561   0.095
13848W        W78833  15.300  22.742  13.338
13849W        W78834   6.004  41.879  14.556
13850W        W78835  28.635   6.258   4.142
13851W        W78836  10.626  11.364   3.470
13852W        W78837  43.561   0.350  10.778
13853W        W78838  33.712  36.431   2.335
13854W        W78839   4.919   4.317   0.271
13855W        W78840  35.068  38.285  11.204
13856W        W78841  32.270   2.937  14.358
13857W        W78842  16.720  37.999   4.567
13858W        W78843  12.415  11.588  10.534
13859W        W78844  36.040   8.395  11.952
13860W        W78845  36.915  28.295  11.582
13861W        W78846  36.995   8.642   4.125
13862W        W78847  25.569  28.660  13.303
13863W        W78848  10.789   5.834   4.973
13864W        W78849  15.203  23.570  13.964
13865W        W78850  42.118  26.131  12.235
13866W        W78851  29.609  39.022  14.082
13867W        W78852  32.469  25.087   1.930
13868W        W78853  25.937  27.692   2.427
13869W        W78854  19.127  42.790  14.775
13870W        W78855  38.777  27.892   2.297
13871W        W78856  24.200  25.067  12.641
13872W        W78857  24.192  28.725   0.905
13873W        W78858  20.207   4.451  10.578
13874W        W78859   2.274   0.275   1.885
13875W        W78860  19.056  35.409   4.279
13876W        W78861  24.506   9.069   4.971
13877W        W78862   9.181  43.142   1.124
13878W        W78863  21.946  34.964   0.833
13879W        W78864  19.761   1.431  10.980
13880W        W78865   3.948  21.211   4.725
13881W        W78866  34.914  39.935  12.970
13882W        W78867  15.768  20.603   4.279
13883W        W78868  31.824  24.173   2.439
13884W        W78869  27.515  13.828  10.640
13885W        W78870  30.679  42.821   3.141
13886W        W78871  16.256  29.661   0.490
13887W        W78872  43.357  23.759   2.641
13888W        W78873  10.588  35.920  14.359
13889W        W78874  10.738  42.286   3.623
13890W        W78875  27.136  28.162   2.175
13891W        W78876  30.434  13.568  11.207
13892W        W78877  24.011  39.476  13.509
13893W        W78878  40.546   0.942  12.462
13894W        W78879  36.606  30.547   0.454
13895W        W78880  10.217   8.754   0.682
13896W        W78881  22.154  30.512  14.431
13897W        W78882  13.789  32.513  14.300
13898W        W78883  43.806  20.494  10.892
13899W        W78884  37.616  44.769  14.675
13900W        W78885  27.794   4.329   3.214
13901W        W78886   6.457  31.357   4.308
13902W        W78887   6.462   0.417   4.279
13903W        W78888  29.760  25.102  11.541
13904W        W78889  12.625   3.158  13.480
13905W        W78890  41.474  37.164   0.895
13906W        W78891  11.096   6.303   1.101
13907W        W78892  28.560  27.921   2.665
13908W        W78893  21.205   4.595   0.368
13909W        W78894   5.819  26.080   2.738
13910W        W78895  33.073   1.309   4.824
13911W        W78896  43.833  18.184  13.567
13912W        W78897  21.025  30.433  13.084
13913W        W78898  43.674  26.053  11.469
13914W        W78899  42.993  22.513   1.368
13915W        W78900   5.901  41.469   1.320
13916W        W78901   7.863  32.418   3.167
13917W        W78902  21.779   0.752  12.857
13918W        W78903  42.711  39.957   1.873
13919W        W78904  12.421  27.143   3.543
13920W        W78905  21.797  21.597   4.201
13921W        W78906  36.324   7.956  12.048
13922W        W78907   6.081  42.857   1.783
13923W        W78908   8.190  43.267  10.619
13924W        W78909  13.311  21.238   2.714
13925W        W78910   0.444  13.644  13.679
13926W        W78911  31.910  13.585  10.861
13927W        W78912  11.242  20.015   2.179
13928W        W78913   8.044   5.240   1.601
13929W        W78914   1.923   6.656   1.819
13930W        W78915  44.893  19.685  14.045
13931W        W78916  26.614  34.908   1.485
13932W        W78917  11.617  37.295   4.982
13933W        W78918  30.822  35.324  13.569
13934W        W78919  26.031  27.900  14.555
13935W        W78920  25.627  31.218   0.022
13936W        W78921  22.683  10.420  13.054
13937W        W78922   2.920   9.212   2.883
13938W        W78923  41.065  36.368  14.872
13939W        W78924  36.199   0.232  13.182
13940W        W78925  37.102  43.818  14.492
13941W        W78926  22.820   7.263  10.366
13942W        W78927   0.509   6.885   1.067
13943W        W78928  32.775  20.306   3.309
13944W        W78929  10.404   6.964   5.337
13945W        W78930  27.426  20.680  11.532
13946W        W78931  22.771   5.979  12.680
13947W        W78932  15.348  29.647   4.122
13948W        W78933   9.069  22.278  11.225
13949W        W78934  37.922   5.514   2.301
13950W        W78935  26.156  27.434  12.293
13951W        W78936   4.933  23.163   1.886
13952W        W78937  34.667  17.577   0.796
13953W        W78938   2.744   7.251   0.684
13954W        W78939  36.719  22.623  11.672
13955W        W78940  30.474  31.893  10.486
13956W        W78941  20.781  33.998  11.493
13957W        W78942  18.148  27.014  12.532
13958W        W78943  32.704  23.162   2.301
13959W        W78944  12.055  42.532   4.317
13960W        W78945   3.996  41.343  12.597
13961W        W78946  28.862  39.405  11.475
13962W        W78947   8.486  27.066  13.539
13963W        W78948   3.225  20.885  13.419
13964W        W78949  22.635  10.777  13.467
13965W        W78950  17.059  15.288   3.717
13966W        W78951   9.370  19.132  14.750
13967W        W78952  16.205  34.321  12.994
13968W        W78953  30.779  36.985   2.373
13969W        W78954  37.329   1.431  14.016
13970W        W78955  26.485  12.387  10.796
13971W        W78956  11.792  17.433   1.710
13972W        W78957  10.918  21.318   1.813
13973W        W78958  43.780   7.421   1.715
13974W        W78959  29.853  42.164   0.835
13975W        W78960  41.527  43.708  11.466
13976W        W78961  19.863  39.715   2.428
13977W        W78962   0.798  44.247   3.587
13978W        W78963  43.345  38.054  13.896
13979W        W78964   3.754  11.621   3.347
13980W        W78965  34.291  31.341   0.834
13981W        W78966   9.940  10.772  14.877
13982W        W78967  26.810  42.236  14.346
13983W        W78968  29.614  32.648   3.637
13984W        W78969  32.005  10.233  13.938
13985W        W78970  39.063  22.582   0.280
13986W        W78971  39.499  32.159   0.308
13987W        W78972  10.688  39.436  12.245
13988W        W78973  33.970  10.057  14.970
13989W        W78974  21.353   6.249   3.727
13990W        W78975   9.201  18.124   2.691
13991W        W78976  30.930  31.565   4.229
13992W        W78977  13.353  40.792   3.874
13993W        W78978  12.306  41.605   4.124
13994W        W78979  27.482  27.193  10.653
13995W        W78980  38.884  29.601  11.632
13996W        W78981  12.055  24.596   4.894
13997W        W78982  42.492   1.487   4.196
13998W        W78983  25.666  44.363   4.225
13999W        W78984   4.879  42.151   0.228
14000W        W78985   7.749  42.304   2.948
14001W        W78986  18.648  12.641  14.461
14002W        W78987  21.142  14.447   3.038
14003W        W78988  14.296  28.423   2.811
14004W        W78989  22.290  27.197   0.776
14005W        W78990  33.178  14.296  12.005
14006W        W78991  29.105   3.400  13.465
14007W        W78992  16.288  22.199  14.887
14008W        W78993  39.082  21.974  13.941
14009W        W78994  40.527  31.840   0.052
14010W        W78995  11.515  25.645  12.579
14011W        W78996  25.462  40.681  14.929
14012W        W78997  25.766   7.185   0.410
14013W        W78998  36.603  10.678   3.692
14014W        W78999  35.154  17.027   1.363
14015W        W79000  35.458  41.853   0.835
14016W        W79001   6.887  37.032  14.479
14017W        W79002   5.432  20.240   3.580
14018W        W79003   2.961  30.584   0.532
14019W        W79004   5.907  15.720  10.576
14020W        W79005   9.836  14.767  10.897
14021W        W79006  34.486  29.576   2.230
14022W        W79007  31.936  24.161  14.361
14023W        W79008  37.095  24.641   2.402
14024W        W79009   1.731  22.330  12.991
14025W        W79010  32.426  21.354  11.433
14026W        W79011  41.842  15.019   4.015
14027W        W79012  32.478  26.335   0.246
14028W        W79013  14.331  13.661  13.328
14029W        W79014  39.122   2.094   0.243
14030W        W79015  39.901   2.692   1.716
14031W        W79016  17.062  13.012   4.138
14032W        W79017   5.299  29.181   0.384
14033W        W79018   2.246   8.687   3.141
14034W        W79019   4.673  14.328   3.715
14035W        W79020   3.148  15.261   4.402
14036W        W79021  37.407   5.948  10.454
14037W        W79022  29.969   8.333   2.261
14038W        W79023  31.230   5.927   0.772
14039W        W79024  30.556  41.549  10.687
14040W        W79025  40.059   1.279   3.648
14041W        W79026  12.782  30.537  14.489
14042W        W79027   0.689  38.904   1.309
14043W        W79028  23.658   2.867   0.862
14044W        W79029  25.444  25.587  12.864
14045W        W79030  29.581  38.060   2.117
14046W        W79031   7.807   8.638   3.191
14047W        W79032  32.627  39.828   0.475
14048W        W79033  16.780   5.388  14.094
14049W        W79034  11.628  26.115   4.199
14050W        W79035  42.000  29.661   4.184
14051W        W79036  41.461   3.701   4.085
14052W        W79037  30.050  21.818  13.301
14053W        W79038  18.278   9.176   0.579
14054W        W79039  20.072  35.431   4.014
14055W        W79040  36.939  17.279   1.004
14056W        W79041  15.756  35.676  11.015
14057W        W79042   0.892  33.614  14.868
14058W        W79043  10.257  19.614   4.591
14059W        W79044  30.463  13.148   3.834
14060W        W79045  16.990  18.185  10.481
14061W        W79046  31.216  39.939  11.685
14062W        W79047  40.013  44.322   3.272
14063W        W79048   1.573  37.040  11.589
14064W        W79049  21.618  21.767   0.339
14065W        W79050   7.957  30.647   1.222
14066W        W79051  44.877   5.980   2.774
14067W        W79052  19.428  18.601   0.197
14068W        W79053   6.731  13.847   1.736
14069W        W79054  21.267   3.477   0.867
14070W        W79055  42.831   6.844  14.379
14071W        W79056  20.236   0.400  14.779
14072W        W79057  24.642  27.458   3.731
14073W        W79058  21.172  10.731  13.652
14074W        W79059  13.149  23.610  12.092
14075W        W79060  20.722  20.765  14.700
14076W        W79061  35.610   8.162  12.106
14077W        W79062  42.737  10.129  13.966
14078W        W79063  36.883  34.617   3.617
14079W        W79064  32.630  39.957   0.973
14080W        W79065   3.321   6.379  14.324
14081W        W79066  22.072  21.300   1.261
14082W        W79067  24.575  12.255   3.347
14083W        W79068   3.491  12.580  12.978
14084W        W79069  25.803  44.760   1.790
14085W        W79070   2.083   4.933  11.139
14086W        W79071  34.055  27.131   3.617
14087W        W79072  14.636  14.731   4.387
14088W        W79073  44.983   9.834  12.522
14089W        W79074  26.634  18.832   3.156
14090W        W79075   6.696  22.564  13.045
14091W        W79076  21.600   8.132  11.076
14092W        W79077  33.804   0.912   1.823
14093W        W79078  21.256  36.762   2.419
14094W        W79079  34.865  38.336   3.639
14095W        W79080  20.463   1.751  14.892
14096W        W79081  27.401  25.647   3.162
14097W        W79082  30.979  11.610  13.304
14098W        W79083  32.669  19.446  11.163
14099W        W79084  29.478  29.619   3.138
14100W        W79085  24.511  12.355   3.861
14101W        W79086   0.373   7.393  11.552
14102W        W79087  21.685  16.328  13.346
14103W        W79088   6.353  14.058   0.239
14104W        W79089  11.187  10.650  12.883
14105W        W79090  28.585  11.819   0.388
14106W        W79091  30.899  35.108  11.674
14107W        W79092  39.885  40.255   4.537
14108W        W79093  29.140  41.363   2.822
14109W        W79094  31.369  24.614  14.910
14110W        W79095  14.131   7.648   3.144
14111W        W79096  34.434   9.400  11.966
14112W        W79097  29.543  26.409   4.619
14113W        W79098  17.783  23.576  14.785
14114W        W79099  16.045   3.046   0.059
14115W        W79100   0.709  41.495  13.308
14116W        W79101   5.137  40.375  12.346
14117W        W79102  36.131  43.362  12.016
14118W        W79103  13.266  24.213   3.204
14119W        W79104  36.558   0.555   1.277
14120W        W79105  33.074  28.154   2.846
14121W        W79106  13.374  14.314  11.588
14122W        W79107  23.284  30.857  11.456
14123W        W79108  31.299  38.696  11.944
14124W        W79109  40.200   5.605  13.431
14125W        W79110   9.272  13.147   3.581
14126W        W79111  21.329  42.374  13.374
14127W        W79112  22.515  26.262  12.163
14128W        W79113  14.518  17.100   3.321
14129W        W79114  35.314  28.886   3.640
14130W        W79115  40.929  27.602  12.913
14131W        W79116   1.257  23.592   1.058
14132W        W79117  11.729  18.610   0.536
14133W        W79118   2.755  33.093   2.700
14134W        W79119  44.945  42.797  10.645
14135W        W79120   2.360  22.357  10.422
14136W        W79121   8.878  11.655  14.073
14137W        W79122   1.516  32.929   1.775
14138W        W79123  29.541  12.661   1.833
14139W        W79124  38.687  26.328   0.406
14140W        W79125  40.817   8.871   1.325
14141W        W79126  13.942  13.462   0.713
14142W        W79127  32.885  20.193   4.094
14143W        W79128  19.568   2.393   3.451
14144W        W79129   5.714  36.079  11.507
14145W        W79130   0.823  11.782  13.912
14146W        W79131  16.686   8.014   0.408
14147W        W79132   4.439  22.044   2.906
14148W        W79133  13.594  41.936  12.669
14149W        W79134  17.281  29.749   0.236
14150W        W79135   7.151  10.223  13.955
14151W        W79136  17.141  37.985  11.489
14152W        W79137   9.822  34.119  10.491
14153W        W79138   6.294  36.577   1.385
14154W        W79139  21.012  11.799   3.662
14155W        W79140  29.529   9.852   3.751
14156W        W79141   2.315  36.391  12.985
14157W        W79142   1.839  37.034   2.289
14158W        W79143  29.858  40.302  13.862
14159W        W79144  17.600   0.417   2.898
14160W        W79145   2.967  18.074   4.075
14161W        W79146  27.000  15.599   3.707
14162W        W79147   2.977  36.319  12.362
14163W        W79148  13.742  34.276  11.270
14164W        W79149  36.960   0.047  14.586
14165W        W79150  43.997  26.131   0.551
14166W        W79151  38.824  26.563  14.891
14167W        W79152  15.997  21.143   4.986
14168W        W79153   2.215   5.700   4.633
14169W        W79154   8.851  33.463   0.286
14170W        W79155  34.129  20.636  10.749
14171W        W79156  27.676  29.048  12.519
14172W        W79157  16.086  25.846   2.842
14173W        W79158  23.506  15.365   1.848
14174W        W79159  34.191  16.826  13.802
14175W        W79160  13.671  22.992   0.914
14176W        W79161  36.246  12.343  10.026
14177W        W79162  31.941   2.201   3.777
14178W        W79163  29.486  40.319  12.866
14179W        W79164  37.914  37.914  14.340
14180W        W79165  22.509  20.552  14.737
14181W        W79166  21.906  23.875  12.078
14182W        W79167  24.632  28.898  13.518
14183W        W79168  33.145  12.616   0.987
14184W        W79169  39.041  36.567  11.623
14185W        W79170  13.656  38.138  13.502
14186W        W79171  20.985   3.436   2.755
14187W        W79172  12.852  37.576  13.866
14188W        W79173   9.172  33.019  12.022
14189W        W79174   1.238  44.890  14.671
14190W        W79175  10.902   8.727   2.349
14191W        W79176  20.110   1.909  14.072
14192W        W79177  33.446  12.702   5.278
14193W        W79178  27.213   5.466   3.714
14194W        W79179  27.195  27.763   2.571
14195W        W79180  22.317  44.258   4.249
14196W        W79181   8.794  33.983  12.526
14197W        W79182   8.963  23.612  14.927
14198W        W79183  34.779  35.872   0.461
14199W        W79184  18.109  36.076  13.899
14200W        W79185  43.452  20.033   3.421
14201W        W79186   9.725   5.007   4.101
14202W        W79187   0.022  16.538   4.682
14203W        W79188  30.416  35.073  11.603
14204W        W79189  41.221  15.326  13.938
14205W        W79190   8.148  23.299  14.954
14206W        W79191  17.905  28.748  14.559
14207W        W79192  42.949  31.644  12.819
14208W        W79193   7.741  26.959  12.518
14209W        W79194   4.872  28.077   5.118
14210W        W79195  14.276  36.354  11.655
14211W        W79196  15.134  33.962  11.369
14212W        W79197  36.317   9.247   3.009
14213W        W79198  38.607  16.651   3.741
14214W        W79199  12.659  19.762   1.640
14215W        W79200  20.767  16.740   2.225
14216W        W79201  11.172  16.923  13.928
14217W        W79202  28.101  23.719   3.209
14218W        W79203  16.833  44.836  11.579
14219W        W79204   6.432  44.834  12.070
14220W        W79205  33.950  25.104  13.479
14221W        W79206  19.099  44.974   2.965
14222W        W79207  24.197  19.730  12.891
14223W        W79208  33.861  17.622  13.409
14224W        W79209  18.692  33.104  11.906
14225W        W79210   9.931  30.362   0.845
14226W        W79211   0.478  10.534   3.108
14227W        W79212   0.273   6.261  14.826
14228W        W79213  23.528  25.304   2.851
14229W        W79214  36.440  22.584   0.006
14230W        W79215  19.074  21.731   2.180
14231W        W79216  23.410  36.469  12.908
14232W        W79217   7.299  31.608   4.395
14233W        W79218   0.205  15.832   3.359
14234W        W79219  29.256  19.694   2.159
14235W        W79220   1.503  30.984  10.793
14236W        W79221  26.307  17.627  11.518
14237W        W79222   2.340   2.681  14.236
14238W        W79223  41.389   0.457   4.742
14239W        W79224  39.808   8.624  13.629
14240W        W79225  28.687  43.263  14.986
14241W        W79226  41.401   6.434   4.748
14242W        W79227  11.175   7.874  12.036
14243W        W79228   2.270  32.925  11.033
14244W        W79229  41.589  39.170  13.869
14245W        W79230  14.820  42.257  14.875
14246W        W79231  17.572  30.713   3.615
14247W        W79232   2.275  15.372   2.977
14248W        W79233  38.559   7.724  13.387
14249W        W79234  27.173  12.510   2.721
14250W        W79235   3.418  34.757  12.893
14251W        W79236  17.543  43.897   1.350
14252W        W79237   2.297  15.841   4.658
14253W        W79238   6.317  24.769   2.836
14254W        W79239  35.441  25.437   3.134
14255W        W79240  31.462  11.299  14.888
14256W        W79241   0.753   0.036   2.826
14257W        W79242   2.979   3.192  13.526
14258W        W79243  44.901  11.383   1.084
14259W        W79244  16.759  44.557  13.119
14260W        W79245   2.431  34.393  11.453
14261W        W79246   6.795   0.244   4.637
14262W        W79247  30.353  37.512   0.910
14263W        W79248  37.954   2.038   0.440
14264W        W79249  20.974  14.278   1.274
14265W        W79250  13.680  44.988  10.980
14266W        W79251  37.116  39.368  11.760
14267W        W79252   2.522  17.701   4.503
14268W        W79253  39.338   4.231   3.637
14269W        W79254  10.550  25.987  14.931
14270W        W79255  37.918  10.316   4.800
14271W        W79256  41.905  14.161   5.009
14272W        W79257  37.375   8.166   2.813
14273W        W79258   2.753  16.296   1.885
14274W        W79259  37.477  27.012  13.815
14275W        W79260  12.576  40.911   0.297
14276W        W79261  25.937  28.913   5.419
14277W        W79262  22.586  30.612  11.007
14278W        W79263   2.469   8.628  14.918
14279W        W79264  16.019  37.194   4.602
14280W        W79265  30.441  35.461  12.467
14281W        W79266  37.384  25.597   0.890
14282W        W79267  19.640   7.450   3.414
14283W        W79268  23.341  11.316  14.594
14284W        W79269   7.881  17.971  11.223
14285W        W79270   0.745  34.063   4.575
14286W        W79271  12.394  20.429   4.269
14287W        W79272   5.467  28.066   4.262
14288W        W79273  32.152   7.825  12.511
14289W        W79274   7.110  18.767   4.139
14290W        W79275   9.064  22.489   3.221
14291W        W79276  34.107   5.121   2.413
14292W        W79277  23.567  42.819  14.954
14293W        W79278  11.313  41.870   4.755
14294W        W79279  34.891  26.217  13.363
14295W        W79280  42.438   2.762   1.160
14296W        W79281  16.098  28.240  12.982
14297W        W79282  14.346  22.205  10.343
14298W        W79283   1.488  18.351  13.822
14299W        W79284  26.683  25.560   1.756
14300W        W79285  43.860  41.960   3.372
14301W        W79286  23.137  38.334   3.293
14302W        W79287  43.752  33.193   0.001
14303W        W79288  33.641   7.219   2.260
14304W        W79289  21.581   0.710  11.147
14305W        W79290  16.083  20.366  14.194
14306W        W79291  28.903  29.194  11.434
14307W        W79292  25.574   5.015   4.984
14308W        W79293  44.776  20.016  11.531
14309W        W79294  13.243  23.136   2.720
14310W        W79295  32.464  14.676  14.613
14311W        W79296   0.444  14.114   3.875
14312W        W79297  42.950  33.542  14.254
14313W        W79298  31.926  27.543   2.112
14314W        W79299  31.553  44.416   0.828
14315W        W79300  22.156   1.481  12.544
14316W        W79301  43.814  23.555  14.013
14317W        W79302  11.288  20.263   0.135
14318W        W79303  22.265  39.022  13.562
14319W        W79304  32.048  20.682   0.897
14320W        W79305  29.879  12.527   2.351
14321W        W79306  35.849   0.406   2.887
14322W        W79307  21.808  17.648  13.531
14323W        W79308  17.161  23.529   3.587
14324W        W79309  26.948   0.310   1.275
14325W        W79310  16.568  42.539  14.615
14326W        W79311  29.126  32.320   2.764
14327W        W79312  16.880   9.913   3.245
14328W        W79313   0.849  42.793  14.024
14329W        W79314   3.919  16.320  12.473
14330W        W79315   3.395  40.880  11.879
14331W        W79316   7.151   1.912   4.093
14332W        W79317   2.059  27.974   2.123
14333W        W79318  31.575  29.534   0.411
14334W        W79319   2.026  38.130  11.161
14335W        W79320   6.840   4.681   3.077
14336W        W79321   6.900   8.772  11.036
14337W        W79322  15.392  21.235  11.949
14338W        W79323  34.533  11.579   0.482
14339W        W79324  14.684   8.837   2.378
14340W        W79325  41.676  14.691  13.162
14341W        W79326  40.321   4.373   2.371
14342W        W79327  22.271  33.989  12.436
14343W        W79328   3.357  17.791   0.233
14344W        W79329  31.125  35.888  14.231
14345W        W79330  28.966  29.322   4.219
14346W        W79331  10.285   1.706  13.791
14347W        W79332  31.947  26.749  10.621
14348W        W79333  34.572  38.568  11.131
14349W        W79334  34.314  20.900  13.163
14350W        W79335  20.259  22.140  13.522
14351W        W79336   9.208   2.764   4.876
14352W        W79337  38.140  37.426   1.215
14353W        W79338  44.430  17.610   2.814
14354W        W79339  14.526   4.004  13.507
14355W        W79340  42.436  32.260  11.639
14356W        W79341  21.129  33.979  11.091
14357W        W79342  41.891   0.418   1.172
14358W        W79343  43.699   0.285   2.304
14359W        W79344  10.416   4.470  13.468
14360W        W79345  38.834  20.015  14.032
14361W        W79346   8.882  36.783   5.226
14362W        W79347  34.092   2.429   2.758
14363W        W79348  21.611   0.731   0.436
14364W        W79349  33.457   2.427  10.602
14365W        W79350   8.793  42.262  14.901
14366W        W79351  39.418  38.950   1.450
14367W        W79352   7.347  16.072  13.311
14368W        W79353  18.634  27.097   0.260
14369W        W79354  20.131  12.778  13.993
14370W        W79355   0.722  11.111  14.420
14371W        W79356  14.218  33.116   4.250
14372W        W79357  25.929   2.223  12.028
14373W        W79358   9.699  15.652   2.235
14374W        W79359  31.651  10.917   0.283
14375W        W79360  18.573  34.282   2.680
14376W        W79361  10.084  35.063  13.426
14377W        W79362  25.759  15.728   1.418
14378W        W79363  32.875  32.887   1.437
14379W        W79364  10.608  40.012   1.206
14380W        W79365  12.219  39.985  12.407
14381W        W79366  13.117  27.261   0.316
14382W        W79367  40.328  39.529  12.511
14383W        W79368   0.156  14.685  10.022
14384W        W79369  42.283   0.764   0.979
14385W        W79370   2.157  28.558  13.125
14386W        W79371  43.423  25.974  12.408
14387W        W79372  14.257  15.768  10.003
14388W        W79373  25.137  24.331  14.890
14389W        W79374  39.546  29.465  12.898
14390W        W79375  36.067   0.405  11.745
14391W        W79376   0.337   8.362  10.684
14392W        W79377   1.632  14.850  13.469
14393W        W79378   2.657  33.848   3.613
14394W        W79379  24.441  21.618  12.942
14395W        W79380   3.232  44.026   0.781
14396W        W79381  17.836  22.484  12.038
14397W        W79382  38.818  24.259   2.697
14398W        W79383  37.920  17.074   3.606
14399W        W79384   9.914  31.893  10.110
14400W        W79385  28.863  20.220   3.762
14401W        W79386   2.857   4.986   4.796
14402W        W79387  33.649  11.870   1.051
14403W        W79388  16.761  43.310   4.153
14404W        W79389   6.140  33.894  11.691
14405W        W79390  19.131  36.229  14.728
14406W        W79391  19.531   9.202  10.790
14407W        W79392  12.719  35.062   2.719
14408W        W79393  30.193  40.159  14.769
14409W        W79394  30.943  26.616   4.664
14410W        W79395  40.779  38.059   1.224
14411W        W79396  32.122  28.603   1.288
14412W        W79397  17.227   3.932   2.699
14413W        W79398  28.180  37.509  14.510
14414W        W79399  19.168  22.529   3.266
14415W        W79400   1.757  13.836   3.712
14416W        W79401  20.989  27.553   1.317
14417W        W79402  41.935  12.704   3.302
14418W        W79403   4.482  13.844   1.321
14419W        W79404  29.080  26.534  14.359
14420W        W79405  16.782  20.745  13.499
14421W        W79406  40.889  41.383  13.832
14422W        W79407  17.849  42.953   1.585
14423W        W79408  19.277  30.409  12.335
14424W        W79409   7.208   4.239   4.660
14425W        W79410   0.490  13.082   4.978
14426W        W79411   1.474   0.592  14.031
14427W        W79412  14.361   1.494  10.610
14428W        W79413  28.116  27.844   2.378
14429W        W79414  35.012   7.755  12.592
14430W        W79415  35.576   6.886  11.704
14431W        W79416  13.592  27.641  12.564
14432W        W79417  10.073  21.427  14.328
14433W        W79418  10.251   1.395   4.156
14434W        W79419  21.950  37.514   2.310
14435W        W79420  24.612  35.079   0.811
14436W        W79421   8.306  27.977  12.349
14437W        W79422   9.086  22.516  13.868
14438W        W79423  40.379  23.201   1.843
14439W        W79424  37.823  27.974   0.518
14440W        W79425  23.489   3.263   1.166
14441W        W79426  18.208  20.652   0.682
14442W        W79427  16.863  30.850  14.877
14443W        W79428  43.548  19.821   1.697
14444W        W79429  26.749  38.100  12.384
14445W        W79430   5.201  16.848   1.236
14446W        W79431   9.683  19.994  14.329
14447W        W79432  43.681  29.531   3.627
14448W        W79433   2.993  34.180  13.634
14449W        W79434  42.295   6.737   0.181
14450W        W79435  20.144  43.034   5.385
14451W        W79436  11.216   7.222  12.125
14452W        W79437  34.564  38.388   1.026
14453W        W79438  36.443  15.194  14.260
14454W        W79439  34.061  31.928  13.824
14455W        W79440   8.094  39.966   2.453
14456W        W79441  30.894  43.355   0.511
14457W        W79442  39.832  23.554  14.355
14458W        W79443  35.692  31.032   4.511
14459W        W79444  34.082  25.482  14.950
14460W        W79445  35.976  27.613  13.803
14461W        W79446  10.623  35.151  12.559
14462W        W79447  39.831  38.537  12.636
14463W        W79448  22.681  15.245  12.829
14464W        W79449   8.515  29.471   3.284
14465W        W79450  37.593  24.626   0.891
14466W        W79451  28.731  18.112  10.701
14467W        W79452   9.469   9.604  13.301
14468W        W79453   9.259  25.534   2.919
14469W        W79454   3.864  11.202  11.066
14470W        W79455  30.422  22.183   1.966
14471W        W79456  43.972  12.606   0.526
14472W        W79457  30.689  12.419   3.317
14473W        W79458   7.967  19.228   1.668
14474W        W79459   1.436  35.851  13.143
14475W        W79460  39.656  18.756   3.830
14476W        W79461  20.731   5.250  13.466
14477W        W79462   3.409  37.041  12.378
14478W        W79463  11.660   6.853   0.802
14479W        W79464  22.474  28.388   0.210
14480W        W79465  36.360  36.347   0.219
14481W        W79466  39.104  40.753  13.884
14482W        W79467  14.032  19.215  11.544
14483W        W79468   1.358  23.704   2.532
14484W        W79469  13.510  43.366  10.663
14485W        W79470  14.011  43.326  10.691
14486W        W79471  39.101  44.876   0.040
14487W        W79472   6.409  24.932   2.221
14488W        W79473  35.952  21.833   0.864
14489W        W79474  19.322   7.485   1.785
14490W        W79475  42.131  33.744  12.049
14491W        W79476  39.949  20.981   3.263
14492W        W79477   3.768  29.919   3.697
14493W        W79478  30.063  44.315  13.692
14494W        W79479  38.576  41.913   0.238
14495W        W79480  18.338   5.528   0.489
14496W        W79481  17.714  33.707  14.386
14497W        W79482  27.169  41.995   4.169
14498W        W79483  24.317  15.219  10.751
14499W        W79484   0.682   1.040  11.304
14500W        W79485   9.110  18.600  10.720
14501W        W79486  14.684  44.057   1.426
14502W        W79487  13.895  36.015  11.626
14503W        W79488  37.485  31.591   3.365
14504W        W79489  20.486  39.589   4.168
14505W        W79490   8.715  21.316   4.522
14506W        W79491  14.861  37.956  12.040
14507W        W79492  19.315  27.566   3.204
14508W        W79493  39.412  16.708   5.688
14509W        W79494  14.759  40.241   4.593
14510W        W79495  24.710  34.736   3.531
14511W        W79496  20.764  40.854  12.976
14512W        W79497   8.749  23.711   0.713
14513W        W79498  18.115   4.397  14.376
14514W        W79499  34.537   4.927   4.748
14515W        W79500  25.978  17.224   5.083
14516W        W79501  21.810  16.815   2.227
14517W        W79502  40.748  27.041   0.903
14518W        W79503  22.026  33.119  10.735
14519W        W79504  34.442   9.887   4.070
14520W        W79505   8.778   8.695   2.964
14521W        W79506  41.288  39.465   3.290
14522W        W79507   0.890  40.644   5.022
14523W        W79508   8.929  32.710  11.355
14524W        W79509  22.527   0.891   2.143
14525W        W79510  17.847  44.889   4.670
14526W        W79511  18.775  34.130   0.441
14527W        W79512  33.641   2.176   4.704
14528W        W79513   1.342  10.205   0.406
14529W        W79514  31.643  30.074   1.876
14530W        W79515  14.550   2.597   2.253
14531W        W79516  41.064  32.434   4.580
14532W        W79517  43.243  35.226  12.900
14533W        W79518  41.006  30.869   3.709
14534W        W79519   8.671  13.238  12.578
14535W        W79520  34.531   6.264  12.838
14536W        W79521  29.742  22.773  11.137
14537W        W79522  36.150  34.202   0.194
14538W        W79523  28.569  37.107  11.559
14539W        W79524  26.038  19.549   0.262
14540W        W79525   6.706  32.610   1.226
14541W        W79526  29.890  31.772   5.210
14542W        W79527  43.228  36.315   3.624
14543W        W79528   2.940  13.176   2.303
14544W        W79529  20.626  25.737  11.494
14545W        W79530  13.840  27.982  12.887
14546W        W79531  44.519  34.685   9.819
14547W        W79532   9.903  42.221  13.538
14548W        W79533  12.530   9.334   2.199
14549W        W79534  30.466  27.613  10.777
14550W        W79535  25.779  14.385   3.685
14551W        W79536  29.245   8.637  14.735
14552W        W79537  32.321   0.026   4.521
14553W        W79538  25.983  13.798   3.148
14554W        W79539  20.517   4.285   4.235
14555W        W79540  30.220  36.303  12.158
14556W        W79541  27.681  22.693   0.732
14557W        W79542  14.524   1.273  11.907
14558W        W79543  25.752  39.175  12.073
14559W        W79544  15.626  22.599  10.593
14560W        W79545  34.508  28.557   2.278
14561W        W79546  24.020  27.443   0.296
14562W        W79547  15.469  17.540  10.990
14563W        W79548   0.701   3.232   0.385
14564W        W79549  44.843  20.185  13.965
14565W        W79550  32.381  23.683   4.158
14566W        W79551  15.074  37.094   3.672
14567W        W79552  20.254  14.173  13.355
14568W        W79553  36.362  19.886  12.485
14569W        W79554  38.034  14.318   2.674
14570W        W79555  21.642  37.680  14.386
14571W        W79556  42.096  24.395  10.423
14572W        W79557  18.929  14.275  11.520
14573W        W79558  17.365  36.889  12.139
14574W        W79559  34.705   6.677   4.078
14575W        W79560   8.956  14.843   2.673
14576W        W79561  40.245  44.326   3.879
14577W        W79562   5.153   8.464  10.263
14578W        W79563  19.051  13.637   4.618
14579W        W79564  24.976  22.187   0.812
14580W        W79565  38.366  30.939  10.647
14581W        W79566  11.909  13.808  14.004
14582W        W79567  20.151  34.359   3.525
14583W        W79568  27.465  35.902  13.360
14584W        W79569  18.681  13.091   1.271
14585W        W79570   0.685   0.342   4.037
14586W        W79571  24.498  10.299   0.935
14587W        W79572  30.606  15.825   3.618
14588W        W79573  15.761  15.083   4.240
14589W        W79574   5.400  36.568  11.882
14590W        W79575  15.807  25.535  12.475
14591W        W79576  21.684  16.548   3.579
14592W        W79577   2.169   6.172   0.499
14593W        W79578  13.631  33.146   1.777
14594W        W79579  18.685  29.534   4.481
14595W        W79580  14.352  17.841  14.026
14596W        W79581  17.764  16.780   0.787
14597W        W79582  30.639   4.302  14.853
14598W        W79583  21.630  10.499  12.925
14599W        W79584  31.024   4.441  12.060
14600W        W79585  13.596  24.227  12.889
14601W        W79586  39.807   2.382   4.178
14602W        W79587  17.963  28.636   5.031
14603W        W79588  17.877  29.123  13.391
14604W        W79589  32.485   4.158   0.916
14605W        W79590   4.261  35.518  14.945
14606W        W79591  29.762   6.287   5.141
14607W        W79592  31.272  38.928   3.767
14608W        W79593   7.202  13.272  10.508
14609W        W79594   0.983  38.385   3.151
14610W        W79595  43.527  32.061   1.363
14611W        W79596  40.917   7.022  13.562
14612W        W79597  12.044  37.289  11.972
14613W        W79598  15.862  23.093  11.968
14614W        W79599  27.090  17.275   0.722
14615W        W79600  39.602  26.965   2.401
14616W        W79601  36.018  15.487  14.144
14617W        W79602  10.917   2.032  13.218
14618W        W79603  35.861  12.849   2.569
14619W        W79604  22.073  18.656   2.639
14620W        W79605   3.115  25.000  13.490
14621W        W79606   4.251  10.379  12.005
14622W        W79607   8.011  33.344   0.435
14623W        W79608  31.492  18.935   3.189
14624W        W79609  10.706  13.378  12.832
14625W        W79610  36.032  39.227  11.015
14626W        W79611  20.043  21.045  14.245
14627W        W79612  11.594   5.613  14.283
14628W        W79613  37.426  16.312  11.118
14629W        W79614  25.943  23.516   2.619
14630W        W79615  25.075   4.703  13.780
14631W        W79616  25.860  17.817   4.254
14632W        W79617   5.483  38.885   0.116
14633W        W79618  44.048  23.583  13.447
14634W        W79619   6.751  11.197   0.874
14635W        W79620  33.269   8.583   0.501
14636W        W79621   8.268  30.258   0.153
14637W        W79622  11.813  24.898  11.530
14638W        W79623  19.024  40.729  13.525
14639W        W79624  29.579  15.204  14.563
14640W        W79625  34.819   8.930  13.903
14641W        W79626  34.588   6.665   0.003
14642W        W79627   7.367  12.418   0.952
14643W        W79628   4.386  19.547   4.706
14644W        W79629  40.423  34.669  14.972
14645W        W79630  14.665  40.488   1.250
14646W        W79631  36.351   9.676   3.688
14647W        W79632  11.313  38.128   1.846
14648W        W79633  42.582  17.643   1.160
14649W        W79634  28.874  41.082   0.942
14650W        W79635   6.851  37.018   1.002
14651W        W79636  10.976  27.383  14.069
14652W        W79637   6.799  28.922   4.583
14653W        W79638  38.984  30.666   2.270
14654W        W79639  33.123  23.484   0.338
14655W        W79640  25.232  29.208  14.338
14656W        W79641  40.508  29.594  11.183
14657W        W79642  34.090   8.764  14.389
14658W        W79643  15.796  42.690  13.596
14659W        W79644   7.158   8.424   4.052
14660W        W79645   7.320  36.128   3.159
14661W        W79646  18.381   4.971  11.153
14662W        W79647   5.800  10.283  13.737
14663W        W79648  34.407  11.492   4.098
14664W        W79649  10.373  39.057  12.385
14665W        W79650  13.783  38.273   0.254
14666W        W79651  29.672   8.714   1.303
14667W        W79652  36.326  26.149  12.549
14668W        W79653  37.733   3.450  11.118
14669W        W79654  40.974  30.391   1.494
14670W        W79655   6.816  35.751  12.192
14671W        W79656  20.547  22.571   4.310
14672W        W79657  10.000  27.116   0.953
14673W        W79658   1.524  19.834   0.570
14674W        W79659   3.309  32.499  11.991
14675W        W79660   4.134  27.676  14.073
14676W        W79661   3.012   0.894  14.864
14677W        W79662  19.980   6.897   3.647
14678W        W79663  20.066  17.157  14.429
14679W        W79664  18.835   4.329   0.717
14680W        W79665  27.929  15.268  12.826
14681W        W79666  15.936  25.960   0.458
14682W        W79667   5.945  44.279  13.498
14683W        W79668   9.402  18.762  12.970
14684W        W79669  40.863  28.933  13.061
14685W        W79670   6.044  24.562   3.689
14686W        W79671  23.117  11.363   2.297
14687W        W79672   4.121  35.473  11.115
14688W        W79673   4.917  11.067  13.099
14689W        W79674  18.530   2.874   3.355
14690W        W79675   4.204  21.117   3.917
14691W        W79676  23.962  13.148  12.950
14692W        W79677   7.441  25.177   1.426
14693W        W79678  22.486  37.847  13.991
14694W        W79679  27.077  31.887   1.694
14695W        W79680  34.814  10.591   3.252
14696W        W79681  40.422  42.551  11.620
14697W        W79682  36.289   2.340   1.638
14698W        W79683  41.798  21.139  10.894
14699W        W79684  14.753  31.055   4.132
14700W        W79685  36.954  15.879   5.057
14701W        W79686  40.405   3.420   0.970
14702W        W79687   6.772  12.148   3.615
14703W        W79688  41.595   4.467  14.734
14704W        W79689  12.730   9.412  11.532
14705W        W79690  14.808   9.411  11.934
14706W        W79691  36.365  31.493   2.329
14707W        W79692  43.037   7.621  12.861
14708W        W79693  17.854   4.346  14.934
14709W        W79694  35.872   8.054  13.872
14710W        W79695  14.951  14.647  12.023
14711W        W79696  12.296  24.005  13.548
14712W        W79697   4.904  13.230  14.448
14713W        W79698   0.762  42.131  14.090
14714W        W79699   1.910  36.830   1.826
14715W        W79700  30.984  19.485  14.733
14716W        W79701  18.206  38.977  11.317
14717W        W79702  42.247  33.455   0.897
14718W        W79703  43.282  11.230  13.420
14719W        W79704  41.346  44.306   2.972
14720W        W79705  43.761   5.481  12.108
14721W        W79706  14.935  31.097   4.905
14722W        W79707  31.044   5.579  13.478
14723W        W79708   0.514  13.172  13.984
14724W        W79709  39.913  10.730   4.022
14725W        W79710  28.772  16.007   2.397
14726W        W79711  14.858  18.080  10.744
14727W        W79712  29.592   9.406  12.402
14728W        W79713  41.430  15.347   1.646
14729W        W79714   0.754  26.092  10.690
14730W        W79715   2.947  10.686   2.312
14731W        W79716   3.980  34.668  10.664
14732W        W79717  22.745  22.608   1.874
14733W        W79718  30.256  24.505   4.602
14734W        W79719  43.331  15.988   4.475
14735W        W79720  38.077  35.391   1.269
14736W        W79721  15.337  18.749   2.862
14737W        W79722  29.699  12.607  10.752
14738W        W79723  35.097  23.179   3.881
14739W        W79724  13.152  20.544  13.839
14740W        W79725  30.683  37.874  12.018
14741W        W79726  11.128  19.758  13.766
14742W        W79727  18.588  19.724  13.512
14743W        W79728  42.620  26.219  11.451
14744W        W79729   6.647   8.220   3.306
14745W        W79730  37.293   3.567  10.846
14746W        W79731   7.523  40.786  13.846
14747W        W79732   7.464  28.448  14.842
14748W        W79733  32.843  16.032  14.396
14749W        W79734  42.530  13.353  12.709
14750W        W79735   4.662  44.624   1.669
14751W        W79736  43.067  41.286  11.166
14752W        W79737  42.015   2.171   4.778
14753W        W79738  17.405  43.326   2.203
14754W        W79739  34.933  32.792   4.560
14755W        W79740  14.979   9.820  11.225
14756W        W79741  28.949  36.733  13.606
14757W        W79742  19.925  31.000  10.756
14758W        W79743  15.645   7.189   1.781
14759W        W79744  32.652  10.364  10.693
14760W        W79745  41.012   0.741   1.392
14761W        W79746  27.106   2.523   4.182
14762W        W79747   2.320  10.164  10.377
14763W        W79748  32.244   0.791   4.041
14764W        W79749  21.518   8.786   2.668
14765W        W79750  34.523  13.935  11.583
14766W        W79751  40.968   3.657   1.908
14767W        W79752  18.560  38.632   1.760
14768W        W79753  19.267  35.766   3.375
14769W        W79754  32.313  23.033   3.773
14770W        W79755  30.021  24.238  11.971
14771W        W79756  37.146  40.817  12.133
14772W        W79757  29.973   7.211   0.083
14773W        W79758  29.973  30.656   4.223
14774W        W79759  12.607  13.008  14.103
14775W        W79760   6.276  36.566   0.821
14776W        W79761  15.767  10.092   3.710
14777W        W79762   3.082  12.881  12.520
14778W        W79763  38.096  36.431  11.542
14779W        W79764   4.788  11.155  12.184
14780W        W79765  13.255   8.638   2.404
14781W        W79766  41.528  27.201   0.528
14782W        W79767  18.211  14.446  11.492
14783W        W79768  14.683  14.964   3.565
14784W        W79769  11.820   6.139   4.597
14785W        W79770  38.081  30.102   3.930
14786W        W79771  23.534  39.494  14.998
14787W        W79772  15.273   0.902   2.830
14788W        W79773  37.587  10.289  13.485
14789W        W79774  28.064  44.277  12.463
14790W        W79775  33.787  13.277   1.502
14791W        W79776  31.018  14.697   1.225
14792W        W79777  14.784  29.668   2.318
14793W        W79778  31.523   3.706  11.537
14794W        W79779  23.165  39.318  12.612
14795W        W79780   1.769   8.502   3.267
14796W        W79781  36.867  26.242   3.008
14797W        W79782  39.520  13.617  14.272
14798W        W79783  44.429   5.717   1.665
14799W        W79784  23.614  16.924  11.075
14800W        W79785   4.835  21.761   0.712
14801W        W79786  15.626  42.958  11.523
14802W        W79787  36.452  17.555   4.335
14803W        W79788  36.627  29.360   4.095
14804W        W79789  19.531  37.315   1.760
14805W        W79790   6.131  38.109   3.571
14806W        W79791  44.701  10.208  10.857
14807W        W79792  34.512  18.609  13.753
14808W        W79793  32.380  21.660   1.271
14809W        W79794  17.591  38.640  12.999
14810W        W79795  31.683  44.807  12.144
14811W        W79796  43.852  16.846  14.870
14812W        W79797   3.354  33.431  11.375
14813W        W79798   8.552  28.947   3.586
14814W        W79799   8.165   0.782   4.008
14815W        W79800   0.743   8.819   0.165
14816W        W79801  28.578  40.825   0.145
14817W        W79802  23.273  30.896  14.855
14818W        W79803  27.209  16.798  14.287
14819W        W79804  32.783  39.894   3.304
14820W        W79805  42.401   4.868   1.000
14821W        W79806   6.970  42.461  11.914
14822W        W79807  14.333  35.068   4.972
14823W        W79808   9.228  40.843  12.858
14824W        W79809  42.423   7.727  12.034
14825W        W79810  22.763  13.817  13.520
14826W        W79811  20.168  16.450  12.031
14827W        W79812   7.453   8.073  11.663
14828W        W79813   5.326   6.676   2.369
14829W        W79814  33.375  30.424  10.726
14830W        W79815  30.418  20.252  14.901
14831W        W79816  32.779  24.505  11.159
14832W        W79817  16.401   4.778   1.801
14833W        W79818  24.742  39.398   2.304
14834W        W79819  26.451  31.006  12.707
14835W        W79820  25.646  40.099  12.468
14836W        W79821  42.998  35.068   0.232
14837W        W79822  15.673  22.290  11.663
14838W        W79823  13.613  38.538   3.704
14839W        W79824  14.113  10.916   2.898
14840W        W79825   9.862  18.115   3.976
14841W        W79826  30.070   7.130  10.609
14842W        W79827  36.098   0.453   3.342
14843W        W79828  44.669  26.477   4.988
14844W        W79829  21.043  16.335   2.098
14845W        W79830  21.171  25.379  12.086
14846W        W79831  20.087  12.852  12.320
14847W        W79832  14.040  42.353   0.502
14848W        W79833   7.468   9.268   4.275
14849W        W79834  25.629  25.551   1.772
14850W        W79835  44.935  25.094  14.011
14851W        W79836  20.417  37.210   1.689
14852W        W79837  16.059  28.489  10.651
14853W        W79838  42.485  40.808   3.795
14854W        W79839   6.393   4.824   3.285
14855W        W79840  18.814  14.743   2.382
14856W        W79841  26.980  39.092  10.726
14857W        W79842  24.175  42.052   4.490
14858W        W79843  42.546   8.616   0.680
14859W        W79844  38.089  11.259  12.034
14860W        W79845  20.346  20.460   5.396
14861W        W79846  42.761  16.128   3.094
14862W        W79847  10.800  36.538   3.802
14863W        W79848  38.962  40.828   1.336
14864W        W79849  12.869  17.957  11.860
14865W        W79850  29.606  41.797   1.106
14866W        W79851  40.841  29.094   0.834
14867W        W79852   9.360  10.820   2.162
14868W        W79853  20.925  36.463   1.014
14869W        W79854   0.426  40.022   0.838
14870W        W79855  22.397  41.970   2.012
14871W        W79856   9.339  11.596  12.027
14872W        W79857  19.118  24.499   2.750
14873W        W79858  10.335  10.165   2.674
14874W        W79859  35.921  40.789  10.907
14875W        W79860  33.012   9.090   2.391
14876W        W79861  17.226  19.750   0.411
14877W        W79862  31.058  39.161  12.059
14878W        W79863  24.108  28.768  12.091
14879W        W79864  22.510   3.169  13.844
14880W        W79865   7.845  17.139  11.485
14881W        W79866  39.245  42.126   4.089
14882W        W79867   1.887  32.241   4.290
14883W        W79868   1.361  27.814   0.399
14884W        W79869  11.514   1.675  10.110
14885W        W79870   1.437  41.681  14.372
14886W        W79871   6.299  13.078  10.790
14887W        W79872  22.992  35.373   2.185
14888W        W79873  20.142  21.692   1.368
14889W        W79874  39.935   4.210  13.524
14890W        W79875  41.534   4.609   3.768
14891W        W79876  29.966  21.195   0.970
14892W        W79877  42.484  38.473  14.697
14893W        W79878  23.096  31.086  14.401
14894W        W79879  35.791  41.220  12.654
14895W        W79880   9.080  20.561   3.475
14896W        W79881   0.141  28.336   2.043
14897W        W79882  42.457  35.575  14.856
14898W        W79883  27.438  43.217   9.330
14899W        W79884  23.800  21.554  11.530
14900W        W79885  12.808  34.372   3.207
14901W        W79886   8.194  41.062   1.155
14902W        W79887  13.724   5.780  14.284
14903W        W79888  17.637   4.573   0.375
14904W        W79889  21.553  13.459  12.888
14905W        W79890  29.714  34.440  10.675
14906W        W79891   8.181  26.974   1.794
14907W        W79892  44.381  37.579   0.817
14908W        W79893  29.044  12.453   1.790
14909W        W79894   7.293   7.244  14.805
14910W        W79895  38.394  23.061  11.634
14911W        W79896  32.455   2.952   2.682
14912W        W79897  11.346  16.234   1.681
14913W        W79898  28.674   7.752  13.427
14914W        W79899  38.804  38.387  10.914
14915W        W79900   0.767   4.669   4.609
14916W        W79901   7.345  24.007  10.589
14917W        W79902  18.869   6.201   5.106
14918W        W79903  28.698   3.332  11.057
14919W        W79904  23.450  27.374  14.333
14920W        W79905  43.623  41.570   2.614
14921W        W79906   5.466  19.640  12.869
14922W        W79907  36.446  37.141  10.098
14923W        W79908  26.303  32.515   2.228
14924W        W79909   3.437   5.227  10.503
14925W        W79910  15.308  26.384  10.559
14926W        W79911   0.172  38.010   2.661
14927W        W79912  12.816  20.048   1.224
14928W        W79913  42.488  39.753  12.986
14929W        W79914  43.726   0.998   0.960
14930W        W79915  26.991  12.310   0.807
14931W        W79916  18.273  15.244   3.744
14932W        W79917  18.135  37.359  14.717
14933W        W79918  25.714  11.191   3.239
14934W        W79919  28.803  30.711  10.838
14935W        W79920  29.196  31.062   1.296
14936W        W79921  14.595  42.716   4.139
14937W        W79922   4.828  37.371   3.654
14938W        W79923   7.437   9.613   0.864
14939W        W79924  23.784  13.077   4.454
14940W        W79925   5.501  20.253  12.502
14941W        W79926   7.757  35.630  11.553
14942W        W79927  39.237  44.745  12.897
14943W        W79928  32.899   2.115  12.797
14944W        W79929  43.053  29.299   4.159
14945W        W79930  12.110  33.562   2.801
14946W        W79931  16.646   8.171   1.712
14947W        W79932  42.855  24.478  14.895
14948W        W79933   2.417   0.661  12.336
14949W        W79934  29.454   0.904  12.107
14950W        W79935  24.809  21.583  14.535
14951W        W79936   8.663  28.944   2.630
14952W        W79937  20.384   4.406   2.323
14953W        W79938  13.755  36.051  12.611
14954W        W79939   8.830   7.635   3.085
14955W        W79940  42.585  33.081  12.679
14956W        W79941  33.787   4.384  12.629
14957W        W79942  18.676   2.006  12.395
14958W        W79943  36.071   6.721  11.847
14959W        W79944  13.971  19.560   0.432
14960W        W79945  15.569  23.180  11.551
14961W        W79946  44.517  10.559   4.585
14962W        W79947  21.939  18.553  12.604
14963W        W79948   7.898  12.164   4.428
14964W        W79949  27.632  25.637  13.797
14965W        W79950  26.466  16.583  12.953
14966W        W79951  44.092  43.807   0.284
14967W        W79952  13.630  31.194   4.685
14968W        W79953  41.928  24.506   1.891
14969W        W79954  20.128  16.900  14.878
14970W        W79955  19.066  25.861  14.865
14971W        W79956  26.182  25.131   3.153
14972W        W79957  27.904  33.499   0.872
14973W        W79958  24.045  22.990   3.739
14974W        W79959  31.798  21.008  12.419
14975W        W79960  11.631  16.756   3.707
14976W        W79961  38.102   2.267   2.895
14977W        W79962  37.907  33.566  14.394
14978W        W79963  42.813  40.691   5.030
14979W        W79964  13.041  27.413  11.590
14980W        W79965  25.674   2.209  14.708
14981W        W79966   0.257  41.745  13.792
14982W        W79967  23.197  38.849  10.626
14983W        W79968  19.730  26.572   1.408
14984W        W79969  26.264  44.891   0.783
14985W        W79970  36.512  11.528  13.512
14986W        W79971  15.669  27.429   3.023
14987W        W79972  36.596  31.557   2.822
14988W        W79973   2.160   0.052  13.340
14989W        W79974  24.894  22.762  12.463
14990W        W79975   8.701  17.289   4.724
14991W        W79976  38.840   5.205  13.483
14992W        W79977  14.091  14.979  11.864
14993W        W79978   3.731  24.727   3.403
14994W        W79979  12.317   1.912  13.822
14995W        W79980  26.926  27.534   0.270
14996W        W79981  31.746  17.886  11.636
14997W        W79982  36.405  36.182   2.131
14998W        W79983  26.097  22.751   2.770
14999W        W79984   0.560  13.070  12.973
15000W        W79985  25.874  43.489   4.288
15001W        W79986  36.802  41.541   3.909
15002W        W79987  18.372  23.731  12.909
15003W        W79988  24.541   9.271  11.079
15004W        W79989   8.700  36.851   2.845
15005W        W79990  38.309  39.204  14.270
15006W        W79991   5.777   9.888   0.675
15007W        W79992  14.552   9.360  12.391
15008W        W79993  24.427  29.551   0.215
15009W        W79994   4.914   1.493   0.543
15010W        W79995   8.146  30.196   1.433
15011W        W79996  12.284  23.620   4.568
15012W        W79997  38.305  30.750   0.872
15013W        W79998  31.949  20.150  13.479
15014W        W79999  23.004   6.790  12.127
15015W        W80000  27.391  41.972  10.825
15016W        W80001  20.535  43.858  11.587
15017W        W80002  18.285  22.817   2.410
15018W        W80003   4.505  44.178   3.183
15019W        W80004  44.432  34.458  13.869
15020W        W80005   3.782  44.453  12.171
15021W        W80006  11.317  35.026  14.803
15022W        W80007   0.800  38.974  13.513
15023W        W80008  20.287  15.805   2.330
15024W        W80009   1.758  31.464  14.475
15025W        W80010   0.791  18.320   4.569
15026W        W80011  37.295  20.361  13.850
15027W        W80012  43.926  31.390   3.397
15028W        W80013  32.118  13.316  14.097
15029W        W80014   6.678  11.625  13.310
15030W        W80015  40.814  17.102  12.642
15031W        W80016  12.343  24.709   1.909
15032W        W80017  32.445  14.661  10.182
15033W        W80018  12.070  14.756  13.053
15034W        W80019  30.191  39.865  13.877
15035W        W80020  33.917  39.625  13.839
15036W        W80021   3.804   9.770  13.127
15037W        W80022  18.101  18.973  12.273
15038W        W80023   8.454  39.291   4.022
15039W        W80024  43.027   5.251   4.234
15040W        W80025  17.484  15.790  12.698
15041W        W80026   9.994  27.792  12.090
15042W        W80027  33.389   3.459   3.703
15043W        W80028  29.001  22.538  11.606
15044W        W80029   6.163  41.506   2.599
15045W        W80030  39.746  44.314   3.732
15046W        W80031  10.131  32.735   4.031
15047W        W80032  25.474  13.794  10.809
15048W        W80033  15.806  28.937  14.016
15049W        W80034  41.742  17.067  12.355
15050W        W80035  24.478   2.037  13.825
15051W        W80036  20.607  21.757   2.302
15052W        W80037   7.286  20.963   1.215
15053W        W80038  12.460   7.428   0.760
15054W        W80039  12.596  35.062   3.780
15055W        W80040   7.333  15.662  12.170
15056W        W80041  43.520  18.640   2.184
15057W        W80042  13.053  24.025   1.884
15058W        W80043  17.064  32.496   2.791
15059W        W80044   0.390  12.683  13.306
15060W        W80045  19.840  29.674  12.581
15061W        W80046  18.657  10.394  13.834
15062W        W80047  34.123  31.580  11.930
15063W        W80048  21.783  36.017   4.464
15064W        W80049  26.272  39.066  12.470
15065W        W80050  39.105   3.854  13.161
15066W        W80051  38.567  43.334  14.918
15067W        W80052  16.228   3.902  11.498
15068W        W80053  23.203  15.340  10.687
15069W        W80054  18.770  17.729   0.528
15070W        W80055  16.905   9.896   4.483
15071W        W80056  37.880   3.047   1.130
15072W        W80057  19.040  18.680  14.867
15073W        W80058  16.591   3.033   1.160
15074W        W80059   9.355  14.097   0.828
15075W        W80060  27.460   0.376  14.874
15076W        W80061   2.766  25.254   4.593
15077W        W80062  38.102  12.663  13.260
15078W        W80063   4.770  37.431   1.188
15079W        W80064  19.663   3.130  12.486
15080W        W80065   2.527   5.991  13.086
15081W        W80066  13.857  10.926   0.815
15082W        W80067  38.460   6.863   2.226
15083W        W80068  29.082   5.832  10.820
15084W        W80069  26.467  36.821   0.828
15085W        W80070  17.182   5.717   3.155
15086W        W80071   7.144   0.449  12.040
15087W        W80072  34.039  44.488   2.153
15088W        W80073   9.348  40.411  10.699
15089W        W80074  17.443  12.291   0.231
15090W        W80075  40.482   9.734  14.716
15091W        W80076  39.448  11.804   0.711
15092W        W80077  29.827  38.389   2.434
15093W        W80078  34.053  39.363  14.280
15094W        W80079  29.604  15.935   0.659
15095W        W80080   2.797   2.265   0.375
15096W        W80081  17.908  26.707  13.148
15097W        W80082  10.300  29.378  10.739
15098W        W80083  31.568   6.112  11.944
15099W        W80084  37.516  10.295   1.835
15100W        W80085  21.510  21.191  14.531
15101W        W80086  25.024  26.938   2.610
15102W        W80087  14.926  24.893   3.304
15103W        W80088   2.881  16.734  13.982
15104W        W80089  10.163   1.532   2.242
15105W        W80090   1.327  44.023   4.151
15106W        W80091   4.204   1.908  11.664
15107W        W80092  21.905   5.288  10.961
15108W        W80093  31.356   9.156  14.941
15109W        W80094  12.654  37.802   4.137
15110W        W80095   7.347  27.645  13.492
15111W        W80096  26.120  35.458   0.398
15112W        W80097   0.262  22.231   4.604
15113W        W80098  17.076   4.889  11.647
15114W        W80099  23.538  29.689   4.848
15115W        W80100  22.028  26.019  13.406
15116W        W80101  22.419  34.604  13.721
15117W        W80102  39.798  22.260   3.681
15118W        W80103   2.340   3.727   4.455
15119W        W80104  20.236   8.611  14.005
15120W        W80105  34.540   7.921   3.768
15121W        W80106  23.652  21.190   3.374
15122W        W80107  40.847  15.856   4.107
15123W        W80108  11.878  30.983   3.476
15124W        W80109  28.880  23.075  14.848
15125W        W80110   8.770  28.890  10.775
15126W        W80111  43.443  31.713  13.030
15127W        W80112   9.324  21.911  11.490
15128W        W80113  27.665  24.701  13.424
15129W        W80114  37.534  27.131   0.185
15130W        W80115  23.919  17.935  12.373
15131W        W80116  21.783  21.990   1.894
15132W        W80117  19.995  12.938   0.448
15133W        W80118  10.406  19.823  11.161
15134W        W80119  42.428  19.343  11.165
15135W        W80120  27.564  35.812   0.273
15136W        W80121  36.276  17.199   4.911
15137W        W80122   3.944  35.404   2.338
15138W        W80123  30.043   0.210  13.508
15139W        W80124  12.151  33.922   4.637
15140W        W80125  14.389  12.767   0.960
15141W        W80126  42.292   5.360   2.943
15142W        W80127  38.453  17.171   0.009
15143W        W80128  21.280  32.698  13.249
15144W        W80129  12.632  21.144  10.593
15145W        W80130  25.491  24.022  10.856
15146W        W80131  40.042  41.290  13.165
15147W        W80132  33.635   4.395  13.921
15148W        W80133   5.349  11.641   4.553
15149W        W80134  22.181   0.480   2.037
15150W        W80135  36.927  20.436   3.116
15151W        W80136  10.234  44.847   2.064
15152W        W80137   6.409  23.033  14.373
15153W        W80138  13.331  43.764  14.854
15154W        W80139  44.882   4.621   3.469
15155W        W80140  32.557  29.901  10.539
15156W        W80141  20.828  31.992   1.871
15157W        W80142  31.026  11.936   1.129
15158W        W80143  41.971  23.088  12.316
15159W        W80144  26.945  38.438  14.002
15160W        W80145   8.629  18.581   4.145
15161W        W80146  34.149   4.407  13.875
15162W        W80147   3.341  33.772   3.777
15163W        W80148  42.971  35.600   1.307
15164W        W80149  23.592   8.871   3.208
15165W        W80150   8.195   2.753   5.148
15166W        W80151  37.362   5.180  12.021
15167W        W80152  30.515  18.099   2.976
15168W        W80153  41.537  20.333  11.454
15169W        W80154   5.809  16.255  13.432
15170W        W80155  18.185  32.601   1.288
15171W        W80156  27.391   9.716   0.864
15172W        W80157  18.728   3.411  12.603
15173W        W80158  20.176   5.200   9.901
15174W        W80159   1.525  13.523   3.131
15175W        W80160  35.645  32.005  12.557
15176W        W80161  19.551  22.227   5.378
15177W        W80162  11.092   5.428   0.868
15178W        W80163  36.554  26.767  13.905
15179W        W80164  39.069  40.494  12.112
15180W        W80165  35.569   2.854   4.951
15181W        W80166  25.283  24.534  12.080
15182W        W80167  15.799   3.482  14.856
15183W        W80168  31.601  12.448   3.289
15184W        W80169  18.546  35.432   4.368
15185W        W80170   9.171  34.015   2.136
15186W        W80171  27.736   4.755   4.194
15187W        W80172  11.561  23.466   3.352
15188W        W80173  25.409  37.300   4.644
15189W        W80174  23.274  42.950  12.895
15190W        W80175  34.568  16.032  10.746
15191W        W80176  27.034  11.838  14.307
15192W        W80177  15.996  16.694   4.138
15193W        W80178  39.061  26.192   3.099
15194W        W80179   4.158  35.814  12.998
15195W        W80180   3.130   8.951  13.555
15196W        W80181  37.591  22.057   3.865
15197W        W80182  21.265  32.056  11.974
15198W        W80183  33.916   3.260  13.584
15199W        W80184  13.162   7.282   2.897
15200W        W80185  41.320  35.775   3.154
15201W        W80186  12.291  44.778  10.758
15202W        W80187  35.284  33.775  12.094
15203W        W80188  33.999   8.543   4.193
15204W        W80189  30.990  11.868   4.536
15205W        W80190  10.627  33.296   0.266
15206W        W80191  17.864  42.690  14.366
15207W        W80192  19.145  12.340   0.402
15208W        W80193  11.340  26.139   2.744
15209W        W80194  30.597   6.655  12.027
15210W        W80195  30.075   4.610   4.196
15211W        W80196  42.495  36.823   4.954
15212W        W80197   2.664  15.027   4.564
15213W        W80198  34.883  25.756   4.127
15214W        W80199  42.238   8.514   4.193
15215W        W80200  13.384   7.705  12.025
15216W        W80201   7.192   4.938   1.717
15217W        W80202  28.072  35.903   3.312
15218W        W80203  34.082   1.389  12.875
15219W        W80204  15.454  11.535  11.631
15220W        W80205  10.594  31.337  13.599
15221W        W80206  25.544  40.594  12.681
15222W        W80207  41.924   8.817   5.208
15223W        W80208  24.524  18.817  14.360
15224W        W80209  20.587  23.195   2.687
15225W        W80210  13.372   3.450  10.351
15226W        W80211  37.859   3.651  14.652
15227W        W80212   9.924   4.921   1.408
15228W        W80213   3.672  44.257  13.212
15229W        W80214  19.780  20.697   4.796
15230W        W80215  43.426   8.503  13.853
15231W        W80216  27.474  22.632   3.931
15232W        W80217  44.456  22.734   4.606
15233W        W80218  28.427  13.739  11.570
15234W        W80219  29.907  30.866   1.872
15235W        W80220   2.337  14.852  12.805
15236W        W80221  25.022  36.555  10.780
15237W        W80222  12.986  17.966  10.749
15238W        W80223   7.546  44.066  13.439
15239W        W80224   2.548   4.095   2.248
15240W        W80225  29.583   6.875  10.309
15241W        W80226  21.172   3.743  12.351
15242W        W80227  42.871  28.915  10.710
15243W        W80228  33.810  20.224  11.645
15244W        W80229  17.660  15.762   4.126
15245W        W80230  22.671  35.935  13.987
15246W        W80231  38.781  22.799  14.897
15247W        W80232  41.006  39.817   2.255
15248W        W80233  16.345  31.051   4.888
15249W        W80234   0.946  43.007  14.547
15250W        W80235  22.790  30.767  11.447
15251W        W80236  33.885  19.500  10.437
15252W        W80237  25.101  44.050   0.400
15253W        W80238   3.979  31.348  11.057
15254W        W80239  19.431  42.304  11.715
15255W        W80240  21.254  27.495   5.127
15256W        W80241  36.938   0.153  11.592
15257W        W80242  27.182  24.539  13.517
15258W        W80243  27.663  21.469   4.231
15259W        W80244  40.381   3.749   0.557
15260W        W80245   1.302  34.266   0.462
15261W        W80246   6.947  41.792   0.769
15262W        W80247  33.381  36.033   0.395
15263W        W80248   9.698  10.599  14.403
15264W        W80249  23.865   0.169  10.627
15265W        W80250  14.300  40.117   2.762
15266W        W80251  25.878  38.211  10.908
15267W        W80252   3.935  36.828   4.843
15268W        W80253  20.115  10.133  13.027
15269W        W80254   3.876  36.853  14.108
15270W        W80255  44.252   0.962   1.126
15271W        W80256  23.636  41.376  12.563
15272W        W80257   9.436  31.237   5.000
15273W        W80258  17.695  41.503  11.875
15274W        W80259  13.068  39.773   0.749
15275W        W80260  40.411  33.094   4.049
15276W        W80261   5.316  43.351  14.450
15277W        W80262   3.958  34.158   1.631
15278W        W80263   3.218   3.994  14.926
15279W        W80264  23.627  34.638  12.177
15280W        W80265  35.208  43.006  11.141
15281W        W80266  33.149  34.566  14.412
15282W        W80267   8.343  42.383   0.172
15283W        W80268  18.537  41.881  13.410
15284W        W80269  14.346  14.506  13.465
15285W        W80270  23.268  43.554   0.888
15286W        W80271  38.582  28.081   1.846
15287W        W80272  10.260  14.722  14.819
15288W        W80273  14.850  22.536   1.930
15289W        W80274  28.250  29.808  14.783
15290W        W80275  29.599  42.877   3.226
15291W        W80276  30.954   3.078   5.484
15292W        W80277  35.612   4.879   3.964
15293W        W80278  41.783  25.539   2.714
15294W        W80279  42.931  36.518  10.313
15295W        W80280   9.421   1.803   4.661
15296W        W80281   5.860  23.013  11.556
15297W        W80282  10.808  20.267  14.901
15298W        W80283   5.120  15.829   1.294
15299W        W80284  12.164  35.336   3.670
15300W        W80285  24.747  29.345  14.329
15301W        W80286  38.103  14.127   3.539
15302W        W80287   7.385  29.491  13.964
15303W        W80288   2.107   4.970   3.663
15304W        W80289  22.524  36.916   4.239
15305W        W80290   3.824  38.840  14.324
15306W        W80291  32.630  32.952  13.306
15307W        W80292   4.862  26.475   4.377
15308W        W80293  33.598  15.079  10.651
15309W        W80294   1.955  44.867   4.517
15310W        W80295  19.572   3.340   1.882
15311W        W80296  32.117  34.292   3.198
15312W        W80297  27.013   5.265  11.679
15313W        W80298  30.451  22.048  13.065
15314W        W80299  25.589  15.134   1.867
15315W        W80300  22.568  24.639   0.173
15316W        W80301  27.853   6.219  13.154
15317W        W80302  27.386  42.543   0.447
15318W        W80303  27.564  21.013   2.875
15319W        W80304  21.892  34.336   1.471
15320W        W80305   1.478  32.127  14.220
15321W        W80306  17.488  19.100  11.651
15322W        W80307   2.442  18.634   0.271
15323W        W80308  12.771  43.345   4.138
15324W        W80309  14.448  30.951   1.704
15325W        W80310  39.913   1.328   0.781
15326W        W80311  26.544  20.979  13.947
15327W        W80312  44.892  25.484   1.372
15328W        W80313   3.882  30.441  13.268
15329W        W80314  39.941  29.604  11.583
15330W        W80315  23.568  30.663   2.793
15331W        W80316   6.652  39.669   1.958
15332W        W80317  30.441   1.305   1.860
15333W        W80318   5.791  34.852   3.201
15334W        W80319  24.435  22.926  12.206
15335W        W80320  18.867   8.906  12.485
15336W        W80321  23.081  12.813   0.001
15337W        W80322   3.139  42.840  12.151
15338W        W80323  26.463  24.521   0.246
15339W        W80324  22.723   9.294  14.402
15340W        W80325  31.704   5.737  14.707
15341W        W80326  24.005  20.046   2.700
15342W        W80327  27.537  36.326   1.216
15343W        W80328  32.602  27.723  13.349
15344W        W80329  23.828  18.283   5.209
15345W        W80330   0.807   6.394   3.194
15346W        W80331  10.339  15.290  10.188
15347W        W80332  16.903  33.432  12.510
15348W        W80333  38.567   2.565   3.735
15349W        W80334  36.432  37.123  13.570
15350W        W80335  20.632  31.035   1.215
15351W        W80336  39.066  20.071  13.564
15352W        W80337  18.100  34.924  14.561
15353W        W80338  30.192  39.529   1.778
15354W        W80339  16.848  18.597  11.868
15355W        W80340  31.436  14.629  11.268
15356W        W80341  27.426  40.694   3.644
15357W        W80342  28.566  23.011  12.647
15358W        W80343  20.032  30.424   2.579
15359W        W80344  18.049   9.716  10.322
15360W        W80345  10.136  10.635   2.721
15361W        W80346  22.687  44.465   2.648
15362W        W80347  43.046  17.723   0.904
15363W        W80348  29.720  23.141   0.361
15364W        W80349  43.394  28.616  14.389
15365W        W80350  12.563   4.285   2.757
15366W        W80351   0.161  16.062  14.045
15367W        W80352  25.049  41.430  13.156
15368W        W80353  32.633  23.653  11.080
15369W        W80354   0.099  18.552  12.246
15370W        W80355  42.855  21.638  12.318
15371W        W80356   9.592  22.803  13.277
15372W        W80357  18.639  18.090  14.311
15373W        W80358  39.452  10.418   3.031
15374W        W80359   1.240   2.967  12.005
15375W        W80360   2.049   9.852   4.790
15376W        W80361  13.466  15.200   1.959
15377W        W80362  16.688  21.973   4.162
15378W        W80363  36.502  39.037   1.130
15379W        W80364   8.715  34.072  12.009
15380W        W80365  36.952   0.457  14.949
15381W        W80366   3.122  28.561  14.825
15382W        W80367  29.565  18.517   3.415
15383W        W80368  22.020   7.221  14.872
15384W        W80369  11.206  42.763   1.434
15385W        W80370  39.939  39.393   0.775
15386W        W80371  12.332  23.207  14.799
15387W        W80372  38.874  19.172  13.752
15388W        W80373  11.168  15.028  13.873
15389W        W80374  39.349   8.933  11.773
15390W        W80375  38.237  33.950   3.140
15391W        W80376  36.494  41.533   0.074
15392W        W80377   2.297  35.340  13.346
15393W        W80378  39.866  39.846   4.836
15394W        W80379  31.447  41.748  13.892
15395W        W80380  42.573  38.086   0.031
15396W        W80381  14.436  12.449  11.243
15397W        W80382  17.536   4.236   3.973
15398W        W80383  21.585  18.498   2.626
15399W        W80384  29.824   1.615   3.744
15400W        W80385   4.827  17.811  13.468
15401W        W80386  28.523  28.410  14.178
15402W        W80387  26.794  18.371   4.747
15403W        W80388  28.982  29.771   1.867
15404W        W80389  22.807   6.767  12.965
15405W        W80390  32.522  26.629  14.814
15406W        W80391  35.198  16.699  14.906
15407W        W80392   7.990  35.587  13.914
15408W        W80393  28.581   2.666   1.619
15409W        W80394   0.062  21.029   2.795
15410W        W80395  41.770  24.412  14.345
15411W        W80396  36.845  19.202   0.905
15412W        W80397  35.023  19.185   3.366
15413W        W80398  40.819  28.067  13.132
15414W        W80399  37.570   8.302  13.908
15415W        W80400  31.116  24.900   1.656
15416W        W80401  36.508   4.510   0.438
15417W        W80402  44.806  42.312   4.309
15418W        W80403  27.713  30.523   2.931
15419W        W80404  14.921  23.347   2.478
15420W        W80405  30.516  30.627   4.148
15421W        W80406  33.904  24.522  12.926
15422W        W80407  22.896  24.741   1.648
15423W        W80408  13.765  44.885  12.600
15424W        W80409  41.328  25.836   3.429
15425W        W80410  35.826  10.664  14.337
15426W        W80411  19.732  21.565   3.405
15427W        W80412  15.078   5.696   0.895
15428W        W80413  19.218  39.482   0.764
15429W        W80414  20.002  40.059  13.540
15430W        W80415  25.981  39.780   2.954
15431W        W80416   9.709   0.827  11.488
15432W        W80417   0.683  21.766  12.327
15433W        W80418   6.200  17.164  10.667
15434W        W80419  17.691  28.520   3.295
15435W        W80420  40.550  39.790  14.522
15436W        W80421   5.800  41.480   0.290
15437W        W80422  10.835   8.886   2.857
15438W        W80423   2.972  43.242  13.449
15439W        W80424  41.372  17.853   1.859
15440W        W80425  16.558  30.521   2.824
15441W        W80426   7.035  19.815  12.201
15442W        W80427   7.679  12.997  11.190
15443W        W80428   8.217  24.676  11.211
15444W        W80429  28.047  41.667   2.305
15445W        W80430  20.041  31.847   9.871
15446W        W80431  17.788  33.694  12.568
15447W        W80432  20.001  20.549  11.581
15448W        W80433   0.441  14.060   0.001
15449W        W80434   3.704  36.546   3.114
15450W        W80435  10.401  26.095   2.564
15451W        W80436  11.466  34.357  14.398
15452W        W80437   3.379  32.930  10.338
15453W        W80438   8.382   8.122   3.869
15454W        W80439  12.239  21.680  14.965
15455W        W80440   8.421  27.660  14.992
15456W        W80441  38.300   6.315  10.797
15457W        W80442  23.205  13.327   0.348
15458W        W80443  12.922  30.957  14.208
15459W        W80444  14.150  23.025  11.964
15460W        W80445   7.858  41.291   4.280
15461W        W80446  25.566  13.524   1.742
15462W        W80447  15.072  23.023   3.353
15463W        W80448   7.318  24.244   0.326
15464W        W80449  19.799  10.747   3.563
15465W        W80450  36.226  40.930  12.059
15466W        W80451  41.442   2.339  12.976
15467W        W80452   7.903  35.007   1.259
15468W        W80453  39.325  43.056  10.746
15469W        W80454  15.107   2.338  14.013
15470W        W80455   5.997   3.400   0.404
15471W        W80456  35.009  31.662  14.797
15472W        W80457  36.109  38.033   1.881
15473W        W80458  13.543  12.149  13.941
15474W        W80459  21.154  10.702   4.784
15475W        W80460  13.800  20.064  14.304
15476W        W80461  37.865  38.808   3.677
15477W        W80462  35.166   1.808   0.164
15478W        W80463  35.575  23.296   2.389
15479W        W80464   3.338  11.398  14.368
15480W        W80465  34.904   5.395   3.333
15481W        W80466  19.293   9.685   2.269
15482W        W80467  10.642  26.004  11.083
15483W        W80468   4.472   4.305  11.931
15484W        W80469  15.003  20.861  11.174
15485W        W80470  32.958  22.239   1.008
15486W        W80471  13.345   9.748  12.927
15487W        W80472  31.036  29.381   3.760
15488W        W80473  38.086  34.047  14.241
15489W        W80474  42.266  30.181  13.901
15490W        W80475  42.093   5.534  14.895
15491W        W80476  27.518  36.891  10.689
15492W        W80477   7.086  30.026   3.146
15493W        W80478  31.419   7.922   4.616
15494W        W80479   6.837  11.885   3.155
15495W        W80480  42.372   0.534  11.326
15496W        W80481  19.225  10.691   3.338
15497W        W80482  39.903   3.377   2.742
15498W        W80483  34.705  29.965  14.292
15499W        W80484  10.326  21.136  13.315
15500W        W80485  36.584  34.632   4.818
15501W        W80486  35.750  31.111   3.749
15502W        W80487  33.440   2.370   0.402
15503W        W80488  34.310  10.618   0.745
15504W        W80489  17.319  23.868   1.707
15505W        W80490  13.152  23.296  10.775
15506W        W80491  14.314  11.404   3.806
15507W        W80492  19.980   9.414   0.906
15508W        W80493  31.947   4.730  14.406
15509W        W80494  10.911  19.615   3.747
15510W        W80495  14.694  17.184   0.933
15511W        W80496   0.409   2.236   0.692
15512W        W80497  38.958  16.845   4.535
15513W        W80498  22.328  32.478   4.855
15514W        W80499  25.045  37.108  10.821
15515W        W80500  19.823   1.842  11.623
15516W        W80501   7.846   1.697   1.451
15517W        W80502  11.111  10.616  11.404
15518W        W80503  38.031  14.650  12.389
15519W        W80504   7.791  26.956   1.396
15520W        W80505  44.332  33.498   1.663
15521W        W80506   3.071  14.052  11.953
15522W        W80507  23.788  39.016   2.299
15523W        W80508  24.112  25.303   4.165
15524W        W80509   1.420  22.612   4.570
15525W        W80510  38.085  14.556  11.013
15526W        W80511  31.889  16.120  11.209
15527W        W80512  35.320  38.018   0.474
15528W        W80513   1.227  16.705   1.894
15529W        W80514   5.879  15.264  13.421
15530W        W80515   9.802   6.841  14.789
15531W        W80516  35.594  28.516  12.911
15532W        W80517  17.640   1.552   3.749
15533W        W80518  30.896  21.741   2.889
15534W        W80519  14.266  42.357  13.661
15535W        W80520  27.877   0.271  11.158
15536W        W80521  18.724  42.528  14.954
15537W        W80522   4.651  41.684   0.340
15538W        W80523  19.056  41.693  14.529
15539W        W80524   5.453   5.873   0.020
15540W        W80525  18.088  38.540  12.969
15541W        W80526  16.590  22.635  10.733
15542W        W80527  15.662   0.240  13.544
15543W        W80528  40.052  42.313  13.010
15544W        W80529  38.128  38.877   2.753
15545W        W80530  15.633  38.484   4.565
15546W        W80531  11.824   8.353  14.931
15547W        W80532  41.942   2.602  12.114
15548W        W80533  19.728  41.015   4.231
15549W        W80534  35.017  32.149  14.975
15550W        W80535   4.897  40.469   4.562
15551W        W80536  13.142   4.273   1.918
15552W        W80537  31.088  15.566  13.050
15553W        W80538  23.888   3.984   2.710
15554W        W80539  21.062  28.502   3.827
15555W        W80540   1.299   7.852  13.866
15556W        W80541  28.450  31.501  13.329
15557W        W80542   8.341  14.552  12.627
15558W        W80543  17.561  31.688   3.608
15559W        W80544   2.582  15.707   3.251
15560W        W80545  39.615   8.497   2.557
15561W        W80546  22.965  18.516   2.898
15562W        W80547  35.957  41.133  11.666
15563W        W80548  44.444   6.999   2.286
15564W        W80549  37.336  35.537   5.055
15565W        W80550  25.099   2.976   2.106
15566W        W80551  43.521   8.691   2.375
15567W        W80552  38.298   8.869  11.676
15568W        W80553  14.615  17.547   1.833
15569W        W80554   5.730  33.581  11.017
15570W        W80555   0.270   4.368  12.062
15571W        W80556  31.931  20.185  14.027
15572W        W80557  26.581  39.583  11.539
15573W        W80558   9.750   8.117  11.622
15574W        W80559   5.834  42.770  12.669
15575W        W80560  34.836  12.723  13.339
15576W        W80561  25.441  14.862   2.701
15577W        W80562   5.305  39.919   3.252
15578W        W80563  42.929  35.488  14.495
15579W        W80564  27.942   2.759  12.568
15580W        W80565  23.772  44.565  11.284
15581W        W80566  42.527  31.152   2.296
15582W        W80567  34.174  38.800   1.971
15583W        W80568   3.650  39.497  13.803
15584W        W80569  36.097  34.822   3.075
15585W        W80570  15.094   1.781   2.299
15586W        W80571  43.666  43.479   3.706
15587W        W80572  43.693  22.898   4.981
15588W        W80573   9.821  14.387   0.349
15589W        W80574  38.433  23.476  14.504
15590W        W80575  34.619  39.993   4.365
15591W        W80576  34.959   9.449  13.496
15592W        W80577  16.844  10.291  14.948
15593W        W80578   2.334  18.594   4.438
15594W        W80579  14.342   3.145  14.964
15595W        W80580  35.681   3.043  12.053
15596W        W80581  16.666  14.904   4.324
15597W        W80582   6.455  29.134   0.713
15598W        W80583  10.238   7.671   0.378
15599W        W80584   6.695  20.615  12.009
15600W        W80585   9.725  24.937  13.655
15601W        W80586   7.440  40.447   1.646
15602W        W80587  40.901  33.408   1.724
15603W        W80588  38.070  39.871   1.619
15604W        W80589  11.094  21.657  13.845
15605W        W80590  19.894  17.924  14.905
15606W        W80591  24.704  24.613  11.120
15607W        W80592  36.305  18.651  14.243
15608W        W80593  37.335  31.050   3.230
15609W        W80594   2.982  36.532   2.692
15610W        W80595  31.182  15.838   0.321
15611W        W80596  21.580  36.327   3.642
15612W        W80597  21.193  26.967   3.852
15613W        W80598  22.389  40.391  12.020
15614W        W80599  20.672   6.866  14.989
15615W        W80600  25.567  11.612   2.931
15616W        W80601  37.693  14.647   2.812
15617W        W80602   7.437  26.591   3.349
15618W        W80603  11.821  11.806  11.898
15619W        W80604  11.271   1.720   2.205
15620W        W80605  41.766  40.822   0.733
15621W        W80606  23.377   1.431   2.744
15622W        W80607  22.673  28.258   5.072
15623W        W80608  15.249  24.947   2.820
15624W        W80609  14.661  43.749   1.005
15625W        W80610  16.788  36.022   0.703
15626W        W80611  40.517   4.218   2.825
15627W        W80612  21.940   7.816   1.740
15628W        W80613   4.138   0.970  11.157
15629W        W80614   8.625  43.719  11.086
15630W        W80615  30.859  37.488   3.840
15631W        W80616  16.212   1.868  12.456
15632W        W80617  39.870  38.622   4.353
15633W        W80618  38.943  43.033   2.659
15634W        W80619  35.331  37.378  12.771
15635W        W80620  43.017  15.565   0.497
15636W        W80621  13.116  21.547  13.907
15637W        W80622  36.447   9.954  11.861
15638W        W80623   2.876   1.687   2.539
15639W        W80624  29.615  11.177   3.691
15640W        W80625   6.647  11.865   0.216
15641W        W80626  18.579  33.526   3.765
15642W        W80627  32.418  42.173  11.986
15643W        W80628  37.053  15.721  12.540
15644W        W80629  13.611  43.366   1.733
15645W        W80630   6.900  24.094   2.742
15646W        W80631  31.152  13.739  13.481
15647W        W80632  27.116  22.154  13.876
15648W        W80633  40.371   5.983  14.941
15649W        W80634  43.051  32.603  10.710
15650W        W80635  20.135  24.632  12.671
15651W        W80636  24.626  19.354  12.462
15652W        W80637  18.256  17.566   0.435
15653W        W80638  36.247  15.591   2.926
15654W        W80639  42.773  12.287   0.673
15655W        W80640  44.354   5.193  14.394
15656W        W80641  13.772  42.821   4.408
15657W        W80642  31.621   9.892   1.439
15658W        W80643  40.579  18.823   4.828
15659W        W80644   7.682   6.346  12.137
15660W        W80645  23.165  30.503  14.498
15661W        W80646  12.773   2.308  11.514
15662W        W80647   8.810  39.912   1.278
15663W        W80648   1.319  13.320  11.345
15664W        W80649  31.319  23.717   0.685
15665W        W80650  33.308  15.721  11.069
15666W        W80651  20.193  26.888  11.032
15667W        W80652  24.529   5.682   1.385
15668W        W80653  44.540   6.681   0.914
15669W        W80654  35.053   2.393  13.057
15670W        W80655   3.501  30.047   4.160
15671W        W80656  12.115  31.536   0.435
15672W        W80657  23.088   1.719   0.969
15673W        W80658  31.531  32.606  11.156
15674W        W80659  31.227  12.347   0.500
15675W        W80660  22.559  33.096   0.734
15676W        W80661  19.755  23.206   2.540
15677W        W80662  25.576  18.158  14.561
15678W        W80663   2.716  42.232   1.388
15679W        W80664  29.508   4.664   3.129
15680W        W80665  39.326   8.328   4.628
15681W        W80666  35.892  10.646   2.372
15682W        W80667  43.801  17.252  11.882
15683W        W80668  15.761   9.730  14.322
15684W        W80669  10.601  27.170   4.006
15685W        W80670  31.082  18.750   1.915
15686W        W80671  19.701  26.177   2.665
15687W        W80672  23.031  17.217   2.664
15688W        W80673  26.033  19.376   2.483
15689W        W80674  39.432  22.630   9.702
15690W        W80675  33.691  39.850  10.904
15691W        W80676  19.294  43.552   1.188
15692W        W80677  38.375  10.759  12.609
15693W        W80678   2.852  39.450   3.098
15694W        W80679   6.537   2.878   4.062
15695W        W80680  30.946   6.821   4.027
15696W        W80681  21.515  34.593   2.784
15697W        W80682  28.824   1.316   3.689
15698W        W80683   8.642  37.877  10.595
15699W        W80684  29.320   0.922  13.076
15700W        W80685  35.073  28.752   1.328
15701W        W80686  39.574  29.982  11.446
15702W        W80687   6.733  22.816  10.699
15703W        W80688   7.325   9.279  13.458
15704W        W80689   6.170   8.962   5.035
15705W        W80690   3.366  21.774   2.657
15706W        W80691  36.670  26.694   1.254
15707W        W80692  26.627   5.847  11.958
15708W        W80693  34.517  40.287  14.366
15709W        W80694  19.748  32.957  11.613
15710W        W80695  14.070  13.136  13.358
15711W        W80696  11.702  37.287   4.486
15712W        W80697  32.970  12.871  10.755
15713W        W80698   4.849  31.054   3.759
15714W        W80699  43.270  16.036   0.861
15715W        W80700  23.584  11.606  12.446
15716W        W80701   7.031  40.406  14.264
15717W        W80702   3.297  16.291   1.916
15718W        W80703  23.946  23.030   2.090
15719W        W80704  43.374  38.350   3.812
15720W        W80705  22.669  38.446   0.461
15721W        W80706  10.038  23.674  13.130
15722W        W80707   7.236  18.557   4.595
15723W        W80708  41.183   0.276   3.930
15724W        W80709  30.680  10.406  11.165
15725W        W80710  41.017   3.790   2.443
15726W        W80711  30.796  37.114  13.388
15727W        W80712  10.477  21.060  14.272
15728W        W80713  21.362  43.718  12.684
15729W        W80714  22.195  21.366   3.863
15730W        W80715  10.385   6.717   2.759
15731W        W80716  16.732   8.442   4.063
15732W        W80717  38.877  40.287  13.832
15733W        W80718  11.890  35.860   1.843
15734W        W80719  26.167   3.332   2.670
15735W        W80720  29.114   3.547  14.697
15736W        W80721  26.781   8.438   0.490
15737W        W80722  43.848  10.098  13.466
15738W        W80723  19.688  20.192   1.279
15739W        W80724  38.540  17.787   1.286
15740W        W80725  41.874  37.613  10.315
15741W        W80726   2.938  20.505   2.855
15742W        W80727  43.036  14.190   0.855
15743W        W80728  39.517  19.005  11.988
15744W        W80729  36.972  22.135  13.662
15745W        W80730  15.306   6.250   0.284
15746W        W80731  23.011  28.902   1.115
15747W        W80732   1.914  43.807  13.048
15748W        W80733  31.077  32.493  14.712
15749W        W80734  39.663   9.803   1.322
15750W        W80735  11.418  15.119   4.054
15751W        W80736  40.422  13.536  14.438
15752W        W80737  33.399  37.147   3.960
15753W        W80738  20.885  29.489   4.919
15754W        W80739  29.960   5.578   4.756
15755W        W80740   4.894  11.920  12.482
15756W        W80741  41.474  31.835   2.577
15757W        W80742   0.293  30.611  11.418
15758W        W80743  14.899  35.044  13.211
15759W        W80744  40.843  44.693  12.557
15760W        W80745  33.620   0.331  11.050
15761W        W80746  40.792  19.709  14.206
15762W        W80747  35.851  14.524  13.100
15763W        W80748   9.609  43.334  12.962
15764W        W80749  18.285  35.863  11.664
15765W        W80750  37.543  18.440  14.907
15766W        W80751   3.742  16.208   2.176
15767W        W80752   5.170  23.124   1.145
15768W        W80753  12.135  26.215  11.175
15769W        W80754  29.713  28.943   3.597
15770W        W80755  12.706  36.577   4.709
15771W        W80756  27.290  41.585  11.558
15772W        W80757  18.153   9.801  14.925
15773W        W80758   9.039  28.741   3.539
15774W        W80759  18.556  12.411  11.070
15775W        W80760  28.239  17.091   2.697
15776W        W80761  39.991  38.852   0.326
15777W        W80762  15.558  38.241  12.966
15778W        W80763   7.682  30.778   0.314
15779W        W80764  41.628   5.123  12.558
15780W        W80765   2.760  26.501   1.839
15781W        W80766  26.629   1.030  12.462
15782W        W80767  30.038  30.648   0.979
15783W        W80768  23.609  30.485  13.984
15784W        W80769  44.363   7.654   1.190
15785W        W80770   5.130  30.335   4.790
15786W        W80771  13.205  34.196  12.449
15787W        W80772  15.340  33.215   2.345
15788W        W80773   7.388  10.152   1.351
15789W        W80774  13.580  41.475  13.916
15790W        W80775  35.008   1.071  14.210
15791W        W80776  31.101  17.524   3.358
15792W        W80777   7.840  35.959  11.165
15793W        W80778  28.938   2.192  14.867
15794W        W80779   4.168  10.224   4.527
15795W        W80780  12.947  10.299  11.219
15796W        W80781   0.086  30.868   4.915
15797W        W80782  12.106  16.564   4.540
15798W        W80783  30.140  18.314   0.821
15799W        W80784  31.194  16.835   2.130
15800W        W80785  15.404  25.730  14.350
15801W        W80786  14.368   2.180  12.831
15802W        W80787  19.679   4.414  11.508
15803W        W80788   4.669   4.468  14.841
15804W        W80789  44.819  10.244   0.372
15805W        W80790   7.108  13.952   0.838
15806W        W80791   9.593  12.716   3.499
15807W        W80792  20.559  39.372  12.672
15808W        W80793  17.802  44.475   2.957
15809W        W80794   6.563   4.319  12.278
15810W        W80795  22.272  28.038   1.447
15811W        W80796  32.103  23.162  13.948
15812W        W80797  30.311  28.928  11.720
15813W        W80798  42.730  27.995   3.269
15814W        W80799  17.255  16.084  12.338
15815W        W80800  36.933   6.753  12.396
15816W        W80801   1.887   9.739  12.935
15817W        W80802  42.885   9.712  10.782
15818W        W80803   0.966  38.382  13.944
15819W        W80804  38.925  27.511   4.438
15820W        W80805  12.449   3.713  12.222
15821W        W80806  28.504  36.001   3.632
15822W        W80807  35.922  11.064  13.499
15823W        W80808  35.638  40.236  14.371
15824W        W80809  31.789  11.858   4.131
15825W        W80810  21.261  29.489  14.198
15826W        W80811  20.957  27.311  14.050
15827W        W80812  32.023  31.641  11.142
15828W        W80813  23.682  16.190  11.051
15829W        W80814  43.299  38.866  11.145
15830W        W80815  27.205  33.368   0.409
15831W        W80816  42.529  44.249   3.378
15832W        W80817  35.612  44.418   2.773
15833W        W80818   8.936   8.903   4.351
15834W        W80819  29.180  11.682  10.923
15835W        W80820  35.133  41.084  12.061
15836W        W80821  25.449  29.112  12.977
15837W        W80822   8.707  36.948  12.541
15838W        W80823  20.326  14.864  12.943
15839W        W80824  38.296  40.388   1.423
15840W        W80825  16.331  42.956  12.374
15841W        W80826   8.966  31.582   3.598
15842W        W80827  33.331  41.510  14.077
15843W        W80828   6.029  10.612  14.477
15844W        W80829  39.848   5.335  14.111
15845W        W80830  34.019  17.827  12.957
15846W        W80831  21.695   2.389  13.957
15847W        W80832   9.420  36.564   3.417
15848W        W80833   3.617   1.061  12.951
15849W        W80834  15.120  27.418   2.337
15850W        W80835   8.354  38.973  11.871
15851W        W80836  37.362  32.851   2.775
15852W        W80837  30.011  34.341  12.207
15853W        W80838  18.569  26.622   4.391
15854W        W80839  44.485  22.521   0.437
15855W        W80840  18.378  39.902   0.803
15856W        W80841  38.377  11.364   2.677
15857W        W80842  40.963  34.518  10.978
15858W        W80843  24.933  32.886  14.330
15859W        W80844  36.582  33.456  13.806
15860W        W80845  36.503  38.850  14.922
15861W        W80846  36.063   5.178   2.748
15862W        W80847  25.213   7.386  14.003
15863W        W80848  37.769  13.224   3.202
15864W        W80849   1.341  31.890  11.253
15865W        W80850  37.636  13.823  11.075
15866W        W80851   6.960  32.924   3.408
15867W        W80852  32.979  19.109   2.276
15868W        W80853  36.035  22.212   2.614
15869W        W80854  27.936  12.546   4.539
15870W        W80855  31.951  10.263  11.869
15871W        W80856  40.601  37.092   3.256
15872W        W80857   8.650   6.888   0.227
15873W        W80858  33.095  35.497  14.433
15874W        W80859  43.986  39.719  10.298
15875W        W80860  40.423  18.417   3.010
15876W        W80861  30.572  29.180  11.325
15877W        W80862  31.087   4.162  12.985
15878W        W80863  19.480  19.283  14.531
15879W        W80864  37.748  29.026   3.162
15880W        W80865   0.445  31.099  11.583
15881W        W80866  11.785   6.834  13.725
15882W        W80867  15.782   2.883  11.161
15883W        W80868  26.665   4.635  12.487
15884W        W80869  43.894  22.320  11.716
15885W        W80870   3.815  14.595  11.947
15886W        W80871  43.807   7.554  13.919
15887W        W80872  37.860  15.715   4.533
15888W        W80873  17.269  12.224   2.918
15889W        W80874  19.714  15.076  12.375
15890W        W80875  26.684  31.408  12.949
15891W        W80876  35.104  26.380   4.642
15892W        W80877  25.975  37.240  14.746
15893W        W80878  17.787   2.140   1.405
15894W        W80879   9.146  30.468  12.109
15895W        W80880  27.452  33.625   4.121
15896W        W80881  22.659   2.021  11.686
15897W        W80882  29.869  43.389   4.250
15898W        W80883  31.230   5.380   3.882
15899W        W80884  28.640  39.570   1.737
15900W        W80885  16.203  34.155  13.523
15901W        W80886  39.586   9.466   4.029
15902W        W80887  25.963  13.841   0.220
15903W        W80888  19.028   7.730  11.339
15904W        W80889  41.472  18.649  13.738
15905W        W80890   8.352  15.366   2.415
15906W        W80891   0.348  19.990  14.020
15907W        W80892  33.342  36.332  13.822
15908W        W80893  38.354   9.194  14.867
15909W        W80894  38.790  14.822   4.024
15910W        W80895  17.393  35.073   4.547
15911W        W80896  44.584  18.343  14.467
15912W        W80897  11.051  20.520   3.555
15913W        W80898   6.404  10.203   2.961
15914W        W80899  43.362  30.950  12.506
15915W        W80900  26.515  20.153  14.479
15916W        W80901   3.354  40.923  11.369
15917W        W80902  28.588  10.491   3.682
15918W        W80903  29.357  32.039  11.480
15919W        W80904  25.488  21.227  10.260
15920W        W80905  21.239   7.924  14.509
15921W        W80906   2.355   6.954   4.573
15922W        W80907  11.874  35.882   4.610
15923W        W80908   5.702   7.373   4.069
15924W        W80909  20.268  43.208  10.999
15925W        W80910   2.649  24.430  11.419
15926W        W80911   5.165   6.267  11.399
15927W        W80912  31.014  30.886  12.578
15928W        W80913  14.058  34.511  13.881
15929W        W80914  22.599  44.272   3.434
15930W        W80915  13.779  12.204   4.998
15931W        W80916  40.011  16.382   4.443
15932W        W80917  17.125   7.629  14.718
15933W        W80918  42.459  43.378  10.718
15934W        W80919  11.898  37.025  10.412
15935W        W80920   0.385  21.981  11.415
15936W        W80921  37.868  29.572  10.794
15937W        W80922   1.299  32.610   2.200
15938W        W80923  40.602  43.870  12.066
15939W        W80924  13.392  31.934  11.136
15940W        W80925  10.700  13.790  12.027
15941W        W80926  19.874  27.858   0.925
15942W        W80927  44.070  14.318  10.762
15943W        W80928   3.733  40.074   4.892
15944W        W80929   5.477   7.398   3.595
15945W        W80930  33.378  19.599   4.553
15946W        W80931  20.769  42.340  14.772
15947W        W80932  42.446   4.804   3.472
15948W        W80933  44.196   7.595   4.859
15949W        W80934  41.464  34.373   4.089
15950W        W80935  11.341  43.964   1.954
15951W        W80936  16.398  25.145  14.007
15952W        W80937  12.319  44.342   2.341
15953W        W80938  13.299   2.749  13.654
15954W        W80939   4.848  22.479  10.469
15955W        W80940  36.550  39.334  10.700
15956W        W80941   0.052  18.515   3.261
15957W        W80942   2.603  28.048   3.226
15958W        W80943   1.412  35.475  13.912
15959W        W80944   6.209  38.800   2.771
15960W        W80945   9.954  36.969   4.647
15961W        W80946  28.468   7.174   2.391
15962W        W80947   8.423  23.139  12.838
15963W        W80948  20.440  43.487   3.657
15964W        W80949   1.161  36.017   0.819
15965W        W80950   7.183  20.023   3.045
15966W        W80951  13.543  28.168  14.111
15967W        W80952  22.930  26.662  12.847
15968W        W80953  18.746   5.786   0.689
15969W        W80954   9.905  15.257  11.168
15970W        W80955   4.316  16.516  10.525
15971W        W80956  36.707   9.301  12.178
15972W        W80957   3.509   1.503   4.563
15973W        W80958   1.147  24.692   2.760
15974W        W80959   2.367  10.700  11.133
15975W        W80960  28.730  44.163   1.754
15976W        W80961  31.960  21.584  11.651
15977W        W80962  16.756  23.225   3.602
15978W        W80963  13.575  19.251   0.265
15979W        W80964   4.954   1.887  14.365
15980W        W80965  41.891  30.017  14.947
15981W        W80966  43.586  31.145   0.468
15982W        W80967  33.020  37.008   4.627
15983W        W80968  16.754  20.257   3.371
15984W        W80969   6.392  29.096   3.848
15985W        W80970   2.203  20.139   2.883
15986W        W80971   2.977  41.726  11.802
15987W        W80972   3.389  20.618   3.328
15988W        W80973  14.803  35.967   9.684
15989W        W80974  21.945   0.874  13.331
15990W        W80975   6.392  29.945  12.145
15991W        W80976  10.020  39.306   3.918
15992W        W80977  29.610  42.323   4.481
15993W        W80978  20.723  17.622  14.093
15994W        W80979  34.324  40.161  13.486
15995W        W80980  24.210   0.170   4.265
15996W        W80981  42.727  21.994   0.761
15997W        W80982   7.058  39.250  14.930
15998W        W80983  11.585  24.726   4.245
15999W        W80984   1.208  19.570  10.740
16000W        W80985  21.901  31.138   2.939
16001W        W80986  15.621  16.338   4.132
16002W        W80987  38.891   9.301   3.431
16003W        W80988  13.779   5.472  12.882
16004W        W80989  31.454   5.898  11.336
16005W        W80990  30.417  14.485  14.361
16006W        W80991  21.296  18.617   1.183
16007W        W80992  42.914  40.482  12.860
16008W        W80993  23.590  20.109   1.436
16009W        W80994   8.963   2.096   4.547
16010W        W80995   9.640   4.082   3.659
16011W        W80996   2.234   2.499   2.422
16012W        W80997   5.852  18.423   2.619
16013W        W80998  37.000  27.501  13.036
16014W        W80999  19.964   0.515  14.366
16015W        W81000  26.417  39.056  10.688
16016W        W81001  21.904  37.628   4.197
16017W        W81002  41.801  35.328   1.860
16018W        W81003   2.072  40.208   2.363
16019W        W81004  19.244  37.888  11.104
16020W        W81005  10.710  15.646  12.378
16021W        W81006   3.393  39.871   3.033
16022W        W81007  33.981  27.911  13.899
16023W        W81008  15.067  24.040   3.586
16024W        W81009  26.095  43.451   2.174
16025W        W81010  37.317  27.483  12.619
16026W        W81011  22.028  15.269   1.972
16027W        W81012  35.187   3.254  10.125
16028W        W81013  16.269   6.735  10.308
16029W        W81014  22.196   6.341   1.296
16030W        W81015   6.393  37.964  11.153
16031W        W81016  37.404  10.766  13.385
16032W        W81017  32.115  42.102   2.666
16033W        W81018  34.394   2.816   0.512
16034W        W81019  14.322  35.680   2.698
16035W        W81020  18.007  39.776   1.177
16036W        W81021  28.485  28.504   3.139
16037W        W81022  25.167  19.110   2.031
16038W        W81023  11.848  16.329  13.845
16039W        W81024  20.309  24.550   1.856
16040W        W81025  27.266  34.033  11.612
16041W        W81026  16.787   9.405   2.160
16042W        W81027   4.967  27.108   2.777
16043W        W81028   2.498  29.396   4.167
16044W        W81029  21.519  17.373  12.581
16045W        W81030  18.107   6.903  11.636
16046W        W81031   3.036  33.464   4.602
16047W        W81032  16.150  16.723   0.544
16048W        W81033  38.748   5.897   2.012
16049W        W81034  16.734  12.297   1.549
16050W        W81035  15.113  33.447  14.749
16051W        W81036   1.346  29.021  11.645
16052W        W81037   7.233   5.376  13.866
16053W        W81038  42.031  24.136  13.958
16054W        W81039  28.584  16.706   0.942
16055W        W81040  27.987   5.972   0.756
16056W        W81041  31.025  21.149  12.114
16057W        W81042  39.776  18.693   4.479
16058W        W81043  25.329  10.306   4.892
16059W        W81044  37.045  16.771  11.719
16060W        W81045  23.564  40.889  11.597
16061W        W81046   6.414  25.523   4.351
16062W        W81047  16.717  20.775   3.495
16063W        W81048  19.775  29.396   0.823
16064W        W81049  39.110   1.214  11.876
16065W        W81050  23.000  37.844  13.889
16066W        W81051  42.989  44.558   3.231
16067W        W81052  14.160  23.390   3.605
16068W        W81053  27.965   5.503   1.011
16069W        W81054  37.331   0.292   0.349
16070W        W81055  36.003  29.413  10.578
16071W        W81056  42.939  30.911  10.654
16072W        W81057  15.941  11.688  13.331
16073W        W81058   5.203  14.809   3.036
16074W        W81059   4.413   6.982   2.958
16075W        W81060   0.727  14.530  12.085
16076W        W81061  44.770   3.079  12.898
16077W        W81062  37.361  24.722  11.528
16078W        W81063  16.700   7.165   2.717
16079W        W81064  16.696   8.448   1.290
16080W        W81065  31.083  13.373   1.182
16081W        W81066  17.194  37.067   1.319
16082W        W81067  26.679  28.314   2.405
16083W        W81068  30.025  23.582   1.088
16084W        W81069  21.826  16.965  10.733
16085W        W81070  18.908  23.229   4.631
16086W        W81071  33.833  15.132   2.610
16087W        W81072  13.568  42.419  10.708
16088W        W81073  36.266  18.139   0.322
16089W        W81074  10.947  34.991   2.121
16090W        W81075  12.589  36.192  12.823
16091W        W81076  38.433   5.822   1.228
16092W        W81077  40.321  33.467  13.920
16093W        W81078   1.780   5.770   4.958
16094W        W81079  30.235  11.749  11.573
16095W        W81080  30.417  10.963   1.940
16096W        W81081  26.614   1.498   0.416
16097W        W81082  16.791  40.036  12.974
16098W        W81083  23.059   3.253   0.460
16099W        W81084   6.953  25.189  13.935
16100W        W81085  44.034  10.069  12.609
16101W        W81086   5.645  33.583   2.670
16102W        W81087  37.458  18.353  12.044
16103W        W81088  13.752   7.841  14.549
16104W        W81089  26.994  11.711   3.560
16105W        W81090  44.820   8.849   0.247
16106W        W81091   2.961   4.078  12.606
16107W        W81092  38.571  43.808   0.374
16108W        W81093  37.031  40.664  11.616
16109W        W81094  42.802  25.145  14.690
16110W        W81095   5.244  37.880  14.573
16111W        W81096  29.665  32.744  13.886
16112W        W81097   6.350  41.056  12.462
16113W        W81098  28.275  40.807   2.318
16114W        W81099  25.819  11.228  14.521
16115W        W81100  33.457  22.433  14.033
16116W        W81101   4.872  35.065   2.137
16117W        W81102  30.581  32.547   3.932
16118W        W81103  12.475  28.174   1.621
16119W        W81104  27.933   7.834  14.471
16120W        W81105  27.474  44.197  14.160
16121W        W81106   6.614  43.336  14.386
16122W        W81107  14.537  30.031  12.532
16123W        W81108  27.278   5.276   4.605
16124W        W81109  27.617   1.814  13.690
16125W        W81110  27.938  28.584   1.924
16126W        W81111  11.721   9.782  14.472
16127W        W81112  30.770   3.089   2.372
16128W        W81113  35.313  42.979   4.510
16129W        W81114  13.556  34.211  13.220
16130W        W81115  28.644  31.451   1.353
16131W        W81116   5.522  18.540  14.253
16132W        W81117  33.192  13.189   3.117
16133W        W81118  37.747  22.675   3.776
16134W        W81119  25.488  13.567   3.314
16135W        W81120  39.022   4.969   0.322
16136W        W81121   0.994  44.925   4.695
16137W        W81122   1.386  44.482   0.557
16138W        W81123  12.343  12.810  12.509
16139W        W81124  18.815   2.843  12.335
16140W        W81125  24.529  41.581  12.505
16141W        W81126  25.104  43.764  12.688
16142W        W81127   0.832   6.295  10.805
16143W        W81128  31.667  29.546   1.251
16144W        W81129  11.867   7.251   3.754
16145W        W81130   2.459   8.113   1.754
16146W        W81131   0.368  15.079   0.014
16147W        W81132  29.223   3.058  11.565
16148W        W81133   4.489  35.051  10.729
16149W        W81134  43.938  13.573  11.176
16150W        W81135  42.104  22.163   1.431
16151W        W81136  11.556  15.886  13.956
16152W        W81137  26.275  33.556  13.109
16153W        W81138  11.352   4.208  13.721
16154W        W81139  24.793  11.292  14.410
16155W        W81140  20.975  28.084  13.026
16156W        W81141  21.288  13.219   2.780
16157W        W81142  32.460  31.166   2.288
16158W        W81143  24.977  43.445  11.596
16159W        W81144  41.927  33.251  12.018
16160W        W81145  15.066   6.154   2.398
16161W        W81146  27.955  26.431  13.899
16162W        W81147  26.883  34.793  13.092
16163W        W81148  10.939   2.846   2.478
16164W        W81149  34.105  11.853   1.352
16165W        W81150  16.097  32.666  12.024
16166W        W81151  35.907   9.328  13.369
16167W        W81152  13.182   1.945   0.725
16168W        W81153   2.466   2.446   4.775
16169W        W81154  34.468  20.117  13.809
16170W        W81155  40.859   6.914   2.492
16171W        W81156   8.216  15.572  12.580
16172W        W81157   6.495  17.905   0.489
16173W        W81158  42.396  14.768   2.433
16174W        W81159   7.466   8.379  10.750
16175W        W81160  21.664  32.608   1.738
16176W        W81161  17.320  21.186   0.839
16177W        W81162  12.650  32.426   3.149
16178W        W81163  19.592  29.022  11.078
16179W        W81164  34.490  14.255   3.835
16180W        W81165  36.398  11.570  12.341
16181W        W81166   3.653  25.612   3.238
16182W        W81167  22.206  43.898  11.598
16183W        W81168   2.265  22.185  11.297
16184W        W81169  41.418  14.767  11.683
16185W        W81170  36.406   7.100   0.954
16186W        W81171   0.222  42.023   4.096
16187W        W81172   5.363  38.765  13.140
16188W        W81173  20.483   3.953   3.804
16189W        W81174  42.297  38.401  10.740
16190W        W81175   8.925  25.918   3.706
16191W        W81176  24.884  25.219   2.599
16192W        W81177   2.367  35.865  13.086
16193W        W81178  44.695  36.347  14.995
16194W        W81179   8.108  32.864   1.506
16195W        W81180  39.349   1.070  10.792
16196W        W81181  36.413  29.070   1.486
16197W        W81182   5.830   6.448  12.616
16198W        W81183  34.951  12.966  11.938
16199W        W81184  20.603  28.038  14.514
16200W        W81185  24.052  24.445   2.535
16201W        W81186  38.314  20.591   0.391
16202W        W81187   7.335  38.623  13.255
16203W        W81188  40.829  15.794   2.766
16204W        W81189  38.124  39.502   0.209
16205W        W81190   4.642  27.662   2.242
16206W        W81191   7.141  39.364   3.160
16207W        W81192  34.661   3.930   4.923
16208W        W81193  15.779  29.749   3.810
16209W        W81194   8.345  30.962   4.085
16210W        W81195  40.777  24.425   4.538
16211W        W81196   7.905  43.299   4.445
16212W        W81197  12.912  39.882  13.123
16213W        W81198  13.130  16.290  14.980
16214W        W81199  29.000   8.715  10.497
16215W        W81200  44.301  14.096   3.186
16216W        W81201  38.460  17.225  11.416
16217W        W81202  30.546  34.479   0.931
16218W        W81203  15.445  38.118   2.788
16219W        W81204   8.006   2.906   3.321
16220W        W81205   5.876  26.307  13.501
16221W        W81206  22.428   5.739   3.019
16222W        W81207  20.636  12.144  14.387
16223W        W81208  10.212  28.034  12.631
16224W        W81209   7.942  10.732   2.644
16225W        W81210  14.095  21.496  12.967
16226W        W81211   3.458  38.473  14.461
16227W        W81212  20.629  38.103   0.368
16228W        W81213  14.298  42.896  14.357
16229W        W81214  26.685  29.632  11.007
16230W        W81215  16.709  34.164  12.975
16231W        W81216  36.395  11.924  11.431
16232W        W81217  16.739  16.259  13.081
16233W        W81218  42.884   5.860  12.082
16234W        W81219  16.806   6.277  13.998
16235W        W81220  40.810  36.519   0.306
16236W        W81221  23.636  12.776  13.387
16237W        W81222  37.607   1.437  14.447
16238W        W81223  39.307   4.587  14.549
16239W        W81224  26.943  36.691  10.798
16240W        W81225  30.123  20.662   4.635
16241W        W81226  25.635  24.899   4.040
16242W        W81227   6.075   7.682   0.089
16243W        W81228  27.364  17.346  12.143
16244W        W81229   8.831  42.933   1.481
16245W        W81230  40.821   6.712   1.219
16246W        W81231  28.950  17.540  14.980
16247W        W81232   5.210   3.665   0.836
16248W        W81233   3.521  18.241  14.239
16249W        W81234  13.520  41.872  14.968
16250W        W81235   1.580   3.767  13.292
16251W        W81236  26.194  17.135  14.954
16252W        W81237   3.156  26.717  11.123
16253W        W81238  14.554  41.972  13.459
16254W        W81239  43.207  25.556  13.524
16255W        W81240  10.849   0.886   2.658
16256W        W81241  23.700  12.924  14.326
16257W        W81242   0.662  23.186  14.821
16258W        W81243  27.199  31.923   0.697
16259W        W81244   5.793  41.487  11.906
16260W        W81245  37.025  10.112   1.726
16261W        W81246  41.123  29.880   1.723
16262W        W81247  41.000  32.435  10.588
16263W        W81248  36.960   7.010  11.395
16264W        W81249  35.673  24.614  14.767
16265W        W81250  15.805  15.705   3.651
16266W        W81251  20.242  35.015  11.775
16267W        W81252  23.427  14.650  13.954
16268W        W81253  40.094  16.622   2.812
16269W        W81254  33.959   8.494  14.809
16270W        W81255   5.713   9.419   0.924
16271W        W81256  12.121   4.498   1.786
16272W        W81257  27.464  24.562   2.293
16273W        W81258  21.211  41.394  12.535
16274W        W81259  18.136   8.840  12.919
16275W        W81260  14.575  13.208  13.415
16276W        W81261  37.415  22.704   0.014
16277W        W81262  28.506  28.303  13.680
16278W        W81263  23.509  17.058   1.304
16279W        W81264   1.240  17.715   1.249
16280W        W81265  29.171   1.669   5.455
16281W        W81266  16.839   6.257  12.921
16282W        W81267  30.936   8.011  13.379
16283W        W81268  25.378  11.282  11.199
16284W        W81269  20.913  36.831   4.157
16285W        W81270   0.394  36.660  12.569
16286W        W81271  37.611  39.691   3.683
16287W        W81272  15.857   2.713   5.002
16288W        W81273  16.640  37.580  14.866
16289W        W81274  25.193  10.539   1.860
16290W        W81275  31.005  29.318  12.533
16291W        W81276  32.897  17.232   0.980
16292W        W81277   8.282  40.465  10.688
16293W        W81278  29.393  23.780  13.877
16294W        W81279   6.551  29.235   2.673
16295W        W81280  34.480  16.282   2.321
16296W        W81281  12.253  44.107   0.791
16297W        W81282  23.227  29.402  12.800
16298W        W81283  32.249  41.713  12.115
16299W        W81284  42.792  16.323  12.479
16300W        W81285  19.689   6.513  10.583
16301W        W81286  25.266  29.157   1.377
16302W        W81287  35.955   7.202   1.582
16303W        W81288  20.704  30.582  14.045
16304W        W81289  30.459  15.213   1.628
16305W        W81290  40.894   9.840  10.723
16306W        W81291  33.063  34.868   4.187
16307W        W81292  39.709  38.541   0.699
16308W        W81293  20.585  17.312   1.403
16309W        W81294  34.126  20.274  14.582
16310W        W81295  36.114  23.904   1.448
16311W        W81296  44.758  14.769  11.395
16312W        W81297   1.358  29.101  10.765
16313W        W81298  34.926  28.969  10.743
16314W        W81299  31.439  31.874   0.905
16315W        W81300  12.396  15.175  10.623
16316W        W81301  28.489  25.001   4.676
16317W        W81302  16.335  38.047  13.932
16318W        W81303   7.237  35.312   2.364
16319W        W81304  40.244  21.939   1.748
16320W        W81305   6.923   9.731   5.507
16321W        W81306  22.752   7.245  12.013
16322W        W81307  30.016  14.280   2.990
16323W        W81308   2.943  26.940  11.529
16324W        W81309  25.781  10.758   3.629
16325W        W81310  18.865  20.004   1.361
16326W        W81311  11.200  35.400  13.471
16327W        W81312  39.366  39.135  12.132
16328W        W81313  37.784  15.553   3.640
16329W        W81314  30.561  16.434  11.672
16330W        W81315   4.474  17.647  12.515
16331W        W81316  10.071  25.046   3.746
16332W        W81317  33.958  43.438   4.281
16333W        W81318  42.779  19.555   1.500
16334W        W81319   4.877  18.178   4.615
16335W        W81320  43.294  41.007   3.406
16336W        W81321  34.423  28.652  13.858
16337W        W81322  15.590  30.222   3.754
16338W        W81323   9.156  39.002  10.103
16339W        W81324  23.769  30.874  10.171
16340W        W81325  27.738   2.651  13.983
16341W        W81326  22.626   3.765   2.481
16342W        W81327  43.574  35.059   1.809
16343W        W81328  29.930   8.263   1.400
16344W        W81329  34.054  33.876  11.679
16345W        W81330  31.954  14.878   1.053
16346W        W81331   9.893   5.278  10.295
16347W        W81332  42.039  36.908  14.959
16348W        W81333  16.548  27.748   2.808
16349W        W81334  29.518  37.687   4.189
16350W        W81335  29.145  12.307   3.646
16351W        W81336  11.479   6.733  11.020
16352W        W81337  20.401  35.070  13.863
16353W        W81338  17.310  43.916  10.993
16354W        W81339  10.229   0.102  13.096
16355W        W81340  38.930  30.133   3.325
16356W        W81341  30.212  42.989   4.186
16357W        W81342  29.516  25.544   1.911
16358W        W81343  29.847  30.212  11.747
16359W        W81344   7.923  24.106   0.252
16360W        W81345  27.916  36.493  11.609
16361W        W81346  32.355  43.335   4.073
16362W        W81347   5.800  14.129   1.394
16363W        W81348  18.497  25.472  10.653
16364W        W81349  34.663  33.843   0.359
16365W        W81350  33.762   7.597  10.247
16366W        W81351  23.767  36.963  12.125
16367W        W81352   3.863  32.543   2.228
16368W        W81353  17.209  35.574   1.445
16369W        W81354  26.268  14.250   3.543
16370W        W81355   4.576  37.894   4.144
16371W        W81356  37.836   6.934   9.777
16372W        W81357  44.427  30.417   2.836
16373W        W81358  13.599  42.342   1.430
16374W        W81359   5.699  19.032  14.348
16375W        W81360  26.077  32.303  14.448
16376W        W81361  31.883  17.310  13.964
16377W        W81362  36.845  12.832   1.431
16378W        W81363   6.241  11.533   5.159
16379W        W81364  29.374  12.475   2.358
16380W        W81365  26.795  18.308  13.152
16381W        W81366  33.121  12.042   1.687
16382W        W81367  28.407  16.339   4.352
16383W        W81368  16.088  15.065   2.674
16384W        W81369   8.666  36.838   3.370
16385W        W81370  40.330  17.095   0.415
16386W        W81371  36.033  44.693  10.946
16387W        W81372  43.867  28.448  14.265
16388W        W81373  41.357  19.976  10.195
16389W        W81374  24.638  25.265   0.374
16390W        W81375  38.335  34.372   2.376
16391W        W81376  12.839  11.697   0.658
16392W        W81377  21.796  11.209   3.679
16393W        W81378  31.648  43.827   1.189
16394W        W81379  31.329  39.292  11.127
16395W        W81380  23.899  40.999  11.039
16396W        W81381   4.635   7.398   3.176
16397W        W81382  27.539  40.097  13.361
16398W        W81383  23.712  37.609   3.393
16399W        W81384  23.840  37.306   1.148
16400W        W81385  42.921  21.036   1.194
16401W        W81386  15.749   9.724   2.778
16402W        W81387   2.899  28.217   1.951
16403W        W81388  35.153  26.103  12.047
16404W        W81389  18.127  16.144   2.480
16405W        W81390  17.216  23.780   4.157
16406W        W81391   2.404  13.632   1.878
16407W        W81392  20.479  42.922   0.835
16408W        W81393  36.813  41.209   2.468
16409W        W81394  30.627  26.103   3.666
16410W        W81395  25.501  40.685  13.189
16411W        W81396  20.279   1.826   4.926
16412W        W81397  13.049  13.350  13.320
16413W        W81398   6.169  44.770  10.614
16414W        W81399  15.744   7.462   3.428
16415W        W81400   8.307  29.592  11.554
16416W        W81401  37.309   6.000   1.849
16417W        W81402  31.950  42.276   1.407
16418W        W81403  21.327  12.278   0.142
16419W        W81404  34.391   0.204  10.662
16420W        W81405  44.881  34.755  10.203
16421W        W81406  13.552  38.318   3.226
16422W        W81407  24.501  38.620  12.084
16423W        W81408  24.511  42.367   4.790
16424W        W81409  18.515   3.707   0.427
16425W        W81410  27.130  33.557  14.057
16426W        W81411  12.584  27.094  11.536
16427W        W81412  16.580  11.444   0.903
16428W        W81413  29.298   2.751  12.933
16429W        W81414   1.719  10.803   3.372
16430W        W81415  19.299  27.346  14.560
16431W        W81416  40.552  40.999  13.929
16432W        W81417  22.674  11.170   1.416
16433W        W81418  20.426  18.186   1.920
16434W        W81419  43.162  26.165  11.378
16435W        W81420  31.606   9.868  13.938
16436W        W81421  15.828  35.967  11.583
16437W        W81422  41.397  31.639  11.110
16438W        W81423  15.017   4.463  13.394
16439W        W81424  10.700  44.214  14.000
16440W        W81425  19.755  30.630   1.120
16441W        W81426  14.813  25.470  13.524
16442W        W81427  36.362  16.836   3.134
16443W        W81428  37.475   2.569   4.098
16444W        W81429  33.184  41.465   2.705
16445W        W81430  24.110   0.637   4.094
16446W        W81431  34.721  34.992  11.572
16447W        W81432  37.784   0.524   1.297
16448W        W81433  32.936  10.297  12.364
16449W        W81434  18.773  27.974  13.902
16450W        W81435   8.418  41.816   2.430
16451W        W81436  11.096  14.537  12.851
16452W        W81437  38.932  30.943  14.440
16453W        W81438   5.545  42.374  12.453
16454W        W81439  23.425   5.807  13.013
16455W        W81440   8.984   3.883  13.452
16456W        W81441  16.810  29.259   4.732
16457W        W81442   6.438  16.182   1.381
16458W        W81443  21.669  15.613  10.242
16459W        W81444  12.142  44.551   3.801
16460W        W81445  16.144  41.936   1.911
16461W        W81446   2.474  23.970  11.199
16462W        W81447  10.293   8.078   2.812
16463W        W81448  25.639  24.536  10.690
16464W        W81449  41.006  30.158   2.178
16465W        W81450   7.777  21.318  14.583
16466W        W81451  22.043  34.624   0.395
16467W        W81452  32.557  37.801  14.496
16468W        W81453   0.028  34.685   9.706
16469W        W81454  11.651  43.980   2.773
16470W        W81455   4.763  44.306  12.426
16471W        W81456  32.151  22.223  13.571
16472W        W81457  21.093  17.732  10.909
16473W        W81458  25.566  12.260   0.861
16474W        W81459  32.383  14.983  11.984
16475W        W81460   1.357  39.854   4.697
16476W        W81461   6.820  22.675  13.552
16477W        W81462  22.154  10.243  14.537
16478W        W81463  12.646   2.524   0.860
16479W        W81464  23.636   9.348  13.310
16480W        W81465  28.483  44.763  14.831
16481W        W81466  24.507  17.736   4.078
16482W        W81467   0.025  10.247   1.779
16483W        W81468  37.429   6.768   2.268
16484W        W81469  11.306   9.029   4.531
16485W        W81470  37.557  32.943   0.987
16486W        W81471  17.749  10.932   1.393
16487W        W81472  25.893  29.779   4.512
16488W        W81473  35.954  19.085  12.537
16489W        W81474  15.072  42.759   1.304
16490W        W81475  43.489  16.486   0.719
16491W        W81476  10.397  28.652  11.986
16492W        W81477  17.616   7.685  11.571
16493W        W81478  10.407  36.515  13.513
16494W        W81479   0.757  19.679  13.866
16495W        W81480   8.794  21.257  13.907
16496W        W81481   3.672  22.621  14.975
16497W        W81482  27.959   4.813  12.006
16498W        W81483   2.981  24.824  11.546
16499W        W81484  27.321  26.264   4.155
16500W        W81485  23.742  41.412  13.431
16501W        W81486   6.812  28.315   1.928
16502W        W81487   7.680  25.733   2.188
16503W        W81488  40.456  31.419  10.927
16504W        W81489  42.616  27.042   1.375
16505W        W81490  23.080  16.593   4.716
16506W        W81491  22.974  41.368   3.298
16507W        W81492  30.885   0.418   0.841
16508W        W81493  19.807  38.611   0.958
16509W        W81494  22.713  44.687  12.077
16510W        W81495   8.886  26.659   9.826
16511W        W81496  34.891  20.622   2.316
16512W        W81497  43.434  19.295  13.514
16513W        W81498  23.648  13.077   0.238
16514W        W81499  22.303   0.823   0.873
16515W        W81500  17.762  44.879  11.649
16516W        W81501   8.470  34.618  12.859
16517W        W81502  43.349  25.875   3.543
16518W        W81503  41.017  11.689   3.148
16519W        W81504  33.468  28.380  14.445
16520W        W81505  33.747   6.403   2.344
16521W        W81506   7.745   7.404  12.331
16522W        W81507  32.681  14.687  14.114
16523W        W81508   6.134  30.387  12.119
16524W        W81509  14.143  17.878   4.098
16525W        W81510  10.118  14.889   3.743
16526W        W81511  22.441   9.740  13.474
16527W        W81512  27.043  23.933   2.764
16528W        W81513   7.861  10.769   2.141
16529W        W81514  28.113  23.613   4.080
16530W        W81515  41.887  20.742  12.978
16531W        W81516  19.591  30.628  12.704
16532W        W81517  31.459  42.191  11.989
16533W        W81518  34.475   5.430  13.775
16534W        W81519  34.031  15.698   0.964
16535W        W81520   2.955  17.968   1.740
16536W        W81521  37.736  43.467   2.104
16537W        W81522  38.437  24.089   1.937
16538W        W81523  11.836   0.993  14.463
16539W        W81524  17.539  21.746  14.431
16540W        W81525   7.925  44.499  11.197
16541W        W81526  37.509  39.248  10.555
16542W        W81527  44.385  13.355  11.896
16543W        W81528  33.789  16.859   3.210
16544W        W81529  12.223  42.235   3.513
16545W        W81530  19.153   2.188  13.027
16546W        W81531  10.787   5.946   1.796
16547W        W81532  30.214   1.781   1.852
16548W        W81533  33.931   6.801   9.885
16549W        W81534  22.576  17.546   2.742
16550W        W81535  18.261  18.003  11.735
16551W        W81536  35.482  26.993  12.542
16552W        W81537  14.355  11.390   1.337
16553W        W81538   3.676  42.585  12.935
16554W        W81539  32.397  24.600   4.517
16555W        W81540  15.639  24.043   2.171
16556W        W81541  10.445   5.765   0.302
16557W        W81542  32.009  31.109  14.414
16558W        W81543  38.516  18.770  12.801
16559W        W81544  16.395  31.591   2.163
16560W        W81545   1.966  23.381  10.745
16561W        W81546  42.033  38.113  13.400
16562W        W81547  30.683  10.939  11.147
16563W        W81548  11.614  15.287  11.673
16564W        W81549  16.784   8.298  10.677
16565W        W81550  21.764   0.496  11.629
16566W        W81551   3.003  30.098  11.526
16567W        W81552   7.198  25.114  12.563
16568W        W81553  24.538  16.124  13.980
16569W        W81554  22.454  15.332  11.616
16570W        W81555  27.225  29.704  10.656
16571W        W81556  10.690  41.528  12.198
16572W        W81557   7.867  33.868   0.325
16573W        W81558  13.366  13.756   3.257
16574W        W81559  38.321  30.821   3.382
16575W        W81560  41.300  44.511  12.091
16576W        W81561  38.066   6.460  11.962
16577W        W81562  28.379  24.691  12.899
16578W        W81563  38.597  33.837  12.778
16579W        W81564   5.841  38.458   3.830
16580W        W81565  36.207  13.162  13.914
16581W        W81566  43.941  12.210  12.459
16582W        W81567   7.857  44.250  13.835
16583W        W81568  39.874   8.304   2.160
16584W        W81569   3.344  24.549   0.204
16585W        W81570  22.434   5.383   3.768
16586W        W81571  24.185  12.832   1.459
16587W        W81572   8.334  27.101   0.407
16588W        W81573   4.034  17.256   1.818
16589W        W81574  15.281  13.887   2.294
16590W        W81575  11.019   4.612  13.763
16591W        W81576  17.175  21.141   4.220
16592W        W81577  41.840  14.277   4.106
16593W        W81578   9.741   1.038  14.910
16594W        W81579   6.909  34.013   3.700
16595W        W81580  11.793  19.690  14.403
16596W        W81581  18.992   3.855  10.692
16597W        W81582  25.912  16.101  11.595
16598W        W81583  44.288  21.863  14.593
16599W        W81584  10.267  28.841   5.037
16600W        W81585   8.515  35.635   2.859
16601W        W81586  19.822  44.192  14.786
16602W        W81587  34.277   2.082  11.450
16603W        W81588  20.805  14.116  12.520
16604W        W81589  11.289   4.758   3.386
16605W        W81590  26.291  32.048   0.515
16606W        W81591  32.484  32.178   0.355
16607W        W81592  23.084  38.035  14.355
16608W        W81593  16.080  41.442  11.172
16609W        W81594  32.846  36.857  12.989
16610W        W81595  14.819  41.559  11.592
16611W        W81596  40.772  18.347  14.597
16612W        W81597  33.943   0.406   3.864
16613W        W81598  35.569  37.208   2.377
16614W        W81599  15.410  22.708  11.614
16615W        W81600  22.074  28.419  10.485
16616W        W81601  32.193  40.989  14.541
16617W        W81602   9.854  42.979  10.914
16618W        W81603   2.725  17.636  14.064
16619W        W81604  27.159   3.211  11.603
16620W        W81605  42.121  37.940   4.587
16621W        W81606  21.614  40.519  14.378
16622W        W81607   4.448   1.799   3.708
16623W        W81608  33.114  11.424   3.806
16624W        W81609  25.747  13.269  14.512
16625W        W81610   7.408  35.539  14.859
16626W        W81611   7.213  44.542   1.689
16627W        W81612  36.113   7.811  14.288
16628W        W81613  17.122  13.340   4.542
16629W        W81614   1.819  42.749  14.736
16630W        W81615  20.475  36.060   0.467
16631W        W81616  17.219  15.377   4.631
16632W        W81617  35.811  11.792   3.060
16633W        W81618  34.875   2.370  12.548
16634W        W81619  23.196   7.504   4.665
16635W        W81620  22.552  32.443  10.173
16636W        W81621   2.879  36.666  13.807
16637W        W81622  15.812  38.779   3.560
16638W        W81623   1.299  29.235   4.151
16639W        W81624  30.610   5.401   1.265
16640W        W81625  34.277   8.404  11.267
16641W        W81626  18.019  21.793  14.855
16642W        W81627  41.962  32.890  14.359
16643W        W81628  22.285  37.776  14.504
16644W        W81629  11.866  35.954  11.214
16645W        W81630  19.539  15.325  14.464
16646W        W81631   9.829  12.289   2.564
16647W        W81632  12.901  40.857   3.605
16648W        W81633  18.235  12.750   0.601
16649W        W81634   2.838  24.553   4.422
16650W        W81635  23.047  20.185   3.243
16651W        W81636  25.687   3.115   0.991
16652W        W81637  12.198  32.111  12.585
16653W        W81638  30.487  27.816   3.327
16654W        W81639   7.364  38.273  13.832
16655W        W81640  14.633   9.113  14.245
16656W        W81641  20.521  26.428   0.613
16657W        W81642  44.442   1.891   3.217
16658W        W81643  27.102  35.179   2.606
16659W        W81644  32.546   6.771   1.735
16660W        W81645  16.509  10.633   1.975
16661W        W81646  10.683  31.115   1.341
16662W        W81647  42.921  18.552   5.401
16663W        W81648  33.364  43.022  14.243
16664W        W81649  39.970  44.163  11.564
16665W        W81650  36.504  44.571  11.081
16666W        W81651  43.270  23.624  10.679
16667W        W81652  25.000   6.695   4.161
16668W        W81653  17.332   6.370   9.795
16669W        W81654  35.108  12.248   5.576
16670W        W81655   5.754  41.867  10.660
16671W        W81656  36.286  22.599  10.807
16672W        W81657  41.231  14.094  12.984
16673W        W81658  36.641  16.175  10.743
16674W        W81659  21.061  20.165   3.394
16675W        W81660  29.141   7.778   1.405
16676W        W81661  17.907   3.732   1.693
16677W        W81662   2.454  25.225  12.893
16678W        W81663  13.211   2.031   5.092
16679W        W81664   5.757   4.806   3.947
16680W        W81665  11.184  41.566  12.433
16681W        W81666  11.753  10.963  10.770
16682W        W81667  38.519  29.141  12.574
16683W        W81668  30.642  12.661  12.392
16684W        W81669  11.961  18.939   3.576
16685W        W81670   7.423  24.280  13.911
16686W        W81671  28.165   2.930   0.540
16687W        W81672   4.804   6.674   1.605
16688W        W81673  30.058  33.900  14.499
16689W        W81674  40.126  13.653  10.927
16690W        W81675  13.296  20.778   0.813
16691W        W81676  44.433  39.511   1.235
16692W        W81677  17.150  33.524   0.725
16693W        W81678  20.750  43.987   3.693
16694W        W81679  32.906  21.921  14.528
16695W        W81680  26.331  31.158   3.701
16696W        W81681  44.235  18.561  12.355
16697W        W81682  24.163  23.461  14.444
16698W        W81683   0.736  30.121  14.027
16699W        W81684   4.712  22.077  11.272
16700W        W81685  31.006  25.359   1.407
16701W        W81686   3.940  15.998   3.009
16702W        W81687  20.816  30.223   2.862
16703W        W81688  36.183  18.231   1.109
16704W        W81689  25.056  27.976  14.462
16705W        W81690  29.132  37.350   4.082
16706W        W81691  19.674   9.643  11.648
16707W        W81692  27.446  31.422  10.720
16708W        W81693  44.967  26.926   5.060
16709W        W81694   9.940  35.105   4.674
16710W        W81695  13.248  40.860  13.120
16711W        W81696  13.587  25.587   1.239
16712W        W81697   3.768  29.401   3.754
16713W        W81698  39.355   0.441  12.024
16714W        W81699  24.390   4.191   2.723
16715W        W81700   2.967   8.180   1.277
16716W        W81701   9.179   8.814  11.758
16717W        W81702  35.928  31.766   2.270
16718W        W81703  33.943  21.776  11.604
16719W        W81704  44.602  24.773  12.010
16720W        W81705  10.794  36.918   3.237
16721W        W81706  15.996  17.648  10.976
16722W        W81707  11.193  26.812   4.574
16723W        W81708  25.542  34.896  10.781
16724W        W81709   7.899  32.179  11.969
16725W        W81710   5.641  18.736  14.763
16726W        W81711  16.829  24.559   1.755
16727W        W81712  43.373  20.674   1.735
16728W        W81713  18.234  10.125  13.972
16729W        W81714  38.949   7.789   5.034
16730W        W81715  34.300  16.165  12.661
16731W        W81716  13.700  29.500   0.760
16732W        W81717   9.629   7.733   0.879
16733W        W81718  23.067  29.927  11.132
16734W        W81719   3.013  37.371  10.183
16735W        W81720  30.530   4.423  10.393
16736W        W81721  39.983  42.884  11.927
16737W        W81722  31.055   8.733   3.146
16738W        W81723  33.849   5.650  11.455
16739W        W81724  37.566  44.694   3.174
16740W        W81725  16.838  44.047   1.883
16741W        W81726  32.203  17.075  10.405
16742W        W81727  24.182  37.570  14.387
16743W        W81728  32.015  20.003   4.745
16744W        W81729  13.861  30.368   3.285
16745W        W81730   7.441  37.935  11.096
16746W        W81731  40.910   6.381   3.726
16747W        W81732  43.893  16.426  13.624
16748W        W81733  32.992   2.861  12.626
16749W        W81734  30.496  20.127   4.153
16750W        W81735   0.247  19.737  11.492
16751W        W81736  22.192  28.870  11.982
16752W        W81737  26.019  37.038  12.457
16753W        W81738  42.134  31.773   2.382
16754W        W81739  15.816  39.370   2.212
16755W        W81740  13.160  39.360  13.060
16756W        W81741   4.309  24.996   2.137
16757W        W81742   7.454  17.659  12.457
16758W        W81743  18.633  18.072   4.829
16759W        W81744  22.022  34.814  14.016
16760W        W81745  39.172   3.220  11.962
16761W        W81746  18.823  13.423  13.831
16762W        W81747  40.979  26.230   3.592
16763W        W81748  32.082  40.498   0.986
16764W        W81749   0.069  28.596   4.358
16765W        W81750  29.694  13.650  11.871
16766W        W81751  10.395  26.489  10.839
16767W        W81752  41.049  41.370   1.271
16768W        W81753  19.837  41.341   1.147
16769W        W81754  40.911  39.106  14.897
16770W        W81755  27.544  14.413  11.811
16771W        W81756  33.938  22.169  10.999
16772W        W81757   8.350  41.566   1.120
16773W        W81758  12.288   6.191  13.006
16774W        W81759  19.767  22.612   3.696
16775W        W81760  20.019   3.712  10.476
16776W        W81761  20.591  38.258   3.613
16777W        W81762  31.821  44.277  12.785
16778W        W81763   3.637   7.035  11.061
16779W        W81764  13.386  27.225  12.849
16780W        W81765  36.902  42.727   0.028
16781W        W81766  26.536  25.825  14.974
16782W        W81767  38.902  34.633  12.919
16783W        W81768  42.808  26.153   1.625
16784W        W81769  30.563  12.604   2.796
16785W        W81770  33.772  33.575  14.607
16786W        W81771  37.084  37.297   3.671
16787W        W81772  20.801  24.216  10.673
16788W        W81773   6.658  27.395  12.604
16789W        W81774  36.782  36.988   0.995
16790W        W81775  12.766  23.532   4.295
16791W        W81776  24.146   9.719  10.398
16792W        W81777  30.165  27.995   1.136
16793W        W81778   0.223  39.364  10.360
16794W        W81779   8.873  14.748   0.411
16795W        W81780  28.072  16.767   0.889
16796W        W81781  37.530  24.753   2.154
16797W        W81782   4.542  32.013   2.183
16798W        W81783  44.118   5.275   1.564
16799W        W81784  22.599  29.346   0.567
16800W        W81785  40.069  21.066   0.998
16801W        W81786   2.302  30.641   3.641
16802W        W81787  33.580  12.856   4.160
16803W        W81788  30.547  40.533   3.732
16804W        W81789  44.876  17.080  10.662
16805W        W81790   9.331  13.079   1.764
16806W        W81791  40.951   9.722   0.928
16807W        W81792  25.076  29.970   3.121
16808W        W81793   8.294  44.864  11.536
16809W        W81794   1.484  10.190  11.348
16810W        W81795   0.013  35.972   3.771
16811W        W81796  12.605  24.383   3.248
16812W        W81797  32.410  39.212  12.659
16813W        W81798  15.737   0.548  12.643
16814W        W81799  38.362  17.021  12.698
16815W        W81800  20.140  38.099   1.908
16816W        W81801  42.907  40.703  11.953
16817W        W81802  22.586  16.674  13.822
16818W        W81803   2.495  34.787   2.207
16819W        W81804  20.161   9.385  13.504
16820W        W81805  38.444  18.105   0.886
16821W        W81806  38.100  43.391  11.981
16822W        W81807  44.063  41.987  11.956
16823W        W81808  38.945   5.860  14.881
16824W        W81809  38.929   0.714  13.246
16825W        W81810  38.510  24.948   5.451
16826W        W81811  41.858  15.426   5.432
16827W        W81812  19.011  18.044  11.284
16828W        W81813  23.023   5.417   4.559
16829W        W81814   8.653  22.641  12.029
16830W        W81815  30.339  34.579  13.806
16831W        W81816  33.681   7.728  13.411
16832W        W81817  27.726  18.972   1.953
16833W        W81818  36.942  29.370  10.652
16834W        W81819  32.510  15.713   3.533
16835W        W81820  29.568  33.071  10.648
16836W        W81821  28.980  27.560  12.758
16837W        W81822  36.982   8.262   4.589
16838W        W81823  27.213  18.034   4.063
16839W        W81824  29.175   4.791   3.547
16840W        W81825  12.736  21.249  13.222
16841W        W81826  27.582  20.144   3.128
16842W        W81827  28.541  20.721  10.839
16843W        W81828  39.818   8.949  11.517
16844W        W81829  39.971  15.535   4.079
16845W        W81830  44.429  25.159   4.747
16846W        W81831  29.906  24.731   4.916
16847W        W81832  29.061  39.400  11.001
16848W        W81833  35.978  23.129   2.112
16849W        W81834  13.026   5.749   3.643
16850W        W81835  33.038  43.764  13.885
16851W        W81836  20.459  36.343   0.024
16852W        W81837  22.816  29.519  13.091
16853W        W81838  18.252   2.740   3.850
16854W        W81839   5.681  27.125  14.915
16855W        W81840  30.921  17.287   1.831
16856W        W81841  29.504   0.253   3.241
16857W        W81842  19.120  38.091   1.455
16858W        W81843  33.992  40.379  14.441
16859W        W81844  19.266  30.307   2.729
16860W        W81845  40.998  11.811  10.993
16861W        W81846  26.750  35.497   4.889
16862W        W81847  22.079  40.450   3.853
16863W        W81848  33.051   0.109   1.511
16864W        W81849  22.086   8.197   3.856
16865W        W81850   8.320   7.837   1.336
16866W        W81851  26.362   2.476   0.342
16867W        W81852  22.184  19.595  14.827
16868W        W81853  36.043  38.984   2.852
16869W        W81854   1.480  31.421   2.858
16870W        W81855  42.806  12.853  13.811
16871W        W81856  34.668  24.032  11.480
16872W        W81857  20.751   8.945   2.397
16873W        W81858  32.449  42.853  13.208
16874W        W81859   1.177  30.528  11.899
16875W        W81860  14.103  42.578  12.083
16876W        W81861  10.794  28.320   3.387
16877W        W81862  30.985  30.940   1.976
16878W        W81863  27.073  12.649  10.297
16879W        W81864  24.193   5.340   3.285
16880W        W81865  36.582  26.572   4.364
16881W        W81866  13.794   9.180   4.077
16882W        W81867  39.344  21.048  13.687
16883W        W81868  38.256  24.114   4.593
16884W        W81869  41.907   1.288   3.617
16885W        W81870  36.417  44.807  10.608
16886W        W81871   0.991  13.665  12.472
16887W        W81872  23.071  40.936  11.422
16888W        W81873   7.179  26.222   2.202
16889W        W81874   6.244  35.068   0.470
16890W        W81875  18.949  41.164  12.497
16891W        W81876  36.320  29.874  13.023
16892W        W81877  24.390  43.735  14.043
16893W        W81878  30.030  23.634   4.395
16894W        W81879   9.363  15.574  12.837
16895W        W81880  15.326  24.672   9.789
16896W        W81881  12.391   3.774  13.699
16897W        W81882  28.529  24.459  11.510
16898W        W81883  44.778  28.967   4.623
16899W        W81884  28.279  44.226   3.191
16900W        W81885   6.374  31.135   0.496
16901W        W81886  35.800  34.093   1.608
16902W        W81887  24.734  18.161   1.795
16903W        W81888  43.651  20.963  14.506
16904W        W81889  37.864  20.813  14.845
16905W        W81890  22.114  18.385   5.032
16906W        W81891  32.124  23.392  13.075
16907W        W81892   7.693  29.744  13.119
16908W        W81893  37.032  40.582   5.045
16909W        W81894  17.964   6.567  10.725
16910W        W81895  37.904  33.082  13.944
16911W        W81896  18.231  33.377  11.986
16912W        W81897  14.169  30.774   3.300
16913W        W81898  38.755   5.184   1.492
16914W        W81899  15.233  14.594  14.952
16915W        W81900  42.787  32.222   0.400
16916W        W81901  23.149   1.499  10.270
16917W        W81902  34.494  42.379  13.451
16918W        W81903  32.145   9.729  12.948
16919W        W81904  27.953  35.096  14.456
16920W        W81905   2.302  24.432   0.301
16921W        W81906   5.540  15.235   0.895
16922W        W81907  23.182   1.309  10.741
16923W        W81908   5.375  37.563  14.966
16924W        W81909  44.492  21.531   4.490
16925W        W81910  13.167  24.799   2.102
16926W        W81911  36.544  16.539   1.026
16927W        W81912  16.452  20.022  12.559
16928W        W81913  41.346  32.087  12.408
16929W        W81914  38.298  17.782  14.432
16930W        W81915   7.315  13.586   2.950
16931W        W81916   4.276   3.611  12.598
16932W        W81917  38.161  43.536   1.822
16933W        W81918  40.346  18.376  10.804
16934W        W81919  38.312  19.744   3.296
16935W        W81920  15.574  21.783  13.330
16936W        W81921  39.682  36.747   0.050
16937W        W81922  37.375  17.762   2.945
16938W        W81923  17.577  34.095  12.863
16939W        W81924  10.870  40.589   4.566
16940W        W81925   9.194  10.109  10.817
16941W        W81926  14.787  13.387   0.549
16942W        W81927  23.114  24.220   4.134
16943W        W81928   9.355   4.277  13.546
16944W        W81929  22.539  10.295   0.806
16945W        W81930  31.773   8.334  14.537
16946W        W81931  15.934  26.005   1.436
16947W        W81932  25.836  28.103   4.929
16948W        W81933   1.936  31.505   3.714
16949W        W81934  28.855  28.823   2.269
16950W        W81935  33.683  34.899   2.716
16951W        W81936  21.260  28.232   2.510
16952W        W81937   1.756  22.687  13.403
16953W        W81938  33.309  11.115   1.410
16954W        W81939  30.309  18.504   4.114
16955W        W81940  41.260   1.371  10.783
16956W        W81941  15.545  35.105   2.535
16957W        W81942  39.780  13.136   2.136
16958W        W81943  18.165  33.598   1.501
16959W        W81944  33.006   4.251   3.760
16960W        W81945  38.818  18.138  11.885
16961W        W81946  33.380  15.541   0.789
16962W        W81947  27.142  16.651   2.765
16963W        W81948  44.895  35.426   1.952
16964W        W81949  34.717  18.271   4.334
16965W        W81950  16.337  32.374   1.772
16966W        W81951  37.975  19.899  12.777
16967W        W81952  28.549  10.081  10.124
16968W        W81953  28.380  17.369   4.559
16969W        W81954   2.762  16.951   1.033
16970W        W81955  43.796   6.581   0.481
16971W        W81956  38.418  38.471  12.965
16972W        W81957   6.891   3.247   0.534
16973W        W81958  12.825  23.015   3.037
16974W        W81959  15.438  19.463   1.745
16975W        W81960  12.052  34.523   2.957
16976W        W81961  26.156  18.871  12.139
16977W        W81962  23.266  43.921  12.908
16978W        W81963  28.227  40.571   4.494
16979W        W81964   4.378  29.364   1.838
16980W        W81965  30.158  16.158   4.058
16981W        W81966  40.144  36.627  10.766
16982W        W81967  35.107  42.210   0.748
16983W        W81968   7.162   3.013   1.728
16984W        W81969  35.974  14.980  14.064
16985W        W81970  12.165  41.039   0.928
16986W        W81971   3.986  10.164   2.846
16987W        W81972  41.859  38.248  11.613
16988W        W81973   5.961  19.737  14.025
16989W        W81974  34.383  26.467  11.235
16990W        W81975  12.034  10.782   3.542
16991W        W81976  31.618   3.510  13.829
16992W        W81977  29.609  30.792  13.826
16993W        W81978  10.984  27.010  12.720
16994W        W81979  10.567  39.564   2.658
16995W        W81980   3.251   1.828  13.775
16996W        W81981  24.631   6.698   4.552
16997W        W81982  40.852  28.807   1.732
16998W        W81983  33.431  17.267   3.272
16999W        W81984  31.815  20.589  14.921
17000W        W81985  36.442  32.038   3.734
17001W        W81986   2.044   3.926   2.202
17002W        W81987  33.399   2.639   4.780
17003W        W81988  13.785  33.453   0.818
17004W        W81989  21.456   9.053   4.899
17005W        W81990  35.800   8.311   1.028
17006W        W81991  39.775  20.764   1.303
17007W        W81992  26.940  24.951   3.790
17008W        W81993  19.537  29.940  12.099
17009W        W81994  26.639  28.628   4.122
17010W        W81995  34.382  38.319  14.051
17011W        W81996  10.161  40.859  14.390
17012W        W81997   7.039  14.445   3.251
17013W        W81998  43.232  40.319   1.289
17014W        W81999  33.704  24.762  14.449
17015W        W82000  29.055  38.398   4.473
17016W        W82001  27.057   7.699  11.539
17017W        W82002   4.243  10.708  11.011
17018W        W82003  14.082   1.871   0.581
17019W        W82004  13.629  40.493   4.320
17020W        W82005   6.948  31.450   2.870
17021W        W82006  26.243  39.943  11.728
17022W        W82007  39.718  29.956  12.761
17023W        W82008  16.216  32.881   1.660
17024W        W82009   4.461  42.892   0.533
17025W        W82010   6.455   6.144  14.983
17026W        W82011  33.666  25.538  12.405
17027W        W82012  38.564  39.967   2.531
17028W        W82013   9.942  15.461  13.903
17029W        W82014  22.768   2.336   2.189
17030W        W82015   5.078  21.265   3.655
17031W        W82016   0.197  35.412  11.871
17032W        W82017   1.221  18.652   1.468
17033W        W82018   7.226  27.493   4.365
17034W        W82019  22.683  36.373   2.972
17035W        W82020  33.700   8.467  14.317
17036W        W82021  42.014   4.506   2.198
17037W        W82022   9.822   2.172   0.543
17038W        W82023  28.518  28.197   0.654
17039W        W82024  32.169   8.308   3.609
17040W        W82025  32.559  34.041   0.693
17041W        W82026  36.499   5.987   4.877
17042W        W82027   3.443  37.501  11.642
17043W        W82028   1.422   1.088   2.978
17044W        W82029  32.884  10.372  11.856
17045W        W82030  39.314  18.247  14.060
17046W        W82031  18.466  23.524   3.766
17047W        W82032  22.029  28.659   1.484
17048W        W82033  43.586  10.164   0.279
17049W        W82034  41.649  19.292  13.034
17050W        W82035  43.042  37.198   2.392
17051W        W82036  35.149   1.017  11.205
17052W        W82037  24.068  23.381  13.940
17053W        W82038   5.279  34.122  12.057
17054W        W82039  28.556  29.303  14.000
17055W        W82040   2.210  36.404   0.414
17056W        W82041  21.156  29.538  12.821
17057W        W82042  13.640   1.231  13.294
17058W        W82043  32.628   4.692  10.846
17059W        W82044  26.035  40.021  12.768
17060W        W82045  22.726  19.514   3.429
17061W        W82046  42.546  43.301   4.840
17062W        W82047  21.320  28.199   4.152
17063W        W82048  44.735  32.688  14.966
17064W        W82049  10.682  25.436  12.584
17065W        W82050  22.743  35.884  13.086
17066W        W82051  14.175  26.902  11.673
17067W        W82052  39.105  14.304   2.625
17068W        W82053  22.317  41.441   0.417
17069W        W82054  23.873  29.945  13.990
17070W        W82055  22.688  38.102  13.569
17071W        W82056  15.587  39.486  10.708
17072W        W82057  16.021  10.725   1.220
17073W        W82058  23.505  17.886   1.634
17074W        W82059  19.446  24.135  11.580
17075W        W82060  18.452  11.631   2.443
17076W        W82061  34.642   8.930   0.314
17077W        W82062  10.839   5.197  10.720
17078W        W82063  10.134  12.312   3.732
17079W        W82064  40.962  15.163  13.273
17080W        W82065  29.504  34.969   0.694
17081W        W82066  44.344  27.481   3.632
17082W        W82067  18.855   2.735   1.921
17083W        W82068  27.927  38.046   4.505
17084W        W82069  20.413  27.021  11.545
17085W        W82070  42.893  30.229  12.930
17086W        W82071  19.252   5.437   9.771
17087W        W82072  24.180  28.104  14.531
17088W        W82073  18.116   5.998   0.350
17089W        W82074   8.015   3.835   4.242
17090W        W82075  12.087   1.440   4.755
17091W        W82076   4.209  39.342  11.588
17092W        W82077   1.711  41.394  13.560
17093W        W82078   9.141   5.223  11.685
17094W        W82079  24.202  18.037   0.896
17095W        W82080   5.468  32.779  12.905
17096W        W82081  21.979  26.119   3.237
17097W        W82082   1.328  35.825   4.081
17098W        W82083   7.847  43.294   0.032
17099W        W82084  44.873   5.718   0.900
17100W        W82085  31.801  15.607  10.312
17101W        W82086  16.875  41.102   3.277
17102W        W82087  38.754   5.750  11.975
17103W        W82088  23.617  31.654  14.966
17104W        W82089   4.751  16.922  14.371
17105W        W82090  20.004  22.229   2.224
17106W        W82091   8.413   6.483   2.216
17107W        W82092  21.615  10.782  13.353
17108W        W82093   2.353  40.577  10.786
17109W        W82094   3.307  27.858  12.516
17110W        W82095  17.521   0.972  11.586
17111W        W82096  35.756  42.706  12.602
17112W        W82097   6.392  33.861  13.987
17113W        W82098   8.646   7.898  14.037
17114W        W82099  39.663  11.591  12.730
17115W        W82100   0.369   1.528   4.223
17116W        W82101   2.274   5.424  10.965
17117W        W82102  10.646  17.076   4.674
17118W        W82103  24.102   8.759  10.727
17119W        W82104  32.379  20.302   4.016
17120W        W82105  13.191  35.975   3.544
17121W        W82106  15.869  18.546   1.665
17122W        W82107   9.867   8.112   4.117
17123W        W82108  39.478  11.803   4.642
17124W        W82109   5.554  35.361   1.345
17125W        W82110  10.664   2.419  12.987
17126W        W82111  13.116  22.513  13.905
17127W        W82112  27.174  24.353  11.087
17128W        W82113  13.033  10.270   4.586
17129W        W82114  11.668  20.619   2.786
17130W        W82115  41.072  43.559  11.069
17131W        W82116  22.557  10.768  11.998
17132W        W82117   3.116  40.590   0.422
17133W        W82118  17.991  38.801   4.651
17134W        W82119  10.391  17.005   3.134
17135W        W82120  17.693  22.244  14.521
17136W        W82121   2.426  41.676  13.124
17137W        W82122   6.156  27.241  13.444
17138W        W82123  16.286  17.833   2.872
17139W        W82124   3.709  11.560  12.661
17140W        W82125   0.241  20.037   4.184
17141W        W82126  33.840   3.636   2.254
17142W        W82127  12.369  12.034   1.865
17143W        W82128   5.489  23.602   0.903
17144W        W82129  29.807  24.015  14.965
17145W        W82130   6.126  28.658  13.355
17146W        W82131  24.291   7.162   2.767
17147W        W82132  11.617  38.763   5.028
17148W        W82133  23.055  22.038  13.854
17149W        W82134  30.037  42.178  14.971
17150W        W82135  24.118  16.403  13.429
17151W        W82136  31.385  19.734  11.539
17152W        W82137  29.624  20.944  11.008
17153W        W82138  16.031  39.953  13.801
17154W        W82139   8.224  23.280   0.779
17155W        W82140   9.446  25.764   3.394
17156W        W82141  26.440  33.982  10.662
17157W        W82142  19.218  25.109  10.445
17158W        W82143  16.773  32.230  11.617
17159W        W82144   5.872  35.047   4.601
17160W        W82145   8.503   6.596  12.478
17161W        W82146   1.831   5.012   1.411
17162W        W82147   4.235  44.993  11.461
17163W        W82148  39.167   5.642   2.911
17164W        W82149   3.218  44.469   3.669
17165W        W82150  10.220  21.000   4.543
17166W        W82151   6.063   2.558   3.212
17167W        W82152  43.920  36.941  13.167
17168W        W82153   5.388  43.573  14.915
17169W        W82154  36.991  35.824  12.258
17170W        W82155  38.245  31.515  13.896
17171W        W82156  11.284   4.768  11.462
17172W        W82157   4.696  37.753   0.787
17173W        W82158   9.632  36.471   1.258
17174W        W82159  29.838  20.340  13.991
17175W        W82160  15.784  14.796   3.514
17176W        W82161  33.124  12.368  13.063
17177W        W82162  21.289  42.024  10.810
17178W        W82163  19.508  34.525  11.580
17179W        W82164   5.454  17.107   0.838
17180W        W82165  26.560  22.753   3.999
17181W        W82166   5.089   7.862   1.277
17182W        W82167  20.670   6.294  10.717
17183W        W82168   3.866  11.411  14.444
17184W        W82169   0.562  39.367   4.874
17185W        W82170  40.095   5.168   1.449
17186W        W82171  38.045   6.952   0.590
17187W        W82172   3.812  43.022   2.188
17188W        W82173  40.645  36.882  12.595
17189W        W82174  34.372   3.128  13.901
17190W        W82175   0.511   0.215   4.560
17191W        W82176  44.297   3.923  14.910
17192W        W82177  12.807   3.663   1.296
17193W        W82178  37.590  23.784  12.054
17194W        W82179  16.325   2.952   4.940
17195W        W82180   6.372  24.688   1.734
17196W        W82181  17.538   2.260   0.961
17197W        W82182  27.043   6.612  12.419
17198W        W82183  26.221  27.237   3.644
17199W        W82184  21.043  11.034  10.272
17200W        W82185  42.253   1.482  14.908
17201W        W82186  14.933  34.984   4.281
17202W        W82187  40.510   4.848   1.315
17203W        W82188  15.235  33.663  10.517
17204W        W82189  25.434   8.676  12.486
17205W        W82190   7.135   2.179  14.935
17206W        W82191  18.093  41.025   2.971
17207W        W82192  36.038   9.401  14.461
17208W        W82193   9.915  14.893   0.257
17209W        W82194  31.675  29.234  10.675
17210W        W82195   5.449  10.346  12.963
17211W        W82196  12.535  10.197  12.146
17212W        W82197  20.084  37.001   4.596
17213W        W82198  11.115  42.480  12.001
17214W        W82199  26.040  39.816   3.470
17215W        W82200   8.639  16.597   2.274
17216W        W82201  14.035  40.913   4.572
17217W        W82202   5.205  36.800   0.115
17218W        W82203  26.642  12.333  12.993
17219W        W82204   6.487   2.004  10.090
17220W        W82205  12.731  30.026   3.647
17221W        W82206  36.299   9.601   0.395
17222W        W82207  33.616  33.149   4.622
17223W        W82208   1.237  32.446  13.004
17224W        W82209   5.728  39.012   2.690
17225W        W82210   8.149  38.111  12.396
17226W        W82211  31.558  34.850   4.589
17227W        W82212  44.437   0.916   2.180
17228W        W82213  34.552  10.636   2.810
17229W        W82214   8.288  32.385   1.395
17230W        W82215  25.555   5.394   0.823
17231W        W82216   8.811  10.796   2.525
17232W        W82217  18.116  34.484   2.742
17233W        W82218  42.117  33.937   5.019
17234W        W82219   3.900  18.828  13.670
17235W        W82220  22.267  29.717  11.015
17236W        W82221  28.256  25.993   4.441
17237W        W82222  41.213  13.204  11.255
17238W        W82223  29.679  35.907  12.070
17239W        W82224  14.204  36.809  14.796
17240W        W82225  22.678  38.075  14.670
17241W        W82226  37.064  36.298  11.892
17242W        W82227   2.215  31.382  12.959
17243W        W82228  37.420  39.350   2.332
17244W        W82229   9.429  14.332  12.149
17245W        W82230  28.916  25.541  10.775
17246W        W82231  21.343  34.964  12.569
17247W        W82232  12.314  31.572  13.289
17248W        W82233   1.391  16.748  11.156
17249W        W82234   1.003   8.465  12.926
17250W        W82235  34.472   3.355   3.088
17251W        W82236  10.165  14.131  12.701
17252W        W82237  40.943   2.555  13.058
17253W        W82238  11.760  28.960  14.800
17254W        W82239  22.578   9.523   2.076
17255W        W82240  28.643   2.778   0.726
17256W        W82241  15.359  16.677   3.226
17257W        W82242  11.775   2.792   1.724
17258W        W82243   9.727   6.481  12.090
17259W        W82244   2.847  37.872   4.684
17260W        W82245  38.742  15.319   2.141
17261W        W82246   5.870  11.031  13.505
17262W        W82247  11.245  10.530  13.553
17263W        W82248   1.022  35.194  14.784
17264W        W82249  42.995  26.255  10.188
17265W        W82250   2.031  11.707   3.723
17266W        W82251  22.722   6.032   4.247
17267W        W82252  34.968   4.931  13.018
17268W        W82253   8.069  23.937   2.743
17269W        W82254   3.523  11.717   2.871
17270W        W82255  29.109  41.904   3.343
17271W        W82256  12.281   9.096  12.377
17272W        W82257  37.557   3.857  12.498
17273W        W82258  14.820  34.088  13.588
17274W        W82259  18.703   9.891  13.936
17275W        W82260  33.163  42.015   2.696
17276W        W82261  39.672  16.384   9.851
17277W        W82262  39.327  13.841  11.544
17278W        W82263  37.927  38.149   0.773
17279W        W82264  12.573  44.908   1.225
17280W        W82265   4.230   3.219  12.013
17281W        W82266  35.972  42.041   3.589
17282W        W82267  29.265  24.066   0.826
17283W        W82268  10.853  20.023  13.006
17284W        W82269  22.526  20.563  11.178
17285W        W82270  35.608  11.244  13.923
17286W        W82271  40.799  29.906   3.767
17287W        W82272  32.787  12.766   0.031
17288W        W82273  31.390  34.592  11.550
17289W        W82274  26.447  16.672  14.785
17290W        W82275  24.704  42.355   3.784
17291W        W82276  27.732  17.151   4.936
17292W        W82277  18.317  35.122   3.608
17293W        W82278  24.030  26.713   1.978
17294W        W82279  10.862  22.293  10.645
17295W        W82280  37.477  24.492   1.725
17296W        W82281  20.509  20.779  14.153
17297W        W82282  19.522  43.989  12.607
17298W        W82283   6.115  36.904   2.260
17299W        W82284  26.335  40.983   1.240
17300W        W82285   6.898  32.919  10.697
17301W        W82286  31.922  27.940   4.642
17302W        W82287   6.795  20.780   1.407
17303W        W82288  14.238  40.466   0.963
17304W        W82289  13.500  19.979   1.850
17305W        W82290  33.175  36.897  11.008
17306W        W82291  24.115  24.481   0.379
17307W        W82292  22.297  41.410  13.517
17308W        W82293  13.646  29.169   1.846
17309W        W82294  20.744  37.193   3.792
17310W        W82295   2.508  38.325   0.804
17311W        W82296  21.182   2.359   1.786
17312W        W82297  17.026  43.871   1.425
17313W        W82298  33.483  38.416  14.317
17314W        W82299  24.790  15.815  13.661
17315W        W82300   1.820   5.127   4.086
17316W        W82301  15.038  17.605  10.630
17317W        W82302   9.442   0.913   4.572
17318W        W82303  21.604  33.201  10.432
17319W        W82304  23.672  36.509  12.463
17320W        W82305  42.061  18.735  11.965
17321W        W82306  31.463  36.689  11.217
17322W        W82307  17.588  43.517  13.164
17323W        W82308  24.966  19.487   2.832
17324W        W82309  35.601   7.129  11.267
17325W        W82310  38.810   2.274   4.084
17326W        W82311  29.708  16.910   4.214
17327W        W82312  19.722  24.013   1.019
17328W        W82313  27.973   6.090  11.565
17329W        W82314  18.293  25.901  14.505
17330W        W82315  28.551  38.006   3.855
17331W        W82316   8.621  13.210  11.634
17332W        W82317  28.064   9.317   3.828
17333W        W82318  40.200  28.815  13.521
17334W        W82319   4.702   1.154   4.238
17335W        W82320  15.687  38.434  10.673
17336W        W82321   5.400  13.876   1.187
17337W        W82322   7.324   2.835   1.266
17338W        W82323  27.243  25.055  12.190
17339W        W82324  19.560  40.357   0.802
17340W        W82325  22.634  20.822   3.566
17341W        W82326  42.143   1.681   3.846
17342W        W82327  36.122  18.689  11.308
17343W        W82328  33.060  22.696   0.776
17344W        W82329  19.818  28.734   1.396
17345W        W82330  22.572  43.611   4.180
17346W        W82331   4.769  42.805  14.775
17347W        W82332   2.903  21.122   0.941
17348W        W82333  30.166  10.063   2.236
17349W        W82334  10.703  24.115  14.842
17350W        W82335  20.729  41.771  13.046
17351W        W82336   6.608  14.691  13.429
17352W        W82337  44.047  34.960  10.110
17353W        W82338  20.284  15.327  11.244
17354W        W82339   5.137  40.733  11.927
17355W        W82340   2.124  12.902   4.972
17356W        W82341  27.508  19.336  10.777
17357W        W82342  33.388  28.594   2.752
17358W        W82343  37.989  32.350   4.313
17359W        W82344   3.256  27.421   2.350
17360W        W82345  27.100  44.313  12.860
17361W        W82346  12.262  17.101   4.629
17362W        W82347  44.014  38.442  14.844
17363W        W82348  16.191  28.123   0.682
17364W        W82349  34.000  40.337   2.827
17365W        W82350  25.002  21.206   4.615
17366W        W82351  20.473   5.315  12.029
17367W        W82352   9.519  34.218  14.349
17368W        W82353   0.807  32.063   1.472
17369W        W82354  35.832  32.096   2.639
17370W        W82355  26.354  13.618  12.463
17371W        W82356  30.698  11.286   0.376
17372W        W82357  42.552   0.948   4.170
17373W        W82358   4.192  27.935   3.642
17374W        W82359  34.930  24.662  12.990
17375W        W82360  44.595  21.684  14.969
17376W        W82361  43.430  44.423   4.575
17377W        W82362  25.378  40.005  12.040
17378W        W82363  34.358  39.522   4.652
17379W        W82364   2.262  17.025   4.553
17380W        W82365  13.397  29.761  12.098
17381W        W82366   7.534  23.439  14.323
17382W        W82367  26.183  28.949  13.982
17383W        W82368  22.506  26.165   3.210
17384W        W82369  38.768  41.875   3.186
17385W        W82370  44.669  40.857  11.956
17386W        W82371  35.685  33.843  12.973
17387W        W82372  27.499  43.298   2.555
17388W        W82373  19.273  36.584   2.908
17389W        W82374  42.086  32.065   0.836
17390W        W82375  12.238   7.813   1.658
17391W        W82376  30.066  16.240  11.653
17392W        W82377  12.022  14.230   3.231
17393W        W82378  44.747  10.760  12.545
17394W        W82379  26.791  22.059   3.925
17395W        W82380  27.134  43.208  12.899
17396W        W82381   9.929  14.165  11.683
17397W        W82382  33.534  29.964   0.836
17398W        W82383  42.452  14.799  14.442
17399W        W82384  42.879  31.172   2.835
17400W        W82385  29.512  19.965   2.802
17401W        W82386  20.755  22.147  13.628
17402W        W82387  32.115  14.100  12.200
17403W        W82388  35.498  28.618   3.208
17404W        W82389  21.259   7.282   2.229
17405W        W82390  35.362  35.155   2.291
17406W        W82391  29.946  11.250  10.535
17407W        W82392  29.612  24.051   0.446
17408W        W82393  20.674  44.058  10.153
17409W        W82394  27.513   0.315  10.757
17410W        W82395  21.180   9.258  14.386
17411W        W82396  30.607  31.082  13.394
17412W        W82397   2.477  22.491   4.565
17413W        W82398  23.651  36.266   2.686
17414W        W82399  18.847  32.089   2.657
17415W        W82400   4.398  26.147   4.950
17416W        W82401   5.176  22.690   0.810
17417W        W82402  27.867  38.740   0.277
17418W        W82403  42.610  38.325  13.876
17419W        W82404   4.405   9.480   4.005
17420W        W82405  30.185  21.761   0.148
17421W        W82406  14.581  37.350   0.071
17422W        W82407  15.367  17.854   4.525
17423W        W82408   9.611   3.546   2.765
17424W        W82409  28.142   9.832  10.540
17425W        W82410  11.069  34.728   3.804
17426W        W82411  42.000  34.817   1.191
17427W        W82412  14.051  11.891   4.660
17428W        W82413  37.339  18.964  10.932
17429W        W82414  32.810   7.335   0.409
17430W        W82415  31.134  35.910  10.719
17431W        W82416   3.028  15.913   3.456
17432W        W82417  19.396  13.340   3.408
17433W        W82418  14.732  19.959  13.511
17434W        W82419  16.478   4.596   4.476
17435W        W82420  28.745  39.289   2.203
17436W        W82421  11.618  25.851  14.289
17437W        W82422  22.926  27.311  14.264
17438W        W82423   3.895  14.193  13.394
17439W        W82424  25.309  30.102   0.542
17440W        W82425   4.740  44.748   4.326
17441W        W82426  44.502  16.571  11.297
17442W        W82427  36.457  22.077  14.952
17443W        W82428  37.774  35.794   4.798
17444W        W82429  13.853  18.014  11.559
17445W        W82430  23.062  25.205  13.467
17446W        W82431   0.548  37.871   4.032
17447W        W82432  35.162  32.671  10.638
17448W        W82433  23.563  25.138  13.336
17449W        W82434   3.241  31.038  12.870
17450W        W82435  16.830   9.659   1.696
17451W        W82436  30.906  26.574  14.064
17452W        W82437  23.489  32.692   0.056
17453W        W82438  34.398  25.090  13.829
17454W        W82439  28.021   5.164   4.069
17455W        W82440  35.334  21.117  12.378
17456W        W82441  29.089  35.019   4.834
17457W        W82442  38.840   2.215  13.756
17458W        W82443  22.623  30.115  10.344
17459W        W82444  18.899  16.809   9.753
17460W        W82445  28.782  41.793   0.063
17461W        W82446  32.485  28.018   0.579
17462W        W82447  15.799  21.485  11.795
17463W        W82448  11.766  40.357  10.786
17464W        W82449  38.966  28.168  12.580
17465W        W82450   1.941  17.272  12.335
17466W        W82451  25.197   5.827  12.384
17467W        W82452  29.530   1.780  12.712
17468W        W82453  30.715  13.711   3.263
17469W        W82454  41.373  26.044   1.572
17470W        W82455   0.918   8.933  13.140
17471W        W82456  34.077   6.051   0.769
17472W        W82457  36.293  38.835   3.655
17473W        W82458  20.166  18.286   2.806
17474W        W82459  35.488  32.117  13.520
17475W        W82460  35.112  17.867  13.938
17476W        W82461  35.290  11.210   5.537
17477W        W82462   7.950  22.733   2.294
17478W        W82463  33.816   7.767   3.190
17479W        W82464  40.487  29.419  12.939
17480W        W82465  11.325  17.879  10.828
17481W        W82466   0.752  24.193  13.374
17482W        W82467  26.953  19.149   2.362
17483W        W82468  11.808  44.467   2.639
17484W        W82469   5.130   0.271   2.318
17485W        W82470  21.423  36.370  14.775
17486W        W82471  24.499  43.312   4.309
17487W        W82472   9.164   6.706  12.871
17488W        W82473  28.560  27.189  14.814
17489W        W82474  25.675  39.524   3.274
17490W        W82475   9.320  37.463  11.092
17491W        W82476  33.358  29.446  14.645
17492W        W82477  13.401  34.292   4.709
17493W        W82478   8.921   6.004   0.367
17494W        W82479  26.129  33.503  10.240
17495W        W82480  42.958  23.020  11.142
17496W        W82481  26.028   0.942   0.002
17497W        W82482  12.227  13.808   2.536
17498W        W82483  23.814   2.475  10.729
17499W        W82484   2.678  30.448   2.386
17500W        W82485  24.576   3.881   3.841
17501W        W82486  33.151  22.130  11.535
17502W        W82487  42.739  12.076   1.822
17503W        W82488  42.809  38.792   3.129
17504W        W82489   2.805  15.934   0.817
17505W        W82490  29.162  38.541   0.254
17506W        W82491  10.936  15.487  11.038
17507W        W82492   0.828  36.930  12.456
17508W        W82493  17.275  40.526   4.515
17509W        W82494  31.057  31.110  12.001
17510W        W82495  14.340  13.275  14.289
17511W        W82496  13.861  25.673   3.488
17512W        W82497  21.562  34.213   4.842
17513W        W82498  27.410  29.075  12.976
17514W        W82499   2.458   5.375  11.450
17515W        W82500  33.433  39.787  13.029
17516W        W82501  23.275   5.265   1.647
17517W        W82502   0.578  30.885  12.581
17518W        W82503  30.518  18.665   5.041
17519W        W82504  43.844  30.176  13.510
17520W        W82505   7.130   9.922   2.201
17521W        W82506  39.987   8.085   2.647
17522W        W82507   3.274  34.494   4.774
17523W        W82508  37.348   8.747   0.483
17524W        W82509  22.660   4.526  13.931
17525W        W82510  40.317  23.168   0.303
17526W        W82511  21.259  21.838  13.023
17527W        W82512   0.826  31.729   1.065
17528W        W82513  43.657  34.593  13.220
17529W        W82514   1.889   7.470   3.159
17530W        W82515  24.246  28.179   2.316
17531W        W82516  13.081  40.373   2.304
17532W        W82517  32.174   3.890  11.291
17533W        W82518  10.117  17.334   2.213
17534W        W82519   2.289   0.734   4.827
17535W        W82520   4.849   3.145   3.807
17536W        W82521  44.752  24.742   1.726
17537W        W82522  21.982  44.268   1.376
17538W        W82523   0.246   4.041   1.296
17539W        W82524  17.071  41.494  10.761
17540W        W82525  29.154  37.314   0.482
17541W        W82526  38.083  44.034   1.338
17542W        W82527  19.053  23.887  13.672
17543W        W82528  16.139   1.820  14.351
17544W        W82529  44.836  36.153  14.283
17545W        W82530  37.394  40.376  14.049
17546W        W82531   7.109  27.208   3.130
17547W        W82532  16.836  39.022  12.003
17548W        W82533  27.170  11.728   2.260
17549W        W82534  38.006  19.178  10.560
17550W        W82535   6.129  25.238   2.665
17551W        W82536  11.613   5.159   3.266
17552W        W82537  16.785  20.073   1.912
17553W        W82538  10.132  30.695  14.978
17554W        W82539  36.830  17.030  11.280
17555W        W82540  15.316  11.273  12.859
17556W        W82541  20.795  32.434  11.576
17557W        W82542  20.522   5.869   2.525
17558W        W82543  13.983  26.416  13.571
17559W        W82544  42.914  23.574  11.063
17560W        W82545  10.033  21.550  13.459
17561W        W82546  22.996   0.539   1.777
17562W        W82547  39.173  28.847   4.594
17563W        W82548  35.138  35.621  11.174
17564W        W82549  15.903  29.479  12.361
17565W        W82550  39.132  20.748  13.049
17566W        W82551   8.279  35.342   3.768
17567W        W82552  10.224  23.112   4.530
17568W        W82553  21.740  31.218  12.966
17569W        W82554   9.875  41.958   1.300
17570W        W82555  36.832  28.193   1.303
17571W        W82556  38.049  22.004   2.258
17572W        W82557   4.473  11.823   0.781
17573W        W82558  43.510  30.072  10.840
17574W        W82559  31.415  37.969   1.777
17575W        W82560  23.216  27.563  10.461
17576W        W82561   6.831  43.013   1.342
17577W        W82562  26.967   4.238   1.228
17578W        W82563  44.924  14.704  14.888
17579W        W82564  21.696  43.981  11.769
17580W        W82565  17.868   1.867  11.930
17581W        W82566  18.120  37.782  10.710
17582W        W82567  32.671  14.165  12.103
17583W        W82568  41.255  22.756   1.731
17584W        W82569  32.836  43.834   2.666
17585W        W82570   8.525  32.620  12.318
17586W        W82571  40.608  37.186   2.264
17587W        W82572  35.979  35.654   4.140
17588W        W82573  15.309  31.529  11.149
17589W        W82574  20.739  35.916  14.937
17590W        W82575   5.217  43.494   2.790
17591W        W82576  19.113   2.245  14.433
17592W        W82577   4.757  41.052  12.157
17593W        W82578   9.658  42.256   2.342
17594W        W82579  30.203  21.046   2.806
17595W        W82580  19.285   5.707  14.881
17596W        W82581  17.143   5.109   2.395
17597W        W82582  15.548  40.974  11.634
17598W        W82583  12.375  15.509   0.684
17599W        W82584  39.757  26.285  14.423
17600W        W82585  19.511  27.939   2.903
17601W        W82586  44.981  16.585  14.016
17602W        W82587  22.613  27.376  12.398
17603W        W82588   0.802  42.223   2.325
17604W        W82589  20.672  27.083  13.082
17605W        W82590  28.386  28.263  12.826
17606W        W82591  17.006  33.628   3.242
17607W        W82592  43.374  43.772  14.444
17608W        W82593  31.959  31.314   2.285
17609W        W82594  20.036   7.637  13.866
17610W        W82595  28.009  18.289  11.593
17611W        W82596  33.548  19.256   0.040
17612W        W82597  36.547  12.815   3.677
17613W        W82598  38.189  13.775  14.491
17614W        W82599  21.551   1.330  13.322
17615W        W82600  38.584   7.878   2.521
17616W        W82601  35.160  11.911  11.956
17617W        W82602  32.837  16.148  11.437
17618W        W82603  10.476  40.110  13.246
17619W        W82604  11.017   0.337  12.465
17620W        W82605  28.456  19.682   1.795
17621W        W82606  16.607  29.912  10.703
17622W        W82607  28.853  32.844   4.522
17623W        W82608   2.173   7.006  12.482
17624W        W82609  27.046  16.322   1.903
17625W        W82610   3.606  15.684   4.657
17626W        W82611  10.385  12.800   3.104
17627W        W82612  23.540  33.457  14.413
17628W        W82613  35.909  10.928  12.982
17629W        W82614   7.577  38.374  11.518
17630W        W82615  43.956  26.078  13.254
17631W        W82616  40.534   5.905   3.125
17632W        W82617  40.398   1.908   4.896
17633W        W82618  18.797  26.221  12.060
17634W        W82619  27.257  28.181  12.269
17635W        W82620  37.369   5.749  13.147
17636W        W82621  25.931   6.856   4.415
17637W        W82622  30.321   4.721  14.815
17638W        W82623  37.967   0.833  13.383
17639W        W82624  37.612  19.141   1.329
17640W        W82625  27.726  33.998   0.893
17641W        W82626   8.389  40.925   0.067
17642W        W82627   7.930  29.094  11.068
17643W        W82628  21.640  19.063  13.127
17644W        W82629  20.099  24.577  12.161
17645W        W82630  22.985  26.324   4.113
17646W        W82631  20.064   8.088   4.182
17647W        W82632  33.987  24.629  14.862
17648W        W82633  27.277  35.307  11.106
17649W        W82634  42.432   2.891   0.143
17650W        W82635   5.303  18.094   1.867
17651W        W82636  41.887   2.824  11.650
17652W        W82637  14.409  31.216   3.301
17653W        W82638   6.246  11.185   0.754
17654W        W82639  30.552  35.091   2.801
17655W        W82640  32.124  28.784  11.276
17656W        W82641  41.620  19.528  13.756
17657W        W82642  12.103  15.149   1.142
17658W        W82643  21.435  15.936  14.262
17659W        W82644  28.916  25.250  13.123
17660W        W82645   6.825  24.109   1.201
17661W        W82646  11.714  28.012   0.372
17662W        W82647  13.369  43.852  14.304
17663W        W82648  21.586  35.115   3.911
17664W        W82649   6.809  31.720   4.215
17665W        W82650   1.201  16.861   0.871
17666W        W82651  39.299  17.019   3.329
17667W        W82652  42.324  16.785  12.787
17668W        W82653  13.384  38.877  10.730
17669W        W82654  30.819  36.950  12.483
17670W        W82655  29.678  44.781   4.101
17671W        W82656   7.755  10.280   2.806
17672W        W82657   4.846  15.093  10.941
17673W        W82658  27.140  22.712  13.916
17674W        W82659  31.889  22.807  14.290
17675W        W82660  21.715  25.022   4.576
17676W        W82661   6.346  22.714  11.538
17677W        W82662  29.357  16.685  11.151
17678W        W82663  18.692  23.566   2.941
17679W        W82664  44.278  32.152  14.405
17680W        W82665   8.814   4.599  12.494
17681W        W82666  18.228   5.455  13.434
17682W        W82667   3.984  21.673  14.522
17683W        W82668  11.529  18.870   1.895
17684W        W82669  37.511  17.932   3.719
17685W        W82670   9.138   8.745   1.285
17686W        W82671  17.280  27.192  14.755
17687W        W82672  24.262  10.615  10.706
17688W        W82673  30.214   1.384  11.496
17689W        W82674   1.023  41.848   0.971
17690W        W82675  44.480  35.382   4.346
17691W        W82676   9.427   5.688  11.799
17692W        W82677  41.602  31.519   0.267
17693W        W82678  18.806  25.096  14.341
17694W        W82679  43.668   1.992   4.726
17695W        W82680  32.221  44.474   2.602
17696W        W82681   0.889  37.492   1.126
17697W        W82682  37.120  11.836   4.511
17698W        W82683   8.003  10.635  10.605
17699W        W82684  13.398  36.994   4.290
17700W        W82685  42.730  44.985   3.114
17701W        W82686  37.871  14.519  11.477
17702W        W82687  27.542   8.804   2.353
17703W        W82688  37.483   0.785   0.456
17704W        W82689  24.123   4.950   1.179
17705W        W82690   4.779  32.830  12.079
17706W        W82691  44.306  28.493   3.843
17707W        W82692  12.794  19.878   2.857
17708W        W82693  39.474   5.350  11.383
17709W        W82694  10.679  19.152   3.753
17710W        W82695  15.678  21.141   0.965
17711W        W82696   7.852  13.063  14.863
17712W        W82697  11.567  14.470  12.572
17713W        W82698  31.029  11.858  11.964
17714W        W82699  34.344   8.374   3.636
17715W        W82700   5.776   1.779   0.823
17716W        W82701  36.600  16.108   1.758
17717W        W82702  27.782  40.297  14.844
17718W        W82703  38.165   5.003  10.129
17719W        W82704  30.198  31.022  14.798
17720W        W82705   9.752   9.903  10.823
17721W        W82706  30.166  11.257   2.844
17722W        W82707  36.176  13.207   1.360
17723W        W82708  41.831  10.254  13.486
17724W        W82709  17.011  17.252   0.769
17725W        W82710  29.686  26.398   1.791
17726W        W82711  43.435  44.697  11.412
17727W        W82712  40.015  11.799   4.820
17728W        W82713  14.359   9.123  13.343
17729W        W82714   5.826   6.960   0.933
17730W        W82715  14.316  32.462  11.626
17731W        W82716  36.513  17.195   2.752
17732W        W82717  21.621  22.649   1.328
17733W        W82718  38.472   1.523  13.304
17734W        W82719  21.229  27.021   1.709
17735W        W82720  32.358  31.968   1.285
17736W        W82721  12.741   7.317   3.241
17737W        W82722   1.737  20.131  14.490
17738W        W82723  37.532  12.078   4.757
17739W        W82724  11.233  34.156   0.165
17740W        W82725  43.249  13.642  11.593
17741W        W82726  23.835  34.438   2.201
17742W        W82727  34.003  22.791   4.417
17743W        W82728  21.535  33.921   1.352
17744W        W82729   2.453  33.794   1.399
17745W        W82730   4.153  10.291  10.659
17746W        W82731  33.613  25.979   0.284
17747W        W82732  14.840  24.482   3.706
17748W        W82733   6.443  25.652  10.721
17749W        W82734   3.321   4.162   4.523
17750W        W82735  32.427  13.922   0.477
17751W        W82736  13.992   5.940  12.950
17752W        W82737  33.320  38.300   1.228
17753W        W82738  38.977  41.424   4.463
17754W        W82739  31.084  10.119  12.445
17755W        W82740  19.503  10.678   0.545
17756W        W82741  33.059  43.207  13.136
17757W        W82742  23.046  13.588  14.413
17758W        W82743   2.017  29.861   2.740
17759W        W82744  31.372  27.532  10.741
17760W        W82745  13.359  29.070  14.980
17761W        W82746  43.514  36.961   4.069
17762W        W82747  42.101  30.570  12.107
17763W        W82748   8.581  14.900  14.960
17764W        W82749  35.494  40.826   2.814
17765W        W82750   6.120  28.447   3.174
17766W        W82751  12.187  24.995   3.626
17767W        W82752  19.123  33.046   4.180
17768W        W82753  18.000  27.605  14.609
17769W        W82754   2.700  28.112  10.860
17770W        W82755  25.413  29.703   4.959
17771W        W82756  36.002  37.756  11.074
17772W        W82757  21.282  23.490  10.622
17773W        W82758  20.033  18.244   4.485
17774W        W82759   7.775  30.280  14.306
17775W        W82760   5.718  24.093  13.350
17776W        W82761  32.048  42.806   4.799
17777W        W82762   5.799  15.855  11.985
17778W        W82763  27.977  21.672  14.346
17779W        W82764  25.226  44.913   2.397
17780W        W82765  32.680  33.814   0.229
17781W        W82766   8.372  21.023   1.484
17782W        W82767  22.954  15.735  14.331
17783W        W82768  14.359  16.645   4.663
17784W        W82769  16.738  31.392   0.782
17785W        W82770  36.240  13.670  13.978
17786W        W82771  12.398  41.778  11.636
17787W        W82772  11.212  21.467   1.408
17788W        W82773  42.726   5.292   0.995
17789W        W82774  10.512  36.086   3.831
17790W        W82775  33.485   2.841  12.851
17791W        W82776   0.540  41.836   0.778
17792W        W82777   8.918  19.592   3.141
17793W        W82778   8.366  42.256  12.027
17794W        W82779  20.298  20.276  13.905
17795W        W82780  15.545  33.627  14.471
17796W        W82781  33.944   4.288   0.337
17797W        W82782  13.324  31.416  13.353
17798W        W82783  31.964  29.533   0.790
17799W        W82784  18.336  38.913  12.669
17800W        W82785  10.432  16.049  11.619
17801W        W82786   7.814   3.202  14.728
17802W        W82787  17.345  37.318  13.171
17803W        W82788  13.342  15.208   3.308
17804W        W82789  32.126  12.513  13.097
17805W        W82790  23.219  23.993  11.538
17806W        W82791  19.255  29.456   3.630
17807W        W82792  41.317  28.551   1.544
17808W        W82793  10.285  24.183   3.103
17809W        W82794  30.523  17.182  12.418
17810W        W82795  20.270   4.260   0.893
17811W        W82796  28.947  44.026  12.227
17812W        W82797  17.032   0.346  13.959
17813W        W82798  19.826  27.510   2.864
17814W        W82799  32.447  21.656  11.854
17815W        W82800  26.992  36.073  14.277
17816W        W82801  42.569  10.804  13.384
17817W        W82802   9.667   5.342   0.815
17818W        W82803  44.890  11.428   2.447
17819W        W82804  30.159  38.504   4.055
17820W        W82805  35.351  38.422   2.868
17821W        W82806   0.778  17.071  10.741
17822W        W82807  35.575  27.694   2.562
17823W        W82808  22.070  39.490   1.822
17824W        W82809  35.939  29.846  13.808
17825W        W82810  30.382  29.624   1.821
17826W        W82811  43.309   6.765   0.315
17827W        W82812  24.036  42.978   0.641
17828W        W82813  38.307  16.726  14.757
17829W        W82814  11.837   3.992  14.980
17830W        W82815   4.252  33.391   2.311
17831W        W82816  31.431  40.827   2.114
17832W        W82817   4.838   5.226   3.262
17833W        W82818  19.626  22.972   1.590
17834W        W82819   2.240  38.164  12.057
17835W        W82820  40.009  36.498   0.862
17836W        W82821   8.716  44.821  10.651
17837W        W82822  19.956  21.798  11.122
17838W        W82823  39.527  27.081  14.854
17839W        W82824  28.420  28.935  14.936
17840W        W82825  39.335  10.772   0.995
17841W        W82826  26.403  18.612   2.673
17842W        W82827  15.965  12.529  10.862
17843W        W82828  35.926  27.754   0.436
17844W        W82829  24.195  29.433   2.626
17845W        W82830  41.396  27.552   2.310
17846W        W82831   2.437  44.307  14.897
17847W        W82832  10.162  41.931  13.886
17848W        W82833  18.827  31.643   0.075
17849W        W82834   4.711  15.170  14.240
17850W        W82835  25.525  26.437   4.188
17851W        W82836   1.410   9.427  14.091
17852W        W82837  20.935   0.822  13.547
17853W        W82838  34.013  18.766  12.495
17854W        W82839  37.334  25.105   2.477
17855W        W82840  33.053  41.972  14.976
17856W        W82841  26.732  40.031   2.740
17857W        W82842  40.013  44.753   3.645
17858W        W82843   4.874  39.385  14.421
17859W        W82844  39.811  12.879  12.068
17860W        W82845  12.206  36.377  13.144
17861W        W82846  22.757  27.766  11.574
17862W        W82847  24.721   3.339   3.704
17863W        W82848  16.917  12.649  14.942
17864W        W82849   7.894  29.633   4.438
17865W        W82850  18.075  28.067  12.796
17866W        W82851   3.332  12.871   3.156
17867W        W82852  26.800  14.409  12.893
17868W        W82853   2.012  29.106  13.833
17869W        W82854  23.085   0.480  11.957
17870W        W82855   1.893  36.536  12.644
17871W        W82856  19.974  33.341   1.295
17872W        W82857  16.049  10.781  10.947
17873W        W82858  22.909  28.124  10.732
17874W        W82859  10.962  10.708  14.790
17875W        W82860  44.184  12.780   3.202
17876W        W82861  25.230   5.243  13.773
17877W        W82862  44.700  41.409   3.835
17878W        W82863  28.698  37.051  13.961
17879W        W82864  43.348  38.233   1.761
17880W        W82865  40.305  35.955   0.919
17881W        W82866  36.112  18.731   3.683
17882W        W82867   4.700  17.457  10.242
17883W        W82868  26.614  17.766   2.623
17884W        W82869  24.682  22.221   2.568
17885W        W82870  42.286  24.826   2.230
17886W        W82871   1.434   7.927  11.182
17887W        W82872  42.816  15.297  13.880
17888W        W82873  32.109  27.988  14.770
17889W        W82874  40.476  23.174  14.807
17890W        W82875  17.538  30.346   3.232
17891W        W82876   8.650  35.041   1.990
17892W        W82877  39.770   6.015   1.437
17893W        W82878  19.069  13.844   2.680
17894W        W82879  32.176  44.981  12.231
17895W        W82880  30.831  13.325  14.325
17896W        W82881  28.381  31.869  14.304
17897W        W82882  31.554  12.442  12.503
17898W        W82883   4.503   5.262  13.740
17899W        W82884  14.138  38.798  10.935
17900W        W82885  18.820  43.521  12.541
17901W        W82886   0.509  37.966   1.674
17902W        W82887  39.454   7.783   0.928
17903W        W82888  24.823   1.952  13.458
17904W        W82889  23.235  32.149  11.701
17905W        W82890  32.552   5.621  10.987
17906W        W82891  31.112  24.696   0.359
17907W        W82892   3.815  26.442  14.705
17908W        W82893   6.776  30.986  13.732
17909W        W82894   4.395  44.341   4.465
17910W        W82895   8.235  43.268   4.020
17911W        W82896  21.068  21.795   4.038
17912W        W82897  21.496  22.129   1.459
17913W        W82898  38.792   7.328   3.801
17914W        W82899  24.654  24.486  14.978
17915W        W82900   6.856  21.108   3.572
17916W        W82901  37.402  17.082   2.335
17917W        W82902  27.552  27.130  13.041
17918W        W82903  32.152  25.458  11.222
17919W        W82904  11.901  24.734  14.840
17920W        W82905  17.601  32.832  13.065
17921W        W82906  14.112  33.953  14.574
17922W        W82907  23.575   3.446  11.987
17923W        W82908  24.607   5.381  10.753
17924W        W82909   9.825   1.477  12.021
17925W        W82910   6.619  13.735  12.433
17926W        W82911  29.131   5.433  10.501
17927W        W82912  35.623  25.604   2.209
17928W        W82913  41.249   2.895  11.586
17929W        W82914   9.292   3.849   4.400
17930W        W82915  30.683  24.969   1.287
17931W        W82916  19.262   8.207  10.662
17932W        W82917  37.568  37.069   3.666
17933W        W82918  13.642  13.899   2.006
17934W        W82919  37.125  35.397  11.936
17935W        W82920   0.963   5.800  10.824
17936W        W82921   7.047  40.869  14.859
17937W        W82922  27.165  37.331   4.064
17938W        W82923  26.122  10.591  13.123
17939W        W82924  35.677   4.833  13.666
17940W        W82925  18.703  17.567  12.485
17941W        W82926  24.120  30.455   1.558
17942W        W82927  21.248  35.440   0.345
17943W        W82928  16.299  44.201   1.873
17944W        W82929  19.188  39.346   4.516
17945W        W82930   1.019   2.346   4.547
17946W        W82931  42.648  12.398  10.784
17947W        W82932  43.950  22.658   4.564
17948W        W82933  32.581  24.049   0.755
17949W        W82934   6.408   3.869  13.377
17950W        W82935  18.787   4.010   1.775
17951W        W82936  44.075  19.060  10.955
17952W        W82937   7.163  24.540   2.747
17953W        W82938  38.331   0.930   2.601
17954W        W82939  29.921  39.889  11.603
17955W        W82940  31.508  11.234   2.816
17956W        W82941   5.669   2.873  12.067
17957W        W82942  32.144  41.361  11.734
17958W        W82943  41.397  42.346  11.125
17959W        W82944  27.010   3.787   0.773
17960W        W82945  19.784   6.241   0.479
17961W        W82946  40.766  44.401   3.782
17962W        W82947  35.377   5.223  12.901
17963W        W82948   3.906  12.656   0.877
17964W        W82949  21.062  37.895   1.948
17965W        W82950   0.230   0.889  11.103
17966W        W82951  36.276  31.116   3.675
17967W        W82952  27.484  24.287  13.162
17968W        W82953  28.200  40.125  12.596
17969W        W82954  23.282   1.948   0.528
17970W        W82955  32.488  39.532   2.935
17971W        W82956  36.105  26.463  14.078
17972W        W82957  39.904  28.202  14.498
17973W        W82958  18.596   0.971   1.347
17974W        W82959  10.076  27.426   3.640
17975W        W82960  12.323  32.996  14.523
17976W        W82961  22.553  32.136  10.620
17977W        W82962  17.088  16.288   4.620
17978W        W82963   4.300  26.538   2.127
17979W        W82964  27.165   2.610  10.618
17980W        W82965   1.384  35.121   1.597
17981W        W82966  37.466  16.023   2.205
17982W        W82967  37.753  35.118   3.765
17983W        W82968  27.321  27.645  10.849
17984W        W82969  39.245  12.781   1.954
17985W        W82970   6.884  18.266   2.207
17986W        W82971  38.508  40.957   3.007
17987W        W82972  44.613  28.184   3.574
17988W        W82973   0.480  16.381   1.424
17989W        W82974  42.940   1.766  13.847
17990W        W82975   8.748  23.491  12.635
17991W        W82976  30.732  35.113  11.182
17992W        W82977  34.088  15.267  10.658
17993W        W82978  18.931  10.770   2.608
17994W        W82979  20.815  31.084   1.701
17995W        W82980  42.735  17.859  14.605
17996W        W82981  30.977   7.272  10.261
17997W        W82982  11.361  11.376  13.867
17998W        W82983  21.906   1.770  13.260
17999W        W82984  19.566  18.186  13.374
18000W        W82985  37.444  17.573   1.430
18001W        W82986  27.411  41.768   4.572
18002W        W82987  18.087  26.490  12.701
18003W        W82988   4.833  11.307  10.667
18004W        W82989  31.461  25.048  11.368
18005W        W82990   5.510  43.799   4.595
18006W        W82991  30.773   1.053  14.331
18007W        W82992  10.086  24.208   1.745
18008W        W82993  14.831   0.022  12.635
18009W        W82994   5.152  21.039  11.159
18010W        W82995  37.822  40.535   2.844
18011W        W82996  27.735  25.753  12.348
18012W        W82997  12.258  26.863  13.363
18013W        W82998   2.167  26.716   2.675
18014W        W82999   6.604   9.284   3.794
18015W        W83000  36.057  19.199   3.922
18016W        W83001  19.501   4.470  14.299
18017W        W83002  16.690  32.609  11.272
18018W        W83003  26.193   3.807   3.540
18019W        W83004  14.834  44.976  13.901
18020W        W83005  17.575  36.716  12.650
18021W        W83006  26.037  36.125  13.504
18022W        W83007   7.322  30.618  10.763
18023W        W83008  37.041   7.879   1.424
18024W        W83009  33.995   8.237   3.022
18025W        W83010  18.356  30.169  11.123
18026W        W83011  36.081  19.609   3.632
18027W        W83012   3.654  29.025   4.979
18028W        W83013   4.544  17.812  13.035
18029W        W83014   6.752   2.465  13.107
18030W        W83015  35.318  20.593  11.559
18031W        W83016   1.193  33.166   1.365
18032W        W83017  28.323  11.644  14.678
18033W        W83018   0.616  34.169   2.679
18034W        W83019  25.468  41.788   4.156
18035W        W83020   2.256   7.932  10.788
18036W        W83021  36.221  16.492   2.362
18037W        W83022   0.834  18.831   4.584
18038W        W83023   4.245  35.370   1.673
18039W        W83024  18.241  10.644  14.104
18040W        W83025  27.392  20.297  10.576
18041W        W83026  40.042   7.060   1.221
18042W        W83027  25.400   7.639   2.260
18043W        W83028  11.159  19.138   3.964
18044W        W83029  24.243  26.512  10.773
18045W        W83030  20.783  27.015  13.591
18046W        W83031  25.837  28.884  11.905
18047W        W83032  35.588  23.112   3.653
18048W        W83033  18.284   2.612  13.963
18049W        W83034  13.897  43.939  13.695
18050W        W83035  18.255   8.867  11.808
18051W        W83036  17.294   9.316   4.117
18052W        W83037  20.383  21.844   4.617
18053W        W83038  44.133  18.638  11.864
18054W        W83039   9.928  12.480   3.060
18055W        W83040   8.953  29.011  14.344
18056W        W83041   2.868  11.165   0.303
18057W        W83042  36.828  24.895   3.249
18058W        W83043  21.089   7.477  14.713
18059W        W83044  36.837  11.681  11.484
18060W        W83045  18.836  19.486  12.467
18061W        W83046  32.193   6.354   3.527
18062W        W83047  39.526  16.859  10.569
18063W        W83048  22.411   1.884  13.389
18064W        W83049   4.274  40.862  12.055
18065W        W83050   4.200  11.873  14.260
18066W        W83051  11.216   6.469   3.816
18067W        W83052  25.614  11.655   3.454
18068W        W83053  41.957  18.669   0.966
18069W        W83054  29.279  37.081   2.422
18070W        W83055  33.023  41.214   1.313
18071W        W83056  30.863   8.407   5.498
18072W        W83057  28.733  36.026   1.805
18073W        W83058  31.676  18.576   2.834
18074W        W83059  21.285   2.781   0.164
18075W        W83060   4.326  21.595  11.684
18076W        W83061   8.308  33.290   3.722
18077W        W83062   6.365  25.515  14.323
18078W        W83063  17.590  35.584   4.694
18079W        W83064  37.323  20.482  11.502
18080W        W83065  41.273  33.429   2.776
18081W        W83066   9.218  22.837   2.187
18082W        W83067  26.681  14.937  12.840
18083W        W83068  38.059  34.902   4.160
18084W        W83069  24.173   9.357   2.971
18085W        W83070  12.277  16.302  12.903
18086W        W83071  19.569  43.782   1.897
18087W        W83072  44.719  21.057  11.693
18088W        W83073  27.083  11.447  12.358
18089W        W83074  27.970  34.480  13.921
18090W        W83075  43.905  42.958  13.005
18091W        W83076  27.558  32.940  12.610
18092W        W83077  27.231   0.744   1.372
18093W        W83078  35.347  19.578  14.371
18094W        W83079  23.160   1.793  11.652
18095W        W83080  18.792  27.472   3.142
18096W        W83081  19.482  40.500  12.874
18097W        W83082  44.086  37.521  11.187
18098W        W83083  40.817   4.406   1.052
18099W        W83084   2.506  18.116  14.995
18100W        W83085  41.277  15.769  11.480
18101W        W83086  42.251  40.083   0.953
18102W        W83087  33.826  32.144   2.847
18103W        W83088  21.776  33.376  13.697
18104W        W83089  34.636  24.010   0.237
18105W        W83090   7.368  43.840   2.228
18106W        W83091  40.068  41.408  11.110
18107W        W83092  39.253  28.572  13.401
18108W        W83093  11.126  12.227  13.792
18109W        W83094  19.039  41.034   0.990
18110W        W83095  34.067   8.111   2.535
18111W        W83096  43.967   8.436   2.863
18112W        W83097  23.935  10.866   3.636
18113W        W83098   3.533   6.160  13.869
18114W        W83099  41.188   1.947  14.463
18115W        W83100   4.813  24.466   1.727
18116W        W83101  30.996  41.509  14.029
18117W        W83102   2.793  41.387  10.621
18118W        W83103  33.461   5.359   0.499
18119W        W83104  37.574  22.251   1.372
18120W        W83105   2.198  21.288  11.658
18121W        W83106   4.975  32.588   2.925
18122W        W83107  41.182  10.381  12.078
18123W        W83108  19.809  43.908   0.522
18124W        W83109  17.816  22.735  14.722
18125W        W83110  30.654  32.954  10.721
18126W        W83111  20.538  17.032  13.406
18127W        W83112  12.472  16.102  13.336
18128W        W83113   2.145   3.013  13.860
18129W        W83114   7.448  15.172  13.417
18130W        W83115   3.233  26.211  14.354
18131W        W83116  38.332  38.035  12.047
18132W        W83117  26.968   5.669   2.154
18133W        W83118  39.336   9.675   1.879
18134W        W83119   0.426  29.164  11.204
18135W        W83120  22.469  11.725  13.432
18136W        W83121   8.018  36.515  12.128
18137W        W83122  28.698   2.451   3.708
18138W        W83123  23.255  27.437  12.992
18139W        W83124  33.022  38.755  11.289
18140W        W83125  23.697  19.687  12.878
18141W        W83126  21.161  28.419   0.239
18142W        W83127  17.151  34.416  12.894
18143W        W83128   2.795  44.940  12.509
18144W        W83129   3.167   4.764   3.770
18145W        W83130  11.597  44.338  14.023
18146W        W83131   0.378  24.473  11.614
18147W        W83132  22.230  29.435   1.800
18148W        W83133  36.115  33.531   0.489
18149W        W83134  13.407  18.085  13.028
18150W        W83135   4.116  33.950  13.568
18151W        W83136  10.238   2.237  10.960
18152W        W83137  31.069  32.186   4.813
18153W        W83138   5.381  22.715  13.181
18154W        W83139  38.805  22.174  14.335
18155W        W83140  12.227   3.994   1.844
18156W        W83141  19.100  25.195   0.530
18157W        W83142  28.018  27.233  10.350
18158W        W83143  11.731  35.598   1.410
18159W        W83144  35.900  38.767  14.020
18160W        W83145  21.131  35.920  10.297
18161W        W83146  21.777  16.544   0.783
18162W        W83147   1.496  34.906  13.080
18163W        W83148  16.615  27.101   3.158
18164W        W83149  26.406  26.429   3.948
18165W        W83150  28.877  31.652   4.963
18166W        W83151   1.381  23.003  12.480
18167W        W83152  17.014  13.153   0.630
18168W        W83153   6.612  38.367  14.719
18169W        W83154  28.191  21.021   0.407
18170W        W83155  25.648  37.582   3.761
18171W        W83156  42.030   3.235   3.694
18172W        W83157  18.709  13.761  14.854
18173W        W83158  21.701  17.558  11.580
18174W        W83159   4.558   6.530   3.219
18175W        W83160  31.236   8.754  12.552
18176W        W83161  12.788  20.300  14.209
18177W        W83162   3.695  13.274   1.055
18178W        W83163  25.988   7.685   1.431
18179W        W83164   9.873  23.540  10.133
18180W        W83165   7.830   9.068  13.531
18181W        W83166  36.933  33.586   1.387
18182W        W83167  42.873  25.670   1.450
18183W        W83168  13.900  16.753  10.980
18184W        W83169  26.266  15.590  13.338
18185W        W83170  44.964   8.164  13.775
18186W        W83171  24.932  34.833  14.442
18187W        W83172  28.447  37.524  14.057
18188W        W83173  37.301  16.268   3.618
18189W        W83174  20.504   4.722   0.924
18190W        W83175  27.684  43.550  11.099
18191W        W83176  38.365  37.506   3.530
18192W        W83177  40.600  27.862  14.065
18193W        W83178  24.931   1.209   1.123
18194W        W83179  12.370  32.725   2.767
18195W        W83180  43.777  31.239  12.605
18196W        W83181  40.057  28.941  10.653
18197W        W83182  42.587   8.638  11.302
18198W        W83183   2.304  29.000  10.752
18199W        W83184  31.795  38.721  11.833
18200W        W83185   7.073   1.588   1.669
18201W        W83186  27.175  37.538  14.359
18202W        W83187  37.921  15.248   2.236
18203W        W83188   7.815  34.011   2.651
18204W        W83189  15.101  19.773   3.070
18205W        W83190   7.585  18.609   2.081
18206W        W83191   2.904  24.629   1.764
18207W        W83192   5.763  24.993   3.897
18208W        W83193  24.150  29.112   0.020
18209W        W83194   0.003   5.930  14.508
18210W        W83195   9.180  30.158  10.950
18211W        W83196  30.389  41.463   2.730
18212W        W83197  16.272  17.488   3.729
18213W        W83198  14.733  28.399   3.114
18214W        W83199  18.225  42.658   1.319
18215W        W83200   7.886   7.909  12.392
18216W        W83201  23.450   3.840   4.631
18217W        W83202  27.802  26.243  12.487
18218W        W83203   7.404  14.569  11.063
18219W        W83204  24.505  34.112  14.856
18220W        W83205  41.938  21.867   5.009
18221W        W83206   5.992  17.076   2.852
18222W        W83207  32.897  20.810   0.675
18223W        W83208  12.698  42.817  10.677
18224W        W83209  19.656  12.970  14.794
18225W        W83210   9.953  11.894   0.406
18226W        W83211   3.224  31.876  14.831
18227W        W83212  14.170   7.598  13.569
18228W        W83213  22.228  36.435   2.703
18229W        W83214  27.617  15.294  13.552
18230W        W83215  37.031  44.775  12.661
18231W        W83216  12.155  13.132  10.345
18232W        W83217  35.223  36.827  11.082
18233W        W83218  29.845   8.138  12.442
18234W        W83219  20.741   1.716  12.406
18235W        W83220  10.380  28.988   3.067
18236W        W83221   4.115  35.448  11.975
18237W        W83222  28.552  15.783  14.869
18238W        W83223  38.457   3.419   3.901
18239W        W83224  30.276  12.954  12.697
18240W        W83225   3.285  38.677   3.077
18241W        W83226  32.144  15.145  13.606
18242W        W83227  16.245  35.551  10.822
18243W        W83228  44.661  20.239  10.048
18244W        W83229   7.940  40.697  11.647
18245W        W83230  18.854   9.823   1.693
18246W        W83231  31.932  23.341   2.599
18247W        W83232  37.061  27.868  12.388
18248W        W83233  23.710  39.147  13.763
18249W        W83234  37.501  30.599   4.566
18250W        W83235   8.426   5.239   2.635
18251W        W83236  29.655  12.558   0.475
18252W        W83237  12.766  22.525  12.203
18253W        W83238  31.630   0.258  13.034
18254W        W83239   4.857   7.392   3.642
18255W        W83240  43.039  22.583   2.882
18256W        W83241  11.124  15.457   2.338
18257W        W83242  40.450  13.357  11.695
18258W        W83243  12.654  16.370   3.698
18259W        W83244  18.370  14.216   4.303
18260W        W83245  44.828  33.126  12.933
18261W        W83246   1.291   7.814   4.669
18262W        W83247  31.565  39.715   4.541
18263W        W83248  36.384  43.358   4.041
18264W        W83249  18.185  35.833  13.129
18265W        W83250  34.322  43.293   0.152
18266W        W83251  22.956  44.269  14.963
18267W        W83252  34.619  40.492   2.278
18268W        W83253  23.291   8.617  11.592
18269W        W83254  34.373  28.219   0.931
18270W        W83255  21.017  13.676   2.699
18271W        W83256  44.828  42.784  12.919
18272W        W83257   5.233  29.001   4.685
18273W        W83258  35.121  39.101   0.817
18274W        W83259   7.138  13.952   2.623
18275W        W83260  41.766   9.691  14.464
18276W        W83261  34.103   5.516   2.038
18277W        W83262   6.326   2.225  12.998
18278W        W83263   0.845  23.705   2.637
18279W        W83264  22.622   2.853   4.930
18280W        W83265  14.643  12.873   0.386
18281W        W83266  11.426  26.083  11.605
18282W        W83267   6.507  31.340  11.252
18283W        W83268  12.665  30.441  10.766
18284W        W83269  40.816  30.694   4.178
18285W        W83270  33.462  28.210   2.091
18286W        W83271  23.507  15.243   3.193
18287W        W83272   0.271  31.182  12.860
18288W        W83273  20.677  32.955  10.791
18289W        W83274  40.816  41.985   3.361
18290W        W83275  25.446  30.894   2.651
18291W        W83276  34.433  28.744   0.926
18292W        W83277   4.805  29.446  10.635
18293W        W83278  17.996  36.353   3.349
18294W        W83279  30.914   7.152  13.526
18295W        W83280   4.812  44.949   2.052
18296W        W83281  41.285  22.038  12.023
18297W        W83282  40.272  33.322  11.340
18298W        W83283   7.624  22.142   3.371
18299W        W83284  37.875   9.271   3.184
18300W        W83285  37.794  44.829   3.624
18301W        W83286  21.733   9.980  12.956
18302W        W83287  39.404  22.563   4.386
18303W        W83288  18.675   2.228  10.785
18304W        W83289  20.572  41.329  13.950
18305W        W83290  33.657   9.517  13.130
18306W        W83291   5.663  24.126   2.006
18307W        W83292   6.434  22.227   2.649
18308W        W83293  35.278   1.890   2.436
18309W        W83294  24.323  18.609  12.316
18310W        W83295  42.143  10.454  10.212
18311W        W83296  28.445  42.793  14.286
18312W        W83297  19.659   0.017  10.450
18313W        W83298   8.675  39.428  12.956
18314W        W83299  16.925   7.190   1.840
18315W        W83300  13.098  14.777   4.815
18316W        W83301  34.666  22.706  11.170
18317W        W83302  28.357  15.514  12.603
18318W        W83303  33.349   4.091   1.168
18319W        W83304  23.680  19.341  11.899
18320W        W83305  33.401  31.677  14.032
18321W        W83306  35.715  13.815  12.563
18322W        W83307  22.087  40.914  13.357
18323W        W83308  11.320  44.576   0.777
18324W        W83309  24.531   8.188  14.895
18325W        W83310  43.057   0.798   5.165
18326W        W83311  33.131  22.641   1.302
18327W        W83312  43.152  29.919   1.025
18328W        W83313   3.843  17.250  10.694
18329W        W83314  12.601  20.268  14.764
18330W        W83315  43.001  26.295  12.215
18331W        W83316  11.614   9.335  14.862
18332W        W83317  20.868  28.122   2.154
18333W        W83318   3.047  40.978   2.822
18334W        W83319  27.133  34.594   9.562
18335W        W83320  28.310  17.451   1.340
18336W        W83321  11.766  21.334   2.179
18337W        W83322  44.944  38.873   0.716
18338W        W83323  14.684  22.209  14.432
18339W        W83324  24.269  42.986  12.760
18340W        W83325  42.539  11.172   3.838
18341W        W83326  13.733  35.589   2.129
18342W        W83327  17.102  25.370  11.215
18343W        W83328  27.233  23.858  12.987
18344W        W83329  26.535  35.658  11.445
18345W        W83330   2.678   1.966  13.985
18346W        W83331  13.361  19.445  12.448
18347W        W83332  10.280   0.688   0.940
18348W        W83333   6.196  15.157   1.286
18349W        W83334  30.355  17.296   0.813
18350W        W83335  23.559   5.292  11.790
18351W        W83336  32.960  11.262   2.411
18352W        W83337  15.547  43.248  11.929
18353W        W83338  24.598  36.812  13.538
18354W        W83339  36.218   9.773  10.273
18355W        W83340  17.701  16.046  10.993
18356W        W83341  16.571  13.657   1.662
18357W        W83342  26.691  37.515  10.044
18358W        W83343  42.813   0.837   4.635
18359W        W83344  18.705  11.182   2.403
18360W        W83345  12.464  42.781   2.276
18361W        W83346  33.427  41.806   4.489
18362W        W83347   9.149  40.646   5.113
18363W        W83348  11.289  32.584  12.086
18364W        W83349   1.604  29.207   3.294
18365W        W83350  30.585  10.638   1.583
18366W        W83351  33.385  24.168   2.335
18367W        W83352  15.105   1.231   2.379
18368W        W83353  31.354  11.110   4.510
18369W        W83354  17.299   7.193   1.444
18370W        W83355  42.903  12.927   4.394
18371W        W83356   6.499  44.886  13.001
18372W        W83357   0.409  16.697  14.345
18373W        W83358  15.548  39.472  12.445
18374W        W83359  35.140  41.829   3.146
18375W        W83360  37.368  35.387   0.821
18376W        W83361  30.508   9.411   3.283
18377W        W83362  24.530  25.002   2.923
18378W        W83363  39.784  44.872   1.501
18379W        W83364  39.796  38.840   1.949
18380W        W83365  31.687   2.930   3.322
18381W        W83366  43.977   9.894   1.506
18382W        W83367  17.578  27.877   2.764
18383W        W83368  23.441  40.732  11.116
18384W        W83369  34.141   9.718  14.601
18385W        W83370  25.125  42.081   3.647
18386W        W83371  17.019  42.124  12.569
18387W        W83372  14.578  39.251  14.918
18388W        W83373  11.349   1.479  14.030
18389W        W83374  32.461  14.199  14.853
18390W        W83375  12.182  25.763  11.995
18391W        W83376  28.969  15.360   2.851
18392W        W83377  42.361  28.502  13.790
18393W        W83378  38.923  44.006   0.786
18394W        W83379  22.063  33.048  13.215
18395W        W83380  33.945   7.006  14.918
18396W        W83381  38.037   7.842   3.637
18397W        W83382  25.470  28.006   1.811
18398W        W83383  38.026  31.574  12.160
18399W        W83384  33.582   5.920   4.201
18400W        W83385  37.058  31.663  13.326
18401W        W83386  12.805  13.231   4.585
18402W        W83387  16.826  39.763  10.861
18403W        W83388  14.212  16.381   4.232
18404W        W83389  40.875  37.062  11.618
18405W        W83390  43.852   3.736   0.121
18406W        W83391  28.523  31.211  12.909
18407W        W83392  38.763  18.456   3.647
18408W        W83393   3.904  34.316   2.175
18409W        W83394  33.392  14.765   2.816
18410W        W83395   4.502  30.832  14.503
18411W        W83396  43.357  31.450   3.689
18412W        W83397  14.557  23.639   4.790
18413W        W83398  32.863  28.550   0.772
18414W        W83399   3.813  16.849  12.461
18415W        W83400   0.059  10.165   3.185
18416W        W83401  17.255   9.652  10.561
18417W        W83402  30.457  12.894   4.280
18418W        W83403  39.557  40.422   4.883
18419W        W83404  34.736   8.362   3.268
18420W        W83405  21.814  39.859   2.683
18421W        W83406  17.928  11.677   2.430
18422W        W83407   9.737  19.653  12.402
18423W        W83408  33.552  37.462  12.952
18424W        W83409  40.416  31.921  12.147
18425W        W83410  10.321  25.998   3.069
18426W        W83411  17.434   6.566  10.769
18427W        W83412  32.769  21.214   0.364
18428W        W83413  14.565  24.576   4.814
18429W        W83414  43.839  25.231   2.889
18430W        W83415  18.324  12.209  13.515
18431W        W83416   2.646  17.531   1.796
18432W        W83417  40.956   7.855  13.775
18433W        W83418  43.903   8.930  14.838
18434W        W83419  43.938  24.990  10.625
18435W        W83420   8.214   9.605  14.421
18436W        W83421  15.703  10.304   4.522
18437W        W83422  18.752   2.935  12.826
18438W        W83423  35.882  11.703   0.260
18439W        W83424  10.166  38.128   1.291
18440W        W83425  32.474  21.841   4.171
18441W        W83426  44.543  38.531  10.152
18442W        W83427  30.241  34.118  11.426
18443W        W83428  12.161  24.548  14.408
18444W        W83429   5.674   2.382  14.059
18445W        W83430  35.617  10.739   2.830
18446W        W83431  41.756  41.991  11.867
18447W        W83432  37.544  32.340  13.971
18448W        W83433   1.527  23.672   3.815
18449W        W83434   5.203  12.921   4.247
18450W        W83435   8.785  12.937  14.701
18451W        W83436   1.582   6.553   0.192
18452W        W83437   9.609  28.575   0.139
18453W        W83438  37.273   6.714  14.495
18454W        W83439  36.530  42.500   2.267
18455W        W83440  33.083  32.951  13.009
18456W        W83441   2.671   6.908  12.623
18457W        W83442   7.085   8.132   9.830
18458W        W83443  37.742  36.065   3.823
18459W        W83444   4.854  41.870  12.643
18460W        W83445  14.168  37.868  12.788
18461W        W83446  19.543   4.146   1.293
18462W        W83447   0.556  40.090  14.329
18463W        W83448  12.573  11.067  11.630
18464W        W83449  28.409  19.555  12.846
18465W        W83450  25.917  23.071   2.370
18466W        W83451  41.261  28.670   2.045
18467W        W83452  36.047  29.420   1.813
18468W        W83453  21.845  44.379   0.761
18469W        W83454  20.129   4.350  12.118
18470W        W83455   9.687   1.723   2.662
18471W        W83456  34.524   9.955   5.417
18472W        W83457  34.133   3.861   3.650
18473W        W83458  15.324  18.732  13.336
18474W        W83459  34.401  32.068  10.822
18475W        W83460  10.942   4.332   3.533
18476W        W83461   7.623  42.988  14.150
18477W        W83462  31.515  35.381   4.610
18478W        W83463  42.960  22.557   0.012
18479W        W83464  19.166  24.602  11.747
18480W        W83465  35.018  10.374  14.722
18481W        W83466  44.385  29.396  11.577
18482W        W83467  33.833  44.455  10.614
18483W        W83468   1.753  39.567   1.812
18484W        W83469  21.934  33.649   0.435
18485W        W83470   0.977  39.977  10.771
18486W        W83471  44.210  11.212  14.371
18487W        W83472  43.411  30.695  13.925
18488W        W83473   1.726   1.678  11.434
18489W        W83474  39.442  15.211  10.297
18490W        W83475  23.077  39.536   4.439
18491W        W83476  40.276   4.174  11.623
18492W        W83477   0.984   2.773  12.444
18493W        W83478  11.279  36.553   3.629
18494W        W83479  21.592  17.653   3.272
18495W        W83480   0.002  11.903  14.365
18496W        W83481  33.472  24.636  10.598
18497W        W83482  29.439   5.354   0.481
18498W        W83483  32.403  20.900  11.222
18499W        W83484  30.154   1.283  13.965
18500W        W83485  16.148  39.768  13.326
18501W        W83486   6.105  30.601  13.459
18502W        W83487  28.201  12.875  14.068
18503W        W83488  23.705  29.799  14.456
18504W        W83489  40.779  33.758   4.071
18505W        W83490   8.336   9.043   3.803
18506W        W83491  15.196   4.907  11.790
18507W        W83492  35.112  10.114   2.200
18508W        W83493  22.568  16.796  11.826
18509W        W83494  16.239   8.648   4.147
18510W        W83495  11.982  11.165  14.945
18511W        W83496  24.618  19.332  14.230
18512W        W83497   9.604  21.723  14.479
18513W        W83498  28.100  23.198  12.421
18514W        W83499  39.024  30.385   2.729
18515W        W83500  12.201  29.158   0.750
18516W        W83501   7.430  12.752   2.224
18517W        W83502  31.108  22.606   5.001
18518W        W83503  41.869  29.290   1.402
18519W        W83504  23.294  28.874  13.372
18520W        W83505  43.258   1.495  13.018
18521W        W83506  22.001  27.595   4.086
18522W        W83507  25.282  27.816   1.367
18523W        W83508  39.756  26.392   3.207
18524W        W83509  27.652  32.177   1.899
18525W        W83510   9.909  29.412  13.845
18526W        W83511  19.786  44.176   1.615
18527W        W83512  18.304   1.752  12.643
18528W        W83513  31.349  14.311  12.453
18529W        W83514  40.973  24.347   0.865
18530W        W83515  26.551  22.086   3.056
18531W        W83516  22.090  34.364  11.120
18532W        W83517   6.606   4.449  14.747
18533W        W83518   8.395  41.974   1.431
18534W        W83519  32.328  37.464   3.610
18535W        W83520  31.133   1.991   4.545
18536W        W83521   1.699  42.398   1.565
18537W        W83522  13.680  14.356   1.443
18538W        W83523  14.260  22.636  11.140
18539W        W83524  18.221   1.811  11.552
18540W        W83525  26.393   4.138  11.116
18541W        W83526  19.531  18.099  11.331
18542W        W83527  22.535   3.413   1.713
18543W        W83528  29.729  28.091   5.478
18544W        W83529  15.586  41.507   1.457
18545W        W83530  19.927   2.415  13.502
18546W        W83531   8.189   0.312  14.536
18547W        W83532  36.436  23.179   1.388
18548W        W83533  24.513  17.527  13.002
18549W        W83534  20.488  14.621   3.598
18550W        W83535  22.789  42.782   0.828
18551W        W83536  20.887  16.558  12.572
18552W        W83537  25.463  27.679   3.141
18553W        W83538  42.333   2.219  11.301
18554W        W83539  40.996  41.509   1.797
18555W        W83540  11.149  23.264  11.675
18556W        W83541  18.274  28.643   0.418
18557W        W83542  23.802  22.055   3.550
18558W        W83543   4.158  15.162   4.662
18559W        W83544  16.503  27.552  14.899
18560W        W83545  14.582  18.064   1.866
18561W        W83546  37.246  22.809  14.496
18562W        W83547  43.040  20.265  11.583
18563W        W83548  21.632   7.935  11.541
18564W        W83549  37.957  34.966   9.946
18565W        W83550  22.486   8.658   2.699
18566W        W83551  18.642   8.153  11.994
18567W        W83552   3.221  18.390   4.393
18568W        W83553  22.960  12.164  14.431
18569W        W83554   4.877  43.619  14.552
18570W        W83555  36.950  35.113  10.959
18571W        W83556  19.067  27.611   2.741
18572W        W83557  33.741  37.317  10.609
18573W        W83558  43.497  30.201  11.832
18574W        W83559  28.128   7.392  14.733
18575W        W83560  19.873  26.873   0.067
18576W        W83561  30.600  31.542  11.366
18577W        W83562   6.603  29.639   2.332
18578W        W83563  37.836   3.709   2.326
18579W        W83564  31.581  19.446   0.796
18580W        W83565  40.223  22.721  11.661
18581W        W83566   1.591  41.972   4.613
18582W        W83567  39.507   3.948   4.060
18583W        W83568  18.697  30.528  13.216
18584W        W83569   2.841  21.960   0.268
18585W        W83570  39.602  39.873  11.593
18586W        W83571  38.577  34.843  10.536
18587W        W83572  13.280  30.568   4.964
18588W        W83573  32.997   5.448  11.206
18589W        W83574  14.010   9.339   4.568
18590W        W83575  42.292  22.701  10.682
18591W        W83576   2.360   4.538  13.989
18592W        W83577   5.288  18.225   0.173
18593W        W83578  39.440   1.821  12.928
18594W        W83579  15.477  23.151  14.782
18595W        W83580   8.461   6.194   2.710
18596W        W83581  14.612  31.909  11.387
18597W        W83582   2.219  34.499  11.917
18598W        W83583  13.707   2.677   1.005
18599W        W83584  23.217  37.042  10.749
18600W        W83585   3.858  32.810   0.441
18601W        W83586  33.615   6.638   3.087
18602W        W83587  18.042  22.706  13.923
18603W        W83588  28.979  11.109  14.046
18604W        W83589   0.390  25.576  13.490
18605W        W83590  10.935  39.385   2.225
18606W        W83591  10.368  22.240   1.827
18607W        W83592  35.974  18.761   2.618
18608W        W83593  14.576  32.072  14.043
18609W        W83594  43.906  20.112  13.961
18610W        W83595  41.965   0.170  13.494
18611W        W83596  32.015  29.197   4.816
18612W        W83597  29.891  38.861  11.572
18613W        W83598  10.672  43.898   3.112
18614W        W83599   6.669  22.281   4.635
18615W        W83600   7.885  11.919   3.679
18616W        W83601  18.114  16.324  13.364
18617W        W83602  20.077  40.905   1.313
18618W        W83603  40.764  39.352   3.262
18619W        W83604   2.956  23.684   4.182
18620W        W83605   1.762  36.631   4.098
18621W        W83606   8.164  40.370   4.245
18622W        W83607  39.505  27.461  12.534
18623W        W83608   9.848  12.992   3.135
18624W        W83609  24.736   4.661   0.350
18625W        W83610  25.342   8.892  12.964
18626W        W83611  13.232  20.727   4.398
18627W        W83612  25.623   4.501  14.951
18628W        W83613  41.015  43.595  11.948
18629W        W83614  37.820  35.554  13.042
18630W        W83615  19.255  38.134   3.656
18631W        W83616   2.768  28.155   0.477
18632W        W83617  26.540  25.681   2.839
18633W        W83618  35.607  23.617  13.440
18634W        W83619   8.549  34.089  14.840
18635W        W83620  28.065  28.083   1.896
18636W        W83621  28.106  24.631   2.926
18637W        W83622  10.401  12.156   0.445
18638W        W83623   2.715   0.118  13.439
18639W        W83624   6.938  26.652  11.935
18640W        W83625   1.390  15.218   4.850
18641W        W83626   1.427   4.178   4.304
18642W        W83627  32.423  16.004  13.986
18643W        W83628  35.598   7.423   5.353
18644W        W83629  40.284   0.601   0.344
18645W        W83630  21.138   0.720  14.016
18646W        W83631  37.491   8.903  14.487
18647W        W83632  10.752  14.602  14.989
18648W        W83633  41.922  44.823   0.802
18649W        W83634   7.172  14.394   1.167
18650W        W83635   4.692  42.997   4.159
18651W        W83636   5.725  29.645   2.739
18652W        W83637  37.326   4.338  10.975
18653W        W83638  14.078  15.024  12.388
18654W        W83639  32.955   1.258   4.288
18655W        W83640   7.029  29.120  14.359
18656W        W83641  13.570  30.584  11.131
18657W        W83642  42.609  40.521   0.539
18658W        W83643  43.915  31.991  13.925
18659W        W83644  25.145  39.845   4.611
18660W        W83645   5.834  13.869   0.333
18661W        W83646   9.317  29.893  14.414
18662W        W83647  12.187  36.978   1.652
18663W        W83648  13.165  34.675   4.434
18664W        W83649  13.007  14.524  12.963
18665W        W83650   3.338  39.177   3.782
18666W        W83651  13.689   3.699  10.678
18667W        W83652  31.697   9.863   4.130
18668W        W83653  32.818   7.242  10.703
18669W        W83654  28.994  25.071   2.600
18670W        W83655   4.367  33.193  14.825
18671W        W83656   0.218  25.544   0.770
18672W        W83657  19.933   4.527  10.144
18673W        W83658  21.539  17.854  12.389
18674W        W83659   9.433  13.707  12.444
18675W        W83660  25.673  12.071  14.994
18676W        W83661  14.735   0.472  13.816
18677W        W83662  30.052  39.624  13.433
18678W        W83663  36.829  40.746   2.153
18679W        W83664  32.008  40.052   4.844
18680W        W83665  30.200  41.484   1.874
18681W        W83666  13.147  41.596  12.106
18682W        W83667  28.292  43.340  12.105
18683W        W83668  16.261  21.014   2.695
18684W        W83669  42.999  27.319  11.201
18685W        W83670  17.832  37.072  12.989
18686W        W83671  19.550  39.380  14.501
18687W        W83672   1.997  28.431  12.625
18688W        W83673  25.668  34.825  13.529
18689W        W83674  23.942  29.542   3.621
18690W        W83675  39.858  34.345  13.827
18691W        W83676  11.530  14.401   3.336
18692W        W83677  41.968  43.277  12.872
18693W        W83678   0.340  24.322   2.180
18694W        W83679  23.294  28.973   2.767
18695W        W83680  30.592  32.764   4.749
18696W        W83681   5.205   5.915   1.263
18697W        W83682   2.922   8.903  14.892
18698W        W83683  16.058  19.707  10.663
18699W        W83684  16.579  20.123   2.886
18700W        W83685   5.700   6.416  14.492
18701W        W83686  42.535  17.185   0.151
18702W        W83687   2.840  28.466   4.342
18703W        W83688  12.293   7.904   2.606
18704W        W83689  36.226   4.558  12.123
18705W        W83690  40.982  24.281  13.463
18706W        W83691  15.537   8.928   4.413
18707W        W83692  42.962  19.109   0.851
18708W        W83693  20.483   1.074  13.501
18709W        W83694  17.821   4.347  13.159
18710W        W83695   2.386  32.202   4.111
18711W        W83696  16.629  22.745   4.675
18712W        W83697  30.062   8.727   3.542
18713W        W83698  44.052  19.847  12.193
18714W        W83699  23.661  39.099   3.602
18715W        W83700  23.933  26.045   1.428
18716W        W83701  38.739  37.565   3.171
18717W        W83702  13.171  35.863  10.401
18718W        W83703  40.309  29.157   1.694
18719W        W83704  26.621  27.606  14.815
18720W        W83705  22.129  17.920   0.200
18721W        W83706  37.809  30.468   4.178
18722W        W83707  19.200  36.802   4.161
18723W        W83708  19.523  29.917  13.968
18724W        W83709   3.114  20.173   4.162
18725W        W83710  26.548   5.672   1.128
18726W        W83711   7.875   4.376   2.618
18727W        W83712   5.780   8.226  13.807
18728W        W83713  30.359  37.915  11.597
18729W        W83714  40.093  39.613  14.780
18730W        W83715  17.414  23.570  14.432
18731W        W83716  23.118   9.685   1.395
18732W        W83717  10.637   2.175   1.250
18733W        W83718  10.330   3.733   1.463
18734W        W83719  38.468  10.794   2.933
18735W        W83720   7.133  28.850  13.921
18736W        W83721  25.647   2.659   0.715
18737W        W83722  17.857   3.212   2.425
18738W        W83723  14.602  33.422  11.555
18739W        W83724  23.184  32.498   0.471
18740W        W83725  18.274  40.395   1.872
18741W        W83726  35.235  22.791   3.240
18742W        W83727  31.041  25.435  12.521
18743W        W83728  44.450  38.818  10.959
18744W        W83729   4.947  24.383  14.459
18745W        W83730  29.529  16.187  13.471
18746W        W83731  21.168   1.574  14.966
18747W        W83732  38.537   8.195  14.758
18748W        W83733  37.007  34.908  12.162
18749W        W83734  12.843  17.017  11.664
18750W        W83735  20.224   8.861  13.524
18751W        W83736  28.262  24.399  14.927
18752W        W83737  12.847  42.150   2.842
18753W        W83738  12.861   4.783   0.198
18754W        W83739  37.498  11.241  11.520
18755W        W83740  18.144   6.754   0.885
18756W        W83741  16.793  37.912   2.236
18757W        W83742  33.260  27.546  14.224
18758W        W83743  14.035   8.736  12.111
18759W        W83744  20.102  20.659   1.151
18760W        W83745  11.269  27.288  12.363
18761W        W83746   7.846  15.203  10.664
18762W        W83747   2.792   2.465   3.861
18763W        W83748  27.472  36.348   0.390
18764W        W83749   3.907   2.727  13.480
18765W        W83750  20.052  38.611  12.070
18766W        W83751   2.790  12.125   0.437
18767W        W83752  29.040  42.319   1.850
18768W        W83753  17.137   7.244   0.968
18769W        W83754  28.052   4.944   2.729
18770W        W83755   7.669  41.034   4.678
18771W        W83756  35.287   9.514   9.774
18772W        W83757  39.474  44.334  12.413
18773W        W83758  19.374   6.528   0.398
18774W        W83759   0.686  10.870  13.956
18775W        W83760  29.637  26.015  13.192
18776W        W83761   3.357  11.238   1.600
18777W        W83762  37.113  36.672  13.375
18778W        W83763  33.701  17.047   0.764
18779W        W83764   7.185  11.285  12.477
18780W        W83765   2.266  17.594   3.702
18781W        W83766  39.549   9.063  12.436
18782W        W83767  14.058  29.570  13.846
18783W        W83768  39.974  23.153  12.451
18784W        W83769  11.874  26.951   2.350
18785W        W83770  11.636  40.775   4.131
18786W        W83771  26.530  21.251  10.251
18787W        W83772  44.617  16.246  11.684
18788W        W83773  34.614  27.981   1.356
18789W        W83774  14.804   6.331   1.049
18790W        W83775  30.236  29.451   4.569
18791W        W83776  16.635  26.204  12.766
18792W        W83777  15.104  19.637  11.553
18793W        W83778  43.386  23.366  11.129
18794W        W83779  21.098  14.197   3.635
18795W        W83780  33.474   1.977  11.528
18796W        W83781  37.341  17.546   3.435
18797W        W83782   1.761  33.470  10.673
18798W        W83783  39.365  11.738   3.190
18799W        W83784  30.668   6.102   3.743
18800W        W83785   4.241   0.229  12.425
18801W        W83786  11.733  37.139  14.037
18802W        W83787  19.338   6.827   5.004
18803W        W83788  34.618   9.564  12.846
18804W        W83789  30.975  25.156   3.689
18805W        W83790  36.659   1.279  11.930
18806W        W83791   1.526   3.302   4.498
18807W        W83792  28.916  32.512   0.986
18808W        W83793  29.917  32.149   3.198
18809W        W83794  13.788   7.379   2.228
18810W        W83795  11.941  26.271  14.252
18811W        W83796  39.385  16.575  13.774
18812W        W83797   2.509  19.365   5.011
18813W        W83798  40.150   5.770   2.291
18814W        W83799  16.028   3.710   3.610
18815W        W83800  28.035  25.046   3.293
18816W        W83801  44.580  35.963   3.158
18817W        W83802  12.891  43.903   3.397
18818W        W83803  34.393  17.699   2.869
18819W        W83804  21.568   5.910   2.336
18820W        W83805  33.852   2.104   4.050
18821W        W83806  26.672  11.128  14.911
18822W        W83807  22.539  18.538  14.433
18823W        W83808  21.135  28.154   5.064
18824W        W83809  35.358   4.658  11.715
18825W        W83810  44.169  22.720   5.045
18826W        W83811  31.767  27.223   1.368
18827W        W83812  20.078  25.495  10.771
18828W        W83813  35.092   5.363   2.871
18829W        W83814  22.433   1.217  12.965
18830W        W83815  29.921  18.411   2.195
18831W        W83816  43.479  36.107  11.982
18832W        W83817  26.214  11.407   3.218
18833W        W83818  12.041  27.991  13.973
18834W        W83819  23.962   7.151  13.969
18835W        W83820  41.555  18.271  13.363
18836W        W83821   3.228   5.720  10.519
18837W        W83822  27.952  39.271  11.526
18838W        W83823  12.025  23.957   2.751
18839W        W83824  16.721   2.837  10.785
18840W        W83825  26.389   2.285   2.591
18841W        W83826  29.583  36.989  13.740
18842W        W83827  11.413  27.516   2.723
18843W        W83828  11.822  18.062  14.971
18844W        W83829  31.514  13.176  11.921
18845W        W83830  34.757  43.127  11.389
18846W        W83831  26.769   9.724   2.918
18847W        W83832  32.365  23.933  13.723
18848W        W83833  41.893   5.953   2.399
18849W        W83834   7.696  24.872   4.671
18850W        W83835  40.628  37.459  14.299
18851W        W83836  39.234   8.208  11.126
18852W        W83837  41.552   6.917   0.832
18853W        W83838  42.950   6.755   1.831
18854W        W83839  34.185  14.343   0.681
18855W        W83840  12.921   5.662   2.407
18856W        W83841   2.495  44.363  13.878
18857W        W83842  11.267  21.136   2.210
18858W        W83843  30.656  37.514  11.651
18859W        W83844  34.712  27.608  11.225
18860W        W83845   1.048  43.909  12.112
18861W        W83846  22.959  10.227   1.364
18862W        W83847  13.331  25.151   4.813
18863W        W83848   9.723  43.837  12.978
18864W        W83849  20.969  31.969  11.557
18865W        W83850   4.116  15.911   1.914
18866W        W83851  27.048  43.562   3.199
18867W        W83852  27.010  40.096  13.126
18868W        W83853  18.968  29.000   4.349
18869W        W83854  29.204  38.892  13.771
18870W        W83855  20.567  43.964   2.819
18871W        W83856  13.070   7.648  14.876
18872W        W83857  21.708  42.784  11.960
18873W        W83858  30.615  22.046   0.538
18874W        W83859  37.386  34.525   1.434
18875W        W83860  22.035  42.239   4.074
18876W        W83861  35.892  24.108  11.989
18877W        W83862   5.734  34.964   2.205
18878W        W83863  27.688  16.007  14.648
18879W        W83864  39.043  22.363  12.969
18880W        W83865   3.800  17.031   0.437
18881W        W83866  34.360  42.025   2.379
18882W        W83867  24.168   7.640  11.532
18883W        W83868   2.242  26.166  10.803
18884W        W83869  33.791  29.982  13.879
18885W        W83870  26.225  33.533   2.336
18886W        W83871  18.752  11.535   1.293
18887W        W83872  26.655   8.871   0.768
18888W        W83873  20.522  24.826   4.167
18889W        W83874  35.864  30.137  12.961
18890W        W83875  19.767   0.703  12.720
18891W        W83876  35.328  23.103   0.882
18892W        W83877   0.446   3.222   0.842
18893W        W83878  30.555  23.920   2.207
18894W        W83879  39.460   7.399   2.379
18895W        W83880  27.232  18.609  13.257
18896W        W83881  27.842  37.803  11.550
18897W        W83882  44.283   1.000   3.355
18898W        W83883  35.498   2.889   1.909
18899W        W83884   6.775  28.966  12.915
18900W        W83885  15.748  42.220  12.065
18901W        W83886   7.207  28.102   3.690
18902W        W83887  39.847  23.116   1.810
18903W        W83888  43.013  32.645   0.696
18904W        W83889   3.323  25.896  10.763
18905W        W83890  17.636   0.120  14.271
18906W        W83891   3.630  10.152   3.325
18907W        W83892  11.439   0.188   0.398
18908W        W83893  16.144  16.911   2.845
18909W        W83894  28.218   6.462   4.955
18910W        W83895  42.111   9.802  13.466
18911W        W83896   2.658  14.104  12.805
18912W        W83897  40.557  28.480  12.029
18913W        W83898  22.502  28.837   0.526
18914W        W83899   1.273  19.348   2.530
18915W        W83900  30.209  40.468   2.211
18916W        W83901  34.968  35.634   4.202
18917W        W83902  44.340  32.654   2.252
18918W        W83903  24.143  10.232  11.078
18919W        W83904  38.911  20.762   1.255
18920W        W83905   3.532  37.458  14.422
18921W        W83906  13.703  44.175   0.899
18922W        W83907  42.235  20.213   4.631
18923W        W83908  42.618  19.476  12.902
18924W        W83909  31.138  26.474   0.470
18925W        W83910  44.692   6.651   0.431
18926W        W83911  20.908  43.864  14.298
18927W        W83912  43.941   4.311  12.903
18928W        W83913   5.916  12.579   2.433
18929W        W83914  17.640  14.929  13.425
18930W        W83915  34.059  33.187   3.136
18931W        W83916   6.450  19.573  10.996
18932W        W83917  23.097  34.082   0.920
18933W        W83918  33.369   2.924   2.570
18934W        W83919  39.323  14.143   1.187
18935W        W83920  28.683  41.053  10.703
18936W        W83921  35.713  27.094  12.986
18937W        W83922  39.531  32.603  14.422
18938W        W83923  43.953  44.276  10.506
18939W        W83924  17.099  27.284   3.478
18940W        W83925   5.134  25.601   3.562
18941W        W83926  30.171  29.114  12.194
18942W        W83927  24.880  35.417   3.763
18943W        W83928  29.897  26.762   0.086
18944W        W83929  44.025  34.539  12.825
18945W        W83930  24.272  15.156  12.070
18946W        W83931  32.875   2.752   0.937
18947W        W83932  40.981  35.324  11.618
18948W        W83933  19.587  37.093  12.041
18949W        W83934  31.435  17.052  14.895
18950W        W83935  16.212   5.777  14.776
18951W        W83936  30.050  32.372   3.649
18952W        W83937  27.855  26.132   4.155
18953W        W83938  19.800  44.461  11.051
18954W        W83939  44.886  36.604   5.015
18955W        W83940  34.331   4.794   2.874
18956W        W83941  28.103  41.318  11.754
18957W        W83942  34.890  43.503  11.726
18958W        W83943  11.174  44.466   1.828
18959W        W83944  13.060  25.573   4.609
18960W        W83945  42.986  30.444  11.898
18961W        W83946  32.872   3.014   2.378
18962W        W83947  24.955  29.016  11.799
18963W        W83948  33.752  25.069  14.959
18964W        W83949  32.046  43.716  14.483
18965W        W83950  36.312  42.811   3.367
18966W        W83951   5.260  19.225  10.716
18967W        W83952   1.404  34.917   1.118
18968W        W83953   7.454  42.588   3.290
18969W        W83954  24.253  18.638  11.810
18970W        W83955  44.256  30.864  12.011
18971W        W83956  43.915  21.177   4.832
18972W        W83957  20.129  42.466   3.654
18973W        W83958  15.697  21.381   3.188
18974W        W83959  44.028   6.399   3.695
18975W        W83960   4.237   0.214   1.073
18976W        W83961  31.980  17.295   4.114
18977W        W83962  33.413  35.074  14.351
18978W        W83963  30.834  12.732   1.492
18979W        W83964  19.990   7.855   1.369
18980W        W83965  42.721  38.304   0.523
18981W        W83966  23.263  39.896  13.933
18982W        W83967  26.606  35.383   1.289
18983W        W83968  39.708   1.514   4.036
18984W        W83969  15.709  40.996  13.891
18985W        W83970  27.164  26.702   0.203
18986W        W83971   7.926   7.091   5.354
18987W        W83972  37.355  19.266   0.875
18988W        W83973  29.649  44.207   3.375
18989W        W83974  17.621   6.970   0.290
18990W        W83975  43.352   9.117   3.161
18991W        W83976   9.631  39.586  10.808
18992W        W83977  16.808  24.007   1.724
18993W        W83978   7.414  42.502  10.682
18994W        W83979  31.345  10.802  14.866
18995W        W83980  25.385  37.626   4.209
18996W        W83981   6.168   3.484   3.258
18997W        W83982   6.286  24.187  10.446
18998W        W83983  25.640   1.212   1.394
18999W        W83984  17.268  14.331  10.693
19000W        W83985  26.340  37.177   1.172
19001W        W83986  36.077  39.243  12.901
19002W        W83987  13.732  30.837   5.057
19003W        W83988  22.973   6.099  10.440
19004W        W83989  23.207  11.285  12.579
19005W        W83990   3.479  12.715   1.708
19006W        W83991  36.809  31.720  13.905
19007W        W83992  30.537  28.253   1.954
19008W        W83993   9.181  28.979   2.590
19009W        W83994   5.779  26.913   3.275
19010W        W83995  34.609  21.022   0.235
19011W        W83996  30.503  17.195  10.727
19012W        W83997  18.401  35.393  12.920
19013W        W83998  26.933  14.069   0.387
19014W        W83999  32.170  43.124  14.639
19015W        W84000  40.046   1.576   3.171
19016W        W84001  39.585   2.537  14.849
19017W        W84002  27.879  20.221  10.678
19018W        W84003  18.591  39.580  14.888
19019W        W84004  28.556  17.218   0.051
19020W        W84005  16.371   3.413  14.849
19021W        W84006  10.922  25.899  11.507
19022W        W84007  22.732   5.837  14.572
19023W        W84008   0.438  31.093   0.360
19024W        W84009  18.561  26.403  13.939
19025W        W84010   6.387  24.374   1.301
19026W        W84011  35.423  30.140   1.934
19027W        W84012  43.004  42.279  12.164
19028W        W84013  26.443  33.289  11.760
19029W        W84014  16.342  38.388  13.459
19030W        W84015  16.283  41.247  13.463
19031W        W84016  35.543  26.663   2.668
19032W        W84017   3.194  27.201   4.069
19033W        W84018  29.901  17.526  14.861
19034W        W84019  26.379  15.131   2.110
19035W        W84020  24.600  23.762   2.233
19036W        W84021  22.607  36.611   4.900
19037W        W84022  21.261  17.988  14.752
19038W        W84023  23.482  19.278   4.499
19039W        W84024  31.106  25.628   4.918
19040W        W84025  39.602  14.397   2.819
19041W        W84026  34.742   5.460  10.689
19042W        W84027  16.233  20.619   3.518
19043W        W84028  24.676   8.199   3.725
19044W        W84029  37.244  13.571  10.884
19045W        W84030  30.889  19.477  12.396
19046W        W84031   6.789  39.560   2.694
19047W        W84032   4.343  40.174   1.700
19048W        W84033   5.645  42.625   1.928
19049W        W84034  18.038  22.636  10.208
19050W        W84035  15.943  31.348   2.319
19051W        W84036  16.051  37.865  13.507
19052W        W84037  17.855  17.230  13.610
19053W        W84038  23.777  14.309  10.600
19054W        W84039  34.565   7.238  13.501
19055W        W84040  43.006  24.917   0.738
19056W        W84041  27.200  32.464  12.593
19057W        W84042  39.906  40.923   3.169
19058W        W84043  34.624  20.365  14.499
19059W        W84044  29.978  23.644  10.696
19060W        W84045  34.682  26.453   1.418
19061W        W84046  13.135  26.159  11.045
19062W        W84047  35.293  40.964  12.552
19063W        W84048  26.334  30.721  10.688
19064W        W84049  40.806  28.519  12.491
19065W        W84050  14.730  34.538   0.346
19066W        W84051   9.761   0.327  11.644
19067W        W84052  29.580  26.656  14.254
19068W        W84053  44.996  16.619   0.480
19069W        W84054  35.368  24.931   1.854
19070W        W84055  39.926  25.214  13.440
19071W        W84056  18.135   5.224   1.440
19072W        W84057  44.305  28.237   0.727
19073W        W84058   2.943  28.867   3.771
19074W        W84059   8.775   6.893  10.777
19075W        W84060  24.243  36.971  13.885
19076W        W84061  19.476  28.625   3.608
19077W        W84062  35.583  30.842  14.016
19078W        W84063  36.506  25.235   4.461
19079W        W84064  20.553  13.507  11.973
19080W        W84065   8.572  37.258   5.049
19081W        W84066  24.227  37.034  10.748
19082W        W84067   3.398  13.680   3.766
19083W        W84068  40.472  10.712   0.029
19084W        W84069  28.418   3.404  12.988
19085W        W84070  21.643  40.087  12.407
19086W        W84071   2.707  43.278   4.604
19087W        W84072  17.981   5.693   2.800
19088W        W84073  32.239  11.602   0.477
19089W        W84074  35.070  42.830  14.933
19090W        W84075  37.101  18.752  11.536
19091W        W84076   2.587  31.787  12.907
19092W        W84077  22.069  10.527   1.199
19093W        W84078  36.541  16.790  12.526
19094W        W84079  12.619   3.377  13.949
19095W        W84080   6.880  13.233   3.562
19096W        W84081  16.769  23.048   0.593
19097W        W84082  22.761   6.183  13.472
19098W        W84083  40.010  29.749  11.083
19099W        W84084  27.060  10.247   0.285
19100W        W84085  41.468   3.045  14.778
19101W        W84086  39.897  18.076  11.509
19102W        W84087  18.484  23.217   1.369
19103W        W84088  11.149  42.537   2.664
19104W        W84089  18.125  23.290   2.277
19105W        W84090  19.391  23.064   0.727
19106W        W84091  19.238  35.561   1.939
19107W        W84092   2.813   6.683  13.528
19108W        W84093   0.151  22.175  13.121
19109W        W84094   8.230  42.466   4.699
19110W        W84095  12.090  10.744  11.115
19111W        W84096  32.496  25.377   5.079
19112W        W84097  26.273  34.058  14.220
19113W        W84098  16.836  18.840   9.867
19114W        W84099   9.576  33.889  10.927
19115W        W84100  19.717  14.922  11.871
19116W        W84101  36.685  27.922   1.752
19117W        W84102  35.118  16.078   0.177
19118W        W84103   7.564  21.227   5.048
19119W        W84104  40.477  33.616  10.390
19120W        W84105  13.212  32.622  10.665
19121W        W84106  10.065  43.106  14.364
19122W        W84107  36.533  40.502   1.745
19123W        W84108  25.162  44.796  11.250
19124W        W84109  27.986  23.111  14.320
19125W        W84110  11.823  39.084  10.398
19126W        W84111   7.437  25.543   2.742
19127W        W84112  13.195  18.910  11.086
19128W        W84113  17.642   4.114  13.578
19129W        W84114   7.646  15.666  13.509
19130W        W84115  38.377  13.762  10.559
19131W        W84116  25.469  30.390   1.859
19132W        W84117  14.116  44.318  13.389
19133W        W84118  40.064  16.762  11.778
19134W        W84119   1.602   7.932   2.730
19135W        W84120  34.415  40.798  14.346
19136W        W84121  17.578  41.287   0.341
19137W        W84122   6.009  18.584  14.388
19138W        W84123   5.375  12.332  14.813
19139W        W84124   6.836  16.121  11.531
19140W        W84125   4.218   7.943  12.585
19141W        W84126  41.832  32.668   1.972
19142W        W84127   3.480  19.588  14.419
19143W        W84128  15.384  20.839   4.032
19144W        W84129  44.058  40.606  14.299
19145W        W84130  15.297   7.374   3.683
19146W        W84131  44.470  39.613   0.726
19147W        W84132  15.168  30.189   2.765
19148W        W84133  19.585  42.962   4.124
19149W        W84134  32.602  28.219  14.090
19150W        W84135  34.811  20.170  12.959
19151W        W84136  26.976  13.562   2.834
19152W        W84137  14.570   2.811   1.421
19153W        W84138  41.919  31.006  10.701
19154W        W84139   6.120  43.108  13.851
19155W        W84140   3.486  29.565  13.774
19156W        W84141  18.271  27.140  11.139
19157W        W84142   8.362  38.954   4.746
19158W        W84143   3.219  43.811  12.025
19159W        W84144  44.859  14.200   5.002
19160W        W84145  35.441   7.516  10.365
19161W        W84146  34.759  25.987   4.728
19162W        W84147  20.326  34.227  11.468
19163W        W84148  41.149  42.367   3.302
19164W        W84149  39.309  28.512  10.991
19165W        W84150  24.061  19.521   4.648
19166W        W84151  41.474  10.467   1.860
19167W        W84152  33.498   2.950   0.335
19168W        W84153  30.394   8.393   3.339
19169W        W84154   0.858   8.490   0.559
19170W        W84155  24.755  15.895  13.140
19171W        W84156  25.028  34.717  11.971
19172W        W84157  18.075   8.288  14.650
19173W        W84158  25.254  43.909  10.738
19174W        W84159  28.762   2.602   5.402
19175W        W84160   6.225  24.193   4.016
19176W        W84161  35.061  42.726  11.575
19177W        W84162  10.100  40.855   2.852
19178W        W84163  44.312  26.415  10.287
19179W        W84164  16.638  11.575   3.010
19180W        W84165  11.633   2.778  13.087
19181W        W84166  21.573  30.994  13.935
19182W        W84167  27.480   8.973   4.267
19183W        W84168  19.121  43.577   0.701
19184W        W84169  31.390  11.461   3.290
19185W        W84170  36.796  41.523  11.699
19186W        W84171  18.677  25.439   0.744
19187W        W84172  23.683  26.437   1.674
19188W        W84173  36.764  15.104   1.659
19189W        W84174  44.623  25.644  12.788
19190W        W84175  31.990  27.450   2.915
19191W        W84176  17.073   9.556   0.504
19192W        W84177  39.816  32.036  11.388
19193W        W84178  18.997   3.390   0.755
19194W        W84179  23.228  20.223   4.743
19195W        W84180   1.807   9.889   2.414
19196W        W84181  28.989  29.146  13.756
19197W        W84182  40.552   1.806  12.978
19198W        W84183  31.794  33.105  12.873
19199W        W84184  36.686  39.966   1.158
19200W        W84185  15.500  41.930  12.439
19201W        W84186   9.654  40.715   3.930
19202W        W84187   7.736   7.164   4.426
19203W        W84188   4.707   3.710  12.891
19204W        W84189  33.398  34.519  13.052
19205W        W84190  41.151   7.861  12.918
19206W        W84191  21.955   8.203  14.950
19207W        W84192  27.979  11.304   3.751
19208W        W84193   9.131  29.570  12.116
19209W        W84194  10.387   0.459   0.474
19210W        W84195  27.228  14.528  13.495
19211W        W84196  21.074  24.185  11.143
19212W        W84197  10.651  30.611   4.911
19213W        W84198  43.403  38.493  13.280
19214W        W84199  10.403  24.608   1.832
19215W        W84200   9.173   3.526  14.623
19216W        W84201  32.053  21.673   2.911
19217W        W84202  29.463  24.290  14.034
19218W        W84203  34.251   3.212   0.856
19219W        W84204  12.837   1.284  14.807
19220W        W84205  17.109  15.826   4.963
19221W        W84206  17.061  14.085  14.033
19222W        W84207   9.619  32.411   0.865
19223W        W84208  23.543   6.241   1.830
19224W        W84209  31.985  43.413  11.048
19225W        W84210   6.950   8.751  13.382
19226W        W84211  41.355  40.760  13.383
19227W        W84212  25.777  12.906   3.676
19228W        W84213   6.317  21.510   0.025
19229W        W84214  10.883  13.704   1.342
19230W        W84215  23.511  43.445  12.947
19231W        W84216  42.703   1.915   3.252
19232W        W84217  36.375  26.009  13.983
19233W        W84218  38.396  12.877   1.173
19234W        W84219  13.849  30.681   4.124
19235W        W84220  14.682  21.775   0.290
19236W        W84221  37.717   2.445   4.576
19237W        W84222   1.892  32.242  10.630
19238W        W84223  28.950  16.702  12.405
19239W        W84224  11.855  39.050   3.124
19240W        W84225  12.113   7.652  12.515
19241W        W84226  17.478  22.340   5.054
19242W        W84227  42.293   9.100  12.511
19243W        W84228  27.239  18.393   4.427
19244W        W84229  29.458  35.822  14.804
19245W        W84230   8.009   0.201  14.048
19246W        W84231  31.399  18.260  11.491
19247W        W84232   9.596   5.591   2.660
19248W        W84233   4.733   9.214   2.268
19249W        W84234   6.327  36.440   2.409
19250W        W84235  19.470   5.153   1.230
19251W        W84236   4.357  28.845   1.795
19252W        W84237   8.792   3.750   3.682
19253W        W84238   1.532   1.334  13.485
19254W        W84239  15.775  22.108   0.490
19255W        W84240  10.694  17.812  12.888
19256W        W84241  40.992   6.001   2.843
19257W        W84242   7.550  43.212   2.627
19258W        W84243   3.315   6.898  14.341
19259W        W84244   9.361  25.261   3.378
19260W        W84245  32.631  23.489   0.539
19261W        W84246  26.540  29.520   0.859
19262W        W84247  38.839  34.443   3.420
19263W        W84248  31.765   8.280   4.495
19264W        W84249   4.935  44.546  11.052
19265W        W84250  39.350  20.450   1.329
19266W        W84251   9.193   6.561   4.690
19267W        W84252  24.610   3.431  14.004
19268W        W84253  20.147   1.300   2.140
19269W        W84254  38.028  41.005  10.421
19270W        W84255  21.017  11.866  12.309
19271W        W84256   0.394  10.708  14.362
19272W        W84257  28.544  11.306   0.338
19273W        W84258  33.427  28.130   4.027
19274W        W84259   9.480  28.018   0.986
19275W        W84260  19.609  34.769   4.700
19276W        W84261  14.775   3.299   2.849
19277W        W84262  27.150  21.185   0.772
19278W        W84263  27.294  36.920   0.432
19279W        W84264  31.612  41.315   4.235
19280W        W84265  29.076  27.450  14.164
19281W        W84266  23.621  40.408   0.076
19282W        W84267   0.470  18.505   0.891
19283W        W84268   1.881  21.851  13.756
19284W        W84269  32.829  31.696   0.779
19285W        W84270  10.393  27.518  11.417
19286W        W84271   8.952  25.300  13.171
19287W        W84272  10.250  33.486  10.460
19288W        W84273  42.772  19.797  11.097
19289W        W84274  16.753  42.440   2.767
19290W        W84275  21.351  37.606   0.307
19291W        W84276  43.061   4.124   1.942
19292W        W84277  19.570  16.324  14.553
19293W        W84278  44.996   1.876   4.914
19294W        W84279  44.789   3.119  14.263
19295W        W84280   7.359  22.812   1.153
19296W        W84281  22.736   4.323   3.410
19297W        W84282   1.625  25.605  14.718
19298W        W84283  14.765   4.900  13.121
19299W        W84284   8.801  24.748  14.016
19300W        W84285  19.263  25.235  10.957
19301W        W84286   5.004  27.550   1.014
19302W        W84287  13.537  10.065  11.241
19303W        W84288  39.821  25.981   1.057
19304W        W84289   9.735  20.705   2.904
19305W        W84290   2.586  43.962   1.424
19306W        W84291  37.907  16.651  11.785
19307W        W84292  14.076  14.065  13.591
19308W        W84293  18.343  12.740   1.582
19309W        W84294   6.303  16.779  12.571
19310W        W84295   9.271   4.167  10.754
19311W        W84296   3.917  17.650   3.255
19312W        W84297  35.088  21.350  11.204
19313W        W84298  38.422  39.176  13.430
19314W        W84299   1.569   5.884  11.993
19315W        W84300  22.498  17.967   1.314
19316W        W84301   3.872  38.020   4.191
19317W        W84302  15.754   3.294  13.481
19318W        W84303  33.985  36.638  12.500
19319W        W84304  13.094  19.346   0.502
19320W        W84305  32.829  35.429  13.986
19321W        W84306   4.152  25.061   2.615
19322W        W84307  24.080  27.742  11.027
19323W        W84308  25.797  20.529  12.641
19324W        W84309   4.936  32.049   0.271
19325W        W84310   5.709  20.244   2.764
19326W        W84311  34.052  44.371  12.833
19327W        W84312   9.820  37.362   1.234
19328W        W84313  13.800  12.296  12.947
19329W        W84314   7.871  11.129   0.837
19330W        W84315  37.218   8.835   2.382
19331W        W84316  30.099  35.497  11.538
19332W        W84317  19.638  13.357  10.464
19333W        W84318   3.283  39.235   0.845
19334W        W84319  19.958  27.710  12.520
19335W        W84320   7.566  27.915  12.831
19336W        W84321  38.271  42.676   2.174
19337W        W84322  15.554  19.660   4.381
19338W        W84323   6.742  25.930  11.464
19339W        W84324  36.892  41.743   1.769
19340W        W84325  26.036  44.291   3.880
19341W        W84326  37.940   6.284   2.906
19342W        W84327  25.431  20.018  13.310
19343W        W84328  23.538  42.050   2.520
19344W        W84329  25.019  19.350  12.107
19345W        W84330  18.268   7.509  14.198
19346W        W84331  19.998  14.140  13.802
19347W        W84332  31.858  27.118  14.328
19348W        W84333   3.484   8.514   0.674
19349W        W84334  10.674  36.655  13.952
19350W        W84335  41.208  20.412   1.959
19351W        W84336  19.017  16.784   2.714
19352W        W84337  33.479  33.080  13.779
19353W        W84338  39.381  22.422   3.399
19354W        W84339  16.740  31.983   4.610
19355W        W84340  28.120  44.708   3.213
19356W        W84341  34.786  24.376  12.584
19357W        W84342  18.351  31.642  10.806
19358W        W84343  24.185  38.331   4.579
19359W        W84344  41.493   2.663   3.351
19360W        W84345  40.246  16.137   2.228
19361W        W84346   2.869  39.280  11.589
19362W        W84347  36.892  11.841  10.076
19363W        W84348  29.328  12.579   1.355
19364W        W84349  29.129  41.884   2.814
19365W        W84350  31.003   9.569  14.712
19366W        W84351   0.456   3.740   0.816
19367W        W84352  38.571  44.329   0.473
19368W        W84353   0.671  24.168  10.701
19369W        W84354  35.089  41.433   1.872
19370W        W84355   8.624  40.916  14.148
19371W        W84356  21.164  32.330   3.158
19372W        W84357   9.329   2.267  11.713
19373W        W84358   6.806  20.058   3.704
19374W        W84359  24.995   4.767   3.252
19375W        W84360  10.258  43.184  12.176
19376W        W84361  20.067  40.052   0.241
19377W        W84362  38.488  37.814  11.607
19378W        W84363  33.005  19.108  12.465
19379W        W84364  22.158  13.257  14.583
19380W        W84365  35.563  39.897  14.809
19381W        W84366  12.433  18.273  11.595
19382W        W84367  11.231  35.406  10.939
19383W        W84368  22.150  16.518  13.510
19384W        W84369  41.651  28.473  12.078
19385W        W84370  17.561  10.772  13.035
19386W        W84371  25.434  23.733   0.610
19387W        W84372  42.295  37.273  11.661
19388W        W84373  41.709  26.297  10.790
19389W        W84374   0.946  15.305   3.740
19390W        W84375  23.290  11.587   4.136
19391W        W84376   8.121  21.439  13.001
19392W        W84377  15.603  13.237  11.509
19393W        W84378  36.688  36.523  14.866
19394W        W84379   6.008  34.966  11.555
19395W        W84380  39.940  29.003  11.530
19396W        W84381  37.587  30.001   2.268
19397W        W84382  15.631  21.047  14.492
19398W        W84383  30.514  29.362   0.957
19399W        W84384  21.485  29.932   1.699
19400W        W84385  23.830  40.405   1.013
19401W        W84386  40.652  10.159   4.947
19402W        W84387   5.854  27.571   0.696
19403W        W84388  32.480  27.497  12.355
19404W        W84389  35.174  37.921  12.779
19405W        W84390  16.752  36.772   1.188
19406W        W84391  22.693  44.834  10.745
19407W        W84392  15.099  38.206  14.149
19408W        W84393  44.670   3.491  10.572
19409W        W84394  29.049  25.564  14.855
19410W        W84395  18.354  42.825  11.937
19411W        W84396  30.302  18.207   1.913
19412W        W84397  14.399  22.621  14.346
19413W        W84398  20.061  23.493  14.705
19414W        W84399   1.979  25.659  12.226
19415W        W84400   3.904  28.547   0.343
19416W        W84401  17.576  38.805  13.895
19417W        W84402  31.175  24.327  14.513
19418W        W84403   4.865  14.666  14.040
19419W        W84404  39.081   2.039   2.153
19420W        W84405  20.014  29.096  10.140
19421W        W84406  24.940  43.462   4.533
19422W        W84407  40.005  23.014  11.134
19423W        W84408  35.501  35.541   3.640
19424W        W84409  15.841  42.240   0.061
19425W        W84410   9.316  23.569  10.834
19426W        W84411  18.145  15.567   0.333
19427W        W84412   8.675  28.269   1.929
19428W        W84413  26.604  34.567   0.282
19429W        W84414  23.247   3.397   3.731
19430W        W84415  23.028  34.383  14.817
19431W        W84416  12.339  36.428   2.277
19432W        W84417   6.722  28.688   0.800
19433W        W84418  42.115   8.779  11.338
19434W        W84419   1.902  16.640   4.562
19435W        W84420  15.606  11.084  10.756
19436W        W84421  17.261   2.681   0.741
19437W        W84422   1.600  32.072  13.028
19438W        W84423  17.256  34.652  11.453
19439W        W84424  35.400  44.771  13.434
19440W        W84425  28.326  31.934   0.493
19441W        W84426  34.511  43.015   1.527
19442W        W84427  32.015  39.896  11.249
19443W        W84428  21.075  25.939   4.826
19444W        W84429  32.050  44.149   3.665
19445W        W84430  12.659  20.993   4.928
19446W        W84431  37.968  27.469  11.044
19447W        W84432   4.244   2.294   3.348
19448W        W84433  27.952  26.844   5.045
19449W        W84434  12.625  38.832   2.683
19450W        W84435  42.268  26.503   1.706
19451W        W84436  20.869  40.243  11.945
19452W        W84437  24.251   4.207  14.433
19453W        W84438  23.494  41.297   3.320
19454W        W84439   3.481  21.341  13.506
19455W        W84440  43.830  42.859   3.093
19456W        W84441  37.471  24.277   1.255
19457W        W84442  33.405  38.842   4.937
19458W        W84443  17.856  17.222   0.503
19459W        W84444  13.625  30.128   4.584
19460W        W84445   0.264  30.275  13.379
19461W        W84446   9.262  18.369   2.169
19462W        W84447  27.106  26.217   0.521
19463W        W84448  10.052  21.069  11.511
19464W        W84449  29.388  28.796  13.932
19465W        W84450  44.537  12.310  13.988
19466W        W84451  40.509  25.696  12.523
19467W        W84452  36.710  23.204   0.949
19468W        W84453  43.588  21.494   5.021
19469W        W84454  23.137  39.796  10.519
19470W        W84455   6.869  30.583  14.504
19471W        W84456  44.729   3.200  12.386
19472W        W84457  14.827  39.476  14.482
19473W        W84458  10.481  40.050   3.903
19474W        W84459  26.754  14.049  10.396
19475W        W84460   3.178  32.436  11.078
19476W        W84461  23.063  23.740   0.849
19477W        W84462  11.886  19.470   3.466
19478W        W84463  37.050  17.534  11.140
19479W        W84464  14.785  38.911   0.873
19480W        W84465  27.533  20.413  11.087
19481W        W84466  41.891  29.488   0.915
19482W        W84467   8.504  17.079   3.371
19483W        W84468  40.801  34.616   3.799
19484W        W84469  22.586  44.217  11.884
19485W        W84470  15.156  19.561   1.307
19486W        W84471  10.932   9.791   0.037
19487W        W84472  44.609  42.202  11.190
19488W        W84473  14.395  21.099  14.852
19489W        W84474   0.726  13.598  14.157
19490W        W84475  39.886   4.832   4.090
19491W        W84476  29.398  39.012   5.054
19492W        W84477   9.670   5.684  14.344
19493W        W84478  14.597   5.923   0.804
19494W        W84479  41.442  21.736   5.113
19495W        W84480  41.447  44.459   2.480
19496W        W84481  44.006  42.505  11.978
19497W        W84482  24.133  17.272  10.506
19498W        W84483  16.645  24.908  10.773
19499W        W84484  30.617   5.264  11.707
19500W        W84485   3.188  32.355  14.022
19501W        W84486   5.457   1.342   1.257
19502W        W84487  25.493   6.258  12.433
19503W        W84488  40.996   8.033   4.832
19504W        W84489  37.965  14.126  12.625
19505W        W84490  32.974  41.686   1.113
19506W        W84491  15.228  29.378  11.552
19507W        W84492  36.256  27.620  13.376
19508W        W84493  43.936   2.465   3.233
19509W        W84494  17.552   8.418   4.498
19510W        W84495  44.046   2.439  13.468
19511W        W84496  38.758  20.929   2.300
19512W        W84497  30.072  42.420   2.628
19513W        W84498   4.494  41.517  12.626
19514W        W84499  24.998   3.232   4.271
19515W        W84500  20.982  15.141   2.655
19516W        W84501  19.208  22.823   1.879
19517W        W84502  30.444  39.877  11.476
19518W        W84503  42.410  14.617   5.574
19519W        W84504  26.183  42.419  11.461
19520W        W84505  19.655  30.897  12.245
19521W        W84506   2.116  25.237  13.280
19522W        W84507  41.811  43.315  14.357
19523W        W84508   3.458  36.613   1.228
19524W        W84509  31.433   2.422  11.893
19525W        W84510   3.000  28.022  12.119
19526W        W84511   6.059  29.231  12.194
19527W        W84512   8.857  39.829  11.230
19528W        W84513  44.928   9.716   4.273
19529W        W84514  21.496   3.493  11.601
19530W        W84515  44.290  29.226   4.526
19531W        W84516  10.036  27.825   5.146
19532W        W84517  18.194  25.792   4.253
19533W        W84518  43.509  20.034   3.937
19534W        W84519   4.822  29.654   1.844
19535W        W84520   5.976  20.585  11.419
19536W        W84521  10.883  12.743   2.270
19537W        W84522  40.814  29.719  10.565
19538W        W84523  11.543  30.652   3.700
19539W        W84524   9.704  25.297  10.775
19540W        W84525  18.467  10.189   3.409
19541W        W84526  28.970  17.015   1.828
19542W        W84527  28.942  38.414  12.961
19543W        W84528  24.809  15.742  14.171
19544W        W84529  13.833  17.312  11.619
19545W        W84530  22.608  14.566   2.664
19546W        W84531   0.316  39.493   0.646
19547W        W84532   0.764  29.130  14.874
19548W        W84533  36.407  15.578  10.652
19549W        W84534  17.724  32.523   0.990
19550W        W84535  39.105  16.638   3.661
19551W        W84536  17.314  32.451  14.648
19552W        W84537  24.530  28.598   4.297
19553W        W84538  37.965  32.792   4.563
19554W        W84539  39.317  15.723  13.212
19555W        W84540  15.183  33.244   4.656
19556W        W84541  21.484  19.350  12.711
19557W        W84542  29.167  35.132   2.642
19558W        W84543   7.423   1.357  10.844
19559W        W84544   9.859   6.818  10.764
19560W        W84545  40.870  41.043  12.508
19561W        W84546  22.615   4.480   0.232
19562W        W84547  30.595  29.210   0.436
19563W        W84548  22.645  38.926  11.882
19564W        W84549  30.461   4.961   2.636
19565W        W84550  17.166  42.134   4.602
19566W        W84551  21.083  11.062  14.756
19567W        W84552  42.969  32.152  14.915
19568W        W84553  23.912  35.394  13.858
19569W        W84554  22.740   0.535  13.750
19570W        W84555  36.326   4.897   0.757
19571W        W84556  22.656  40.960   0.821
19572W        W84557  37.160   5.755   0.842
19573W        W84558   0.486  21.707   0.501
19574W        W84559   9.819  24.176   3.322
19575W        W84560  43.942  16.745  11.939
19576W        W84561  29.988  43.940   1.573
19577W        W84562   4.958  28.128  12.872
19578W        W84563   5.915   6.323   1.736
19579W        W84564  17.096   0.290   2.843
19580W        W84565  39.416   3.755  14.501
19581W        W84566  40.574  41.493  12.534
19582W        W84567   7.802   3.802  11.132
19583W        W84568  18.275  37.010   2.352
19584W        W84569   4.337   8.646   3.797
19585W        W84570  43.890   7.461  11.927
19586W        W84571   8.513  24.460   4.504
19587W        W84572  38.888  20.805  10.957
19588W        W84573  34.222   5.847   1.673
19589W        W84574  32.616  28.949   3.127
19590W        W84575  14.565  24.018   3.634
19591W        W84576  44.578  31.682   1.768
19592W        W84577  31.983  22.708   4.870
19593W        W84578  19.489   5.284   0.297
19594W        W84579   0.828  38.791  13.019
19595W        W84580  16.629  34.516  14.822
19596W        W84581  27.997  30.621  11.853
19597W        W84582  10.329  32.363  12.135
19598W        W84583   2.981  40.199   2.336
19599W        W84584  30.394   1.166  12.397
19600W        W84585  41.460  28.541  13.288
19601W        W84586  21.025  32.844  11.340
19602W        W84587  31.098  32.318  11.126
19603W        W84588  31.010   0.249   3.876
19604W        W84589  13.156  26.611  10.599
19605W        W84590  30.881  15.676   4.897
19606W        W84591  28.865  31.048  14.352
19607W        W84592  35.612  33.344   4.019
19608W        W84593  28.778   2.958   4.633
19609W        W84594  26.020  41.971  13.456
19610W        W84595  44.985  44.015   0.413
19611W        W84596  30.160  17.078   2.121
19612W        W84597  13.278  26.480   3.613
19613W        W84598  18.226  11.821  14.559
19614W        W84599  27.655  20.652   4.634
19615W        W84600  22.200   5.323  14.967
19616W        W84601  34.022  13.452  11.089
19617W        W84602  30.719   2.715   1.590
19618W        W84603   5.366  22.474  11.670
19619W        W84604   6.305  44.640   9.739
19620W        W84605  40.642  31.478  12.422
19621W        W84606  23.452  16.189  11.548
19622W        W84607  12.123  33.758  14.629
19623W        W84608  33.500  37.805  10.652
19624W        W84609  24.061  31.746   1.224
19625W        W84610  14.291  41.815   1.352
19626W        W84611  33.258  11.327  13.334
19627W        W84612  27.314  23.446   2.760
19628W        W84613   0.814  24.425  14.501
19629W        W84614  28.030  24.324  11.453
19630W        W84615   2.012  20.621   2.841
19631W        W84616  19.002  36.362   0.870
19632W        W84617  22.972  12.874  10.644
19633W        W84618   2.022  28.560  10.670
19634W        W84619  32.382  10.692  12.492
19635W        W84620   9.605  37.459  11.569
19636W        W84621  29.456  17.455  11.934
19637W        W84622  24.492  44.066  14.433
19638W        W84623  21.952  11.770  13.538
19639W        W84624  33.467   6.340  10.893
19640W        W84625  32.879  11.893   2.706
19641W        W84626  11.067  41.939   1.804
19642W        W84627   8.938  14.447  10.365
19643W        W84628  26.392  38.366  13.580
19644W        W84629  29.157  26.189  13.124
19645W        W84630  42.977  30.872  11.576
19646W        W84631  37.518  36.011   5.190
19647W        W84632  42.284   4.227  13.470
19648W        W84633   8.873  38.129  10.970
19649W        W84634  27.175  42.517  13.408
19650W        W84635  40.848   9.428  13.476
19651W        W84636  29.429  13.715   1.902
19652W        W84637  21.199   9.774   2.306
19653W        W84638   6.718  40.069   2.657
19654W        W84639  23.761  23.273  12.454
19655W        W84640   9.278  27.019  12.026
19656W        W84641   1.836  20.562   0.745
19657W        W84642  34.202   3.931  11.420
19658W        W84643  31.083  37.571   4.909
19659W        W84644  17.045  33.452   3.735
19660W        W84645  29.011  35.807   4.129
19661W        W84646  30.399  21.621   0.686
19662W        W84647  32.411   5.433  12.449
19663W        W84648  28.260   6.027  11.066
19664W        W84649   8.768  11.317   3.399
19665W        W84650  35.351  20.150   3.225
19666W        W84651  30.575  36.889   0.009
19667W        W84652  24.139  30.487   3.122
19668W        W84653  33.358  37.420   2.679
19669W        W84654  30.940  27.764  10.577
19670W        W84655  21.687  25.075   3.563
19671W        W84656  38.454  32.003   2.857
19672W        W84657   5.762  30.980  13.369
19673W        W84658  27.637   2.064   2.751
19674W        W84659  14.761  11.240  10.539
19675W        W84660  32.053   1.018   2.075
19676W        W84661  10.157   5.250  11.462
19677W        W84662  31.364  23.081   4.301
19678W        W84663  12.244  15.603  14.301
19679W        W84664  14.659   0.241   2.754
19680W        W84665   3.269   2.431   3.601
19681W        W84666   0.840  16.244  12.720
19682W        W84667   5.498  29.467   0.794
19683W        W84668  13.620  21.735  12.957
19684W        W84669  17.011  20.918  10.658
19685W        W84670  35.491  10.604   3.807
19686W        W84671  16.469  26.036   1.396
19687W        W84672  27.259  21.148  11.617
19688W        W84673  35.148  28.076   2.014
19689W        W84674  19.692  27.443  12.174
19690W        W84675  20.077  30.667   2.142
19691W        W84676  17.088   6.855  13.819
19692W        W84677  37.865  16.830   2.296
19693W        W84678  26.082  38.313  12.798
19694W        W84679  36.908  36.613  13.835
19695W        W84680   7.754  32.016   0.892
19696W        W84681  25.671  36.543  12.271
19697W        W84682  41.552  15.036   3.314
19698W        W84683   8.641  11.302  12.533
19699W        W84684  18.315  41.228   2.321
19700W        W84685  13.232  40.585  10.169
19701W        W84686  39.594  34.927   1.804
19702W        W84687  33.067  39.347  13.089
19703W        W84688  18.573  38.892   0.434
19704W        W84689  35.093  19.215  11.484
19705W        W84690   9.100   3.247  12.323
19706W        W84691  18.029  20.410   4.200
19707W        W84692   8.188  32.611  12.694
19708W        W84693   7.141  33.406   1.255
19709W        W84694  39.583   0.677  12.496
19710W        W84695  11.772   8.366   4.150
19711W        W84696   4.880  15.065  12.848
19712W        W84697   1.253   9.636   3.658
19713W        W84698  33.358   5.604  11.532
19714W        W84699  21.255   9.999   1.817
19715W        W84700   0.713   4.703   1.999
19716W        W84701  27.613  18.451  11.056
19717W        W84702  37.587   9.629  10.250
19718W        W84703   8.649  33.329   4.141
19719W        W84704  15.715  36.909  12.406
19720W        W84705  43.912  32.893   0.773
19721W        W84706  30.765  26.593   4.139
19722W        W84707   2.797  25.935  11.623
19723W        W84708  10.880  34.032   2.881
19724W        W84709   9.872  20.978   2.132
19725W        W84710  20.676   4.870  10.562
19726W        W84711   9.068   9.423   2.383
19727W        W84712  25.718  35.114  10.335
19728W        W84713  33.629  34.517  12.576
19729W        W84714   7.495  31.895   9.970
19730W        W84715  11.847  32.019   2.705
19731W        W84716  12.816  36.809  11.601
19732W        W84717  36.616  40.899  12.421
19733W        W84718  27.054  28.369   4.630
19734W        W84719  20.372  39.371   0.514
19735W        W84720  38.138   0.741  12.133
19736W        W84721  19.891  29.076  12.478
19737W        W84722  13.533  24.377   2.725
19738W        W84723  17.803   0.563   0.139
19739W        W84724  44.819  37.096   1.246
19740W        W84725  12.310  19.038   2.629
19741W        W84726  14.308   7.705   0.954
19742W        W84727  43.960  34.180   3.642
19743W        W84728  40.500   2.481  10.893
19744W        W84729  27.211  17.636  11.584
19745W        W84730  27.859  22.637  14.405
19746W        W84731   5.370  34.988   3.447
19747W        W84732  23.682  15.477  10.457
19748W        W84733  16.651  13.704  13.967
19749W        W84734   8.756  29.830  13.922
19750W        W84735  10.327  43.442   2.027
19751W        W84736  17.205  25.648  13.892
19752W        W84737   7.315   4.775  11.915
19753W        W84738  40.851  27.959   3.548
19754W        W84739   1.510  42.520   3.246
19755W        W84740  20.621  19.677  11.236
19756W        W84741  12.731  25.177   1.255
19757W        W84742   5.285  34.837   2.469
19758W        W84743   1.887  23.260   2.908
19759W        W84744   9.989  40.260   3.735
19760W        W84745  33.888  13.763   3.350
19761W        W84746  18.798  29.136  11.560
19762W        W84747  11.349  40.481  14.851
19763W        W84748   1.484  38.976   4.145
19764W        W84749  34.325  11.111   0.553
19765W        W84750  21.757   3.809   2.463
19766W        W84751   9.816  42.050   3.733
19767W        W84752  27.557  11.981   1.366
19768W        W84753   6.509  14.004  13.003
19769W        W84754  37.312  11.373   4.121
19770W        W84755  25.640  10.089  13.469
19771W        W84756  28.773  33.392   3.617
19772W        W84757  16.203  29.522  13.189
19773W        W84758  34.195  22.537  14.499
19774W        W84759  16.138  30.077   4.019
19775W        W84760  44.561  34.941   4.040
19776W        W84761  41.250  18.195  13.806
19777W        W84762  14.362  21.601   5.029
19778W        W84763  31.790  19.693  12.460
19779W        W84764   0.993  30.078   2.763
19780W        W84765  23.801  28.644  11.164
19781W        W84766  27.246  35.607  14.227
19782W        W84767  24.699   1.770   2.356
19783W        W84768   2.024   6.914  14.728
19784W        W84769  43.076  34.109  14.319
19785W        W84770  34.877  11.270  14.749
19786W        W84771   4.625  14.057  11.019
19787W        W84772  27.344   4.867   2.431
19788W        W84773  29.203  28.762  14.885
19789W        W84774  22.568  22.584   0.469
19790W        W84775  18.727   9.574   4.437
19791W        W84776  38.372  27.460   1.165
19792W        W84777   7.376  33.000   1.030
19793W        W84778  43.175  34.498   0.641
19794W        W84779   8.417   4.770   0.756
19795W        W84780  23.658   1.736   0.250
19796W        W84781  41.503   5.914  14.367
19797W        W84782   7.240  29.573  12.537
19798W        W84783   1.279  34.498   3.204
19799W        W84784  40.815   8.442   2.294
19800W        W84785  35.191  42.320   1.756
19801W        W84786   5.039  14.901  13.308
19802W        W84787  25.621  40.341  13.963
19803W        W84788  11.683   9.385   3.881
19804W        W84789  26.056   5.832  11.810
19805W        W84790   2.903  12.066  13.990
19806W        W84791   1.401   2.404  14.303
19807W        W84792  39.353  29.022  13.116
19808W        W84793  38.766  22.163  12.502
19809W        W84794  44.287  35.852   2.343
19810W        W84795  38.588   9.497   0.299
19811W        W84796  21.674  10.528   2.387
19812W        W84797  30.887  41.362   1.325
19813W        W84798  30.891  16.419  12.087
19814W        W84799  35.424  40.377  13.919
19815W        W84800  16.826  42.859   3.069
19816W        W84801  14.843   1.553  14.896
19817W        W84802  37.649   5.362  14.775
19818W        W84803  41.244   9.923  14.420
19819W        W84804  37.508  12.596  14.824
19820W        W84805  25.249  19.315   3.583
19821W        W84806  30.558  10.573   4.640
19822W        W84807  42.031  33.882   4.514
19823W        W84808   7.783   8.896  10.510
19824W        W84809  37.961   7.140  10.240
19825W        W84810  41.936  17.546  12.346
19826W        W84811   2.873  12.905   1.850
19827W        W84812  30.074   2.772  13.732
19828W        W84813  27.133  20.732  10.632
19829W        W84814  11.019   3.414   2.941
19830W        W84815  29.410  33.468   2.350
19831W        W84816   0.179   3.756   4.504
19832W        W84817  36.028  40.086   1.831
19833W        W84818  30.242  39.524  14.256
19834W        W84819  37.614  43.929   3.150
19835W        W84820  18.710  42.137   2.412
19836W        W84821  16.705   4.955  14.357
19837W        W84822  28.132  42.894   0.723
19838W        W84823  22.493  14.369   4.593
19839W        W84824  22.661  31.939  10.147
19840W        W84825   2.776  33.619   1.756
19841W        W84826  23.913  21.784   1.372
19842W        W84827  22.518  41.055  12.149
19843W        W84828  19.884  37.596  12.571
19844W        W84829   0.390  34.581  12.443
19845W        W84830  39.916  19.789   2.603
19846W        W84831  43.801  42.240  14.527
19847W        W84832  18.115  27.210  13.952
19848W        W84833  11.611  17.755   1.315
19849W        W84834  31.583   0.828   0.333
19850W        W84835  10.338   6.788  12.868
19851W        W84836  11.809  20.837   3.647
19852W        W84837  21.054   2.838   1.645
19853W        W84838  13.839  33.509   4.216
19854W        W84839   1.243  38.408   4.940
19855W        W84840  12.791  11.261   3.269
19856W        W84841  17.304  39.317   3.229
19857W        W84842  34.652  14.296   0.915
19858W        W84843  21.623  22.295  13.828
19859W        W84844  33.615  10.599  11.634
19860W        W84845  22.309  13.717   3.232
19861W        W84846  20.755  41.924  11.554
19862W        W84847  38.474  26.960   1.178
19863W        W84848  14.651  19.495  14.468
19864W        W84849  39.614  14.371   0.265
19865W        W84850   8.906  10.811  11.966
19866W        W84851  34.588   9.915   1.463
19867W        W84852  15.795  17.234  10.738
19868W        W84853  15.723   8.285   1.713
19869W        W84854  42.260  22.583   1.687
19870W        W84855  34.823  19.425   0.427
19871W        W84856  43.363  44.191  10.015
19872W        W84857  37.323  21.973  12.432
19873W        W84858  28.578  38.809  14.866
19874W        W84859  29.761  16.147   2.268
19875W        W84860  35.438  18.506  11.178
19876W        W84861   0.802  44.934   0.498
19877W        W84862  18.869  11.649  12.060
19878W        W84863  19.906  38.472   1.466
19879W        W84864  36.840  32.918   2.767
19880W        W84865   1.915  13.543  13.896
19881W        W84866  14.647  10.260  14.007
19882W        W84867  11.542   2.289  11.238
19883W        W84868  34.219  28.967   0.505
19884W        W84869  10.418  22.049  10.562
19885W        W84870  19.259  38.742  10.944
19886W        W84871  22.054  22.433  13.558
19887W        W84872  16.003  29.563   3.170
19888W        W84873  24.116  36.360   3.588
19889W        W84874  11.361  42.317   1.654
19890W        W84875   8.608  19.655   1.756
19891W        W84876  21.742  26.018  12.984
19892W        W84877  31.103   7.910   0.818
19893W        W84878  14.294   9.917  10.609
19894W        W84879  26.653  28.231   1.894
19895W        W84880  35.441  25.206   0.791
19896W        W84881  17.546  32.919   4.189
19897W        W84882   5.920  16.746  12.153
19898W        W84883  15.319  19.302  11.954
19899W        W84884  30.444   1.303   5.109
19900W        W84885  20.344  20.689   2.193
19901W        W84886   3.930  33.925  11.102
19902W        W84887  18.606  44.410  14.137
19903W        W84888  15.781  14.353  11.579
19904W        W84889   6.432  18.543  12.929
19905W        W84890  38.605  16.290   1.005
19906W        W84891  35.467  33.524   4.482
19907W        W84892  26.124   0.919  12.499
19908W        W84893  20.641  26.643   1.696
19909W        W84894  43.354   1.547   4.624
19910W        W84895  43.917  19.824   0.799
19911W        W84896  23.118   3.874   4.193
19912W        W84897  29.445  12.845  12.870
19913W        W84898  31.596   6.686  14.805
19914W        W84899  23.098  32.847  14.719
19915W        W84900  13.149  40.784   2.653
19916W        W84901  37.699  39.270   4.468
19917W        W84902  31.692  44.436   5.099
19918W        W84903  15.850  11.804   1.334
19919W        W84904  32.380  39.308  14.424
19920W        W84905  37.929  35.070  11.059
19921W        W84906  16.525  33.826   3.208
19922W        W84907  23.645   2.004  11.592
19923W        W84908   5.310   9.341   2.361
19924W        W84909  42.463  25.556   0.433
19925W        W84910  10.355  38.363  13.090
19926W        W84911  18.334  13.350  10.991
19927W        W84912   8.801  37.993   0.668
19928W        W84913   3.840   5.168   4.957
19929W        W84914  24.813  11.683  13.159
19930W        W84915  38.421   6.178  14.005
19931W        W84916   4.458  26.282  10.782
19932W        W84917  40.756  24.026   2.347
19933W        W84918  36.497  17.277  12.744
19934W        W84919  34.217  36.296   2.660
19935W        W84920  28.213  19.055  12.066
19936W        W84921  44.106  23.314   0.729
19937W        W84922  17.503  27.702   3.627
19938W        W84923  36.469   3.834  11.133
19939W        W84924   7.398  44.363   3.576
19940W        W84925  13.320   3.528  11.632
19941W        W84926  28.478  17.153  11.630
19942W        W84927  21.023  30.514  14.468
19943W        W84928  15.550  35.555  13.787
19944W        W84929  25.357  39.402  10.935
19945W        W84930   3.320  19.706   1.773
19946W        W84931  35.608  39.894   4.496
19947W        W84932   0.482  14.101  13.390
19948W        W84933  44.865  44.102  11.561
19949W        W84934  35.877  40.284  11.047
19950W        W84935  30.139  34.191   2.559
19951W        W84936  35.054  15.596   0.979
19952W        W84937  24.000   2.832  14.405
19953W        W84938  30.925   1.736  13.953
19954W        W84939  27.602   4.037  10.124
19955W        W84940   0.702  18.033  11.066
19956W        W84941   7.567  31.530   3.563
19957W        W84942   9.226  15.578  14.986
19958W        W84943  30.704  27.421   0.565
19959W        W84944  33.713  36.120  14.457
19960W        W84945  17.000  24.632   5.546
19961W        W84946  27.420  29.497   4.088
19962W        W84947  15.118   3.332   2.447
19963W        W84948  16.244  35.781   2.801
19964W        W84949   5.226   9.134  13.510
19965W        W84950  44.727  35.481   1.474
19966W        W84951  19.387  33.599  13.081
19967W        W84952  31.590  36.427  11.649
19968W        W84953  37.405  38.334   2.438
19969W        W84954  40.851  42.332   1.158
19970W        W84955  12.994  26.807  14.863
19971W        W84956  42.775  20.681   4.191
19972W        W84957  19.164  23.144   4.181
19973W        W84958   7.030  35.017   4.573
19974W        W84959  39.862  30.159   3.334
19975W        W84960  18.542  11.230  10.703
19976W        W84961  37.500  23.669  13.429
19977W        W84962   8.284   1.935   3.109
19978W        W84963  24.006  23.080  14.759
19979W        W84964   7.773  42.528  11.396
19980W        W84965   3.533  25.287   4.082
19981W        W84966  35.623   9.626  12.329
19982W        W84967  35.485  19.097   1.638
19983W        W84968  23.117  17.634   3.051
19984W        W84969   6.284  18.633  11.460
19985W        W84970  18.044  30.147   3.298
19986W        W84971  42.458  27.937   1.660
19987W        W84972  19.217   3.264  12.747
19988W        W84973  24.716  37.259   2.824
19989W        W84974  43.687   4.015  12.045
19990W        W84975  32.348  14.724   2.453
19991W        W84976  18.278  21.460  14.048
19992W        W84977  20.763   5.397   4.830
19993W        W84978  13.303  27.642   2.606
19994W        W84979  25.799  32.633   2.197
19995W        W84980  38.343  41.015   0.673
19996W        W84981  43.177  19.059  14.269
19997W        W84982  42.668  18.683   3.257
19998W        W84983  28.980   2.939   1.368
19999W        W84984  14.050  25.599   2.997
20000W        W84985   4.133   3.846  14.298
20001W        W84986  43.360  42.327   1.456
20002W        W84987  10.688  13.061   2.633
20003W        W84988  36.050  17.840  14.131
20004W        W84989  16.028  29.768   0.947
20005W        W84990   6.962  37.487   0.329
20006W        W84991  38.611  31.511  11.440
20007W        W84992  38.920   7.373   3.311
20008W        W84993  30.369  36.907   2.024
20009W        W84994  33.634  31.650   2.826
20010W        W84995  16.500  37.427  13.418
20011W        W84996  37.551  41.440   0.679
20012W        W84997  43.922  32.144  10.930
20013W        W84998  19.804  14.115   1.868
20014W        W84999  44.889  28.097   4.498
20015W        W85000  31.214  17.734  10.785
20016W        W85001  30.343  22.145   4.609
20017W        W85002  24.233  41.548   4.623
20018W        W85003  41.879   0.487   0.173
20019W        W85004  15.633  35.396   0.308
20020W        W85005   8.995  30.616  11.141
20021W        W85006  38.760   2.696  12.086
20022W        W85007  13.047   6.649  14.048
20023W        W85008   7.668  10.821  12.966
20024W        W85009  18.081   3.341   0.714
20025W        W85010  15.352   9.205   0.756
20026W        W85011  31.922  13.692   4.002
20027W        W85012  15.040  18.269  14.385
20028W        W85013  15.581  28.738  13.589
20029W        W85014  14.028  22.887   4.227
20030W        W85015  41.228   9.764   2.103
20031W        W85016  33.819   1.717  13.553
20032W        W85017   8.687  10.150  10.657
20033W        W85018  19.646   5.661   1.796
20034W        W85019  25.976  29.822   9.792
20035W        W85020  13.248  37.306   4.999
20036W        W85021   8.180  36.490  11.125
20037W        W85022  18.306   7.988   2.737
20038W        W85023  33.881  39.631   1.464
20039W        W85024  14.526  27.705  12.571
20040W        W85025   4.820   5.395   4.965
20041W        W85026  24.029  33.606  12.652
20042W        W85027  31.583  38.644   4.982
20043W        W85028   8.753  34.592  11.945
20044W        W85029  19.568   3.651  12.493
20045W        W85030  35.848   2.193  11.150
20046W        W85031  21.210  34.163   0.220
20047W        W85032  12.282   2.116  11.583
20048W        W85033  25.199  23.861  10.340
20049W        W85034   7.772   1.691  11.014
20050W        W85035   2.717  15.328   0.367
20051W        W85036  42.743  25.939  14.169
20052W        W85037  32.615  15.646   2.138
20053W        W85038  27.484  31.153   0.038
20054W        W85039  20.804  16.483   2.697
20055W        W85040   9.899  29.771   1.353
20056W        W85041  22.062  14.040  12.371
20057W        W85042  33.116  24.051   3.222
20058W        W85043  37.721  15.702   0.234
20059W        W85044  15.492  25.010   5.183
20060W        W85045  23.079  29.928   2.503
20061W        W85046  10.874   4.643   3.115
20062W        W85047  14.595  24.180  10.462
20063W        W85048  16.176   6.458   0.921
20064W        W85049  32.179  26.144   3.266
20065W        W85050  17.302  32.453   4.153
20066W        W85051  14.759  25.892   3.254
20067W        W85052   1.867  12.233  13.308
20068W        W85053  14.795  24.452  13.691
20069W        W85054  36.149  37.965  13.871
20070W        W85055  21.009  23.877  10.315
20071W        W85056  27.623  10.100  12.897
20072W        W85057   1.457  20.719   5.082
20073W        W85058  30.255  11.296  12.319
20074W        W85059   3.195  20.835   1.716
20075W        W85060  19.412  43.128   0.774
20076W        W85061  10.360  17.122  12.967
20077W        W85062  43.432  37.151   0.800
20078W        W85063  27.896  19.524  13.867
20079W        W85064  23.028  11.904   0.264
20080W        W85065  14.933  14.871   2.298
20081W        W85066  42.263  41.764  14.902
20082W        W85067   2.459   1.971   1.263
20083W        W85068  17.812  24.056   0.484
20084W        W85069  22.548  25.024   1.354
20085W        W85070  18.075   9.672  12.379
20086W        W85071   8.786  39.957  13.864
20087W        W85072   7.141  24.755   0.315
20088W        W85073  25.959  40.962   4.436
20089W        W85074   4.280  36.291   0.726
20090W        W85075  35.416  25.624  12.141
20091W        W85076   9.792   2.564  11.535
20092W        W85077  36.363  23.494  11.391
20093W        W85078  15.417   2.987   4.970
20094W        W85079  19.444  10.931  12.076
20095W        W85080  19.234  13.295   4.284
20096W        W85081   1.013  40.847  11.681
20097W        W85082  17.943  13.647  10.800
20098W        W85083  32.486  16.642   4.606
20099W        W85084  20.758  26.134   3.711
20100W        W85085   3.768  33.981   4.022
20101W        W85086  31.107   5.203   1.354
20102W        W85087   3.508  29.629   3.316
20103W        W85088   2.415   5.806   3.163
20104W        W85089  17.717  35.889  12.898
20105W        W85090  36.357   3.601  14.335
20106W        W85091  13.767  25.559  10.762
20107W        W85092  12.672  20.151   0.698
20108W        W85093  36.871  36.116   0.102
20109W        W85094  17.318  18.004   3.259
20110W        W85095   6.933  41.734  14.595
20111W        W85096   0.668  30.465   1.708
20112W        W85097  14.211   8.289   4.313
20113W        W85098  27.810  21.111  10.394
20114W        W85099  29.023   7.709  13.936
20115W        W85100  35.411  25.909  14.481
20116W        W85101  18.451  31.132   4.572
20117W        W85102  14.337  13.280  12.939
20118W        W85103  22.876  16.412  12.029
20119W        W85104  44.997  11.010  11.202
20120W        W85105  19.306  21.539   3.067
20121W        W85106  14.071  19.164   3.113
20122W        W85107  20.694  12.142  11.984
20123W        W85108  26.666   6.640   1.530
20124W        W85109  34.772  26.147   3.185
20125W        W85110   1.454  20.678  11.580
20126W        W85111  16.195  10.314  11.226
20127W        W85112   3.996  37.264   0.545
20128W        W85113  16.078  10.340   1.860
20129W        W85114  30.416  42.713  12.110
20130W        W85115  40.893  41.812  12.897
20131W        W85116  38.800  12.965  14.790
20132W        W85117  30.478   3.807   1.887
20133W        W85118  34.605  32.920   2.252
20134W        W85119  38.614  18.114  13.474
20135W        W85120  40.821   1.867   3.491
20136W        W85121  43.302  37.641  13.539
20137W        W85122  30.541  33.420   0.485
20138W        W85123  40.063  22.391  12.023
20139W        W85124  42.092  21.611  14.325
20140W        W85125  34.368   1.953  11.963
20141W        W85126   1.796  18.194   2.822
20142W        W85127  32.683  24.798  13.444
20143W        W85128   7.965  13.428  11.194
20144W        W85129  13.264   2.781   4.513
20145W        W85130   2.512  11.977   0.012
20146W        W85131  11.132  16.930  13.038
20147W        W85132  42.106   4.122  11.132
20148W        W85133  17.114  23.555   4.634
20149W        W85134  37.016  27.069  10.398
20150W        W85135  44.863  39.811  12.929
20151W        W85136  24.824   7.721   3.826
20152W        W85137  18.718  20.747  14.398
20153W        W85138  19.804  11.422   4.158
20154W        W85139  10.552  28.618   4.665
20155W        W85140  14.120  30.952   2.365
20156W        W85141  17.906  24.203  11.583
20157W        W85142  33.173  28.029  11.815
20158W        W85143   6.461  33.475  11.844
20159W        W85144  29.411  40.568   0.219
20160W        W85145  27.922   3.509  12.854
20161W        W85146  11.257  23.668  10.996
20162W        W85147  37.293   6.376  13.445
20163W        W85148   3.315   2.800   0.759
20164W        W85149   8.657   6.872   1.631
20165W        W85150   6.916  23.753   4.481
20166W        W85151  21.324  37.685   5.096
20167W        W85152   4.855   4.253  14.388
20168W        W85153  31.532  40.332   2.327
20169W        W85154   3.854  13.046   4.184
20170W        W85155  44.889  21.680   2.087
20171W        W85156  36.355  41.355   4.115
20172W        W85157  32.610  15.582  14.234
20173W        W85158   9.459   0.226  12.053
20174W        W85159  32.112  42.002   4.050
20175W        W85160  40.714  28.960  13.567
20176W        W85161   5.030  35.864   5.093
20177W        W85162  38.949   1.739  10.097
20178W        W85163  11.291  29.675   0.997
20179W        W85164   2.379  42.012  14.127
20180W        W85165  30.809  16.192   0.482
20181W        W85166   0.842  42.852  12.985
20182W        W85167  15.311  41.436  11.582
20183W        W85168  43.134  36.829  13.736
20184W        W85169   3.870  14.575  13.847
20185W        W85170  22.409  13.497  11.733
20186W        W85171  43.515  15.661  14.699
20187W        W85172  41.929  24.232   2.769
20188W        W85173   1.147  28.011   3.621
20189W        W85174  12.282   4.893   1.481
20190W        W85175   1.897  34.901  12.018
20191W        W85176   8.541  31.579  14.902
20192W        W85177  33.501  39.344   2.371
20193W        W85178   3.989  13.318   4.601
20194W        W85179  13.488   1.427  11.040
20195W        W85180  34.668  30.216  11.162
20196W        W85181  11.208  38.839   4.163
20197W        W85182  28.209  15.847  14.410
20198W        W85183  23.856  27.033  12.860
20199W        W85184  14.620   7.370  12.446
20200W        W85185  29.926   3.680   9.986
20201W        W85186  40.068  40.786  13.076
20202W        W85187  34.952  42.554  12.058
20203W        W85188  36.285   2.547  12.652
20204W        W85189  19.719  22.501  13.010
20205W        W85190  44.383  32.654   0.764
20206W        W85191   6.071  27.246   0.259
20207W        W85192  20.513  14.944   2.727
20208W        W85193  33.028  33.149  14.466
20209W        W85194  39.361  30.733  14.238
20210W        W85195   0.048  43.989  11.056
20211W        W85196   8.290  19.731  10.521
20212W        W85197  15.424  32.839   1.586
20213W        W85198  40.438  42.619  14.859
20214W        W85199  39.565  20.568  12.808
20215W        W85200  24.971   0.986  12.120
20216W        W85201  41.394  11.724  12.575
20217W        W85202  22.539  40.696  14.381
20218W        W85203   3.002   2.496  12.629
20219W        W85204   9.017   4.952  13.374
20220W        W85205  21.592  20.757  13.603
20221W        W85206  44.252  32.209  11.868
20222W        W85207  23.004  38.854  14.766
20223W        W85208  19.371   7.676   4.541
20224W        W85209  27.849  39.779  12.379
20225W        W85210  33.028  43.946   0.799
20226W        W85211  31.517  33.141   0.367
20227W        W85212  11.672  34.599  14.816
20228W        W85213  23.146  36.414  12.461
20229W        W85214  39.727  31.290  12.867
20230W        W85215  18.466   8.005  12.489
20231W        W85216  37.872  42.482   2.477
20232W        W85217  36.387  34.978  13.164
20233W        W85218  10.166  32.749  10.289
20234W        W85219  30.629  21.247   3.114
20235W        W85220  16.810  28.414  13.986
20236W        W85221   4.030  10.701   0.977
20237W        W85222  25.715   9.405   4.039
20238W        W85223   7.378  27.077   3.599
20239W        W85224  32.955  24.290   3.990
20240W        W85225  37.476  43.777  13.361
20241W        W85226  22.690  10.236  14.341
20242W        W85227  12.327  25.793   1.738
20243W        W85228  37.185  32.599  12.021
20244W        W85229  41.486  37.621  12.172
20245W        W85230  29.644   4.317   0.270
20246W        W85231   9.297  13.969  11.080
20247W        W85232  38.358  34.972  11.860
20248W        W85233   8.963  30.593  13.572
20249W        W85234   7.692  36.823   0.283
20250W        W85235   8.151  34.397  11.201
20251W        W85236  27.449  27.616   3.422
20252W        W85237  35.220  39.601   2.863
20253W        W85238  32.347  35.797  11.608
20254W        W85239  43.810   1.418  13.425
20255W        W85240  15.839  41.391   2.743
20256W        W85241  31.667   5.774  10.856
20257W        W85242  23.687  11.135  11.523
20258W        W85243  43.221   8.470  11.650
20259W        W85244  23.066  16.985  13.718
20260W        W85245   5.762  41.423  12.785
20261W        W85246  15.574  43.234   2.016
20262W        W85247  22.265  29.893  11.532
20263W        W85248   5.307   5.989   3.001
20264W        W85249   0.936  29.055   0.384
20265W        W85250  35.121   6.727  14.060
20266W        W85251   6.183  36.136  11.278
20267W        W85252   6.716  11.675  13.824
20268W        W85253  22.054   4.617  11.181
20269W        W85254  27.406  12.012  13.631
20270W        W85255  36.486  23.054  12.582
20271W        W85256   2.004  29.644   1.910
20272W        W85257  19.909  12.447   3.347
20273W        W85258  12.437  25.960  12.417
20274W        W85259  32.843  27.764   3.225
20275W        W85260  24.083   8.917  13.097
20276W        W85261  29.766  29.768  13.887
20277W        W85262  17.158  28.610  13.576
20278W        W85263  44.080  19.066  14.267
20279W        W85264  35.823  13.122  10.607
20280W        W85265  22.237   9.837  12.215
20281W        W85266  33.045  26.493   4.585
20282W        W85267  37.826   9.368   1.243
20283W        W85268  16.489  11.776   2.175
20284W        W85269  10.866   1.534   0.514
20285W        W85270  11.956  26.376   3.233
20286W        W85271  40.121  11.331  14.869
20287W        W85272  18.060  36.030   3.808
20288W        W85273  42.927  21.320   2.838
20289W        W85274  29.680   3.330   3.671
20290W        W85275  10.392  43.830  13.800
20291W        W85276  38.972   8.363   4.992
20292W        W85277  17.229  15.247  13.397
20293W        W85278  21.292   1.197  11.525
20294W        W85279  35.101  29.399  13.897
20295W        W85280  43.249  30.586  10.050
20296W        W85281  29.912  27.495   1.162
20297W        W85282   1.200  38.989  14.486
20298W        W85283  24.243  20.831   2.327
20299W        W85284  15.405  27.669  13.593
20300W        W85285  12.532  28.334   4.541
20301W        W85286  24.114  37.065  14.388
20302W        W85287   7.645  40.352   4.100
20303W        W85288  11.367  22.795  14.867
20304W        W85289  27.083  19.474  11.625
20305W        W85290  34.399   9.964  14.236
20306W        W85291  27.551  17.271   3.525
20307W        W85292   8.431   2.212  11.544
20308W        W85293   3.044  31.675   1.398
20309W        W85294  43.521  20.020  14.407
20310W        W85295   1.722  39.573  12.022
20311W        W85296   8.639  32.336  11.505
20312W        W85297  32.792  19.320  12.041
20313W        W85298  39.214  17.619   4.863
20314W        W85299  28.952  39.172   1.526
20315W        W85300  28.492   8.108  11.697
20316W        W85301   2.334  43.691  12.473
20317W        W85302  10.575   1.653  13.359
20318W        W85303  40.451  23.247  12.583
20319W        W85304  25.416  34.401  11.866
20320W        W85305   0.670  40.987  12.102
20321W        W85306  27.168  14.811  10.625
20322W        W85307  27.581   8.768  13.353
20323W        W85308   9.158   0.488   3.651
20324W        W85309   4.218   2.358  11.432
20325W        W85310   0.315   6.813  14.100
20326W        W85311  17.733  10.375   1.437
20327W        W85312  30.182   5.251   3.345
20328W        W85313  24.148   0.812  11.088
20329W        W85314   7.209   5.912  13.910
20330W        W85315  38.779  38.735   1.916
20331W        W85316  10.137   1.453   2.781
20332W        W85317  25.907  33.629   2.747
20333W        W85318  38.257  11.851   1.199
20334W        W85319  38.907   1.912   2.633
20335W        W85320  30.968  33.118   4.393
20336W        W85321  43.430  37.095  10.730
20337W        W85322   4.481  21.104  12.532
20338W        W85323  33.244  37.361  10.784
20339W        W85324  21.679  23.978   1.238
20340W        W85325   2.079   6.841   2.283
20341W        W85326  14.089   0.362  11.926
20342W        W85327   8.395  20.346  11.971
20343W        W85328   0.353  44.717   4.594
20344W        W85329  27.123  26.060   2.428
20345W        W85330   8.419   6.483   3.135
20346W        W85331   1.486  34.557  13.992
20347W        W85332  32.878  40.844  13.497
20348W        W85333  34.947  26.654   3.869
20349W        W85334  34.346  40.933   0.268
20350W        W85335  35.811  33.377  11.006
20351W        W85336  39.161  43.261  13.636
20352W        W85337  23.134  12.563   4.838
20353W        W85338   4.872   2.400  13.460
20354W        W85339   8.324  42.121   2.839
20355W        W85340  30.986  35.521   4.730
20356W        W85341  24.782  39.275  11.082
20357W        W85342  20.038  35.002   1.237
20358W        W85343  22.974  21.188  14.382
20359W        W85344  12.102  28.473   4.773
20360W        W85345   7.233  32.514  10.471
20361W        W85346  30.659  32.055  13.494
20362W        W85347  39.718  42.434  14.950
20363W        W85348  38.443  10.230   1.020
20364W        W85349   2.411  35.577  12.338
20365W        W85350  40.782  10.253  12.455
20366W        W85351  43.047  29.725  11.528
20367W        W85352  14.203  38.372   2.441
20368W        W85353  38.153   4.725  13.535
20369W        W85354   3.286  36.318  13.083
20370W        W85355   8.563  43.363   2.712
20371W        W85356   5.780  41.889  13.561
20372W        W85357   0.082  41.440  14.513
20373W        W85358   6.656  31.564   0.556
20374W        W85359  11.497  15.312  12.590
20375W        W85360  31.370  44.001  14.926
20376W        W85361  11.632  14.316  10.814
20377W        W85362  11.651  15.281   0.956
20378W        W85363  39.069   7.731  13.376
20379W        W85364  19.528   0.309   0.765
20380W        W85365   6.669   1.443   4.279
20381W        W85366  32.131  17.680   0.850
20382W        W85367  10.153  27.499   1.282
20383W        W85368   0.760  33.448  14.349
20384W        W85369   5.440  34.610  12.786
20385W        W85370  18.559  33.530  14.290
20386W        W85371  27.181  15.645   1.207
20387W        W85372  25.108  22.652   1.520
20388W        W85373  42.090  36.114  14.041
20389W        W85374  35.147  34.777  11.348
20390W        W85375  16.636  33.561  13.465
20391W        W85376   6.225   9.831   4.570
20392W        W85377  41.796  23.696  12.624
20393W        W85378   4.133  27.729  14.894
20394W        W85379  36.104   0.845   0.321
20395W        W85380  10.044  22.226  10.212
20396W        W85381   3.528  24.625  12.416
20397W        W85382  34.548  32.444  14.863
20398W        W85383  38.374   2.075   1.394
20399W        W85384  31.002   8.868   1.739
20400W        W85385  34.897  20.226  14.070
20401W        W85386  14.256  21.748   0.814
20402W        W85387  19.736  42.440  14.566
20403W        W85388  15.394  42.607   3.085
20404W        W85389  43.065  42.502  13.170
20405W        W85390  19.335  44.233  11.015
20406W        W85391  25.232   6.318   2.446
20407W        W85392  41.818  37.624  14.910
20408W        W85393  21.650   1.474   1.970
20409W        W85394  13.676   4.428   1.899
20410W        W85395  27.187  31.526  11.183
20411W        W85396  22.725  36.652   3.408
20412W        W85397  31.620  26.689  11.847
20413W        W85398  11.816  25.138   4.526
20414W        W85399  19.562  29.158   1.256
20415W        W85400  30.125   4.067  10.287
20416W        W85401  43.503  26.022  12.944
20417W        W85402  26.006   4.868   3.136
20418W        W85403  44.382  19.125  13.384
20419W        W85404  19.088   1.961  14.868
20420W        W85405  28.099  27.165  11.366
20421W        W85406   9.161  38.858  11.944
20422W        W85407  22.049   9.018   4.896
20423W        W85408  16.770  29.797   1.759
20424W        W85409  21.735   0.017   4.155
20425W        W85410  25.310  28.228  12.476
20426W        W85411  32.194  27.183  11.159
20427W        W85412  12.789   4.689  11.972
20428W        W85413  39.591  16.793   3.702
20429W        W85414  21.637  10.980   3.270
20430W        W85415  29.816   4.150  13.647
20431W        W85416  19.469  43.805  14.582
20432W        W85417   1.970   4.463   3.670
20433W        W85418  27.759  18.795  12.047
20434W        W85419  16.058  22.803   0.844
20435W        W85420  29.077  40.633   1.093
20436W        W85421  41.990   7.833  12.350
20437W        W85422  43.322  17.928  12.895
20438W        W85423  42.799  20.558   1.350
20439W        W85424  12.573  42.529   5.038
20440W        W85425  24.111  24.016   2.212
20441W        W85426  42.549  30.658  14.138
20442W        W85427   9.234  21.239   4.568
20443W        W85428  42.222   3.861  14.797
20444W        W85429  25.150   5.463  11.019
20445W        W85430  43.223   7.177  14.468
20446W        W85431  25.200   9.912   3.661
20447W        W85432  27.925  32.909   1.358
20448W        W85433  38.849  37.333  13.500
20449W        W85434  33.128   5.860  10.272
20450W        W85435  38.263  14.564   4.194
20451W        W85436   7.157  38.061  11.513
20452W        W85437  27.076   2.271  10.995
20453W        W85438  33.632  23.552   0.464
20454W        W85439   6.686  22.601  14.947
20455W        W85440  33.894   0.362  10.617
20456W        W85441  38.325  26.184   0.802
20457W        W85442  25.248  41.019  12.889
20458W        W85443  37.990  30.476   3.143
20459W        W85444  26.197   5.927  14.951
20460W        W85445  43.714   7.086   0.352
20461W        W85446   2.678  19.100   0.399
20462W        W85447  38.633   3.344   1.451
20463W        W85448  27.645  38.393  13.584
20464W        W85449  39.766  44.249  14.861
20465W        W85450  23.847  36.731   2.808
20466W        W85451  41.261  20.476  10.033
20467W        W85452  16.174  30.510  10.168
20468W        W85453  29.069  40.921  14.980
20469W        W85454  18.195  22.931  10.635
20470W        W85455  14.248   4.390  14.055
20471W        W85456  20.258  42.547  14.430
20472W        W85457  35.285  12.747  11.048
20473W        W85458  43.198  14.596  13.011
20474W        W85459  41.341   0.693  11.722
20475W        W85460   3.150   4.211   0.817
20476W        W85461  32.906  33.852  13.025
20477W        W85462  30.023  17.555  13.945
20478W        W85463   9.257  16.027  11.159
20479W        W85464  30.560  14.068   0.700
20480W        W85465   5.178  36.507  14.088
20481W        W85466  12.693   6.818   4.024
20482W        W85467   6.528  15.208  11.887
20483W        W85468  31.476  32.481   4.839
20484W        W85469  35.504   9.876   5.094
20485W        W85470  33.353  12.083   2.553
20486W        W85471  42.317   1.577   3.379
20487W        W85472  18.816  17.619  11.070
20488W        W85473  15.275   9.917  13.310
20489W        W85474   4.815  40.129   1.374
20490W        W85475  25.575  24.430  11.663
20491W        W85476  24.089  39.148  11.199
20492W        W85477  19.600   9.562  13.363
20493W        W85478   2.917  42.807   0.681
20494W        W85479  16.591  17.569   1.623
20495W        W85480  27.198  40.982  10.692
20496W        W85481  37.268  41.493  13.414
20497W        W85482  33.922  27.079   4.643
20498W        W85483  15.859  29.726  11.134
20499W        W85484  32.238  20.190   5.161
20500W        W85485  39.748   4.583  14.867
20501W        W85486  22.353  22.951  14.253
20502W        W85487  41.494  31.714   3.609
20503W        W85488   3.693   4.719   3.694
20504W        W85489   8.334  10.810  13.716
20505W        W85490  41.270   4.784   4.174
20506W        W85491  44.483  17.320  10.412
20507W        W85492  14.003  22.956  12.845
20508W        W85493  20.321  41.893   3.096
20509W        W85494  30.503  40.949   2.802
20510W        W85495  24.348  29.988   1.446
20511W        W85496   4.805   8.304  13.495
20512W        W85497   4.739  31.439  11.446
20513W        W85498  13.221  34.167  13.607
20514W        W85499   3.779  38.453  10.821
20515W        W85500   8.786   0.699  11.600
20516W        W85501  29.183  12.622  13.901
20517W        W85502  28.849   8.756   4.005
20518W        W85503   6.886  23.199  14.479
20519W        W85504  44.197   6.405  14.453
20520W        W85505  27.501  13.258  10.741
20521W        W85506  21.315  23.066   2.205
20522W        W85507   2.636   5.462   1.320
20523W        W85508  43.942   1.941   1.986
20524W        W85509  28.530  30.504   0.927
20525W        W85510  44.236  28.947   4.099
20526W        W85511   6.904  34.465   0.527
20527W        W85512  16.141  23.262  14.787
20528W        W85513  13.631   0.972   4.318
20529W        W85514  34.386  22.932  12.275
20530W        W85515  26.845   8.866   2.679
20531W        W85516  14.329   0.352  11.482
20532W        W85517  42.721  20.935   2.181
20533W        W85518  36.309  39.858   0.830
20534W        W85519  24.305  30.986  13.050
20535W        W85520   2.655  25.851   1.892
20536W        W85521  37.523  31.856   2.794
20537W        W85522  40.691  17.778   2.698
20538W        W85523  16.637  34.143   4.252
20539W        W85524  38.499  23.259   2.425
20540W        W85525   1.306  16.148   4.793
20541W        W85526   0.040  23.995   9.864
20542W        W85527   4.263  31.320  10.554
20543W        W85528   4.932   2.792   1.189
20544W        W85529   6.861  20.695   2.409
20545W        W85530  27.569   8.924   0.394
20546W        W85531   2.807  32.386  10.715
20547W        W85532  29.017  29.605  14.732
20548W        W85533  11.876  36.855   4.715
20549W        W85534  25.270  28.209  14.907
20550W        W85535  29.676  11.623  10.767
20551W        W85536  23.654   9.257  10.506
20552W        W85537  27.186  19.179   2.824
20553W        W85538   4.155  32.960  13.512
20554W        W85539  37.335  29.079  12.771
20555W        W85540   9.186  19.582  13.285
20556W        W85541  12.378  10.920   0.228
20557W        W85542  30.027  28.577  10.707
20558W        W85543  12.566  14.253   3.200
20559W        W85544   7.385  28.401  13.973
20560W        W85545   8.810  38.464  11.922
20561W        W85546  25.495   8.460  11.626
20562W        W85547  11.409  13.656   2.221
20563W        W85548   5.866  40.485  13.158
20564W        W85549  26.106  22.422  14.534
20565W        W85550  38.831  23.946   4.059
20566W        W85551  32.127  16.421  10.850
20567W        W85552   2.388  42.251  13.175
20568W        W85553  43.055   0.242  14.068
20569W        W85554  22.593  13.423  12.394
20570W        W85555   9.091  16.315   2.961
20571W        W85556  38.827  33.471   4.638
20572W        W85557  43.803  15.454  11.515
20573W        W85558  44.339  38.178   3.693
20574W        W85559  41.543  34.489  12.595
20575W        W85560  36.531  16.155  11.769
20576W        W85561   9.530  21.056  11.425
20577W        W85562  13.881   9.343  14.905
20578W        W85563  35.152  43.700  14.059
20579W        W85564   6.804  10.111  11.019
20580W        W85565  13.017  25.547   3.149
20581W        W85566  23.278  33.478   3.035
20582W        W85567  39.934   4.356  11.970
20583W        W85568  11.049  28.989   0.464
20584W        W85569  30.126  23.009   4.148
20585W        W85570   4.468  19.524   0.838
20586W        W85571   3.243   9.354  12.076
20587W        W85572  32.961  40.540   2.516
20588W        W85573  13.044  17.239   0.097
20589W        W85574  10.610  23.672   3.765
20590W        W85575  12.041  28.597  13.114
20591W        W85576  33.029  36.269  12.084
20592W        W85577   0.547  35.088  10.705
20593W        W85578   6.137  25.935   0.628
20594W        W85579  15.748  13.320  11.026
20595W        W85580  27.514  37.285   2.365
20596W        W85581  20.661  31.806  14.865
20597W        W85582  10.305  14.645  14.295
20598W        W85583   0.317  11.632   4.168
20599W        W85584  11.873  24.014  13.952
20600W        W85585  40.297  21.005  10.611
20601W        W85586  42.598  36.138  13.984
20602W        W85587  37.970  22.121  10.337
20603W        W85588  37.063   2.191   2.834
20604W        W85589  41.482  17.252   3.907
20605W        W85590  23.490  28.036   0.799
20606W        W85591  25.133   3.826  14.544
20607W        W85592  32.179  43.488   2.875
20608W        W85593   4.265  38.879   4.060
20609W        W85594   3.175  15.189   3.871
20610W        W85595   7.661  34.530  11.166
20611W        W85596  19.630  21.195   3.743
20612W        W85597   6.232  16.795  13.528
20613W        W85598  19.257  13.060  13.867
20614W        W85599  17.754  35.630   1.805
20615W        W85600  16.524  29.553  11.687
20616W        W85601  26.530  32.023  14.453
20617W        W85602  14.184  22.547   9.934
20618W        W85603  20.691  21.757   0.901
20619W        W85604  13.179  10.222  13.911
20620W        W85605  25.150  31.969   1.827
20621W        W85606  21.598  27.103   1.323
20622W        W85607  20.604  19.553  12.129
20623W        W85608  17.960  22.515   1.198
20624W        W85609  42.747  35.537  13.997
20625W        W85610  44.450  12.605   0.326
20626W        W85611  44.704  22.093   0.283
20627W        W85612  10.365  10.950   3.739
20628W        W85613   2.188   3.681   3.969
20629W        W85614  44.061  22.530  14.058
20630W        W85615  14.590  10.310  12.490
20631W        W85616  24.720   7.201   1.501
20632W        W85617  34.387  14.857  11.711
20633W        W85618  38.435  42.289   1.000
20634W        W85619  29.047   2.952   0.432
20635W        W85620  30.538   6.945  14.354
20636W        W85621  27.658  25.632  13.288
20637W        W85622   1.162  43.452  10.732
20638W        W85623  38.524  36.220  10.775
20639W        W85624  22.052  24.679   3.523
20640W        W85625  25.446  21.211   2.395
20641W        W85626   2.768  25.144   0.727
20642W        W85627  22.190  30.423   9.594
20643W        W85628  41.811  12.746   4.807
20644W        W85629  30.952  32.938   3.659
20645W        W85630   2.385  17.450  14.414
20646W        W85631  31.506  39.068  14.024
20647W        W85632  10.204  29.645  14.999
20648W        W85633  26.793  24.014  11.005
20649W        W85634  21.834  25.538  13.258
20650W        W85635  14.747  10.824   4.092
20651W        W85636  11.859  26.636  11.101
20652W        W85637   5.240  12.236   2.655
20653W        W85638  21.752  29.493  12.108
20654W        W85639  44.348  15.398   2.798
20655W        W85640  11.656  14.745   2.970
20656W        W85641  40.134   5.519   3.793
20657W        W85642  14.264   0.923  14.401
20658W        W85643  40.397   0.947  14.492
20659W        W85644   0.121  35.661  13.802
20660W        W85645  21.725  36.387  14.351
20661W        W85646  39.519  19.676   2.276
20662W        W85647   7.388  25.271  11.239
20663W        W85648  42.419  34.363   2.796
20664W        W85649   5.753  44.937  10.862
20665W        W85650  27.243   6.874   2.711
20666W        W85651  43.791  21.527  11.838
20667W        W85652  38.469  21.255  14.212
20668W        W85653  42.808  19.106   0.352
20669W        W85654  11.432  37.029   0.761
20670W        W85655  24.098  39.775  14.478
20671W        W85656  10.589  42.760  12.449
20672W        W85657  31.901  21.271   2.253
20673W        W85658   9.410   1.524   1.440
20674W        W85659  31.850  38.553  12.919
20675W        W85660  32.418  18.905  14.808
20676W        W85661  20.663  27.561  12.876
20677W        W85662  41.293   3.215  13.445
20678W        W85663   0.255  44.329  13.225
20679W        W85664  10.688  22.701   1.549
20680W        W85665  35.403  30.847  10.658
20681W        W85666  36.926  17.530   2.767
20682W        W85667   2.993  39.710  12.511
20683W        W85668  39.007  10.917   4.546
20684W        W85669  33.863   4.240  11.145
20685W        W85670  29.554  35.455   2.461
20686W        W85671  32.197  37.526  10.784
20687W        W85672  38.985  19.552  11.617
20688W        W85673  40.070  32.777  12.386
20689W        W85674  39.900  29.913   1.755
20690W        W85675  31.853  31.520   3.801
20691W        W85676  28.503  25.610  14.085
20692W        W85677   6.879  41.991  12.518
20693W        W85678   6.484  23.634   1.723
20694W        W85679  30.838  27.037  14.344
20695W        W85680  33.629  28.684  13.056
20696W        W85681   1.839  11.919   0.928
20697W        W85682  17.600  37.627   1.868
20698W        W85683   1.175  20.446  13.051
20699W        W85684  20.522  32.299   2.165
20700W        W85685   8.397   7.909  11.213
20701W        W85686  44.471   7.357  14.701
20702W        W85687  39.214   4.435  12.835
20703W        W85688  42.288   8.398  14.753
20704W        W85689  38.792  36.696   0.288
20705W        W85690  27.496  28.477  13.572
20706W        W85691  27.660  22.103  14.314
20707W        W85692  11.863  43.291   4.054
20708W        W85693   2.466  21.585   1.421
20709W        W85694  35.844  31.137   0.092
20710W        W85695   4.324  38.862  11.410
20711W        W85696   3.393  32.378   2.098
20712W        W85697  15.958  20.726   1.728
20713W        W85698   0.313  14.819   3.234
20714W        W85699  32.346   1.187  12.550
20715W        W85700  31.845  22.518  11.521
20716W        W85701  41.892  32.692   2.518
20717W        W85702   4.403  12.796   0.731
20718W        W85703  12.845  25.242   4.007
20719W        W85704  39.661  32.900   4.558
20720W        W85705  39.083   1.554   1.939
20721W        W85706  11.893  42.997   4.494
20722W        W85707  30.716  29.487   1.443
20723W        W85708  11.031  32.122  10.898
20724W        W85709   9.884   4.353   2.189
20725W        W85710  33.020  30.373   0.371
20726W        W85711  20.377  29.018   3.088
20727W        W85712  42.316  30.397   4.667
20728W        W85713   4.247  28.481   3.847
20729W        W85714  35.042  28.912   0.291
20730W        W85715   9.631  27.177   0.574
20731W        W85716  10.337  41.779  11.256
20732W        W85717   3.215  42.488  10.605
20733W        W85718  23.038  21.825   2.359
20734W        W85719  33.909  40.629   1.478
20735W        W85720  35.413   7.802  11.762
20736W        W85721  36.392  35.851   1.764
20737W        W85722   5.697   7.767   0.435
20738W        W85723   8.640  37.922   0.183
20739W        W85724  28.523  30.459   2.482
20740W        W85725   1.884  18.945   2.461
20741W        W85726  38.855  31.058  12.395
20742W        W85727  44.360  11.092  11.692
20743W        W85728   8.301  44.975  12.395
20744W        W85729  18.285  43.906   3.337
20745W        W85730  10.192  17.299   5.020
20746W        W85731   4.627  30.085  10.928
20747W        W85732  10.382  24.629   3.696
20748W        W85733  38.611   4.730   2.243
20749W        W85734   1.519  22.054   2.840
20750W        W85735  10.313   7.683  10.732
20751W        W85736  23.049  15.257  11.613
20752W        W85737  41.125  19.026   4.455
20753W        W85738  10.871  28.117   0.967
20754W        W85739  13.072  19.699   1.944
20755W        W85740  23.613  43.245   4.731
20756W        W85741   8.334  11.059   1.113
20757W        W85742  11.830   2.820   0.245
20758W        W85743  26.609   5.920  12.485
20759W        W85744   1.633  18.168  11.016
20760W        W85745  43.414  27.904  10.667
20761W        W85746  40.985   4.440   2.647
20762W        W85747  19.264  43.060  14.319
20763W        W85748  11.629  40.502   1.665
20764W        W85749  16.126   1.815  12.967
20765W        W85750  29.758  15.757  14.327
20766W        W85751  36.379   9.109  13.600
20767W        W85752   5.521  36.206   3.328
20768W        W85753  40.929  20.826  14.082
20769W        W85754   2.318  15.877   1.097
20770W        W85755  12.365  16.790  11.586
20771W        W85756  10.605  23.145   1.309
20772W        W85757  20.045  44.792   2.684
20773W        W85758  33.438  21.495   4.452
20774W        W85759  32.359  18.611  12.996
20775W        W85760   2.401  12.245  13.301
20776W        W85761  42.852  30.792   0.588
20777W        W85762  37.960   5.241   1.855
20778W        W85763  40.249  10.828   2.694
20779W        W85764   0.041  17.102   0.206
20780W        W85765   4.282  19.641  12.623
20781W        W85766  22.267  33.694   4.260
20782W        W85767  41.485   3.881   2.680
20783W        W85768  28.076  35.995  14.341
20784W        W85769   7.994  34.520   0.474
20785W        W85770  32.050  28.039  12.427
20786W        W85771  33.431  32.368   4.154
20787W        W85772  23.249  20.851  11.411
20788W        W85773  10.327  15.107   0.508
20789W        W85774  10.332  24.568  14.204
20790W        W85775  16.347   2.719  12.647
20791W        W85776  27.925   4.280   1.252
20792W        W85777  19.165   5.078   5.468
20793W        W85778   9.724  27.520  11.705
20794W        W85779  44.448  27.731   0.958
20795W        W85780  29.542  19.089  11.927
20796W        W85781   0.421  18.668  13.270
20797W        W85782  32.668  18.823   2.577
20798W        W85783  30.046  15.554  12.963
20799W        W85784  12.918  43.952   1.724
20800W        W85785  23.231  17.770   1.200
20801W        W85786  42.924  36.347  13.608
20802W        W85787   2.015  10.851   0.317
20803W        W85788  17.756  22.067  10.776
20804W        W85789  40.089  27.855   3.374
20805W        W85790  17.057  28.631  12.634
20806W        W85791  12.240  15.634   3.891
20807W        W85792  24.070   9.626  14.785
20808W        W85793  27.670  12.656  12.917
20809W        W85794   8.595  26.205  11.175
20810W        W85795  26.481   2.489  12.047
20811W        W85796  15.674  31.825   5.067
20812W        W85797  36.778  42.406  14.644
20813W        W85798  19.767  40.765   4.715
20814W        W85799   5.400  29.938   4.214
20815W        W85800  27.578   8.495  12.112
20816W        W85801   0.152  32.007  14.673
20817W        W85802  20.707  35.977  11.615
20818W        W85803  37.012   6.660  12.908
20819W        W85804   1.928  31.646  13.931
20820W        W85805  24.379  17.337  10.017
20821W        W85806  33.170   1.730   2.686
20822W        W85807   1.404  24.240  12.906
20823W        W85808  38.847  32.790   4.159
20824W        W85809  30.871   2.029  12.248
20825W        W85810   8.447  31.578  12.479
20826W        W85811   0.200  43.934   0.893
20827W        W85812  44.541  17.743  13.386
20828W        W85813  26.766  37.931  10.980
20829W        W85814  22.030  37.572  12.843
20830W        W85815  12.826   3.511   4.167
20831W        W85816  24.396  32.864  14.355
20832W        W85817  21.114  32.373  12.846
20833W        W85818  42.512   6.484   1.712
20834W        W85819  11.821  43.012  12.203
20835W        W85820  31.818  17.685   2.159
20836W        W85821  33.191  11.779   0.804
20837W        W85822  37.087  21.201  13.551
20838W        W85823  27.054  16.740   0.760
20839W        W85824  30.496  27.742   1.861
20840W        W85825   1.480  12.586   1.395
20841W        W85826  13.074   8.231   9.759
20842W        W85827  10.776   6.902  10.549
20843W        W85828  23.925  21.523  13.009
20844W        W85829  23.710  31.542  11.938
20845W        W85830  42.676  15.114  13.433
20846W        W85831  34.358   8.436  12.162
20847W        W85832  14.380  24.690   2.802
20848W        W85833  20.630  22.771   1.031
20849W        W85834  22.489  39.726  12.500
20850W        W85835  11.156  22.039   2.233
20851W        W85836  26.214  29.939   1.039
20852W        W85837  34.034  30.957  13.032
20853W        W85838   8.224  23.517   1.273
20854W        W85839  38.962   0.066   2.880
20855W        W85840  32.374  13.427   3.956
20856W        W85841  37.950  10.870   2.102
20857W        W85842   6.716  36.082   3.778
20858W        W85843  28.441  27.408   2.712
20859W        W85844  19.350  33.179   1.978
20860W        W85845  18.719   6.316   1.499
20861W        W85846  17.491  10.737  11.006
20862W        W85847  38.098   2.363  14.434
20863W        W85848  29.022  34.146   1.715
20864W        W85849  26.697  37.509   1.305
20865W        W85850  37.474  20.108  12.400
20866W        W85851  36.190   2.228   3.534
20867W        W85852   0.064   4.489  12.569
20868W        W85853   9.300  42.843  10.978
20869W        W85854  41.500  20.167  12.963
20870W        W85855  26.046  38.476  14.767
20871W        W85856   9.883   9.635  14.237
20872W        W85857   5.945   7.680   2.907
20873W        W85858  24.918  25.093   1.711
20874W        W85859   4.902  12.699   1.462
20875W        W85860  33.784  44.905  13.702
20876W        W85861  39.119  31.567  11.490
20877W        W85862   0.255  39.884  14.704
20878W        W85863  40.784  30.999  14.307
20879W        W85864  15.051  21.120   3.733
20880W        W85865  23.603  41.507  14.577
20881W        W85866  12.701   5.990  13.250
20882W        W85867  22.101  32.293   2.977
20883W        W85868  11.653  19.485  13.921
20884W        W85869  34.023  42.775   1.545
20885W        W85870  31.427  12.232   1.865
20886W        W85871  38.518  33.156  11.588
20887W        W85872   2.219  20.748   2.242
20888W        W85873  13.799  16.650   3.105
20889W        W85874  36.251  16.048   2.698
20890W        W85875  43.665  12.233   0.157
20891W        W85876  41.839  30.505   4.481
20892W        W85877  37.361  22.562   4.123
20893W        W85878  12.681  28.980   2.852
20894W        W85879  16.275   0.412  14.897
20895W        W85880  39.556  42.215   2.360
20896W        W85881   0.779  18.986  12.836
20897W        W85882  31.957  32.017   3.631
20898W        W85883  17.772  12.763  13.961
20899W        W85884  16.967  41.318   3.986
20900W        W85885  19.844  37.917  13.608
20901W        W85886  36.130  24.417  12.329
20902W        W85887  30.711  31.039  14.841
20903W        W85888  36.289   8.525   1.638
20904W        W85889  16.183  21.091   5.480
20905W        W85890  20.757  13.205  12.865
20906W        W85891  26.240   4.947  10.594
20907W        W85892  18.713  29.677  12.426
20908W        W85893  17.125  23.011   0.198
20909W        W85894  24.758  44.492   0.365
20910W        W85895   1.803  37.584   4.612
20911W        W85896  11.206  24.969  13.251
20912W        W85897   8.321  29.712   1.490
20913W        W85898   3.040  34.103   1.835
20914W        W85899  40.790  11.759   1.698
20915W        W85900  41.455   3.645  10.879
20916W        W85901  27.219  27.213   1.045
20917W        W85902  29.498  25.460   0.568
20918W        W85903  21.993  26.959   4.261
20919W        W85904  23.025  41.537  11.172
20920W        W85905  29.060  21.986  13.577
20921W        W85906  37.354  43.580  12.903
20922W        W85907  24.415  22.639   2.927
20923W        W85908  16.270  16.083  13.803
20924W        W85909  13.723  15.535  11.574
20925W        W85910   2.061  34.794  11.534
20926W        W85911   4.260   8.568  14.075
20927W        W85912  19.606   6.995   0.494
20928W        W85913  20.013  18.590  14.433
20929W        W85914  44.489  16.502  14.760
20930W        W85915   6.990  44.273   4.629
20931W        W85916   9.715  13.781   2.816
20932W        W85917  22.769   5.684   0.566
20933W        W85918   8.408  26.173   1.410
20934W        W85919  23.468  42.955  14.454
20935W        W85920  25.020  18.828  12.058
20936W        W85921  30.879  28.494   3.708
20937W        W85922  44.017  40.022   2.782
20938W        W85923  17.719  37.306   4.201
20939W        W85924  34.639   2.491   3.648
20940W        W85925  15.331  35.605  10.728
20941W        W85926  34.028   8.883   1.911
20942W        W85927  11.680  20.044   4.791
20943W        W85928  15.239  25.024   4.178
20944W        W85929   3.800  10.211  14.349
20945W        W85930   6.247  11.983  10.279
20946W        W85931  27.646  43.045   3.558
20947W        W85932  30.048   7.040  11.431
20948W        W85933  14.977  24.035  14.872
20949W        W85934  41.599  28.642  14.438
20950W        W85935   4.528  23.687   3.948
20951W        W85936  21.253  20.246  10.966
20952W        W85937   1.346  21.108  11.235
20953W        W85938  35.999  24.604  14.347
20954W        W85939  17.272  17.354   3.792
20955W        W85940  39.986  40.497   2.831
20956W        W85941  22.192  44.563   3.647
20957W        W85942   9.120  25.118  11.200
20958W        W85943   1.232  23.045  14.384
20959W        W85944  26.024  12.377   0.516
20960W        W85945   1.518  27.082  13.046
20961W        W85946  32.193  12.699  11.995
20962W        W85947  23.590  33.968  11.689
20963W        W85948  10.107  14.794  12.015
20964W        W85949  18.722  28.532  14.279
20965W        W85950  29.581  20.610   3.469
20966W        W85951  20.206  15.213  14.822
20967W        W85952  20.048   4.104  14.118
20968W        W85953   5.729  34.472   0.431
20969W        W85954   3.521  30.530   3.369
20970W        W85955  10.468  42.022   2.191
20971W        W85956  44.014  27.289  11.814
20972W        W85957   2.784  35.366  14.428
20973W        W85958  35.069  22.604   5.024
20974W        W85959  42.527  18.451  12.904
20975W        W85960   2.886  11.297   1.202
20976W        W85961  33.372  44.538  12.999
20977W        W85962  33.551  22.602   2.204
20978W        W85963   6.284  40.920  13.798
20979W        W85964  31.144  24.007  12.632
20980W        W85965  18.496  17.995  11.238
20981W        W85966  27.927  33.402   4.146
20982W        W85967  32.280  44.491  12.899
20983W        W85968  17.051  32.626  13.808
20984W        W85969  13.868  14.200  11.557
20985W        W85970   0.856   9.329  10.969
20986W        W85971  39.047  25.295  12.135
20987W        W85972  28.716   4.817   4.315
20988W        W85973  14.333   9.187  14.657
20989W        W85974  29.068  12.843   2.600
20990W        W85975  17.214  16.607  12.379
20991W        W85976  33.877  32.542  11.030
20992W        W85977  22.601  38.341  12.120
20993W        W85978  16.817  11.481  11.043
20994W        W85979  32.250  17.608  14.817
20995W        W85980  28.987  26.617   0.348
20996W        W85981  40.253  33.955   4.378
20997W        W85982  38.493  15.797   1.198
20998W        W85983  44.990  37.365   0.823
20999W        W85984  28.629  24.028   1.596
21000W        W85985   1.471  13.269  14.866
21001W        W85986  10.112  19.733   4.108
21002W        W85987  28.028   2.501  12.119
21003W        W85988   1.550  11.238   3.090
21004W        W85989  14.343  41.475   0.820
21005W        W85990  42.605  10.781  11.531
21006W        W85991  15.617  44.226  12.364
21007W        W85992   8.724  37.512   0.838
21008W        W85993  34.250  25.256  11.995
21009W        W85994  44.680   1.553  14.950
21010W        W85995  40.937  24.391   5.353
21011W        W85996  39.620  31.874  14.859
21012W        W85997  12.795  16.824   3.867
21013W        W85998  29.706  43.404  11.187
21014W        W85999   3.287  40.095   0.215
21015W        W86000   4.641  35.830   4.728
21016W        W86001   4.875  20.676  12.965
21017W        W86002  21.662  32.740  14.970
21018W        W86003  15.592   5.839   0.927
21019W        W86004  35.027  41.809   1.132
21020W        W86005  21.331   9.704  12.561
21021W        W86006   4.852   5.938  12.292
21022W        W86007   8.845   6.181  14.014
21023W        W86008  28.631  32.172  10.983
21024W        W86009  11.227   3.143  11.122
21025W        W86010  29.280   2.781   4.516
21026W        W86011  18.123  26.731  14.887
21027W        W86012  26.712  25.009  12.011
21028W        W86013  29.962   7.170   3.386
21029W        W86014   3.249  15.237   1.402
21030W        W86015   6.103  20.759   4.274
21031W        W86016  16.636  41.956  10.687
21032W        W86017  32.524  39.524   1.238
21033W        W86018  34.159  16.711  14.331
21034W        W86019  19.884  39.244   2.696
21035W        W86020   2.472  25.095   2.903
21036W        W86021  17.749  31.967  13.621
21037W        W86022   3.294  15.862   2.232
21038W        W86023  16.200  19.688  14.365
21039W        W86024  39.506  29.560   4.303
21040W        W86025  17.626  17.578   3.061
21041W        W86026  34.218  18.372   4.293
21042W        W86027  28.492   7.774   4.182
21043W        W86028  28.523   1.189   0.835
21044W        W86029  11.049  40.911  14.266
21045W        W86030  20.625  34.105   3.961
21046W        W86031  33.307  33.936  12.245
21047W        W86032  24.724  18.651  10.618
21048W        W86033  35.180  19.273  14.925
21049W        W86034  21.186   1.580   4.153
21050W        W86035   6.006  30.574   4.741
21051W        W86036  20.570  28.653   3.992
21052W        W86037   8.125  15.043   4.732
21053W        W86038  20.187  24.619  14.033
21054W        W86039  20.093  44.802   4.592
21055W        W86040  34.471  16.281   1.459
21056W        W86041  28.175  15.645   1.556
21057W        W86042   5.352  12.624   3.771
21058W        W86043  14.338  13.786   3.237
21059W        W86044  31.707  30.010  11.239
21060W        W86045  26.599   8.848   2.218
21061W        W86046   8.950  22.610   4.987
21062W        W86047  12.361  42.492  11.212
21063W        W86048   7.180  19.680   1.094
21064W        W86049   1.527  41.877  13.595
21065W        W86050   0.543  43.486   3.309
21066W        W86051  17.702  33.191  14.413
21067W        W86052  43.961  42.391   2.150
21068W        W86053  32.992   6.451  14.905
21069W        W86054  31.365  20.312  14.824
21070W        W86055  40.002  14.049  13.472
21071W        W86056   5.180   0.741  10.799
21072W        W86057  34.182  10.215  12.950
21073W        W86058  44.205  34.572   4.144
21074W        W86059  34.264  15.158   3.425
21075W        W86060   0.368  30.864   1.585
21076W        W86061  31.460  23.208  13.417
21077W        W86062   9.874  16.770  14.004
21078W        W86063  38.765  10.449   1.452
21079W        W86064  35.443  28.260   0.634
21080W        W86065  36.318  17.052  13.172
21081W        W86066  42.320  27.593   3.127
21082W        W86067  43.439  23.049   3.174
21083W        W86068  31.019  11.424   1.235
21084W        W86069  34.654  31.565  11.659
21085W        W86070  20.644  33.443  10.637
21086W        W86071  27.878  18.153  12.396
21087W        W86072  11.708   8.092   1.362
21088W        W86073  14.801  14.677  12.529
21089W        W86074  34.969  38.390  12.053
21090W        W86075  38.408   0.920   3.112
21091W        W86076   4.025  44.218  13.610
21092W        W86077   9.342  43.784   3.355
21093W        W86078  34.003  19.949   2.833
21094W        W86079  43.484  27.026   2.915
21095W        W86080   7.688  41.020   3.761
21096W        W86081  16.593   3.335  13.967
21097W        W86082   9.870  31.670  13.453
21098W        W86083   8.424  38.332   0.408
21099W        W86084  15.206   2.201   3.357
21100W        W86085  15.551   5.322   2.772
21101W        W86086  43.438  35.456   3.875
21102W        W86087  35.602  16.189  14.938
21103W        W86088  44.443  38.126  14.885
21104W        W86089  32.292  33.789  11.614
21105W        W86090   1.065  35.795   4.539
21106W        W86091  35.790  12.019   9.967
21107W        W86092  26.027  16.353  10.696
21108W        W86093  44.783  43.281  12.344
21109W        W86094  32.690  32.652   2.247
21110W        W86095  27.601  16.758   3.560
21111W        W86096  31.102  44.309   1.818
21112W        W86097  25.492  29.135   0.121
21113W        W86098  15.817   1.955  10.649
21114W        W86099  15.106  41.591   0.389
21115W        W86100  17.220  37.165   4.179
21116W        W86101  36.336  19.466   1.663
21117W        W86102   4.417  15.279   1.735
21118W        W86103  14.784  35.483  12.921
21119W        W86104  14.336  28.112   2.327
21120W        W86105   4.788  24.546  13.025
21121W        W86106  29.169  33.543   0.137
21122W        W86107   7.913   0.708  11.180
21123W        W86108  29.393   4.707   1.784
21124W        W86109  12.520  42.474  12.071
21125W        W86110  30.925  22.804  14.327
21126W        W86111  22.117  41.395   3.778
21127W        W86112  20.447  27.199  10.630
21128W        W86113  14.306  39.469  14.504
21129W        W86114  14.368  42.984   2.014
21130W        W86115   8.239  35.880   1.701
21131W        W86116  30.616  31.178  12.360
21132W        W86117  22.613   3.171   3.131
21133W        W86118  40.757   2.264  10.499
21134W        W86119  16.700  33.603   1.222
21135W        W86120   7.673  24.706   1.441
21136W        W86121  22.329  11.223  13.592
21137W        W86122  44.015  44.177  11.978
21138W        W86123  12.087  38.278   0.860
21139W        W86124   3.805   5.875   2.078
21140W        W86125  21.165  27.888  11.665
21141W        W86126   1.351  36.875  12.454
21142W        W86127  23.599  43.052   2.634
21143W        W86128  40.252  28.758  11.199
21144W        W86129  16.817   8.307  12.560
21145W        W86130   3.778  38.369  11.772
21146W        W86131  44.304   4.720  14.577
21147W        W86132   6.449  38.364  13.653
21148W        W86133   4.843   4.888   0.975
21149W        W86134  19.631  31.680   0.411
21150W        W86135  33.678  18.617   0.687
21151W        W86136  26.549   2.258  14.811
21152W        W86137  14.761  44.422   2.903
21153W        W86138   4.729   4.438   4.858
21154W        W86139  26.397  26.912   4.081
21155W        W86140  24.830   8.904   3.926
21156W        W86141  21.128  23.450  14.915
21157W        W86142   6.218  11.630   1.425
21158W        W86143  34.936  41.672   0.636
21159W        W86144   2.784   9.398  14.836
21160W        W86145  35.115  32.266  10.313
21161W        W86146  38.431  18.576  13.290
21162W        W86147  24.619  37.045   4.647
21163W        W86148  33.927   4.528  14.863
21164W        W86149  18.073  29.219   2.830
21165W        W86150  19.782   7.616   0.748
21166W        W86151   4.170  35.322  14.460
21167W        W86152  22.446  25.927  11.133
21168W        W86153   5.000  40.462  14.961
21169W        W86154  35.985  12.144   0.535
21170W        W86155  30.519  23.055  14.557
21171W        W86156  21.791  19.638  14.399
21172W        W86157  32.000  18.878  13.784
21173W        W86158  41.790  17.338   0.253
21174W        W86159  22.460   8.173  14.835
21175W        W86160  31.541  29.891   4.639
21176W        W86161  38.345  19.553  12.494
21177W        W86162  35.093  43.024  10.245
21178W        W86163  20.109  22.000  14.404
21179W        W86164   1.344  33.460   4.570
21180W        W86165  27.955  30.803   1.703
21181W        W86166  40.798  13.480   2.954
21182W        W86167  43.666  12.825   3.172
21183W        W86168  25.973  13.297  12.593
21184W        W86169   9.710  44.314  11.600
21185W        W86170  28.680  11.370  14.394
21186W        W86171  25.654  32.959  12.122
21187W        W86172  26.066  40.119   1.389
21188W        W86173  21.295  42.041   2.827
21189W        W86174  20.388   5.482   5.198
21190W        W86175  18.287  10.640   1.314
21191W        W86176  40.406  32.434   9.899
21192W        W86177   9.347   9.148   3.615
21193W        W86178  32.647   8.809   2.172
21194W        W86179  43.239  16.310   2.834
21195W        W86180  22.563  27.202  11.908
21196W        W86181  16.520  34.031   0.769
21197W        W86182  30.147  33.625  11.504
21198W        W86183  31.553   4.406   0.559
21199W        W86184   9.268   2.827  12.945
21200W        W86185   5.270  44.533   2.707
21201W        W86186  24.753   3.388   2.621
21202W        W86187  44.517  42.616  10.896
21203W        W86188  36.901  20.599  13.491
21204W        W86189  32.359  34.680  10.676
21205W        W86190  22.321  17.604  10.696
21206W        W86191  13.215  27.028   1.236
21207W        W86192   2.919  43.858   2.809
21208W        W86193  28.588  12.569   2.775
21209W        W86194  31.063  42.856  11.240
21210W        W86195  28.524  40.308  11.915
21211W        W86196   3.565  13.726   1.374
21212W        W86197  21.627  43.788   1.963
21213W        W86198   7.467  17.203  12.228
21214W        W86199  36.556  40.953   4.923
21215W        W86200  33.813  28.083   1.729
21216W        W86201  21.599  28.654  10.473
21217W        W86202   4.360  38.579  14.503
21218W        W86203   8.398  42.610  14.724
21219W        W86204   6.195  13.671   1.773
21220W        W86205  27.448   0.596  11.196
21221W        W86206  26.049  14.889   1.768
21222W        W86207   1.736  36.523   0.561
21223W        W86208   9.427  26.202  13.646
21224W        W86209  17.139  44.913  14.856
21225W        W86210  33.012   4.265  12.018
21226W        W86211  36.270  13.075  13.055
21227W        W86212  24.811  29.987  13.812
21228W        W86213  41.259  25.002   2.143
21229W        W86214  25.122  15.599  11.502
21230W        W86215   6.114  25.486   0.333
21231W        W86216  19.634  12.733  13.156
21232W        W86217  40.014   8.241   3.987
21233W        W86218  44.584   1.195   3.734
21234W        W86219  43.987  39.417  12.982
21235W        W86220   9.583   1.662   3.626
21236W        W86221  17.077  15.856  11.027
21237W        W86222   3.182  28.680   2.067
21238W        W86223  19.574  35.084  14.997
21239W        W86224   7.357   0.804   1.380
21240W        W86225  42.360  34.240  12.086
21241W        W86226  33.962  20.041  13.074
21242W        W86227  38.207   3.301  11.091
21243W        W86228   2.362   8.286  12.888
21244W        W86229  18.000  15.186  12.872
21245W        W86230  14.429  25.664  12.558
21246W        W86231  31.334  34.488  10.672
21247W        W86232  29.002  25.285  12.623
21248W        W86233   9.847   1.717   0.273
21249W        W86234  15.776  26.458  13.517
21250W        W86235  37.323  19.026   1.806
21251W        W86236  10.366   5.831  13.879
21252W        W86237   2.986  41.472  13.887
21253W        W86238  29.634  13.498   0.320
21254W        W86239  22.631  40.587  12.920
21255W        W86240  15.336  36.848   1.347
21256W        W86241  30.608  15.528  10.645
21257W        W86242   4.030  37.303  14.363
21258W        W86243  36.604  18.044   5.128
21259W        W86244  30.237   3.134  11.149
21260W        W86245  28.545  35.488  10.717
21261W        W86246  15.554  10.104   3.073
21262W        W86247  25.951   2.728   2.383
21263W        W86248  24.254  14.217   0.936
21264W        W86249  11.142   0.352   4.567
21265W        W86250  14.841  12.771  13.462
21266W        W86251  33.544   7.612  14.745
21267W        W86252  38.289  42.281  14.963
21268W        W86253  33.968  43.260   3.298
21269W        W86254   5.770  35.001  12.742
21270W        W86255  25.769   6.336  11.986
21271W        W86256  11.601  26.142   0.708
21272W        W86257  40.952   5.643  12.035
21273W        W86258  19.510  40.790   0.517
21274W        W86259  19.357  14.262   2.796
21275W        W86260  19.693  42.781   3.641
21276W        W86261  25.736  13.382   0.389
21277W        W86262   0.215  40.449   3.874
21278W        W86263  40.541   9.262   3.729
21279W        W86264  15.110  24.724   2.301
21280W        W86265  14.909   7.700  12.070
21281W        W86266  43.588   2.922   0.767
21282W        W86267  14.201  27.425  13.422
21283W        W86268  44.578  36.861  13.341
21284W        W86269  29.284  43.653  12.188
21285W        W86270  22.680  35.285   5.079
21286W        W86271  30.911  39.416  13.005
21287W        W86272   3.395  19.708  10.599
21288W        W86273   1.383  40.861  12.564
21289W        W86274   8.987  32.121   2.313
21290W        W86275   0.955  10.929   3.873
21291W        W86276  33.849  24.589   4.183
21292W        W86277   1.994   2.762  13.431
21293W        W86278  26.242   6.150   2.446
21294W        W86279   0.431  23.864  11.536
21295W        W86280  44.319  31.379   4.128
21296W        W86281  14.823  44.241  14.618
21297W        W86282   4.668  14.273  14.758
21298W        W86283  40.411  22.487  13.548
21299W        W86284   1.517  29.261  11.238
21300W        W86285   7.169   8.261   3.196
21301W        W86286  12.846   0.506  12.929
21302W        W86287  37.061   7.878  14.912
21303W        W86288  14.952   4.271   0.292
21304W        W86289  12.630  17.149  14.804
21305W        W86290  26.435  31.674  13.477
21306W        W86291  14.175   2.392  10.690
21307W        W86292  35.180  38.825  11.899
21308W        W86293  26.305  37.011   2.150
21309W        W86294  29.923   4.698   1.780
21310W        W86295   8.942  23.038  11.887
21311W        W86296   5.825   8.208   0.214
21312W        W86297  19.527  22.295  11.838
21313W        W86298  40.066  28.507  13.094
21314W        W86299  14.791  28.632  13.969
21315W        W86300   7.741  35.835   3.226
21316W        W86301  44.763   4.380  10.548
21317W        W86302  15.800   7.016   2.535
21318W        W86303  15.262  43.458   2.701
21319W        W86304  18.538  42.925  12.985
21320W        W86305   1.777  23.750   2.825
21321W        W86306  29.459  33.151   3.767
21322W        W86307  29.029   6.314  10.622
21323W        W86308  40.561   0.942  10.317
21324W        W86309  23.630  19.703   3.192
21325W        W86310  25.626  42.555   0.978
21326W        W86311  34.814   5.923  14.507
21327W        W86312   2.478  43.039   2.488
21328W        W86313   8.237   8.844  10.737
21329W        W86314  40.541  19.748  13.761
21330W        W86315  25.615  31.581  13.220
21331W        W86316   7.726  10.335  11.674
21332W        W86317   2.788  22.222  11.205
21333W        W86318  42.387  27.541   1.308
21334W        W86319  29.433  11.175  13.521
21335W        W86320  31.389   8.336   5.433
21336W        W86321   6.693  10.903  11.134
21337W        W86322   2.684  17.842   0.824
21338W        W86323  27.334  33.994   1.766
21339W        W86324  44.920  13.089   1.733
21340W        W86325  18.349  16.188  13.822
21341W        W86326  19.041   4.278  11.898
21342W        W86327  10.157  11.828  13.335
21343W        W86328  19.338   7.756  13.420
21344W        W86329  23.695   3.313  12.483
21345W        W86330  42.445  14.278  14.102
21346W        W86331  38.255  22.759   3.562
21347W        W86332  37.037  16.629  13.707
21348W        W86333   9.078   6.808   2.365
21349W        W86334  26.425  40.498   1.426
21350W        W86335  38.816  17.977  14.362
21351W        W86336  42.571  42.397  11.925
21352W        W86337  35.122  12.351  13.612
21353W        W86338   6.729  31.893  10.742
21354W        W86339   1.963   7.385   1.133
21355W        W86340  10.300  32.436  10.682
21356W        W86341  31.222  20.144  11.045
21357W        W86342  31.665  17.186  14.431
21358W        W86343  32.392  25.759  12.401
21359W        W86344   1.846  11.274  13.171
21360W        W86345  34.407  27.163  10.645
21361W        W86346  23.962  42.232   4.040
21362W        W86347  14.210   9.893   1.806
21363W        W86348   1.687   4.249   1.911
21364W        W86349  41.669   5.822  13.468
21365W        W86350  14.101  29.048  14.490
21366W        W86351  21.406   0.581   4.166
21367W        W86352  38.934  27.531  10.895
21368W        W86353   4.536  11.904   3.071
21369W        W86354   4.355  18.033  14.804
21370W        W86355  41.126  38.382  14.370
21371W        W86356   0.797  40.086  11.233
21372W        W86357  15.807  39.367  12.012
21373W        W86358  24.214  26.978   2.609
21374W        W86359  28.171  32.049   0.997
21375W        W86360  25.704  26.711  14.308
21376W        W86361  14.037  28.956   4.834
21377W        W86362  25.316  34.532  13.259
21378W        W86363  36.356  38.481  13.986
21379W        W86364  42.257   2.385  10.829
21380W        W86365  14.674   2.967   3.676
21381W        W86366  25.053  38.387   0.138
21382W        W86367   3.710  39.416  10.420
21383W        W86368  42.352  13.433  14.692
21384W        W86369  44.895   1.290  10.669
21385W        W86370  24.981  43.804  14.938
21386W        W86371   7.459  17.604  11.898
21387W        W86372  33.425  28.524   1.648
21388W        W86373  29.144   0.205   2.845
21389W        W86374   3.442   5.649  13.955
21390W        W86375  12.512   1.537  11.114
21391W        W86376  42.783  43.273   2.607
21392W        W86377  40.699  12.609  12.182
21393W        W86378  17.805  28.878   0.233
21394W        W86379  16.584   9.146  14.314
21395W        W86380  32.543  15.563  14.766
21396W        W86381  22.762  18.213   4.316
21397W        W86382  21.817  29.073   1.745
21398W        W86383   7.083  32.016   3.204
21399W        W86384  34.512   7.064   3.092
21400W        W86385  35.554  19.236  11.668
21401W        W86386  15.021   5.207   1.856
21402W        W86387  15.563   2.398  14.281
21403W        W86388  10.132  42.525   3.766
21404W        W86389  31.805   2.795  14.555
21405W        W86390  27.065  40.374  14.501
21406W        W86391  20.453   7.722   0.246
21407W        W86392  14.289  32.764  13.555
21408W        W86393  18.331  16.609   0.116
21409W        W86394  23.165  17.896  11.956
21410W        W86395  11.653  10.281   0.438
21411W        W86396  25.426  12.291  14.183
21412W        W86397  26.998   2.638  12.924
21413W        W86398  32.203   5.322  11.905
21414W        W86399  31.420  32.323  11.990
21415W        W86400  26.479  33.100   1.744
21416W        W86401  34.047  13.811   0.698
21417W        W86402   1.854  36.929  12.284
21418W        W86403  15.177   2.008   1.781
21419W        W86404   6.625  21.089  10.743
21420W        W86405  27.779  34.150   3.682
21421W        W86406   8.613  38.379  12.503
21422W        W86407  18.398  22.200   3.811
21423W        W86408  25.602  39.175  14.041
21424W        W86409  20.979  44.902   2.791
21425W        W86410  42.517   9.679   2.225
21426W        W86411  36.874  37.446   3.134
21427W        W86412  43.971   1.775  14.723
21428W        W86413  34.087   7.689  12.081
21429W        W86414   2.234   9.982  12.441
21430W        W86415   4.926   8.198  14.530
21431W        W86416  15.809  37.469  11.678
21432W        W86417  29.424  44.786   2.701
21433W        W86418  22.503   7.202  10.785
21434W        W86419  13.076  43.102  10.444
21435W        W86420  41.848   9.836  10.771
21436W        W86421  21.480  31.686  12.756
21437W        W86422  30.693   5.258  13.236
21438W        W86423  32.086   9.652   3.231
21439W        W86424   5.086  42.977   5.074
21440W        W86425  34.369  13.925  13.834
21441W        W86426   1.899  22.559  14.726
21442W        W86427  26.113  14.355   0.266
21443W        W86428  24.081  38.402   4.076
21444W        W86429  27.968  23.901  11.163
21445W        W86430  15.643  10.274  14.273
21446W        W86431  38.088  23.279   1.834
21447W        W86432   6.222  39.621   3.842
21448W        W86433  25.889  35.753  12.205
21449W        W86434  15.780  33.847  10.954
21450W        W86435   1.461  42.344  11.311
21451W        W86436  37.729  11.631   4.980
21452W        W86437  29.815  10.217  11.893
21453W        W86438  27.729  19.906   0.973
21454W        W86439  11.866  31.175  13.620
21455W        W86440   4.624  11.030   5.065
21456W        W86441   4.994  42.409   3.432
21457W        W86442  29.267  44.255  11.669
21458W        W86443  43.368  12.846   2.746
21459W        W86444  42.421  40.061   3.330
21460W        W86445   8.812  32.063   3.663
21461W        W86446  13.468  34.071   1.620
21462W        W86447  41.429  10.648   3.629
21463W        W86448   1.029  25.704   4.173
21464W        W86449  41.904  12.702  12.938
21465W        W86450  44.428   1.846  13.947
21466W        W86451  12.328  37.957  12.689
21467W        W86452  24.695  13.059   0.288
21468W        W86453  30.066  14.759   4.731
21469W        W86454  22.978  13.776  10.842
21470W        W86455  41.106  37.121  12.469
21471W        W86456  13.873  36.638   3.496
21472W        W86457  24.119   2.227  11.091
21473W        W86458   5.279  14.637   4.501
21474W        W86459   4.436   8.938  11.566
21475W        W86460   2.395   8.905   2.146
21476W        W86461   1.431  15.629  13.354
21477W        W86462   0.220  13.921  11.329
21478W        W86463   9.660  37.781   2.034
21479W        W86464  26.530  13.378   4.138
21480W        W86465   1.453   5.709   3.529
21481W        W86466  23.474  24.414   0.409
21482W        W86467  41.768   6.370   0.973
21483W        W86468  30.489  38.350   2.249
21484W        W86469   1.162  35.160   0.743
21485W        W86470   1.490  17.848   2.593
21486W        W86471  29.589  42.852  12.957
21487W        W86472  19.168   3.072  14.063
21488W        W86473  36.362   0.870  14.529
21489W        W86474  16.658  43.453   3.665
21490W        W86475   1.749  28.570  13.462
21491W        W86476   2.775  15.637   2.236
21492W        W86477  35.441  21.748   4.168
21493W        W86478  44.948  17.842   4.521
21494W        W86479   4.740  34.329   3.290
21495W        W86480  10.824  19.794   2.795
21496W        W86481  28.454   6.800   4.629
21497W        W86482   7.182  27.292  11.292
21498W        W86483  43.465  43.065  13.922
21499W        W86484  10.314   8.762   4.521
21500W        W86485  40.289  14.854  12.646
21501W        W86486  21.985  13.807  12.940
21502W        W86487  13.133  18.385  11.018
21503W        W86488  18.990   8.723   0.350
21504W        W86489  31.716   6.166  13.116
21505W        W86490  25.891  26.689  13.374
21506W        W86491   7.817  22.231  10.668
21507W        W86492  27.971  16.495   0.460
21508W        W86493  23.691  19.181  11.393
21509W        W86494   0.608  15.149  11.481
21510W        W86495  31.856  14.373   0.923
21511W        W86496  23.932  42.028  12.043
21512W        W86497   4.183  20.411  11.981
21513W        W86498  28.525  28.929   2.823
21514W        W86499  22.251  14.802   3.806
21515W        W86500  29.146  31.286   5.312
21516W        W86501  15.730  18.788   3.629
21517W        W86502   3.395  14.197   2.918
21518W        W86503  31.489  15.753  14.890
21519W        W86504  44.301  24.114   0.632
21520W        W86505   5.647  12.218  13.011
21521W        W86506  10.339  13.390   1.789
21522W        W86507  20.758  21.607   4.863
21523W        W86508  41.262  42.458  12.528
21524W        W86509  17.306  36.078   1.439
21525W        W86510  16.093  17.975   3.861
21526W        W86511  17.298  20.223   4.118
21527W        W86512  13.944  37.957  14.825
21528W        W86513  30.470   1.218  14.744
21529W        W86514  44.356  35.968  14.130
21530W        W86515   1.661  37.113   4.331
21531W        W86516   2.516  40.988  11.898
21532W        W86517  41.271  14.898   1.996
21533W        W86518  20.805  20.003   2.842
21534W        W86519  43.111  26.659   2.760
21535W        W86520  41.158  33.002  12.586
21536W        W86521  29.418  32.460   3.202
21537W        W86522  24.432  35.146   3.650
21538W        W86523   6.716  12.308  14.914
21539W        W86524  23.755  20.658   4.631
21540W        W86525  11.647  39.800   2.744
21541W        W86526   4.418  19.326  14.488
21542W        W86527  35.963  35.255   0.298
21543W        W86528   5.247   1.911   3.078
21544W        W86529  35.423   6.041   4.553
21545W        W86530  31.990  39.948  12.105
21546W        W86531  28.306  40.528   3.797
21547W        W86532   7.349  42.287  12.591
21548W        W86533   9.588   8.975  11.499
21549W        W86534  11.690  24.288  14.390
21550W        W86535   6.720   5.455  14.402
21551W        W86536  38.750  35.688   2.356
21552W        W86537  23.969  18.965  10.620
21553W        W86538  13.922   1.870   2.948
21554W        W86539  30.623   1.221  10.714
21555W        W86540  17.204  29.475   1.779
21556W        W86541  41.840  21.326  13.355
21557W        W86542  26.642  19.970  12.635
21558W        W86543  29.446  26.878   0.403
21559W        W86544   3.757  32.904   3.472
21560W        W86545  28.471   7.806  11.240
21561W        W86546  12.720  19.679  12.155
21562W        W86547  38.530  29.146   1.903
21563W        W86548  16.920  25.823  11.044
21564W        W86549   6.137  15.336   3.744
21565W        W86550  39.126  18.689   1.917
21566W        W86551  11.342  25.030  10.620
21567W        W86552  37.459  42.037   1.032
21568W        W86553  33.476  24.056   2.842
21569W        W86554  17.543  31.978   4.225
21570W        W86555  21.254  30.597   2.742
21571W        W86556   3.784  23.287  11.984
21572W        W86557  38.552  35.015   4.156
21573W        W86558  10.582  21.647  12.117
21574W        W86559   6.416  29.372  12.976
21575W        W86560   0.875   1.252  14.995
21576W        W86561  33.419  44.566  13.516
21577W        W86562   8.240  16.977  13.991
21578W        W86563  43.761  14.049  14.358
21579W        W86564  10.549   3.325   1.216
21580W        W86565   1.014  19.116   4.164
21581W        W86566  36.849  25.690  11.568
21582W        W86567  22.994   1.806  10.752
21583W        W86568  13.099   5.485   3.222
21584W        W86569  27.971  26.741   3.248
21585W        W86570  15.534  36.110   2.308
21586W        W86571  24.034   7.163  11.439
21587W        W86572  12.667   0.434   1.887
21588W        W86573   0.041  42.288   1.900
21589W        W86574   4.605  10.829   4.047
21590W        W86575   5.721  34.443  13.472
21591W        W86576  36.791  21.357   4.042
21592W        W86577   5.362  33.508  11.380
21593W        W86578  19.637  17.328  13.646
21594W        W86579  37.404   4.939   0.030
21595W        W86580   3.698  24.456   1.396
21596W        W86581  37.485  17.516  10.384
21597W        W86582  20.294  14.273   1.815
21598W        W86583  19.362  40.630  14.385
21599W        W86584  43.471  33.969  12.544
21600W        W86585  19.292   1.693   3.535
21601W        W86586  38.875  25.546   3.646
21602W        W86587  18.014   2.643  12.376
21603W        W86588  19.032  13.634   3.638
21604W        W86589  27.129   5.852   3.140
21605W        W86590  35.305   0.407   3.782
21606W        W86591  29.613  18.759   1.888
21607W        W86592  40.063  41.100  14.038
21608W        W86593   3.572  10.169  11.483
21609W        W86594  25.748  30.010   0.822
21610W        W86595   8.800  31.467  11.483
21611W        W86596  12.198  18.014   2.753
21612W        W86597  17.374   2.007  11.895
21613W        W86598  21.070  39.334   3.051
21614W        W86599  42.769  43.529   0.424
21615W        W86600   6.719  30.983   1.833
21616W        W86601  12.840   3.281   3.284
21617W        W86602  25.537  16.562  12.988
21618W        W86603  38.043  20.470  12.994
21619W        W86604  39.679  15.973   4.072
21620W        W86605  35.049  23.787   4.981
21621W        W86606  22.913  15.331   0.251
21622W        W86607  29.745  18.268   1.691
21623W        W86608  39.460  43.084  12.155
21624W        W86609   1.736  24.945   3.148
21625W        W86610  25.199  42.109  13.107
21626W        W86611  44.010  27.968  14.409
21627W        W86612   3.269  44.236  12.863
21628W        W86613  42.808   2.669   3.749
21629W        W86614  12.725  30.002  13.817
21630W        W86615  25.963  15.252   1.362
21631W        W86616  13.612  25.142   1.959
21632W        W86617  44.250   9.791  14.483
21633W        W86618   2.285  30.862  14.717
21634W        W86619  33.146  21.583   0.405
21635W        W86620  32.629   7.640   1.650
21636W        W86621  13.530  15.098   0.696
21637W        W86622   0.680  43.343  10.889
21638W        W86623  20.732  26.239  10.556
21639W        W86624  40.017  39.217   3.772
21640W        W86625  23.950  43.494  13.898
21641W        W86626  38.523  14.202   3.879
21642W        W86627  11.591   7.444  13.927
21643W        W86628  17.307  21.766   2.248
21644W        W86629   0.927  19.665   3.322
21645W        W86630  44.839   2.890  11.126
21646W        W86631  33.678   1.256  14.523
21647W        W86632  41.013  20.161  12.190
21648W        W86633  42.110  13.628   4.178
21649W        W86634  36.682  33.137   0.671
21650W        W86635  16.305  17.248   1.887
21651W        W86636  13.056   6.189   2.447
21652W        W86637  21.694  37.887   1.719
21653W        W86638   6.931   7.207  10.751
21654W        W86639  36.162  17.537  10.684
21655W        W86640  26.642  30.221   0.876
21656W        W86641   2.411  12.946  11.749
21657W        W86642   6.667  43.749  13.434
21658W        W86643  32.497  41.443   4.736
21659W        W86644   4.892  42.278   4.632
21660W        W86645  15.828  30.208  11.270
21661W        W86646  28.428  44.855   2.305
21662W        W86647  33.725  33.624  13.056
21663W        W86648  20.026   5.388  14.515
21664W        W86649  14.029  37.334  11.643
21665W        W86650  35.180  36.518  11.486
21666W        W86651   8.936  24.744  10.484
21667W        W86652  42.200  29.600  14.916
21668W        W86653  38.446  12.559  14.856
21669W        W86654   3.457   0.267   1.756
21670W        W86655  25.429  20.401  12.973
21671W        W86656  32.066  20.853  10.553
21672W        W86657   2.222   5.353   3.339
21673W        W86658  32.689  18.017   2.240
21674W        W86659  20.442   3.830   0.188
21675W        W86660  22.383  44.410   5.254
21676W        W86661  34.507   6.894   3.616
21677W        W86662   4.247   0.353   0.035
21678W        W86663  22.422  10.361   3.024
21679W        W86664  28.636  25.215   0.700
21680W        W86665  15.833  18.556   0.753
21681W        W86666  36.529  37.146   2.394
21682W        W86667  38.049   9.494   5.004
21683W        W86668  24.754  13.685   2.318
21684W        W86669  32.602   9.554  10.706
21685W        W86670   7.895  16.805   0.347
21686W        W86671  38.439  26.845  13.351
21687W        W86672  37.720  28.180  13.040
21688W        W86673   7.626  24.719   2.864
21689W        W86674  20.973  24.705   1.187
21690W        W86675  41.719  37.777  12.914
21691W        W86676  20.036   6.881  10.698
21692W        W86677  20.842  26.335  14.255
21693W        W86678   7.818  35.597   3.681
21694W        W86679  34.088  11.936   2.811
21695W        W86680  22.298  30.241   4.591
21696W        W86681   5.928   9.603   3.677
21697W        W86682  10.927   8.672   1.262
21698W        W86683  40.270  19.012   0.360
21699W        W86684  44.467  23.697  14.026
21700W        W86685  41.385  44.183  11.286
21701W        W86686   3.706  30.012  12.041
21702W        W86687  12.181  28.090   2.877
21703W        W86688  23.052  22.443   1.269
21704W        W86689  21.027  32.549  13.689
21705W        W86690  14.619  36.598   2.355
21706W        W86691  35.125  22.238  12.437
21707W        W86692  42.465  19.611  14.255
21708W        W86693  18.043  37.077   4.725
21709W        W86694  36.967  35.023  12.671
21710W        W86695  22.563  12.845  14.898
21711W        W86696  42.451  37.872   0.479
21712W        W86697  39.948  33.966   0.991
21713W        W86698  28.523  24.792  14.689
21714W        W86699  17.602  31.134   3.977
21715W        W86700  28.586  19.525   0.352
21716W        W86701  19.512  28.909   1.776
21717W        W86702  16.690  18.292   4.552
21718W        W86703  23.551  17.242   4.245
21719W        W86704   5.863  43.494   2.286
21720W        W86705  34.599  18.446  11.052
21721W        W86706  44.814  43.278   1.850
21722W        W86707   9.251  14.307   4.519
21723W        W86708  27.472  28.379   3.439
21724W        W86709   2.241  23.540   2.645
21725W        W86710  14.192  10.644  12.585
21726W        W86711  24.719  29.561   3.965
21727W        W86712   8.708  31.824   3.173
21728W        W86713  39.456  34.830   9.699
21729W        W86714  28.198  29.609   0.258
21730W        W86715  27.543   2.361   1.743
21731W        W86716  14.146  20.542  13.017
21732W        W86717  44.464   7.869  10.585
21733W        W86718  21.526  10.848  14.535
21734W        W86719  22.451   7.375  12.409
21735W        W86720   4.257  35.537   3.340
21736W        W86721  25.206   1.315  12.629
21737W        W86722  43.526   6.750   1.326
21738W        W86723   4.966  20.531   1.263
21739W        W86724  37.016  39.413  10.490
21740W        W86725  22.035  14.825  14.342
21741W        W86726  10.162   3.035   2.809
21742W        W86727  22.768  20.678  12.612
21743W        W86728  15.781  11.082   2.308
21744W        W86729   5.746   1.336  12.552
21745W        W86730  24.063  21.947  10.643
21746W        W86731   2.580   7.187  11.415
21747W        W86732  13.843  19.600  14.928
21748W        W86733  17.667   4.986   1.348
21749W        W86734  43.393  24.872   3.754
21750W        W86735  13.111  31.920   4.530
21751W        W86736  25.967  24.976  12.463
21752W        W86737  26.958   7.652   4.668
21753W        W86738  39.888  11.709   0.164
21754W        W86739  44.239  41.500  14.942
21755W        W86740   4.547   7.167   4.656
21756W        W86741  36.946   7.228   4.457
21757W        W86742  36.513  28.952  14.454
21758W        W86743  24.629  29.465  10.560
21759W        W86744  33.948   2.408   2.183
21760W        W86745   3.176  36.405   0.227
21761W        W86746  38.115  34.872   2.304
21762W        W86747   7.214  30.423  12.911
21763W        W86748   1.031   0.801   4.152
21764W        W86749   6.148  16.047   4.300
21765W        W86750   4.726  34.544   0.217
21766W        W86751  39.244  18.482   1.186
21767W        W86752  42.812   6.702  13.104
21768W        W86753  43.530  42.612   2.404
21769W        W86754   0.169  40.434  11.706
21770W        W86755  38.870  30.548  11.266
21771W        W86756  44.090  34.527   3.263
21772W        W86757  31.904  26.157   0.935
21773W        W86758   0.959   1.161   3.788
21774W        W86759  39.826  24.140   1.664
21775W        W86760   0.967  31.495   2.810
21776W        W86761  44.968  12.227  11.567
21777W        W86762  20.796  28.043   2.694
21778W        W86763  27.195  21.532   1.161
21779W        W86764  41.678   0.257  12.470
21780W        W86765   6.557  35.925  10.729
21781W        W86766   7.683   4.959   0.321
21782W        W86767  39.430  44.450   1.590
21783W        W86768   7.299  33.996  14.449
21784W        W86769   0.836  13.816   4.557
21785W        W86770  28.889  41.413  13.333
21786W        W86771  35.589  30.838  11.576
21787W        W86772  27.917  39.791   4.152
21788W        W86773  19.148   3.084  11.692
21789W        W86774  39.061  20.692   3.349
21790W        W86775  22.133   0.100   2.990
21791W        W86776  35.138  20.984   0.277
21792W        W86777  41.892  12.181  12.944
21793W        W86778  34.245  15.277  12.528
21794W        W86779  31.453  31.147  14.346
21795W        W86780  29.540  15.190   1.371
21796W        W86781   7.169  35.822  13.881
21797W        W86782  22.470  12.089   4.577
21798W        W86783   2.652  23.657   0.966
21799W        W86784  25.020  11.772  10.710
21800W        W86785   4.706  19.559  13.212
21801W        W86786  26.110  24.985  13.807
21802W        W86787  40.461  42.042  11.677
21803W        W86788  11.805   4.247  14.082
21804W        W86789  42.708  12.143  13.480
21805W        W86790  31.562  42.914   3.550
21806W        W86791  21.854  41.932   2.680
21807W        W86792  42.551  37.050   4.243
21808W        W86793  44.468   5.924  14.467
21809W        W86794   1.219  39.905   2.360
21810W        W86795  38.418   3.335   1.920
21811W        W86796   6.029  29.479  14.304
21812W        W86797   8.794   3.459  11.737
21813W        W86798  19.336  14.280   1.877
21814W        W86799  21.713   5.170  14.980
21815W        W86800   3.185  33.623  14.533
21816W        W86801  41.875  31.072   3.510
21817W        W86802  34.101  15.842   3.178
21818W        W86803  23.763   9.318  11.524
21819W        W86804  39.373  12.737   4.638
21820W        W86805   6.653  22.489  11.090
21821W        W86806   2.697  11.488  14.920
21822W        W86807  14.199  32.324   3.766
21823W        W86808  33.417  38.334  10.747
21824W        W86809  33.998  12.746  12.000
21825W        W86810   6.836  26.193  13.379
21826W        W86811  41.289  44.793   3.144
21827W        W86812  23.519  36.186   1.816
21828W        W86813  36.004   7.017   2.099
21829W        W86814  14.473  16.088  11.540
21830W        W86815   7.414   6.410   1.891
21831W        W86816  41.408   2.317   2.359
21832W        W86817   0.787  14.365  12.593
21833W        W86818  23.467   4.815  11.046
21834W        W86819  37.379   9.655   1.353
21835W        W86820   0.245  15.804   0.310
21836W        W86821  19.515  14.612  11.399
21837W        W86822  33.942  41.775   4.532
21838W        W86823  36.643  39.300  11.643
21839W        W86824  18.279  36.831  13.159
21840W        W86825   1.847   4.801  13.106
21841W        W86826   6.667   9.669   2.250
21842W        W86827  20.242  15.692   2.853
21843W        W86828  35.428  43.070  12.438
21844W        W86829  19.617   7.116   5.349
21845W        W86830  21.780  30.133   1.316
21846W        W86831  11.303  32.913  14.480
21847W        W86832   7.266  44.711  10.802
21848W        W86833  31.095  44.522   1.330
21849W        W86834  12.978  37.322  11.512
21850W        W86835  31.051  42.921   0.249
21851W        W86836  40.951  33.015   1.395
21852W        W86837  36.104  30.848   2.159
21853W        W86838  35.952   2.680   1.135
21854W        W86839  39.272   2.596   0.325
21855W        W86840  18.517  27.109   4.229
21856W        W86841  44.554  24.725  12.783
21857W        W86842  11.178   4.451  14.683
21858W        W86843   2.922  24.814  10.638
21859W        W86844  10.186   3.247   4.598
21860W        W86845  33.030  21.135  12.882
21861W        W86846  15.550  34.530   4.583
21862W        W86847  32.591   1.098   3.745
21863W        W86848  37.557   6.380   3.255
21864W        W86849  14.760   0.492   3.723
21865W        W86850   0.010  22.969   3.892
21866W        W86851  29.788  30.211   4.441
21867W        W86852   6.481   3.213   0.228
21868W        W86853  37.326   5.654  14.073
21869W        W86854  28.233  12.965   4.571
21870W        W86855  37.697  44.636  11.365
21871W        W86856   0.984   0.926   1.187
21872W        W86857  37.469  35.286  10.704
21873W        W86858  40.940  12.228   3.878
21874W        W86859  11.394  27.972  14.763
21875W        W86860  22.145  17.157  11.940
21876W        W86861  31.601  27.924   0.736
21877W        W86862   8.186  28.725  10.835
21878W        W86863  10.198  19.340  12.019
21879W        W86864  11.893   3.774  13.876
21880W        W86865   4.202  44.730  12.535
21881W        W86866  17.280  15.699  10.226
21882W        W86867  35.960   4.391   4.568
21883W        W86868  12.708  43.755   4.414
21884W        W86869  17.937   3.937   3.975
21885W        W86870  39.632  24.149  12.413
21886W        W86871   7.968  34.376  13.580
21887W        W86872   5.424  44.088   4.112
21888W        W86873  25.986  41.042   2.693
21889W        W86874  21.623   6.488   4.693
21890W        W86875  12.319  43.566   4.081
21891W        W86876  43.610  19.241  14.033
21892W        W86877  40.949  17.321  11.989
21893W        W86878  15.862  42.919  13.129
21894W        W86879   1.744   1.813  10.944
21895W        W86880   8.879   0.586   2.186
21896W        W86881  24.465  30.534   2.682
21897W        W86882  36.193  22.699   2.353
21898W        W86883  31.607  13.107   2.272
21899W        W86884  25.260   3.617  12.931
21900W        W86885  13.285  22.502  11.968
21901W        W86886  28.277  43.195   5.132
21902W        W86887  16.656  10.995  12.971
21903W        W86888  28.582  17.140  14.498
21904W        W86889  38.576  28.293   0.879
21905W        W86890   4.507  19.488  11.288
21906W        W86891   6.944  29.222   2.245
21907W        W86892   3.952  31.425   0.701
21908W        W86893   1.413  40.982  13.462
21909W        W86894  11.678   5.421  11.342
21910W        W86895  10.943   5.813  11.534
21911W        W86896  42.969  36.487  12.559
21912W        W86897  23.489  32.969   4.328
21913W        W86898  14.233   0.926   1.006
21914W        W86899  38.412  32.547   4.046
21915W        W86900  40.552  14.701   4.113
21916W        W86901  12.969  17.531  11.614
21917W        W86902  30.549  30.448  10.753
21918W        W86903   4.230   1.653  14.889
21919W        W86904  11.601   8.561   0.357
21920W        W86905  33.631  27.658   4.163
21921W        W86906  15.355  24.402  10.703
21922W        W86907  29.598   0.293   2.584
21923W        W86908   9.492  15.899   9.964
21924W        W86909  32.122  17.768   2.806
21925W        W86910   6.766  19.217   0.953
21926W        W86911  25.314   7.165   2.700
21927W        W86912   3.637  10.168  10.624
21928W        W86913  41.350  36.370   1.190
21929W        W86914  41.508   0.273   2.978
21930W        W86915  32.389  27.251  14.392
21931W        W86916  13.769  21.061   0.926
21932W        W86917   5.787  31.436  10.704
21933W        W86918  41.607  32.093  10.605
21934W        W86919  34.440   5.572   1.250
21935W        W86920   8.393  39.613   1.339
21936W        W86921  44.009  16.674   3.434
21937W        W86922   2.344  26.214  11.657
21938W        W86923  21.720  17.710   0.447
21939W        W86924  18.138  20.013  14.250
21940W        W86925  19.061   7.720  13.941
21941W        W86926  38.443  14.636   0.512
21942W        W86927  25.000   5.858  13.992
21943W        W86928  10.481   0.885  10.975
21944W        W86929  43.741  16.322  14.129
21945W        W86930  14.164   4.654   1.906
21946W        W86931  39.217  16.545  14.264
21947W        W86932  12.434  10.173   0.720
21948W        W86933  38.828  30.070   0.726
21949W        W86934  41.514  16.743  14.500
21950W        W86935  42.087   7.781   3.356
21951W        W86936  16.490  20.462   0.164
21952W        W86937  35.408  26.527   5.052
21953W        W86938  17.386  12.624  10.699
21954W        W86939  40.893  13.100   0.465
21955W        W86940  11.104   6.293   1.599
21956W        W86941  21.398  23.764  12.043
21957W        W86942  18.775  17.445   3.526
21958W        W86943   8.234   0.190   0.834
21959W        W86944  15.415  21.852   1.576
21960W        W86945  18.104  38.926   0.195
21961W        W86946  33.852  14.977  12.473
21962W        W86947  16.830   1.038   2.703
21963W        W86948  38.737  19.456   3.211
21964W        W86949  39.510   9.303   1.285
21965W        W86950  44.447  35.102  12.850
21966W        W86951  26.263  28.767   0.515
21967W        W86952  11.725  18.193   0.890
21968W        W86953   5.647  33.972  11.628
21969W        W86954  41.243  41.769   3.536
21970W        W86955  32.085  24.164  11.533
21971W        W86956   2.784   1.230  11.164
21972W        W86957  20.938  12.550  13.325
21973W        W86958  21.180   0.867   1.458
21974W        W86959  24.635   4.399   3.671
21975W        W86960  41.457  18.829  14.234
21976W        W86961   2.386  34.348  10.947
21977W        W86962   9.381   9.179   1.382
21978W        W86963  30.132   9.168  11.655
21979W        W86964  28.472  15.626  14.008
21980W        W86965  23.098  40.352  13.755
21981W        W86966   3.843  26.426  12.519
21982W        W86967  27.082  36.951  14.938
21983W        W86968   4.563  44.105  13.698
21984W        W86969  19.189  16.276   4.151
21985W        W86970  43.575  44.479  11.874
21986W        W86971  36.371  40.485   4.678
21987W        W86972  31.219  26.051   3.625
21988W        W86973  40.461  28.662  13.934
21989W        W86974   7.672  40.993   2.855
21990W        W86975  39.810  34.749   5.297
21991W        W86976  44.111  27.108  14.778
21992W        W86977  24.004  17.171   4.564
21993W        W86978  16.253  16.159  12.949
21994W        W86979  39.376  23.321   2.308
21995W        W86980  25.565  32.428   2.630
21996W        W86981   8.874   0.274   4.472
21997W        W86982  25.736   6.188   2.444
21998W        W86983  26.563  19.832  10.751
21999W        W86984  11.905  21.007   1.767
22000W        W86985   2.315   5.460  11.928
22001W        W86986  28.369  44.056   0.128
22002W        W86987  40.576  37.396   0.400
22003W        W86988  29.640  41.822  12.950
22004W        W86989  44.893   1.015  11.581
22005W        W86990  22.733   2.319  12.533
22006W        W86991   7.844  23.357  13.514
22007W        W86992  20.654  17.242   4.576
22008W        W86993   2.386  41.994  12.729
22009W        W86994  37.685  25.693  10.502
22010W        W86995  25.326  15.224  12.898
22011W        W86996  16.127  37.381  13.783
22012W        W86997  13.862  41.204   3.204
22013W        W86998  28.312   5.887  11.908
22014W        W86999  19.763  38.885   0.335
22015W        W87000  31.666  38.438  10.847
22016W        W87001  37.156  39.873  13.854
22017W        W87002   4.845  20.673  13.898
22018W        W87003   4.382  19.552  14.948
22019W        W87004  17.823  33.886   1.768
22020W        W87005  40.710  31.409   2.072
22021W        W87006  16.800   8.830   3.565
22022W        W87007  25.432   9.633   0.973
22023W        W87008  27.200   6.171   0.785
22024W        W87009  24.918   5.684   0.604
22025W        W87010   9.711   7.141  13.866
22026W        W87011  14.317  40.425   5.345
22027W        W87012  37.908  34.573  13.093
22028W        W87013  41.571  32.715   3.410
22029W        W87014   4.079  27.821  13.592
22030W        W87015   9.331  44.830  14.870
22031W        W87016  21.180   3.791  14.990
22032W        W87017  21.169  18.639   9.695
22033W        W87018  25.069  44.032   1.756
22034W        W87019  12.520  34.587   2.744
22035W        W87020  36.453  28.670  13.524
22036W        W87021  12.307  36.024  12.421
22037W        W87022  37.919  43.898  11.951
22038W        W87023  35.085  36.686  14.330
22039W        W87024   2.427  12.880  14.969
22040W        W87025   7.200  28.463   0.700
22041W        W87026  35.307  15.746   2.777
22042W        W87027  11.674  24.076   0.839
22043W        W87028   0.291  24.866  14.357
22044W        W87029  37.458  29.165   3.765
22045W        W87030  25.469  38.072  11.244
22046W        W87031  32.444   8.117   0.969
22047W        W87032  41.466  16.413   0.327
22048W        W87033  35.518  32.909  14.787
22049W        W87034   4.201  20.662  12.449
22050W        W87035  14.244   2.184   3.229
22051W        W87036  41.367  24.054  12.793
22052W        W87037  30.028  38.910   3.275
22053W        W87038   6.409  16.525  10.137
22054W        W87039  27.535   9.158   3.801
22055W        W87040  24.550  29.972   0.942
22056W        W87041  28.003  16.761   3.866
22057W        W87042  30.348  36.448  14.546
22058W        W87043  40.440   1.453   4.627
22059W        W87044  26.981  19.991  10.476
22060W        W87045   0.904  21.134  11.569
22061W        W87046   5.118  42.484  11.032
22062W        W87047  38.350  23.791  11.079
22063W        W87048  32.639   9.850  14.811
22064W        W87049  20.739  41.880  14.417
22065W        W87050   5.121  33.991   3.403
22066W        W87051  17.380  42.182   1.704
22067W        W87052   1.439   2.771   2.831
22068W        W87053  34.591  30.918   0.879
22069W        W87054  40.473  19.361  11.561
22070W        W87055  26.090  44.477  13.602
22071W        W87056  18.014  20.272  11.051
22072W        W87057  11.641  25.628   0.529
22073W        W87058  36.032  29.631   3.833
22074W        W87059  18.797  11.492   0.357
22075W        W87060   1.815  25.517   0.351
22076W        W87061  18.641  44.529   3.666
22077W        W87062  42.102   1.987   1.986
22078W        W87063  19.846  33.840  12.949
22079W        W87064   4.801  41.548  13.067
22080W        W87065  36.349  21.648   4.082
22081W        W87066  14.315   8.710  14.437
22082W        W87067  28.515  43.019   4.670
22083W        W87068   2.179  16.886  10.671
22084W        W87069  43.250  35.520  14.083
22085W        W87070   1.377  12.133  10.707
22086W        W87071  34.355  32.351  11.935
22087W        W87072  33.439  38.386   2.683
22088W        W87073  17.530  13.702  13.204
22089W        W87074  40.308  43.404   3.820
22090W        W87075  40.401   0.987   0.005
22091W        W87076  21.065  38.650   4.470
22092W        W87077  31.248  42.881  14.775
22093W        W87078  30.319  23.242  10.735
22094W        W87079  39.541   2.332   4.623
22095W        W87080  24.713  18.761  11.115
22096W        W87081  29.881  38.133   1.669
22097W        W87082  31.174  36.547   3.853
22098W        W87083  40.479   1.288  11.182
22099W        W87084  23.474   0.858  14.294
22100W        W87085  33.872  18.110   4.003
22101W        W87086  15.518  10.263   1.673
22102W        W87087  20.267  40.457   1.148
22103W        W87088   4.703  23.450  10.817
22104W        W87089   0.358  27.694   2.956
22105W        W87090  23.808  23.173   1.211
22106W        W87091   7.672  14.124  13.410
22107W        W87092  21.042  44.605   0.345
22108W        W87093   6.343  25.070   4.590
22109W        W87094  14.622  18.982   5.156
22110W        W87095  23.661  31.514   3.920
22111W        W87096  23.416   3.841   0.425
22112W        W87097   3.444  41.308   1.653
22113W        W87098  34.462  35.069  14.309
22114W        W87099   0.526  20.372   3.882
22115W        W87100  37.522  40.779  14.470
22116W        W87101   3.771  28.525   4.785
22117W        W87102  18.584  29.501   1.753
22118W        W87103  44.401   3.875  12.790
22119W        W87104  26.063  43.582  12.586
22120W        W87105   3.510  34.914   0.106
22121W        W87106  38.833  23.984   0.742
22122W        W87107   2.333  30.653   1.204
22123W        W87108  30.213  24.257  12.483
22124W        W87109  23.792  25.271   3.721
22125W        W87110  35.523   7.622  13.437
22126W        W87111  38.269  42.521   2.826
22127W        W87112  24.048  31.915   0.053
22128W        W87113  12.908  19.240  12.376
22129W        W87114  35.427  37.455   2.876
22130W        W87115  16.518   2.785  13.454
22131W        W87116   3.640   1.759  13.435
22132W        W87117  37.789  28.088   3.274
22133W        W87118  24.459  33.478   3.628
22134W        W87119  14.976   3.190   3.315
22135W        W87120  19.197  27.336  12.790
22136W        W87121  25.384  10.357  11.113
22137W        W87122  31.391  18.197   2.627
22138W        W87123  18.099   3.859  14.305
22139W        W87124  36.667  25.698  12.386
22140W        W87125  13.070  19.151  11.550
22141W        W87126   3.959  40.502  14.856
22142W        W87127   4.227  31.661   4.368
22143W        W87128   7.707   8.809  12.790
22144W        W87129  21.168  25.668  12.494
22145W        W87130  20.477   5.837  12.025
22146W        W87131  23.753   2.943  10.469
22147W        W87132   7.953   9.591   0.736
22148W        W87133   8.893  33.375   3.208
22149W        W87134  12.282  34.459  13.108
22150W        W87135   2.451   7.456  10.694
22151W        W87136  36.949   5.916   1.328
22152W        W87137  34.193  26.369  10.760
22153W        W87138  33.658  36.401  11.594
22154W        W87139   9.517  40.024   1.752
22155W        W87140   7.340  42.785   0.472
22156W        W87141   2.408  40.894  11.406
22157W        W87142   0.794   8.213   1.446
22158W        W87143  17.593  37.891  13.312
22159W        W87144  35.166  37.510  14.800
22160W        W87145  39.227  15.559  14.095
22161W        W87146  15.643  33.894  11.432
22162W        W87147  12.154  40.065   4.381
22163W        W87148   4.014  30.911   3.504
22164W        W87149  30.946  23.906  14.271
22165W        W87150   3.188  28.977  11.006
22166W        W87151  28.180  34.175  12.469
22167W        W87152  40.839  23.782  13.393
22168W        W87153  30.082  40.106  12.057
22169W        W87154  37.079  31.518   1.838
22170W        W87155  31.201  31.271   0.365
22171W        W87156   1.106  37.843   3.039
22172W        W87157  11.940  16.288   0.358
22173W        W87158  37.501   8.358   1.393
22174W        W87159  23.761   8.899  11.794
22175W        W87160  39.573   5.735  12.526
22176W        W87161  27.712  21.140   3.369
22177W        W87162  25.284  25.607  12.052
22178W        W87163  31.978  38.476  14.277
22179W        W87164  35.951  31.974  12.097
22180W        W87165  15.593  43.663   2.315
22181W        W87166   5.490   1.946  12.584
22182W        W87167   2.606  43.808  11.577
22183W        W87168   7.903  15.091   3.186
22184W        W87169  11.483  27.952  11.422
22185W        W87170  44.806   4.455  14.442
22186W        W87171  19.428   2.384  13.599
22187W        W87172  18.716  37.826   2.289
22188W        W87173  42.252   3.710  12.592
22189W        W87174  10.699  29.018  10.940
22190W        W87175  31.110   7.805  10.668
22191W        W87176  44.550  44.241  10.276
22192W        W87177   4.855  18.288   3.748
22193W        W87178  36.761   8.849  12.476
22194W        W87179   2.558  16.735   4.210
22195W        W87180  42.032  15.106   3.127
22196W        W87181  40.313   3.992   3.265
22197W        W87182  33.026  17.623   1.320
22198W        W87183  15.787  44.140   4.633
22199W        W87184   1.457  33.464  12.007
22200W        W87185   1.138  17.562   2.286
22201W        W87186  23.368  22.813  14.436
22202W        W87187  35.894  43.987  13.818
22203W        W87188  17.338  22.068   4.618
22204W        W87189  10.245  42.576  10.876
22205W        W87190  13.435  17.678   3.390
22206W        W87191  28.116  42.302   3.679
22207W        W87192  38.861  36.591   2.201
22208W        W87193  25.474  43.904   4.367
22209W        W87194  41.948   0.689  14.699
22210W        W87195  34.101   9.707  12.907
22211W        W87196  35.121   3.382   3.826
22212W        W87197   3.267  44.795   1.888
22213W        W87198   7.432  13.435   0.002
22214W        W87199  21.964  44.070  11.153
22215W        W87200  33.903  29.132   0.905
22216W        W87201  34.588  22.031   3.308
22217W        W87202   2.175  26.121   1.292
22218W        W87203   5.778  22.226   0.269
22219W        W87204  33.117  18.662   1.073
22220W        W87205  18.133   0.783   1.132
22221W        W87206  13.771  44.847  10.486
22222W        W87207  23.281  10.812   0.905
22223W        W87208   8.747  38.605   1.826
22224W        W87209  24.412  41.783  12.042
22225W        W87210  15.694  40.177   0.894
22226W        W87211  10.881  25.772  10.694
22227W        W87212  16.704   5.382   1.300
22228W        W87213  38.421  41.349  11.597
22229W        W87214  37.510  43.456   3.732
22230W        W87215  21.632  14.127   2.369
22231W        W87216  40.629   7.849   3.835
22232W        W87217   9.881  15.432  13.134
22233W        W87218  29.028   6.332   3.072
22234W        W87219  43.916   6.273   1.923
22235W        W87220  32.017   5.603   4.832
22236W        W87221  30.853   0.485  10.583
22237W        W87222  44.283  38.554  12.706
22238W        W87223  35.093   3.091   2.131
22239W        W87224   5.186  25.184  11.480
22240W        W87225   2.759  30.038   3.258
22241W        W87226  39.091  26.725  13.123
22242W        W87227  26.753  27.133  10.314
22243W        W87228   6.394  32.371  13.801
22244W        W87229  27.080  19.118  14.502
22245W        W87230  36.154  18.657  14.748
22246W        W87231  36.845  23.226   4.579
22247W        W87232  32.965  44.994   2.427
22248W        W87233  29.533   5.147   0.033
22249W        W87234  21.602  31.371  14.334
22250W        W87235  16.740  13.773   3.654
22251W        W87236  32.605  35.858  12.937
22252W        W87237  27.660  42.151  12.805
22253W        W87238  35.475  42.090  13.531
22254W        W87239   1.743  44.199   0.279
22255W        W87240  26.902   9.176  12.563
22256W        W87241   3.680  26.479  13.439
22257W        W87242  11.169  40.387  14.358
22258W        W87243   4.376   0.519   3.327
22259W        W87244   2.519  13.799  11.661
22260W        W87245  10.529  33.659  14.888
22261W        W87246  41.936  10.213   1.746
22262W        W87247   7.435  35.613   4.070
22263W        W87248  15.587  19.496  11.579
22264W        W87249  35.208  12.759  10.102
22265W        W87250  24.246  36.166   4.280
22266W        W87251   6.226  11.126  13.916
22267W        W87252  17.913   4.335   0.779
22268W        W87253   5.482  32.185   0.835
22269W        W87254  44.008  24.055  11.552
22270W        W87255  11.334   5.889   0.893
22271W        W87256  40.897  14.642  13.334
22272W        W87257   9.233  31.457   0.313
22273W        W87258  29.522  18.849   4.326
22274W        W87259  28.848  42.864  14.625
22275W        W87260  22.304  41.746   2.486
22276W        W87261   1.947   2.607  11.410
22277W        W87262  30.897   2.037  14.403
22278W        W87263  15.861  29.125  14.885
22279W        W87264  25.680  37.800  14.159
22280W        W87265  30.720  31.101   4.150
22281W        W87266  36.421  11.326  11.383
22282W        W87267   9.165  30.268  10.437
22283W        W87268  13.574  36.924  13.825
22284W        W87269   1.190  32.888   0.901
22285W        W87270  44.804  15.787   2.355
22286W        W87271   4.422   8.303   3.428
22287W        W87272  37.963   0.558  10.991
22288W        W87273  23.838  15.544  14.024
22289W        W87274  11.243  19.235   1.623
22290W        W87275  13.399  43.250  13.449
22291W        W87276  36.951  38.574  12.614
22292W        W87277  17.647   0.313   4.287
22293W        W87278  13.165  29.866   4.432
22294W        W87279   2.958  38.621   0.710
22295W        W87280  34.860   2.971   0.330
22296W        W87281   9.409  37.880  12.123
22297W        W87282  17.046  41.283   0.317
22298W        W87283   3.456   6.903   4.070
22299W        W87284  39.113  12.164   3.330
22300W        W87285  20.054   4.345   4.476
22301W        W87286  26.845   1.885   3.987
22302W        W87287   7.024  44.966  12.884
22303W        W87288  27.394  41.356  14.292
22304W        W87289  17.747  34.967  12.328
22305W        W87290  11.838  35.041   4.510
22306W        W87291  22.159  12.646   3.672
22307W        W87292  22.124  27.726  14.796
22308W        W87293  15.831  31.361   0.438
22309W        W87294  35.118  25.523  11.451
22310W        W87295  24.731  11.334   3.168
22311W        W87296  31.223  39.315   0.332
22312W        W87297   4.897   9.246  12.332
22313W        W87298   5.554  33.160   2.926
22314W        W87299   6.779   1.897   2.268
22315W        W87300  15.762   0.916  11.150
22316W        W87301   1.808  31.964   1.883
22317W        W87302  42.496  39.513   9.637
22318W        W87303  17.964  17.847  12.718
22319W        W87304  31.417   0.420   3.625
22320W        W87305  29.560  16.872   1.692
22321W        W87306  44.555  21.484   3.194
22322W        W87307  26.206  22.491   0.980
22323W        W87308  22.582  14.021   2.480
22324W        W87309  15.800   8.425  12.653
22325W        W87310  36.372  18.540   2.826
22326W        W87311  26.283  27.894  12.510
22327W        W87312  15.518   7.687  12.779
22328W        W87313   5.196  14.486   4.983
22329W        W87314   8.006   7.654  13.480
22330W        W87315  15.293  33.500  13.101
22331W        W87316   3.952  34.675   1.757
22332W        W87317  21.723  10.598  10.754
22333W        W87318  13.564  19.010  11.606
22334W        W87319  30.204  15.675   9.940
22335W        W87320  20.014  31.603  13.670
22336W        W87321  35.360   7.818  13.000
22337W        W87322  30.487  21.060  13.491
22338W        W87323  22.524  42.415   4.080
22339W        W87324  30.489  21.520  12.406
22340W        W87325  38.274   4.747  11.856
22341W        W87326  35.067  24.517   1.735
22342W        W87327  41.339  31.076  13.097
22343W        W87328   7.347   3.160  11.577
22344W        W87329  29.571   2.502  10.156
22345W        W87330  41.578  21.943  11.552
22346W        W87331  32.506  26.987  12.127
22347W        W87332  32.377  11.844  14.023
22348W        W87333   5.799  25.624  12.533
22349W        W87334  34.141  41.179   2.919
22350W        W87335  42.308  30.011   3.004
22351W        W87336  33.114  31.644  13.452
22352W        W87337  19.608   4.255  13.353
22353W        W87338   4.749   4.912   5.093
22354W        W87339  44.798  25.200   0.939
22355W        W87340  17.746  30.625   1.836
22356W        W87341  37.573   1.432  12.229
22357W        W87342   7.623  30.960   1.874
22358W        W87343  36.920  18.547   0.463
22359W        W87344  42.557  31.201   0.474
22360W        W87345   2.728  31.440  11.635
22361W        W87346  10.691  32.708   4.523
22362W        W87347   9.231  29.602  14.822
22363W        W87348   9.725   5.408   2.181
22364W        W87349  24.231  23.262  13.452
22365W        W87350   4.847  37.071  13.064
22366W        W87351  31.214  15.295  14.482
22367W        W87352   5.944  17.338  14.961
22368W        W87353  38.843  35.473   0.158
22369W        W87354  39.148  13.852  11.022
22370W        W87355  30.490  43.388  14.491
22371W        W87356   0.953  35.308  14.029
22372W        W87357   4.409  40.027   3.284
22373W        W87358  20.789   5.700  13.204
22374W        W87359  21.047  21.991  14.436
22375W        W87360  12.286  19.976  12.119
22376W        W87361   5.376  16.142  13.181
22377W        W87362   5.891  21.025   4.710
22378W        W87363  19.129   2.774  14.489
22379W        W87364  12.262  17.302  10.768
22380W        W87365  15.826  30.071   0.003
22381W        W87366  17.069  20.785  13.062
22382W        W87367  32.552   3.704  11.021
22383W        W87368  40.023  14.074  11.678
22384W        W87369   3.419   4.846   1.236
22385W        W87370  39.077  19.040  11.500
22386W        W87371  16.838  44.884   3.788
22387W        W87372  18.844  36.119   3.138
22388W        W87373  22.634  30.172   2.460
22389W        W87374   8.334   8.873  13.634
22390W        W87375   5.962   7.720  13.895
22391W        W87376  34.703   3.434   2.126
22392W        W87377  42.974  25.492  14.281
22393W        W87378  24.176   8.216   3.823
22394W        W87379  22.603  34.200   0.987
22395W        W87380   4.883  30.675   1.642
22396W        W87381  41.338   8.835  13.100
22397W        W87382  17.135  22.255   0.084
22398W        W87383  30.102  30.594  14.539
22399W        W87384  18.147   4.390   3.980
22400W        W87385  37.397  29.114   0.540
22401W        W87386  17.581  34.955   3.204
22402W        W87387  22.436  30.978  14.295
22403W        W87388  17.551  42.683  13.930
22404W        W87389  13.436  41.575   5.154
22405W        W87390  22.386  10.309  13.515
22406W        W87391   3.761  22.248   4.483
22407W        W87392  17.546  25.645  13.463
22408W        W87393   0.755  35.962  12.417
22409W        W87394  39.239  40.811   4.735
22410W        W87395  34.405  22.455  14.017
22411W        W87396  44.861   2.403   0.893
22412W        W87397   6.810   3.692   2.873
22413W        W87398   9.377   4.054   1.425
22414W        W87399  19.475   9.903  11.244
22415W        W87400  43.295  36.771   2.126
22416W        W87401  36.942   5.933  14.333
22417W        W87402  36.034  44.393  11.974
22418W        W87403  42.536   3.910  14.391
22419W        W87404  12.650   1.007  11.095
22420W        W87405  35.474  31.798  13.949
22421W        W87406  30.934  28.155   4.101
22422W        W87407  44.244   4.909  12.576
22423W        W87408  30.128  22.417  12.415
22424W        W87409  11.799   2.223   0.042
22425W        W87410  43.977   4.403  11.635
22426W        W87411  22.136  19.646   1.671
22427W        W87412  44.872  34.168  10.923
22428W        W87413   9.078  21.722   4.449
22429W        W87414  33.515  36.119   4.638
22430W        W87415  31.471   9.067  13.049
22431W        W87416   3.130  40.463   4.499
22432W        W87417  28.915  41.365   3.276
22433W        W87418  25.778  25.994   4.609
22434W        W87419  32.685  27.019   3.244
22435W        W87420   6.578  19.569  12.161
22436W        W87421   9.951  36.596   4.263
22437W        W87422   1.400  26.628   1.428
22438W        W87423   4.810  25.823   2.491
22439W        W87424  20.171   1.529   1.648
22440W        W87425  40.936  42.886  10.082
22441W        W87426  27.621  14.811  13.714
22442W        W87427  12.656   8.433   0.413
22443W        W87428   3.209   9.884   3.533
22444W        W87429  29.822  17.241  11.632
22445W        W87430  38.480  20.155   0.014
22446W        W87431  22.472   3.760   4.839
22447W        W87432  16.403   1.966   4.648
22448W        W87433  33.023  24.226   2.703
22449W        W87434   9.605  16.736  14.457
22450W        W87435  27.231  22.496  12.958
22451W        W87436   9.174  23.433  11.682
22452W        W87437  34.069   6.843   3.053
22453W        W87438  41.330  41.410  10.754
22454W        W87439  13.790  33.499  11.990
22455W        W87440  39.171  36.159   3.528
22456W        W87441  12.840  25.098   4.549
22457W        W87442  31.875  32.221  13.085
22458W        W87443  33.298  19.068   1.354
22459W        W87444   4.805  39.662   3.256
22460W        W87445  38.118  38.345  14.555
22461W        W87446  40.737   5.253  13.396
22462W        W87447   1.761  35.138   0.814
22463W        W87448  35.624  13.911   3.307
22464W        W87449  27.985   3.392  12.085
22465W        W87450   8.437  14.323   4.296
22466W        W87451   3.249  33.326  14.989
22467W        W87452  22.424  36.085  13.540
22468W        W87453  17.190  10.272   0.318
22469W        W87454  11.368  10.215   0.904
22470W        W87455  31.124  19.520   4.142
22471W        W87456  30.950   1.039   2.925
22472W        W87457  28.056  28.350   2.383
22473W        W87458  21.618   6.761   4.246
22474W        W87459   2.760  21.421   4.141
22475W        W87460  14.208  14.396  11.017
22476W        W87461  18.100  25.491  11.415
22477W        W87462  36.538   7.727   2.248
22478W        W87463  22.418  30.589   3.739
22479W        W87464  16.576  44.398  10.617
22480W        W87465  28.953   0.879   2.103
22481W        W87466  33.667  10.710   0.038
22482W        W87467  19.665   0.542  13.650
22483W        W87468  13.611   4.409  11.142
22484W        W87469  27.758   0.463  13.343
22485W        W87470  39.425  29.874  14.586
22486W        W87471  42.233   9.639  14.682
22487W        W87472  15.670  21.660  10.949
22488W        W87473  33.737  28.085   4.855
22489W        W87474  23.143  22.507  14.075
22490W        W87475  30.987   6.671  14.434
22491W        W87476  40.839  10.263   3.239
22492W        W87477  10.332  20.065   1.200
22493W        W87478   3.642  38.396   2.715
22494W        W87479  18.812  11.655  10.588
22495W        W87480  40.133  29.103  14.097
22496W        W87481  21.998  25.227   0.386
22497W        W87482   8.829   9.706   4.772
22498W        W87483  32.913  27.005  11.684
22499W        W87484   6.190   9.211  14.975
22500W        W87485  44.324  39.412   2.276
22501W        W87486  12.567   0.881  11.612
22502W        W87487  26.274  14.238  14.394
22503W        W87488  20.143  15.970   4.198
22504W        W87489   3.521  38.460   4.865
22505W        W87490   8.129  40.916   0.594
22506W        W87491  20.861   9.820  14.948
22507W        W87492  37.035  22.714   0.419
22508W        W87493  35.606   7.171   3.252
22509W        W87494  25.511  16.857  11.175
22510W        W87495  19.074  37.292   0.818
22511W        W87496   7.866  30.346  10.585
22512W        W87497  15.633  36.394  12.478
22513W        W87498   7.289  35.363  10.697
22514W        W87499  38.284  35.426   9.897
22515W        W87500  19.223  35.886  11.699
22516W        W87501  13.631  30.623  13.562
22517W        W87502  37.547   3.519  11.590
22518W        W87503  19.325  20.283   0.119
22519W        W87504  42.691   9.835  12.733
22520W        W87505  14.387  19.015  14.886
22521W        W87506  13.367   3.990  10.963
22522W        W87507  30.251  16.027   2.306
22523W        W87508   9.019  25.964   3.182
22524W        W87509   0.406  34.552  10.846
22525W        W87510  37.609   7.351   5.130
22526W        W87511  19.135   8.853   4.050
22527W        W87512  10.103  13.617   2.546
22528W        W87513  26.992   8.578  11.688
22529W        W87514  33.030  27.106  14.366
22530W        W87515  19.012  35.120  13.527
22531W        W87516  31.802   6.704   4.178
22532W        W87517  15.150   8.921   1.209
22533W        W87518  41.844   5.694   4.670
22534W        W87519  23.055   3.090  11.333
22535W        W87520  13.911  28.232   3.649
22536W        W87521  27.740  29.293  11.151
22537W        W87522  40.082  34.556   2.635
22538W        W87523   3.026  29.595  11.581
22539W        W87524   8.631  42.271   2.209
22540W        W87525  40.297  28.714   3.581
22541W        W87526  25.272  19.242  13.440
22542W        W87527  17.697  15.265  11.564
22543W        W87528  10.222  18.609   4.085
22544W        W87529  40.270  31.352   1.401
22545W        W87530   9.685  35.110  11.696
22546W        W87531  29.050  29.686  13.816
22547W        W87532  39.340   3.180  14.044
22548W        W87533  26.136   5.331   0.238
22549W        W87534  24.990  27.469  14.325
22550W        W87535  26.412   4.852  12.048
22551W        W87536  21.987   6.940   0.401
22552W        W87537   5.082  30.978   4.351
22553W        W87538   9.793  12.158   2.069
22554W        W87539   7.610  28.998  14.065
22555W        W87540   9.605   3.544   1.511
22556W        W87541  29.534  41.165   4.276
22557W        W87542   5.200  41.426  14.626
22558W        W87543  29.717   5.949   1.293
22559W        W87544  44.776  28.052  13.983
22560W        W87545  19.135  39.060  14.386
22561W        W87546   5.246   0.725   1.881
22562W        W87547  39.798  19.213  10.770
22563W        W87548   3.145  12.697  10.408
22564W        W87549  24.722  43.008  10.722
22565W        W87550   9.675  20.152   3.576
22566W        W87551  25.008   9.080  11.087
22567W        W87552  24.504  18.701   3.078
22568W        W87553  43.008  38.575  14.554
22569W        W87554  25.530   2.368  10.210
22570W        W87555  21.316  20.983   3.737
22571W        W87556  22.121  34.785  14.562
22572W        W87557  24.158  39.032   3.701
22573W        W87558  30.622  27.335   3.229
22574W        W87559  43.375  26.422   1.710
22575W        W87560  35.019   5.857   3.095
22576W        W87561  41.706  30.646   0.470
22577W        W87562  21.968  23.110  13.433
22578W        W87563  25.633  34.668   3.299
22579W        W87564  15.514  14.249   3.360
22580W        W87565  41.279  28.018   3.818
22581W        W87566   3.270  27.161  10.806
22582W        W87567  13.354  26.444  14.960
22583W        W87568  34.100   7.192   4.254
22584W        W87569  35.079   8.784   1.733
22585W        W87570  43.719  12.958   4.036
22586W        W87571  41.511  24.990  13.851
22587W        W87572   0.763  22.524  10.576
22588W        W87573  19.601  36.025   1.345
22589W        W87574  33.944  29.629   0.835
22590W        W87575   5.694  23.085  10.635
22591W        W87576  19.456   5.769  11.096
22592W        W87577  18.328  13.355  12.158
22593W        W87578   3.615   3.978  12.025
22594W        W87579  15.157  36.203  12.567
22595W        W87580  19.953  31.968  11.586
22596W        W87581   7.795  24.804   2.369
22597W        W87582  39.579  16.167   4.601
22598W        W87583  41.800  27.726   4.032
22599W        W87584   5.664  32.538   4.564
22600W        W87585  15.746  28.683   2.199
22601W        W87586  37.954  32.168   2.734
22602W        W87587  16.608  21.993   0.759
22603W        W87588  14.618   9.341  13.780
22604W        W87589  21.207   4.882  14.882
22605W        W87590  10.734   9.220  11.677
22606W        W87591  22.481   9.338  14.862
22607W        W87592  35.248  21.762  10.466
22608W        W87593  16.652  40.765   1.754
22609W        W87594  39.001  26.479   0.803
22610W        W87595   8.191  13.608  12.905
22611W        W87596   1.426  34.452  10.773
22612W        W87597  27.199  21.743   0.671
22613W        W87598  31.542   4.333   2.310
22614W        W87599  25.522  21.107   0.894
22615W        W87600   0.861  37.615   3.657
22616W        W87601  37.443  18.791   3.241
22617W        W87602  23.140  42.839  10.668
22618W        W87603  32.177  27.017   3.190
22619W        W87604   2.252  33.532   1.836
22620W        W87605  12.304  15.392  14.764
22621W        W87606  25.266  38.007   0.890
22622W        W87607  26.585   8.872   1.281
22623W        W87608   1.410  35.122  11.234
22624W        W87609  12.606   3.953  14.543
22625W        W87610   6.337  22.671   4.687
22626W        W87611  19.152  44.352   3.651
22627W        W87612   2.891  35.867  12.686
22628W        W87613   8.844  13.276   0.473
22629W        W87614  43.853   0.101  14.023
22630W        W87615   3.119  21.124   0.331
22631W        W87616  40.433  30.901   0.546
22632W        W87617  31.679   7.990   1.887
22633W        W87618   8.126  31.341  12.121
22634W        W87619  10.163  11.291   2.282
22635W        W87620  26.650  36.529  11.192
22636W        W87621  40.051  43.913   3.566
22637W        W87622  17.558  25.095  10.797
22638W        W87623  26.911   2.753  11.613
22639W        W87624  41.251  29.469   2.439
22640W        W87625  11.923  38.891  12.360
22641W        W87626   6.094  17.584   0.411
22642W        W87627   2.481  25.964  11.214
22643W        W87628   6.696  10.040  11.543
22644W        W87629  44.969  25.842  14.358
22645W        W87630  11.156  33.332   1.904
22646W        W87631  18.835   4.783  10.704
22647W        W87632  17.706  37.364  10.908
22648W        W87633   5.888   9.371  12.022
22649W        W87634  44.828  31.664  13.383
22650W        W87635  22.045   7.682  12.381
22651W        W87636   8.547  35.108  12.092
22652W        W87637  28.465  24.109  13.921
22653W        W87638  41.991  21.557   4.598
22654W        W87639   3.797  34.762  11.812
22655W        W87640   9.832  22.218  14.431
22656W        W87641  17.077  22.464  13.746
22657W        W87642  28.455  28.977  11.594
22658W        W87643  17.323  28.982   0.043
22659W        W87644  19.191  39.207  11.131
22660W        W87645  36.004   9.699   4.977
22661W        W87646   5.610   7.460  14.545
22662W        W87647   7.198  43.716   0.693
22663W        W87648   9.119  28.374  13.268
22664W        W87649  29.017  37.089   1.829
22665W        W87650  33.563  34.574   0.388
22666W        W87651  28.936   2.879  11.194
22667W        W87652  12.588   2.754  13.112
22668W        W87653   1.064   9.227   3.174
22669W        W87654  24.595  25.660   0.812
22670W        W87655  19.766  13.681  13.881
22671W        W87656  39.297  28.515  14.778
22672W        W87657  28.912  44.667   4.506
22673W        W87658  26.650  33.956  12.232
22674W        W87659   3.440  12.117  12.060
22675W        W87660   7.173  30.615  13.409
22676W        W87661  12.827  15.160  12.396
22677W        W87662  32.326  30.615   2.758
22678W        W87663   7.729  35.065  12.393
22679W        W87664  14.908   2.314   4.701
22680W        W87665  40.896  40.671  10.910
22681W        W87666   5.733  40.566  11.732
22682W        W87667   2.814  43.981   1.893
22683W        W87668  18.174   6.700  10.268
22684W        W87669  34.865  18.247   3.810
22685W        W87670  28.217  21.080   2.505
22686W        W87671   6.697  12.575  13.646
22687W        W87672  35.165  16.941   0.412
22688W        W87673  42.510  16.885   1.824
22689W        W87674  14.523   0.217  14.798
22690W        W87675  20.002  30.956  14.001
22691W        W87676   2.061  10.475  12.550
22692W        W87677  18.211  16.101  10.750
22693W        W87678   4.426  11.118   1.693
22694W        W87679  32.858  36.004  13.394
22695W        W87680   5.236  34.180   4.519
22696W        W87681  41.247   0.443  10.835
22697W        W87682  36.541  30.796   4.965
22698W        W87683  40.941  22.842   3.236
22699W        W87684  34.887  32.332   0.862
22700W        W87685  15.622  35.112  11.918
22701W        W87686  42.521  23.792  14.333
22702W        W87687  43.295  24.515   3.334
22703W        W87688  15.806   2.664   2.715
22704W        W87689  40.936  32.893   1.911
22705W        W87690  43.715  18.458   4.274
22706W        W87691  42.540  30.364   3.958
22707W        W87692  41.177   7.770  14.241
22708W        W87693  25.061  14.742  12.148
22709W        W87694  15.115   1.386  13.558
22710W        W87695  10.781  27.388  13.598
22711W        W87696  15.283  10.521   2.261
22712W        W87697  42.399  29.708  13.542
22713W        W87698   5.912  24.898  11.016
22714W        W87699  28.453  31.952   1.486
22715W        W87700  10.660  38.127  11.570
22716W        W87701  41.840  22.709   3.735
22717W        W87702  33.817  39.916  12.213
22718W        W87703  43.037  17.703   1.428
22719W        W87704  29.613  42.588  12.477
22720W        W87705  24.285   0.044   3.205
22721W        W87706  13.661  30.162  14.761
22722W        W87707  20.805  17.526   2.631
22723W        W87708  27.564  24.209  13.679
22724W        W87709  33.341   7.560   3.159
22725W        W87710   9.497  23.330   3.894
22726W        W87711  38.570  42.038  13.343
22727W        W87712  24.605   7.363   0.596
22728W        W87713  29.570   8.878  12.326
22729W        W87714  25.380  41.569   1.722
22730W        W87715  19.619  35.114   3.713
22731W        W87716   1.331  11.026  12.584
22732W        W87717  24.286   9.020   2.159
22733W        W87718  37.131  40.686  13.203
22734W        W87719  28.387  43.332  12.624
22735W        W87720  19.795   6.728  11.136
22736W        W87721  33.004  29.100  13.366
22737W        W87722  43.886  40.955   3.627
22738W        W87723  43.460  38.603   0.791
22739W        W87724  19.633  44.263   3.112
22740W        W87725   6.334   6.703   1.115
22741W        W87726   5.877  28.043   3.357
22742W        W87727   3.853  38.871  11.624
22743W        W87728  29.954  38.920   4.332
22744W        W87729  42.282   2.396   0.363
22745W        W87730   8.259  36.108   2.732
22746W        W87731  20.853  35.667  10.692
22747W        W87732  10.924  18.633  13.125
22748W        W87733  27.068  17.575  13.432
22749W        W87734  21.721  36.775  14.934
22750W        W87735  25.123  36.213  12.112
22751W        W87736  43.450   5.642  10.484
22752W        W87737  44.052  20.861   0.903
22753W        W87738  36.180   9.447   1.734
22754W        W87739  16.672   8.250  13.527
22755W        W87740  40.170  17.730   3.584
22756W        W87741  10.920  37.367   1.826
22757W        W87742   0.757  31.449   4.507
22758W        W87743  19.249   1.128   2.195
22759W        W87744   4.445  28.408  14.372
22760W        W87745   8.044  15.464  14.394
22761W        W87746  19.202   5.879  11.549
22762W        W87747  16.061  13.334   1.399
22763W        W87748  28.249  29.140  13.402
22764W        W87749  16.583  18.267   2.245
22765W        W87750   3.368  36.014   0.574
22766W        W87751  26.622  18.680  11.963
22767W        W87752   6.870  18.213   0.240
22768W        W87753  37.400  39.410   4.067
22769W        W87754  32.017  24.528   4.099
22770W        W87755  35.950  42.497   3.853
22771W        W87756  21.805  10.561  13.768
22772W        W87757  33.541  44.443   4.039
22773W        W87758   9.388   5.600   0.305
22774W        W87759  43.915  13.868  13.066
22775W        W87760  32.854  11.743  13.871
22776W        W87761  21.746   6.235   2.716
22777W        W87762  18.875   5.352   4.498
22778W        W87763  40.514  12.851  11.004
22779W        W87764  31.410   7.248  13.498
22780W        W87765  13.617  17.487  14.470
22781W        W87766  42.508  44.844   2.326
22782W        W87767  30.536  32.049  12.100
22783W        W87768  21.131  37.549   3.789
22784W        W87769   8.140  29.921   2.805
22785W        W87770  10.175  33.014   3.255
22786W        W87771  11.508   3.506  13.651
22787W        W87772  27.013  31.029  11.381
22788W        W87773   2.861  41.048  11.161
22789W        W87774   4.678  40.298   0.356
22790W        W87775  26.266  28.531   0.040
22791W        W87776  34.125  28.948  12.119
22792W        W87777  10.084  41.072  10.766
22793W        W87778  21.585  22.765   0.791
22794W        W87779  33.378   2.923  11.801
22795W        W87780  35.162  17.475  12.009
22796W        W87781  39.862  16.445   3.960
22797W        W87782  15.104  44.725  12.977
22798W        W87783   2.968  44.469  12.239
22799W        W87784  40.674  33.275  11.675
22800W        W87785   9.701  34.952   4.190
22801W        W87786   5.430  31.621  11.546
22802W        W87787   9.078  15.328   1.368
22803W        W87788  14.288  40.568  11.215
22804W        W87789  30.457  13.417   1.846
22805W        W87790  30.760  13.140   0.244
22806W        W87791  18.055  30.979  11.295
22807W        W87792  21.674  14.395   1.619
22808W        W87793  34.534  37.393   1.777
22809W        W87794   0.329  37.579   2.416
22810W        W87795  12.212   0.070   0.858
22811W        W87796  29.881  21.700  14.045
22812W        W87797  41.464  41.599   4.756
22813W        W87798  26.020  43.140   5.037
22814W        W87799  34.239  13.694   4.553
22815W        W87800  18.524  32.797  11.179
22816W        W87801  19.190  11.177  12.983
22817W        W87802  29.850  40.314   4.418
22818W        W87803  38.503  21.770   2.157
22819W        W87804  11.909   0.963   2.748
22820W        W87805  20.849  20.043   1.990
22821W        W87806  15.501  37.636   5.193
22822W        W87807   4.321  11.794   4.232
22823W        W87808  26.532  28.370   3.287
22824W        W87809  10.423  33.482   3.224
22825W        W87810   5.128  21.187   0.881
22826W        W87811  43.373  35.285   3.232
22827W        W87812  42.971  23.586   0.389
22828W        W87813  18.695  25.949  10.678
22829W        W87814   5.397   2.893  13.436
22830W        W87815   8.266  40.819  12.868
22831W        W87816  18.468  37.535   2.660
22832W        W87817   1.556  37.358  11.200
22833W        W87818  36.087  28.704  11.546
22834W        W87819  40.208  33.299   3.602
22835W        W87820  38.373   0.960  14.884
22836W        W87821  13.599  32.492  13.806
22837W        W87822   2.380  12.418   4.123
22838W        W87823  29.818  29.521  14.913
22839W        W87824  33.017  27.509   3.648
22840W        W87825  22.605  33.109   4.102
22841W        W87826  21.657  16.510   2.628
22842W        W87827  18.663  11.605  14.298
22843W        W87828  35.892  44.383  14.216
22844W        W87829  17.563   7.624  12.838
22845W        W87830  13.785  39.444  14.482
22846W        W87831  32.864   7.193   1.757
22847W        W87832  19.749   3.858   1.910
22848W        W87833  39.823  36.442   5.099
22849W        W87834  34.377  39.520   0.228
22850W        W87835  12.744  37.626  11.027
22851W        W87836  33.901  37.011   3.304
22852W        W87837  32.695   7.558  14.750
22853W        W87838  13.017  42.917  14.590
22854W        W87839   2.706  27.727  12.787
22855W        W87840  33.265  17.151   4.609
22856W        W87841  13.728   9.573   1.793
22857W        W87842  23.417  43.640   3.237
22858W        W87843  25.089  43.322  14.578
22859W        W87844   2.375   9.346  14.462
22860W        W87845  15.488  35.393   3.797
22861W        W87846  10.402  38.853   4.886
22862W        W87847  24.399  23.524  14.919
22863W        W87848  43.918  27.207  12.339
22864W        W87849  14.142  13.824   1.852
22865W        W87850   0.151  41.036  12.026
22866W        W87851  30.400  17.210  13.964
22867W        W87852  15.554  37.808   2.341
22868W        W87853  38.914  21.038   5.036
22869W        W87854  11.682  42.518   1.327
22870W        W87855  26.773  32.308   2.316
22871W        W87856  37.027  39.869   1.526
22872W        W87857  26.206  44.408   0.929
22873W        W87858  39.026  26.706   0.335
22874W        W87859  17.113  37.605  14.116
22875W        W87860  24.203  21.552  11.237
22876W        W87861   8.220  39.787   0.851
22877W        W87862  28.630  17.642   0.966
22878W        W87863  31.947  15.350   4.557
22879W        W87864  29.238  41.845  14.716
22880W        W87865  21.221  40.888   3.842
22881W        W87866  32.392   7.117   3.960
22882W        W87867  29.481  37.436  14.033
22883W        W87868  26.635  13.713   0.733
22884W        W87869   5.899  33.106   1.975
22885W        W87870  44.068  22.250  11.248
22886W        W87871  38.723  17.325  11.888
22887W        W87872  16.800  29.383  12.674
22888W        W87873   8.762  27.375   1.294
22889W        W87874   7.790  35.793  12.983
22890W        W87875  15.157  33.177   4.115
22891W        W87876   2.918  41.732  14.313
22892W        W87877  27.971  32.542  14.377
22893W        W87878  40.946   2.492  11.148
22894W        W87879  15.795  35.062   1.075
22895W        W87880  36.526  44.991   2.245
22896W        W87881  11.814   9.914   1.679
22897W        W87882  32.068  11.145  13.046
22898W        W87883  27.776  22.195   3.749
22899W        W87884   8.605  27.915   2.753
22900W        W87885  35.361  30.661   4.351
22901W        W87886  35.520  22.015  14.553
22902W        W87887  10.398  42.896   2.395
22903W        W87888  32.050   6.452  14.861
22904W        W87889  43.391   3.951  12.979
22905W        W87890  15.583  24.929  14.370
22906W        W87891   3.258   1.387  13.476
22907W        W87892  31.116  24.086  11.305
22908W        W87893  18.287   6.206   2.753
22909W        W87894   5.406  30.572   2.983
22910W        W87895  11.503  30.916  13.054
22911W        W87896  39.844   8.020   1.329
22912W        W87897  28.317  39.449   0.779
22913W        W87898  13.434   1.981  11.447
22914W        W87899  10.148  16.689  14.457
22915W        W87900   6.766  13.950  10.776
22916W        W87901  26.142  34.983   3.448
22917W        W87902   1.169  15.397  11.954
22918W        W87903   8.620  41.360   4.325
22919W        W87904  15.346  23.793  11.079
22920W        W87905   9.665  18.920  14.102
22921W        W87906   2.977  25.423  14.648
22922W        W87907  42.312   9.812   1.294
22923W        W87908  35.404   2.761   2.404
22924W        W87909   4.842  26.056  10.498
22925W        W87910  20.082  16.588   0.296
22926W        W87911  30.850  13.805  13.042
22927W        W87912  27.989  19.842  10.329
22928W        W87913   1.194   6.432  11.658
22929W        W87914  36.872  35.580   0.749
22930W        W87915  34.388  26.647   1.805
22931W        W87916  40.516  44.374  11.034
22932W        W87917  20.932  23.045  11.851
22933W        W87918  38.914  32.877  11.389
22934W        W87919  34.135  24.645  13.801
22935W        W87920  42.200  29.218   2.400
22936W        W87921  16.065   7.479  13.471
22937W        W87922  24.210  42.440  12.903
22938W        W87923  18.596   8.289   3.646
22939W        W87924  18.545  31.285   2.316
22940W        W87925  28.687  36.012   0.940
22941W        W87926  43.791  39.897  13.056
22942W        W87927  40.950  44.885   0.923
22943W        W87928  13.566  15.522   4.173
22944W        W87929  13.236  44.807   1.564
22945W        W87930   2.765  27.249  10.632
22946W        W87931  10.091   0.594   3.862
22947W        W87932  30.022   9.171   3.257
22948W        W87933   8.246   8.864  11.237
22949W        W87934  19.194  17.063   1.288
22950W        W87935  24.824  15.281  13.046
22951W        W87936   8.072  31.385   3.720
22952W        W87937  17.343  13.756   3.203
22953W        W87938  28.231  15.595   3.330
22954W        W87939  23.006  26.068   4.573
22955W        W87940  24.992   9.388   4.609
22956W        W87941   0.362  30.099  11.428
22957W        W87942  29.439   8.222   2.329
22958W        W87943  36.988  27.234   0.190
22959W        W87944  10.628  36.001   3.334
22960W        W87945  33.065  10.341  13.971
22961W        W87946  31.874  25.263  11.587
22962W        W87947  20.392   8.476   0.727
22963W        W87948   3.151  34.030  10.728
22964W        W87949  32.971  15.476  13.530
22965W        W87950   3.807  16.512   1.236
22966W        W87951  20.787  34.904   2.336
22967W        W87952  32.287  17.691  11.610
22968W        W87953   1.090  33.855  14.463
22969W        W87954  27.023  37.118   1.246
22970W        W87955  38.372  11.136   3.608
22971W        W87956   2.415  39.924   3.583
22972W        W87957  36.577  12.822   4.623
22973W        W87958  23.143  27.476  11.392
22974W        W87959  34.556  15.161   4.315
22975W        W87960  18.730  17.617   5.048
22976W        W87961  16.553   6.207   2.635
22977W        W87962  14.288  21.735  11.630
22978W        W87963  38.408  11.875  13.381
22979W        W87964  42.688  13.825  13.936
22980W        W87965  11.106  37.899   2.280
22981W        W87966  25.485  43.435   3.323
22982W        W87967   4.375  38.986  12.425
22983W        W87968  18.865   7.769   4.489
22984W        W87969   4.175  35.967   2.763
22985W        W87970  34.855  15.609   3.636
22986W        W87971  20.505  23.559   0.393
22987W        W87972  15.136  16.509   4.085
22988W        W87973   2.180  18.106   4.550
22989W        W87974  20.724  14.037   2.389
22990W        W87975   3.293  26.739  13.162
22991W        W87976  34.477  17.999   1.866
22992W        W87977  34.047   1.856  11.027
22993W        W87978  25.269  21.561  12.075
22994W        W87979  30.940  43.760   1.667
22995W        W87980  26.886  21.147  12.981
22996W        W87981  21.092  16.771   1.245
22997W        W87982  15.277  42.138   3.233
22998W        W87983   5.480  43.917   3.625
22999W        W87984  21.716   1.569  11.605
23000W        W87985  31.429  12.600   4.874
23001W        W87986   6.903  41.997   2.190
23002W        W87987  29.568  42.125  10.678
23003W        W87988  13.075  39.374  13.968
23004W        W87989   3.000  42.503  13.916
23005W        W87990  24.422  21.365  14.271
23006W        W87991  38.091  36.017   0.493
23007W        W87992   7.296  31.568   4.946
23008W        W87993   8.273  27.178   1.318
23009W        W87994  35.549   0.923   2.306
23010W        W87995  18.614   3.325  14.975
23011W        W87996   2.553  44.945  14.650
23012W        W87997  40.465  39.300  10.684
23013W        W87998  38.986  19.551  12.897
23014W        W87999  42.533  25.985  14.796
23015W        W88000  11.422  16.190   0.269
23016W        W88001  16.227  18.540  12.493
23017W        W88002  22.468  26.475   0.973
23018W        W88003  27.629  10.314  10.271
23019W        W88004  26.451   0.368   1.260
23020W        W88005  18.378  15.768   1.241
23021W        W88006  38.021  15.217  10.438
23022W        W88007   4.717  40.869  14.779
23023W        W88008  15.367  18.530  12.412
23024W        W88009  22.158   2.419  11.651
23025W        W88010  14.040   6.404   2.413
23026W        W88011  16.744  34.865  13.732
23027W        W88012  19.150  16.714  10.214
23028W        W88013  12.116  15.700   2.206
23029W        W88014  37.796   5.767   1.848
23030W        W88015  29.483  17.126   4.631
23031W        W88016  27.414  33.883  13.777
23032W        W88017  12.834  10.240   3.624
23033W        W88018  25.039   5.340  12.457
23034W        W88019  23.539  44.507   2.734
23035W        W88020  21.751   5.764   4.158
23036W        W88021  27.922  38.969   4.530
23037W        W88022   2.315  41.484   0.895
23038W        W88023  17.541  16.809  13.770
23039W        W88024   1.949  17.743  14.508
23040W        W88025  41.972   5.935   1.267
23041W        W88026   0.522  26.514   4.541
23042W        W88027  15.806  27.075  12.418
23043W        W88028  42.571  28.096   2.549
23044W        W88029   6.454  15.382   2.369
23045W        W88030  20.110  40.516  11.636
23046W        W88031  44.819  42.273   3.760
23047W        W88032  39.091  19.967   2.312
23048W        W88033  40.520  18.062  13.355
23049W        W88034   4.809  35.648   3.401
23050W        W88035  13.756  34.599   2.163
23051W        W88036   8.315   5.666   0.933
23052W        W88037  40.431   4.398  12.070
23053W        W88038  20.105  20.689   0.621
23054W        W88039  18.587  12.072   4.553
23055W        W88040  25.207   4.656   1.705
23056W        W88041   7.941   2.120   2.372
23057W        W88042  18.274  35.368  13.977
23058W        W88043  40.278  11.124  12.410
23059W        W88044  43.015  33.610  10.816
23060W        W88045   1.999  44.928   3.015
23061W        W88046  28.004  33.481   2.866
23062W        W88047  44.824  17.187   0.658
23063W        W88048   8.836  36.637   0.816
23064W        W88049  27.554  19.157   4.125
23065W        W88050   0.371  25.995   4.726
23066W        W88051  30.904   9.771  10.996
23067W        W88052  13.887   6.632  13.830
23068W        W88053  28.458  34.961  10.716
23069W        W88054  21.711  32.374   5.542
23070W        W88055  26.631  21.842   0.468
23071W        W88056  18.001  31.229  12.215
23072W        W88057  41.789  25.736   1.884
23073W        W88058   5.669  29.114  13.519
23074W        W88059   5.888   4.616  13.802
23075W        W88060  34.540  33.884   3.897
23076W        W88061  16.758   7.829   2.276
23077W        W88062   3.397  14.418   4.174
23078W        W88063  41.557  18.664  12.101
23079W        W88064  28.544  22.460  11.361
23080W        W88065  44.770  38.960  14.431
23081W        W88066  24.483  35.642   3.544
23082W        W88067  40.325   7.893   4.239
23083W        W88068  32.816   3.687   4.726
23084W        W88069  13.094  32.878  11.100
23085W        W88070   5.418  14.338   3.241
23086W        W88071  43.807  12.496   2.745
23087W        W88072  38.957  18.554  12.917
23088W        W88073  21.493  29.468  13.434
23089W        W88074  22.038  36.066  11.033
23090W        W88075  32.037   1.682   4.126
23091W        W88076  44.273  23.916   4.107
23092W        W88077  14.901  32.223  14.799
23093W        W88078   1.645  19.946  11.517
23094W        W88079   0.900  41.310  14.127
23095W        W88080  28.535  43.014   3.627
23096W        W88081  34.300   5.911  11.405
23097W        W88082  38.334   0.256  12.171
23098W        W88083   9.877   4.324  11.412
23099W        W88084  40.825   3.499   3.769
23100W        W88085  17.201  27.213  13.863
23101W        W88086  28.944  22.667   4.869
23102W        W88087  35.084  20.697  13.994
23103W        W88088  34.127  15.220   4.771
23104W        W88089   0.661  31.597   3.713
23105W        W88090   6.330  31.693  14.330
23106W        W88091  31.167  34.331  11.142
23107W        W88092  13.282  28.907  11.065
23108W        W88093   3.221  37.006   0.948
23109W        W88094  37.862   4.332  13.367
23110W        W88095   4.268  30.396   1.774
23111W        W88096  28.155  26.484   2.341
23112W        W88097  32.227   7.100  12.944
23113W        W88098   3.866  16.623   0.749
23114W        W88099  34.095  10.223  11.097
23115W        W88100   5.113   5.932   9.974
23116W        W88101   6.880  28.632  10.692
23117W        W88102  22.165  26.598   3.181
23118W        W88103  35.578   8.772   1.427
23119W        W88104  36.910  35.510  13.699
23120W        W88105  22.229   0.974   3.337
23121W        W88106  24.773  15.868   1.864
23122W        W88107  42.492  31.965   0.007
23123W        W88108  15.328   3.724   0.730
23124W        W88109  28.729   0.782  11.237
23125W        W88110   0.609  15.495  11.866
23126W        W88111  24.695  38.623  12.671
23127W        W88112  44.713  28.121  13.168
23128W        W88113  14.092  26.053  14.445
23129W        W88114   1.004  15.713   5.005
23130W        W88115  42.902  14.082   1.842
23131W        W88116  11.434   2.293   3.925
23132W        W88117   2.634  43.789   2.352
23133W        W88118  19.029  12.051  14.127
23134W        W88119  20.073  39.576  13.969
23135W        W88120   7.435  19.325   0.330
23136W        W88121   9.298  24.118   3.394
23137W        W88122   7.928  12.719  12.323
23138W        W88123  33.669  12.410   3.761
23139W        W88124  28.899  38.933  11.196
23140W        W88125  15.085  44.781   3.237
23141W        W88126  40.030  27.928  11.597
23142W        W88127  18.780  21.581   0.297
23143W        W88128  43.368  40.415  13.707
23144W        W88129  11.151   6.107  13.483
23145W        W88130  43.871  33.645   2.937
23146W        W88131  21.285  10.105  14.974
23147W        W88132  36.552  30.122   2.386
23148W        W88133  38.533  16.013   3.302
23149W        W88134  31.810  14.342  11.545
23150W        W88135  38.390  31.419  10.965
23151W        W88136  42.273  37.432   1.765
23152W        W88137   2.370  22.748   0.253
23153W        W88138  18.326   4.698  10.719
23154W        W88139  29.890  39.794   3.246
23155W        W88140   7.435  38.988   9.857
23156W        W88141  29.067  12.272  12.634
23157W        W88142  15.687  34.312   1.933
23158W        W88143  41.024   0.109  13.932
23159W        W88144  24.849  36.469  13.272
23160W        W88145  42.841  31.814  14.558
23161W        W88146  14.099  36.814  10.827
23162W        W88147   9.728   7.729  13.781
23163W        W88148  26.496  15.194   0.590
23164W        W88149   4.165   9.883  14.097
23165W        W88150  37.821  39.452  10.991
23166W        W88151   9.787   3.338  14.511
23167W        W88152  39.366  44.713   2.829
23168W        W88153  19.936  41.745   4.599
23169W        W88154  40.516  39.051  13.762
23170W        W88155  17.653  10.489   0.364
23171W        W88156  23.772   5.342   1.912
23172W        W88157  26.806  26.615   4.226
23173W        W88158  30.355   3.474  10.766
23174W        W88159   9.418  18.111  13.477
23175W        W88160  27.647  23.178  12.154
23176W        W88161  16.974  22.310  11.165
23177W        W88162  15.587  12.844   2.169
23178W        W88163  25.018   8.667  10.701
23179W        W88164   9.916  19.459   0.452
23180W        W88165  32.659  13.813  14.559
23181W        W88166  14.289  31.510  11.507
23182W        W88167  28.082  14.804   1.270
23183W        W88168  13.033  44.287   3.855
23184W        W88169  11.857   6.199   3.219
23185W        W88170  24.050  21.803   3.186
23186W        W88171  25.796   7.882   4.050
23187W        W88172  37.123  11.673  12.929
23188W        W88173  44.375  15.529   0.218
23189W        W88174   3.810  36.318  12.005
23190W        W88175  12.197   2.877  13.457
23191W        W88176   3.936  18.855   1.741
23192W        W88177   8.192  17.209  10.706
23193W        W88178  32.462   3.184   0.530
23194W        W88179  17.347   9.880   3.056
23195W        W88180   6.029  15.754   2.210
23196W        W88181   4.655  32.126   1.674
23197W        W88182  13.343  38.787   0.776
23198W        W88183   6.314  19.508   4.077
23199W        W88184   8.673  30.498  13.146
23200W        W88185   5.956  35.892   3.304
23201W        W88186   5.904   1.276   2.123
23202W        W88187   8.418  22.482  14.703
23203W        W88188  12.549   7.677  11.090
23204W        W88189  37.497  32.953  13.117
23205W        W88190  32.797  30.228  12.008
23206W        W88191  38.927  42.879  12.362
23207W        W88192  27.096   8.052   2.357
23208W        W88193  15.674  33.428  10.683
23209W        W88194  23.703  35.518  12.591
23210W        W88195  32.983  33.982   4.016
23211W        W88196  26.367  28.038  13.407
23212W        W88197  27.091  38.544  12.381
23213W        W88198   4.657  26.344   2.555
23214W        W88199  42.803  33.916   4.193
23215W        W88200  34.945  10.908  12.967
23216W        W88201  36.572  31.258  14.112
23217W        W88202   3.203  36.983   1.498
23218W        W88203   8.437  24.679   0.772
23219W        W88204   6.930   4.776  11.595
23220W        W88205  30.085  18.424  12.925
23221W        W88206   9.818  30.679   3.153
23222W        W88207   8.417  30.000   2.369
23223W        W88208  20.549  26.728  10.449
23224W        W88209   7.105   1.022   2.809
23225W        W88210   3.261   6.829   0.190
23226W        W88211   3.230  41.010  13.905
23227W        W88212  43.420  34.781   0.273
23228W        W88213  35.416   2.763   3.941
23229W        W88214   7.858  38.853  10.125
23230W        W88215  29.614  35.868   0.702
23231W        W88216  12.764  23.609   3.770
23232W        W88217   3.958  13.854  12.987
23233W        W88218   7.353  35.870   3.624
23234W        W88219   2.757  35.461   0.389
23235W        W88220  37.498  34.155  11.480
23236W        W88221  14.235   3.747   3.980
23237W        W88222  18.206  13.228   1.504
23238W        W88223   6.457  34.605   3.174
23239W        W88224   2.351  20.087   3.371
23240W        W88225  24.064  11.752  11.736
23241W        W88226  21.623   9.447   3.230
23242W        W88227  38.309  25.249   5.068
23243W        W88228   6.932  15.596   2.489
23244W        W88229   6.698  41.903  13.007
23245W        W88230  21.226  31.370  13.829
23246W        W88231   3.731  11.598  13.964
23247W        W88232  21.293  41.008  10.785
23248W        W88233  12.128  22.183  14.825
23249W        W88234  26.506  24.654   3.778
23250W        W88235  43.948  23.020  14.014
23251W        W88236  29.646  30.550  14.291
23252W        W88237  37.947   6.451   4.975
23253W        W88238   3.832  31.211  11.543
23254W        W88239  25.025  10.097  13.848
23255W        W88240  19.594  24.190   3.650
23256W        W88241  37.657  24.940   2.854
23257W        W88242  33.631  19.259  10.814
23258W        W88243  33.053  42.987   0.016
23259W        W88244  22.625  37.593  14.871
23260W        W88245  40.062  39.971  12.550
23261W        W88246  31.354  39.760  10.931
23262W        W88247   8.965  11.643  14.580
23263W        W88248  22.845  19.688  11.590
23264W        W88249  31.978  11.348   0.856
23265W        W88250  33.026  25.867   3.742
23266W        W88251  39.959  19.035   3.180
23267W        W88252  22.846  16.875   2.231
23268W        W88253   8.121   8.087   0.933
23269W        W88254  37.492  39.006   1.210
23270W        W88255   1.956   4.270   2.801
23271W        W88256  34.377  24.311  11.173
23272W        W88257   6.613  24.266   2.224
23273W        W88258  39.809  32.328  12.007
23274W        W88259  22.784  10.732   0.663
23275W        W88260   2.341  14.106   0.365
23276W        W88261  39.302  36.447  12.573
23277W        W88262  11.212  31.990   4.869
23278W        W88263  22.126  40.046   4.679
23279W        W88264  30.388  15.133  10.425
23280W        W88265   0.208  19.835  12.450
23281W        W88266   0.468   9.685   2.350
23282W        W88267  23.804  37.895   3.817
23283W        W88268  17.305  28.615   1.329
23284W        W88269  11.334  40.885   3.272
23285W        W88270  13.145  28.722   1.197
23286W        W88271   3.799  26.162   3.034
23287W        W88272  38.952  12.982   9.877
23288W        W88273   5.143  27.665   2.383
23289W        W88274  17.242  14.681   2.408
23290W        W88275  22.640  38.864   3.761
23291W        W88276  41.760  27.500   1.386
23292W        W88277  36.532  33.584  11.572
23293W        W88278  37.992  15.849  14.397
23294W        W88279  28.124  42.467   2.009
23295W        W88280  42.038  27.252   2.258
23296W        W88281   5.346  12.101   3.715
23297W        W88282   0.923  41.341  11.846
23298W        W88283  11.768  35.306  13.469
23299W        W88284  44.741  12.496  11.936
23300W        W88285  26.903   8.300  12.565
23301W        W88286  32.755  26.764   1.673
23302W        W88287  12.096  12.806  11.091
23303W        W88288  26.448  33.570  10.961
23304W        W88289  40.807   5.321  12.480
23305W        W88290  37.561  36.368  10.661
23306W        W88291   8.797   8.931   2.461
23307W        W88292  16.822  18.759   0.451
23308W        W88293  13.863   6.715   2.792
23309W        W88294   3.936  37.798  12.000
23310W        W88295  41.610  17.319  14.769
23311W        W88296  38.432  33.457  14.382
23312W        W88297   3.708  43.822  13.501
23313W        W88298  38.375  21.029  11.590
23314W        W88299  28.980   1.732   4.941
23315W        W88300  20.220  34.736  13.432
23316W        W88301  26.004  15.129  13.415
23317W        W88302  43.015  27.219  11.960
23318W        W88303  10.662  44.362  14.491
23319W        W88304  10.694  36.454   4.702
23320W        W88305  30.004  38.921   3.807
23321W        W88306  12.028   6.836   2.356
23322W        W88307   4.154  18.185  10.760
23323W        W88308  34.033  44.760   3.129
23324W        W88309  28.673  20.363   2.693
23325W        W88310  42.938  40.999  12.912
23326W        W88311   7.767  17.280  11.003
23327W        W88312  36.461  32.503  14.293
23328W        W88313  35.894  33.041   3.686
23329W        W88314  34.572   3.213  12.933
23330W        W88315  16.383  16.611   3.202
23331W        W88316   4.932  20.582   3.367
23332W        W88317   2.352  12.163   3.676
23333W        W88318  17.618  37.516  10.432
23334W        W88319   1.180  12.361  11.973
23335W        W88320   8.787   9.428  14.410
23336W        W88321  33.653  37.367   1.219
23337W        W88322  23.705  43.190   3.285
23338W        W88323  37.737  25.661   9.956
23339W        W88324   0.917  43.470   4.641
23340W        W88325  19.722  18.886   0.788
23341W        W88326  24.476  40.948  11.707
23342W        W88327  41.759  30.724   3.154
23343W        W88328   4.213  21.256  11.017
23344W        W88329  31.803  13.161   2.789
23345W        W88330  22.316  30.605  11.509
23346W        W88331  27.605   3.685  14.826
23347W        W88332  37.869  42.467  13.754
23348W        W88333  34.034   4.759  11.429
23349W        W88334   5.011  26.500   2.901
23350W        W88335  18.769  29.982  14.428
23351W        W88336  32.012  13.662   2.759
23352W        W88337  44.438  12.667  10.602
23353W        W88338   8.310  33.301  11.673
23354W        W88339  33.483   8.682  14.738
23355W        W88340  15.791  13.318   3.815
23356W        W88341  36.005  25.238  11.256
23357W        W88342  38.860  21.624   1.690
23358W        W88343   9.712  15.810   0.821
23359W        W88344  29.498   4.494   2.639
23360W        W88345  34.606   6.594   2.595
23361W        W88346  32.300  33.672   2.406
23362W        W88347   6.748  11.324  14.606
23363W        W88348  14.738  26.425   4.085
23364W        W88349  44.770  28.927  13.466
23365W        W88350  24.586   6.947   2.361
23366W        W88351  38.398  24.997  13.602
23367W        W88352  39.361   4.692  14.045
23368W        W88353  33.811   0.711  14.930
23369W        W88354  24.025  18.114   3.254
23370W        W88355  44.841  40.942  13.353
23371W        W88356  39.292  39.086   0.166
23372W        W88357  15.790  13.569  12.104
23373W        W88358   0.317  24.225  10.321
23374W        W88359  40.922   4.380  13.512
23375W        W88360  35.602   4.763  10.901
23376W        W88361  15.963   7.356  11.657
23377W        W88362  12.671   9.682   1.815
23378W        W88363  25.981   1.893   0.410
23379W        W88364   9.666  13.536   0.011
23380W        W88365  38.932   8.267  12.442
23381W        W88366   4.205  17.656   3.688
23382W        W88367  35.829  16.071  12.365
23383W        W88368  37.084  43.074  12.789
23384W        W88369  30.047  14.085  12.878
23385W        W88370  31.721   4.903  11.148
23386W        W88371   5.808   5.832   2.928
23387W        W88372  35.597  39.014   2.066
23388W        W88373  40.731   4.255  10.736
23389W        W88374  10.178  18.466   2.770
23390W        W88375  37.162  13.573   4.476
23391W        W88376   4.887   3.547  10.343
23392W        W88377  44.247  26.933  11.530
23393W        W88378  27.174   6.038   2.663
23394W        W88379   2.258   7.180   4.106
23395W        W88380  40.894  13.766  14.525
23396W        W88381  25.013  43.746  10.286
23397W        W88382  41.248  39.738   2.738
23398W        W88383   0.674  38.139   2.812
23399W        W88384   5.192  15.824   2.769
23400W        W88385   7.027  31.519  14.924
23401W        W88386  32.910   0.341  13.306
23402W        W88387  33.899  17.556   2.558
23403W        W88388  28.676   2.483  14.039
23404W        W88389   1.207  13.831   2.806
23405W        W88390   0.470   5.974   3.314
23406W        W88391  19.276  18.507  12.377
23407W        W88392   3.964  30.050   2.205
23408W        W88393  17.901  34.541   0.980
23409W        W88394  44.932  15.313  13.110
23410W        W88395   6.952  34.543   3.899
23411W        W88396   6.946  36.457   2.179
23412W        W88397  14.940   7.601   2.806
23413W        W88398  36.076  28.653  14.295
23414W        W88399  14.544  44.863   3.110
23415W        W88400  26.524  18.958  14.802
23416W        W88401  20.281  29.497  13.887
23417W        W88402   8.841  18.338  14.295
23418W        W88403   5.330  27.029  10.710
23419W        W88404  31.445  25.499  14.819
23420W        W88405  42.032  32.872   4.585
23421W        W88406   5.987  25.064  11.887
23422W        W88407   3.405  24.569  13.382
23423W        W88408   6.406  19.792  11.453
23424W        W88409  15.412  11.001  13.528
23425W        W88410  22.725  29.188   2.719
23426W        W88411  11.720   3.942  12.420
23427W        W88412  30.768   3.236  13.640
23428W        W88413  10.925  36.441  13.394
23429W        W88414  29.026  19.456  13.499
23430W        W88415   5.844  40.973  14.068
23431W        W88416  27.517   2.260   0.929
23432W        W88417  43.248   5.941   3.576
23433W        W88418  15.544  17.152   2.452
23434W        W88419   7.723  14.076  12.248
23435W        W88420  30.347  22.528   4.126
23436W        W88421   6.484  32.844  13.044
23437W        W88422   0.916   3.936  12.529
23438W        W88423  26.720   5.904   0.007
23439W        W88424   5.684  27.603  10.884
23440W        W88425  22.763   0.529   4.148
23441W        W88426  26.595  42.204   2.327
23442W        W88427  21.556  35.373  11.838
23443W        W88428  39.893  40.329  12.210
23444W        W88429  22.674  34.059   1.499
23445W        W88430  24.019  29.693   4.572
23446W        W88431   3.992   5.878  13.919
23447W        W88432   3.463  26.723  11.547
23448W        W88433  37.619  11.822  12.961
23449W        W88434   3.819   0.578   0.222
23450W        W88435   0.818  21.153  12.539
23451W        W88436  42.467  15.650   4.602
23452W        W88437  11.731  38.021   0.116
23453W        W88438  11.273   5.322   0.041
23454W        W88439  12.313  28.051  11.579
23455W        W88440  17.913  16.063  12.959
23456W        W88441  31.732   6.771   1.148
23457W        W88442  33.923  20.034   3.801
23458W        W88443  35.417  16.106  13.740
23459W        W88444  16.184  19.877   1.510
23460W        W88445  30.059   3.025   0.844
23461W        W88446  19.975  27.860  11.261
23462W        W88447  17.909  38.678   3.189
23463W        W88448  14.770   4.390  14.813
23464W        W88449   9.804  17.670  13.396
23465W        W88450   5.416  17.321  12.897
23466W        W88451  31.104  14.029  14.803
23467W        W88452  23.885   8.141  13.972
23468W        W88453  22.581  18.312   3.291
23469W        W88454   0.920  11.711  10.522
23470W        W88455  27.771   3.927   1.593
23471W        W88456  24.140   6.684   2.802
23472W        W88457  39.018  24.419   3.855
23473W        W88458   3.676  15.198   4.509
23474W        W88459  30.083  42.567   4.913
23475W        W88460   0.875  31.088  14.789
23476W        W88461   8.277  26.668  11.849
23477W        W88462  21.143  14.513   0.830
23478W        W88463   0.627  31.478  10.921
23479W        W88464  42.394  30.123  12.899
23480W        W88465  38.423  16.128  14.491
23481W        W88466  37.371  33.044   1.841
23482W        W88467  36.349   3.689   1.243
23483W        W88468  15.121  41.264   3.444
23484W        W88469   9.135  14.577   0.838
23485W        W88470  34.927  34.485   0.270
23486W        W88471   0.013   3.136  13.783
23487W        W88472   8.700  44.891   1.749
23488W        W88473   6.440   7.879  14.734
23489W        W88474  35.565  28.240   1.125
23490W        W88475   5.823  35.058  10.561
23491W        W88476  38.354  11.128  10.446
23492W        W88477  17.601   8.924   4.318
23493W        W88478  28.641  22.331  13.412
23494W        W88479  20.773  10.299  13.768
23495W        W88480  26.719  32.507   3.620
23496W        W88481  12.203   3.842   3.966
23497W        W88482  10.414   8.347  12.143
23498W        W88483  27.726  16.058  11.104
23499W        W88484  41.917  17.068   4.118
23500W        W88485  30.337  22.516  12.875
23501W        W88486  25.466   6.523  13.722
23502W        W88487   4.428  14.361   1.263
23503W        W88488   0.530  10.645  11.113
23504W        W88489  21.026  41.580   0.696
23505W        W88490   2.176  29.196  11.226
23506W        W88491  27.589  41.590  11.125
23507W        W88492  29.024  16.322  13.351
23508W        W88493  33.146  10.083   2.422
23509W        W88494  29.977   5.283   1.301
23510W        W88495  35.020   5.289   2.384
23511W        W88496   6.659  38.031  11.584
23512W        W88497  23.684  18.103   4.737
23513W        W88498   4.251   6.410  14.351
23514W        W88499  26.185  28.473   1.954
23515W        W88500  19.073   5.667  13.997
23516W        W88501  22.860  30.044   1.389
23517W        W88502   6.889   9.159   1.934
23518W        W88503   2.861  10.157   2.275
23519W        W88504   0.908  35.635  14.988
23520W        W88505  44.675   7.382   4.642
23521W        W88506  43.933  23.280   3.193
23522W        W88507  38.621  34.410   1.048
23523W        W88508  34.915  37.387   2.162
23524W        W88509  22.208  12.490  14.795
23525W        W88510  32.521   5.434   2.603
23526W        W88511  16.318  12.130   3.614
23527W        W88512   5.196  20.702   1.704
23528W        W88513  12.077  26.585  13.758
23529W        W88514  11.172  12.281   0.018
23530W        W88515  44.429  11.750   3.124
23531W        W88516  43.730  10.652   3.262
23532W        W88517  10.790  21.660  10.629
23533W        W88518  30.209  32.880   1.835
23534W        W88519  20.010  41.009  11.246
23535W        W88520  16.096  23.480   1.473
23536W        W88521  41.623  17.808  12.032
23537W        W88522  22.991  44.283  11.516
23538W        W88523  28.943  27.415   0.952
23539W        W88524  10.783  14.740   2.165
23540W        W88525  11.732  10.586   0.929
23541W        W88526   6.930  21.135  14.739
23542W        W88527   6.228   5.810  12.115
23543W        W88528  24.532  39.146   4.657
23544W        W88529  19.680   1.972  13.342
23545W        W88530  15.206  10.817  13.052
23546W        W88531  39.889  40.773  11.673
23547W        W88532  27.544  39.987   2.323
23548W        W88533  18.016  25.437  13.424
23549W        W88534  43.410  28.104  14.248
23550W        W88535  18.506   6.255   0.722
23551W        W88536  34.370  20.628  14.901
23552W        W88537  40.839   4.916   3.863
23553W        W88538  21.726  18.003  12.865
23554W        W88539  29.082   7.834   0.554
23555W        W88540  15.117   0.888   0.381
23556W        W88541   9.701  24.347   4.672
23557W        W88542  27.590  27.962   0.179
23558W        W88543  30.227  18.973   1.346
23559W        W88544  15.644  17.862   4.098
23560W        W88545  23.912   3.292  11.605
23561W        W88546   1.548  29.721   4.123
23562W        W88547  39.989  27.042  12.000
23563W        W88548  12.129  13.773  10.700
23564W        W88549   3.771  42.958   2.884
23565W        W88550  11.374  42.296  14.818
23566W        W88551  40.031  41.424   2.764
23567W        W88552  43.565  20.634  12.197
23568W        W88553  13.315   6.003   3.296
23569W        W88554  33.242  14.130   3.099
23570W        W88555  24.652  10.780   4.803
23571W        W88556  19.659  17.312   4.476
23572W        W88557  24.004  29.433   1.602
23573W        W88558  32.084   3.125   4.765
23574W        W88559  41.438  28.433   5.186
23575W        W88560   9.787  39.241  13.972
23576W        W88561   7.702  24.580   0.211
23577W        W88562  16.212  25.206   3.180
23578W        W88563  17.667  31.659  11.235
23579W        W88564   6.148  41.154  14.773
23580W        W88565  29.000  16.576  13.889
23581W        W88566  23.783  11.502   1.369
23582W        W88567  28.445  35.575   4.601
23583W        W88568   6.351  36.316  12.558
23584W        W88569   0.029  26.605  10.667
23585W        W88570   8.679  28.193  11.174
23586W        W88571  10.064  21.658  12.053
23587W        W88572  29.525  13.302   2.763
23588W        W88573  32.017  36.777   2.774
23589W        W88574  16.355  26.528   0.804
23590W        W88575  10.068  36.379  12.558
23591W        W88576   1.775  12.270   2.301
23592W        W88577  40.747  43.266   2.367
23593W        W88578  17.186  20.797   3.283
23594W        W88579  22.770   0.978  11.638
23595W        W88580   1.337  25.002  11.588
23596W        W88581  11.240  28.075  10.561
23597W        W88582  20.991   8.607   0.389
23598W        W88583  13.328  12.013   1.708
23599W        W88584  29.414  18.681   0.010
23600W        W88585  35.563  33.858   3.936
23601W        W88586  42.908  11.454   1.043
23602W        W88587  21.103  31.161   2.215
23603W        W88588   7.014  13.765  14.920
23604W        W88589  42.181  33.422   3.724
23605W        W88590  25.210   9.097   4.231
23606W        W88591  19.399  10.668  11.622
23607W        W88592  27.994   2.424   0.795
23608W        W88593  39.063  28.453   2.563
23609W        W88594  10.836  17.639  14.945
23610W        W88595  36.076  13.094  11.665
23611W        W88596  29.087  20.785  14.440
23612W        W88597   4.537  19.303  13.976
23613W        W88598  44.468  23.529   1.408
23614W        W88599   1.391  21.522  14.444
23615W        W88600   9.057  22.790  13.395
23616W        W88601   7.168   9.288  11.064
23617W        W88602   6.820  26.102   1.339
23618W        W88603   5.623  16.508  11.295
23619W        W88604  18.046  40.879  14.434
23620W        W88605  26.495   3.974   1.265
23621W        W88606  17.258  28.320  11.665
23622W        W88607  27.166  22.720  11.115
23623W        W88608  42.525   2.504   3.177
23624W        W88609  44.709  36.259   9.794
23625W        W88610  29.373   1.962   2.432
23626W        W88611  34.449  35.937   4.583
23627W        W88612  14.504   4.518  13.395
23628W        W88613  13.708  32.861  10.608
23629W        W88614   1.411  21.250  14.897
23630W        W88615   6.232  11.105   4.152
23631W        W88616  12.396  13.608  14.013
23632W        W88617  43.879  14.525  12.443
23633W        W88618  36.939  31.964  11.006
23634W        W88619   4.019   5.372   0.204
23635W        W88620   0.858  32.558  14.363
23636W        W88621   2.422  28.916   2.499
23637W        W88622  16.219  12.820   4.404
23638W        W88623   4.301   5.216   4.127
23639W        W88624  20.551  43.240  12.937
23640W        W88625  28.117  19.725   1.386
23641W        W88626  44.626   6.297  10.388
23642W        W88627  27.996  11.769  12.159
23643W        W88628  29.071  15.396  14.672
23644W        W88629  13.517  44.169   2.765
23645W        W88630  32.086  15.578  13.999
23646W        W88631   0.432  18.503  14.987
23647W        W88632  15.197  31.163  11.932
23648W        W88633  19.486  16.694   3.607
23649W        W88634  37.322  43.946  10.384
23650W        W88635   8.328  16.063  13.813
23651W        W88636   4.310  26.164   3.867
23652W        W88637  17.309  20.780  13.533
23653W        W88638  38.589  23.712   3.675
23654W        W88639  29.201   6.144   4.408
23655W        W88640  34.728  35.882  13.067
23656W        W88641  32.829  30.090   0.753
23657W        W88642  43.281  12.382  14.453
23658W        W88643  41.843   2.205  11.150
23659W        W88644   0.433  14.254  10.994
23660W        W88645  16.124  26.433   4.506
23661W        W88646  22.490   0.759   4.681
23662W        W88647  23.707   4.397   0.795
23663W        W88648   7.434  34.422  11.621
23664W        W88649   8.923  40.308  12.514
23665W        W88650  39.739  10.840  14.039
23666W        W88651  41.516  13.635   3.331
23667W        W88652  10.188  34.820  10.803
23668W        W88653  34.023  23.100  13.359
23669W        W88654  27.633  40.505  12.031
23670W        W88655  25.795  10.160   5.093
23671W        W88656  21.230  12.270  13.680
23672W        W88657  43.522  11.900  12.492
23673W        W88658  17.645  36.577   0.707
23674W        W88659   8.453   3.848  12.427
23675W        W88660  22.028  32.139   0.267
23676W        W88661  44.076   3.574   1.873
23677W        W88662  44.995   5.291  14.748
23678W        W88663  31.488  14.487   4.328
23679W        W88664  26.110  32.773  11.273
23680W        W88665  37.012  32.382  14.462
23681W        W88666   4.955  24.515  13.536
23682W        W88667  37.831  30.711   1.769
23683W        W88668   8.342  23.540   3.626
23684W        W88669   7.870   8.428  12.427
23685W        W88670  35.009   3.907  13.147
23686W        W88671  27.466  36.907  13.375
23687W        W88672  35.973  44.879   4.468
23688W        W88673  32.072  44.822   2.223
23689W        W88674  29.938   9.711   1.880
23690W        W88675  25.494  13.327  11.816
23691W        W88676  16.512   6.453   2.184
23692W        W88677  23.456  28.436  11.523
23693W        W88678  29.502  16.150  14.583
23694W        W88679  10.962  32.511  14.530
23695W        W88680  42.806  39.973   4.965
23696W        W88681  44.327  29.977  14.306
23697W        W88682  17.026  20.178   0.839
23698W        W88683  21.365  36.763   3.371
23699W        W88684  36.865  25.571   3.811
23700W        W88685   6.450   2.542  14.485
23701W        W88686  21.245   3.301   1.535
23702W        W88687  16.886  38.853   3.271
23703W        W88688  44.271   8.845  13.486
23704W        W88689  36.493   9.863   1.718
23705W        W88690  31.843  15.126   4.077
23706W        W88691   4.499  33.384   4.479
23707W        W88692  27.725  29.335   0.822
23708W        W88693  19.469   9.289  14.840
23709W        W88694  37.586  17.760   0.456
23710W        W88695  28.138  34.949  11.136
23711W        W88696  22.576  21.880  13.923
23712W        W88697  27.170  37.792  13.894
23713W        W88698   2.437  10.138   5.016
23714W        W88699  30.938   7.411  12.649
23715W        W88700  30.192   8.713   1.254
23716W        W88701  30.859  40.228  11.474
23717W        W88702  17.754  10.820  12.542
23718W        W88703  15.346  25.934   0.279
23719W        W88704  12.964  14.070  11.426
23720W        W88705  31.063  36.428  14.027
23721W        W88706  38.047  10.718   4.461
23722W        W88707  37.304   2.390  14.052
23723W        W88708  15.722  36.906   0.979
23724W        W88709  21.266   3.908   1.762
23725W        W88710  30.675  33.537   1.508
23726W        W88711  29.429  11.181  10.671
23727W        W88712  23.477  27.895  12.785
23728W        W88713  11.486  15.800   4.525
23729W        W88714  36.552  16.326   3.051
23730W        W88715  17.213  42.441   0.827
23731W        W88716   0.681  29.079  14.355
23732W        W88717  30.553   0.960  13.405
23733W        W88718   3.027  32.847  10.733
23734W        W88719  12.965  15.574   4.979
23735W        W88720   8.620   5.329  14.886
23736W        W88721   9.699  31.074   1.814
23737W        W88722   3.027  27.390   4.548
23738W        W88723  41.532  34.938   2.831
23739W        W88724  38.977  23.232  13.085
23740W        W88725  15.304  38.885   0.811
23741W        W88726  37.893  41.628  14.424
23742W        W88727  42.164  14.170  11.118
23743W        W88728  33.470   7.973  13.865
23744W        W88729   3.438  20.054  13.511
23745W        W88730  20.985   0.233  12.681
23746W        W88731   0.635  34.066  13.599
23747W        W88732   7.902  40.595  12.523
23748W        W88733  40.321  10.322   4.604
23749W        W88734  26.739  14.089   3.419
23750W        W88735  18.307  24.004   1.767
23751W        W88736  32.896   8.409  13.891
23752W        W88737   5.214  39.060   2.701
23753W        W88738  16.674  37.832   3.107
23754W        W88739  20.006  39.874   1.579
23755W        W88740  23.010  14.379  11.568
23756W        W88741  20.421  38.450   1.630
23757W        W88742  23.415   1.388   4.054
23758W        W88743  10.723  32.536  13.885
23759W        W88744  22.196  14.534  13.232
23760W        W88745  11.170   3.501   3.755
23761W        W88746  20.060   0.307  12.894
23762W        W88747   8.812  29.509  11.528
23763W        W88748  20.326   0.249   2.224
23764W        W88749  16.445  11.022   1.361
23765W        W88750  24.960   0.452   2.186
23766W        W88751   2.257  20.255  12.611
23767W        W88752  12.547   2.303  10.657
23768W        W88753  32.894  42.575   0.294
23769W        W88754   8.649   4.687   5.521
23770W        W88755   2.199  42.174  12.103
23771W        W88756  39.833   1.900  11.332
23772W        W88757  22.284  14.114   1.764
23773W        W88758  22.772  42.037   2.366
23774W        W88759  13.086   2.898   3.660
23775W        W88760   9.691  42.413   1.464
23776W        W88761  24.010   0.901   3.636
23777W        W88762  36.964   7.492  14.282
23778W        W88763  37.629  31.426  12.475
23779W        W88764  25.223  17.003   3.904
23780W        W88765  35.981   5.330   4.523
23781W        W88766   5.920  26.454   1.763
23782W        W88767  13.387  37.754   0.898
23783W        W88768  20.687  24.789  11.535
23784W        W88769  16.582   3.597   3.663
23785W        W88770   5.718  23.778   3.364
23786W        W88771   9.827  16.204   0.461
23787W        W88772  31.880  17.534  13.013
23788W        W88773  24.188  42.556   4.396
23789W        W88774  33.946   2.883   1.933
23790W        W88775  44.916  26.139   2.737
23791W        W88776   4.667  31.463   4.950
23792W        W88777  14.766   0.978  12.890
23793W        W88778  13.871  36.443  12.954
23794W        W88779  18.845  24.561  13.072
23795W        W88780  20.758  32.114   3.803
23796W        W88781  24.034   0.181  14.831
23797W        W88782  24.575  25.488  14.900
23798W        W88783  30.072   4.910   3.762
23799W        W88784   8.131  38.586  12.624
23800W        W88785   8.909   6.651  14.633
23801W        W88786   0.693  42.019   3.214
23802W        W88787  44.391  21.255   0.804
23803W        W88788  37.529  15.075   1.296
23804W        W88789  11.546  10.349   1.795
23805W        W88790  34.108   5.836   4.183
23806W        W88791   9.867  29.579   3.476
23807W        W88792  13.739  13.895   0.952
23808W        W88793  12.810  25.143  11.636
23809W        W88794  34.373  26.193  13.404
23810W        W88795  26.406  21.554   3.114
23811W        W88796  42.370  12.019  12.920
23812W        W88797  31.712   5.682   0.768
23813W        W88798  13.532  16.749   4.648
23814W        W88799  40.600  13.446   4.281
23815W        W88800  24.912   2.823   3.633
23816W        W88801  26.719  40.955  13.160
23817W        W88802  12.092   6.236   1.844
23818W        W88803  35.451   7.159   0.535
23819W        W88804   2.023  42.984  11.529
23820W        W88805   2.256  16.280  13.312
23821W        W88806   9.967  30.440  11.409
23822W        W88807  41.554  30.323   0.893
23823W        W88808  21.996  23.553  14.981
23824W        W88809  11.107  34.110   4.568
23825W        W88810  12.803  11.280  10.756
23826W        W88811  20.035  28.330   2.296
23827W        W88812  28.507   5.962  13.096
23828W        W88813  18.210  37.919  12.921
23829W        W88814  23.628  20.623   3.269
23830W        W88815  37.128   5.274   4.804
23831W        W88816  27.457  36.398  13.561
23832W        W88817  31.225  31.118  14.806
23833W        W88818  39.067  12.165   1.985
23834W        W88819  15.094  29.260  11.033
23835W        W88820  17.510  32.291   1.964
23836W        W88821  11.139  34.041  13.022
23837W        W88822  12.877   5.352  13.870
23838W        W88823  29.228  12.780   4.556
23839W        W88824  33.188   9.679   1.046
23840W        W88825  10.359  29.156  14.081
23841W        W88826  43.127   1.785   3.513
23842W        W88827  36.081  33.194   9.977
23843W        W88828  41.760  11.054   1.026
23844W        W88829  13.325  26.064   2.391
23845W        W88830  36.589  23.022  13.400
23846W        W88831  41.932  15.478  12.092
23847W        W88832  25.288  32.607   2.222
23848W        W88833  27.037   6.173  12.710
23849W        W88834   9.406  23.107  14.233
23850W        W88835  33.191  24.640  14.424
23851W        W88836  42.138  34.064  11.645
23852W        W88837  34.134   0.296  11.087
23853W        W88838  20.657  29.965  11.119
23854W        W88839  18.930  41.707   2.140
23855W        W88840  34.537  26.607  13.095
23856W        W88841  19.320   6.446  13.575
23857W        W88842  20.310  27.001   1.270
23858W        W88843  20.439   7.932  11.570
23859W        W88844  39.579  39.318  13.000
23860W        W88845  24.704  14.341  12.142
23861W        W88846   5.304  44.792   2.225
23862W        W88847   1.723  18.669  12.131
23863W        W88848  15.529  18.147   1.726
23864W        W88849  16.534  35.620   2.103
23865W        W88850  10.728  32.320  12.894
23866W        W88851  33.069  30.901  14.513
23867W        W88852   9.940   4.853  10.619
23868W        W88853  20.286  14.139  12.595
23869W        W88854   4.818  10.813   0.461
23870W        W88855  36.051  18.702   2.097
23871W        W88856  19.937  13.066   5.348
23872W        W88857   1.790  38.532   4.205
23873W        W88858  21.317  19.769   2.101
23874W        W88859  22.780  35.908  11.735
23875W        W88860  26.485  44.568  11.279
23876W        W88861  42.038  18.044  12.484
23877W        W88862   5.079   7.901  12.002
23878W        W88863  18.591  36.204  14.802
23879W        W88864  24.484  36.021   0.558
23880W        W88865  20.650  14.813  14.284
23881W        W88866  29.214  38.432  13.448
23882W        W88867   3.839  15.539   3.223
23883W        W88868  38.428  25.873   0.386
23884W        W88869   8.707  25.421   0.401
23885W        W88870  14.095  17.299  12.063
23886W        W88871  11.444   5.897  11.499
23887W        W88872  13.287   0.765  12.087
23888W        W88873  34.526  23.585   0.954
23889W        W88874  43.303  32.454   2.653
23890W        W88875  23.784  22.329  13.591
23891W        W88876   8.098  16.689  11.567
23892W        W88877  36.059   2.228  12.007
23893W        W88878  34.468  18.189   0.214
23894W        W88879   6.402  44.997   0.423
23895W        W88880  38.593   7.707  14.981
23896W        W88881   7.841   6.138   3.083
23897W        W88882  23.035   3.713  10.190
23898W        W88883  33.915  21.468   4.679
23899W        W88884  18.697  29.699   1.232
23900W        W88885  24.708  33.125  13.931
23901W        W88886  30.643  44.779  11.957
23902W        W88887  33.841  24.940   4.563
23903W        W88888  19.666  11.672  11.632
23904W        W88889  18.548  12.311   0.822
23905W        W88890  37.260  35.094   2.224
23906W        W88891  10.012  36.150   3.962
23907W        W88892  29.410  44.930  13.635
23908W        W88893  13.235  31.545  10.838
23909W        W88894  14.710  35.025   0.173
23910W        W88895   2.682  11.211  12.012
23911W        W88896  10.116  23.092   0.005
23912W        W88897  19.226   1.998  10.826
23913W        W88898   1.383  18.565  13.373
23914W        W88899  31.326   1.062  14.434
23915W        W88900  19.552  32.956  11.152
23916W        W88901   8.652  34.032   1.986
23917W        W88902  30.480  10.931  10.664
23918W        W88903  26.599   0.489  13.080
23919W        W88904  17.379  33.934  14.082
23920W        W88905   6.368   0.683  14.771
23921W        W88906  21.302  11.161   2.387
23922W        W88907  37.244  12.650  12.443
23923W        W88908   4.225  22.474   4.631
23924W        W88909  10.797  13.866  14.493
23925W        W88910  25.268  39.017  10.587
23926W        W88911  16.106  34.616   1.884
23927W        W88912  38.976  17.616   3.850
23928W        W88913  20.076  21.293  11.056
23929W        W88914  28.973  25.236   4.584
23930W        W88915  21.563  18.089  14.342
23931W        W88916  39.025  13.181   4.637
23932W        W88917  20.570  30.882   0.250
23933W        W88918  18.077  19.264  13.051
23934W        W88919  42.980  15.669   4.643
23935W        W88920  31.487   4.320  13.249
23936W        W88921  34.045  36.858  13.489
23937W        W88922  15.585  28.336   2.544
23938W        W88923  30.867  23.458  11.707
23939W        W88924   5.434   7.524   2.792
23940W        W88925  29.104   0.501   2.432
23941W        W88926   4.639   7.845   2.925
23942W        W88927  28.441   7.201   1.421
23943W        W88928  15.777  29.965  14.109
23944W        W88929   5.262  10.262  14.530
23945W        W88930  11.710  11.302   2.455
23946W        W88931  18.200  33.479   2.989
23947W        W88932   8.745  43.014  13.152
23948W        W88933  34.153  19.574   0.780
23949W        W88934   0.283  23.736   4.899
23950W        W88935  40.393  41.846  12.144
23951W        W88936  19.292   4.674   2.411
23952W        W88937  24.593  17.157   2.782
23953W        W88938  16.254  21.741   1.967
23954W        W88939  36.433   8.604   0.409
23955W        W88940  15.218   7.643   0.572
23956W        W88941  41.836  27.058  13.774
23957W        W88942  37.987  37.431   0.313
23958W        W88943  11.971  21.567   1.024
23959W        W88944   5.942  38.089  12.877
23960W        W88945  17.959  19.716  12.809
23961W        W88946  26.435  10.899  13.605
23962W        W88947   5.757  16.778   1.857
23963W        W88948  18.971   4.286  14.351
23964W        W88949  40.974  12.477   4.749
23965W        W88950  33.048  29.145   0.797
23966W        W88951  42.535  28.017   3.875
23967W        W88952  36.545  13.607  13.011
23968W        W88953   6.943  30.630   1.362
23969W        W88954   4.968  38.946  10.620
23970W        W88955  35.005  27.470   3.261
23971W        W88956  24.090  30.233   1.070
23972W        W88957  23.166  12.294   0.571
23973W        W88958   5.676  40.791   1.917
23974W        W88959  21.064  40.971  13.417
23975W        W88960  26.003  43.810   2.593
23976W        W88961  27.149  12.263   2.204
23977W        W88962  38.375  31.544   1.425
23978W        W88963  31.055  10.883  13.144
23979W        W88964  22.145   4.958   2.906
23980W        W88965  19.948  22.003  14.900
23981W        W88966  28.392   5.458   0.357
23982W        W88967  16.426   6.675   4.458
23983W        W88968  39.468   8.028   2.778
23984W        W88969  25.614   3.865   3.101
23985W        W88970  32.379  35.556   3.575
23986W        W88971  13.597  17.888   0.346
23987W        W88972  11.158   3.798  12.932
23988W        W88973   9.797  16.382  12.907
23989W        W88974  23.536  19.280   2.897
23990W        W88975   1.517  38.290  11.116
23991W        W88976   2.306  44.174   0.852
23992W        W88977  20.160  34.211  13.264
23993W        W88978  26.618  13.176   2.807
23994W        W88979  27.231  12.811   0.916
23995W        W88980  36.906  15.024   4.516
23996W        W88981   4.495  43.880   3.971
23997W        W88982  25.639  10.332  14.431
23998W        W88983  34.582  44.958  11.160
23999W        W88984  18.940  18.158  12.553
24000W        W88985  36.200   9.127   5.060
24001W        W88986  26.221  36.843   1.675
24002W        W88987  17.283  21.180  11.050
24003W        W88988  29.954   7.105   1.771
24004W        W88989  36.011  32.678  14.774
24005W        W88990  30.044  28.036   0.086
24006W        W88991  12.316   5.671  13.089
24007W        W88992   7.882  28.561  13.907
24008W        W88993  19.154   6.054   0.470
24009W        W88994  23.591  39.767  12.592
24010W        W88995  35.343   3.667  14.521
24011W        W88996  17.739  29.100   4.927
24012W        W88997  11.451  20.843   0.784
24013W        W88998  36.875   3.710   1.430
24014W        W88999  39.544   8.667  11.152
24015W        W89000  21.092  27.622   0.784
24016W        W89001  40.343  28.933  13.024
24017W        W89002  29.610  22.211   1.459
24018W        W89003  43.220  13.305  11.168
24019W        W89004  12.252  32.417   2.357
24020W        W89005   4.385  33.951  12.071
24021W        W89006  16.611  31.072   4.042
24022W        W89007  14.701  16.795   3.709
24023W        W89008  15.941  11.649  11.773
24024W        W89009  37.314  43.503   0.630
24025W        W89010  13.397  13.921   4.687
24026W        W89011  15.254   2.840   0.682
24027W        W89012  26.478  21.044   2.947
24028W        W89013  15.283  34.304   4.949
24029W        W89014  14.200  19.745  12.030
24030W        W89015  36.849  11.065  12.152
24031W        W89016  29.350  36.313  14.938
24032W        W89017  20.485  14.430  10.790
24033W        W89018  20.797  43.568   2.121
24034W        W89019  29.482  15.175  11.685
24035W        W89020  28.943  30.214  11.658
24036W        W89021  44.499   0.175  11.732
24037W        W89022  12.351  11.658   0.814
24038W        W89023  16.724   2.797   4.633
24039W        W89024  43.288   8.282  14.868
24040W        W89025   8.322  34.178   0.295
24041W        W89026   2.367  24.220  12.991
24042W        W89027  41.999  32.146  10.282
24043W        W89028  14.644  35.699  12.032
24044W        W89029  41.418   4.798   0.540
24045W        W89030  29.037  34.454  12.819
24046W        W89031   1.183  24.582   3.759
24047W        W89032  28.212  39.328   4.273
24048W        W89033  20.180  29.815  10.899
24049W        W89034  24.958   1.114  11.230
24050W        W89035  36.041  37.088   1.470
24051W        W89036   3.147   8.263   2.237
24052W        W89037  36.191  21.988  11.039
24053W        W89038  15.605  38.144   4.172
24054W        W89039  28.198  37.959  13.866
24055W        W89040   8.777   8.669   0.883
24056W        W89041  44.804  35.931   0.731
24057W        W89042  31.414  21.638   0.032
24058W        W89043  28.636   8.239   3.155
24059W        W89044  13.799   4.490   0.597
24060W        W89045  10.454  37.553   0.457
24061W        W89046  33.535  33.123  10.986
24062W        W89047  29.887  13.604  12.824
24063W        W89048  12.614  22.654  13.049
24064W        W89049  29.786  37.050   2.320
24065W        W89050  20.638  30.962  14.721
24066W        W89051  12.369  42.319  13.377
24067W        W89052  20.144  25.309   3.542
24068W        W89053   0.051   4.779  10.347
24069W        W89054  39.474  43.182   2.738
24070W        W89055  10.021  34.086  14.388
24071W        W89056  31.082  38.312   4.240
24072W        W89057  25.233  32.642  13.935
24073W        W89058  12.280   4.086  11.731
24074W        W89059   4.622  28.175   4.616
24075W        W89060  36.579  42.850   0.408
24076W        W89061   7.261  13.832  13.618
24077W        W89062  20.114  11.633   2.865
24078W        W89063  23.993  42.101   0.415
24079W        W89064  23.560   4.871   1.846
24080W        W89065  41.850  11.636   2.247
24081W        W89066  13.605  16.002  14.333
24082W        W89067  44.549  20.700   0.037
24083W        W89068   8.822  42.118   2.652
24084W        W89069   5.445  19.101   0.938
24085W        W89070  38.120   9.148   0.860
24086W        W89071  35.722  14.637   4.009
24087W        W89072   6.162  18.138  10.711
24088W        W89073  43.045  31.400   3.255
24089W        W89074   0.774  19.301  13.507
24090W        W89075   9.404  23.114  12.929
24091W        W89076  18.788  26.437   1.455
24092W        W89077  31.575  36.449  12.611
24093W        W89078  14.814  20.454   4.719
24094W        W89079   6.679  41.101  11.105
24095W        W89080  31.155  13.238  13.632
24096W        W89081  29.706  26.790   5.075
24097W        W89082  27.504   3.565   4.589
24098W        W89083  10.879  43.258  12.560
24099W        W89084  35.607  21.217   0.242
24100W        W89085  42.476   0.017  12.635
24101W        W89086  24.655  17.660   2.088
24102W        W89087  25.681   8.883   4.131
24103W        W89088  22.564  12.835   1.717
24104W        W89089  30.051  20.731   1.845
24105W        W89090  10.792  24.616  11.098
24106W        W89091  44.077  34.027  14.786
24107W        W89092  33.089  32.238  14.901
24108W        W89093  31.049   3.817  10.486
24109W        W89094   9.965  36.052   1.269
24110W        W89095   8.737  10.122   3.153
24111W        W89096   0.934  12.704   5.126
24112W        W89097  42.535  43.933   0.716
24113W        W89098  20.225  33.135  11.012
24114W        W89099  43.054  40.814   0.333
24115W        W89100  43.755   0.390  14.868
24116W        W89101  19.131   4.204   4.201
24117W        W89102  41.503  16.281  11.179
24118W        W89103  26.081  30.352   0.127
24119W        W89104  40.097  11.809  14.680
24120W        W89105  35.446  25.200   3.602
24121W        W89106   6.170  23.897  14.468
24122W        W89107   5.271  35.752   1.591
24123W        W89108  15.750  30.009  10.739
24124W        W89109  12.944  15.157  11.886
24125W        W89110  32.654   3.436   2.634
24126W        W89111  21.843  43.764   2.875
24127W        W89112  39.472  11.187  11.979
24128W        W89113  10.305  41.452  13.755
24129W        W89114  28.772   6.152   2.197
24130W        W89115  40.031  19.679  13.645
24131W        W89116  44.547  18.262  10.250
24132W        W89117   3.728  39.263   0.250
24133W        W89118   7.710  13.291   2.797
24134W        W89119   6.504   8.576   1.250
24135W        W89120  15.198  13.803  13.980
24136W        W89121  35.888   6.439  12.609
24137W        W89122  39.107  41.308   1.184
24138W        W89123  15.200  24.580   1.357
24139W        W89124   8.223  19.549  12.545
24140W        W89125   9.414  27.508  14.765
24141W        W89126  22.912  11.362  14.867
24142W        W89127  36.347  35.572  14.962
24143W        W89128   7.912  40.837   3.298
24144W        W89129   4.733  32.490   2.032
24145W        W89130  38.109  43.900  11.443
24146W        W89131  30.404  34.252  11.891
24147W        W89132  36.625   1.422  13.313
24148W        W89133  26.582  21.014   4.065
24149W        W89134  36.032  39.218   4.643
24150W        W89135   7.438  31.099   3.912
24151W        W89136  29.457  14.959  12.166
24152W        W89137  42.266  27.108   4.291
24153W        W89138  21.264  17.682   2.449
24154W        W89139  30.437  14.240  12.564
24155W        W89140  11.623  11.429   2.936
24156W        W89141  35.484  36.253   0.794
24157W        W89142  33.833  42.791  10.982
24158W        W89143  40.558  24.018  10.286
24159W        W89144  11.098  23.518   3.602
24160W        W89145  32.872  40.495  14.730
24161W        W89146  22.060  27.166   3.723
24162W        W89147  17.490  14.255   3.298
24163W        W89148  22.433  14.191  14.942
24164W        W89149  10.399  28.142  12.040
24165W        W89150  12.619  43.335   1.783
24166W        W89151   6.003  44.718   4.425
24167W        W89152  28.150   4.296   2.105
24168W        W89153  26.560  39.029   4.552
24169W        W89154  21.109  44.403  12.848
24170W        W89155  34.744  15.256  12.587
24171W        W89156  17.646  37.803   4.234
24172W        W89157   5.928   2.117   1.200
24173W        W89158  15.112  28.439   2.715
24174W        W89159  43.375  44.185  11.433
24175W        W89160  18.746  24.984   4.511
24176W        W89161  40.916   5.654  10.579
24177W        W89162  20.931   6.741  14.422
24178W        W89163  39.913  14.041   4.186
24179W        W89164   9.051  27.075   1.990
24180W        W89165  41.811  42.048  14.987
24181W        W89166  17.314  16.669  10.605
24182W        W89167  36.196   1.173  12.122
24183W        W89168   3.811  18.972   4.390
24184W        W89169  33.597  23.970   0.897
24185W        W89170  39.001  39.533   4.482
24186W        W89171  36.135   6.668  14.908
24187W        W89172  37.224   0.290  10.712
24188W        W89173  41.133  42.890  14.007
24189W        W89174  36.372  44.078  11.115
24190W        W89175  17.221   7.625   1.766
24191W        W89176   9.696  34.108  11.736
24192W        W89177  20.197  17.755   3.966
24193W        W89178   1.199   3.403   0.353
24194W        W89179  33.496   0.374   4.110
24195W        W89180   1.988  13.070   4.489
24196W        W89181  32.122  35.165  14.706
24197W        W89182  16.283  38.025  12.909
24198W        W89183  35.630  21.540  14.395
24199W        W89184  30.051  31.667   1.299
24200W        W89185  40.818  29.338   1.670
24201W        W89186  19.306  20.738   4.599
24202W        W89187  20.121   8.330  11.672
24203W        W89188  36.475  30.644   2.453
24204W        W89189   0.304  33.095   0.941
24205W        W89190  41.564  27.198   5.411
24206W        W89191   5.701  36.982   0.289
24207W        W89192  25.206  14.090  14.352
24208W        W89193  35.627   6.292   2.483
24209W        W89194   7.361  10.190   4.598
24210W        W89195   1.932  21.569   4.840
24211W        W89196  36.583  34.529  11.179
24212W        W89197  20.571  43.819   1.091
24213W        W89198  25.070   8.719   1.208
24214W        W89199  29.418  24.074  11.667
24215W        W89200  13.352  32.054   2.771
24216W        W89201  30.288  39.911   0.944
24217W        W89202  20.735   2.774   3.282
24218W        W89203  39.986   9.838  12.555
24219W        W89204  28.251   0.787   9.906
24220W        W89205  12.653  17.660  13.090
24221W        W89206  12.220  38.689   4.160
24222W        W89207  10.733   9.372  10.727
24223W        W89208  12.116  44.058  12.530
24224W        W89209  39.619  28.560  11.416
24225W        W89210  32.405  38.464   1.744
24226W        W89211  37.166  21.350   0.004
24227W        W89212   3.828  34.599   3.285
24228W        W89213  23.513  39.978  14.813
24229W        W89214  28.354   8.004  10.733
24230W        W89215  34.381  41.859   0.106
24231W        W89216  38.117   5.440   0.921
24232W        W89217  13.947  15.319   1.018
24233W        W89218  12.046  23.114  11.483
24234W        W89219  24.111   8.493   1.583
24235W        W89220   2.211   4.227   1.830
24236W        W89221  29.245  43.520   2.182
24237W        W89222  31.042  26.026  11.229
24238W        W89223  40.673  15.611  14.459
24239W        W89224  22.033  40.063  13.818
24240W        W89225  13.656  18.515   1.884
24241W        W89226  27.222   3.798  13.272
24242W        W89227  14.552  40.615   1.748
24243W        W89228  38.893   4.877   3.362
24244W        W89229  13.617   8.757   1.398
24245W        W89230   9.852  26.969   2.362
24246W        W89231   8.357  32.460   0.468
24247W        W89232  19.353  19.778  14.441
24248W        W89233  33.123  22.794  12.855
24249W        W89234   0.343   6.452   2.425
24250W        W89235  13.392  30.926  11.471
24251W        W89236  15.944  29.498   5.022
24252W        W89237  38.402  11.298   1.310
24253W        W89238  10.461  39.151   2.244
24254W        W89239   8.400  44.446   0.018
24255W        W89240   8.618  38.293  13.419
24256W        W89241  16.301  32.565  14.417
24257W        W89242  31.456  35.533  14.699
24258W        W89243   5.213  24.636   2.088
24259W        W89244  29.208  31.957   4.679
24260W        W89245  30.502   9.934  11.293
24261W        W89246  28.741  25.993  10.942
24262W        W89247  12.724  31.431   3.311
24263W        W89248  19.697   8.283   1.469
24264W        W89249   5.284  42.005  14.915
24265W        W89250   6.257  27.884  12.084
24266W        W89251   2.452  37.846  11.101
24267W        W89252  34.997  12.570   0.971
24268W        W89253  21.569  30.828   4.565
24269W        W89254  25.496  18.639  14.372
24270W        W89255  14.837  17.706  12.909
24271W        W89256  30.084  33.644  13.586
24272W        W89257  36.970  29.638  14.478
24273W        W89258   3.268  20.285   4.671
24274W        W89259  20.021  19.320   0.366
24275W        W89260  28.487  26.285   0.324
24276W        W89261  17.204  16.339  14.485
24277W        W89262   8.773  44.392   1.850
24278W        W89263  11.037  25.794  12.613
24279W        W89264  33.122  12.863   4.918
24280W        W89265  26.028  26.481  13.820
24281W        W89266  10.085  40.381   1.298
24282W        W89267  36.459  12.207   3.573
24283W        W89268  11.246  39.783   3.262
24284W        W89269   9.434  14.249  13.532
24285W        W89270  22.189  14.310  11.949
24286W        W89271  14.174  38.494   1.490
24287W        W89272  17.844   5.991   1.192
24288W        W89273   1.713   2.685  13.945
24289W        W89274  11.037  42.797   4.530
24290W        W89275  32.569  44.368   1.689
24291W        W89276   4.845  16.775   0.454
24292W        W89277  13.809   6.401   4.447
24293W        W89278  20.599  12.661  14.609
24294W        W89279  41.798   3.947  11.968
24295W        W89280  13.427  17.265   1.359
24296W        W89281  25.173  28.437   0.943
24297W        W89282  38.928  40.739  10.854
24298W        W89283  29.856   5.344  11.416
24299W        W89284  37.511  27.048   0.704
24300W        W89285  33.914   5.139  10.588
24301W        W89286   2.410  17.087  12.260
24302W        W89287  37.907   1.867   3.241
24303W        W89288  28.423  26.556  13.557
24304W        W89289  40.854  23.525   5.410
24305W        W89290  23.021  30.975   1.606
24306W        W89291  37.042  19.054   0.457
24307W        W89292  34.672  27.065   1.726
24308W        W89293   9.421  42.963  13.819
24309W        W89294  15.090  41.298  12.052
24310W        W89295  35.145  30.609   1.231
24311W        W89296   0.598   3.253   4.856
24312W        W89297  37.316  34.255   0.440
24313W        W89298  43.872  39.615  14.384
24314W        W89299  32.087  23.799   2.734
24315W        W89300  19.036  43.826  14.970
24316W        W89301   2.154  12.651  13.483
24317W        W89302  19.999  29.189  14.257
24318W        W89303  10.244  19.680  13.939
24319W        W89304  42.590  22.512   0.438
24320W        W89305   8.111  26.006   1.834
24321W        W89306  23.528  25.074  11.456
24322W        W89307  31.179  16.699  11.082
24323W        W89308   4.816   2.357  11.226
24324W        W89309   4.001   3.212  12.787
24325W        W89310  31.953   1.557  12.108
24326W        W89311   9.019  32.708  12.441
24327W        W89312  28.130  17.090  14.714
24328W        W89313  12.569  37.042  14.008
24329W        W89314  16.806  11.877   0.653
24330W        W89315  32.179  22.437  11.144
24331W        W89316  20.373  23.918  10.710
24332W        W89317  20.782   7.512  13.472
24333W        W89318  21.270   6.669   3.438
24334W        W89319  20.944  22.960  12.362
24335W        W89320   5.324  14.248  13.935
24336W        W89321  43.699  10.777  14.821
24337W        W89322  17.182  16.124   1.585
24338W        W89323   3.429   8.663  14.898
24339W        W89324  13.622  24.685  11.976
24340W        W89325  21.758  15.729  11.230
24341W        W89326  23.420   9.676  14.232
24342W        W89327  30.085  11.805  10.511
24343W        W89328  25.017  40.639  13.431
24344W        W89329   0.497  44.899  14.219
24345W        W89330   3.894  13.675   3.618
24346W        W89331  31.465  34.398  14.911
24347W        W89332  24.551  16.706   3.096
24348W        W89333  13.190  31.142   3.183
24349W        W89334   3.402  15.952   3.862
24350W        W89335   4.408  31.030  12.377
24351W        W89336  38.432  22.938   1.452
24352W        W89337  38.086   0.316  13.095
24353W        W89338  27.076  44.338   2.219
24354W        W89339  36.526  31.385   0.856
24355W        W89340  37.766  27.248   2.705
24356W        W89341  33.428  18.460  12.889
24357W        W89342  43.090  37.802  11.584
24358W        W89343   0.759  30.961   0.771
24359W        W89344  11.997  29.501  14.028
24360W        W89345  15.837  41.117   0.783
24361W        W89346  29.451   5.704   4.527
24362W        W89347  15.326  28.254   2.086
24363W        W89348  32.762  30.366   3.705
24364W        W89349   4.381   5.892  11.146
24365W        W89350  22.306  16.480  14.935
24366W        W89351  19.500  28.473  13.880
24367W        W89352  24.215  10.529   4.643
24368W        W89353  29.924  23.739   2.851
24369W        W89354  25.009   2.880  11.042
24370W        W89355  28.764   9.631   4.288
24371W        W89356  24.716   1.109   4.571
24372W        W89357  18.038   6.744  12.640
24373W        W89358  29.615  39.278  11.094
24374W        W89359  27.435  14.301   1.835
24375W        W89360  38.806   2.024   1.719
24376W        W89361  30.442   7.944  14.370
24377W        W89362  10.305  36.587   1.519
24378W        W89363  33.956  44.190  10.170
24379W        W89364  24.626  40.949   3.035
24380W        W89365  36.651   5.758   0.942
24381W        W89366  30.626  43.322  10.718
24382W        W89367  19.137  42.254  11.098
24383W        W89368  21.618  31.944   4.770
24384W        W89369   4.939  35.851   0.203
24385W        W89370   4.465  42.885   2.831
24386W        W89371  29.921  12.269   1.847
24387W        W89372  24.313  40.991  14.692
24388W        W89373   2.083  28.313   4.809
24389W        W89374  25.434  28.460   4.161
24390W        W89375  14.328   8.172  11.962
24391W        W89376  25.985  20.797   3.695
24392W        W89377  30.708   1.579  11.533
24393W        W89378  36.240  22.647   4.125
24394W        W89379  38.320  13.168  14.853
24395W        W89380  41.767  37.470   1.781
24396W        W89381   9.643   4.225  13.983
24397W        W89382   1.394  43.054  14.922
24398W        W89383   7.445  20.535  13.949
24399W        W89384  35.124   1.723   1.956
24400W        W89385  10.138  30.961  10.679
24401W        W89386  21.597  15.792   1.416
24402W        W89387  17.354  29.158   0.914
24403W        W89388  20.269  27.263   4.072
24404W        W89389   4.300  25.700   4.661
24405W        W89390  42.243  17.133  12.411
24406W        W89391   4.355  13.605  12.202
24407W        W89392   3.802  10.237  13.325
24408W        W89393  37.961  18.127  14.260
24409W        W89394  20.570  34.567   1.939
24410W        W89395  24.091  44.415  13.838
24411W        W89396  28.950  41.795   4.626
24412W        W89397  33.508  11.705   3.554
24413W        W89398  30.255  16.431   0.513
24414W        W89399  13.573  25.074  12.471
24415W        W89400  33.057  14.386  10.422
24416W        W89401  17.570  10.102  11.955
24417W        W89402  21.438  11.841  13.469
24418W        W89403  39.334   7.905  12.953
24419W        W89404  16.214  39.939   2.934
24420W        W89405   3.716  24.615  12.961
24421W        W89406  14.887  13.861   3.237
24422W        W89407  26.083  27.931  12.987
24423W        W89408  16.634   4.290  10.783
24424W        W89409  34.845  33.254   5.035
24425W        W89410  42.529  44.508   0.041
24426W        W89411  18.311   1.168  12.418
24427W        W89412  11.846   1.461   1.479
24428W        W89413   2.905   4.473   4.629
24429W        W89414  39.003  33.961   4.561
24430W        W89415  28.979  35.899   2.258
24431W        W89416  10.137  15.239  14.898
24432W        W89417   2.717  44.543   3.590
24433W        W89418  38.516   3.933  11.593
24434W        W89419  41.735  19.870  11.158
24435W        W89420  39.714  36.218  11.311
24436W        W89421  39.766  33.027   1.422
24437W        W89422   3.390   5.684   1.511
24438W        W89423   9.809   7.806   2.869
24439W        W89424  42.342  28.337   1.280
24440W        W89425  28.334   7.297  12.098
24441W        W89426  28.006   8.931  11.585
24442W        W89427  33.967  44.290   3.326
24443W        W89428  11.753  42.522   3.557
24444W        W89429  14.231  31.450   0.938
24445W        W89430  32.603  36.999  14.982
24446W        W89431   7.304  24.538  10.519
24447W        W89432  27.639  22.635  10.926
24448W        W89433   3.724  25.061   0.718
24449W        W89434   4.131  12.651  11.152
24450W        W89435   8.112  20.656  13.305
24451W        W89436  12.160   5.177   0.459
24452W        W89437  37.753   8.703   2.311
24453W        W89438  43.891  40.251   0.056
24454W        W89439  42.755   8.913   1.846
24455W        W89440  28.058   5.419   3.603
24456W        W89441  39.461  30.884  14.743
24457W        W89442  41.047   5.553   1.815
24458W        W89443  20.836  24.646   4.975
24459W        W89444  14.629  14.138   2.508
24460W        W89445  21.635  31.790   4.272
24461W        W89446  24.043  10.141  11.942
24462W        W89447  21.083   7.342   4.656
24463W        W89448  24.867  36.254  14.374
24464W        W89449  20.141   4.855   9.509
24465W        W89450  22.738   4.698   4.598
24466W        W89451  25.961   0.491   0.263
24467W        W89452   4.431  12.687   4.780
24468W        W89453  34.083  10.905   2.801
24469W        W89454  38.885  14.076  10.579
24470W        W89455  39.384  21.592  12.851
24471W        W89456  27.639   5.873  10.688
24472W        W89457  23.193  41.237   1.342
24473W        W89458  41.317  21.450  14.023
24474W        W89459  42.214   2.721  12.531
24475W        W89460  26.915   3.942   4.095
24476W        W89461  24.173   0.296   3.721
24477W        W89462  14.097  29.163   4.107
24478W        W89463  41.812  28.271   2.247
24479W        W89464  37.597  36.545   3.675
24480W        W89465  16.596   0.703  10.655
24481W        W89466  16.756  17.538   4.642
24482W        W89467  35.948  33.882   3.193
24483W        W89468  13.576  19.009   4.063
24484W        W89469   8.904  41.904   1.308
24485W        W89470  16.292  27.637   1.839
24486W        W89471   7.481  24.686   4.241
24487W        W89472  36.325  24.820   0.342
24488W        W89473   5.370  16.324  12.697
24489W        W89474  39.806  16.370   2.453
24490W        W89475  18.178  32.459  14.191
24491W        W89476  20.948  13.844  11.983
24492W        W89477  27.933  33.984  12.897
24493W        W89478  14.075  36.285  10.766
24494W        W89479  26.772  28.939  10.364
24495W        W89480  39.946   7.217   2.317
24496W        W89481  34.720  11.133   4.918
24497W        W89482  12.731  31.938  12.349
24498W        W89483  42.563  27.598   3.578
24499W        W89484   3.810  35.046   3.561
24500W        W89485  20.532  34.546   3.186
24501W        W89486  38.920  15.081  12.260
24502W        W89487   1.535  34.469   4.560
24503W        W89488  32.584  13.302   4.558
24504W        W89489  43.475   0.390  13.800
24505W        W89490  25.012  18.906   3.905
24506W        W89491  26.564  26.969   4.584
24507W        W89492  11.610  19.961  14.818
24508W        W89493   0.283   8.221   1.266
24509W        W89494  22.282   7.660  12.862
24510W        W89495  22.524  19.969  11.118
24511W        W89496   5.647   3.436  10.853
24512W        W89497  26.725  28.044   1.321
24513W        W89498  38.585  22.937   2.875
24514W        W89499  22.981  40.591  10.912
24515W        W89500   5.924   6.153  14.945
24516W        W89501  13.747  39.977  14.385
24517W        W89502  24.504  19.844  14.271
24518W        W89503  28.735  10.242  13.133
24519W        W89504  27.887  21.905  14.799
24520W        W89505  41.518  32.364   2.383
24521W        W89506  20.993  18.100  13.386
24522W        W89507  33.089  42.823  10.877
24523W        W89508  34.068  11.720  13.570
24524W        W89509  10.166  27.933   2.155
24525W        W89510   0.251  20.779   3.729
24526W        W89511   3.715  27.887   0.266
24527W        W89512  40.106  32.879   9.829
24528W        W89513  22.344  28.459   1.126
24529W        W89514  22.590  31.263   1.273
24530W        W89515   7.794  13.215   1.721
24531W        W89516  20.973  39.020  14.979
24532W        W89517  20.539  11.638  14.199
24533W        W89518  32.374  33.257  14.278
24534W        W89519  19.660  39.431  11.132
24535W        W89520  41.429   4.850   2.775
24536W        W89521  32.437  14.371  13.176
24537W        W89522  40.882  15.174   4.006
24538W        W89523  27.662  30.053  13.319
24539W        W89524  21.549  17.198  13.454
24540W        W89525  21.802  19.831   2.332
24541W        W89526  11.313  28.164  13.479
24542W        W89527  43.391  15.827  12.396
24543W        W89528   4.493  20.842  12.053
24544W        W89529  12.434  20.226  11.154
24545W        W89530  40.943  14.648   3.770
24546W        W89531  24.069  12.271   4.131
24547W        W89532  20.228  29.509  11.912
24548W        W89533  20.771  12.325  13.919
24549W        W89534  39.468  29.575  13.884
24550W        W89535  21.579  44.196  12.715
24551W        W89536  35.868  31.157   2.913
24552W        W89537  29.202  39.373   4.737
24553W        W89538   9.273  37.492   1.756
24554W        W89539  33.059  36.165  14.943
24555W        W89540  40.484   3.168   3.552
24556W        W89541  16.869  31.997  12.488
24557W        W89542  41.523   4.786  12.964
24558W        W89543  36.710   9.080   5.012
24559W        W89544   6.392  18.187  12.097
24560W        W89545  10.977  26.152   1.887
24561W        W89546  17.603  12.468   4.674
24562W        W89547   7.334  32.438   2.712
24563W        W89548   5.799  32.474  11.588
24564W        W89549  16.513  40.798  13.529
24565W        W89550  39.504  30.318   3.865
24566W        W89551  35.038  33.491   1.261
24567W        W89552   0.432  12.298   2.466
24568W        W89553  29.943   5.220  14.072
24569W        W89554  20.065  36.002   3.237
24570W        W89555  11.657  44.261   1.687
24571W        W89556  11.629  35.513   4.361
24572W        W89557   1.705   3.683   0.208
24573W        W89558  24.804  30.035  14.792
24574W        W89559   7.379  10.999   0.170
24575W        W89560  35.328  23.665   4.163
24576W        W89561  16.971  35.647   3.564
24577W        W89562  12.371  34.660  10.771
24578W        W89563  11.883  29.892   2.150
24579W        W89564   1.817  37.670   1.400
24580W        W89565  35.494   4.442  14.953
24581W        W89566   6.844  27.593  13.062
24582W        W89567  19.725   1.670   2.758
24583W        W89568   4.180  30.121   0.348
24584W        W89569  29.967  19.201  11.691
24585W        W89570  43.500  14.918  12.611
24586W        W89571  34.345  24.509   4.296
24587W        W89572  16.150   3.737   1.637
24588W        W89573  39.486  37.644  13.347
24589W        W89574  38.928  21.850  10.655
24590W        W89575  13.636   8.137  11.773
24591W        W89576  25.178  26.891  10.745
24592W        W89577  16.340  39.439   2.166
24593W        W89578   3.938  20.942  10.707
24594W        W89579  13.167  17.487  10.806
24595W        W89580  33.200  18.242  14.232
24596W        W89581  40.362  43.606   2.323
24597W        W89582  36.662  29.895   2.846
24598W        W89583  34.432  35.889  11.665
24599W        W89584  34.595  10.151  10.982
24600W        W89585  37.569  21.725   1.372
24601W        W89586  36.090  10.239  14.153
24602W        W89587  44.487  12.430  11.292
24603W        W89588  40.972  39.489  10.787
24604W        W89589  42.982   2.504  12.288
24605W        W89590  22.494  43.169   3.287
24606W        W89591  27.558  38.501   3.872
24607W        W89592  21.025  25.436  12.940
24608W        W89593   0.851  16.134  10.712
24609W        W89594  25.024  17.094  14.836
24610W        W89595  24.237   9.724   0.677
24611W        W89596  32.856  29.493   2.344
24612W        W89597   1.650   6.318   2.789
24613W        W89598   2.216  31.935  11.265
24614W        W89599  17.355  30.541  13.004
24615W        W89600  13.486  30.483  14.017
24616W        W89601  12.586  39.981   3.505
24617W        W89602   7.320  41.956   3.889
24618W        W89603  22.522  34.605   2.186
24619W        W89604   4.265  21.231  14.732
24620W        W89605  16.034  15.711  13.014
24621W        W89606  36.936   9.337  10.624
24622W        W89607   6.476  43.535   3.349
24623W        W89608   4.260   3.235   0.926
24624W        W89609  12.805  30.714  13.132
24625W        W89610  43.451  31.469  11.054
24626W        W89611  21.996   6.567   1.825
24627W        W89612  40.270   3.872   2.324
24628W        W89613   4.819   0.760  13.347
24629W        W89614  27.309  30.776  13.016
24630W        W89615   3.803   1.389  11.199
24631W        W89616  11.452   0.954   3.606
24632W        W89617  14.346  14.303   1.677
24633W        W89618   9.163  43.525   3.777
24634W        W89619   1.252   2.905   0.357
24635W        W89620  13.747  43.380   4.510
24636W        W89621  37.535  19.390  10.701
24637W        W89622  30.630   2.666   2.097
24638W        W89623   0.336  37.812  13.902
24639W        W89624   6.938  16.082   2.626
24640W        W89625  12.686  42.955   3.836
24641W        W89626  40.275   2.959   3.103
24642W        W89627   4.228   5.340  14.229
24643W        W89628  44.791  33.478   4.082
24644W        W89629  23.985  40.507   2.820
24645W        W89630   6.456  14.923   3.700
24646W        W89631  15.849  31.027  13.826
24647W        W89632   6.726  14.576  12.593
24648W        W89633  41.923   6.764   4.217
24649W        W89634  33.433  13.283  14.378
24650W        W89635  25.718  43.335   3.779
24651W        W89636  10.218  25.001  14.492
24652W        W89637   2.799  23.904  14.735
24653W        W89638  44.824   1.452   1.682
24654W        W89639   6.787  25.611   1.138
24655W        W89640  22.420  25.771   4.538
24656W        W89641  31.126   3.351  12.578
24657W        W89642   9.222  23.975  12.941
24658W        W89643   0.843  11.397  13.507
24659W        W89644  26.288  11.182  12.024
24660W        W89645  29.460  27.489  13.584
24661W        W89646   0.650  26.559   2.719
24662W        W89647   4.223  39.202   1.893
24663W        W89648  40.700  38.342   3.305
24664W        W89649  27.487  37.453  13.426
24665W        W89650  26.091  24.456   3.577
24666W        W89651  25.264  38.087  10.783
24667W        W89652   3.360  16.691  14.526
24668W        W89653   1.000  43.386  12.295
24669W        W89654  30.583  21.343  11.942
24670W        W89655  14.873  20.489  11.534
24671W        W89656   0.534  44.551   2.740
24672W        W89657  38.921  17.986   0.317
24673W        W89658  26.429  33.668  11.446
24674W        W89659   0.252  15.197  13.510
24675W        W89660   4.486  38.101   0.465
24676W        W89661  38.369  17.529   4.852
24677W        W89662  15.890  43.274   2.453
24678W        W89663  42.970  33.811   1.908
24679W        W89664  44.950   2.753  12.493
24680W        W89665   0.428   8.648  12.021
24681W        W89666  33.834  18.080  13.652
24682W        W89667   1.753  34.376   3.098
24683W        W89668   3.973  41.986  14.784
24684W        W89669   8.211  14.329  13.542
24685W        W89670  16.098   5.061  10.994
24686W        W89671  24.207  23.489   4.615
24687W        W89672  26.571  12.671  11.208
24688W        W89673  28.814  33.378  14.774
24689W        W89674  12.196  26.664   1.950
24690W        W89675  21.480   8.762   0.416
24691W        W89676  27.949  17.531   2.674
24692W        W89677  29.381  12.636  13.417
24693W        W89678  39.724   9.366   2.705
24694W        W89679   8.016  27.696  12.048
24695W        W89680  42.256   5.644   3.788
24696W        W89681  25.052   6.167   0.769
24697W        W89682  43.585  40.581  14.139
24698W        W89683  11.641   1.516  12.378
24699W        W89684  35.612  36.380  12.797
24700W        W89685   4.744   2.423  12.124
24701W        W89686  13.578  28.639   3.640
24702W        W89687  41.086  13.154   2.676
24703W        W89688   4.394  42.310   4.767
24704W        W89689  32.389  16.346  14.377
24705W        W89690  33.350  10.600  13.638
24706W        W89691   9.279  32.177  12.442
24707W        W89692  12.920  36.227  11.178
24708W        W89693  38.115  15.942   4.109
24709W        W89694  17.120  30.649   3.357
24710W        W89695   3.267  10.186  10.984
24711W        W89696   3.248  19.799   3.354
24712W        W89697   3.675   7.118   3.482
24713W        W89698  32.623   0.541  14.303
24714W        W89699  12.475   7.775  10.556
24715W        W89700  12.587  21.706  10.578
24716W        W89701  35.871  19.645   2.672
24717W        W89702  42.204  21.180  11.237
24718W        W89703  19.095  11.172   3.646
24719W        W89704  39.133  27.746   0.325
24720W        W89705  18.721   1.925  14.345
24721W        W89706  44.373  27.451   0.264
24722W        W89707  17.276  35.507   4.303
24723W        W89708  25.075  42.789   2.293
24724W        W89709  23.782  11.108   1.788
24725W        W89710  13.826  13.534   3.365
24726W        W89711  34.302  15.620   2.743
24727W        W89712  21.723  33.117  14.597
24728W        W89713  24.435  40.486  11.468
24729W        W89714   5.157  31.995   1.647
24730W        W89715  22.086  11.300  11.189
24731W        W89716  21.115  42.399   4.711
24732W        W89717  23.421  21.503  13.106
24733W        W89718  37.885  29.744   0.402
24734W        W89719   5.253  13.833  12.602
24735W        W89720  22.086  34.143   4.102
24736W        W89721   9.780  35.977   3.104
24737W        W89722   9.670  13.184  11.638
24738W        W89723  41.062  28.909  10.693
24739W        W89724  37.119  40.110  11.061
24740W        W89725  40.077  27.941  14.066
24741W        W89726  23.584  40.213   2.603
24742W        W89727  29.094   8.129   1.027
24743W        W89728  37.169  14.009  11.132
24744W        W89729  36.550  30.500  14.533
24745W        W89730  42.273  29.754   2.516
24746W        W89731  16.303  36.949  12.216
24747W        W89732  41.425  16.839   2.715
24748W        W89733  15.142  21.776   0.550
24749W        W89734   6.225  27.664  11.599
24750W        W89735   6.707  40.328   3.311
24751W        W89736  41.826  22.517   4.675
24752W        W89737  42.086  37.960   4.080
24753W        W89738   6.501  23.563  13.471
24754W        W89739  18.123  15.402  14.357
24755W        W89740  10.316   7.732   1.804
24756W        W89741  15.758   0.948   3.373
24757W        W89742  29.050  16.748  12.995
24758W        W89743  11.744   5.400   0.273
24759W        W89744  31.917  39.395   2.679
24760W        W89745   0.393  32.610   1.377
24761W        W89746  37.418  26.298   1.568
24762W        W89747  35.604  22.109  13.521
24763W        W89748  34.181  29.559  14.354
24764W        W89749   8.632  18.416  14.754
24765W        W89750  20.276   2.201   4.122
24766W        W89751  38.304   4.597  11.012
24767W        W89752  23.294  12.565  14.194
24768W        W89753  41.976  22.950  10.101
24769W        W89754   1.228  38.530   2.143
24770W        W89755   3.446  35.992   1.954
24771W        W89756   6.754  21.986   2.295
24772W        W89757  36.790  14.241   3.497
24773W        W89758   6.274  35.774   2.575
24774W        W89759  24.619  26.867   2.917
24775W        W89760  31.120   6.555   1.821
24776W        W89761  20.246  10.389   2.412
24777W        W89762   4.426  23.508  12.551
24778W        W89763  29.176  10.842  11.238
24779W        W89764  42.407  21.611  13.156
24780W        W89765  28.022   0.779  12.415
24781W        W89766  20.029  16.036   3.194
24782W        W89767  33.233  28.059   4.982
24783W        W89768  29.128   4.201   1.735
24784W        W89769  21.128  33.543   2.368
24785W        W89770  30.723  14.857   1.944
24786W        W89771  32.414  36.399   1.788
24787W        W89772  33.902   9.004  14.807
24788W        W89773  16.785   8.749  12.305
24789W        W89774  22.675   2.912  13.394
24790W        W89775  29.703  22.264  11.065
24791W        W89776   8.623   8.174   0.828
24792W        W89777  32.119  21.293  12.083
24793W        W89778  25.259  29.917   1.859
24794W        W89779  35.955  36.130   1.787
24795W        W89780   0.965  38.160   1.790
24796W        W89781   6.148   2.751  12.774
24797W        W89782  13.037  11.516   1.917
24798W        W89783   9.365  44.512   1.186
24799W        W89784   9.174  42.127  12.895
24800W        W89785  28.891   3.779   0.887
24801W        W89786  19.213   6.983   1.887
24802W        W89787  42.178  36.306  12.000
24803W        W89788  17.994  35.591  11.977
24804W        W89789   3.171   8.733   2.808
24805W        W89790  43.620  39.680   2.807
24806W        W89791   8.123  39.302   3.613
24807W        W89792  44.678  26.884   1.435
24808W        W89793   3.918  13.876   4.549
24809W        W89794  11.152  13.084  11.654
24810W        W89795  21.790  21.615  14.430
24811W        W89796  42.968  36.739  14.551
24812W        W89797  30.929  32.484   1.301
24813W        W89798  12.667   9.816  11.197
24814W        W89799  39.014  19.617  14.834
24815W        W89800  20.580   5.857   0.456
24816W        W89801  38.523  42.824   1.734
24817W        W89802  30.973  30.120  12.065
24818W        W89803  22.642  22.944  12.826
24819W        W89804  34.940  25.684  14.413
24820W        W89805  35.449  42.044   1.352
24821W        W89806  22.354  38.609  10.079
24822W        W89807  29.496  27.014   2.434
24823W        W89808   2.712  41.371  11.531
24824W        W89809  24.241  39.930  12.078
24825W        W89810  26.176  19.222  14.487
24826W        W89811  18.016  10.721   2.364
24827W        W89812   5.336  33.644  13.787
24828W        W89813  16.646  39.545   4.384
24829W        W89814  43.872   5.009  14.274
24830W        W89815  41.246  39.838   1.796
24831W        W89816   5.372  18.193   4.526
24832W        W89817   0.513   8.693  12.899
24833W        W89818   0.549   4.296  12.483
24834W        W89819  30.986  11.848  12.840
24835W        W89820   2.431  33.673   3.174
24836W        W89821  18.797  30.655   3.518
24837W        W89822   5.827  18.782  11.279
24838W        W89823   5.523  28.101   0.714
24839W        W89824  27.416  10.793   4.225
24840W        W89825  26.909   5.178   2.365
24841W        W89826  29.869   0.204  14.468
24842W        W89827   2.296  21.295  12.546
24843W        W89828  24.898  11.132  11.132
24844W        W89829   9.735   2.423  14.115
24845W        W89830  31.655  15.584  11.954
24846W        W89831  12.921  29.622   0.414
24847W        W89832   3.915   5.459  12.356
24848W        W89833  28.975  14.736  14.547
24849W        W89834  18.251  12.340   1.258
24850W        W89835   9.181   1.398   3.334
24851W        W89836  18.806   0.699  13.058
24852W        W89837   4.187  24.269   1.686
24853W        W89838  35.833  43.533   3.158
24854W        W89839  40.882  20.618   3.362
24855W        W89840  40.091  26.652   1.757
24856W        W89841  31.107   7.302  10.754
24857W        W89842  43.007  31.330  14.848
24858W        W89843  12.698  41.046  11.066
24859W        W89844  29.302  19.139  14.792
24860W        W89845  16.243  43.347  10.718
24861W        W89846  34.923   7.194   3.696
24862W        W89847  28.990  30.913   3.976
24863W        W89848   4.396  33.856   4.646
24864W        W89849  20.595  22.079   4.181
24865W        W89850  44.899  14.263   1.243
24866W        W89851   5.664  38.121   3.344
24867W        W89852  41.019  10.880  14.837
24868W        W89853  29.124  38.798   4.107
24869W        W89854  32.300  38.582   2.628
24870W        W89855  42.464   9.245  14.369
24871W        W89856   3.264   1.329  14.898
24872W        W89857  29.962   3.530   0.743
24873W        W89858  13.481  13.561  13.146
24874W        W89859  25.475   9.361  12.038
24875W        W89860  26.590   5.266   0.802
24876W        W89861   2.146  24.545  11.266
24877W        W89862  20.275  34.185   1.702
24878W        W89863  37.797   8.667  12.588
24879W        W89864  16.227   4.495  12.591
24880W        W89865  36.286  42.001  13.979
24881W        W89866  22.336  17.651  13.560
24882W        W89867   4.013  32.677  11.642
24883W        W89868  35.123  27.480   2.739
24884W        W89869  26.964  39.328  13.024
24885W        W89870  22.811  41.337  13.439
24886W        W89871  44.716  34.548   1.755
24887W        W89872  24.658  13.801  13.072
24888W        W89873   2.283  28.201   0.795
24889W        W89874  31.986  33.312   1.707
24890W        W89875  31.690  30.046   0.441
24891W        W89876   1.769   3.922   0.668
24892W        W89877  29.264  16.128   3.878
24893W        W89878  37.478   2.933   2.323
24894W        W89879  28.106  21.724   1.254
24895W        W89880  24.658  39.330  11.563
24896W        W89881  40.925  33.066  12.105
24897W        W89882   3.506  33.935  13.828
24898W        W89883   9.181   5.205   0.567
24899W        W89884  11.345  38.644  11.092
24900W        W89885   5.013  43.950  14.949
24901W        W89886  31.613   6.844  12.421
24902W        W89887  20.943  12.209   3.337
24903W        W89888   6.080  20.683  11.904
24904W        W89889  17.758  17.499   2.583
24905W        W89890  16.828   1.028   1.003
24906W        W89891  27.981   4.181  12.495
24907W        W89892  19.348  32.414  12.513
24908W        W89893  23.228  20.998  13.988
24909W        W89894   7.226  23.018  11.451
24910W        W89895  26.826   1.271  10.786
24911W        W89896   4.375  30.564  11.916
24912W        W89897  18.505  24.606  10.708
24913W        W89898  36.450  10.414  11.481
24914W        W89899   9.961  13.838   0.363
24915W        W89900  44.797  36.400  10.773
24916W        W89901   1.189  19.046  14.461
24917W        W89902  22.513  26.854  12.329
24918W        W89903  22.919  38.522   1.451
24919W        W89904  13.063   8.371   1.993
24920W        W89905   8.387  20.809  11.469
24921W        W89906  42.018  30.554   0.879
24922W        W89907  25.437  28.351   3.627
24923W        W89908   4.237   7.478   2.835
24924W        W89909  13.327  25.473   1.655
24925W        W89910  15.091   0.155   3.997
24926W        W89911   0.746  25.594   4.619
24927W        W89912   4.815  35.790  13.406
24928W        W89913   2.134  14.509   4.881
24929W        W89914  30.146  21.143   3.317
24930W        W89915  41.572   4.130  11.105
24931W        W89916  22.355   5.712  10.510
24932W        W89917   6.153  33.797   1.967
24933W        W89918  13.625  16.531  11.410
24934W        W89919  42.637  41.444   3.539
24935W        W89920  19.225  19.583   2.231
24936W        W89921   8.369  33.833   3.707
24937W        W89922  38.367  17.107   3.831
24938W        W89923  28.763   7.600   2.348
24939W        W89924  27.158  18.806  12.739
24940W        W89925  15.722  36.902   2.886
24941W        W89926   2.648  16.317  10.631
24942W        W89927  41.427   4.221  14.302
24943W        W89928  38.760   6.589   2.775
24944W        W89929  26.703  33.826  14.074
24945W        W89930  20.098  24.319   3.830
24946W        W89931  26.407   4.215  11.600
24947W        W89932  18.231  43.749  11.132
24948W        W89933   5.477  13.040   0.181
24949W        W89934  28.458   5.148   3.727
24950W        W89935  31.359  42.468   0.160
24951W        W89936  22.947  20.566   0.015
24952W        W89937  11.195  37.540  14.737
24953W        W89938  34.501  12.688  11.937
24954W        W89939  17.185  34.011  10.710
24955W        W89940   2.032  24.772  13.495
24956W        W89941  23.769  27.593   0.769
24957W        W89942   2.921  22.942   2.839
24958W        W89943  22.997  14.303  12.372
24959W        W89944  40.350  16.029  14.457
24960W        W89945  12.688  14.144   2.272
24961W        W89946  25.883  36.448  10.740
24962W        W89947   1.399  27.177   3.149
24963W        W89948  23.880  31.008   2.218
24964W        W89949  15.660  38.764  13.097
24965W        W89950  38.951  30.871   0.324
24966W        W89951  44.946  22.171   1.308
24967W        W89952  27.304  28.983  14.354
24968W        W89953  13.670  44.722   0.905
24969W        W89954  37.757  25.496  13.424
24970W        W89955  31.108  42.487  12.193
24971W        W89956  38.114  22.976  10.918
24972W        W89957  13.308  23.033   3.816
24973W        W89958  42.023  38.453   1.117
24974W        W89959  26.177  20.795   1.950
24975W        W89960  25.949   1.780  14.431
24976W        W89961   4.374  27.511   3.117
24977W        W89962  24.733  23.171   0.246
24978W        W89963  12.750   5.433  14.367
24979W        W89964   5.837  41.874  14.071
24980W        W89965  28.105  24.931   4.336
24981W        W89966  24.179  30.671  12.326
24982W        W89967  28.172  35.200   1.863
24983W        W89968  21.459  32.844   1.314
24984W        W89969   1.292  44.931   0.302
24985W        W89970  19.684  28.948  13.930
24986W        W89971  11.718   2.679   3.684
24987W        W89972  12.238   0.801  10.805
24988W        W89973  23.560   1.444   3.240
24989W        W89974  23.329  29.003  10.490
24990W        W89975  44.185  12.824  11.034
24991W        W89976  34.455  18.839   1.329
24992W        W89977  42.508  10.277  12.922
24993W        W89978  39.258  21.093   2.259
24994W        W89979   3.850  30.901   0.783
24995W        W89980  10.892   4.953  11.172
24996W        W89981  30.137  32.359   2.771
24997W        W89982  23.520  10.678   4.360
24998W        W89983  36.876   6.834   4.803
24999W        W89984  29.990  29.775   4.253
25000W        W89985   4.768   3.290  14.489
25001W        W89986  26.171  30.210  11.732
25002W        W89987   3.596  21.677  14.167
25003W        W89988  27.331  16.935   3.160
25004W        W89989  26.950  23.175   2.247
25005W        W89990  24.979  14.103  11.442
25006W        W89991  31.719   6.192   0.809
25007W        W89992   7.440  37.442  13.521
25008W        W89993  12.834   7.823  14.035
25009W        W89994  26.156  26.487  12.934
25010W        W89995  40.445  40.404  10.876
25011W        W89996  35.896  29.671  11.549
25012W        W89997  31.823   0.039   1.785
25013W        W89998  10.681  14.551   2.659
25014W        W89999  41.847  31.979  12.980
25015W        W90000  29.343  32.463   4.582
25016W        W90001  16.412  20.454   9.829
25017W        W90002  36.066  41.229   0.759
25018W        W90003  38.432   2.658  12.886
25019W        W90004  28.419  17.718  10.547
25020W        W90005   2.139  42.898   2.857
25021W        W90006   5.216  17.826   1.413
25022W        W90007  10.796  34.451   3.206
25023W        W90008  26.816  29.000  13.258
25024W        W90009  27.509  24.531  10.731
25025W        W90010  28.058   9.244   1.757
25026W        W90011  38.491   8.692   0.706
25027W        W90012   6.525   5.980   1.057
25028W        W90013   6.967  19.774  13.694
25029W        W90014  34.940   4.269  13.533
25030W        W90015   1.748  23.799  13.775
25031W        W90016  20.232  33.874   4.209
25032W        W90017  33.144  15.981  13.451
25033W        W90018  25.318   3.875   2.697
25034W        W90019  14.417  44.468   1.724
25035W        W90020  31.010  21.419   3.775
25036W        W90021  27.003  10.660  13.304
25037W        W90022  33.654  36.209   3.725
25038W        W90023  23.445  26.390   2.170
25039W        W90024  38.081  39.911   2.809
25040W        W90025   6.128  15.238  14.284
25041W        W90026  31.008   4.895   3.056
25042W        W90027   1.320  26.100  12.871
25043W        W90028  30.003  18.709   4.499
25044W        W90029   0.862  32.297   2.275
25045W        W90030   6.887  21.653   1.489
25046W        W90031  42.543  20.411  11.549
25047W        W90032  28.201  39.988  13.265
25048W        W90033  14.566  39.037  14.370
25049W        W90034  42.885   7.013  10.618
25050W        W90035  12.576  18.796   4.228
25051W        W90036   7.886   2.621   1.184
25052W        W90037  41.994  37.050   4.212
25053W        W90038  41.404  28.389   1.068
25054W        W90039  21.237   1.962  13.187
25055W        W90040  24.232   8.326   2.066
25056W        W90041   4.054  11.837   1.636
25057W        W90042   6.893  43.983   4.191
25058W        W90043   8.929  23.042  12.817
25059W        W90044  20.814  23.899   5.513
25060W        W90045  26.932   4.869  12.064
25061W        W90046  42.521   5.337  11.542
25062W        W90047  35.950   2.593  13.508
25063W        W90048  15.693  17.996   9.988
25064W        W90049  39.624  38.750   2.881
25065W        W90050  38.035   7.755  13.426
25066W        W90051  10.732  16.649   1.774
25067W        W90052  15.588   3.778  12.187
25068W        W90053  14.163  16.958  14.926
25069W        W90054   0.041  27.031   1.802
25070W        W90055   9.849  35.882  12.124
25071W        W90056   3.212  35.510   3.288
25072W        W90057  42.514   9.348   1.411
25073W        W90058  17.586  36.866  11.281
25074W        W90059  41.488  40.019   2.338
25075W        W90060   5.910  32.514   0.263
25076W        W90061  12.948  24.906  13.070
25077W        W90062  33.543  32.431  13.297
25078W        W90063  27.011  24.175  12.157
25079W        W90064  20.869   0.780   2.988
25080W        W90065  28.744   2.504  12.056
25081W        W90066  21.652  12.516  10.983
25082W        W90067  28.554   3.017   3.021
25083W        W90068   5.905   2.983   4.569
25084W        W90069   5.303  21.968  13.866
25085W        W90070   3.852  35.495   4.710
25086W        W90071  23.173   1.784   0.043
25087W        W90072  25.618   3.402  12.505
25088W        W90073   1.369   6.334   2.379
25089W        W90074  44.861   0.266   0.796
25090W        W90075   3.967   6.904   4.083
25091W        W90076  18.728  23.149  10.554
25092W        W90077   1.201  32.570   4.932
25093W        W90078  28.388   9.551   0.714
25094W        W90079   1.863  34.193  14.919
25095W        W90080   0.006  25.024  12.841
25096W        W90081   3.306  16.955  12.647
25097W        W90082  10.736  35.580  10.781
25098W        W90083  29.072  14.395  13.369
25099W        W90084  39.052   4.241  12.390
25100W        W90085  33.683  17.493  13.877
25101W        W90086  39.721  33.093  14.323
25102W        W90087  30.589   4.827  13.495
25103W        W90088  14.458  34.111   3.146
25104W        W90089   9.779  12.169  11.057
25105W        W90090   9.963   9.892   2.921
25106W        W90091   6.965  42.509   1.400
25107W        W90092  25.088  16.095   0.806
25108W        W90093  16.689  42.275  13.769
25109W        W90094  22.569  10.954  14.860
25110W        W90095  22.927  30.582   0.835
25111W        W90096  16.746  16.545  12.145
25112W        W90097  33.876   3.881   4.096
25113W        W90098  14.625  12.940  11.198
25114W        W90099   6.745  43.830   2.144
25115W        W90100  39.997  44.694  14.201
25116W        W90101  27.217  35.376   3.999
25117W        W90102   9.478  18.514   5.020
25118W        W90103  42.652   6.308  13.521
25119W        W90104  32.972  43.942  12.055
25120W        W90105   5.930   9.457   0.352
25121W        W90106   5.767   1.173  13.514
25122W        W90107  27.089   9.056   2.216
25123W        W90108  41.765  33.635   2.774
25124W        W90109  44.838   2.581  12.980
25125W        W90110  32.125  19.186  10.716
25126W        W90111  10.206  15.247  13.500
25127W        W90112  25.062  35.814  14.554
25128W        W90113  18.975  25.487   1.184
25129W        W90114  34.448  30.975   1.377
25130W        W90115   9.854  43.410   1.685
25131W        W90116  20.189  29.841  12.921
25132W        W90117  33.406  14.652  11.001
25133W        W90118  30.401  31.079  11.499
25134W        W90119  16.627  31.070  11.608
25135W        W90120  17.958   4.864   0.704
25136W        W90121  37.669  25.863   3.256
25137W        W90122   0.101  43.339  14.632
25138W        W90123  34.264  22.458   4.730
25139W        W90124   8.003  24.033  13.038
25140W        W90125  19.256   8.721  11.550
25141W        W90126  35.889  43.475  13.943
25142W        W90127  18.085  21.027   1.870
25143W        W90128  35.094  25.105  11.149
25144W        W90129  27.571  15.912   2.914
25145W        W90130  31.446  13.585   2.820
25146W        W90131  24.506  31.220   3.309
25147W        W90132  29.147  28.849   1.801
25148W        W90133  10.691  10.165   3.380
25149W        W90134  39.006  19.058  12.822
25150W        W90135  29.036   9.882   2.384
25151W        W90136  42.552  30.317   2.650
25152W        W90137  12.243  23.047   2.267
25153W        W90138  19.013   0.517   4.487
25154W        W90139   3.456   4.793  10.196
25155W        W90140  23.904   5.283   2.846
25156W        W90141  10.180   0.360   9.886
25157W        W90142  43.483   4.475   3.693
25158W        W90143  34.984  14.102  13.605
25159W        W90144  24.466  37.999  14.436
25160W        W90145  38.631  14.346  13.509
25161W        W90146  32.533   2.679   3.147
25162W        W90147  37.656  29.447   0.838
25163W        W90148  21.975  22.837   4.552
25164W        W90149  11.470   8.395  11.142
25165W        W90150  31.689  35.410   2.295
25166W        W90151  21.323   6.964  11.000
25167W        W90152  10.638  41.351  11.177
25168W        W90153  44.014  29.863   2.786
25169W        W90154  40.349  39.863   2.809
25170W        W90155  13.808  22.371   2.896
25171W        W90156  10.747   2.808   1.275
25172W        W90157  21.246   2.371  12.334
25173W        W90158  38.799  17.415   5.171
25174W        W90159  31.040  22.890  13.357
25175W        W90160  30.106  33.211  11.207
25176W        W90161  44.029  12.321  13.964
25177W        W90162  18.683   3.246  13.599
25178W        W90163   0.482  26.219   0.066
25179W        W90164  32.642  32.110  10.527
25180W        W90165  17.308  34.067   4.530
25181W        W90166  23.380   2.441  14.755
25182W        W90167  17.667  10.244  10.947
25183W        W90168  21.108  28.228  13.901
25184W        W90169   4.924  40.146   2.392
25185W        W90170  34.058   3.993   1.182
25186W        W90171   4.122  20.555  13.509
25187W        W90172  13.310  15.602  13.120
25188W        W90173  31.299  13.749   1.457
25189W        W90174  12.756  16.292  14.147
25190W        W90175  16.590  35.039   4.076
25191W        W90176  34.640  35.064   2.497
25192W        W90177  40.908  12.252   2.436
25193W        W90178   0.381  15.928   1.208
25194W        W90179   1.288  42.460   0.797
25195W        W90180  15.801  11.732  11.295
25196W        W90181  21.181  41.432   2.147
25197W        W90182  21.735  17.199  13.942
25198W        W90183  35.439  20.485   3.602
25199W        W90184   4.006  40.466  14.006
25200W        W90185  28.168   6.390   3.868
25201W        W90186  15.774  21.160  10.832
25202W        W90187   3.860  36.808  12.089
25203W        W90188  14.762  23.854   2.332
25204W        W90189   8.624  12.590   3.838
25205W        W90190  10.699   2.101  10.762
25206W        W90191  30.953   2.345  12.643
25207W        W90192  41.835  26.725   1.530
25208W        W90193  43.675  44.658  12.825
25209W        W90194  18.696  12.960   4.857
25210W        W90195  10.231  41.569  13.225
25211W        W90196  23.432  22.578   2.679
25212W        W90197  35.528  35.892   4.534
25213W        W90198  31.861  11.269   3.205
25214W        W90199   7.963   3.828  12.619
25215W        W90200  26.988   7.630   0.345
25216W        W90201  33.672  17.605   0.782
25217W        W90202  21.081  18.273   3.691
25218W        W90203  17.953  41.400  13.763
25219W        W90204  16.614  14.870  11.687
25220W        W90205  14.639  29.816   0.566
25221W        W90206  39.519  12.347   1.855
25222W        W90207  26.229   4.995   1.864
25223W        W90208  21.256  43.672  13.960
25224W        W90209  27.624  42.907   4.040
25225W        W90210  40.011  11.699  11.275
25226W        W90211  13.036   1.273   1.068
25227W        W90212   7.410  35.387   0.779
25228W        W90213   6.697  38.562   2.851
25229W        W90214  23.381  33.448   2.113
25230W        W90215  10.835  43.735   0.775
25231W        W90216  25.727   3.175   2.883
25232W        W90217  33.105  24.196   4.479
25233W        W90218  18.279   6.253   1.196
25234W        W90219  36.513  24.253  12.047
25235W        W90220  24.740  12.212  12.024
25236W        W90221  38.530  15.162  13.139
25237W        W90222  43.121   6.421  12.663
25238W        W90223  41.068  25.043   1.659
25239W        W90224  39.430   9.190   0.775
25240W        W90225  11.756  43.265  14.839
25241W        W90226  24.139  16.839  14.270
25242W        W90227  35.352  29.752  10.900
25243W        W90228  21.183  17.482  11.371
25244W        W90229  16.270   5.520  12.619
25245W        W90230  24.633  19.832  10.588
25246W        W90231  42.794  37.149  11.828
25247W        W90232   0.471  10.215  12.149
25248W        W90233   1.349  32.945  12.065
25249W        W90234  43.007  37.544  12.047
25250W        W90235  37.508  19.265  12.939
25251W        W90236  41.853  13.665  11.395
25252W        W90237   5.730  23.689  14.047
25253W        W90238  33.793  31.088  12.592
25254W        W90239  11.680  25.478  10.521
25255W        W90240  16.403  35.081   1.938
25256W        W90241  16.263   9.828  11.650
25257W        W90242  23.721  37.946  10.778
25258W        W90243  27.183  14.263  10.604
25259W        W90244  29.663   2.833  10.613
25260W        W90245  26.191   5.351  14.304
25261W        W90246  43.767  12.777  14.017
25262W        W90247   2.427   8.632   1.709
25263W        W90248  40.776  24.115   1.834
25264W        W90249  44.006  27.079   1.577
25265W        W90250   1.974  17.577   4.561
25266W        W90251  11.516   9.130   1.981
25267W        W90252  38.061   2.325   2.384
25268W        W90253  12.759  40.296  14.305
25269W        W90254  34.577  39.836   0.587
25270W        W90255  19.740  18.664  11.125
25271W        W90256  16.058   2.979  12.142
25272W        W90257  30.429   7.870   4.585
25273W        W90258  38.087  29.472  13.929
25274W        W90259  31.900   6.077  11.545
25275W        W90260  29.001  36.420   2.315
25276W        W90261  14.576  42.181   4.144
25277W        W90262  20.153  26.907   2.242
25278W        W90263  12.710  42.441   1.302
25279W        W90264   2.173  17.256   0.766
25280W        W90265  10.133   5.698  13.427
25281W        W90266  43.759   8.874  13.431
25282W        W90267   9.558  10.141  12.026
25283W        W90268  13.808  28.658   2.007
25284W        W90269  16.012  40.748  13.533
25285W        W90270  32.011  42.318  14.330
25286W        W90271  15.641  13.347   4.840
25287W        W90272  27.166  36.260   2.711
25288W        W90273  29.517   5.677   1.747
25289W        W90274  18.508  29.901   3.180
25290W        W90275  14.818  12.153  13.007
25291W        W90276  28.380   1.145  11.115
25292W        W90277  24.354   3.500  13.112
25293W        W90278  21.825  40.908  12.890
25294W        W90279   8.391  23.744   3.150
25295W        W90280  30.592  41.801  12.088
25296W        W90281  20.979  29.919   0.956
25297W        W90282  44.275  38.883  10.481
25298W        W90283  13.731  23.433   1.840
25299W        W90284  33.544  34.362   3.264
25300W        W90285  22.134  33.941   1.719
25301W        W90286   2.937  35.422   2.833
25302W        W90287  27.061   2.115   5.004
25303W        W90288  20.178   2.513  11.109
25304W        W90289   1.131   9.921  14.085
25305W        W90290  26.254  22.995  13.370
25306W        W90291  20.712  18.064   0.211
25307W        W90292  24.842  39.059   1.347
25308W        W90293  38.021  31.180   3.598
25309W        W90294  21.877  41.783   1.272
25310W        W90295  39.183  32.938  14.246
25311W        W90296  18.634  30.230  11.543
25312W        W90297   7.915  31.606  14.392
25313W        W90298  28.629  34.137  14.253
25314W        W90299   8.675  29.303   0.776
25315W        W90300  10.191  17.616  13.032
25316W        W90301  17.000  22.774   0.983
25317W        W90302  15.649  24.679  13.917
25318W        W90303  25.124  43.503   1.773
25319W        W90304  20.645  40.069   4.066
25320W        W90305  24.125   9.856  12.354
25321W        W90306   3.179  11.173  12.016
25322W        W90307  18.490  18.648   3.234
25323W        W90308  17.232  19.038   4.715
25324W        W90309   5.735  42.126   2.027
25325W        W90310  26.696  40.534   4.670
25326W        W90311  28.221   3.437   4.114
25327W        W90312   0.063  27.643  10.075
25328W        W90313   7.726  13.182   2.242
25329W        W90314  41.710   8.024  14.743
25330W        W90315  27.630  12.028   2.336
25331W        W90316   2.232  24.484   0.972
25332W        W90317  37.322  35.762  13.931
25333W        W90318  39.479   3.697  13.988
25334W        W90319  25.077   8.029  10.546
25335W        W90320  37.948  39.750  14.785
25336W        W90321  40.288   8.708  13.434
25337W        W90322  30.605   2.684   4.781
25338W        W90323  42.844  21.487   1.422
25339W        W90324  43.431  39.314  14.279
25340W        W90325   5.328  36.519   1.002
25341W        W90326  19.531   8.735   0.399
25342W        W90327  34.015   0.848   4.576
25343W        W90328  12.884   6.383  10.603
25344W        W90329  24.257   5.342  13.946
25345W        W90330   3.227   2.292   4.092
25346W        W90331   2.522  40.102   2.589
25347W        W90332   1.914  13.382   4.068
25348W        W90333  11.363  42.866   3.683
25349W        W90334  40.930  25.086  11.265
25350W        W90335  42.967  14.345  12.276
25351W        W90336  24.645  14.907  11.046
25352W        W90337   3.024  40.570  11.045
25353W        W90338  43.580  18.020   2.771
25354W        W90339  31.899   8.254  10.448
25355W        W90340  11.569  25.096  10.154
25356W        W90341  14.695  20.961   2.935
25357W        W90342  10.286  37.404  12.834
25358W        W90343  35.499  16.528  13.476
25359W        W90344  32.397  16.995  12.513
25360W        W90345  11.910  33.951   1.741
25361W        W90346   4.726  44.269  11.921
25362W        W90347  23.963  37.496  10.659
25363W        W90348   1.709  35.955  12.054
25364W        W90349  39.498  34.537   4.026
25365W        W90350  24.902  26.735   2.124
25366W        W90351  30.401  17.324   1.688
25367W        W90352  28.612  20.733  13.650
25368W        W90353  34.598  26.330   3.636
25369W        W90354  30.107  27.641  11.144
25370W        W90355  10.541  31.929  11.882
25371W        W90356  39.786  30.470  12.632
25372W        W90357   0.223   8.977  14.935
25373W        W90358  35.408   7.277  14.135
25374W        W90359  14.652   3.566  10.635
25375W        W90360  17.110  13.227   1.341
25376W        W90361  43.271  17.185   2.425
25377W        W90362  21.396  10.117  14.472
25378W        W90363  32.041   8.740  14.383
25379W        W90364  17.622   3.316   1.921
25380W        W90365  12.647  34.451  14.001
25381W        W90366  42.916  36.016   1.681
25382W        W90367  30.417  19.599  10.588
25383W        W90368   2.154  23.270   4.147
25384W        W90369  32.963  12.387   3.157
25385W        W90370   4.822  26.478   1.907
25386W        W90371  44.353  21.393   4.957
25387W        W90372   8.213   6.962   4.475
25388W        W90373  34.831  14.554  11.080
25389W        W90374  36.020  36.654   1.868
25390W        W90375   5.138  24.437   0.768
25391W        W90376  34.062   7.712   5.426
25392W        W90377  29.387  43.019   1.251
25393W        W90378  14.611  10.556  14.452
25394W        W90379  20.666  25.764  12.425
25395W        W90380  15.145  21.725  13.654
25396W        W90381  37.914  10.576   1.656
25397W        W90382  21.231  27.553   3.252
25398W        W90383  14.296  26.538  14.479
25399W        W90384  40.792  37.584   4.488
25400W        W90385   7.102   5.340  14.752
25401W        W90386  30.903  36.072   2.290
25402W        W90387  44.020  23.566   2.752
25403W        W90388  28.503  15.023  13.202
25404W        W90389   1.899  38.179   2.821
25405W        W90390  31.017  17.555  14.116
25406W        W90391  17.872   3.755  11.544
25407W        W90392  37.128  30.115   3.659
25408W        W90393  43.968  17.525   0.378
25409W        W90394   8.251   3.384   4.216
25410W        W90395  30.544   6.269  10.726
25411W        W90396   3.192  28.010   0.747
25412W        W90397  23.640  34.060   3.207
25413W        W90398  42.954  32.616  14.703
25414W        W90399   8.366  41.693  13.019
25415W        W90400   5.903  24.274  12.901
25416W        W90401  38.595  33.488   1.833
25417W        W90402  38.923  32.933  11.897
25418W        W90403   3.003  11.212  11.533
25419W        W90404   6.688   3.486  13.095
25420W        W90405  11.563  39.092  11.869
25421W        W90406  24.528  41.459  11.614
25422W        W90407  23.965   2.000  12.039
25423W        W90408  24.185  33.875   4.043
25424W        W90409  28.907  38.825  13.365
25425W        W90410  14.078  26.098   1.839
25426W        W90411  26.107  18.367  11.948
25427W        W90412   0.028  21.976   4.223
25428W        W90413   7.696  13.097  13.552
25429W        W90414  43.165   4.444  13.877
25430W        W90415  13.395  23.551  11.142
25431W        W90416  27.865   0.725  14.994
25432W        W90417  32.198  39.936  13.877
25433W        W90418  12.367  21.644   3.513
25434W        W90419  18.659  40.363   1.501
25435W        W90420  36.674  26.685   2.305
25436W        W90421  14.236   1.419  11.482
25437W        W90422  11.063  25.033  11.053
25438W        W90423  21.059  36.648  12.415
25439W        W90424  22.925  25.042  11.145
25440W        W90425  32.532  23.233  11.392
25441W        W90426  30.894  28.601   2.838
25442W        W90427   7.867  10.890   0.353
25443W        W90428  21.055  32.362  14.162
25444W        W90429  42.469  20.252   3.256
25445W        W90430   1.891   9.442  11.031
25446W        W90431   3.998  44.489   0.466
25447W        W90432  39.592  39.478  14.928
25448W        W90433  22.536   9.493  13.942
25449W        W90434  32.368  26.872   0.249
25450W        W90435  23.232  35.790   2.428
25451W        W90436  37.124  44.295  11.989
25452W        W90437  37.926  26.695   0.750
25453W        W90438  34.950   9.390  10.830
25454W        W90439  16.541  19.990  11.084
25455W        W90440  10.243  15.065  11.516
25456W        W90441   9.795  12.526   4.502
25457W        W90442   0.390  32.478  11.130
25458W        W90443  37.728   2.880   3.752
25459W        W90444   3.272  21.559   4.810
25460W        W90445  33.401   1.989  12.846
25461W        W90446  23.733  38.401  14.034
25462W        W90447  43.241  38.983  14.813
25463W        W90448  43.489  42.376  12.026
25464W        W90449   4.323   5.485  10.077
25465W        W90450  18.845   4.224  12.381
25466W        W90451  11.579  17.026  11.590
25467W        W90452  40.341  35.414   2.248
25468W        W90453  23.541  35.878   0.466
25469W        W90454  35.556  14.694  13.493
25470W        W90455  24.084   2.795   3.243
25471W        W90456  26.074  30.155   3.574
25472W        W90457  20.753  43.249  14.890
25473W        W90458  40.233  16.391  12.534
25474W        W90459  24.716  31.431   0.897
25475W        W90460  17.760   2.591  14.414
25476W        W90461  15.261   9.733  10.634
25477W        W90462  37.940  22.844  12.426
25478W        W90463  13.610  13.029  11.103
25479W        W90464  29.516  12.435   4.314
25480W        W90465  44.279  41.918   3.004
25481W        W90466  23.261   8.108   2.770
25482W        W90467  20.580  22.231  14.485
25483W        W90468  18.242  21.794  13.634
25484W        W90469  16.534  13.386   0.253
25485W        W90470  32.360  19.056   1.014
25486W        W90471  37.887  38.733  11.136
25487W        W90472  27.600  10.294   2.577
25488W        W90473   8.866  41.423  10.408
25489W        W90474  38.122  29.568   4.595
25490W        W90475  23.022  14.336  10.306
25491W        W90476  26.848  29.195   1.870
25492W        W90477  21.752  33.997  12.496
25493W        W90478  36.819   5.843   3.652
25494W        W90479  12.182  36.910  12.866
25495W        W90480  18.106  26.520  11.310
25496W        W90481  29.183   0.445  12.936
25497W        W90482  29.677   8.431   0.365
25498W        W90483  25.990  14.613  11.468
25499W        W90484  42.263  28.658   5.412
25500W        W90485  24.055  13.772   0.231
25501W        W90486  38.505   5.234  11.794
25502W        W90487   1.989   9.381   0.834
25503W        W90488  18.759  23.050  12.250
25504W        W90489   5.189   8.250  13.077
25505W        W90490  11.263  34.621   2.878
25506W        W90491  38.448  38.098   4.704
25507W        W90492  26.866  28.857   4.536
25508W        W90493  16.612  12.864   3.219
25509W        W90494   1.703  43.120   2.116
25510W        W90495  16.281  38.632   0.709
25511W        W90496  13.155  19.225   1.542
25512W        W90497  34.556  28.591  11.500
25513W        W90498   3.784  10.438   1.931
25514W        W90499  44.303   7.513  13.802
25515W        W90500  34.707   7.330   2.172
25516W        W90501   6.884  15.859   2.044
25517W        W90502  43.375  41.776   3.326
25518W        W90503  28.019   4.360  10.040
25519W        W90504  15.963  19.804   4.106
25520W        W90505   8.090  12.102  13.971
25521W        W90506  40.868   2.896  13.466
25522W        W90507  44.822  44.000   1.271
25523W        W90508  22.260  20.936  12.023
25524W        W90509  23.504  32.904   0.546
25525W        W90510  31.028  40.552   0.009
25526W        W90511   6.210  26.170   3.106
25527W        W90512  26.179  16.714  14.324
25528W        W90513  41.584  32.887  14.973
25529W        W90514  41.945  12.529  10.603
25530W        W90515  22.204  36.526  14.485
25531W        W90516  36.434   5.292   2.399
25532W        W90517  19.268  33.384   0.670
25533W        W90518   1.274  25.911  14.439
25534W        W90519  28.441   7.811  14.403
25535W        W90520  15.155  41.845   2.216
25536W        W90521  11.344  27.890   1.685
25537W        W90522  43.769  37.172   1.254
25538W        W90523  27.349   8.742   1.856
25539W        W90524  16.096  44.307   2.447
25540W        W90525  20.640  28.492   1.826
25541W        W90526  30.240  10.917   0.263
25542W        W90527  26.638  18.693   1.179
25543W        W90528  43.360  14.273   1.631
25544W        W90529  27.468   5.945  11.513
25545W        W90530  29.122   9.612  12.440
25546W        W90531  35.032  15.366   4.110
25547W        W90532  24.344  18.358   5.153
25548W        W90533  28.542  28.448   2.611
25549W        W90534  42.065  23.409   2.969
25550W        W90535  28.783  16.680  14.360
25551W        W90536  34.014   4.516   1.872
25552W        W90537  24.293   1.347  14.742
25553W        W90538   5.800  39.042  13.285
25554W        W90539  28.576   3.879   3.342
25555W        W90540  13.060  13.590  12.838
25556W        W90541   0.028  10.170  14.166
25557W        W90542  29.464  20.701  14.897
25558W        W90543  18.683  23.673   1.533
25559W        W90544   9.359   0.539  13.307
25560W        W90545  24.051   0.351  11.849
25561W        W90546  25.178  20.593  13.953
25562W        W90547  21.547  34.071   2.927
25563W        W90548   9.013  27.931  13.539
25564W        W90549  38.893  43.793   4.358
25565W        W90550  39.785  26.794  11.602
25566W        W90551   3.771  18.015  11.115
25567W        W90552  19.143   9.221  11.600
25568W        W90553  14.793  13.661   2.347
25569W        W90554  13.660  43.074  13.850
25570W        W90555  29.465  29.334  13.940
25571W        W90556  18.507   0.366   4.225
25572W        W90557  41.579  30.381   2.811
25573W        W90558   7.438  41.926   2.426
25574W        W90559  41.977  42.864   3.133
25575W        W90560  20.270  10.923  14.484
25576W        W90561  16.521   7.472   4.925
25577W        W90562  23.480  22.046   4.433
25578W        W90563   6.184  31.087  12.525
25579W        W90564  40.437   4.920  12.079
25580W        W90565   2.441   9.263  13.952
25581W        W90566  39.627   3.520   1.405
25582W        W90567  34.318  16.351  13.993
25583W        W90568  36.640  10.416   0.864
25584W        W90569  33.080   2.897  13.415
25585W        W90570   4.492  44.932  11.911
25586W        W90571  34.941   3.522   2.827
25587W        W90572  16.713  22.500   4.212
25588W        W90573   6.351  23.650  12.562
25589W        W90574   0.855  11.342   3.597
25590W        W90575  34.051  23.579   2.228
25591W        W90576  31.514  25.408   2.655
25592W        W90577  15.154   4.393  11.953
25593W        W90578  18.206  35.954   1.163
25594W        W90579  37.080   8.747  14.783
25595W        W90580  14.025  29.999  12.521
25596W        W90581  44.404  31.365  14.025
25597W        W90582  15.518  33.541   4.190
25598W        W90583  33.156  43.804  11.537
25599W        W90584  28.195  11.858  11.121
25600W        W90585  27.959  16.647  13.985
25601W        W90586  33.635  14.756   0.334
25602W        W90587  37.110  27.511  10.680
25603W        W90588  26.225  40.723  14.403
25604W        W90589  24.955  20.689   3.789
25605W        W90590  41.048  13.585   2.409
25606W        W90591  43.903  40.698  10.356
25607W        W90592   6.261  10.150  10.779
25608W        W90593   7.443  11.885   0.948
25609W        W90594  20.993  42.411  11.602
25610W        W90595  34.853  31.147  14.559
25611W        W90596   2.769   6.525   0.090
25612W        W90597  36.538  21.026   3.712
25613W        W90598  18.528  41.809  11.564
25614W        W90599  33.595   1.378  10.691
25615W        W90600   5.829  33.993   1.188
25616W        W90601  36.649  16.929   3.579
25617W        W90602  19.648  30.668  10.471
25618W        W90603  37.449  29.624   4.051
25619W        W90604  28.052  26.568   4.624
25620W        W90605  20.278   1.831   3.367
25621W        W90606  33.919  23.732   0.016
25622W        W90607  14.839  18.183  13.074
25623W        W90608  40.293  28.585  12.533
25624W        W90609  29.938   8.751  13.515
25625W        W90610  30.029  25.800   2.581
25626W        W90611  17.770  36.511   3.779
25627W        W90612  27.199  40.028  14.140
25628W        W90613  33.126  10.162  14.457
25629W        W90614  36.926   8.389  10.101
25630W        W90615   9.448  14.663  13.864
25631W        W90616  19.129  23.751  12.165
25632W        W90617  11.686  10.783   3.916
25633W        W90618   9.774  33.214   0.537
25634W        W90619  22.712  24.682  14.281
25635W        W90620  33.594   2.505   4.263
25636W        W90621  29.572   6.890   4.117
25637W        W90622  13.846  26.063   2.297
25638W        W90623  36.476   1.719  14.861
25639W        W90624  44.610  37.303  11.147
25640W        W90625  26.182  43.536   4.707
25641W        W90626  39.222  27.089  14.416
25642W        W90627  16.543   3.266   4.575
25643W        W90628  16.573   8.224  14.553
25644W        W90629  43.355  31.843  14.730
25645W        W90630  15.120  31.509   1.781
25646W        W90631  20.486  22.584  13.411
25647W        W90632  40.814  40.234  14.312
25648W        W90633   0.078  12.294  14.020
25649W        W90634  24.670  37.051  10.492
25650W        W90635  34.206   5.119   1.167
25651W        W90636  14.359  18.159   0.763
25652W        W90637  14.104  19.937  13.921
25653W        W90638  14.163  19.436  13.998
25654W        W90639  13.866   9.602  11.196
25655W        W90640  34.533  39.032   4.583
25656W        W90641  43.317  33.409   1.225
25657W        W90642   2.980  41.586   1.596
25658W        W90643   7.369  33.062   0.075
25659W        W90644  42.835  26.538  13.019
25660W        W90645  16.291   9.906  13.548
25661W        W90646  26.775  33.937   2.979
25662W        W90647  17.198   6.550  10.289
25663W        W90648   1.219  17.724  12.793
25664W        W90649  44.560  18.585   0.072
25665W        W90650  28.618   3.478   1.285
25666W        W90651  26.550  29.117  14.336
25667W        W90652  17.577  21.160   3.853
25668W        W90653  16.024  35.515  13.540
25669W        W90654  44.903  38.914  13.907
25670W        W90655  37.002  21.994   0.529
25671W        W90656   4.375  39.016  13.461
25672W        W90657  32.136  23.705   4.679
25673W        W90658  11.158  14.289  13.303
25674W        W90659   6.844   2.256   4.710
25675W        W90660   0.826  39.143  10.802
25676W        W90661  16.646  10.529  13.195
25677W        W90662  25.644   0.545   0.699
25678W        W90663  40.928   4.431   3.995
25679W        W90664  36.760  33.880   1.772
25680W        W90665   8.980   9.323   0.516
25681W        W90666  39.389   3.362  12.412
25682W        W90667  20.135  41.063  14.421
25683W        W90668  40.002  20.270   4.793
25684W        W90669  19.027  21.790  11.107
25685W        W90670  26.392  18.393   3.174
25686W        W90671  37.679  12.253   0.532
25687W        W90672  19.131  37.103   2.056
25688W        W90673   4.935  11.314   1.456
25689W        W90674  42.606  33.159   3.502
25690W        W90675  15.983   2.767  14.557
25691W        W90676  37.195  33.294   0.814
25692W        W90677  37.470  35.712   4.069
25693W        W90678  20.209  36.540  13.298
25694W        W90679  39.652   6.296  11.610
25695W        W90680  27.332  24.443   3.857
25696W        W90681   6.052  35.296  14.458
25697W        W90682  14.817  18.278   2.388
25698W        W90683   9.424   9.086   0.368
25699W        W90684  44.982  15.023  13.924
25700W        W90685  37.409  29.678   5.072
25701W        W90686  27.853   3.748   4.931
25702W        W90687  38.038  25.629   2.286
25703W        W90688  35.877  10.125   3.259
25704W        W90689  14.249  41.455   2.926
25705W        W90690  25.635  12.625  12.925
25706W        W90691  27.518  19.951  12.155
25707W        W90692   3.479  28.089  12.990
25708W        W90693   6.267  31.611  10.875
25709W        W90694  34.829  30.888  10.556
25710W        W90695  26.097  40.618   4.049
25711W        W90696  24.665   9.397  11.549
25712W        W90697  42.452  43.776   1.200
25713W        W90698  14.016   4.883   0.894
25714W        W90699   0.140  17.464  13.771
25715W        W90700  24.279  44.401   0.193
25716W        W90701  16.702  43.331  11.009
25717W        W90702  29.520   7.915  12.103
25718W        W90703   1.360  10.746  12.154
25719W        W90704   9.494  16.647   1.512
25720W        W90705  25.926  27.247   0.309
25721W        W90706  41.073  26.984   3.095
25722W        W90707  12.929  31.041  11.263
25723W        W90708  31.535  28.131   2.337
25724W        W90709   0.087  36.093  12.908
25725W        W90710  27.196  25.602  11.531
25726W        W90711  11.339  22.571  13.491
25727W        W90712  17.264  35.034  12.127
25728W        W90713  29.685  22.603  10.654
25729W        W90714   2.126   8.449  10.781
25730W        W90715  16.602  20.147  13.569
25731W        W90716  41.129  37.099   2.209
25732W        W90717  11.234  31.193   0.799
25733W        W90718  43.319  27.181   0.810
25734W        W90719  10.519  15.596  13.757
25735W        W90720  16.615  18.864   3.176
25736W        W90721  40.418  14.833   1.894
25737W        W90722  11.817  26.865   3.333
25738W        W90723  10.358  42.133  11.636
25739W        W90724  11.881  20.306  13.389
25740W        W90725  30.322   1.427   0.192
25741W        W90726  10.898  12.297   0.474
25742W        W90727  19.025  16.768   4.185
25743W        W90728  17.314   0.077   0.870
25744W        W90729   5.433  25.613   1.677
25745W        W90730  24.944  38.876  11.528
25746W        W90731   5.441  15.855   4.370
25747W        W90732   9.306  38.425   0.626
25748W        W90733  17.491  28.764   5.241
25749W        W90734  20.068   4.064   3.388
25750W        W90735  42.776  26.265   0.865
25751W        W90736  41.385  11.244   1.305
25752W        W90737  35.872  40.250   3.413
25753W        W90738  18.257   0.288   1.361
25754W        W90739   9.157  28.043  11.140
25755W        W90740  29.704  37.664   1.770
25756W        W90741  42.981  11.984  10.854
25757W        W90742  10.642  11.929   1.398
25758W        W90743   2.240  16.597   1.783
25759W        W90744  14.615  44.406  11.548
25760W        W90745  33.154  44.777   0.566
25761W        W90746  13.833  14.411   2.849
25762W        W90747  15.559   2.961  13.094
25763W        W90748   3.438   5.065  11.665
25764W        W90749   8.021  32.948   4.926
25765W        W90750  20.074  12.784  12.832
25766W        W90751  22.514  29.941   1.819
25767W        W90752  18.222  12.124  12.511
25768W        W90753  32.547  22.414  10.738
25769W        W90754   9.668  31.896  14.392
25770W        W90755  14.353   7.360   3.882
25771W        W90756  44.056   7.629  14.734
25772W        W90757   3.383  38.615  13.519
25773W        W90758   4.856  42.789  10.186
25774W        W90759  35.975  39.282   2.364
25775W        W90760  35.368  15.261   0.713
25776W        W90761  19.419  10.872   2.348
25777W        W90762  24.714   5.797  13.498
25778W        W90763  27.083   0.688  11.581
25779W        W90764  11.081  29.829   1.449
25780W        W90765  36.164  24.515  11.814
25781W        W90766   9.726  41.429  12.391
25782W        W90767  23.464   0.852   4.487
25783W        W90768  22.004  21.218  14.780
25784W        W90769  36.062  21.740   1.703
25785W        W90770  31.069  16.640   3.388
25786W        W90771  41.508   6.253   2.221
25787W        W90772  11.251  13.025  14.424
25788W        W90773  43.455   9.259   1.539
25789W        W90774  23.505  44.038  12.092
25790W        W90775   4.671  30.865   3.292
25791W        W90776   6.317  33.883  12.162
25792W        W90777  17.773  25.869   3.941
25793W        W90778  20.187  11.703  12.043
25794W        W90779  30.005   9.894  11.057
25795W        W90780  21.705   3.433  14.473
25796W        W90781   2.300   2.868   4.472
25797W        W90782   2.655  21.035   0.488
25798W        W90783  37.795  20.215  13.945
25799W        W90784  35.890  18.672   1.127
25800W        W90785   0.701  29.872  10.443
25801W        W90786   0.603   6.429  13.885
25802W        W90787  16.605   0.037  13.797
25803W        W90788  11.742  28.908   0.833
25804W        W90789  10.550   6.929  11.026
25805W        W90790  44.310  18.522   4.451
25806W        W90791  26.466  24.692   3.254
25807W        W90792  31.053  34.372  12.500
25808W        W90793  13.505  11.333  11.670
25809W        W90794   6.233  11.075  12.559
25810W        W90795  40.821   3.417  13.544
25811W        W90796  31.906  20.059   2.690
25812W        W90797  15.825  12.689  13.508
25813W        W90798  34.078   1.780   2.803
25814W        W90799  37.487   0.508   2.197
25815W        W90800  39.382  14.994   3.199
25816W        W90801  44.934  15.735  14.506
25817W        W90802  44.226  40.470  14.758
25818W        W90803  28.122  42.458  11.123
25819W        W90804  31.135  24.528  12.609
25820W        W90805  23.871  36.395   1.112
25821W        W90806  12.908  22.724   0.523
25822W        W90807  26.606  35.561   4.369
25823W        W90808  24.147  26.031   3.037
25824W        W90809  44.129  26.165   1.424
25825W        W90810  18.754  44.877  12.878
25826W        W90811   9.285  29.842   1.871
25827W        W90812  33.026  22.009   2.527
25828W        W90813  17.020  30.756   2.866
25829W        W90814  40.414  39.003   1.537
25830W        W90815  31.129  42.536   2.286
25831W        W90816  32.934  21.507   2.637
25832W        W90817   7.872  26.880   0.291
25833W        W90818   4.777  40.481   1.765
25834W        W90819  38.751  27.115  11.248
25835W        W90820   4.963   3.657   1.408
25836W        W90821  39.482  28.001  12.621
25837W        W90822   3.664   7.796   5.079
25838W        W90823  33.527   7.856  12.949
25839W        W90824  42.026   6.481  14.811
25840W        W90825  22.710  39.388   0.012
25841W        W90826  38.856  25.702  14.694
25842W        W90827  25.453  37.358  14.814
25843W        W90828   0.497   9.376   0.999
25844W        W90829  37.630   9.366   0.304
25845W        W90830  39.127  13.902   0.775
25846W        W90831   6.439   2.458  13.514
25847W        W90832   2.685  41.345   1.240
25848W        W90833  15.585   5.490   3.264
25849W        W90834  16.811  19.162  12.598
25850W        W90835  22.575  27.997  13.060
25851W        W90836  25.508  19.324   1.267
25852W        W90837  33.077  28.413   2.401
25853W        W90838  20.601   1.928  13.846
25854W        W90839  43.918  41.984  12.814
25855W        W90840  26.074  20.499   0.015
25856W        W90841  38.231  33.002  14.580
25857W        W90842  10.397  37.752   4.578
25858W        W90843  44.769  30.838  11.990
25859W        W90844  42.606   1.877   0.543
25860W        W90845  29.953  39.921  14.400
25861W        W90846  21.200  36.589   0.265
25862W        W90847  26.620  15.802   2.817
25863W        W90848   9.754  31.061  12.439
25864W        W90849  36.588  38.451  10.691
25865W        W90850   7.258   8.521   2.765
25866W        W90851  21.468  41.528   4.419
25867W        W90852   5.316  38.450   1.883
25868W        W90853   4.127  27.964   1.662
25869W        W90854  41.826  44.269   2.818
25870W        W90855  33.342  44.340   1.014
25871W        W90856  32.339  36.009  10.413
25872W        W90857  37.184  33.955  14.117
25873W        W90858  41.725  20.471   0.506
25874W        W90859  42.893  29.182  11.558
25875W        W90860   4.685  29.007   0.519
25876W        W90861  15.487  23.311   3.259
25877W        W90862   1.443  43.850  14.359
25878W        W90863  12.979  30.057  14.265
25879W        W90864  12.822  31.912   2.660
25880W        W90865  42.336  31.424   0.900
25881W        W90866  32.548   9.959   1.300
25882W        W90867  13.322  20.290  14.308
25883W        W90868  44.773  31.219  11.066
25884W        W90869   2.695   4.408   1.845
25885W        W90870  17.692  14.407   3.751
25886W        W90871   1.950   7.990  11.208
25887W        W90872  42.976  34.715  12.310
25888W        W90873  15.058   5.184   2.859
25889W        W90874  42.291  36.571   3.190
25890W        W90875  31.909  30.761  13.113
25891W        W90876   2.055  16.796  13.492
25892W        W90877  42.452  14.251   1.627
25893W        W90878  22.463  34.177   2.493
25894W        W90879  32.046  41.852   1.695
25895W        W90880  15.840  33.958  13.197
25896W        W90881  19.757   4.185  10.482
25897W        W90882  17.377  30.876  12.361
25898W        W90883  24.742  36.511   0.702
25899W        W90884  33.796  10.425  13.240
25900W        W90885   8.412  40.195   1.084
25901W        W90886  23.677  41.779   1.758
25902W        W90887  30.368  12.371  13.098
25903W        W90888  31.014  23.286   0.775
25904W        W90889  32.462  44.982  11.545
25905W        W90890   6.257  38.235  12.479
25906W        W90891  32.947  40.723   0.715
25907W        W90892  22.245  12.959   1.082
25908W        W90893  24.291  34.166  12.192
25909W        W90894  27.725  16.758  11.584
25910W        W90895  28.465  37.530  13.099
25911W        W90896  37.997   7.456  12.983
25912W        W90897  24.672  13.249   4.394
25913W        W90898  16.619  18.249   0.346
25914W        W90899  33.867   2.975  12.090
25915W        W90900  27.643  41.382  13.840
25916W        W90901  18.161  31.579   4.464
25917W        W90902  14.594  19.240   3.167
25918W        W90903  26.771  41.054   0.228
25919W        W90904  44.534  35.148  10.052
25920W        W90905  34.467   6.853   2.139
25921W        W90906  30.100  31.133   1.199
25922W        W90907  28.951   8.377   0.065
25923W        W90908  10.130   1.206   0.893
25924W        W90909  23.994  43.771   0.081
25925W        W90910  32.619  33.486   4.820
25926W        W90911  30.083  41.010  13.987
25927W        W90912  42.045  23.621   1.239
25928W        W90913  39.854   7.952  13.643
25929W        W90914  39.127  33.491   1.891
25930W        W90915  32.000  27.019   1.808
25931W        W90916  32.074   5.029   4.759
25932W        W90917   6.670  43.855   0.745
25933W        W90918  15.720  34.315  10.773
25934W        W90919   7.329  27.128  14.367
25935W        W90920  28.176   0.592   0.392
25936W        W90921   1.611  25.395   2.389
25937W        W90922  22.620  42.359  12.587
25938W        W90923  39.208   2.719  11.233
25939W        W90924   3.254  32.892  13.194
25940W        W90925  24.956  11.287  14.928
25941W        W90926  11.339  43.227  14.511
25942W        W90927  24.746  35.498  14.851
25943W        W90928   8.077  30.128  11.683
25944W        W90929   1.328  36.887   1.243
25945W        W90930   2.015   3.136  11.521
25946W        W90931  29.244  24.903  12.365
25947W        W90932  19.394  43.347   1.660
25948W        W90933  11.208  18.121   4.180
25949W        W90934  29.494   3.006  14.692
25950W        W90935  11.114  13.557  13.069
25951W        W90936  14.221   5.497   2.369
25952W        W90937  33.525  30.934   0.855
25953W        W90938  16.618  41.407   4.386
25954W        W90939   9.261  35.949   3.263
25955W        W90940  42.496  19.832   0.795
25956W        W90941   5.491  39.390   4.407
25957W        W90942   7.928  14.678   1.305
25958W        W90943  25.586  35.066   2.039
25959W        W90944   5.352  11.231   0.292
25960W        W90945  34.048  10.931   3.717
25961W        W90946  32.045  22.925  14.850
25962W        W90947  12.860  12.704   2.781
25963W        W90948  16.064  30.538  12.980
25964W        W90949  15.586  41.872  13.308
25965W        W90950   4.361   0.877   3.746
25966W        W90951  38.765  43.431  12.824
25967W        W90952  14.963   0.182   2.001
25968W        W90953  22.279   4.315   0.593
25969W        W90954   6.080  30.998   4.284
25970W        W90955   5.523  40.282   1.693
25971W        W90956   1.180   6.461   4.162
25972W        W90957  39.919   8.805   1.982
25973W        W90958  18.127  31.927   2.121
25974W        W90959  10.754  29.327   3.196
25975W        W90960  25.578  20.677   2.272
25976W        W90961  17.057  37.848  13.363
25977W        W90962  37.626  34.094   1.353
25978W        W90963  44.756   7.398   2.126
25979W        W90964  31.162  43.590   2.811
25980W        W90965  31.618  42.799   0.945
25981W        W90966   0.358  44.185   4.620
25982W        W90967  34.435  10.970   4.072
25983W        W90968  18.301  11.424   3.313
25984W        W90969  19.605  41.474   3.347
25985W        W90970  10.274  35.368   0.763
25986W        W90971   7.863  19.856  13.391
25987W        W90972   9.008  29.381  13.942
25988W        W90973  29.049   1.245  12.341
25989W        W90974  21.377  40.899  13.830
25990W        W90975  33.438  43.516   0.007
25991W        W90976  23.723  38.125   3.369
25992W        W90977  24.669  19.858   4.925
25993W        W90978  18.286  38.330   3.175
25994W        W90979   5.203   2.273  12.300
25995W        W90980   0.383   9.687   1.409
25996W        W90981  13.377  33.183   4.992
25997W        W90982   1.701  27.089   1.393
25998W        W90983  42.268   4.116  12.167
25999W        W90984   5.348  34.374   2.247
26000W        W90985   8.449  33.043   4.627
26001W        W90986  26.175   3.703   2.316
26002W        W90987  11.434  24.583   1.913
26003W        W90988   9.962  22.101   3.552
26004W        W90989  16.071  17.133  12.101
26005W        W90990   9.426  36.683   4.180
26006W        W90991  41.826  23.762  13.506
26007W        W90992  19.077  40.417  10.681
26008W        W90993   4.669  14.195   1.671
26009W        W90994  20.767  22.330   2.688
26010W        W90995   5.944  35.016  12.253
26011W        W90996  24.641   0.386   4.071
26012W        W90997  18.431  31.552  13.242
26013W        W90998  18.268  34.424   1.334
26014W        W90999  20.303   4.364  14.929
26015W        W91000  32.529  28.481  11.433
26016W        W91001   8.733   3.454  14.368
26017W        W91002  18.286   2.881   0.838
26018W        W91003  26.008  26.457   9.984
26019W        W91004  36.529  27.579  13.955
26020W        W91005  24.672  11.407   3.684
26021W        W91006  10.281  12.315   2.262
26022W        W91007   5.452   5.512  13.559
26023W        W91008  27.592  44.702  13.531
26024W        W91009  23.834  22.476  11.572
26025W        W91010  32.642   2.435  11.054
26026W        W91011  19.052  16.792  11.959
26027W        W91012  29.725  40.282   2.138
26028W        W91013  41.981  29.132   1.916
26029W        W91014  18.121  23.226   0.502
26030W        W91015  32.904   4.742  12.946
26031W        W91016  38.296   4.569  14.851
26032W        W91017  15.403   1.895   4.167
26033W        W91018  21.595  40.674   4.601
26034W        W91019   5.916  26.724   1.268
26035W        W91020  42.053  25.934   0.403
26036W        W91021  30.129  39.588  11.939
26037W        W91022   1.219  39.530  10.731
26038W        W91023   1.469  20.130  12.767
26039W        W91024  11.069  27.250  10.922
26040W        W91025   6.938   6.347  13.786
26041W        W91026   6.921  15.200  13.393
26042W        W91027  31.960  12.338   2.445
26043W        W91028  14.073  44.449   9.947
26044W        W91029  10.452  32.381  11.652
26045W        W91030  41.211   5.105  11.184
26046W        W91031  21.413  14.042  11.557
26047W        W91032  31.863  17.091  11.222
26048W        W91033  26.476  32.497  11.985
26049W        W91034  34.379  37.893   1.707
26050W        W91035  38.059   2.491   3.798
26051W        W91036  30.486  10.888  14.796
26052W        W91037  37.891  24.533  14.919
26053W        W91038   1.456   0.211   2.430
26054W        W91039  17.502  14.808  10.665
26055W        W91040  18.687  33.203  10.394
26056W        W91041  41.153  37.890   2.840
26057W        W91042  36.810  17.845   1.684
26058W        W91043  44.269   2.236  12.597
26059W        W91044  18.740  28.161   0.004
26060W        W91045  30.844  18.489  10.932
26061W        W91046  36.907  12.661   4.241
26062W        W91047   5.346   0.739   0.888
26063W        W91048  32.994  34.192  13.536
26064W        W91049  20.246  21.132   0.952
26065W        W91050   5.278  13.844   4.153
26066W        W91051  11.731  10.954  12.009
26067W        W91052  44.887  32.242  11.074
26068W        W91053   3.706  24.979  13.489
26069W        W91054  22.832   9.802  12.487
26070W        W91055  40.884  14.770  14.207
26071W        W91056  15.825  37.983   0.865
26072W        W91057  25.004   2.930   0.314
26073W        W91058  16.341  34.806  11.171
26074W        W91059  38.245   2.838  12.109
26075W        W91060  28.129  34.604  13.426
26076W        W91061   8.776  43.836   2.693
26077W        W91062  41.547  30.211  12.913
26078W        W91063  24.215   3.800   1.911
26079W        W91064  37.752  24.196  13.707
26080W        W91065  39.532  42.558   4.283
26081W        W91066   5.652   4.698  11.343
26082W        W91067  30.630  38.849  12.624
26083W        W91068   2.936   4.253   1.394
26084W        W91069  25.582  34.098   4.330
26085W        W91070  22.495  12.286   3.242
26086W        W91071  31.171  11.102   4.020
26087W        W91072  14.846  19.737   0.468
26088W        W91073  16.244  25.225  10.053
26089W        W91074  43.449  21.108   4.096
26090W        W91075  24.031  30.611   0.714
26091W        W91076   1.994  13.042  13.143
26092W        W91077   9.244   0.226   4.089
26093W        W91078  26.221  32.181  10.680
26094W        W91079   3.245   5.715   3.635
26095W        W91080  43.433  32.365  14.793
26096W        W91081  29.684  10.191  13.390
26097W        W91082  31.418  26.472   3.336
26098W        W91083  39.539  19.978  10.355
26099W        W91084   8.329  18.774   0.012
26100W        W91085  26.135  42.489  13.381
26101W        W91086   6.727  24.668   2.534
26102W        W91087   3.190   7.313   4.261
26103W        W91088   2.792  17.812  12.425
26104W        W91089   4.841  22.519  10.978
26105W        W91090  11.051  30.441   3.665
26106W        W91091  30.928  42.878   3.586
26107W        W91092   4.311  44.621   3.598
26108W        W91093  41.919  28.552   2.780
26109W        W91094  36.262  39.153  10.304
26110W        W91095  35.066  31.166   0.009
26111W        W91096   5.541  29.695  14.467
26112W        W91097  38.505   4.987  12.251
26113W        W91098   9.215  18.247   1.226
26114W        W91099  19.116  13.821  12.192
26115W        W91100  14.133   8.905  11.584
26116W        W91101  16.582  10.855   4.007
26117W        W91102  36.608  11.129   2.143
26118W        W91103  38.135   4.674   2.427
26119W        W91104  20.751  41.440   0.286
26120W        W91105  40.360  26.134   1.053
26121W        W91106  37.417  24.660   0.035
26122W        W91107   2.028  33.355   3.220
26123W        W91108  22.515  17.627  14.495
26124W        W91109   9.544  35.060  13.810
26125W        W91110  44.935  28.933  11.022
26126W        W91111  25.119  27.395  12.080
26127W        W91112  43.140   0.592   9.854
26128W        W91113  23.958  22.536   2.316
26129W        W91114  36.539  10.259   2.656
26130W        W91115   0.331  34.605   3.526
26131W        W91116  24.048  23.976  10.757
26132W        W91117  33.626  18.553  11.105
26133W        W91118   6.186  40.294   3.304
26134W        W91119  30.000  29.524   3.290
26135W        W91120  18.104  36.432  11.029
26136W        W91121  21.236  29.848  13.218
26137W        W91122  36.937  34.643  13.017
26138W        W91123  40.545  42.916  12.575
26139W        W91124   5.963  19.645  11.156
26140W        W91125   6.658  31.639   1.483
26141W        W91126  12.590  25.529   2.827
26142W        W91127  34.194  14.604  14.357
26143W        W91128  11.771  34.032  10.826
26144W        W91129  33.872   7.622  11.600
26145W        W91130   0.549  17.005  12.883
26146W        W91131  16.142  14.114   2.404
26147W        W91132   5.129  12.674   4.753
26148W        W91133  22.537  29.838   3.961
26149W        W91134  10.780   1.447  13.796
26150W        W91135  33.454  32.868  11.428
26151W        W91136  40.313  21.651   2.708
26152W        W91137  31.011  39.154   3.315
26153W        W91138  19.841   0.893   4.638
26154W        W91139  26.670  28.424   0.560
26155W        W91140  23.507  20.191   3.000
26156W        W91141  10.693   9.852  10.492
26157W        W91142  35.457  30.545  12.477
26158W        W91143  33.953  16.580  12.051
26159W        W91144   3.493  22.078  12.502
26160W        W91145  29.576  18.572   2.882
26161W        W91146  18.236   9.612  13.960
26162W        W91147  40.406   6.693   2.344
26163W        W91148  28.951  39.620   3.707
26164W        W91149  21.189  23.521   0.960
26165W        W91150  21.838  32.402   4.641
26166W        W91151  24.242  35.510   3.060
26167W        W91152  36.254  32.293   3.339
26168W        W91153   6.837  31.436   4.662
26169W        W91154  27.757  40.972  14.327
26170W        W91155   7.643   7.686   2.626
26171W        W91156  25.124   9.088   0.379
26172W        W91157   5.702  37.235   3.515
26173W        W91158  39.270  31.597   3.876
26174W        W91159   1.776  32.184  13.810
26175W        W91160   6.255  31.279  10.495
26176W        W91161  33.890   1.708   1.462
26177W        W91162   2.809  30.123  12.387
26178W        W91163   8.167  42.256  11.235
26179W        W91164  35.333  40.696   3.772
26180W        W91165   7.880  20.712  10.746
26181W        W91166  19.253  30.307  14.762
26182W        W91167  41.788  24.949  14.312
26183W        W91168  28.192  14.636   1.751
26184W        W91169  33.431  24.661  14.874
26185W        W91170  35.557  37.521  11.006
26186W        W91171  37.321   0.625  12.366
26187W        W91172  15.116   7.371  11.712
26188W        W91173  28.069  34.944   2.306
26189W        W91174  44.791  34.481  11.605
26190W        W91175   6.652  40.909   2.830
26191W        W91176  22.180  29.096  12.626
26192W        W91177  38.111  15.745  12.622
26193W        W91178  33.486  38.579  13.465
26194W        W91179  31.535  42.479  12.482
26195W        W91180  26.504   7.836  12.791
26196W        W91181   7.188   9.667   1.317
26197W        W91182  12.804  23.635   0.301
26198W        W91183   1.081  13.434  12.922
26199W        W91184   0.000   9.432  11.159
26200W        W91185   9.060  33.617   4.274
26201W        W91186  28.992  41.095   3.702
26202W        W91187   7.795  32.160   2.713
26203W        W91188   1.119  26.081  13.953
26204W        W91189  25.852  33.638  11.709
26205W        W91190  20.686  17.398  10.792
26206W        W91191  31.915  11.887   0.792
26207W        W91192   8.817   7.690   4.017
26208W        W91193  22.214  41.684  10.531
26209W        W91194  41.054   3.166   0.916
26210W        W91195  20.191  36.547   0.412
26211W        W91196  18.671  42.922   3.757
26212W        W91197  30.798  23.812   0.736
26213W        W91198   8.271   2.978   1.303
26214W        W91199  44.566  34.867   5.213
26215W        W91200   0.537   7.461   3.285
26216W        W91201  37.223  21.669   3.840
26217W        W91202   7.456  36.313   0.731
26218W        W91203   5.420  17.024   3.544
26219W        W91204  36.026  20.706  13.935
26220W        W91205   7.964  36.458   0.520
26221W        W91206  21.544   2.495   2.783
26222W        W91207  23.544  34.792  13.074
26223W        W91208   8.031  20.457  11.599
26224W        W91209   3.084  42.442   4.794
26225W        W91210  41.091  12.552   1.597
26226W        W91211  24.805  36.284   4.133
26227W        W91212   2.606   1.542   0.910
26228W        W91213  39.536   1.443  14.724
26229W        W91214  38.314   5.941   2.727
26230W        W91215   3.452  27.595   4.791
26231W        W91216   6.753  38.049   2.902
26232W        W91217   2.372  19.511  13.968
26233W        W91218  11.683  30.490   5.125
26234W        W91219  15.862   2.261   2.301
26235W        W91220  20.258   7.424  14.779
26236W        W91221  17.748  38.729  12.490
26237W        W91222  28.560  22.352   3.311
26238W        W91223  36.027  17.209   1.925
26239W        W91224  13.650  27.044  10.365
26240W        W91225  20.316  22.019   2.634
26241W        W91226  13.719  28.414  11.538
26242W        W91227   6.701  41.748   1.337
26243W        W91228  14.050   1.810   0.072
26244W        W91229  39.441  17.243   5.647
26245W        W91230   5.489  19.626  10.950
26246W        W91231   4.161   7.937   3.131
26247W        W91232   2.977  30.895   1.755
26248W        W91233  30.900  33.594  13.746
26249W        W91234   4.367  27.240  10.733
26250W        W91235  34.140  20.824   4.169
26251W        W91236  17.527  14.209  13.042
26252W        W91237  35.461  21.177   2.251
26253W        W91238  30.381   2.303   0.461
26254W        W91239   5.889  34.437  11.533
26255W        W91240  41.797  40.436   9.962
26256W        W91241  42.464  39.633  11.413
26257W        W91242  20.714   5.721  12.470
26258W        W91243   3.857  41.600  13.050
26259W        W91244  16.171  22.495   0.317
26260W        W91245   3.585   5.504  11.956
26261W        W91246  13.897  28.579  14.415
26262W        W91247  32.057  12.239  13.965
26263W        W91248  44.712  31.936   3.635
26264W        W91249  10.814   5.469  11.182
26265W        W91250  22.799  42.501  11.577
26266W        W91251  39.477  40.834   2.404
26267W        W91252  20.414  10.389   0.804
26268W        W91253  18.188  29.988  11.612
26269W        W91254  28.098   8.770  13.417
26270W        W91255  25.616  41.104   1.694
26271W        W91256   8.273  31.974  14.628
26272W        W91257  40.957  35.035   2.763
26273W        W91258  30.719  20.259  11.107
26274W        W91259  22.243   7.697  14.903
26275W        W91260  42.029  30.017   0.909
26276W        W91261  12.019  37.632   5.254
26277W        W91262   6.897  13.293  12.380
26278W        W91263  40.629   6.953   3.844
26279W        W91264  34.400  23.143  11.230
26280W        W91265  14.563  43.509  11.951
26281W        W91266  37.319   7.056   1.795
26282W        W91267  26.368  27.106  11.141
26283W        W91268  11.360  43.983  10.756
26284W        W91269  28.051  44.853   2.712
26285W        W91270  15.997   2.900   3.185
26286W        W91271  27.788   8.237  11.721
26287W        W91272  36.958   4.533  12.178
26288W        W91273  38.409  40.453   3.701
26289W        W91274  18.553  26.056  11.603
26290W        W91275  10.162  28.200   4.210
26291W        W91276  14.912   2.758   4.976
26292W        W91277  39.087  16.344   4.602
26293W        W91278  25.949  25.191   2.688
26294W        W91279  42.380  17.756  10.371
26295W        W91280  41.972  16.526   0.150
26296W        W91281  18.217   6.518  14.406
26297W        W91282  25.775  19.155   0.859
26298W        W91283  32.032  27.639  13.427
26299W        W91284  32.080   0.677  11.087
26300W        W91285  28.460  32.999  12.659
26301W        W91286  27.262  29.020  11.173
26302W        W91287  42.332  14.079   4.126
26303W        W91288  43.341   7.084   1.654
26304W        W91289  17.180  19.397  11.925
26305W        W91290   1.988   0.932  10.531
26306W        W91291  40.890  36.389  11.855
26307W        W91292  16.701  14.589  13.785
26308W        W91293   1.815  41.394   4.593
26309W        W91294   4.393  25.227  11.049
26310W        W91295   0.331   9.388  10.712
26311W        W91296  29.942   6.599   1.647
26312W        W91297   4.252  40.768  12.989
26313W        W91298  32.918  28.145  13.388
26314W        W91299  33.610  19.123  11.639
26315W        W91300  20.647  21.490   0.462
26316W        W91301  10.382  27.416   3.168
26317W        W91302   7.841  41.414  11.620
26318W        W91303  37.865  19.342   0.808
26319W        W91304   4.408  11.590   1.939
26320W        W91305  35.400   4.941   2.775
26321W        W91306  31.199   1.921  13.538
26322W        W91307  11.762  23.631  11.015
26323W        W91308  20.168  15.286   2.098
26324W        W91309  25.824  42.546  14.356
26325W        W91310   0.553  18.619   4.978
26326W        W91311  40.365   1.282  12.150
26327W        W91312  12.364  42.541   1.677
26328W        W91313  12.858  27.986   0.751
26329W        W91314  13.323  23.731  13.561
26330W        W91315   7.567  35.318   0.297
26331W        W91316  35.626  17.052   1.152
26332W        W91317  28.703  43.008  12.842
26333W        W91318  43.340  21.350   1.305
26334W        W91319  21.730  25.236   1.123
26335W        W91320  20.545  37.459   0.811
26336W        W91321  21.859  27.370   0.965
26337W        W91322  33.879  24.203   2.099
26338W        W91323  32.939   8.321  12.063
26339W        W91324  11.723   3.561   2.286
26340W        W91325  27.888  13.558  11.531
26341W        W91326  18.516  37.051  12.397
26342W        W91327  35.688  12.052   9.447
26343W        W91328  40.497  20.744   2.412
26344W        W91329  22.317  38.028   2.300
26345W        W91330  14.504  15.814  11.119
26346W        W91331  33.425   0.970  11.682
26347W        W91332   4.830  41.969   0.755
26348W        W91333   4.670  29.068   3.404
26349W        W91334  35.018   8.950   0.730
26350W        W91335  16.317  43.180  12.859
26351W        W91336  41.617   4.373   4.592
26352W        W91337  30.043  13.395   3.645
26353W        W91338  28.811  23.278  11.028
26354W        W91339   4.256   8.662  10.224
26355W        W91340   1.720  22.662  11.513
26356W        W91341  20.030  22.280  11.031
26357W        W91342  40.905   0.252  14.406
26358W        W91343  40.028  17.901   1.337
26359W        W91344  34.640   1.497  13.413
26360W        W91345  21.478  30.512   3.606
26361W        W91346  18.178   8.531   1.430
26362W        W91347  36.049  18.181   2.959
26363W        W91348   8.923  39.007   0.045
26364W        W91349  25.639   3.634  11.629
26365W        W91350  38.813  40.559  14.273
26366W        W91351  41.204   1.316  14.821
26367W        W91352  41.768   7.833   1.266
26368W        W91353  40.228  31.310   2.833
26369W        W91354  14.768  39.981  10.747
26370W        W91355  44.777  43.543   3.004
26371W        W91356  25.087  35.946  13.997
26372W        W91357   2.347  44.216   1.884
26373W        W91358   2.487  22.154  13.510
26374W        W91359  44.919  33.907  13.393
26375W        W91360  31.991  14.879   3.642
26376W        W91361   1.363  28.211  12.883
26377W        W91362  27.149  42.070   1.216
26378W        W91363  22.113  24.905  10.690
26379W        W91364  17.269  41.150   2.930
26380W        W91365  38.336  38.809   1.702
26381W        W91366   1.370   9.418  14.989
26382W        W91367  18.582   3.642   1.467
26383W        W91368  36.277  13.827   4.508
26384W        W91369   3.409  28.101  14.739
26385W        W91370  39.565  27.766  14.043
26386W        W91371   8.318  29.116  10.551
26387W        W91372   1.752  24.139   3.986
26388W        W91373  16.605   0.045   1.867
26389W        W91374  34.484  27.549  13.242
26390W        W91375  13.643  40.444  13.859
26391W        W91376  26.422  28.111  14.283
26392W        W91377  17.587  18.071   1.024
26393W        W91378   3.774  15.785  12.471
26394W        W91379   3.362  33.158  14.511
26395W        W91380  27.695   3.262   5.537
26396W        W91381   4.261  27.480  13.228
26397W        W91382  20.615  42.866  10.742
26398W        W91383   5.867  22.444  11.577
26399W        W91384  27.640   9.736  10.641
26400W        W91385  37.299   6.308   1.329
26401W        W91386  42.503  24.071   2.837
26402W        W91387   9.301  28.014  14.926
26403W        W91388  11.839  26.408  11.556
26404W        W91389   9.865   6.916   1.733
26405W        W91390  43.207  23.553   1.805
26406W        W91391  12.398  26.011  10.754
26407W        W91392  28.567  38.266   1.243
26408W        W91393  37.608  28.685   3.610
26409W        W91394  37.968  32.792   4.036
26410W        W91395  16.592  39.580  13.035
26411W        W91396  34.851  34.837   3.795
26412W        W91397  32.896   1.792   3.139
26413W        W91398  38.557  25.391   2.932
26414W        W91399   8.298  16.357   0.919
26415W        W91400  16.713  15.275  12.447
26416W        W91401  36.794  20.096   3.803
26417W        W91402  17.355  33.690  12.308
26418W        W91403  34.119  42.914  11.393
26419W        W91404   9.866  42.752   2.378
26420W        W91405   2.937   1.489  12.483
26421W        W91406  35.352  33.181   2.841
26422W        W91407  31.772  38.898   2.595
26423W        W91408  14.627  26.388   3.231
26424W        W91409  11.225  15.685  12.371
26425W        W91410  13.163   6.697  10.219
26426W        W91411  38.462  17.924   3.494
26427W        W91412  13.271   9.938   0.771
26428W        W91413  34.992  15.336  10.487
26429W        W91414  32.466  30.387  12.450
26430W        W91415  39.999   4.222  11.178
26431W        W91416  40.322  38.422  12.485
26432W        W91417  23.155   2.845  14.972
26433W        W91418  11.157  36.247   1.477
26434W        W91419  21.199  21.961   3.565
26435W        W91420   9.918  21.176   1.193
26436W        W91421  11.666  23.220  14.383
26437W        W91422  30.073  28.977   2.773
26438W        W91423  18.577  41.276   0.934
26439W        W91424  41.742  15.546   3.285
26440W        W91425  11.152  38.756   3.281
26441W        W91426  31.917  27.171   0.790
26442W        W91427  22.128  26.668   4.664
26443W        W91428  32.832  17.130   0.441
26444W        W91429   1.687  15.149   4.402
26445W        W91430  14.261  35.964  12.612
26446W        W91431  19.650  33.064   4.250
26447W        W91432  11.219  28.610  10.685
26448W        W91433   1.900  15.361  13.370
26449W        W91434  26.579  35.895   1.185
26450W        W91435  24.708  12.081   1.464
26451W        W91436  41.020  32.953  10.655
26452W        W91437  31.379  43.320   3.257
26453W        W91438  33.643   3.751   1.414
26454W        W91439  22.931   7.724  12.172
26455W        W91440  35.131  23.801   0.404
26456W        W91441  23.451  44.419  12.965
26457W        W91442  12.943  12.355   2.395
26458W        W91443  24.463  16.607   3.581
26459W        W91444  29.979   4.225   3.829
26460W        W91445  44.513   4.421  11.625
26461W        W91446  19.493  18.701  13.072
26462W        W91447  21.479  15.243   2.742
26463W        W91448  16.334  31.571  14.470
26464W        W91449  24.578  28.207  10.833
26465W        W91450  15.836   4.286  11.410
26466W        W91451   8.719  32.983   2.187
26467W        W91452  10.764  10.811  14.313
26468W        W91453  16.325  18.754  13.378
26469W        W91454  34.635  37.416   3.629
26470W        W91455   0.369   4.420  10.534
26471W        W91456   1.649  33.047   4.826
26472W        W91457   4.406   9.004   1.192
26473W        W91458  37.507  16.074  14.417
26474W        W91459  36.407  35.079  10.964
26475W        W91460  17.033  15.602   0.886
26476W        W91461  30.235  29.787  14.770
26477W        W91462  16.898  42.118   1.544
26478W        W91463  37.404  35.150  11.199
26479W        W91464  39.362  33.099   4.097
26480W        W91465  18.157  21.924  14.353
26481W        W91466   2.652  26.968  12.447
26482W        W91467  42.875  22.694  14.102
26483W        W91468  20.567  21.148   5.063
26484W        W91469  32.868  14.062  13.368
26485W        W91470  27.574  17.829   4.390
26486W        W91471  37.615   0.947  13.973
26487W        W91472  16.296  36.208   1.955
26488W        W91473  34.281   2.540  11.723
26489W        W91474   1.433   6.622  11.251
26490W        W91475  21.662   5.405  13.828
26491W        W91476  42.749  22.959   1.428
26492W        W91477  11.738  27.545  11.201
26493W        W91478  28.025  31.698   2.156
26494W        W91479   0.271  19.576  13.701
26495W        W91480  23.616  13.931  11.769
26496W        W91481  29.003  20.055   2.441
26497W        W91482  41.148  18.653   3.583
26498W        W91483  24.762  21.912  14.944
26499W        W91484  44.430  21.130  10.460
26500W        W91485  23.223  38.367   2.268
26501W        W91486  10.463  35.277   3.352
26502W        W91487  12.171  24.895   0.738
26503W        W91488  32.241   1.726   0.362
26504W        W91489  38.147   1.386   3.112
26505W        W91490  34.037  33.977   3.711
26506W        W91491  13.691  38.450  14.368
26507W        W91492   3.673  35.089  14.535
26508W        W91493  23.572  39.970   3.308
26509W        W91494  12.186  32.367  13.961
26510W        W91495   2.158   3.494   1.356
26511W        W91496   1.704  43.538  11.576
26512W        W91497  29.623  21.020   1.740
26513W        W91498  10.901  30.471  14.056
26514W        W91499   0.485  29.651  14.082
26515W        W91500  44.968  38.644   4.893
26516W        W91501  33.455  11.350   2.263
26517W        W91502   3.283  25.504  11.108
26518W        W91503  19.995   6.698   0.293
26519W        W91504   4.482  20.213   4.020
26520W        W91505   2.168  26.970  11.165
26521W        W91506  15.031  29.912   0.888
26522W        W91507  18.680  17.180   1.407
26523W        W91508  44.996  21.375  14.841
26524W        W91509  22.201  39.502   2.811
26525W        W91510  43.564  13.291  14.489
26526W        W91511  24.969  20.187  14.212
26527W        W91512   6.786  44.837   2.989
26528W        W91513  24.091   2.949  12.490
26529W        W91514   1.827  39.285   2.251
26530W        W91515  38.050  22.689  13.803
26531W        W91516   1.686  34.645  11.195
26532W        W91517  13.611  39.956  11.237
26533W        W91518  40.453  37.081   2.761
26534W        W91519  33.592  11.838  11.094
26535W        W91520  16.284  16.864  14.500
26536W        W91521   5.718  18.224  13.835
26537W        W91522  26.780  43.435  14.988
26538W        W91523  16.643  36.573   4.480
26539W        W91524  28.171   1.570   1.404
26540W        W91525  44.120  23.779   9.880
26541W        W91526  19.814  20.149   1.771
26542W        W91527   0.376   3.201   1.734
26543W        W91528  38.055  34.368  14.956
26544W        W91529  12.231   4.918   4.353
26545W        W91530  20.690  19.683  13.553
26546W        W91531  32.457  38.872  10.244
26547W        W91532  31.137  42.904   0.762
26548W        W91533  10.632  15.966   1.148
26549W        W91534  39.109   9.263  12.605
26550W        W91535  27.419  19.927  10.928
26551W        W91536  24.962  43.196   4.097
26552W        W91537  35.129  11.184   0.776
26553W        W91538   8.760  42.887  10.795
26554W        W91539   3.276  41.514   3.653
26555W        W91540   1.426  40.064   3.147
26556W        W91541  27.127  15.120  12.638
26557W        W91542  30.450  43.912   1.811
26558W        W91543   4.997   3.262  12.588
26559W        W91544  40.088  17.681  14.919
26560W        W91545  28.420  38.795  11.053
26561W        W91546   7.439  41.723   1.855
26562W        W91547  13.093  36.779   3.541
26563W        W91548  24.827  21.952   2.121
26564W        W91549  12.120  22.487  13.027
26565W        W91550   3.696  27.806   3.544
26566W        W91551  33.223  21.293   1.372
26567W        W91552  29.813  39.417  12.385
26568W        W91553   5.967  29.481  13.756
26569W        W91554   9.767  33.985   3.588
26570W        W91555  22.075  28.172  12.213
26571W        W91556  21.334  25.621   1.477
26572W        W91557  25.723  12.749   0.700
26573W        W91558  22.811  18.179   4.843
26574W        W91559  25.600  20.169  10.751
26575W        W91560  27.931   5.981   2.690
26576W        W91561  40.540  14.295   2.783
26577W        W91562  40.043  11.179  11.968
26578W        W91563  31.073   8.105  14.019
26579W        W91564  33.460  16.241   3.240
26580W        W91565  35.785   3.317  10.791
26581W        W91566  44.919  16.287  11.215
26582W        W91567  40.792  38.796   2.381
26583W        W91568  12.834  13.536   1.442
26584W        W91569  29.440  30.131   4.048
26585W        W91570  35.915  38.175   4.764
26586W        W91571   2.767  14.040   4.849
26587W        W91572  14.345  26.094  12.217
26588W        W91573  28.315  21.544  13.988
26589W        W91574  25.590   1.537   0.521
26590W        W91575  32.417  16.219  12.953
26591W        W91576   8.920  22.995   3.230
26592W        W91577   1.756  39.054   4.591
26593W        W91578  16.576   1.314  11.173
26594W        W91579  20.214  21.623   0.751
26595W        W91580  11.157  43.940   2.932
26596W        W91581   3.456  28.674  10.699
26597W        W91582  36.499  22.923  14.604
26598W        W91583  29.688  31.152   4.650
26599W        W91584   2.256  38.916  13.770
26600W        W91585  39.099  26.150   1.738
26601W        W91586   5.214  39.745  11.138
26602W        W91587  18.239  37.739  13.419
26603W        W91588  31.188   7.831  12.420
26604W        W91589  34.937   2.933  10.449
26605W        W91590  41.636   4.322   0.634
26606W        W91591  17.889  34.948   4.505
26607W        W91592  24.858  25.895  12.061
26608W        W91593   0.393  36.140  13.317
26609W        W91594  16.786  16.624   3.574
26610W        W91595  34.499   8.300   4.121
26611W        W91596  29.996   0.830  10.672
26612W        W91597  21.245  26.708  14.906
26613W        W91598  43.287  17.213   1.914
26614W        W91599  32.816  35.477  12.584
26615W        W91600   1.247  39.265  11.158
26616W        W91601  11.672   0.414  13.290
26617W        W91602  35.055  29.090   2.768
26618W        W91603   5.322  12.753  12.344
26619W        W91604  33.535  44.553   4.529
26620W        W91605  44.779  37.375  13.337
26621W        W91606   0.831  26.577  14.754
26622W        W91607  35.049   0.827   2.839
26623W        W91608  37.474  38.400   0.590
26624W        W91609   4.288  23.813  11.222
26625W        W91610  41.379  13.658   4.627
26626W        W91611  39.675  41.402   3.291
26627W        W91612  20.539  16.253   1.380
26628W        W91613  19.919  21.993   4.868
26629W        W91614  38.876  17.232   4.166
26630W        W91615   5.275  42.297  13.515
26631W        W91616   6.878   0.401  10.875
26632W        W91617  28.738  11.854  13.579
26633W        W91618  31.618  15.387   3.211
26634W        W91619   5.362  19.827  14.681
26635W        W91620  14.785   3.481   4.177
26636W        W91621  32.472  16.526  13.874
26637W        W91622  24.573  38.356  13.521
26638W        W91623  31.071  12.495  13.790
26639W        W91624  41.876  30.226   3.246
26640W        W91625  22.886  42.241  14.283
26641W        W91626  24.246  42.223  14.481
26642W        W91627   8.167  12.566   2.638
26643W        W91628  10.381  29.896  12.479
26644W        W91629  32.061  44.035  11.926
26645W        W91630  22.492  39.823   1.923
26646W        W91631  43.528   3.456  12.924
26647W        W91632  40.887  14.829   1.662
26648W        W91633  40.750  24.104  10.754
26649W        W91634  22.712   5.474  14.971
26650W        W91635   8.825  35.875   1.467
26651W        W91636  17.363   6.774  14.258
26652W        W91637  35.380  39.457   4.747
26653W        W91638  19.262   1.224  12.826
26654W        W91639   4.189   9.725   1.612
26655W        W91640  33.824  25.164  11.125
26656W        W91641  11.682   0.526   2.113
26657W        W91642   7.174  31.990   5.222
26658W        W91643  44.864   8.411   5.205
26659W        W91644  27.472  40.757  11.547
26660W        W91645  44.477  19.383  13.958
26661W        W91646  23.801  35.841  11.465
26662W        W91647  34.197  44.755  11.433
26663W        W91648  27.636  34.246   0.361
26664W        W91649  41.347   1.435   1.737
26665W        W91650  32.363  44.478   3.099
26666W        W91651  23.664   0.931  11.259
26667W        W91652  44.942   8.337   0.249
26668W        W91653  38.594   8.972   0.270
26669W        W91654  13.573   7.730  11.462
26670W        W91655  19.593  23.805   4.517
26671W        W91656  41.107   0.169   0.517
26672W        W91657   1.716  40.463   1.262
26673W        W91658  37.065   3.941   2.735
26674W        W91659  32.567   3.293   0.030
26675W        W91660  27.503  25.977   2.781
26676W        W91661  11.886  12.269   1.364
26677W        W91662   4.176  42.030   3.681
26678W        W91663  12.386  20.753   0.795
26679W        W91664   7.792  34.997   1.786
26680W        W91665   0.475  25.712  14.351
26681W        W91666  10.430   2.088  12.037
26682W        W91667  39.418  12.537  12.985
26683W        W91668   8.871   4.792  13.831
26684W        W91669   8.566   1.842  13.810
26685W        W91670   1.927   4.394  12.778
26686W        W91671  21.255   5.949   4.149
26687W        W91672  28.727   8.419   2.675
26688W        W91673   6.173  36.934  11.707
26689W        W91674  21.696  27.391  13.783
26690W        W91675  20.714  34.074   1.945
26691W        W91676  36.447  19.017   2.690
26692W        W91677  10.032   4.779  11.609
26693W        W91678  16.535  19.557  12.874
26694W        W91679  41.490  26.551   2.312
26695W        W91680  44.094  22.385  14.740
26696W        W91681   8.698  17.562   1.265
26697W        W91682  32.215  10.898   1.026
26698W        W91683  25.701   6.822   0.020
26699W        W91684  36.878  27.223  11.398
26700W        W91685  41.976  13.718  11.888
26701W        W91686  14.713   2.505  12.586
26702W        W91687  14.221   3.706   1.680
26703W        W91688  44.215  34.416   1.906
26704W        W91689  43.916   5.724   1.751
26705W        W91690   2.829  26.572   4.519
26706W        W91691  19.227  11.775   1.974
26707W        W91692   0.599  38.717  12.091
26708W        W91693   5.943  10.773   0.780
26709W        W91694   6.004  42.508  12.273
26710W        W91695  29.527  37.428  11.554
26711W        W91696  14.199   6.253   3.863
26712W        W91697  44.284   4.625  11.222
26713W        W91698  30.541   3.527  11.338
26714W        W91699  31.622  18.829  12.637
26715W        W91700  27.025  20.213   4.004
26716W        W91701  19.628  32.331   2.159
26717W        W91702  19.984  21.165  10.560
26718W        W91703  26.116   8.654  13.338
26719W        W91704  24.544   8.659   1.831
26720W        W91705   1.917  17.230  13.729
26721W        W91706  14.380  36.998  13.485
26722W        W91707  29.350  43.716  10.976
26723W        W91708   0.683  31.792   3.220
26724W        W91709  21.884  34.948  12.498
26725W        W91710  28.757   4.408  14.621
26726W        W91711   5.646  24.544   2.351
26727W        W91712  39.164  41.582   1.666
26728W        W91713  39.159  21.660   3.905
26729W        W91714  31.130  25.146   4.248
26730W        W91715  12.700   0.029  14.172
26731W        W91716  37.359   8.475  13.481
26732W        W91717  36.461  18.597   0.206
26733W        W91718  37.609  43.943   0.597
26734W        W91719  18.179  29.406  11.649
26735W        W91720  22.176  30.221  10.101
26736W        W91721  31.701   7.902  14.841
26737W        W91722  22.763  32.922  13.007
26738W        W91723  25.233  29.084   2.745
26739W        W91724   9.341  31.505  10.758
26740W        W91725  26.915  19.997   1.483
26741W        W91726   9.789   4.458   0.428
26742W        W91727  37.091  26.182  10.955
26743W        W91728  24.673  32.438  14.997
26744W        W91729  43.029   4.099  11.377
26745W        W91730  11.019  40.959   3.658
26746W        W91731   6.877  33.102  14.860
26747W        W91732  25.793   5.820  13.599
26748W        W91733   4.812   0.998   1.750
26749W        W91734   3.258  44.877  11.652
26750W        W91735  33.799  10.419  12.678
26751W        W91736   6.547  23.104   4.499
26752W        W91737  24.230  27.273  12.005
26753W        W91738  24.901  13.352  13.876
26754W        W91739  36.784  22.035   4.519
26755W        W91740  13.348  39.082   2.358
26756W        W91741  37.685   9.711  10.752
26757W        W91742  10.551  21.063   0.579
26758W        W91743   2.173  18.124   3.679
26759W        W91744  39.455   5.298   4.502
26760W        W91745  32.428  38.246   3.969
26761W        W91746  42.793  32.974   1.525
26762W        W91747  21.095  38.335  10.623
26763W        W91748  37.045  21.489   0.475
26764W        W91749  21.538  14.615   2.240
26765W        W91750  36.384   1.321   2.712
26766W        W91751  27.131  23.005  12.845
26767W        W91752  33.603  20.271   2.808
26768W        W91753  27.382  24.588   0.949
26769W        W91754   9.267   2.870   4.355
26770W        W91755  21.206   1.017   3.318
26771W        W91756  37.007  17.620  12.023
26772W        W91757  28.016  20.075  12.032
26773W        W91758  29.001   7.891  12.032
26774W        W91759  41.689   7.130  11.689
26775W        W91760  34.411  29.258   0.942
26776W        W91761   0.780  42.840  10.839
26777W        W91762  42.461  36.096  14.888
26778W        W91763  33.431   4.772   0.762
26779W        W91764   0.674  30.271   3.134
26780W        W91765  23.684  32.345  11.551
26781W        W91766  25.133  33.310   3.448
26782W        W91767  31.533  21.665  12.085
26783W        W91768  10.982   7.723   3.086
26784W        W91769  17.490  12.476   2.213
26785W        W91770  17.185  43.110   0.788
26786W        W91771  20.119  20.931   4.465
26787W        W91772   7.088  22.924  14.852
26788W        W91773  33.973  10.200  11.614
26789W        W91774  36.623  10.297   4.031
26790W        W91775  17.287   6.470   2.797
26791W        W91776  44.760  21.540  11.090
26792W        W91777   7.995  20.048   1.321
26793W        W91778  33.770   4.793   3.718
26794W        W91779  28.623  21.783   2.721
26795W        W91780  34.511  28.956  11.138
26796W        W91781  33.138  31.195  14.930
26797W        W91782   5.704  42.758   1.413
26798W        W91783  41.329  32.000  12.933
26799W        W91784  25.412  19.194   4.071
26800W        W91785  37.788  18.897  14.979
26801W        W91786  16.651  44.348   4.584
26802W        W91787  29.385  24.021   4.890
26803W        W91788  33.961  32.768   3.829
26804W        W91789  11.913  33.557  12.608
26805W        W91790  13.100  14.789   2.401
26806W        W91791  23.582  41.073  12.081
26807W        W91792  17.257   3.926  14.725
26808W        W91793   5.044   9.670   2.925
26809W        W91794  20.001  18.155  11.523
26810W        W91795  11.433  26.146   2.217
26811W        W91796   0.539  42.012  13.451
26812W        W91797  19.688  31.085   2.600
26813W        W91798   4.381  43.966  11.640
26814W        W91799   3.008  27.725  10.678
26815W        W91800  30.639  39.777  12.616
26816W        W91801   8.399   2.694   3.652
26817W        W91802  23.344   8.417   1.623
26818W        W91803  22.673   6.733  10.955
26819W        W91804  23.516  30.628   4.269
26820W        W91805  17.543  35.100  14.820
26821W        W91806   1.763  32.172  11.152
26822W        W91807  41.705  41.671   3.795
26823W        W91808  26.011  39.840   1.934
26824W        W91809  23.253  12.856   3.304
26825W        W91810  43.013  18.304  14.435
26826W        W91811  21.522   6.979  12.060
26827W        W91812  10.808   2.033   4.187
26828W        W91813  29.397  31.447  13.229
26829W        W91814  26.498   4.517  13.250
26830W        W91815  25.536   9.860  13.922
26831W        W91816   7.154  40.976   4.642
26832W        W91817   1.491  36.210  14.236
26833W        W91818  31.820  40.059   3.307
26834W        W91819  38.032  42.556   4.602
26835W        W91820  37.899  11.994  14.411
26836W        W91821  34.462  27.186   0.250
26837W        W91822  28.667  29.908  12.581
26838W        W91823  33.516  14.069  13.543
26839W        W91824  25.963   7.698   0.522
26840W        W91825  17.685  16.812   2.586
26841W        W91826   6.251  42.971  14.336
26842W        W91827  21.937   2.453   1.294
26843W        W91828  23.726  23.870  11.632
26844W        W91829  41.612  31.409  10.719
26845W        W91830  20.247  15.189   3.085
26846W        W91831  18.190  34.300  13.947
26847W        W91832  42.717   8.710   4.148
26848W        W91833  32.276   0.450   3.280
26849W        W91834   0.936  29.409  12.917
26850W        W91835   9.357  22.708  11.139
26851W        W91836  42.338  19.043   4.993
26852W        W91837  17.585   8.233  14.513
26853W        W91838  10.894   3.361  12.935
26854W        W91839  44.673  40.466  11.600
26855W        W91840  19.717  21.680  14.529
26856W        W91841  37.929  43.009   2.379
26857W        W91842  20.704   8.883  12.868
26858W        W91843  28.524  27.099  10.559
26859W        W91844  33.457  31.180  14.166
26860W        W91845  42.896   1.563  10.751
26861W        W91846   4.080  42.750   2.529
26862W        W91847  36.009   1.399   1.566
26863W        W91848  24.296  22.682   1.940
26864W        W91849  32.384  36.828  10.643
26865W        W91850  12.795  26.449   0.199
26866W        W91851  10.328  26.625   1.782
26867W        W91852  35.002  22.447  12.926
26868W        W91853  23.260  32.632  11.440
26869W        W91854  13.120   3.308  13.435
26870W        W91855   1.342  15.720   3.723
26871W        W91856  29.130  31.611   0.017
26872W        W91857  42.333  11.218  11.515
26873W        W91858  40.431  34.006  13.120
26874W        W91859   1.184  38.058  10.766
26875W        W91860   2.463  38.042  14.774
26876W        W91861  37.229  43.329  14.288
26877W        W91862  23.717  31.988   3.671
26878W        W91863  21.860  24.708   1.792
26879W        W91864  26.167  22.302   4.721
26880W        W91865  15.119  29.202   2.446
26881W        W91866   9.358  44.189  12.014
26882W        W91867   5.123  29.537   1.146
26883W        W91868   7.892  19.249   4.091
26884W        W91869   0.746  11.325   4.165
26885W        W91870   4.150  35.057   1.266
26886W        W91871  26.571  40.345  11.989
26887W        W91872  29.885  25.147  12.927
26888W        W91873  11.570  26.394  10.745
26889W        W91874  36.327  39.872   2.212
26890W        W91875   4.217  38.030  11.383
26891W        W91876  35.124  43.419  12.221
26892W        W91877  22.551  30.602   2.741
26893W        W91878   7.226  35.116  14.469
26894W        W91879  44.504  27.480  12.591
26895W        W91880   1.869   2.249   3.406
26896W        W91881   7.194  10.553  14.842
26897W        W91882  40.872  21.128   3.208
26898W        W91883  19.278  38.744  13.304
26899W        W91884  15.774  25.049   2.885
26900W        W91885  19.737  27.030  13.614
26901W        W91886  39.603  43.746  12.936
26902W        W91887  10.865  19.010  14.860
26903W        W91888  43.216  10.676   1.300
26904W        W91889  24.932  18.819   2.822
26905W        W91890   4.651  40.576   3.665
26906W        W91891   2.497  34.557   2.758
26907W        W91892  26.693  26.004   1.401
26908W        W91893  36.124  20.991  13.120
26909W        W91894  28.574   5.784   4.370
26910W        W91895  17.652  38.007  10.659
26911W        W91896   8.781  27.002   3.914
26912W        W91897  41.078  36.042   0.441
26913W        W91898  37.801  34.238  12.196
26914W        W91899  40.521   2.786   4.393
26915W        W91900  23.378  14.855  14.420
26916W        W91901  33.410  29.720  12.869
26917W        W91902  27.096   0.167   3.594
26918W        W91903  22.285  14.783  12.749
26919W        W91904  17.857  11.295  14.923
26920W        W91905  27.438  23.100   4.286
26921W        W91906  10.316  29.610   3.131
26922W        W91907  23.387  16.526  11.962
26923W        W91908  18.360  43.311  12.640
26924W        W91909  23.961  32.807   4.149
26925W        W91910  14.830  11.645  13.826
26926W        W91911  16.232  15.024  10.989
26927W        W91912  31.722  31.793  10.750
26928W        W91913  43.090   5.997  13.428
26929W        W91914  29.499   2.990   0.193
26930W        W91915  25.030  18.386   3.202
26931W        W91916  27.477   5.422   0.437
26932W        W91917   4.436  22.141   2.419
26933W        W91918  23.435  31.910  13.181
26934W        W91919  11.704  32.371  10.958
26935W        W91920  35.563   0.750   4.592
26936W        W91921  32.964  38.576  10.804
26937W        W91922  40.027  19.224  11.244
26938W        W91923  12.166  21.396   0.401
26939W        W91924  23.299  30.904   5.753
26940W        W91925  14.163   9.174  11.141
26941W        W91926  25.198  42.208   0.902
26942W        W91927   7.496   6.514   4.907
26943W        W91928  30.380  36.029  12.615
26944W        W91929  18.206  40.100   4.477
26945W        W91930   5.333  28.257  14.466
26946W        W91931  20.064   0.231  13.415
26947W        W91932  34.819  32.370  13.546
26948W        W91933  32.486  25.399   2.823
26949W        W91934   0.030  28.675   2.865
26950W        W91935  31.465  43.843   2.453
26951W        W91936   1.358   9.943  14.963
26952W        W91937  36.768  13.102  12.924
26953W        W91938  20.551  32.883  11.660
26954W        W91939   7.773  21.113   2.771
26955W        W91940  26.805  43.328   4.064
26956W        W91941  16.156   7.151  11.203
26957W        W91942  26.190   9.256   1.352
26958W        W91943   4.773  21.625   4.449
26959W        W91944   8.829  38.935   3.771
26960W        W91945   0.723   3.880  12.989
26961W        W91946   4.749  17.281  13.451
26962W        W91947  33.957   9.935  13.361
26963W        W91948  16.650  18.518   3.604
26964W        W91949   5.964  36.275   1.645
26965W        W91950  43.594  11.301   0.269
26966W        W91951  40.459   4.657   0.391
26967W        W91952  10.784  17.002   1.366
26968W        W91953  27.587  23.553  11.121
26969W        W91954  14.209  42.101  11.209
26970W        W91955   6.121  28.566   2.403
26971W        W91956  33.535  43.855   1.717
26972W        W91957  21.760  14.809  11.220
26973W        W91958  43.672   3.453   3.069
26974W        W91959  14.832  17.053  14.247
26975W        W91960  29.195  30.612  11.166
26976W        W91961  34.510   2.649  14.831
26977W        W91962  28.263  44.362  12.992
26978W        W91963  35.602  41.097   1.384
26979W        W91964  44.299  38.324   4.665
26980W        W91965  42.374  14.736   2.941
26981W        W91966   5.916  36.132  10.408
26982W        W91967  19.189  16.838   0.268
26983W        W91968  44.533  27.083  11.134
26984W        W91969  36.278  23.599  11.879
26985W        W91970   0.965  25.257   2.329
26986W        W91971  37.788  28.620  14.950
26987W        W91972  20.090  11.105  13.833
26988W        W91973  38.195  10.593   0.747
26989W        W91974   1.878   0.904  11.033
26990W        W91975  18.530  29.008  14.214
26991W        W91976   7.822  41.995  11.498
26992W        W91977  42.259  14.369   0.606
26993W        W91978  39.677  22.225   2.568
26994W        W91979   2.997  38.471  13.094
26995W        W91980   7.133  42.721  14.075
26996W        W91981  22.498  26.458  12.665
26997W        W91982  19.999  22.167  11.978
26998W        W91983  41.023   8.228   2.803
26999W        W91984  37.854  22.585  10.684
27000W        W91985  11.746   0.796  12.068
27001W        W91986   9.273  43.737   2.863
27002W        W91987  17.478  43.803   2.721
27003W        W91988  23.000  18.226  13.393
27004W        W91989  25.430   8.572   5.067
27005W        W91990  39.416   9.977   0.432
27006W        W91991  26.089  24.659  11.001
27007W        W91992  21.084  35.410   2.299
27008W        W91993  35.536  17.325   3.225
27009W        W91994  28.186  30.155   0.418
27010W        W91995  21.891  31.480  12.531
27011W        W91996  37.938  39.990   0.298
27012W        W91997  19.167   9.714   3.264
27013W        W91998   6.903   8.876   1.083
27014W        W91999  10.874   8.328   4.288
27015W        W92000  32.397   6.391   0.235
27016W        W92001  14.803  20.004  11.332
27017W        W92002  13.566  42.779  11.491
27018W        W92003   6.251  20.780  10.550
27019W        W92004   4.437  25.754  12.664
27020W        W92005  11.488  34.531  11.684
27021W        W92006  22.262  28.081  14.432
27022W        W92007  37.068  23.328  13.403
27023W        W92008  25.462  40.754  13.695
27024W        W92009  39.082  36.916  12.472
27025W        W92010  40.477  33.135   1.788
27026W        W92011   8.998   0.329  14.006
27027W        W92012   6.104  32.760   3.682
27028W        W92013   2.760  34.174   0.036
27029W        W92014   3.474   4.813  12.154
27030W        W92015  28.866  19.769  12.049
27031W        W92016   2.346  38.376   3.359
27032W        W92017  28.461   0.014  14.287
27033W        W92018  14.006   1.236  11.915
27034W        W92019  33.274  34.605   1.861
27035W        W92020  15.588  15.691  13.931
27036W        W92021  11.019   7.975   0.040
27037W        W92022  14.032  11.236   1.773
27038W        W92023  10.200  15.603  12.737
27039W        W92024  42.803   8.936  12.540
27040W        W92025   3.252  17.961  11.166
27041W        W92026  23.046  22.867   2.220
27042W        W92027   8.806  22.540   2.240
27043W        W92028  30.023  42.381  10.747
27044W        W92029   9.853   1.210   0.408
27045W        W92030  31.437  32.424   0.862
27046W        W92031  21.227   4.812   2.256
27047W        W92032  26.717   0.888   1.276
27048W        W92033  29.601  35.391  10.656
27049W        W92034  26.361   9.776   0.715
27050W        W92035  22.786  22.790   3.294
27051W        W92036  21.020  38.340  11.138
27052W        W92037  31.320   6.645   4.318
27053W        W92038   5.142  10.195  12.569
27054W        W92039  37.776  37.812   4.779
27055W        W92040  44.730  34.459  13.400
27056W        W92041  38.295   8.597  12.560
27057W        W92042   5.838  12.593   3.414
27058W        W92043  30.034   7.613   0.414
27059W        W92044  34.470  22.562   1.298
27060W        W92045  33.154   9.083   0.501
27061W        W92046   9.972  18.509   0.338
27062W        W92047  37.245  15.464  11.660
27063W        W92048  21.286  18.561  14.034
27064W        W92049  35.137  42.794   4.075
27065W        W92050  40.533  15.134   1.431
27066W        W92051  11.460  18.834   3.687
27067W        W92052  24.529  14.807  13.911
27068W        W92053   4.145  22.707   3.731
27069W        W92054  42.712  38.723  10.079
27070W        W92055   9.688  39.437  12.588
27071W        W92056  42.542  13.955  14.836
27072W        W92057  31.172  14.356   0.400
27073W        W92058  44.824  41.779  10.759
27074W        W92059  35.130  33.328  11.663
27075W        W92060  41.704  38.884  14.960
27076W        W92061  16.338  28.172   1.204
27077W        W92062  42.117  41.536   3.465
27078W        W92063  22.649  33.135  14.843
27079W        W92064  18.577   5.688  14.276
27080W        W92065  29.123  15.313  11.001
27081W        W92066  33.381  12.712   3.204
27082W        W92067  38.103  38.493  12.016
27083W        W92068  31.613  24.991   2.924
27084W        W92069  35.436  29.816  13.888
27085W        W92070  20.531  39.875  11.575
27086W        W92071  30.848  42.514   0.493
27087W        W92072  43.375  32.498   1.069
27088W        W92073  19.699  11.937  11.165
27089W        W92074  19.271   0.873  13.748
27090W        W92075  23.246  24.752   0.800
27091W        W92076  15.356  28.959   3.412
27092W        W92077  17.428  36.573  13.979
27093W        W92078  37.946  40.556  14.304
27094W        W92079  26.663  16.665  13.414
27095W        W92080  20.511   0.354  12.406
27096W        W92081  12.603  17.263   2.564
27097W        W92082  30.693  22.145  13.981
27098W        W92083  19.045  44.511  13.374
27099W        W92084  15.276  44.039  12.002
27100W        W92085   6.415  43.516   4.635
27101W        W92086   2.677  18.010   3.642
27102W        W92087  10.712  34.857  14.183
27103W        W92088  33.180  44.487  14.932
27104W        W92089  13.080   1.791   3.657
27105W        W92090  40.397  24.635  12.172
27106W        W92091  44.378  37.054  14.565
27107W        W92092  25.609  17.914  11.074
27108W        W92093  40.528  21.635   2.207
27109W        W92094  27.961  12.578   3.128
27110W        W92095  26.923  28.540  13.518
27111W        W92096  29.994  16.553  14.029
27112W        W92097  26.384  43.462   5.209
27113W        W92098  15.313  40.866   3.210
27114W        W92099  18.195  44.269   1.326
27115W        W92100  36.803   5.686   2.783
27116W        W92101  19.358  36.411  13.521
27117W        W92102  19.863  17.380   0.863
27118W        W92103  36.303  31.650  13.825
27119W        W92104  36.031  38.757  11.869
27120W        W92105   6.330  43.312  11.118
27121W        W92106  42.516  29.955   4.962
27122W        W92107  24.903  40.043   2.871
27123W        W92108  20.236  26.665   3.714
27124W        W92109  39.307  13.944   3.339
27125W        W92110  18.282  44.869   1.703
27126W        W92111  37.243   2.836   3.588
27127W        W92112  24.563  39.178   2.882
27128W        W92113  11.091  13.596   4.905
27129W        W92114  44.257  19.311   0.232
27130W        W92115  22.089  43.078   3.633
27131W        W92116  38.779  21.238   0.871
27132W        W92117   6.375  18.347   0.201
27133W        W92118  37.990  31.605   2.684
27134W        W92119   7.864  37.437   3.196
27135W        W92120  21.184  19.757  11.148
27136W        W92121   0.816  10.239  10.753
27137W        W92122  26.162  39.348   3.213
27138W        W92123  16.659  14.293   3.639
27139W        W92124   6.025  25.846   2.332
27140W        W92125  18.300  14.778  14.950
27141W        W92126  13.445  43.860  12.946
27142W        W92127  38.254  40.790   2.074
27143W        W92128  16.234   9.334  11.906
27144W        W92129  15.294  19.194   4.325
27145W        W92130  31.212  33.944  11.707
27146W        W92131   3.883   9.930   1.960
27147W        W92132  22.039  22.344   3.198
27148W        W92133  22.249   3.115   2.095
27149W        W92134  38.022  31.637  13.453
27150W        W92135   6.778  19.538   1.385
27151W        W92136  29.345  20.085  12.925
27152W        W92137  15.030  12.190   2.920
27153W        W92138  43.422  25.618   2.749
27154W        W92139  36.065   8.859  13.267
27155W        W92140  31.930  37.784   1.833
27156W        W92141  17.616   8.920   3.162
27157W        W92142  20.192   4.901   0.362
27158W        W92143  42.770   7.107   2.793
27159W        W92144  39.979  33.836  12.901
27160W        W92145  35.024  41.283   4.216
27161W        W92146  11.247  17.027  11.159
27162W        W92147   6.929  44.615  11.172
27163W        W92148  43.032  11.373   3.203
27164W        W92149  35.861  38.505   2.767
27165W        W92150  21.312  25.627  13.344
27166W        W92151  21.721  42.391  12.355
27167W        W92152  26.984  36.477   0.401
27168W        W92153  16.487   1.871  13.349
27169W        W92154  10.714  44.459  15.000
27170W        W92155  19.062  16.194  14.491
27171W        W92156  11.203  10.263  14.965
27172W        W92157  29.337  14.292   5.014
27173W        W92158  35.638  13.391  11.653
27174W        W92159  37.323  33.360   3.648
27175W        W92160  25.941  11.886   0.401
27176W        W92161  12.188  24.110   4.756
27177W        W92162  11.406  42.242  14.296
27178W        W92163  38.980  20.062   4.468
27179W        W92164  26.740  18.234   2.809
27180W        W92165  10.576  41.914  14.904
27181W        W92166  26.232   1.279  11.529
27182W        W92167   6.398  41.607   3.693
27183W        W92168  17.197  30.613  13.501
27184W        W92169  14.907  21.330   3.265
27185W        W92170  38.261  21.202   0.909
27186W        W92171  35.179  30.194  11.132
27187W        W92172   4.147  30.446  12.847
27188W        W92173   4.407  12.558   1.180
27189W        W92174   8.176  14.630  11.713
27190W        W92175  26.029  39.921   0.086
27191W        W92176  15.463  31.117   4.869
27192W        W92177  23.970   4.483  13.398
27193W        W92178  14.046  27.868  12.426
27194W        W92179  39.891  42.884   3.873
27195W        W92180  40.987  13.709  10.824
27196W        W92181  41.091  35.865  14.941
27197W        W92182  33.027   3.477   3.308
27198W        W92183  18.713   3.538  10.378
27199W        W92184  11.908   1.813  12.006
27200W        W92185   3.802  24.037   1.928
27201W        W92186  36.245  40.756  14.754
27202W        W92187  44.818  15.564   0.509
27203W        W92188  18.659  21.077  11.113
27204W        W92189  39.085  43.560   2.738
27205W        W92190  21.960   3.797   4.748
27206W        W92191  14.585  16.984  13.220
27207W        W92192   4.955  20.058   4.252
27208W        W92193  39.222  32.114  13.045
27209W        W92194  37.610  40.643  14.969
27210W        W92195  38.185   4.182  10.739
27211W        W92196  40.298   2.594  10.434
27212W        W92197  38.670  11.737  12.970
27213W        W92198   4.561  33.839   0.316
27214W        W92199   8.295  15.039  10.868
27215W        W92200  15.574  41.154  12.113
27216W        W92201  15.799   9.806   1.860
27217W        W92202  26.709  43.753  14.288
27218W        W92203  33.905   3.933  13.989
27219W        W92204   7.365   0.232  10.746
27220W        W92205  44.591  34.006  14.809
27221W        W92206  38.746  17.619   2.976
27222W        W92207   1.175  34.684  11.155
27223W        W92208  13.035  10.398  12.132
27224W        W92209  31.213  26.906   5.002
27225W        W92210  42.858   2.447   2.629
27226W        W92211  35.845   1.721   1.193
27227W        W92212  31.407  43.078  14.324
27228W        W92213   5.158  23.593  14.459
27229W        W92214  36.558  27.973   0.931
27230W        W92215  20.668  42.795   2.680
27231W        W92216   5.249   0.234   0.999
27232W        W92217  36.323   2.295  13.710
27233W        W92218  35.950   1.727   4.474
27234W        W92219  39.487   4.752   2.751
27235W        W92220  20.788  22.146   1.815
27236W        W92221  32.903   0.840   2.129
27237W        W92222  22.726  43.468  14.511
27238W        W92223   9.865  10.326  11.080
27239W        W92224  32.321  11.862   4.206
27240W        W92225  27.846  33.786  12.440
27241W        W92226  44.323  43.785  12.121
27242W        W92227  39.355  25.603  11.874
27243W        W92228  38.790   3.056   4.635
27244W        W92229  36.970   7.349   1.326
27245W        W92230   1.284  24.006  11.412
27246W        W92231  25.790  21.910  11.973
27247W        W92232  43.245  32.037  12.637
27248W        W92233  31.431   1.193   3.186
27249W        W92234  15.832  32.923  12.495
27250W        W92235  30.213  15.350  13.413
27251W        W92236  33.020  44.569  12.128
27252W        W92237  26.109  29.400   5.403
27253W        W92238   8.932  15.660  11.055
27254W        W92239  10.891  22.053   4.585
27255W        W92240  32.252  31.473   5.060
27256W        W92241  35.754   3.480  13.832
27257W        W92242   4.890  22.726   3.190
27258W        W92243  12.526  37.632   1.162
27259W        W92244   0.977  20.205  13.516
27260W        W92245  44.874   1.538   4.014
27261W        W92246   0.584  35.619   2.080
27262W        W92247  27.548  40.305  13.848
27263W        W92248  22.175  32.921   3.792
27264W        W92249  40.007  24.849   0.346
27265W        W92250  41.849  40.925   2.688
27266W        W92251   4.969  38.767   3.406
27267W        W92252  38.744  13.988   4.910
27268W        W92253  29.110  40.493   1.593
27269W        W92254  43.775  29.677  11.033
27270W        W92255  29.085  16.243  14.290
27271W        W92256  33.123  40.230  13.000
27272W        W92257  36.735  20.092  12.103
27273W        W92258  39.367  15.151  10.804
27274W        W92259  13.802  20.806  13.799
27275W        W92260  26.947  16.724  13.844
27276W        W92261  25.742   6.321  11.123
27277W        W92262  13.255  33.618   1.636
27278W        W92263  10.706  26.900  10.885
27279W        W92264  16.217  12.611   2.267
27280W        W92265  42.701  29.864  10.726
27281W        W92266   0.766  38.289  12.984
27282W        W92267  21.789  25.458  11.502
27283W        W92268   8.848  35.966  12.113
27284W        W92269  14.595  41.762  14.898
27285W        W92270  28.239  15.978  11.272
27286W        W92271   9.859  41.970  13.062
27287W        W92272  19.810  40.312  11.997
27288W        W92273  27.497   5.434  12.826
27289W        W92274  19.708  17.998   2.674
27290W        W92275  21.222  40.181   1.890
27291W        W92276  44.312  34.754  14.310
27292W        W92277  42.335  19.081   3.305
27293W        W92278  13.835   3.941  14.881
27294W        W92279  16.225  36.781   2.807
27295W        W92280  19.155   7.479   2.821
27296W        W92281  24.004  18.663  14.391
27297W        W92282  22.712  32.327   3.653
27298W        W92283  35.241   9.160  14.868
27299W        W92284  29.034  27.485   4.290
27300W        W92285  39.070   9.837  14.686
27301W        W92286   3.970  14.653   3.353
27302W        W92287  37.795   0.819   0.858
27303W        W92288   6.297  18.238   3.834
27304W        W92289  30.907  33.166   0.775
27305W        W92290  15.851  33.251  14.275
27306W        W92291  18.070  23.612   4.596
27307W        W92292  37.898  38.390  14.096
27308W        W92293  36.394  25.880  10.701
27309W        W92294   4.962  43.511   2.328
27310W        W92295  30.250  29.584   0.270
27311W        W92296  17.741  22.290  12.579
27312W        W92297  26.173  43.838  14.261
27313W        W92298   3.097  27.583   1.036
27314W        W92299  24.663  24.501  12.944
27315W        W92300  10.190  16.137  14.426
27316W        W92301  39.352  40.439   4.388
27317W        W92302  34.358  42.816   1.972
27318W        W92303   5.802  38.851   0.767
27319W        W92304  44.327  24.426   2.980
27320W        W92305  25.342  32.059   1.357
27321W        W92306  31.666  43.446   2.836
27322W        W92307  40.769  13.230  13.783
27323W        W92308   4.380  43.287  13.264
27324W        W92309  24.073  24.047   1.293
27325W        W92310   9.515  43.609   4.163
27326W        W92311  21.187  30.060  12.747
27327W        W92312  16.736  33.689   2.149
27328W        W92313  42.346  12.883   1.628
27329W        W92314  35.005  21.555   1.866
27330W        W92315  15.822  44.041  14.720
27331W        W92316   3.852  37.055   1.420
27332W        W92317  31.485  40.028  14.400
27333W        W92318   0.207  38.873   1.531
27334W        W92319  44.453  38.187  11.578
27335W        W92320  16.280  41.891   0.118
27336W        W92321   8.529  37.092  14.134
27337W        W92322   8.212  21.301  11.479
27338W        W92323   8.810  29.785   1.692
27339W        W92324   1.462  30.353  14.982
27340W        W92325  38.854  14.792  14.036
27341W        W92326  20.073  14.004   1.166
27342W        W92327   0.730  27.714  12.527
27343W        W92328   2.450   0.852   3.301
27344W        W92329   0.057  31.474  14.526
27345W        W92330  40.626  27.568   0.338
27346W        W92331  16.133  19.237   2.366
27347W        W92332  37.161  29.969  11.175
27348W        W92333  14.365  19.188   4.751
27349W        W92334  29.530  34.003   2.291
27350W        W92335  28.920   5.680  12.786
27351W        W92336   4.644   2.214   4.174
27352W        W92337  25.599  38.007   3.439
27353W        W92338   0.932  14.610   0.122
27354W        W92339  27.681  18.487  14.046
27355W        W92340   9.451  24.514   4.114
27356W        W92341  16.301  39.543   1.229
27357W        W92342  40.533  20.281   3.191
27358W        W92343  16.268  21.047  12.464
27359W        W92344  32.375  29.303   0.533
27360W        W92345  42.716  25.183   1.664
27361W        W92346  32.236  38.637   3.528
27362W        W92347  14.428  18.426  12.826
27363W        W92348  21.603  17.046  11.616
27364W        W92349   0.913  23.666  11.602
27365W        W92350   9.269  15.273   4.429
27366W        W92351  23.789  25.113   2.433
27367W        W92352  34.365  43.278  11.719
27368W        W92353  22.241   4.397  13.080
27369W        W92354  40.482  12.567   4.610
27370W        W92355   3.472  12.363  12.511
27371W        W92356  16.525  42.304   1.862
27372W        W92357  29.632   7.322  14.690
27373W        W92358  37.033  10.330  13.143
27374W        W92359  20.780  37.473   1.968
27375W        W92360  43.847  19.399   1.799
27376W        W92361  13.221  39.576   4.572
27377W        W92362  35.271  40.603  12.119
27378W        W92363  33.776  11.346  13.344
27379W        W92364  22.839  19.968   1.015
27380W        W92365  38.345  34.433  12.056
27381W        W92366  22.182  11.846  12.991
27382W        W92367  13.810  22.964   3.753
27383W        W92368  33.869  38.017  14.484
27384W        W92369   8.458  32.638   1.825
27385W        W92370  33.324  21.368  10.634
27386W        W92371  22.232  18.087   4.596
27387W        W92372  20.630  21.292  12.197
27388W        W92373  39.015  27.647  13.344
27389W        W92374   6.633  20.200   1.756
27390W        W92375  42.931  43.070  11.929
27391W        W92376  39.458  14.723  10.539
27392W        W92377  16.664  33.122   1.478
27393W        W92378  37.095   3.173  10.526
27394W        W92379   0.012  12.810   4.543
27395W        W92380  17.429  32.964  14.801
27396W        W92381  33.312  19.293  12.058
27397W        W92382  39.314   0.320   4.629
27398W        W92383  35.959  13.217  13.474
27399W        W92384  26.283  23.701   4.490
27400W        W92385  33.991   4.398   2.906
27401W        W92386  34.628  18.747   2.777
27402W        W92387  22.655  37.589  13.581
27403W        W92388  23.730   6.784  14.883
27404W        W92389  10.753  12.839  14.027
27405W        W92390   8.098   2.925   0.821
27406W        W92391  12.766  16.096   3.231
27407W        W92392  32.674   7.641  11.111
27408W        W92393  14.070   5.225   4.979
27409W        W92394  42.671  14.159  11.059
27410W        W92395  17.890  41.621  12.857
27411W        W92396  42.006  16.040  14.132
27412W        W92397  32.636  34.572  13.494
27413W        W92398  32.743  39.543   1.705
27414W        W92399  15.664   8.167  12.231
27415W        W92400   9.994   3.760  13.261
27416W        W92401  17.719  19.115  13.508
27417W        W92402   6.026  22.446  10.330
27418W        W92403  39.296   1.239   0.138
27419W        W92404  29.965  16.623  12.854
27420W        W92405  36.412  24.361   0.076
27421W        W92406  27.692  31.301   2.246
27422W        W92407  36.122  14.770   0.877
27423W        W92408  24.090  25.191  14.050
27424W        W92409  39.841   1.797  14.496
27425W        W92410  19.706  38.742  11.697
27426W        W92411  21.777  24.092  13.393
27427W        W92412  39.765  16.862   2.210
27428W        W92413  13.395   2.998   4.983
27429W        W92414  41.917   3.857   1.862
27430W        W92415   4.348  39.736   2.847
27431W        W92416   9.149  15.065  12.803
27432W        W92417  32.233  18.660   2.817
27433W        W92418   2.712  42.488  10.780
27434W        W92419   4.969  23.026  11.066
27435W        W92420  28.201  12.183   0.282
27436W        W92421  19.169  36.898   1.588
27437W        W92422   6.856  11.058  13.046
27438W        W92423  24.204   0.741   0.798
27439W        W92424  28.151  13.793   1.453
27440W        W92425  19.223  41.314  11.121
27441W        W92426  26.984  15.176   3.397
27442W        W92427   3.758  40.006   3.879
27443W        W92428  32.950  17.078  13.298
27444W        W92429   5.670   4.040  10.784
27445W        W92430  24.669  33.341   1.882
27446W        W92431  23.989  17.638  11.921
27447W        W92432   5.431  15.658  11.445
27448W        W92433  10.187  33.689  11.923
27449W        W92434   9.246  40.343  14.448
27450W        W92435  12.904  32.987   1.461
27451W        W92436   8.851  19.043   4.199
27452W        W92437  40.346  11.837  11.646
27453W        W92438  26.756  20.751   3.264
27454W        W92439   4.900   6.030  11.770
27455W        W92440   7.304  30.180   4.092
27456W        W92441  10.210   9.680  10.702
27457W        W92442  25.590   1.229   3.126
27458W        W92443   7.728   9.867   0.338
27459W        W92444  37.790  18.131   2.846
27460W        W92445  36.878   2.798   1.240
27461W        W92446  32.559  15.220  13.298
27462W        W92447  14.299  44.893  13.485
27463W        W92448   3.237   3.720  12.909
27464W        W92449  44.972  10.709   3.129
27465W        W92450  29.229  27.972   1.635
27466W        W92451  21.791  21.063   2.477
27467W        W92452   2.918  35.810   0.792
27468W        W92453  35.273   3.162  10.774
27469W        W92454  39.532  35.592   0.789
27470W        W92455  44.270  25.425  13.562
27471W        W92456  15.698  30.733  10.271
27472W        W92457  44.243  14.673  13.194
27473W        W92458  37.337  39.798   3.241
27474W        W92459  27.582   9.853   3.339
27475W        W92460   6.209   1.636   3.539
27476W        W92461  35.803  42.393   2.753
27477W        W92462  35.119  41.573  11.133
27478W        W92463  44.717  40.588   3.777
27479W        W92464  12.030  15.130   0.614
27480W        W92465   3.302  42.919   1.463
27481W        W92466   7.822  43.515   2.288
27482W        W92467  26.107  11.600  13.719
27483W        W92468  10.682   9.661  11.951
27484W        W92469   0.335   5.022   0.340
27485W        W92470  26.243   9.356  11.618
27486W        W92471  35.240   5.335  10.561
27487W        W92472   9.296  20.104  13.969
27488W        W92473  17.397  36.949  13.591
27489W        W92474   3.470  14.850  11.652
27490W        W92475  15.518   7.497  13.765
27491W        W92476   1.683  42.075   2.548
27492W        W92477   1.330  31.176  14.518
27493W        W92478  37.067  44.332  13.483
27494W        W92479  24.349  37.385   1.188
27495W        W92480  42.353   3.204   1.396
27496W        W92481  10.979  11.287  10.713
27497W        W92482  39.731  44.091  13.379
27498W        W92483  30.139  41.477  13.774
27499W        W92484  21.771  41.854  14.049
27500W        W92485  23.688  24.646   2.207
27501W        W92486  10.082  15.776  13.493
27502W        W92487   0.498  30.966   4.599
27503W        W92488  34.377  28.673   4.394
27504W        W92489   4.920  20.941   2.117
27505W        W92490  42.271  42.290   4.682
27506W        W92491  31.003  16.905  12.024
27507W        W92492  42.430  18.816   0.743
27508W        W92493   3.632   0.823  11.958
27509W        W92494  25.723  16.690   3.109
27510W        W92495   3.892  30.182  14.412
27511W        W92496   1.362  35.003  13.756
27512W        W92497   4.435  26.694   4.586
27513W        W92498  41.147   4.929  12.574
27514W        W92499  16.106  20.859  14.335
27515W        W92500  44.437  17.219  13.497
27516W        W92501   7.142  42.399   2.430
27517W        W92502  38.591  42.051  11.057
27518W        W92503  19.696  39.974   4.177
27519W        W92504   2.452  27.141   0.871
27520W        W92505  19.117  37.883  13.891
27521W        W92506  18.455   8.794   0.263
27522W        W92507  39.250  18.610  11.125
27523W        W92508  26.605  19.728   4.837
27524W        W92509  24.679  13.549  12.600
27525W        W92510  35.467  29.853  14.906
27526W        W92511  35.616  25.241  12.971
27527W        W92512  27.666   6.146   3.119
27528W        W92513   1.052  33.206  12.409
27529W        W92514  19.516  41.397  13.063
27530W        W92515  19.717   4.346   1.743
27531W        W92516  25.487   8.081  12.471
27532W        W92517  44.986  23.277   4.956
27533W        W92518   5.867  10.321  12.068
27534W        W92519   4.325  25.715   4.134
27535W        W92520  34.662  13.213   2.462
27536W        W92521   5.415  32.690   0.431
27537W        W92522  20.239  14.736  11.975
27538W        W92523  11.561  10.463  10.619
27539W        W92524  43.216  25.045   1.639
27540W        W92525  30.524  26.649  11.308
27541W        W92526  36.956  36.505   0.897
27542W        W92527  40.135  24.774  13.241
27543W        W92528  14.237  43.327  13.245
27544W        W92529  30.335   0.088   9.878
27545W        W92530  27.167  37.595   1.012
27546W        W92531  39.386  24.961  14.759
27547W        W92532  12.471  19.486   0.317
27548W        W92533   9.765   3.921  11.072
27549W        W92534   4.691  21.523   0.268
27550W        W92535  35.587  22.143  12.182
27551W        W92536   1.184   8.951  11.437
27552W        W92537   3.765  39.292  10.924
27553W        W92538   9.242  40.492   2.435
27554W        W92539  26.212  10.176  11.666
27555W        W92540   7.766  16.034   3.171
27556W        W92541  10.978  29.443   4.709
27557W        W92542  43.716  17.269  13.988
27558W        W92543  34.102  11.028   9.608
27559W        W92544  33.850  12.882   3.046
27560W        W92545  26.096  16.058  12.462
27561W        W92546  11.837  20.221  14.403
27562W        W92547  24.611  37.904  11.636
27563W        W92548  10.035   4.672   9.701
27564W        W92549  13.176  17.777  14.449
27565W        W92550  43.509  32.454   3.160
27566W        W92551  35.615  34.178  10.828
27567W        W92552  37.099  14.674   1.703
27568W        W92553  30.083  43.055  12.434
27569W        W92554   9.694  12.112  14.881
27570W        W92555   3.627   2.503   4.332
27571W        W92556  44.318  16.715  12.285
27572W        W92557  12.245  24.545  13.537
27573W        W92558  12.956  37.345  12.330
27574W        W92559  20.461  38.748  13.897
27575W        W92560  39.298  16.796   9.858
27576W        W92561  22.436   7.858   0.388
27577W        W92562   0.866   9.288   3.661
27578W        W92563  14.503  40.423  14.521
27579W        W92564   7.839  10.906  14.451
27580W        W92565  23.515  38.286  12.106
27581W        W92566   0.070  17.256   3.240
27582W        W92567  13.529  22.623   4.334
27583W        W92568  13.199  40.870  10.982
27584W        W92569  19.103   9.768   2.750
27585W        W92570  19.051  39.698  12.343
27586W        W92571  30.693  31.434   0.461
27587W        W92572  23.970  12.828   0.574
27588W        W92573  19.183  35.198  11.224
27589W        W92574  32.602  35.890   1.683
27590W        W92575  21.564  30.341   0.322
27591W        W92576  18.732  16.422  14.830
27592W        W92577  41.479   2.487  14.882
27593W        W92578  24.264   7.429   3.295
27594W        W92579  21.617  21.625   1.340
27595W        W92580  25.973  12.127  11.687
27596W        W92581   5.480   6.662  11.542
27597W        W92582  15.042  25.006  12.485
27598W        W92583   8.822   2.109   1.906
27599W        W92584  26.642  42.391   3.615
27600W        W92585  15.449  34.371  11.205
27601W        W92586  28.944  36.948  11.897
27602W        W92587  13.429   7.147   4.191
27603W        W92588  39.353   2.950   3.137
27604W        W92589  15.931  15.249   1.374
27605W        W92590   4.280  17.680  11.969
27606W        W92591   3.698  41.434   0.273
27607W        W92592   9.126  37.512  14.439
27608W        W92593   6.212  36.403  10.816
27609W        W92594   4.233  33.433   0.405
27610W        W92595  42.474  31.107  11.542
27611W        W92596  17.602  16.353   2.804
27612W        W92597   2.368  36.597   1.768
27613W        W92598  23.267  32.898  13.843
27614W        W92599  40.035  33.307  12.108
27615W        W92600  43.381  20.632  11.166
27616W        W92601  42.831  42.226  13.529
27617W        W92602  16.625  39.818   0.022
27618W        W92603  21.943   1.936  13.970
27619W        W92604  41.168  43.809  14.823
27620W        W92605  25.496   6.764  11.129
27621W        W92606  44.007  13.372  10.704
27622W        W92607  23.985  34.982  11.135
27623W        W92608  29.696  12.224   1.382
27624W        W92609  22.108  26.859   2.724
27625W        W92610  13.357   5.240  10.730
27626W        W92611   9.172  35.467  11.081
27627W        W92612  16.089  19.852  12.930
27628W        W92613  36.127  23.952   3.734
27629W        W92614  26.024   7.707  12.959
27630W        W92615  29.173   3.919   1.293
27631W        W92616  32.402  30.179  12.919
27632W        W92617   2.572  22.778  13.023
27633W        W92618   3.768  33.341   3.186
27634W        W92619  24.542  38.302  14.982
27635W        W92620  24.652  27.017   4.950
27636W        W92621  19.376  14.123   4.601
27637W        W92622  36.939   6.196   4.520
27638W        W92623  39.853  15.713  14.064
27639W        W92624  40.823  25.929   0.293
27640W        W92625  40.853  42.655  13.297
27641W        W92626  25.944  11.775   2.632
27642W        W92627  36.514  40.920   1.416
27643W        W92628  40.380  11.817   0.850
27644W        W92629  36.145  19.692  10.107
27645W        W92630  29.977  36.007  11.458
27646W        W92631  30.762  24.648   2.626
27647W        W92632   9.656   2.940  14.823
27648W        W92633  37.560  43.760  14.260
27649W        W92634   2.666  35.885  14.446
27650W        W92635  24.110  35.647  14.268
27651W        W92636  12.619  38.473  13.517
27652W        W92637  22.000  28.831   4.890
27653W        W92638   2.781  26.126   0.418
27654W        W92639  27.961  13.089   4.154
27655W        W92640  30.635  41.977  13.362
27656W        W92641  14.815  42.084  11.818
27657W        W92642  43.809  42.763  12.387
27658W        W92643  42.212   0.825   1.899
27659W        W92644  41.556   8.657   3.317
27660W        W92645  22.665   3.315  11.587
27661W        W92646   9.169  38.900   4.220
27662W        W92647  37.334  26.133  12.387
27663W        W92648   4.761  13.667  12.515
27664W        W92649  36.842  23.272   0.452
27665W        W92650  35.408  43.178   0.899
27666W        W92651  28.059  42.436  13.060
27667W        W92652   7.619  41.577  13.586
27668W        W92653  36.260  40.006  10.796
27669W        W92654  43.848   4.605   4.874
27670W        W92655  39.131  13.726   4.674
27671W        W92656  34.632   9.269  10.441
27672W        W92657   0.831  24.210  11.580
27673W        W92658  41.463  43.969   4.177
27674W        W92659  19.800  42.495   2.695
27675W        W92660   5.837   0.775   0.665
27676W        W92661  24.465  13.194   3.292
27677W        W92662  43.388  10.150   2.138
27678W        W92663  27.447  20.964   4.221
27679W        W92664  27.079  14.192  11.997
27680W        W92665  31.475  23.966  14.302
27681W        W92666  12.550  42.542   4.130
27682W        W92667  23.673  10.083  14.056
27683W        W92668  11.276  10.072  14.490
27684W        W92669  31.603  20.129   3.627
27685W        W92670  24.216  41.746  10.716
27686W        W92671  42.070  38.579   1.619
27687W        W92672  42.119  28.628  11.966
27688W        W92673  10.241  44.302  11.405
27689W        W92674  40.388  30.757   0.044
27690W        W92675  24.090  34.272  11.718
27691W        W92676  22.306  44.229  13.798
27692W        W92677  42.556  13.808   3.283
27693W        W92678  30.215   6.976   1.329
27694W        W92679   5.738  30.737   2.129
27695W        W92680   0.327  32.663   2.333
27696W        W92681  33.853  34.800   4.566
27697W        W92682  23.178  41.016   3.687
27698W        W92683  39.483  23.158   0.952
27699W        W92684  44.438  11.669   0.255
27700W        W92685   0.315   2.674  11.226
27701W        W92686  27.478  42.996  12.060
27702W        W92687   9.858   6.415   1.880
27703W        W92688  40.826  30.164   4.206
27704W        W92689  38.613  12.487   2.547
27705W        W92690  40.366  44.277  11.877
27706W        W92691   3.321   6.963  13.487
27707W        W92692  20.074  33.736  13.449
27708W        W92693  41.273   0.980   5.049
27709W        W92694  12.180  40.487  13.956
27710W        W92695  44.499  41.723  14.502
27711W        W92696  18.750  34.998  11.436
27712W        W92697  26.202  22.140   1.409
27713W        W92698  15.684   7.784  14.915
27714W        W92699   6.849  10.383  14.333
27715W        W92700   8.340   0.304  13.345
27716W        W92701  44.387  39.410  10.417
27717W        W92702   9.950   1.551  13.397
27718W        W92703   9.771   7.249  14.468
27719W        W92704  16.611   9.583  13.264
27720W        W92705  39.263  17.760  12.599
27721W        W92706  13.869  44.511  10.878
27722W        W92707  11.686  44.977   2.248
27723W        W92708  22.212  33.547  13.368
27724W        W92709  22.213  39.458   4.978
27725W        W92710  18.244   2.798   1.374
27726W        W92711  17.361   9.947   4.809
27727W        W92712   5.767   9.007   4.713
27728W        W92713  33.464  43.085  11.175
27729W        W92714  25.635   5.855  12.102
27730W        W92715  18.586   5.175  11.616
27731W        W92716   5.333  22.460   3.191
27732W        W92717  34.027  37.610   0.449
27733W        W92718  37.497  26.707  14.264
27734W        W92719   1.676  23.708  12.026
27735W        W92720   1.424   8.038  13.382
27736W        W92721  12.850  24.527   3.687
27737W        W92722  31.624  14.595   0.201
27738W        W92723  39.361   3.540  14.975
27739W        W92724  30.100  10.559   2.161
27740W        W92725  32.069  35.635  10.672
27741W        W92726  26.928   2.736  12.434
27742W        W92727  30.157  10.241   4.622
27743W        W92728   6.481  41.060  11.589
27744W        W92729  17.985  10.734   0.890
27745W        W92730   7.166  44.032   1.761
27746W        W92731  43.207  11.381   0.620
27747W        W92732  10.628   7.896  14.701
27748W        W92733  15.059  30.506  14.757
27749W        W92734  10.677  36.155  13.794
27750W        W92735  27.789   8.147  10.682
27751W        W92736  22.962  15.144  13.545
27752W        W92737  14.698  26.701   3.645
27753W        W92738  33.830   0.143   1.275
27754W        W92739   8.530  24.954   3.767
27755W        W92740  20.246   9.559  11.268
27756W        W92741  37.284  23.993  13.794
27757W        W92742  17.088  19.226   9.635
27758W        W92743  22.935  40.045  13.006
27759W        W92744  24.799  43.926  13.076
27760W        W92745  21.665  33.416  12.157
27761W        W92746   0.160  13.598   2.733
27762W        W92747  26.362  24.077  12.253
27763W        W92748   4.724   8.632   4.975
27764W        W92749  19.104  23.556   2.644
27765W        W92750  37.949   5.461  14.017
27766W        W92751  38.054  40.756  11.377
27767W        W92752  19.895  37.457   4.791
27768W        W92753  30.519   6.099  12.598
27769W        W92754   0.145   1.486   1.248
27770W        W92755   0.476   6.854   3.732
27771W        W92756  31.091  33.504   1.193
27772W        W92757  19.133  12.558  14.029
27773W        W92758  12.355  16.305  13.787
27774W        W92759  11.607  10.028   4.946
27775W        W92760  41.953  15.056  12.887
27776W        W92761  29.955  30.701   0.389
27777W        W92762  14.618   1.346   1.220
27778W        W92763   7.627  13.022  10.323
27779W        W92764  15.219  13.385   4.408
27780W        W92765  27.400  37.140   0.895
27781W        W92766  31.921  14.695  13.732
27782W        W92767   0.265  34.100  12.722
27783W        W92768  30.490  15.182   3.829
27784W        W92769  37.095  28.507   3.626
27785W        W92770   4.144  42.302  11.185
27786W        W92771  25.210  14.573   2.247
27787W        W92772  35.927   9.994  12.591
27788W        W92773  38.340  43.941  10.969
27789W        W92774  18.180   7.688   1.736
27790W        W92775  43.037  42.343  14.956
27791W        W92776  37.345  22.554  10.768
27792W        W92777   1.420   2.492   2.097
27793W        W92778  10.494  27.188   0.764
27794W        W92779  31.988  13.348   0.011
27795W        W92780  19.670  14.320   3.771
27796W        W92781  38.626  25.638   9.986
27797W        W92782  17.732  43.725   4.185
27798W        W92783  26.886  34.951  10.782
27799W        W92784  35.703  16.098   1.336
27800W        W92785  38.849  13.994   4.285
27801W        W92786  26.006  21.317   1.879
27802W        W92787   7.397  25.407  14.385
27803W        W92788  27.951  44.419   1.500
27804W        W92789  11.831  36.846  12.489
27805W        W92790  11.076   6.304  14.861
27806W        W92791   2.213  32.584   4.447
27807W        W92792  35.767  20.745  13.466
27808W        W92793  33.345  18.320  11.973
27809W        W92794  13.778   0.478  13.419
27810W        W92795   8.912  18.245  12.584
27811W        W92796  30.418   4.851   4.566
27812W        W92797  14.065  40.501  12.676
27813W        W92798  17.330   0.942  12.899
27814W        W92799  31.397  41.996  11.018
27815W        W92800  41.270  35.319  12.125
27816W        W92801  24.282  14.126   3.688
27817W        W92802  10.044  24.127  12.350
27818W        W92803   5.358  44.817  11.137
27819W        W92804   3.251  19.537  13.966
27820W        W92805  20.630   4.845   2.727
27821W        W92806  18.017  29.922  12.122
27822W        W92807  31.335  16.847  10.620
27823W        W92808   5.244   8.628  12.374
27824W        W92809  22.035  43.145  11.721
27825W        W92810  32.386   7.134  14.676
27826W        W92811  35.129  21.389   4.427
27827W        W92812  44.093  11.406  12.999
27828W        W92813  31.585  19.274   1.308
27829W        W92814  32.049  24.072   4.326
27830W        W92815  42.217   6.094  12.182
27831W        W92816  21.298  44.873   1.331
27832W        W92817  13.109  37.997  14.168
27833W        W92818   6.864   2.879  13.393
27834W        W92819  26.707  17.932   0.031
27835W        W92820  26.725  35.078   4.559
27836W        W92821  17.083   3.406   1.617
27837W        W92822  32.548  39.243   3.902
27838W        W92823  10.376  30.408  12.736
27839W        W92824  27.625   1.941   0.301
27840W        W92825  42.435  39.242  12.905
27841W        W92826  38.434   7.020   2.765
27842W        W92827  28.916  40.441   0.186
27843W        W92828  38.241  34.181  12.523
27844W        W92829  16.943  25.553  14.347
27845W        W92830  18.045  28.919  14.051
27846W        W92831   7.795  36.134   3.650
27847W        W92832  25.443  30.701   0.067
27848W        W92833  36.097   3.652   3.747
27849W        W92834  43.614   7.508  14.485
27850W        W92835  30.616  18.528   0.723
27851W        W92836  10.732  32.588  10.455
27852W        W92837  33.101  36.982  13.450
27853W        W92838  41.130  18.600   2.369
27854W        W92839  20.692  28.085  10.934
27855W        W92840  43.226   3.642  13.376
27856W        W92841  14.252  43.772   2.314
27857W        W92842  31.569   8.127   0.758
27858W        W92843  21.774  41.316   0.402
27859W        W92844  17.052   9.974  14.587
27860W        W92845  10.434  17.495  12.554
27861W        W92846  13.155  35.050  11.069
27862W        W92847  38.686  25.420   0.480
27863W        W92848  42.502  40.767  13.100
27864W        W92849  24.908   2.846  10.517
27865W        W92850   3.100   5.661   2.791
27866W        W92851  34.638  42.067   0.927
27867W        W92852  42.948  17.603   2.459
27868W        W92853   1.304  14.099   3.830
27869W        W92854  33.024  27.152  10.782
27870W        W92855   9.139  13.555   1.688
27871W        W92856  17.792  34.232  14.301
27872W        W92857  43.767  17.185   1.676
27873W        W92858  23.951  26.225   4.612
27874W        W92859  27.047  35.809   1.854
27875W        W92860   2.568  41.061   4.966
27876W        W92861   5.198   0.111  12.433
27877W        W92862  44.910  35.868  13.340
27878W        W92863   5.751  34.526   1.960
27879W        W92864  34.339  26.184  12.479
27880W        W92865  13.246  12.412   0.257
27881W        W92866   7.299   7.103  11.498
27882W        W92867   3.926  43.179   3.360
27883W        W92868   1.587  31.404   4.942
27884W        W92869  18.193  39.925   0.325
27885W        W92870  43.769  16.117   0.973
27886W        W92871  29.134  20.704   4.871
27887W        W92872  26.471  26.635  11.995
27888W        W92873  10.051  11.340  13.474
27889W        W92874   1.220  22.110   2.415
27890W        W92875  13.853  36.062   1.801
27891W        W92876   7.089  42.043   1.186
27892W        W92877  16.997  19.197   1.191
27893W        W92878  40.950   4.856   0.309
27894W        W92879  27.053  23.442   4.122
27895W        W92880  29.901  36.666  13.337
27896W        W92881  32.945  23.758  13.234
27897W        W92882  40.852  39.184  11.571
27898W        W92883  18.142  31.858   0.533
27899W        W92884   7.192   3.390   3.178
27900W        W92885  30.169  42.145   1.254
27901W        W92886   7.453  21.962  12.051
27902W        W92887  31.955  10.375   1.871
27903W        W92888  39.700  27.567   1.453
27904W        W92889  43.933   7.709   2.421
27905W        W92890   8.589  29.926   4.630
27906W        W92891   0.696   0.375  14.356
27907W        W92892  35.634  17.659   3.639
27908W        W92893  17.278  15.715   2.350
27909W        W92894  30.647  34.204  11.123
27910W        W92895  39.275  37.334   2.189
27911W        W92896  38.573  23.375  12.813
27912W        W92897  16.515  20.626   4.395
27913W        W92898  38.428  31.602   4.404
27914W        W92899  24.037   8.494  11.160
27915W        W92900  28.598  30.474   0.372
27916W        W92901  29.352  11.645   2.044
27917W        W92902  34.277  39.009   4.136
27918W        W92903  32.059  10.952   1.906
27919W        W92904  39.158   9.908  10.419
27920W        W92905  41.787   6.835   2.208
27921W        W92906  15.658  42.692  14.905
27922W        W92907  33.309  43.476  12.189
27923W        W92908  19.944  22.548  13.504
27924W        W92909  31.719  15.785  14.396
27925W        W92910  11.162  37.496  10.701
27926W        W92911   5.819  28.313  14.223
27927W        W92912  24.634  34.101   0.698
27928W        W92913  42.791   1.213  12.970
27929W        W92914  24.017  15.139   2.711
27930W        W92915  37.919  35.894   4.281
27931W        W92916   8.852   8.469  11.546
27932W        W92917  11.398   7.923  14.045
27933W        W92918  37.402  29.546  11.052
27934W        W92919  39.029   3.461   0.458
27935W        W92920  25.645   7.590   3.638
27936W        W92921  35.004  25.272   4.194
27937W        W92922  28.735   0.685   4.176
27938W        W92923  23.198  28.323  14.037
27939W        W92924  31.614   9.335   2.177
27940W        W92925  17.534  38.567  11.938
27941W        W92926  27.063  12.666  14.041
27942W        W92927  27.123   6.620  10.493
27943W        W92928   7.273  44.245  12.905
27944W        W92929  43.929  33.934  12.775
27945W        W92930  10.261   8.048  14.357
27946W        W92931  29.078  32.437  11.217
27947W        W92932  16.793   2.227  14.976
27948W        W92933  36.430  34.274  12.490
27949W        W92934  37.616   4.454   0.961
27950W        W92935  21.163  22.921   4.100
27951W        W92936  38.271  18.039  11.979
27952W        W92937  19.482  44.330   4.088
27953W        W92938   7.947   3.572   2.599
27954W        W92939   0.999  32.961   2.743
27955W        W92940  36.863  23.246   1.720
27956W        W92941   8.427   5.828   0.455
27957W        W92942  10.847   3.547   0.825
27958W        W92943  28.986  38.412  13.931
27959W        W92944  17.149  38.384  14.804
27960W        W92945  29.493  29.632   4.197
27961W        W92946   6.519  13.725  14.807
27962W        W92947   4.287  39.101  14.391
27963W        W92948  25.229  37.417   1.867
27964W        W92949  19.268  30.465   3.654
27965W        W92950  29.510  15.637   3.729
27966W        W92951  10.405   4.702   1.413
27967W        W92952  29.133  11.335   3.747
27968W        W92953  23.141  28.147   4.346
27969W        W92954  41.423  11.297   3.063
27970W        W92955   4.560  40.438  14.001
27971W        W92956  22.935  12.005   3.197
27972W        W92957  44.694  37.716  12.435
27973W        W92958  34.578  33.678   2.097
27974W        W92959  18.175  43.973  13.549
27975W        W92960   4.936  20.656  11.529
27976W        W92961  25.483  38.640   1.865
27977W        W92962  24.905   7.589  11.245
27978W        W92963  26.570  15.652  10.588
27979W        W92964  29.142  17.653   1.096
27980W        W92965  37.160  30.082  14.291
27981W        W92966  31.269  12.890   1.257
27982W        W92967  21.513   7.213  14.764
27983W        W92968  10.934   1.101  10.674
27984W        W92969   7.960  13.351   1.257
27985W        W92970  20.139  11.885   2.345
27986W        W92971  33.349  12.159  12.284
27987W        W92972   4.843  13.289   2.149
27988W        W92973  44.274  21.042   2.202
27989W        W92974  26.090   3.329   1.216
27990W        W92975  17.591  18.632  14.979
27991W        W92976  14.480  37.443  12.691
27992W        W92977  29.329  18.347   3.867
27993W        W92978   8.952  43.657   0.208
27994W        W92979  18.236  15.038   2.685
27995W        W92980   9.722  32.708   0.452
27996W        W92981   2.419   8.612   4.094
27997W        W92982  29.943  13.578  14.904
27998W        W92983  36.190   9.646   2.244
27999W        W92984   7.402  25.141   0.562
28000W        W92985   4.480  24.098  12.099
28001W        W92986  40.551  10.633   2.307
28002W        W92987  12.829  39.380   4.274
28003W        W92988  39.938  21.640   4.921
28004W        W92989  18.701   2.869  11.827
28005W        W92990  42.834  12.235  11.851
28006W        W92991  22.175  14.279  12.803
28007W        W92992   9.727  32.161  13.421
28008W        W92993  30.443   9.680   2.029
28009W        W92994   5.075  33.481   1.182
28010W        W92995   4.201   8.007  14.447
28011W        W92996   6.102  11.901  14.453
28012W        W92997  18.004   1.918   1.848
28013W        W92998   5.330   6.146   0.805
28014W        W92999   7.505  30.977   2.382
28015W        W93000  21.701  31.621   1.906
28016W        W93001  44.965   6.205   3.222
28017W        W93002   1.128   6.482  13.937
28018W        W93003  34.189  26.688   0.831
28019W        W93004  19.121  32.585   1.384
28020W        W93005   3.740   0.080   4.316
28021W        W93006   1.032   0.236  12.534
28022W        W93007  15.586  44.935   3.311
28023W        W93008  40.349   1.292   2.768
28024W        W93009  25.210  18.548   1.257
28025W        W93010  35.968   2.145  14.141
28026W        W93011  30.710   2.268  10.782
28027W        W93012  23.601  26.167   4.186
28028W        W93013  32.933  40.823   1.666
28029W        W93014  39.923   9.969   4.694
28030W        W93015  15.362  20.107  11.483
28031W        W93016   3.137  28.437   2.569
28032W        W93017  17.851  23.989   0.987
28033W        W93018  34.471   2.897   3.338
28034W        W93019  43.274  42.386   2.781
28035W        W93020  24.692  32.978  11.634
28036W        W93021  25.398   5.965   4.570
28037W        W93022   5.400   8.137  12.572
28038W        W93023  40.075  24.125  12.738
28039W        W93024  40.081  17.777   4.937
28040W        W93025  11.753  18.442  10.082
28041W        W93026  15.101  26.420  11.533
28042W        W93027  37.617  44.742   0.689
28043W        W93028  22.851  34.183   3.761
28044W        W93029  24.542  12.086   4.832
28045W        W93030   3.475  38.672   3.629
28046W        W93031  16.288  37.304  11.475
28047W        W93032  15.526  43.280  12.445
28048W        W93033  40.579  10.418   4.109
28049W        W93034   0.017   0.866  14.691
28050W        W93035  33.561  13.493   0.652
28051W        W93036  19.275  20.529   3.322
28052W        W93037  13.441  33.886  11.147
28053W        W93038  32.890   6.498  11.636
28054W        W93039  20.409  20.283  11.437
28055W        W93040  12.647  37.905   1.891
28056W        W93041  39.497   0.504   4.140
28057W        W93042  43.355  20.597  13.078
28058W        W93043  24.380   1.757   5.005
28059W        W93044  13.069   0.492   2.269
28060W        W93045  25.962  36.919   0.739
28061W        W93046   2.629  32.999  11.543
28062W        W93047  14.494  31.096   5.210
28063W        W93048  20.047  27.255  11.836
28064W        W93049  34.170  31.481   2.380
28065W        W93050  42.124  22.759  14.844
28066W        W93051  11.094  22.985   1.274
28067W        W93052  35.469  31.034   1.311
28068W        W93053  27.666  27.161   3.284
28069W        W93054  18.021  43.821   1.175
28070W        W93055   8.139  27.087  10.982
28071W        W93056  11.667   1.030   2.246
28072W        W93057  32.621   4.370  14.052
28073W        W93058  37.441  23.294  10.445
28074W        W93059  28.050  42.263   1.517
28075W        W93060  15.312  30.555   2.086
28076W        W93061   0.032  41.798   3.697
28077W        W93062  41.984  34.544   2.415
28078W        W93063  36.255  26.543   5.291
28079W        W93064  35.903  42.354  14.043
28080W        W93065  10.828   6.608   4.123
28081W        W93066  13.775  19.644   0.917
28082W        W93067  12.843  41.101  13.362
28083W        W93068  42.049  31.943  11.966
28084W        W93069  12.759   2.867  14.396
28085W        W93070  29.695  23.442  12.029
28086W        W93071   5.100  43.200   1.940
28087W        W93072  32.909  29.232   1.276
28088W        W93073   5.292  10.587   0.386
28089W        W93074  29.885  29.953  10.289
28090W        W93075   8.218  34.817  12.456
28091W        W93076  35.753  28.515   2.750
28092W        W93077   2.680  41.550   0.249
28093W        W93078  15.054  34.298   1.220
28094W        W93079   5.257  15.737   3.885
28095W        W93080  40.049  26.684   1.195
28096W        W93081  27.163  43.701   3.670
28097W        W93082  27.026  35.514   5.326
28098W        W93083  31.047   0.740  14.774
28099W        W93084  12.238   3.499   2.153
28100W        W93085   2.499  44.588  12.046
28101W        W93086  35.103  34.599  12.309
28102W        W93087  39.137  37.660   0.346
28103W        W93088   0.043   7.001   0.276
28104W        W93089  22.651   2.356  14.307
28105W        W93090  17.489   7.799  13.786
28106W        W93091  31.763  37.359  13.501
28107W        W93092  36.187  32.274   4.132
28108W        W93093  15.138  21.830   2.541
28109W        W93094   8.170  31.414   4.244
28110W        W93095  31.698  20.254   2.258
28111W        W93096  24.175  44.905  11.091
28112W        W93097  28.509   0.949   3.032
28113W        W93098  18.773  24.933   4.003
28114W        W93099  42.685  27.631   0.347
28115W        W93100  41.223   2.257   1.326
28116W        W93101  21.815   2.974  12.707
28117W        W93102  32.022  34.016  13.167
28118W        W93103  38.416  14.432  12.663
28119W        W93104  38.608  12.174   4.721
28120W        W93105  10.608  35.389   2.203
28121W        W93106  29.419  11.402  14.001
28122W        W93107   1.928  20.221   3.643
28123W        W93108  12.945  25.987  12.474
28124W        W93109   5.164  40.571   1.398
28125W        W93110  21.188  24.729  13.035
28126W        W93111  41.824  40.917  13.544
28127W        W93112  28.515   4.209  12.715
28128W        W93113  30.911  16.103  14.867
28129W        W93114   4.243  28.313  13.479
28130W        W93115  10.074  40.956   4.796
28131W        W93116   7.298  18.264   4.146
28132W        W93117  39.280  15.768   3.650
28133W        W93118  18.581  28.704  12.363
28134W        W93119   9.584  10.326   2.205
28135W        W93120   5.697   9.070  14.984
28136W        W93121  28.133  29.032   0.992
28137W        W93122  29.860   4.836  11.574
28138W        W93123  13.179  23.706   5.057
28139W        W93124  11.437  15.737   0.875
28140W        W93125  37.828  24.561  14.068
28141W        W93126  14.561  20.399  11.102
28142W        W93127  30.138  25.379  13.363
28143W        W93128  41.385   0.043  14.312
28144W        W93129  15.544  10.760   2.648
28145W        W93130  35.594  28.721   1.406
28146W        W93131  14.735  25.580  11.494
28147W        W93132  19.241  35.861   4.032
28148W        W93133  25.163  39.716   3.299
28149W        W93134   6.122  26.597  10.139
28150W        W93135   9.631  31.717   3.404
28151W        W93136  13.707  43.201   4.052
28152W        W93137  20.183  22.735  12.970
28153W        W93138   1.990  10.664  14.367
28154W        W93139   1.296  25.974   4.531
28155W        W93140   4.883   0.324  13.035
28156W        W93141  44.556  44.752   4.798
28157W        W93142  38.146  39.520   4.544
28158W        W93143  17.016  31.994   4.183
28159W        W93144  26.797  44.543   1.793
28160W        W93145  44.953   9.390  13.452
28161W        W93146  40.308  21.480  13.327
28162W        W93147  36.911  42.806  11.198
28163W        W93148  41.105  25.549   0.498
28164W        W93149  15.584  11.082  14.744
28165W        W93150  15.684   6.525  14.279
28166W        W93151  19.656  34.953   3.172
28167W        W93152  15.084   5.658   2.114
28168W        W93153   3.321  19.032   1.215
28169W        W93154   7.698  23.022  11.645
28170W        W93155  40.449   8.692   4.532
28171W        W93156  27.241  44.242   5.572
28172W        W93157  29.007  34.532   3.899
28173W        W93158   4.424  18.534   3.596
28174W        W93159  14.881   6.611   2.656
28175W        W93160  32.302  22.759  11.540
28176W        W93161   1.552  21.489   1.306
28177W        W93162  26.148   4.778   1.406
28178W        W93163  17.712  34.223   0.284
28179W        W93164  23.557  23.020   2.429
28180W        W93165  25.254  36.419  14.047
28181W        W93166  14.629   1.400   2.577
28182W        W93167  11.969   7.055   4.573
28183W        W93168  28.898   8.353   4.807
28184W        W93169  34.018  32.371  13.544
28185W        W93170   2.633   7.328   3.677
28186W        W93171   6.785  10.853   0.501
28187W        W93172  12.948  25.207  10.343
28188W        W93173  16.754  38.596   3.699
28189W        W93174  11.826  32.861  14.463
28190W        W93175  13.855  34.611  13.414
28191W        W93176  17.588  42.040   0.060
28192W        W93177  24.047  28.481  12.587
28193W        W93178  34.206  36.398   2.167
28194W        W93179  27.962  32.059  14.536
28195W        W93180  21.561  23.989   3.679
28196W        W93181  12.789  35.384  12.092
28197W        W93182   3.995  11.681  10.870
28198W        W93183  11.642  32.405   4.147
28199W        W93184   6.046  32.885   4.653
28200W        W93185  26.631  31.162  10.640
28201W        W93186  28.647  37.972  12.856
28202W        W93187  40.593  29.681   3.350
28203W        W93188  23.854  22.735   0.953
28204W        W93189   9.084  33.516  11.191
28205W        W93190   6.819   7.755   3.203
28206W        W93191  19.793   5.734  14.845
28207W        W93192   4.906  12.906  11.564
28208W        W93193   6.857   1.390   2.169
28209W        W93194  44.035  29.198   0.075
28210W        W93195  18.814   9.150   1.763
28211W        W93196  18.088  13.848   0.859
28212W        W93197   5.846  36.018   0.262
28213W        W93198  11.155  34.499  10.769
28214W        W93199  15.613   4.087   2.396
28215W        W93200  43.830  37.892   2.609
28216W        W93201  43.564  36.459   4.005
28217W        W93202  24.494  24.174  11.563
28218W        W93203  27.647  29.874  11.812
28219W        W93204  34.533  30.706  13.884
28220W        W93205   2.942  12.309  14.481
28221W        W93206   3.144   0.388  10.607
28222W        W93207   0.318   6.648  12.033
28223W        W93208  10.350   1.867  14.313
28224W        W93209  40.269  15.472  12.215
28225W        W93210  17.900  20.504  14.865
28226W        W93211   3.404  39.559   1.687
28227W        W93212  28.020  28.367   3.762
28228W        W93213  12.151  26.087  14.691
28229W        W93214  29.845  14.869  12.497
28230W        W93215  18.230  22.432   3.323
28231W        W93216   6.321  18.557  10.976
28232W        W93217  12.034  20.276  12.454
28233W        W93218  40.558  27.252   5.272
28234W        W93219  15.850  27.003  13.803
28235W        W93220   8.244   6.127  13.288
28236W        W93221  28.413   2.630  12.428
28237W        W93222   4.697  23.603  12.127
28238W        W93223  44.626  10.337  12.023
28239W        W93224  38.421  43.209   3.098
28240W        W93225   8.129   0.879  13.322
28241W        W93226  12.339  31.537   4.549
28242W        W93227  10.868   1.258  14.268
28243W        W93228  31.081   2.442   3.643
28244W        W93229   2.209  41.261   1.393
28245W        W93230  30.081  39.072  11.146
28246W        W93231  21.470  21.550   3.782
28247W        W93232  19.568  34.553   2.804
28248W        W93233  29.377  32.047  14.417
28249W        W93234   9.330  18.467  11.161
28250W        W93235  20.194  24.902   3.215
28251W        W93236  37.809  33.551   3.826
28252W        W93237  37.487  21.212   1.331
28253W        W93238  36.875  16.128   4.365
28254W        W93239  23.451  27.745  12.145
28255W        W93240  35.260  15.901  13.029
28256W        W93241   4.430   7.046   1.410
28257W        W93242   2.739  10.769   2.758
28258W        W93243  35.818  29.434   2.276
28259W        W93244  16.594  34.263   0.285
28260W        W93245  11.791   4.330  13.061
28261W        W93246   2.434  25.641  14.093
28262W        W93247  41.959  43.432  11.406
28263W        W93248  41.294   6.186  13.975
28264W        W93249  41.907  12.846  14.818
28265W        W93250  15.077  25.894   5.452
28266W        W93251  34.549  39.825  11.048
28267W        W93252  30.971  23.305   4.525
28268W        W93253   9.765  12.327  12.489
28269W        W93254   5.652  28.124  13.403
28270W        W93255   6.428  36.104  12.102
28271W        W93256   2.247  19.236   0.997
28272W        W93257   8.200  14.528   1.792
28273W        W93258   5.624  39.446   3.387
28274W        W93259   9.159  26.587   2.661
28275W        W93260  24.014  12.366  12.375
28276W        W93261  24.636  40.379  11.027
28277W        W93262  24.739  15.353  12.245
28278W        W93263  15.192  20.532  14.330
28279W        W93264  32.781  44.672  14.135
28280W        W93265   4.868  15.777  10.638
28281W        W93266  43.198  28.923   2.654
28282W        W93267  24.710  18.687   1.279
28283W        W93268  18.524  35.031  14.286
28284W        W93269  39.317  33.917   0.776
28285W        W93270  22.422  26.155   2.321
28286W        W93271  22.967  32.656   4.993
28287W        W93272  44.341   4.722   4.590
28288W        W93273   8.342   8.271  14.824
28289W        W93274   8.924  13.776   0.338
28290W        W93275  25.870  31.103  11.673
28291W        W93276  42.578  25.811   2.384
28292W        W93277  38.884  15.179   2.598
28293W        W93278  35.929  41.808  10.620
28294W        W93279  36.359  19.137  11.188
28295W        W93280  13.779  11.907   1.008
28296W        W93281  29.191  43.815  12.665
28297W        W93282   6.299  11.316   2.185
28298W        W93283  34.472  20.638  11.173
28299W        W93284  38.297  19.618   2.270
28300W        W93285  33.518  21.055   2.263
28301W        W93286  22.675   7.065  14.248
28302W        W93287  38.402  20.264  14.486
28303W        W93288  40.341  28.873   3.066
28304W        W93289  20.566  18.104   0.708
28305W        W93290  18.352  29.107  13.598
28306W        W93291   1.155   2.648  13.927
28307W        W93292  31.859  21.250   4.144
28308W        W93293  37.844  24.522  13.180
28309W        W93294  32.482  11.979  11.572
28310W        W93295  34.501  10.115   2.774
28311W        W93296  34.875   1.947   1.155
28312W        W93297  11.205  17.611  11.998
28313W        W93298  14.382   0.485   0.769
28314W        W93299   2.146   6.307  12.896
28315W        W93300  31.995   0.046  11.759
28316W        W93301   2.233  10.316  12.051
28317W        W93302  10.361   5.206  10.514
28318W        W93303  40.960   2.043  13.969
28319W        W93304  24.020  25.560  12.569
28320W        W93305   3.626  25.922  11.220
28321W        W93306  30.422  21.624   4.428
28322W        W93307  20.701   3.708  12.585
28323W        W93308  23.827  33.100  10.658
28324W        W93309  19.589  30.658   0.638
28325W        W93310  15.089   5.762  13.038
28326W        W93311  29.660  44.879   0.449
28327W        W93312  21.877  24.264   3.224
28328W        W93313  19.239  41.057   2.901
28329W        W93314   9.382   6.356   3.154
28330W        W93315  10.598  44.629  11.239
28331W        W93316  38.591  34.811   2.643
28332W        W93317  20.573  41.846   2.518
28333W        W93318  27.231  27.738  13.175
28334W        W93319  16.155  44.034  12.540
28335W        W93320  11.739  35.164   4.008
28336W        W93321   0.448  28.694   1.737
28337W        W93322  27.006  21.721   3.585
28338W        W93323  14.710  41.232  11.212
28339W        W93324  15.674   7.300   0.781
28340W        W93325  31.375  39.223  12.475
28341W        W93326  16.735  38.909   4.116
28342W        W93327   6.382  30.746  14.498
28343W        W93328   7.399   6.457  12.570
28344W        W93329  11.782  21.216  12.375
28345W        W93330  13.375  10.990   0.649
28346W        W93331  10.358   0.322   1.892
28347W        W93332  24.053   1.556   9.800
28348W        W93333  12.662  12.903   2.327
28349W        W93334  11.464   2.739  11.505
28350W        W93335  35.241  27.194  14.261
28351W        W93336  29.917   6.292   3.558
28352W        W93337  42.957  17.889  13.508
28353W        W93338  35.237  28.224   3.658
28354W        W93339   3.770  37.394  11.251
28355W        W93340  21.196  11.549   4.371
28356W        W93341  29.014  28.862   4.535
28357W        W93342   3.599  44.510  10.925
28358W        W93343  16.567  36.172  13.928
28359W        W93344   4.310  15.902  13.039
28360W        W93345  14.285  14.397   0.861
28361W        W93346  16.210  19.816  13.441
28362W        W93347  30.914   0.240  14.571
28363W        W93348  32.169   8.833  12.377
28364W        W93349  26.531  34.487   0.774
28365W        W93350   8.826  29.928   2.696
28366W        W93351  23.986  23.461  10.756
28367W        W93352  43.855  27.566   1.687
28368W        W93353  37.537  13.070  14.262
28369W        W93354  37.283  19.535   0.426
28370W        W93355  35.818  16.844   2.261
28371W        W93356   0.504  26.268   1.930
28372W        W93357  19.314  38.993  12.855
28373W        W93358  16.868  38.923  11.478
28374W        W93359  19.553   2.257   1.903
28375W        W93360  32.450  24.548   0.741
28376W        W93361   5.933  17.779   0.877
28377W        W93362  42.921  24.090  11.213
28378W        W93363  10.889  17.260  14.222
28379W        W93364  34.677  22.007  12.304
28380W        W93365  39.514  37.575  13.858
28381W        W93366  26.419  29.640   4.247
28382W        W93367  37.541  43.073   0.404
28383W        W93368  43.005  25.947   0.492
28384W        W93369  28.403  12.791  10.613
28385W        W93370  10.744  11.822  11.424
28386W        W93371  17.083  25.390  13.443
28387W        W93372  21.770  25.915   3.674
28388W        W93373  30.528  26.936  12.255
28389W        W93374  12.344  33.473   0.010
28390W        W93375  18.336  25.001  13.390
28391W        W93376  16.398  39.479   3.060
28392W        W93377  15.636  11.009   0.991
28393W        W93378  27.593  37.413  10.588
28394W        W93379   7.275   1.470  12.676
28395W        W93380  22.636   2.784  11.104
28396W        W93381   6.547  23.561  14.398
28397W        W93382  11.204  23.942   3.301
28398W        W93383  31.541   4.399  14.547
28399W        W93384  15.819  17.340   4.988
28400W        W93385   3.532  37.395   0.754
28401W        W93386  12.064  19.461   2.448
28402W        W93387  19.523  18.336   4.446
28403W        W93388  17.610  44.282   2.053
28404W        W93389  32.545  20.483  13.907
28405W        W93390   0.888   2.400  14.924
28406W        W93391  19.715  28.870   2.687
28407W        W93392  15.815  35.984  13.618
28408W        W93393  41.828  40.391   2.735
28409W        W93394  36.609   5.879  13.068
28410W        W93395  15.403  43.909   3.095
28411W        W93396  39.930   6.270   3.336
28412W        W93397  17.722  37.010  13.976
28413W        W93398   8.343  42.463   1.206
28414W        W93399  39.813  31.798   0.570
28415W        W93400  42.689   9.720   1.715
28416W        W93401  13.298  43.544  12.540
28417W        W93402  38.524   1.457  14.723
28418W        W93403  36.395  40.783  13.303
28419W        W93404   1.163  18.007   4.429
28420W        W93405  14.847   9.239   0.908
28421W        W93406  44.732   5.202  12.000
28422W        W93407  36.027  14.024  12.168
28423W        W93408  37.398  43.876  11.890
28424W        W93409  12.836  12.857   0.930
28425W        W93410  40.520  33.141  10.604
28426W        W93411  13.712  19.945   4.569
28427W        W93412  30.536   5.268  10.632
28428W        W93413  40.766  15.728   3.299
28429W        W93414  25.199   2.024  14.889
28430W        W93415   1.132  42.377   1.887
28431W        W93416  27.987  38.173   3.631
28432W        W93417   2.533  25.217   5.133
28433W        W93418  21.975  12.897   2.843
28434W        W93419  25.047  13.098  12.557
28435W        W93420  40.976  23.059  10.944
28436W        W93421   0.752   9.722   2.780
28437W        W93422  24.996  25.900  12.894
28438W        W93423   3.915  28.201   3.250
28439W        W93424  30.867  33.538  10.706
28440W        W93425  44.847  14.566  12.413
28441W        W93426  19.467  28.549   5.061
28442W        W93427  44.350   1.495   4.131
28443W        W93428   1.348   6.661  12.576
28444W        W93429  29.143  23.011   3.722
28445W        W93430  15.716  42.112  14.532
28446W        W93431  24.286   8.866   0.701
28447W        W93432  32.656  35.945   4.548
28448W        W93433  20.312   3.104   1.048
28449W        W93434  20.153  23.722   4.643
28450W        W93435  13.881   2.152  11.668
28451W        W93436  32.954  42.465   2.859
28452W        W93437  34.628  25.461   0.890
28453W        W93438  37.449  22.331  14.405
28454W        W93439  18.652   2.530   1.496
28455W        W93440  20.831   8.986   5.335
28456W        W93441  25.140  38.906  11.065
28457W        W93442  10.684  29.143  13.362
28458W        W93443  35.537  31.472   2.110
28459W        W93444  41.864   5.132   2.730
28460W        W93445  42.110  14.625   5.154
28461W        W93446  44.592  17.552  13.870
28462W        W93447  30.823  27.127   4.732
28463W        W93448   2.775  29.518  14.388
28464W        W93449  20.249  19.568   3.150
28465W        W93450  16.725  33.141  13.120
28466W        W93451  16.790   3.212  13.469
28467W        W93452  30.715  44.786  14.746
28468W        W93453  34.614  15.066  10.787
28469W        W93454  14.741   8.146   1.435
28470W        W93455  27.216  21.954  13.375
28471W        W93456  25.096  39.047   2.686
28472W        W93457  32.325  25.060   4.732
28473W        W93458  27.440  11.785   4.302
28474W        W93459  11.099  27.447   3.655
28475W        W93460  21.707  41.726  11.105
28476W        W93461  26.034  29.692   2.663
28477W        W93462  25.485  41.695  10.716
28478W        W93463  21.204  37.112   0.310
28479W        W93464  23.480   4.261   2.892
28480W        W93465   8.748  33.955  13.946
28481W        W93466  19.593  14.272   0.361
28482W        W93467  29.232  14.808   1.678
28483W        W93468   2.041  11.138   3.095
28484W        W93469   0.057  32.963   2.719
28485W        W93470  36.003  27.507   3.352
28486W        W93471  17.607   9.449  10.262
28487W        W93472  21.929  40.391   2.331
28488W        W93473  13.858  16.578   2.537
28489W        W93474  40.066   2.670  12.195
28490W        W93475  14.193  33.867   0.966
28491W        W93476   7.125  43.101  12.464
28492W        W93477  36.911  17.136  12.452
28493W        W93478  35.731  32.516   3.436
28494W        W93479  30.457  30.988   3.713
28495W        W93480  23.733  25.456  10.706
28496W        W93481  30.487   4.910   4.073
28497W        W93482  30.581  19.318   3.181
28498W        W93483   1.782   5.103  13.559
28499W        W93484  39.721  30.730  10.957
28500W        W93485  36.599   2.345   1.234
28501W        W93486  10.743  13.111   4.046
28502W        W93487   5.639  24.457  11.191
28503W        W93488  32.196   7.794  11.179
28504W        W93489  33.842  20.663  13.440
28505W        W93490  43.248   2.519  10.911
28506W        W93491  12.890  18.621   1.243
28507W        W93492  24.715  28.607  13.936
28508W        W93493  25.512   6.185  11.573
28509W        W93494  30.931   9.863   0.697
28510W        W93495   1.749  40.529  11.564
28511W        W93496  14.466  27.871   1.869
28512W        W93497   2.740  22.751   4.145
28513W        W93498   9.514  27.939  11.957
28514W        W93499  40.385  34.145   0.045
28515W        W93500  16.698  19.189   0.739
28516W        W93501  20.172   3.442   9.972
28517W        W93502   5.353  20.747  12.443
28518W        W93503   4.744  38.170  11.546
28519W        W93504  16.327   9.787   3.264
28520W        W93505  34.672  12.302   3.524
28521W        W93506  19.070   0.782   1.189
28522W        W93507   4.875   9.384  11.832
28523W        W93508   5.240   4.917   4.207
28524W        W93509   5.291  25.624   4.605
28525W        W93510  14.685  39.592  13.487
28526W        W93511  24.298  24.936  11.232
28527W        W93512  19.375   9.126  12.524
28528W        W93513  22.996   3.075  14.526
28529W        W93514  26.109  29.871  13.476
28530W        W93515  43.434  14.373   1.123
28531W        W93516  31.008  10.520  14.094
28532W        W93517  14.855  18.250   1.456
28533W        W93518  19.682   8.735   4.704
28534W        W93519   7.644   8.890   1.514
28535W        W93520  36.922   8.910   3.678
28536W        W93521  18.353   1.959   3.245
28537W        W93522  24.125   4.025  11.871
28538W        W93523  31.828  29.379  13.757
28539W        W93524  22.558  26.020   4.107
28540W        W93525   1.348  17.866   0.763
28541W        W93526  25.954  22.016   4.339
28542W        W93527   1.310   5.150  14.222
28543W        W93528  18.801  18.026   4.333
28544W        W93529   6.910   5.684   0.834
28545W        W93530  11.704  24.444   3.114
28546W        W93531  32.079   6.201  13.957
28547W        W93532  41.008   2.054  13.014
28548W        W93533  39.511  23.937  11.081
28549W        W93534  41.803  24.981   2.085
28550W        W93535   1.209  15.145  14.449
28551W        W93536   5.164  20.673   0.790
28552W        W93537   6.650  17.640   4.608
28553W        W93538  39.085  15.892   0.001
28554W        W93539  16.547   2.139  12.784
28555W        W93540  30.955  35.469  14.560
28556W        W93541  19.340   6.962  11.259
28557W        W93542  30.505  11.637   2.840
28558W        W93543  11.648  43.999   1.192
28559W        W93544   1.035  11.065  13.048
28560W        W93545   9.430   8.824   4.185
28561W        W93546  20.119  34.103  11.016
28562W        W93547  28.419   9.303   2.108
28563W        W93548  42.741  34.053   2.335
28564W        W93549  29.796  11.116  12.407
28565W        W93550   1.043   0.398   0.331
28566W        W93551  23.970  27.489   4.502
28567W        W93552  33.623  44.137   3.646
28568W        W93553  43.182  13.658  13.876
28569W        W93554  13.425  42.427  14.797
28570W        W93555  36.141   1.717   3.621
28571W        W93556  25.574  42.978   0.050
28572W        W93557   7.108   6.697   2.190
28573W        W93558  43.583  26.722   0.745
28574W        W93559   6.685  39.071   2.782
28575W        W93560  29.164  18.242  14.815
28576W        W93561   2.683  11.840  14.432
28577W        W93562  15.621  27.829  14.974
28578W        W93563  43.155  27.425  10.715
28579W        W93564  33.107  28.612  13.369
28580W        W93565  37.534  34.252  14.986
28581W        W93566   2.504  29.571   3.165
28582W        W93567   0.978  24.419  12.065
28583W        W93568  32.062  33.852   1.731
28584W        W93569   2.210  44.848   0.014
28585W        W93570  26.121  21.172  12.420
28586W        W93571  27.126   6.296  11.239
28587W        W93572  18.297  26.409   4.770
28588W        W93573  21.383  10.210   2.724
28589W        W93574  10.790  40.918   2.704
28590W        W93575  29.145  39.554   1.841
28591W        W93576  32.792   3.877   2.403
28592W        W93577  17.791  41.748  14.108
28593W        W93578  24.702  23.054  10.823
28594W        W93579  23.001   0.813  10.777
28595W        W93580  10.459  22.001   3.648
28596W        W93581  11.577  31.379  13.246
28597W        W93582   8.342  22.532   1.423
28598W        W93583  14.690  42.941   0.359
28599W        W93584  34.478  30.136   2.941
28600W        W93585   9.510   7.836  13.320
28601W        W93586  16.941  29.899  14.869
28602W        W93587   5.739  38.552   2.173
28603W        W93588   9.928   7.381  10.978
28604W        W93589  34.611  17.073  10.685
28605W        W93590  14.659  12.347   0.248
28606W        W93591  38.455  35.317   1.628
28607W        W93592   6.686  16.629   0.897
28608W        W93593  34.920  33.661   0.793
28609W        W93594   1.064   4.859  12.780
28610W        W93595   4.236  44.268   2.755
28611W        W93596  19.514  13.025   2.676
28612W        W93597  37.033  12.315   4.689
28613W        W93598  23.802   2.283  13.279
28614W        W93599  22.242   1.996   5.006
28615W        W93600  28.429  40.440   3.302
28616W        W93601  24.001  32.494   1.770
28617W        W93602  30.473  38.837  14.623
28618W        W93603   1.840  10.239   0.566
28619W        W93604   2.209  18.005  11.826
28620W        W93605  32.988  16.337  13.833
28621W        W93606  18.990  22.390  13.362
28622W        W93607  19.573  44.947  10.954
28623W        W93608   9.333   0.729  14.764
28624W        W93609  43.562  41.873  11.966
28625W        W93610  16.728  41.010   4.768
28626W        W93611  24.577  37.008   2.020
28627W        W93612   3.857  44.498  14.913
28628W        W93613  25.768   6.912   1.784
28629W        W93614  41.203  12.861   0.836
28630W        W93615   7.215  31.019   1.581
28631W        W93616   2.639  15.964   4.256
28632W        W93617  33.129  15.029   0.299
28633W        W93618  42.672  14.619  12.941
28634W        W93619  20.250  12.295   1.901
28635W        W93620  38.943  40.808   2.733
28636W        W93621  30.110   4.462   4.699
28637W        W93622  23.094  36.184   4.793
28638W        W93623  36.127  13.243   2.393
28639W        W93624  40.634  35.799   2.416
28640W        W93625   6.394  34.294  12.494
28641W        W93626  22.200  24.601  10.272
28642W        W93627  21.727  32.029  12.465
28643W        W93628  21.302  18.987  14.911
28644W        W93629  30.131  15.360  10.854
28645W        W93630   2.486  34.200   3.266
28646W        W93631  26.318   0.734   5.132
28647W        W93632  15.597  17.528  13.912
28648W        W93633  17.833  33.841   3.142
28649W        W93634  34.340   8.525   2.748
28650W        W93635  34.693  11.685  12.003
28651W        W93636  40.035  37.058  14.361
28652W        W93637  24.589   9.667  14.808
28653W        W93638  18.676  42.370   1.431
28654W        W93639  28.526   9.189  14.424
28655W        W93640   8.722  30.129   0.372
28656W        W93641  14.232   5.663   1.706
28657W        W93642  38.952   3.691  10.376
28658W        W93643   5.359  15.112  11.990
28659W        W93644   1.334   4.067   0.951
28660W        W93645   6.585   9.893  12.035
28661W        W93646   2.220  38.791  14.280
28662W        W93647  15.227  25.181  13.331
28663W        W93648   6.499  17.635   1.854
28664W        W93649   2.818   1.656  13.568
28665W        W93650  30.616  24.672  13.467
28666W        W93651   2.230  35.976  12.028
28667W        W93652  35.685  22.683  13.369
28668W        W93653   9.351  31.187   4.479
28669W        W93654  27.647  25.170  14.603
28670W        W93655  31.851  25.598  13.581
28671W        W93656  11.333   2.391   3.438
28672W        W93657  34.892   8.071  12.991
28673W        W93658  24.270  25.927  12.293
28674W        W93659  40.511  18.275   0.982
28675W        W93660   5.439  41.366   0.679
28676W        W93661   4.707  24.736   0.905
28677W        W93662  34.141   3.453   4.204
28678W        W93663  11.310  40.065   3.724
28679W        W93664  11.681  10.794  12.826
28680W        W93665  28.846  21.371  12.534
28681W        W93666  13.383   8.914  14.267
28682W        W93667  26.216   0.760  11.503
28683W        W93668  17.033  37.030  12.817
28684W        W93669  32.464  25.487  10.484
28685W        W93670  10.184  26.934  14.459
28686W        W93671   9.329  22.365  13.404
28687W        W93672  40.920  35.022  12.831
28688W        W93673  29.561  25.508   0.064
28689W        W93674  44.930   6.354  11.849
28690W        W93675  19.785  34.503  11.085
28691W        W93676   1.778  20.201   3.153
28692W        W93677   7.385  43.253   0.764
28693W        W93678  20.189  37.805   3.823
28694W        W93679  28.615  10.484  10.539
28695W        W93680  17.902  39.052  12.925
28696W        W93681  25.739  30.955  13.937
28697W        W93682  39.543  44.732   4.590
28698W        W93683   0.408   3.787  12.578
28699W        W93684  29.223  11.680  10.427
28700W        W93685  36.867   4.683   3.613
28701W        W93686  40.407  24.479  10.839
28702W        W93687   4.151  19.645  11.628
28703W        W93688  20.699  39.681   2.774
28704W        W93689  15.296  19.625   0.228
28705W        W93690  41.618  32.614   5.217
28706W        W93691   8.405  12.362  14.333
28707W        W93692  36.454  25.665  11.910
28708W        W93693  31.605  26.894  14.760
28709W        W93694  12.741   9.914   3.198
28710W        W93695   0.652  29.833   0.959
28711W        W93696  28.540  38.483   2.674
28712W        W93697  39.369  30.038  14.109
28713W        W93698  12.675  34.043  10.848
28714W        W93699  36.978  20.525  14.345
28715W        W93700   1.083  16.759   4.229
28716W        W93701  23.518  37.848  14.528
28717W        W93702  19.931  29.784   3.152
28718W        W93703   8.237  23.230   1.730
28719W        W93704  34.704   6.954   1.706
28720W        W93705  18.132   5.979  14.401
28721W        W93706  38.337  15.792  11.841
28722W        W93707   2.837  19.793  14.077
28723W        W93708  13.758   6.246  11.061
28724W        W93709  24.435  11.732   3.344
28725W        W93710  32.837  40.993   4.098
28726W        W93711  25.154  14.529  11.699
28727W        W93712   8.810   8.381  11.041
28728W        W93713  37.237  34.632  14.795
28729W        W93714  27.506  24.572  11.694
28730W        W93715  17.794  40.313   0.288
28731W        W93716  36.774  12.636  14.457
28732W        W93717  33.533  18.480   4.087
28733W        W93718   9.814   5.955  13.084
28734W        W93719  27.550  21.699   4.697
28735W        W93720  30.704  18.522  14.424
28736W        W93721  15.788  34.503  14.472
28737W        W93722  16.472  21.938   9.264
28738W        W93723  18.109  40.158  12.644
28739W        W93724  29.518  24.674  10.688
28740W        W93725  22.661  16.371   2.244
28741W        W93726  13.381  18.183  11.619
28742W        W93727  44.998  20.935  13.549
28743W        W93728   5.398  21.327   1.277
28744W        W93729  15.502   4.303  12.344
28745W        W93730  24.142  43.310   3.549
28746W        W93731  36.462  35.156   2.876
28747W        W93732  15.309  33.936  13.379
28748W        W93733  21.238   6.232   2.786
28749W        W93734  37.475  37.526  14.404
28750W        W93735  33.160  29.743  11.688
28751W        W93736   7.932   1.278   0.536
28752W        W93737  42.870  10.235  10.701
28753W        W93738   3.304  10.370   2.114
28754W        W93739  44.286   7.342   3.028
28755W        W93740   6.641  35.425   4.434
28756W        W93741  37.815   8.433   2.798
28757W        W93742  28.607  16.763   3.042
28758W        W93743  10.811  12.748  14.545
28759W        W93744   5.835  10.576   2.457
28760W        W93745  36.895   8.809   0.256
28761W        W93746  42.469  24.875   3.318
28762W        W93747  42.963   7.682  11.988
28763W        W93748  12.283  22.003  11.947
28764W        W93749  22.946   6.792  13.872
28765W        W93750  39.722  17.124  11.955
28766W        W93751   2.406  33.959  14.057
28767W        W93752  24.815  43.353  14.102
28768W        W93753  44.136   1.986   4.963
28769W        W93754  36.551  21.288   0.389
28770W        W93755  27.070   4.334   3.775
28771W        W93756  28.322  10.382  13.441
28772W        W93757   2.234  14.809  10.686
28773W        W93758  27.506  42.505  11.851
28774W        W93759  36.587  26.814  10.020
28775W        W93760  43.365  39.243   2.719
28776W        W93761   4.365  29.666  12.991
28777W        W93762   4.735  21.176  13.056
28778W        W93763  34.052  12.186  10.830
28779W        W93764  18.756  18.714   0.970
28780W        W93765   2.246  29.770   1.477
28781W        W93766  20.677  40.489   3.283
28782W        W93767  44.644  24.643   2.627
28783W        W93768   3.769  14.499  11.086
28784W        W93769  19.309  23.962  10.243
28785W        W93770  16.173   9.411  13.551
28786W        W93771  34.152   5.594  14.880
28787W        W93772  33.509   3.453  13.887
28788W        W93773   2.511  42.821  11.598
28789W        W93774  36.356   0.245   4.659
28790W        W93775  13.808   4.906  12.054
28791W        W93776  39.824  14.825  13.971
28792W        W93777  14.198  23.067   0.395
28793W        W93778  32.993  16.190   3.028
28794W        W93779  29.980   8.215  13.437
28795W        W93780  18.483  28.716   5.069
28796W        W93781  27.754  44.889   1.390
28797W        W93782  10.629  24.305   0.844
28798W        W93783   0.649  17.285   2.276
28799W        W93784  42.479   2.337   0.850
28800W        W93785  19.623  42.601  10.796
28801W        W93786  43.863   0.688   0.266
28802W        W93787  31.586   7.019   4.585
28803W        W93788  38.072  10.180  13.258
28804W        W93789  22.700  27.596  13.896
28805W        W93790  28.724  22.602  13.934
28806W        W93791  17.126  33.395  13.345
28807W        W93792  27.932  30.060  14.449
28808W        W93793  36.096   1.060  11.173
28809W        W93794  17.172  41.478  12.075
28810W        W93795  13.619  41.755   1.978
28811W        W93796  10.346  26.064   0.417
28812W        W93797  37.375  31.574   1.389
28813W        W93798   7.692   0.262  14.935
28814W        W93799  39.948   0.477  13.318
28815W        W93800  33.071  14.021   1.257
28816W        W93801  44.041  13.243   1.360
28817W        W93802  10.836  21.709   3.355
28818W        W93803  38.283  38.488  13.788
28819W        W93804  43.944  39.992   1.474
28820W        W93805  28.644  26.183  13.276
28821W        W93806  35.485  27.014   0.410
28822W        W93807  10.173  24.563   2.292
28823W        W93808  23.077  28.833  11.478
28824W        W93809  43.938   4.812   1.442
28825W        W93810   2.532  12.369  13.767
28826W        W93811   2.487  31.747   4.360
28827W        W93812   3.715  26.357   0.818
28828W        W93813  31.408  41.579   4.637
28829W        W93814  28.533  13.829   4.586
28830W        W93815  33.480  36.418  14.818
28831W        W93816  26.953  38.421  12.842
28832W        W93817  26.024  16.304   1.641
28833W        W93818  44.387  18.192   1.807
28834W        W93819   8.748   9.794  12.554
28835W        W93820  37.809  22.658   3.262
28836W        W93821  20.243  14.457   4.423
28837W        W93822  43.430  27.660   0.041
28838W        W93823  32.192  15.395  12.466
28839W        W93824  36.028  15.249  12.890
28840W        W93825  15.275   6.760  12.367
28841W        W93826  40.381   6.468  12.120
28842W        W93827  44.840  24.247   0.470
28843W        W93828  27.782  18.320   2.858
28844W        W93829   1.175  18.527   0.184
28845W        W93830  37.321  36.549   3.241
28846W        W93831  30.658   4.810  12.519
28847W        W93832  16.310  34.603   4.096
28848W        W93833  39.526  39.771   2.805
28849W        W93834  30.917  44.097   4.429
28850W        W93835  42.365   8.758   2.149
28851W        W93836  35.143  44.025   1.021
28852W        W93837  33.139  36.438  11.621
28853W        W93838  29.366  44.428   4.322
28854W        W93839  29.788  16.765  13.570
28855W        W93840   5.800  36.175   2.898
28856W        W93841  17.165  32.575   4.648
28857W        W93842   3.832  27.381  14.371
28858W        W93843  32.089   7.714  13.905
28859W        W93844  32.422  12.597  14.091
28860W        W93845  13.139  43.818   1.271
28861W        W93846  26.905  33.229  11.528
28862W        W93847   1.772  11.774   3.279
28863W        W93848  44.565  20.517   2.357
28864W        W93849   9.440  10.362  13.992
28865W        W93850  18.760  23.516  12.453
28866W        W93851   6.618  15.645  13.492
28867W        W93852  25.668  22.029  13.368
28868W        W93853  43.343  20.301   1.373
28869W        W93854  23.686  41.061   2.206
28870W        W93855  37.575  34.636   3.362
28871W        W93856  29.125   7.418  14.729
28872W        W93857  17.384  21.704  10.933
28873W        W93858  37.854  22.765   2.715
28874W        W93859  14.794  13.210  14.511
28875W        W93860  38.743  11.244  11.245
28876W        W93861   7.088   9.813  11.991
28877W        W93862  44.341   7.206  11.793
28878W        W93863  22.745  33.748  11.520
28879W        W93864  24.450  26.446  11.246
28880W        W93865  21.205  36.067   0.158
28881W        W93866   6.551  32.714  14.783
28882W        W93867  12.162  27.190   2.723
28883W        W93868  24.707  13.167  14.371
28884W        W93869  28.993  19.036  12.564
28885W        W93870  11.549   1.420   2.861
28886W        W93871   7.121  39.023   4.005
28887W        W93872  33.063  24.132  13.575
28888W        W93873  25.024  13.083  11.203
28889W        W93874  35.366  32.577   4.391
28890W        W93875  42.609   5.938   1.762
28891W        W93876   8.673   7.615  14.990
28892W        W93877  16.903  20.654   4.758
28893W        W93878  16.230  37.514   3.699
28894W        W93879  37.288  43.460  11.547
28895W        W93880   6.168   0.266   0.047
28896W        W93881  19.654  40.662   2.775
28897W        W93882  34.201  19.094   4.575
28898W        W93883  11.892  43.969  12.993
28899W        W93884  37.368   8.683   2.833
28900W        W93885  39.101  17.964   1.227
28901W        W93886  44.319   9.613  11.575
28902W        W93887  29.583  34.913  13.365
28903W        W93888  36.888   4.422  13.487
28904W        W93889  23.789  11.323  14.322
28905W        W93890  20.337  39.283  11.179
28906W        W93891  32.385   1.653  14.779
28907W        W93892  24.657  15.333   0.989
28908W        W93893  28.122   3.803   1.976
28909W        W93894  14.310  41.937   0.356
28910W        W93895  10.593  27.525   3.652
28911W        W93896  22.491  21.765   3.712
28912W        W93897  20.059   2.118   0.766
28913W        W93898  38.593   8.694  12.173
28914W        W93899  24.169   3.032  11.984
28915W        W93900  16.425  20.824   4.886
28916W        W93901   2.066  41.900   4.826
28917W        W93902  38.800   6.937  12.112
28918W        W93903  44.507  15.289   3.674
28919W        W93904  39.151  14.110   1.690
28920W        W93905  29.896   7.276  13.363
28921W        W93906  40.955  24.099   1.339
28922W        W93907  15.119  23.944  12.096
28923W        W93908  41.436  35.983   0.836
28924W        W93909  23.097  44.675  14.659
28925W        W93910   5.627  28.617  13.305
28926W        W93911  38.501  10.240  14.003
28927W        W93912  33.638  22.148  12.858
28928W        W93913  11.388  23.097   4.335
28929W        W93914   8.626   5.281  13.553
28930W        W93915  34.685  21.598   1.419
28931W        W93916  40.668  29.068  11.297
28932W        W93917  26.424  18.540  14.387
28933W        W93918  36.545  19.397  12.335
28934W        W93919   5.276  31.470   1.667
28935W        W93920  23.110   7.267   2.335
28936W        W93921   8.913  39.001  14.090
28937W        W93922  21.689  14.788   4.169
28938W        W93923  37.952  17.056   0.020
28939W        W93924  34.132   0.868  12.014
28940W        W93925   1.357  26.701   2.929
28941W        W93926  22.029  30.060  13.041
28942W        W93927  30.991  44.344   3.486
28943W        W93928  14.076   7.791  13.074
28944W        W93929  18.987   1.756  12.048
28945W        W93930  20.525  37.599   4.146
28946W        W93931  39.165  19.732  11.152
28947W        W93932   3.241   0.503  14.595
28948W        W93933  34.067  30.420  13.864
28949W        W93934  35.239  30.891   4.828
28950W        W93935  28.520  15.078   4.108
28951W        W93936   0.298  42.297   1.458
28952W        W93937  10.627  25.621   3.731
28953W        W93938  10.772  30.992   4.576
28954W        W93939  32.085  18.541   1.872
28955W        W93940  12.552  16.739  13.997
28956W        W93941   9.611  29.474  11.913
28957W        W93942  20.326  25.892   1.813
28958W        W93943  31.056   9.403   0.869
28959W        W93944  38.285  35.928  11.739
28960W        W93945   2.778  11.382   1.709
28961W        W93946  40.556  43.570   0.994
28962W        W93947   7.422  39.076  11.859
28963W        W93948  16.803  41.802  13.922
28964W        W93949   3.662  12.813   2.166
28965W        W93950  13.662  21.249  13.629
28966W        W93951  11.255  29.699  13.549
28967W        W93952  17.080  36.611  12.489
28968W        W93953  21.665  20.859  14.912
28969W        W93954  41.477  41.237   1.871
28970W        W93955   9.126   8.792  11.226
28971W        W93956  35.229  35.419   4.594
28972W        W93957  14.185   5.990   2.108
28973W        W93958  44.754  30.221   3.229
28974W        W93959   5.934  11.165  11.691
28975W        W93960   8.622  25.782   0.013
28976W        W93961  13.794  33.653  13.451
28977W        W93962   2.207  20.091   4.651
28978W        W93963   1.546   8.648  14.439
28979W        W93964  23.570  38.082  14.984
28980W        W93965  21.629  18.906   9.670
28981W        W93966   3.109  14.202  10.693
28982W        W93967  27.470  43.618   1.662
28983W        W93968  19.336  13.790   2.213
28984W        W93969  11.897  40.809   1.312
28985W        W93970  41.271  19.098  12.149
28986W        W93971  11.641  13.807  12.988
28987W        W93972  33.759  26.070   4.807
28988W        W93973  19.526   1.846  11.221
28989W        W93974   1.976  14.628   0.310
28990W        W93975  44.346   3.018  14.757
28991W        W93976  33.170  13.458  12.528
28992W        W93977  36.618   3.248   1.233
28993W        W93978  21.597  28.118  14.104
28994W        W93979  25.718  20.900   4.474
28995W        W93980  31.099  11.098   3.528
28996W        W93981  16.918   4.898   1.769
28997W        W93982  15.653  11.894  12.941
28998W        W93983  16.289  10.828  14.349
28999W        W93984  30.899  17.675   4.352
29000W        W93985   2.141  43.879   2.280
29001W        W93986   1.899  29.813  12.531
29002W        W93987  43.299  14.361  13.489
29003W        W93988  10.090   8.035   4.960
29004W        W93989  10.251   2.732   4.577
29005W        W93990  21.623  33.961  13.916
29006W        W93991  14.280  10.655   0.971
29007W        W93992   7.346  19.525   3.127
29008W        W93993  26.621  19.126   0.718
29009W        W93994  25.596  16.046  13.080
29010W        W93995  29.326   9.055   2.353
29011W        W93996   2.925   0.193  14.333
29012W        W93997   7.061  40.405   3.864
29013W        W93998   0.761   9.227  11.495
29014W        W93999  15.062  13.052   2.701
29015W        W94000  18.132  27.895   2.013
29016W        W94001  29.692  12.178   3.418
29017W        W94002   8.793  16.192  13.149
29018W        W94003  40.155  17.409   9.562
29019W        W94004   0.846  39.622   1.386
29020W        W94005  29.156  17.761   3.031
29021W        W94006  34.789   1.975  14.277
29022W        W94007   2.348  27.874   0.403
29023W        W94008  39.382  30.445  13.788
29024W        W94009  41.738  31.024   0.100
29025W        W94010  39.838  13.835  12.999
29026W        W94011   4.591   0.058   3.489
29027W        W94012  15.880  16.684   3.230
29028W        W94013   7.310   3.332   0.805
29029W        W94014  23.000  42.046  11.076
29030W        W94015  11.206  38.982  12.772
29031W        W94016  29.075  33.806   2.126
29032W        W94017  40.591  16.149  11.083
29033W        W94018  41.929  13.640   1.881
29034W        W94019  30.038  26.494   0.926
29035W        W94020   8.903  24.499  14.584
29036W        W94021  41.452  12.591  14.916
29037W        W94022  36.537  20.925   2.726
29038W        W94023   0.122   6.312  10.609
29039W        W94024   2.231  14.411  12.038
29040W        W94025  22.561  22.756  10.949
29041W        W94026  40.278  27.967   0.435
29042W        W94027  21.729  29.359   2.781
29043W        W94028   6.393  12.957  12.094
29044W        W94029   4.170  19.102   4.024
29045W        W94030  39.177  31.564   0.784
29046W        W94031   3.332  34.898  12.006
29047W        W94032  27.933  21.002   4.329
29048W        W94033  24.930  44.602   1.190
29049W        W94034  35.633  29.121   0.980
29050W        W94035   6.369  10.592  12.785
29051W        W94036  25.403  10.879  11.998
29052W        W94037  16.027  42.512   3.939
29053W        W94038  36.234   0.019   3.107
29054W        W94039  28.457  15.802   0.744
29055W        W94040  43.972  24.048  12.932
29056W        W94041   6.161  30.434   2.257
29057W        W94042  15.265  34.547  10.715
29058W        W94043  13.559  43.880   4.589
29059W        W94044  24.642   9.871   4.347
29060W        W94045  12.868  21.310   4.099
29061W        W94046  44.664  27.624  14.257
29062W        W94047  26.911  39.382   3.791
29063W        W94048  25.178  29.810  12.456
29064W        W94049   1.101  10.608  12.814
29065W        W94050  18.335  41.229   1.453
29066W        W94051   4.387   6.521   2.725
29067W        W94052  42.919  37.555   2.757
29068W        W94053  10.741  23.025  14.869
29069W        W94054  11.625  20.784  13.547
29070W        W94055   5.896  32.558   1.794
29071W        W94056   6.141  43.776  13.504
29072W        W94057  37.814  12.545  14.400
29073W        W94058  36.495  37.882  13.075
29074W        W94059  31.481  32.521  13.320
29075W        W94060  38.109  20.368   4.174
29076W        W94061  30.287  39.823  13.007
29077W        W94062  21.589  15.194  12.093
29078W        W94063  29.072  30.697   0.284
29079W        W94064  38.949  18.050  13.020
29080W        W94065  33.686  19.272   3.393
29081W        W94066  20.626   6.210  12.633
29082W        W94067  35.276  38.339  14.964
29083W        W94068  42.465  40.825  12.166
29084W        W94069  23.644  14.687   2.233
29085W        W94070   6.090   5.207   3.092
29086W        W94071  24.458  10.072  10.122
29087W        W94072  10.253  22.105   0.895
29088W        W94073  32.472  38.452  13.495
29089W        W94074   3.759   3.664  12.853
29090W        W94075   3.973   0.437  12.026
29091W        W94076  20.711  20.562  13.110
29092W        W94077  32.425   6.832  11.587
29093W        W94078  34.566  16.548  10.761
29094W        W94079  19.155  19.955  12.608
29095W        W94080  44.500  36.708   0.328
29096W        W94081  15.244   9.958   0.366
29097W        W94082   8.711  17.887  14.492
29098W        W94083   8.323   4.291   4.090
29099W        W94084   8.733   0.223  12.504
29100W        W94085   9.661  22.603  11.940
29101W        W94086  40.268  36.711   0.345
29102W        W94087  44.362  26.701  12.991
29103W        W94088  43.570   5.304   1.675
29104W        W94089  42.073  12.784  12.227
29105W        W94090   0.835  10.808   2.823
29106W        W94091  37.497   2.200  13.621
29107W        W94092  27.257  38.006  12.399
29108W        W94093   6.138  12.787  10.381
29109W        W94094  10.064   4.184   3.423
29110W        W94095   6.350  35.288  12.493
29111W        W94096  17.314  44.576  11.721
29112W        W94097   6.271  12.130   4.104
29113W        W94098  30.479   0.384  12.631
29114W        W94099  42.192  22.595  14.335
29115W        W94100  14.725   6.773   1.278
29116W        W94101  24.317  10.040   4.722
29117W        W94102   8.207  22.990  13.339
29118W        W94103  37.991   2.282  12.207
29119W        W94104  23.697  23.919   2.506
29120W        W94105   2.391  23.459  13.507
29121W        W94106  40.066  16.157  12.972
29122W        W94107  17.006  14.244   2.314
29123W        W94108  26.333  14.105  13.483
29124W        W94109  17.538  12.878   3.634
29125W        W94110  41.560  39.373   0.864
29126W        W94111  44.033  25.246  11.080
29127W        W94112  11.379  23.232  13.023
29128W        W94113  38.403  20.460   1.316
29129W        W94114  11.065  33.040  12.044
29130W        W94115  15.723  44.874  13.911
29131W        W94116  12.896  11.193  14.795
29132W        W94117  42.465  19.594  13.715
29133W        W94118  35.618  35.045  14.904
29134W        W94119  20.574  39.014   2.214
29135W        W94120  20.712  16.449   4.783
29136W        W94121  18.179   0.827   3.641
29137W        W94122  36.697  21.232  13.875
29138W        W94123  19.396  19.292   2.635
29139W        W94124  26.520  16.245  10.914
29140W        W94125   0.348   6.148  12.069
29141W        W94126   1.995  24.259   4.469
29142W        W94127  35.882  22.988  12.923
29143W        W94128  42.381   3.674   1.094
29144W        W94129   2.441  24.365   1.779
29145W        W94130   6.951  43.213  14.018
29146W        W94131  14.871  25.401   3.245
29147W        W94132  11.635  32.375   3.109
29148W        W94133  37.529  41.844   2.421
29149W        W94134  24.757   9.385   4.126
29150W        W94135   5.917   8.019  14.734
29151W        W94136  13.031  12.829  14.320
29152W        W94137  24.212  36.972  11.246
29153W        W94138   8.090   8.451  12.906
29154W        W94139  16.998  15.029  12.039
29155W        W94140   8.381  41.948   3.863
29156W        W94141  43.160  18.670   4.955
29157W        W94142  30.663  37.957   2.857
29158W        W94143  35.013  38.086   0.905
29159W        W94144  19.148  30.269   1.830
29160W        W94145  29.187   1.347   4.605
29161W        W94146  34.338  32.375  12.906
29162W        W94147   8.586  37.791  13.893
29163W        W94148  14.676  33.201  14.933
29164W        W94149  35.075   1.784   3.741
29165W        W94150  19.656  10.927  11.237
29166W        W94151  29.423   6.199   3.407
29167W        W94152  43.961   7.880  13.482
29168W        W94153  35.106   6.941  11.340
29169W        W94154   7.935  24.801  10.805
29170W        W94155  33.204  14.124   0.321
29171W        W94156  34.772  12.731  11.075
29172W        W94157  36.329   9.276  10.253
29173W        W94158  23.268  29.913  11.617
29174W        W94159  14.047  17.119  12.555
29175W        W94160  36.957   7.561   3.222
29176W        W94161  27.201  31.091   3.576
29177W        W94162  32.905  30.338   4.594
29178W        W94163  28.625  34.085   4.480
29179W        W94164   1.251  23.576   1.581
29180W        W94165  15.848   2.509   1.353
29181W        W94166  43.103   9.212  12.862
29182W        W94167   5.636  12.527  11.271
29183W        W94168  13.624  31.135  12.927
29184W        W94169  13.484  30.148  13.387
29185W        W94170  35.094  13.328   2.200
29186W        W94171   0.785  16.282  13.505
29187W        W94172  20.229   0.587  11.565
29188W        W94173  32.777  39.501  12.430
29189W        W94174  22.036  34.294  13.890
29190W        W94175   5.598  21.992  11.557
29191W        W94176  43.245  35.411  14.906
29192W        W94177  34.435  29.862  11.522
29193W        W94178   5.660  15.695   3.004
29194W        W94179  23.640   9.638  13.759
29195W        W94180  34.564  24.435   0.536
29196W        W94181  23.729  36.851  13.795
29197W        W94182  20.470   3.442  12.963
29198W        W94183   6.777  13.564   4.045
29199W        W94184  21.402  27.564   1.700
29200W        W94185  17.100  13.405   3.543
29201W        W94186  43.192  12.602   3.197
29202W        W94187  34.579  10.883  12.503
29203W        W94188  17.239  33.568   1.226
29204W        W94189  42.000  24.120   1.104
29205W        W94190  21.290  38.763   1.809
29206W        W94191  20.218  28.715   2.694
29207W        W94192   0.590  24.790  14.779
29208W        W94193  14.364  27.800  14.310
29209W        W94194  25.167  24.709   3.841
29210W        W94195  34.544  43.870   0.710
29211W        W94196  14.900  36.153   3.257
29212W        W94197  24.239  35.950   2.351
29213W        W94198  24.653  12.171  12.952
29214W        W94199  33.450  26.449   4.979
29215W        W94200  18.371  12.582   3.753
29216W        W94201   9.442  11.712   4.151
29217W        W94202  19.497   0.946   4.177
29218W        W94203  31.795  29.735  12.970
29219W        W94204  23.107  33.691  12.464
29220W        W94205  29.949  41.222   1.117
29221W        W94206  23.131  33.049   1.843
29222W        W94207   5.420  39.914  10.154
29223W        W94208  12.893  10.593   3.995
29224W        W94209   0.964  41.436  12.836
29225W        W94210  32.002  40.811   2.885
29226W        W94211  36.115  41.941   5.166
29227W        W94212   3.887   8.819   0.808
29228W        W94213   9.751  36.622  12.877
29229W        W94214  41.400  21.240   0.394
29230W        W94215  28.473  35.666   0.157
29231W        W94216  14.658  12.216  10.497
29232W        W94217  34.550  33.592   4.722
29233W        W94218  38.937  35.154   1.443
29234W        W94219  33.014  30.156  10.489
29235W        W94220  38.379  17.584   2.576
29236W        W94221  43.425  39.496  12.356
29237W        W94222   4.210  33.483  11.051
29238W        W94223  31.632  32.140  12.623
29239W        W94224  14.605  41.725   4.435
29240W        W94225  25.351  17.205   0.374
29241W        W94226  36.937  25.385  10.028
29242W        W94227  33.542   5.260   3.631
29243W        W94228   7.176  20.999   3.187
29244W        W94229  42.472  43.357  12.972
29245W        W94230  38.264   7.766   4.123
29246W        W94231   1.565  32.381   1.684
29247W        W94232  20.759  18.114  13.845
29248W        W94233   6.774  39.723  11.964
29249W        W94234  42.887   1.510  13.398
29250W        W94235  26.496   9.802   1.879
29251W        W94236  39.021  19.138  12.003
29252W        W94237   9.808  40.275  13.796
29253W        W94238  18.460  25.399   1.252
29254W        W94239  17.510  33.584   4.597
29255W        W94240  44.851  34.512   4.922
29256W        W94241  21.621  25.210  11.920
29257W        W94242   8.805  16.060   4.716
29258W        W94243  18.231   9.356   4.279
29259W        W94244  34.634  14.293   0.397
29260W        W94245  28.885  27.040  14.442
29261W        W94246  41.911  16.032  14.644
29262W        W94247  42.439  40.256   4.715
29263W        W94248   1.472   1.847  13.504
29264W        W94249  32.111  30.080  14.890
29265W        W94250   0.264  24.578   4.559
29266W        W94251  25.978  41.647  14.297
29267W        W94252   4.177   3.849   4.051
29268W        W94253  10.704  40.041   2.563
29269W        W94254  25.756  34.221   2.380
29270W        W94255  30.029   6.355  13.829
29271W        W94256   5.673  22.044  14.746
29272W        W94257  37.903  41.118  14.292
29273W        W94258  34.423  28.438  13.391
29274W        W94259  34.630  15.013  13.108
29275W        W94260  15.556  21.570  12.305
29276W        W94261   2.852  30.642   1.338
29277W        W94262  15.378  28.130   0.325
29278W        W94263  42.553  19.912  11.530
29279W        W94264  34.557   3.237   2.595
29280W        W94265  21.031  22.665   3.022
29281W        W94266  34.751  40.724  12.057
29282W        W94267   4.333  40.693   0.335
29283W        W94268  25.589  31.068  13.375
29284W        W94269  14.091  25.229   3.616
29285W        W94270   4.360  18.040  13.474
29286W        W94271  38.440  32.490   4.541
29287W        W94272  42.771  19.864  13.339
29288W        W94273   8.580  39.489  10.964
29289W        W94274   2.223   8.184   3.266
29290W        W94275  17.974   6.272   0.750
29291W        W94276  14.007   1.345  10.972
29292W        W94277   0.043   6.191   0.731
29293W        W94278  19.046  21.283  12.982
29294W        W94279  28.021  16.151   2.763
29295W        W94280  20.754   5.242   3.078
29296W        W94281   1.627  13.959  13.854
29297W        W94282  10.567   9.930   1.173
29298W        W94283   4.490  30.041  11.606
29299W        W94284  28.109  42.380   4.554
29300W        W94285  41.001  13.649   1.897
29301W        W94286  23.146   9.508   0.264
29302W        W94287   9.622  40.554   0.227
29303W        W94288  13.169  35.601   3.938
29304W        W94289   2.822  14.078  11.131
29305W        W94290  10.385  40.589  11.555
29306W        W94291  17.051  37.857   3.485
29307W        W94292  30.064  11.782   3.349
29308W        W94293  44.799  38.877   1.194
29309W        W94294  17.077  30.647  10.851
29310W        W94295   6.751  15.769  14.472
29311W        W94296  13.100  32.362  13.791
29312W        W94297  36.570  12.345  13.997
29313W        W94298  41.445  24.499   2.173
29314W        W94299  40.692  31.070  12.105
29315W        W94300  29.840  38.897   4.827
29316W        W94301  44.814  35.066  11.987
29317W        W94302  36.583  35.566  13.277
29318W        W94303  25.238  15.898  13.918
29319W        W94304  10.095  34.062   4.907
29320W        W94305  20.072   3.152  12.791
29321W        W94306  13.424  44.084  13.849
29322W        W94307  26.659  19.179   1.939
29323W        W94308  28.062  41.336   3.513
29324W        W94309  16.779   7.192  12.902
29325W        W94310  31.936  42.114  12.209
29326W        W94311   2.998   1.339   2.189
29327W        W94312  41.862  44.500   2.149
29328W        W94313  44.411  22.663  10.581
29329W        W94314  39.458  18.712  11.575
29330W        W94315  40.469  20.102   2.688
29331W        W94316  36.259  21.140  14.115
29332W        W94317   9.684   9.254   1.788
29333W        W94318  30.563  43.975  12.545
29334W        W94319   6.948  14.131   4.792
29335W        W94320  28.962  10.061   1.918
29336W        W94321   4.301  29.301  10.604
29337W        W94322  15.674  39.353   4.792
29338W        W94323  35.384   8.287  14.528
29339W        W94324   7.462  41.083  10.731
29340W        W94325   0.258  35.963   2.313
29341W        W94326   8.698   2.813  10.690
29342W        W94327  39.649  21.311   4.578
29343W        W94328  25.566  37.550   0.398
29344W        W94329  30.685   5.337   3.259
29345W        W94330  39.761  15.845   0.375
29346W        W94331  36.963  35.092   0.933
29347W        W94332   8.731  15.183  10.649
29348W        W94333  24.708  17.165   2.232
29349W        W94334  10.341  31.325  12.422
29350W        W94335   8.261   4.269   0.524
29351W        W94336  29.495  25.483  13.075
29352W        W94337   4.256  11.226   4.168
29353W        W94338  19.983  21.255  12.869
29354W        W94339  44.499  11.224   2.876
29355W        W94340   7.223  10.802  12.742
29356W        W94341   1.308  23.110   4.011
29357W        W94342  37.363  29.012  14.507
29358W        W94343  28.120  26.893  11.815
29359W        W94344   3.445  19.171  14.720
29360W        W94345   5.218  21.353  10.731
29361W        W94346  12.160  21.509  11.239
29362W        W94347  13.131  42.746   0.089
29363W        W94348  32.561  40.481   1.506
29364W        W94349  38.773  17.831  10.217
29365W        W94350  13.650  32.339  10.664
29366W        W94351  29.177  15.127  14.234
29367W        W94352   9.685  31.680   0.220
29368W        W94353  23.288  32.153  11.216
29369W        W94354   5.138  29.454  14.195
29370W        W94355   4.421  18.530  12.536
29371W        W94356  38.124   3.767   0.495
29372W        W94357  40.765   5.024  12.908
29373W        W94358  42.412   6.334   3.115
29374W        W94359  24.462   6.347  10.588
29375W        W94360  40.173  22.469  13.085
29376W        W94361  13.930  10.243   2.110
29377W        W94362  17.248  41.969   1.187
29378W        W94363  15.316  22.202   0.278
29379W        W94364  33.239   4.913   0.301
29380W        W94365  21.119  36.577   1.904
29381W        W94366   8.707  24.872  12.177
29382W        W94367   4.133  31.761  14.022
29383W        W94368  29.299   8.686   1.715
29384W        W94369  15.740  16.314  10.275
29385W        W94370  28.171  33.423  12.587
29386W        W94371  22.115  16.077  11.268
29387W        W94372   0.058  16.052   0.734
29388W        W94373   7.359  18.852  12.930
29389W        W94374  38.757  43.862  12.526
29390W        W94375  16.365  33.387  12.837
29391W        W94376  36.969  19.065   4.657
29392W        W94377  37.831   4.239   0.525
29393W        W94378  11.161  20.046  14.567
29394W        W94379  22.350  31.936   5.183
29395W        W94380   1.247  40.485  12.888
29396W        W94381  20.996  14.811   1.295
29397W        W94382  34.561  18.680   4.616
29398W        W94383  19.085   2.549  14.001
29399W        W94384   4.978  26.941  11.108
29400W        W94385  24.828  23.763  11.638
29401W        W94386   1.894   5.713   1.904
29402W        W94387   0.255  31.576   4.613
29403W        W94388  35.507  41.236  14.580
29404W        W94389  13.754  44.233   3.244
29405W        W94390   9.429  12.486   2.286
29406W        W94391  29.878  35.012   1.509
29407W        W94392  31.695  40.844  12.951
29408W        W94393  25.146  31.057   3.083
29409W        W94394  42.218  16.433  13.151
29410W        W94395  32.816  42.428  13.176
29411W        W94396   2.263   1.490   0.093
29412W        W94397  40.454  34.421   2.295
29413W        W94398   0.720  40.040   0.416
29414W        W94399  15.703  24.704   1.210
29415W        W94400  25.442  28.581   3.120
29416W        W94401  41.282  28.382   3.373
29417W        W94402   7.753   4.398  13.086
29418W        W94403  41.012  14.101  11.135
29419W        W94404   2.550  22.539  14.340
29420W        W94405  26.625  34.036  11.152
29421W        W94406  10.158  36.482   4.741
29422W        W94407  37.677   5.928   4.133
29423W        W94408  16.071  23.750   1.033
29424W        W94409  19.018  37.496  14.968
29425W        W94410  36.464  26.534  11.405
29426W        W94411  39.737   5.528   1.274
29427W        W94412  17.414  14.239  12.515
29428W        W94413  16.137  43.603   0.693
29429W        W94414  44.833  17.092  14.005
29430W        W94415  12.205  44.555   4.326
29431W        W94416   0.864  41.863  12.358
29432W        W94417  33.766  21.332  12.375
29433W        W94418   7.878   7.257  13.160
29434W        W94419  31.271  26.927   3.565
29435W        W94420  25.781  35.540  14.839
29436W        W94421  15.251   0.490   4.852
29437W        W94422  18.944   7.890   3.636
29438W        W94423   1.714  17.600  14.057
29439W        W94424  27.943  22.763   1.200
29440W        W94425  28.946  34.141  10.159
29441W        W94426  40.056  28.981   1.293
29442W        W94427  31.888   7.620   0.232
29443W        W94428   9.187  42.442   2.867
29444W        W94429   6.216  15.155   2.849
29445W        W94430  41.818  21.518   2.754
29446W        W94431  38.957  11.302  12.091
29447W        W94432  23.954   6.168  10.580
29448W        W94433  25.940  21.061   2.333
29449W        W94434   2.297  30.157  12.397
29450W        W94435  19.771   4.697  10.587
29451W        W94436  25.578  27.184  13.058
29452W        W94437  42.291  11.758  11.500
29453W        W94438  25.380  34.454   3.706
29454W        W94439  17.022  20.037   3.747
29455W        W94440  11.323  40.537  13.842
29456W        W94441  11.805  30.055   4.426
29457W        W94442  10.130   5.740   1.849
29458W        W94443  37.929  33.074   3.614
29459W        W94444  28.820  36.572   1.840
29460W        W94445   1.890  15.569  12.429
29461W        W94446  25.175  20.742  14.874
29462W        W94447  16.047  23.494  10.627
29463W        W94448   8.733  19.565  13.035
29464W        W94449  16.290   6.804   2.765
29465W        W94450  10.678  23.493   3.272
29466W        W94451  10.060   9.887   3.781
29467W        W94452   0.376  23.153  11.107
29468W        W94453  21.150  42.574   9.921
29469W        W94454   3.446   3.014  11.514
29470W        W94455  27.228  18.147   1.825
29471W        W94456   2.528  17.945  14.472
29472W        W94457  23.709   2.270   0.237
29473W        W94458  41.033  21.536  11.116
29474W        W94459  11.458  12.530   1.623
29475W        W94460  18.147  12.870  14.317
29476W        W94461   2.025  16.653   2.829
29477W        W94462  16.761  40.465   4.545
29478W        W94463  14.900  44.129   4.782
29479W        W94464  11.314  44.757  11.666
29480W        W94465  25.610  13.864   1.363
29481W        W94466  25.139  41.405  12.571
29482W        W94467  20.282   0.341   3.713
29483W        W94468  40.023  15.081  13.556
29484W        W94469  31.098  21.266   0.267
29485W        W94470  43.552   9.729  11.174
29486W        W94471  39.388   1.900  11.098
29487W        W94472   9.584  18.045  12.030
29488W        W94473  33.454  22.957  14.982
29489W        W94474  27.640  44.015   3.769
29490W        W94475   4.707  44.130   1.792
29491W        W94476  34.987  15.229   1.944
29492W        W94477  28.437  11.065  12.511
29493W        W94478  14.664  26.569  14.120
29494W        W94479  10.867  22.027  11.925
29495W        W94480  25.123  23.137  11.143
29496W        W94481   2.513  32.170  13.243
29497W        W94482  30.235  26.655  10.483
29498W        W94483  23.939   0.312   0.953
29499W        W94484  13.021  33.439   1.218
29500W        W94485   9.346  17.515  11.140
29501W        W94486  10.108  30.154  14.038
29502W        W94487  26.376  12.379  12.018
29503W        W94488  36.118  30.322  10.877
29504W        W94489  36.674  31.615  11.607
29505W        W94490  17.001  40.946  10.859
29506W        W94491   3.726  27.329   3.985
29507W        W94492   9.780  26.646   0.865
29508W        W94493  41.592  39.758  14.528
29509W        W94494  30.980  29.295   4.969
29510W        W94495  10.393  43.840   1.646
29511W        W94496  42.606  26.178   9.851
29512W        W94497  44.418  18.221  11.132
29513W        W94498  12.207  35.566  14.244
29514W        W94499   2.004  13.304   3.139
29515W        W94500  23.104   1.194   0.926
29516W        W94501  42.944  18.691   0.054
29517W        W94502  15.816  31.194   2.796
29518W        W94503  33.849  30.589  10.831
29519W        W94504   2.220   4.303   3.242
29520W        W94505  21.734   6.782  14.961
29521W        W94506   2.261  37.146  12.520
29522W        W94507  13.723  30.973  13.931
29523W        W94508  42.449  16.734   1.319
29524W        W94509  38.493  14.600   1.059
29525W        W94510  28.364   3.036  13.377
29526W        W94511   2.730  12.065  11.949
29527W        W94512   3.103  34.091  14.674
29528W        W94513  33.390  17.838  13.606
29529W        W94514  16.886  38.861  14.812
29530W        W94515  18.343  33.415   4.233
29531W        W94516  17.792   4.718  11.712
29532W        W94517   3.758  17.513   2.772
29533W        W94518  15.903  16.496   1.382
29534W        W94519  42.892   5.517  13.467
29535W        W94520  22.601  39.911  13.443
29536W        W94521  37.585  31.122   0.341
29537W        W94522  37.447  21.426   1.824
29538W        W94523   2.649  41.029   0.832
29539W        W94524   3.167  35.130  11.103
29540W        W94525  25.946  13.313  14.054
29541W        W94526   5.202  28.310  11.175
29542W        W94527  39.707  42.411  13.984
29543W        W94528  31.744  31.175   4.181
29544W        W94529  15.244  11.069  10.372
29545W        W94530  35.133  16.149  11.554
29546W        W94531   9.233  42.250  10.722
29547W        W94532  18.448   3.816  11.487
29548W        W94533  26.957  40.350  10.260
29549W        W94534  26.513  18.214   2.343
29550W        W94535  39.499  19.666   0.855
29551W        W94536  18.783   5.402  10.024
29552W        W94537  31.370  13.110   3.603
29553W        W94538   7.438  26.082  13.749
29554W        W94539  33.538  12.042   2.064
29555W        W94540  19.245  34.688   2.264
29556W        W94541  36.028  40.590   0.188
29557W        W94542  26.435  38.218   1.845
29558W        W94543  10.812   6.968   1.834
29559W        W94544  41.186   1.013   2.662
29560W        W94545  14.803  33.682  13.964
29561W        W94546  33.908  17.706   3.060
29562W        W94547  21.271  26.688  11.065
29563W        W94548  42.020  36.337   0.055
29564W        W94549  11.604  28.461  14.785
29565W        W94550  36.608  25.270   0.241
29566W        W94551  36.865  37.057   2.794
29567W        W94552  31.198  44.546  12.076
29568W        W94553  44.682  24.379  13.309
29569W        W94554   5.982  41.772   1.761
29570W        W94555  23.313  16.412  12.934
29571W        W94556  35.458  35.361   0.298
29572W        W94557  11.862  32.536   2.670
29573W        W94558  18.448  42.968  10.899
29574W        W94559  12.060  20.087   4.064
29575W        W94560  41.871  11.524   0.813
29576W        W94561  40.579  16.212  13.955
29577W        W94562  17.645  19.660   2.399
29578W        W94563  23.501  27.732   3.136
29579W        W94564  43.928  22.127   1.451
29580W        W94565   6.513  42.441  11.677
29581W        W94566  28.175  18.011   2.629
29582W        W94567  20.730  29.215   2.738
29583W        W94568  42.318  15.816  13.781
29584W        W94569  21.492  11.601  10.770
29585W        W94570   2.717  14.609  11.927
29586W        W94571  22.157  28.626  13.425
29587W        W94572  39.038   0.327  11.648
29588W        W94573  31.464  35.662   4.149
29589W        W94574  15.599   7.650  13.288
29590W        W94575  14.320   6.178  13.282
29591W        W94576  19.964   8.603   4.251
29592W        W94577  11.330  13.564  11.672
29593W        W94578  17.494   1.865   1.752
29594W        W94579  38.081  21.757   4.051
29595W        W94580  14.306   8.896   1.657
29596W        W94581  37.168  26.679   5.087
29597W        W94582  16.841  40.849  11.590
29598W        W94583  31.526  27.461   0.976
29599W        W94584  28.976  37.084   0.918
29600W        W94585  16.269  40.034  11.547
29601W        W94586  32.658  41.350  11.639
29602W        W94587  28.492  43.552  10.677
29603W        W94588  23.646  30.533   2.293
29604W        W94589   8.415  14.231   2.909
29605W        W94590  37.550  26.579  11.558
29606W        W94591  23.534   0.415   4.805
29607W        W94592   7.073  16.088  11.995
29608W        W94593  23.287  39.036   2.263
29609W        W94594  19.110   4.141  13.045
29610W        W94595  42.577  33.630  13.123
29611W        W94596  42.338  12.779  14.056
29612W        W94597   6.164  37.071   1.379
29613W        W94598  41.893   5.628   4.173
29614W        W94599  29.598   7.917   0.483
29615W        W94600  16.035  12.184  13.534
29616W        W94601  13.172  29.940  12.891
29617W        W94602  34.031  34.735   3.095
29618W        W94603  33.416   8.377  12.999
29619W        W94604   5.329  21.844  13.352
29620W        W94605  14.313  43.872   0.372
29621W        W94606   3.326  25.660   1.865
29622W        W94607  35.025  25.707   3.241
29623W        W94608  33.493  42.259   2.330
29624W        W94609  37.112   9.674  14.874
29625W        W94610   4.607  16.094   1.713
29626W        W94611  12.722  26.566   1.901
29627W        W94612  32.929   9.452   5.421
29628W        W94613   5.053  31.416  11.843
29629W        W94614  27.120  44.961  10.233
29630W        W94615  39.979   1.252   1.809
29631W        W94616  30.063  40.093   4.890
29632W        W94617  35.202  40.087  13.386
29633W        W94618  12.366  35.480   0.895
29634W        W94619  23.088  32.878   3.995
29635W        W94620  30.072  25.718   3.085
29636W        W94621   5.418  23.259   2.147
29637W        W94622  31.990  21.955  14.538
29638W        W94623  27.475  13.874   3.611
29639W        W94624  15.757   6.150  13.921
29640W        W94625  16.387  29.051  11.520
29641W        W94626  35.138  38.824  12.931
29642W        W94627   5.770   1.159   0.304
29643W        W94628  13.366   3.893   3.548
29644W        W94629  38.934  20.936  14.053
29645W        W94630  18.137  44.777  12.068
29646W        W94631   4.213  25.119   4.679
29647W        W94632  13.234  40.515   3.216
29648W        W94633  24.617  41.386   4.963
29649W        W94634  37.572  18.857  14.113
29650W        W94635  42.704  26.397   4.981
29651W        W94636   0.213  29.432  12.674
29652W        W94637  17.212  44.227  14.354
29653W        W94638  16.116   9.665  13.110
29654W        W94639  28.728  15.633   3.256
29655W        W94640  16.653  36.968   2.576
29656W        W94641  11.424  38.950  12.328
29657W        W94642   0.871  37.382   3.167
29658W        W94643  15.325  14.928  11.069
29659W        W94644  20.060   9.378  12.577
29660W        W94645  41.602   9.798  13.572
29661W        W94646  12.965  10.664  11.583
29662W        W94647  20.005  11.916  12.523
29663W        W94648  21.671  29.832   0.412
29664W        W94649  32.058  24.093  12.373
29665W        W94650   5.616  33.827  12.881
29666W        W94651  13.258  37.571  11.118
29667W        W94652  43.277  41.870   2.829
29668W        W94653  30.459  33.058   2.245
29669W        W94654  36.282  32.938   2.805
29670W        W94655  24.520  24.311   2.291
29671W        W94656  11.181  41.359  14.707
29672W        W94657  22.096  39.076   4.552
29673W        W94658  17.047   3.198   4.542
29674W        W94659   9.650  10.102  13.577
29675W        W94660  41.503  22.548   0.375
29676W        W94661   4.705  43.752   3.507
29677W        W94662  29.598  23.597  14.714
29678W        W94663  42.979  15.104   3.553
29679W        W94664  33.516  18.598   0.180
29680W        W94665   8.402  24.584  11.865
29681W        W94666  33.849   0.659  11.651
29682W        W94667   8.903   6.524   3.330
29683W        W94668  24.936  19.154  10.839
29684W        W94669  26.195  23.370   2.014
29685W        W94670  39.348  44.183  13.927
29686W        W94671  13.587   8.175   0.449
29687W        W94672  27.171   8.485   1.444
29688W        W94673  30.810   5.798   2.710
29689W        W94674  35.778  32.908   2.961
29690W        W94675  13.146  16.467   1.018
29691W        W94676  28.679  25.554   3.602
29692W        W94677  37.433  11.440  10.805
29693W        W94678   6.959  13.270   0.168
29694W        W94679  23.089  15.590   3.192
29695W        W94680   5.339   2.950  12.931
29696W        W94681  34.542   1.772   3.703
29697W        W94682  19.319   8.565  14.078
29698W        W94683   4.885  16.183   4.565
29699W        W94684  17.513  17.828  14.254
29700W        W94685  34.892  10.897   2.481
29701W        W94686  37.092  12.837   4.698
29702W        W94687   7.379  16.055  12.791
29703W        W94688  28.524   3.892   0.366
29704W        W94689  35.824  31.048  14.571
29705W        W94690  10.207  21.462   0.494
29706W        W94691   6.730   5.966   0.393
29707W        W94692  13.749  15.422   1.485
29708W        W94693  43.924   0.090   1.430
29709W        W94694  25.261  28.594   2.631
29710W        W94695  25.921   5.735   2.208
29711W        W94696  31.957   7.299   2.679
29712W        W94697  43.034   4.067   0.734
29713W        W94698  26.422  26.710   0.785
29714W        W94699   6.703   4.163   1.716
29715W        W94700  31.920  36.878   0.501
29716W        W94701  37.092  15.225  14.876
29717W        W94702  17.773   8.420  12.917
29718W        W94703   0.514  37.507  11.016
29719W        W94704  21.134  24.709  13.547
29720W        W94705   7.339  26.648  11.593
29721W        W94706   0.814   5.487   3.293
29722W        W94707  22.716  43.745   4.682
29723W        W94708  41.546  30.716  12.792
29724W        W94709  34.856   1.698  10.717
29725W        W94710  28.583  20.190   3.173
29726W        W94711  35.362  30.640   2.706
29727W        W94712  33.600  12.045  14.256
29728W        W94713  22.265   5.776   4.088
29729W        W94714  21.057  14.650  14.511
29730W        W94715  41.849  28.024   2.696
29731W        W94716  25.700  23.398   1.988
29732W        W94717  24.474  22.042   0.830
29733W        W94718  41.088  43.306  11.515
29734W        W94719  24.689  19.744   0.949
29735W        W94720   8.894  17.791   4.739
29736W        W94721  33.879  17.596  12.501
29737W        W94722   7.871   2.004  12.132
29738W        W94723  10.776   9.688  11.446
29739W        W94724  42.248  36.054  12.458
29740W        W94725  11.299   5.263  10.972
29741W        W94726  25.730  28.845   2.744
29742W        W94727   1.280  31.640  14.297
29743W        W94728  43.065  11.207  12.053
29744W        W94729  21.316  11.597  13.035
29745W        W94730  29.883  37.955   0.259
29746W        W94731   8.633  33.652   2.781
29747W        W94732  10.336   0.954   1.394
29748W        W94733  29.374  18.145  11.479
29749W        W94734  14.577  31.404  12.193
29750W        W94735  16.213  29.418  14.606
29751W        W94736  38.826  37.951  11.243
29752W        W94737   2.935   5.525   1.738
29753W        W94738   6.925  30.169  13.519
29754W        W94739  23.469  26.245  11.111
29755W        W94740  19.100  33.520   3.793
29756W        W94741  44.731  41.311   2.341
29757W        W94742  15.569   1.444  11.166
29758W        W94743  18.233  20.606  13.131
29759W        W94744  17.312   8.163  10.732
29760W        W94745  27.669  16.131  14.026
29761W        W94746  15.040  35.686  11.666
29762W        W94747  25.934  35.305   1.718
29763W        W94748  28.175  28.972   3.211
29764W        W94749  11.124  38.045   0.967
29765W        W94750  13.220  16.687  11.825
29766W        W94751   8.178  15.078   3.815
29767W        W94752  23.165  26.194  10.690
29768W        W94753  42.994   2.345   3.267
29769W        W94754  25.591  30.714   3.166
29770W        W94755  37.469  17.782  11.405
29771W        W94756   6.380   2.524  11.729
29772W        W94757  15.077  29.347   3.695
29773W        W94758  26.486  43.955  13.852
29774W        W94759  43.488  19.184  11.193
29775W        W94760   3.660   7.453  13.122
29776W        W94761   1.841  43.271  14.835
29777W        W94762  38.088  18.121  10.533
29778W        W94763  26.189  29.567  12.397
29779W        W94764  36.937   3.014  12.542
29780W        W94765  42.895   4.907   4.697
29781W        W94766   5.598  36.038   4.603
29782W        W94767  17.204  19.023   5.216
29783W        W94768   5.778  39.943   2.645
29784W        W94769  30.941  22.906   3.519
29785W        W94770  29.753  34.885   3.297
29786W        W94771  43.764   2.558  10.956
29787W        W94772  44.326  30.993  11.166
29788W        W94773  31.915   9.642  13.451
29789W        W94774  13.277  15.753  11.392
29790W        W94775  19.096  39.448  12.785
29791W        W94776  33.470  44.879  12.216
29792W        W94777   5.378  44.390  14.971
29793W        W94778  36.336  28.947   4.204
29794W        W94779  21.027   6.215   3.268
29795W        W94780  43.443  15.870   3.724
29796W        W94781   5.217   6.078  10.920
29797W        W94782   8.701  29.612   0.338
29798W        W94783  29.935  17.619   3.856
29799W        W94784  20.907  10.308  11.920
29800W        W94785  14.072  24.021  12.958
29801W        W94786  33.903  38.084  11.560
29802W        W94787  27.438  19.188  12.049
29803W        W94788  15.093   2.805  11.945
29804W        W94789  30.399  11.905  14.834
29805W        W94790  17.030  44.715   3.078
29806W        W94791  20.856   8.022   1.620
29807W        W94792   9.339  28.479   2.701
29808W        W94793   0.996   3.256   4.490
29809W        W94794  36.867  22.722   0.926
29810W        W94795  43.530  26.240   4.759
29811W        W94796  20.051   7.409   3.121
29812W        W94797   3.883  28.901  12.849
29813W        W94798  21.140  31.671   2.128
29814W        W94799  35.994  31.724   1.452
29815W        W94800   9.142  26.105   1.826
29816W        W94801   3.495  23.156  13.631
29817W        W94802   6.463  23.106  13.848
29818W        W94803  32.361  28.948   0.099
29819W        W94804  29.078  18.041   2.360
29820W        W94805   8.650   5.842  14.958
29821W        W94806  12.605   8.352   2.304
29822W        W94807  24.814  24.690   3.270
29823W        W94808   0.617  20.004  11.224
29824W        W94809  37.471  42.402   0.651
29825W        W94810  17.172  37.641   0.458
29826W        W94811   6.674  22.623   1.747
29827W        W94812  24.082  28.533   3.069
29828W        W94813  40.743   6.508  11.224
29829W        W94814  27.527  13.469   2.116
29830W        W94815  32.044   3.063   2.393
29831W        W94816  30.691   1.245   4.664
29832W        W94817   0.213  11.653   3.239
29833W        W94818  41.833   8.581  13.150
29834W        W94819  35.469   3.477  11.173
29835W        W94820   0.388  19.228   2.725
29836W        W94821  12.402  36.396  13.621
29837W        W94822  21.172  28.733  14.814
29838W        W94823  20.728  17.187   3.622
29839W        W94824   2.663  32.827   3.161
29840W        W94825  31.184  10.153   2.210
29841W        W94826  15.147  35.802  14.351
29842W        W94827  13.208  21.994  12.068
29843W        W94828  14.599  41.577  13.067
29844W        W94829  20.535  10.338  12.733
29845W        W94830  42.052  20.287  11.265
29846W        W94831  25.979  17.534  13.750
29847W        W94832  34.880  36.182   4.242
29848W        W94833  22.961   4.590  14.839
29849W        W94834  19.266  38.581  14.519
29850W        W94835  38.752  12.362  11.131
29851W        W94836  31.575   8.053  10.788
29852W        W94837  26.428  17.812   3.106
29853W        W94838  16.889   3.188  11.149
29854W        W94839  24.096  29.456   2.119
29855W        W94840  44.351  11.017   4.757
29856W        W94841  27.957  32.820   0.241
29857W        W94842  23.024  34.407   4.182
29858W        W94843  31.172  22.393   9.790
29859W        W94844  29.118  39.137   3.722
29860W        W94845   2.345  16.036   0.089
29861W        W94846  13.787  29.077  12.129
29862W        W94847   4.455  28.211  12.963
29863W        W94848  35.940  14.686  11.645
29864W        W94849  33.783  42.712  14.155
29865W        W94850  13.315  25.235  12.940
29866W        W94851   7.418  27.525  14.798
29867W        W94852  31.915  11.041  14.848
29868W        W94853  22.236  23.652   3.667
29869W        W94854   0.429   2.978   5.262
29870W        W94855  43.281  23.630  13.947
29871W        W94856  26.069  19.924   1.542
29872W        W94857  14.310  27.710   3.603
29873W        W94858  42.859  42.102   0.897
29874W        W94859   3.869  29.067  14.703
29875W        W94860  17.108  15.564  12.972
29876W        W94861  26.438  37.911  13.351
29877W        W94862   5.234  39.343   0.258
29878W        W94863  10.245  34.970  14.376
29879W        W94864  33.946  15.301  14.916
29880W        W94865  32.158  37.345  11.665
29881W        W94866   5.812  32.703  12.061
29882W        W94867  22.277  26.459   1.877
29883W        W94868  33.866  14.379  10.964
29884W        W94869  16.297  38.378   0.239
29885W        W94870  38.867  12.926  11.795
29886W        W94871  15.881   5.492   0.130
29887W        W94872   1.473  22.289  14.757
29888W        W94873  20.254  25.029   1.652
29889W        W94874  15.172  31.988  10.676
29890W        W94875  11.203  38.308  13.551
29891W        W94876   0.307  36.485   2.405
29892W        W94877   5.216  34.904   3.910
29893W        W94878   3.620  34.154  12.430
29894W        W94879  35.115  41.995  13.161
29895W        W94880   6.799  25.578   3.550
29896W        W94881  12.219   0.089   3.507
29897W        W94882  32.680  27.056   2.133
29898W        W94883  27.079   6.855  10.955
29899W        W94884  30.509   6.850  11.522
29900W        W94885  30.439  39.985   1.842
29901W        W94886  22.342  12.749   0.360
29902W        W94887  27.371  44.742  13.041
29903W        W94888  41.838   1.969   1.295
29904W        W94889  11.702  31.450   1.779
29905W        W94890  17.530  24.906  12.032
29906W        W94891  28.925  44.553   3.659
29907W        W94892  28.957  28.654  12.153
29908W        W94893  42.818   5.256   2.842
29909W        W94894  27.033   7.175  12.265
29910W        W94895  33.573  42.922   3.231
29911W        W94896  16.322  15.687  11.615
29912W        W94897  40.797  43.290  14.183
29913W        W94898   7.288  11.652   1.404
29914W        W94899  17.229  24.253   3.285
29915W        W94900  37.874   0.733   2.461
29916W        W94901  29.829  10.379  10.998
29917W        W94902  10.378  43.537  14.290
29918W        W94903  41.915  13.180  10.664
29919W        W94904  29.988  23.536   0.056
29920W        W94905  26.193  30.733   0.451
29921W        W94906   9.599  30.919  11.444
29922W        W94907   9.262   3.740   2.398
29923W        W94908   8.451  44.386   1.458
29924W        W94909  21.609  35.879  12.501
29925W        W94910  43.027  42.560  11.720
29926W        W94911  27.675  13.965   2.163
29927W        W94912   4.450  20.726   4.202
29928W        W94913  19.155   8.691   2.251
29929W        W94914   4.855  25.576   2.955
29930W        W94915  10.133   6.678   0.178
29931W        W94916  12.768  24.993   1.792
29932W        W94917  23.390  42.212  13.589
29933W        W94918  39.300  37.340  10.692
29934W        W94919  10.888  37.568  13.648
29935W        W94920  34.493   4.907  11.618
29936W        W94921  17.765  32.435  10.694
29937W        W94922  28.096  28.785   4.043
29938W        W94923  21.442  17.134   1.389
29939W        W94924  38.288  29.269  14.681
29940W        W94925  39.857  24.467   3.337
29941W        W94926   7.511   4.434   3.757
29942W        W94927  26.812   9.142   3.350
29943W        W94928  29.048   5.669   4.196
29944W        W94929  32.752   0.098  11.143
29945W        W94930  15.402   7.209   0.275
29946W        W94931  22.721  42.002  11.552
29947W        W94932  16.087   4.310   2.335
29948W        W94933  25.904  17.152  14.509
29949W        W94934  11.853  24.249   1.323
29950W        W94935   7.213  31.895  13.745
29951W        W94936  32.485   3.244  11.286
29952W        W94937   4.772  38.968  12.097
29953W        W94938  19.160  20.527  13.579
29954W        W94939  31.378  16.282  14.195
29955W        W94940   7.198   4.238   5.656
29956W        W94941  21.288  18.244  13.015
29957W        W94942  12.190  34.039   1.129
29958W        W94943  41.230  23.116   1.352
29959W        W94944  16.721  23.143  12.317
29960W        W94945  14.595  19.596  11.623
29961W        W94946  10.374  20.576   0.440
29962W        W94947  34.007   6.249  14.516
29963W        W94948  44.255   6.393   0.355
29964W        W94949  20.007  24.696  14.505
29965W        W94950  29.330   7.358   4.054
29966W        W94951  25.870  31.379  14.210
29967W        W94952  32.361  31.920   0.786
29968W        W94953  30.091  39.949   2.776
29969W        W94954  31.091  32.294   1.771
29970W        W94955  34.525  15.715  12.467
29971W        W94956  41.567  33.673   4.469
29972W        W94957  33.827  24.246   4.608
29973W        W94958  41.973   1.817  11.483
29974W        W94959  19.117  28.016   0.390
29975W        W94960  14.893  22.334   3.344
29976W        W94961   8.085  19.215   1.144
29977W        W94962  21.140  10.704  13.142
29978W        W94963  26.767  36.148  11.540
29979W        W94964  26.103  38.790   3.580
29980W        W94965   4.903  40.554  10.786
29981W        W94966   9.400  23.681  12.065
29982W        W94967  22.275  12.115   3.666
29983W        W94968  27.288   8.168  11.579
29984W        W94969   5.978   1.395   3.127
29985W        W94970  41.581   7.708   3.271
29986W        W94971   0.294  12.723  13.816
29987W        W94972  33.086  15.559   1.235
29988W        W94973   5.821   9.507   2.499
29989W        W94974  31.439   3.484  12.959
29990W        W94975   8.646  33.715  10.992
29991W        W94976  17.230  30.863  14.514
29992W        W94977   5.666  38.879   4.105
29993W        W94978  21.161   1.879  12.153
29994W        W94979  16.341  42.898   3.200
29995W        W94980   3.353  29.029  14.782
29996W        W94981  43.315   6.942   2.154
29997W        W94982   6.201  43.373   4.172
29998W        W94983  44.108  36.699  11.759
29999W        W94984  23.741  21.053   2.130
30000W        W94985  10.062  43.283   0.658
30001W        W94986  21.043  28.983   1.081
30002W        W94987  13.173   3.804   5.530
30003W        W94988  22.774  19.788   1.515
30004W        W94989  33.150   3.460   1.308
30005W        W94990   4.790   0.058   0.779
30006W        W94991  43.992  12.312  14.764
30007W        W94992   9.872   4.174  12.601
30008W        W94993  44.302  23.677  12.954
30009W        W94994  26.909  23.833  14.750
30010W        W94995  30.362  16.739  13.739
30011W        W94996   4.727  27.653  12.982
30012W        W94997  19.530  17.276   0.479
30013W        W94998  12.146   8.850  11.880
30014W        W94999  22.640  43.911  14.011
30015W        W95000  10.694   2.131   3.351
30016W        W95001  38.728  38.444   3.397
30017W        W95002  39.594  18.690  14.057
30018W        W95003  21.726  22.226   0.563
30019W        W95004  38.780  20.471  13.309
30020W        W95005  33.112  36.044   2.324
30021W        W95006   2.667  36.937  12.893
30022W        W95007  38.280  32.184   4.930
30023W        W95008   3.621   5.593   2.854
30024W        W95009  34.892  44.403   4.619
30025W        W95010   6.393  13.101   1.389
30026W        W95011  32.601   1.364  10.732
30027W        W95012  21.749  43.507   4.363
30028W        W95013  38.344  36.986   0.899
30029W        W95014   3.764   8.700  14.432
30030W        W95015  12.454  36.577  12.438
30031W        W95016  35.660   0.349  12.361
30032W        W95017  11.245  20.979   1.237
30033W        W95018  29.678  19.119   0.158
30034W        W95019  29.643   2.735   1.662
30035W        W95020  34.867   2.212  10.742
30036W        W95021   2.238  11.209  11.055
30037W        W95022   5.813  37.361   4.022
30038W        W95023  10.176  43.775  14.697
30039W        W95024  17.841  15.227   3.428
30040W        W95025  30.187  21.683   3.448
30041W        W95026  11.125  33.027  11.208
30042W        W95027  21.430  34.935   0.972
30043W        W95028  25.902  23.525  12.617
30044W        W95029  14.065  15.794  12.288
30045W        W95030   5.971  12.178   4.805
30046W        W95031  23.990  39.271  14.544
30047W        W95032  40.455   8.123  12.184
30048W        W95033   8.097  19.728   4.876
30049W        W95034  44.068  37.300   3.279
30050W        W95035  10.367   8.459   9.790
30051W        W95036  38.560   5.366  10.835
30052W        W95037  43.279  12.416  11.625
30053W        W95038  14.245  21.194   2.851
30054W        W95039  24.668  23.671   0.337
30055W        W95040  17.519  21.320  10.595
30056W        W95041  12.871  44.861  13.680
30057W        W95042  43.440   2.224  14.467
30058W        W95043   1.424  21.606   4.605
30059W        W95044  40.785  40.552   1.814
30060W        W95045  17.324   0.717  14.283
30061W        W95046   0.548  30.791   4.102
30062W        W95047  42.571  14.285   2.733
30063W        W95048  11.925   6.206  10.763
30064W        W95049   5.066  39.638  10.396
30065W        W95050  32.644  33.502  12.392
30066W        W95051  11.536  27.289  14.285
30067W        W95052  27.960   6.046   5.062
30068W        W95053  28.181  21.484  13.495
30069W        W95054   0.277  20.012   1.182
30070W        W95055   1.752  13.805   4.678
30071W        W95056  31.622  24.611  13.542
30072W        W95057  42.314  30.932   3.738
30073W        W95058  11.126  41.965   3.279
30074W        W95059  32.870   7.133   2.686
30075W        W95060  23.574  12.402   2.650
30076W        W95061  42.022   2.885   2.483
30077W        W95062   7.832  41.472   2.822
30078W        W95063  23.469  10.055   2.233
30079W        W95064   4.390  36.147   2.328
30080W        W95065  16.839  13.283   4.981
30081W        W95066   4.977  41.474   3.532
30082W        W95067  41.985  34.570  11.832
30083W        W95068  37.742  32.993   1.487
30084W        W95069  42.064  40.074  12.499
30085W        W95070  40.722  37.897   3.806
30086W        W95071  29.858  33.476   2.597
30087W        W95072  18.673  26.018   3.230
30088W        W95073  26.584  13.287  14.876
30089W        W95074   5.519  25.598  11.583
30090W        W95075  15.758   4.177  10.895
30091W        W95076  27.475  19.576   4.916
30092W        W95077   6.978  11.659   0.897
30093W        W95078  15.164  11.760  14.860
30094W        W95079  36.987  24.520   1.931
30095W        W95080   5.251  22.246   1.299
30096W        W95081  19.286  16.883   2.256
30097W        W95082  31.539  43.945   3.727
30098W        W95083  23.575  16.354   3.700
30099W        W95084  20.116  19.809   0.640
30100W        W95085   3.506  43.987   2.293
30101W        W95086  15.316  16.747   2.216
30102W        W95087  25.775  23.619   4.463
30103W        W95088   8.379  18.517  13.939
30104W        W95089  11.731  40.577   3.220
30105W        W95090   3.800  10.826   2.827
30106W        W95091  23.452  43.998   1.043
30107W        W95092   6.964   0.558   0.489
30108W        W95093  18.398  19.132   2.314
30109W        W95094  12.228   2.215   0.878
30110W        W95095   0.744   3.774  11.588
30111W        W95096  39.834  41.807   0.968
30112W        W95097  39.582   5.038   1.376
30113W        W95098   9.385  41.123   4.110
30114W        W95099  40.528  29.787  13.316
30115W        W95100  35.262  17.736   2.337
30116W        W95101  12.762   8.258   3.744
30117W        W95102  37.004  16.254   2.314
30118W        W95103  36.016  43.325  13.469
30119W        W95104  29.700  25.415   1.419
30120W        W95105  42.111  30.891  11.154
30121W        W95106  10.228  25.908   1.245
30122W        W95107   1.240  35.653   0.410
30123W        W95108  41.565  16.318   2.632
30124W        W95109  39.130  33.205  10.704
30125W        W95110  28.064  41.158   4.680
30126W        W95111  44.689  36.575   4.548
30127W        W95112  23.037  33.616  10.181
30128W        W95113  37.537  36.988   1.294
30129W        W95114   9.318   8.280  10.961
30130W        W95115   3.257  35.060  12.477
30131W        W95116  19.009   9.893   3.740
30132W        W95117  34.102  21.095  14.840
30133W        W95118  40.589  41.308   0.988
30134W        W95119  12.663  32.077  11.860
30135W        W95120  28.481   8.325  11.228
30136W        W95121  22.600  43.891  13.479
30137W        W95122   7.427  17.274  13.773
30138W        W95123  41.982  15.620   2.831
30139W        W95124  35.521  13.384   3.264
30140W        W95125  11.889  34.659   4.154
30141W        W95126   8.834  43.582   3.135
30142W        W95127  44.932  25.724  10.344
30143W        W95128  15.526  11.283   2.718
30144W        W95129  19.048  23.038   3.255
30145W        W95130  26.094  33.943   4.118
30146W        W95131  27.956  16.952  10.902
30147W        W95132  36.509  22.492   3.698
30148W        W95133   5.992  35.842  13.815
30149W        W95134  35.507  10.782  13.621
30150W        W95135  44.673   3.811   4.648
30151W        W95136  25.349  40.382  11.681
30152W        W95137  10.922  40.926  14.811
30153W        W95138  15.221   0.697   3.853
30154W        W95139  23.447  30.781   5.086
30155W        W95140  11.970   3.234   5.024
30156W        W95141  20.017  41.330  13.117
30157W        W95142  12.800  16.503  11.591
30158W        W95143  42.541   8.310  14.309
30159W        W95144   0.247  28.717  14.411
30160W        W95145   3.670   8.103   3.151
30161W        W95146  13.201  38.066   0.541
30162W        W95147  40.421  14.610   1.428
30163W        W95148  32.639  43.040   0.361
30164W        W95149  17.504   8.007   2.828
30165W        W95150  17.590  19.531   1.907
30166W        W95151   0.141  25.985   1.491
30167W        W95152   1.317  11.898   4.685
30168W        W95153  38.251  37.060   4.774
30169W        W95154   2.332   8.993  12.058
30170W        W95155  36.992  31.156   4.157
30171W        W95156  34.397  37.417   4.543
30172W        W95157  13.084  41.577  13.907
30173W        W95158  38.867  16.482   4.142
30174W        W95159  42.556  26.751   4.605
30175W        W95160   9.087  24.243   1.824
30176W        W95161  28.770   9.239  13.007
30177W        W95162   2.176  10.340   9.884
30178W        W95163  35.335  41.979  10.808
30179W        W95164   4.518   2.440  13.060
30180W        W95165  20.965  13.225   3.693
30181W        W95166  10.102   4.047   0.522
30182W        W95167  12.753  26.889  13.544
30183W        W95168  30.703  44.459  11.355
30184W        W95169   1.454  29.949  13.411
30185W        W95170  21.569  31.305   4.382
30186W        W95171   4.868  43.109  14.350
30187W        W95172   8.228  34.551   3.386
30188W        W95173  21.366  43.774   4.588
30189W        W95174  36.856  40.557  11.135
30190W        W95175   3.042  11.647  11.237
30191W        W95176  42.649  23.255   3.709
30192W        W95177  39.794  23.007   2.335
30193W        W95178  38.334  24.954  11.691
30194W        W95179  25.963  36.323   2.604
30195W        W95180  16.019  37.944   0.350
30196W        W95181  14.696  10.137   0.452
30197W        W95182  32.191   7.894  10.232
30198W        W95183  28.408  11.692   4.174
30199W        W95184  19.903   8.785  10.702
30200W        W95185  32.831  31.169   0.777
30201W        W95186  32.319   6.323  14.393
30202W        W95187   4.469  43.263   3.266
30203W        W95188  11.429   5.801  13.186
30204W        W95189   8.028  38.273  11.311
30205W        W95190  10.565  42.293  13.893
30206W        W95191   9.833  15.112   3.122
30207W        W95192  10.626  20.257  12.600
30208W        W95193   7.962  42.330   1.830
30209W        W95194  28.413  11.147   3.536
30210W        W95195   0.271  23.971   0.370
30211W        W95196  19.097  36.075  13.192
30212W        W95197  11.881  38.537  13.929
30213W        W95198  29.988  39.102  12.008
30214W        W95199   4.021  21.799   3.793
30215W        W95200  38.838  23.678  11.207
30216W        W95201  44.886  27.066  12.289
30217W        W95202  44.150  43.220   2.862
30218W        W95203  15.143   1.011   0.942
30219W        W95204  33.499  11.120  13.743
30220W        W95205  18.437   0.987   0.765
30221W        W95206  17.281   4.005  11.966
30222W        W95207  28.350  37.335  11.054
30223W        W95208   6.754  34.076   4.198
30224W        W95209  11.274  10.059  13.328
30225W        W95210  32.205   8.714   0.398
30226W        W95211  24.008  18.056  10.148
30227W        W95212   9.284  35.162  14.265
30228W        W95213  11.868  12.658   4.037
30229W        W95214  26.521   8.973  13.481
30230W        W95215  34.672  41.923   3.930
30231W        W95216  15.228  22.637  13.862
30232W        W95217  33.840  38.332  13.183
30233W        W95218  14.834  39.035   4.722
30234W        W95219  28.336  36.022  12.447
30235W        W95220  20.114  27.726  12.042
30236W        W95221  30.400  36.214   4.555
30237W        W95222  44.621  38.840   2.333
30238W        W95223  22.183  24.981   4.371
30239W        W95224   4.181  25.911  14.333
30240W        W95225  16.055   3.350  10.111
30241W        W95226   4.286  42.380   2.821
30242W        W95227  25.977  12.642   1.579
30243W        W95228  26.337  31.156  11.457
30244W        W95229  42.713  15.698   2.352
30245W        W95230  30.087  26.083   0.307
30246W        W95231  42.422  26.180  13.851
30247W        W95232  21.176  26.209  12.483
30248W        W95233  15.459  20.094  14.340
30249W        W95234  36.079  27.502  10.662
30250W        W95235  19.035  41.058   0.452
30251W        W95236  31.139  34.048  13.729
30252W        W95237  21.080   2.421   4.504
30253W        W95238  14.725   0.174  13.382
30254W        W95239  18.087  14.930  11.623
30255W        W95240  11.277   7.619   0.306
30256W        W95241   2.778  27.439  13.788
30257W        W95242   7.569  34.899   2.273
30258W        W95243  11.403  40.570   3.702
30259W        W95244  44.969  10.873  12.083
30260W        W95245  10.533  19.585   5.026
30261W        W95246   6.784  24.953  14.808
30262W        W95247  17.402  16.713   2.150
30263W        W95248  37.724  27.762   1.883
30264W        W95249  16.210  30.011  12.960
30265W        W95250   9.158  19.596  14.913
30266W        W95251  38.953  21.699  12.580
30267W        W95252  11.791  35.436  12.107
30268W        W95253  40.526  38.196  14.785
30269W        W95254  21.632  13.712  12.450
30270W        W95255   4.711  27.432  12.459
30271W        W95256  43.770  15.498  12.541
30272W        W95257  11.180   4.420   0.871
30273W        W95258  13.770  20.003   3.549
30274W        W95259  34.545   8.220   2.375
30275W        W95260  36.494   4.457  10.999
30276W        W95261  44.279   4.425   3.758
30277W        W95262  15.675  30.046   4.215
30278W        W95263   7.364  34.061  13.051
30279W        W95264  28.817  33.470  10.817
30280W        W95265  22.724   9.708  13.023
30281W        W95266  43.500  19.484  12.933
30282W        W95267  14.698  16.568  10.641
30283W        W95268  39.901   0.870   0.547
30284W        W95269  19.734  40.484  13.358
30285W        W95270   1.457  36.339  12.843
30286W        W95271  36.778  44.485  13.032
30287W        W95272  26.877   0.252   2.327
30288W        W95273  35.805  43.824   1.469
30289W        W95274  28.866   1.897  12.066
30290W        W95275   8.487  19.948   4.049
30291W        W95276   5.877  37.464   0.101
30292W        W95277  12.131  18.802  14.730
30293W        W95278   0.562  10.703   4.106
30294W        W95279   4.527  31.889  11.220
30295W        W95280  35.986  30.880   3.332
30296W        W95281   4.776  14.129  13.265
30297W        W95282   3.457   5.937  14.939
30298W        W95283  20.511  27.569   1.490
30299W        W95284  40.319  13.639   2.750
30300W        W95285  23.762  41.416   3.750
30301W        W95286  44.584  15.779   4.561
30302W        W95287  30.887  41.495   3.623
30303W        W95288  32.205  43.552  12.840
30304W        W95289  28.635  25.757   0.626
30305W        W95290  18.831   7.295   1.712
30306W        W95291  40.234   8.211   3.124
30307W        W95292  38.793   4.024  14.144
30308W        W95293  39.716  28.779  13.378
30309W        W95294  34.703  15.024  11.293
30310W        W95295  12.352  41.264  14.376
30311W        W95296   4.437  43.223  11.114
30312W        W95297  37.727   0.282  10.615
30313W        W95298  16.767  40.831   2.764
30314W        W95299  44.008  17.008   1.240
30315W        W95300  44.818  32.592   2.434
30316W        W95301   0.643  37.358  12.689
30317W        W95302  23.098   2.600  14.341
30318W        W95303  22.103  44.522  14.488
30319W        W95304  21.106  28.216  10.276
30320W        W95305   4.441  44.219   2.279
30321W        W95306   5.007   7.789   4.426
30322W        W95307   0.808  16.224   4.976
30323W        W95308  41.407  16.219   0.806
30324W        W95309  20.359  10.784  13.509
30325W        W95310   3.212  36.412   3.141
30326W        W95311  11.705  10.246   1.308
30327W        W95312  21.184  11.454  12.569
30328W        W95313  25.316  13.232   3.685
30329W        W95314  37.002  38.427   2.127
30330W        W95315  19.168  42.422  10.587
30331W        W95316  23.353  23.514  11.651
30332W        W95317  31.316  24.104  13.852
30333W        W95318  35.113  40.905   3.141
30334W        W95319   6.403  25.117  13.062
30335W        W95320   0.320  30.181   0.253
30336W        W95321  26.844  29.059  12.015
30337W        W95322   3.659   9.790  14.015
30338W        W95323  35.009  19.847  11.094
30339W        W95324  29.106   7.651   2.753
30340W        W95325  40.373  12.993  14.470
30341W        W95326  22.620  16.208  14.080
30342W        W95327   8.652   5.424   2.216
30343W        W95328  21.898  20.147   5.099
30344W        W95329  12.844  20.246  11.598
30345W        W95330  21.843  34.027  13.443
30346W        W95331  24.976  30.419   1.767
30347W        W95332  42.104   8.342   0.572
30348W        W95333  41.827   4.793   0.855
30349W        W95334   7.863  17.584   5.258
30350W        W95335  20.236  19.835   3.626
30351W        W95336   3.458  35.965   3.261
30352W        W95337  27.923  29.699   4.966
30353W        W95338   8.831  13.407  14.949
30354W        W95339  37.823  25.184   0.734
30355W        W95340   6.160  22.454  11.993
30356W        W95341  23.018  41.086  10.932
30357W        W95342  16.063  32.378  13.994
30358W        W95343  38.060  43.731   0.913
30359W        W95344  40.005  19.147   3.687
30360W        W95345  10.098  17.093  12.494
30361W        W95346  32.962   2.752   2.824
30362W        W95347  44.861  19.673  11.146
30363W        W95348   8.937  23.913  11.956
30364W        W95349  15.298  35.195  13.509
30365W        W95350  25.756  31.099   2.238
30366W        W95351  30.569  23.579   1.254
30367W        W95352   6.768  42.859  14.447
30368W        W95353  23.761  23.115  14.274
30369W        W95354  21.997  30.109   0.151
30370W        W95355   6.776   7.304  11.551
30371W        W95356   9.174  11.416  13.295
30372W        W95357  18.725  32.651   4.495
30373W        W95358  19.798  33.422  11.217
30374W        W95359   1.339  25.090   1.041
30375W        W95360  41.388  17.716  12.541
30376W        W95361  19.043  15.205  14.476
30377W        W95362  36.716  33.838  13.097
30378W        W95363  12.754  34.316   4.161
30379W        W95364  16.451  22.052  13.401
30380W        W95365  34.900  35.174  11.111
30381W        W95366  18.402   8.763   1.834
30382W        W95367  21.608  13.361  13.838
30383W        W95368  38.446  15.564  14.466
30384W        W95369  36.348  22.450  14.486
30385W        W95370  33.159  42.038  12.997
30386W        W95371  17.373   2.415  14.789
30387W        W95372  28.157  37.530  13.567
30388W        W95373  21.811  32.902   2.174
30389W        W95374   7.346  38.923  14.384
30390W        W95375  18.556  40.093  14.935
30391W        W95376  14.547  39.728   4.011
30392W        W95377  36.624  30.140  13.400
30393W        W95378   1.170  20.785  10.882
30394W        W95379  31.716   1.779  10.084
30395W        W95380  35.553  20.205   5.159
30396W        W95381  11.351  25.487   1.859
30397W        W95382  24.513  16.072   0.448
30398W        W95383   3.947  28.694   3.462
30399W        W95384  31.912  24.756   2.152
30400W        W95385  36.539  12.144  10.972
30401W        W95386  35.410  23.047  14.773
30402W        W95387  10.306  39.352   4.709
30403W        W95388  12.594  44.509  14.105
30404W        W95389  29.264  34.698   2.925
30405W        W95390  19.660   8.084  14.697
30406W        W95391  27.497  41.746  14.602
30407W        W95392  40.096  35.571   2.655
30408W        W95393   5.233   9.032  14.122
30409W        W95394   3.761  32.875   2.948
30410W        W95395  42.612  36.845   0.428
30411W        W95396  41.574  26.345  14.051
30412W        W95397  44.806  28.468  14.280
30413W        W95398   9.877  13.794  10.577
30414W        W95399   4.076  36.033  12.329
30415W        W95400  15.226  40.378   3.106
30416W        W95401  16.509  21.729  12.001
30417W        W95402  36.851  29.408  12.429
30418W        W95403   4.696   5.283   1.685
30419W        W95404  11.210   6.836   3.191
30420W        W95405  13.164   6.120  14.970
30421W        W95406   5.706  13.679  12.385
30422W        W95407  26.431  18.726   4.574
30423W        W95408  37.819  23.476   4.172
30424W        W95409  23.582  41.796   0.000
30425W        W95410  35.037  25.615  10.428
30426W        W95411   8.750   3.726  13.911
30427W        W95412   8.150  34.292  13.104
30428W        W95413  37.775  38.599   0.974
30429W        W95414  38.991  24.303  13.035
30430W        W95415  15.143   4.028  14.845
30431W        W95416  31.420  27.715  13.885
30432W        W95417   3.096  22.034  11.568
30433W        W95418  30.798   8.445   1.930
30434W        W95419  36.398   6.117   1.415
30435W        W95420  21.929  36.134  13.423
30436W        W95421  32.866  37.371   3.638
30437W        W95422   4.228   6.806  12.164
30438W        W95423  24.390  25.753   2.081
30439W        W95424  10.722  36.407   1.791
30440W        W95425   0.993  23.155  13.470
30441W        W95426  29.789  41.223   1.617
30442W        W95427  36.809  13.350  12.092
30443W        W95428   9.865   5.883   0.215
30444W        W95429  24.008  41.153  11.540
30445W        W95430  33.895  19.550  11.682
30446W        W95431  40.463  26.702  13.446
30447W        W95432  44.867  36.778   4.101
30448W        W95433  11.644  38.413  10.748
30449W        W95434   1.914  22.458  10.710
30450W        W95435   0.955  44.257   1.806
30451W        W95436  33.005  31.656  12.547
30452W        W95437   7.671  38.542   0.815
30453W        W95438  20.327  11.411   2.401
30454W        W95439  41.934  28.565   5.016
30455W        W95440  31.889  30.245  12.987
30456W        W95441  34.894  28.964   2.274
30457W        W95442  22.187  44.065  14.266
30458W        W95443  30.538  40.220  14.041
30459W        W95444  38.875  39.011   1.466
30460W        W95445  22.343  21.219   1.729
30461W        W95446  35.860  21.730   3.347
30462W        W95447  35.957  16.793  12.886
30463W        W95448   1.879  11.337  10.688
30464W        W95449  11.133  26.521  12.568
30465W        W95450   1.815   4.224  13.251
30466W        W95451  12.903  31.106  12.054
30467W        W95452  22.733  12.484  14.045
30468W        W95453   1.190  14.942   4.451
30469W        W95454  42.880   0.736   1.125
30470W        W95455   2.881  24.306   3.501
30471W        W95456  10.679   7.886  11.067
30472W        W95457  19.763  13.129   3.100
30473W        W95458  30.454  22.567  14.300
30474W        W95459  26.932  11.262  11.066
30475W        W95460  13.412  22.728  12.574
30476W        W95461   5.327  29.406  14.894
30477W        W95462  24.713   6.840  10.540
30478W        W95463  10.749   7.794   4.429
30479W        W95464  30.867  34.841  13.380
30480W        W95465   2.294   5.245   4.298
30481W        W95466   8.198  16.107   2.867
30482W        W95467   2.315   5.880  13.536
30483W        W95468   3.675  20.603   2.176
30484W        W95469   9.893  36.491   3.207
30485W        W95470  21.138   6.477  13.487
30486W        W95471  34.750  35.960  11.202
30487W        W95472   0.136  42.121  11.177
30488W        W95473  19.580  15.249  13.426
30489W        W95474  13.159  37.414   2.625
30490W        W95475   7.152  41.533   2.262
30491W        W95476  17.939  13.103   4.406
30492W        W95477  28.358  32.646   1.701
30493W        W95478  38.905  30.636   3.182
30494W        W95479  13.187  31.960   2.291
30495W        W95480  26.292  10.756   3.674
30496W        W95481  35.135  37.780   1.291
30497W        W95482  32.691  12.781   4.631
30498W        W95483  39.866  39.844   1.287
30499W        W95484   9.675   6.730  14.200
30500W        W95485  29.489   1.768  11.223
30501W        W95486  44.693   3.339   3.131
30502W        W95487   0.055  28.471   0.258
30503W        W95488  19.748  44.814   4.205
30504W        W95489  21.686  31.586  13.864
30505W        W95490   5.722  10.856   0.328
30506W        W95491  19.098  18.453  13.821
30507W        W95492  23.407  20.214  12.106
30508W        W95493  13.184  36.110   4.041
30509W        W95494   1.265  38.772  12.376
30510W        W95495  18.574  44.447  12.081
30511W        W95496  18.764  31.434   3.245
30512W        W95497  26.448  34.601   3.677
30513W        W95498  22.888   9.759  14.265
30514W        W95499  27.535  31.669   1.892
30515W        W95500   5.470  30.683   0.439
30516W        W95501  19.547  27.276  10.682
30517W        W95502  18.784  41.958  13.840
30518W        W95503  38.727  35.214   4.964
30519W        W95504  31.535  40.760   3.594
30520W        W95505  10.704  28.601  10.670
30521W        W95506  15.364  15.628  10.691
30522W        W95507   2.880   2.190   2.405
30523W        W95508  43.396  34.006  13.452
30524W        W95509  13.729  27.714   0.793
30525W        W95510   1.779   5.311  13.071
30526W        W95511  31.043  24.214   4.087
30527W        W95512  13.269  17.252  13.614
30528W        W95513  24.581  27.777   1.391
30529W        W95514  14.932   1.469   3.574
30530W        W95515   5.971  30.389  11.625
30531W        W95516   6.184  17.699  11.409
30532W        W95517  24.750  27.631  13.882
30533W        W95518  43.556  44.891  12.300
30534W        W95519  29.081  23.987  12.092
30535W        W95520  21.798  40.171  11.180
30536W        W95521  10.071  34.697   4.976
30537W        W95522  37.933  44.345   2.837
30538W        W95523   5.881  40.385   2.897
30539W        W95524  37.502  33.819  11.078
30540W        W95525  29.580  12.573   3.755
30541W        W95526  11.592  30.514   1.526
30542W        W95527  44.592  32.512   3.187
30543W        W95528  19.814  36.059  13.965
30544W        W95529  11.347  15.797  14.861
30545W        W95530   2.989   5.333  13.966
30546W        W95531  24.824  40.835  13.944
30547W        W95532   8.244  44.335   3.597
30548W        W95533  10.181  37.383   0.861
30549W        W95534  13.832  34.037  10.823
30550W        W95535  15.134  44.943   1.563
30551W        W95536  16.177  35.881  11.212
30552W        W95537  34.464  35.587   0.117
30553W        W95538  34.376   5.985   0.338
30554W        W95539  34.921  29.019  12.551
30555W        W95540   3.282  16.300   2.957
30556W        W95541   4.286  35.834   1.918
30557W        W95542  34.926   4.928  11.945
30558W        W95543  13.798  27.076  11.362
30559W        W95544  34.703  34.429  13.365
30560W        W95545   0.703  16.052  13.982
30561W        W95546   6.215  16.246  14.383
30562W        W95547   0.271  17.437   4.550
30563W        W95548  13.981  23.684   3.202
30564W        W95549  14.878   7.887   0.929
30565W        W95550  31.010  10.900   1.302
30566W        W95551  41.415  33.413   4.875
30567W        W95552  11.449  11.661  10.904
30568W        W95553  32.902   5.412   1.186
30569W        W95554  35.463   2.032  13.068
30570W        W95555   6.173   4.349  13.304
30571W        W95556  26.635   7.222   4.611
30572W        W95557   6.253  23.343   0.274
30573W        W95558  16.114  41.844  11.460
30574W        W95559  29.151  34.087   0.787
30575W        W95560  23.227  11.584   2.763
30576W        W95561  44.836   0.078   1.274
30577W        W95562  20.144  35.896   3.761
30578W        W95563   1.524  29.466   1.942
30579W        W95564  28.654  19.007   0.326
30580W        W95565  22.568  31.005  12.688
30581W        W95566  17.208  39.225   2.345
30582W        W95567  10.135   6.849   4.658
30583W        W95568  24.993  44.518   3.077
30584W        W95569   8.626  42.262  13.839
30585W        W95570  17.708  28.851   2.909
30586W        W95571  16.670  12.160   4.315
30587W        W95572  10.660  32.948  14.748
30588W        W95573  18.762  29.891   0.353
30589W        W95574  44.376  39.821  11.087
30590W        W95575  41.619  42.931  14.706
30591W        W95576  27.820  32.878  11.100
30592W        W95577  11.545   5.713   4.555
30593W        W95578   0.960  15.848  12.011
30594W        W95579  26.291   9.488   2.285
30595W        W95580  43.032  18.223   0.778
30596W        W95581   4.970  13.076  11.095
30597W        W95582  44.319  32.102   4.567
30598W        W95583  40.922   0.432  13.044
30599W        W95584  42.454  39.148   2.395
30600W        W95585   9.702   9.643  12.146
30601W        W95586  30.278  27.362  11.587
30602W        W95587  30.191  35.884  13.085
30603W        W95588   8.070  43.617  10.974
30604W        W95589  39.261   7.641   1.919
30605W        W95590   9.138  28.632  12.512
30606W        W95591  30.472  32.190  13.043
30607W        W95592  35.894  28.375  11.875
30608W        W95593   2.843  35.349  12.578
30609W        W95594   4.655   3.552   4.039
30610W        W95595   2.746  37.412   4.469
30611W        W95596  23.451  44.399  14.886
30612W        W95597  13.710  17.483   1.789
30613W        W95598   0.261   2.947   0.435
30614W        W95599  10.238  30.476  13.254
30615W        W95600   1.054   6.912  11.423
30616W        W95601  43.508   0.525   0.952
30617W        W95602  38.877  23.789   1.798
30618W        W95603   6.978  38.983  14.006
30619W        W95604   8.316  20.088   4.530
30620W        W95605  43.587  39.085   0.725
30621W        W95606   9.676  23.782  12.503
30622W        W95607  44.763   4.943  12.627
30623W        W95608  23.024   9.168   2.101
30624W        W95609  26.781  39.543  10.555
30625W        W95610  30.158   7.328  11.875
30626W        W95611  43.900   5.721  10.710
30627W        W95612  18.043  22.590   0.696
30628W        W95613   9.827  44.453   4.615
30629W        W95614  18.070   1.744  14.499
30630W        W95615  35.636  44.760  11.319
30631W        W95616  19.974   5.223   1.967
30632W        W95617   5.269   7.418  14.939
30633W        W95618  11.913  20.575   4.086
30634W        W95619  33.299  42.454   0.590
30635W        W95620  40.295  10.779   4.371
30636W        W95621  29.796  21.242  12.592
30637W        W95622   9.338  18.688   3.121
30638W        W95623   4.760  36.551  14.859
30639W        W95624  15.690  24.884  13.245
30640W        W95625  20.688  27.655  10.653
30641W        W95626   2.732  21.283  12.881
30642W        W95627  44.087  17.675  14.062
30643W        W95628  20.978  26.957  11.705
30644W        W95629  14.680  11.733   2.073
30645W        W95630  28.178  33.853   1.136
30646W        W95631   3.248  28.999  10.354
30647W        W95632   4.082  16.807  14.741
30648W        W95633  37.472  37.039  13.488
30649W        W95634  13.209  42.401  14.331
30650W        W95635  38.636  41.317   1.437
30651W        W95636  21.101  26.984  14.482
30652W        W95637  43.466   4.760  11.026
30653W        W95638   0.019  29.155   2.268
30654W        W95639  22.960   9.000   9.882
30655W        W95640  17.063   8.527   4.519
30656W        W95641  12.641   6.829  13.779
30657W        W95642  11.230  40.997   1.885
30658W        W95643  29.902  33.858  14.006
30659W        W95644  32.415  36.259  12.638
30660W        W95645  10.389  43.420  13.465
30661W        W95646  31.954  44.322   4.649
30662W        W95647  43.376   7.313  12.011
30663W        W95648   8.722   9.727   1.203
30664W        W95649  11.558  41.093   0.452
30665W        W95650  16.775  24.838   2.607
30666W        W95651  37.308  38.560   2.902
30667W        W95652  35.878   3.224   4.688
30668W        W95653  37.484  42.700   1.586
30669W        W95654  26.684   9.359  11.898
30670W        W95655  15.827  29.216  13.591
30671W        W95656  35.148  14.556  12.086
30672W        W95657  42.858  39.178   9.856
30673W        W95658   6.080  16.743  11.239
30674W        W95659   4.516  35.727  12.104
30675W        W95660  14.892  38.062  10.641
30676W        W95661   4.450  27.069   2.840
30677W        W95662   3.777  27.229   1.241
30678W        W95663  34.458  22.613  11.626
30679W        W95664   0.477  27.675   0.504
30680W        W95665   0.000   7.838  13.364
30681W        W95666  31.434  31.176  12.365
30682W        W95667  40.993   2.739   3.209
30683W        W95668  11.641  10.852   2.724
30684W        W95669  17.361  11.587  11.082
30685W        W95670  12.824  34.288   0.379
30686W        W95671  12.722  13.682   2.457
30687W        W95672  12.882  12.771   4.340
30688W        W95673   1.223  37.507  13.870
30689W        W95674  25.932  42.434  14.859
30690W        W95675   4.020  10.511   3.251
30691W        W95676  37.025  43.710  13.989
30692W        W95677   0.009  38.842   0.210
30693W        W95678  32.816  28.514   3.831
30694W        W95679   7.693   9.912  11.378
30695W        W95680  27.099  35.485   4.493
30696W        W95681  31.062  12.839   0.572
30697W        W95682  28.600  41.346  11.116
30698W        W95683  31.132  33.479   3.053
30699W        W95684  25.024  24.470   0.402
30700W        W95685  14.146  34.404   1.119
30701W        W95686  37.858  36.845   2.549
30702W        W95687  20.220  23.280   4.385
30703W        W95688  23.798   3.682  10.622
30704W        W95689  34.363  21.231   2.687
30705W        W95690   9.842  13.259  10.727
30706W        W95691  36.745   0.032  13.154
30707W        W95692  18.559  28.003  12.983
30708W        W95693  22.132   3.400   4.412
30709W        W95694   5.807  33.501  12.501
30710W        W95695  41.455  21.419  14.522
30711W        W95696  39.617   6.881  13.954
30712W        W95697  21.103  25.117   3.307
30713W        W95698  17.955   0.985   0.559
30714W        W95699  32.167   2.352  11.304
30715W        W95700  26.988  41.748  14.441
30716W        W95701  31.759  21.081  14.231
30717W        W95702  16.263  31.452  11.575
30718W        W95703  22.576  20.535   2.639
30719W        W95704   7.370  40.469  14.705
30720W        W95705  23.486   3.781  13.049
30721W        W95706  28.626   5.449   2.897
30722W        W95707  43.453  27.181  14.411
30723W        W95708  30.117  20.947  11.158
30724W        W95709  20.259  36.220   5.151
30725W        W95710  30.637  26.107  12.951
30726W        W95711  11.748  10.633  13.638
30727W        W95712  14.294  33.303   0.886
30728W        W95713  37.082  29.677  13.934
30729W        W95714  12.687  39.591   3.831
30730W        W95715   1.314  22.301  13.937
30731W        W95716  41.156  21.641   4.279
30732W        W95717  10.202  14.425   2.319
30733W        W95718  11.757  41.634   4.608
30734W        W95719  18.334  37.881  14.624
30735W        W95720  34.688  41.344  10.944
30736W        W95721   7.233   9.407   3.214
30737W        W95722  30.898  44.931  11.201
30738W        W95723   0.122   5.749   4.074
30739W        W95724  22.588   1.766   3.590
30740W        W95725  22.780  15.609  14.821
30741W        W95726  12.035  18.229   1.323
30742W        W95727  26.015  18.235  14.273
30743W        W95728  31.544   0.512  14.413
30744W        W95729  20.451   5.384   1.294
30745W        W95730  34.528  13.408  12.602
30746W        W95731   4.995   0.763  13.888
30747W        W95732  39.088   3.798  12.654
30748W        W95733  44.440  42.903  13.865
30749W        W95734  20.804  42.295   2.775
30750W        W95735  23.112  20.678   3.393
30751W        W95736  31.191   3.468  13.462
30752W        W95737  36.450   7.583  10.291
30753W        W95738   8.443   6.558   9.826
30754W        W95739  41.104  42.361   2.413
30755W        W95740  33.987  21.461   0.872
30756W        W95741  13.417  20.794  13.455
30757W        W95742  13.127   0.722  14.589
30758W        W95743  16.795  38.570   0.762
30759W        W95744   3.999  40.844   4.664
30760W        W95745  17.378  25.865   0.250
30761W        W95746  26.510   9.788   4.527
30762W        W95747   4.469  41.860  14.506
30763W        W95748  23.449  33.818  13.999
30764W        W95749   3.370   1.281  13.989
30765W        W95750  26.998  42.507   0.807
30766W        W95751  39.476   6.382   3.535
30767W        W95752   7.189  18.786   1.593
30768W        W95753   1.358  24.462  10.742
30769W        W95754  31.733   1.846   1.838
30770W        W95755  12.785  40.817  13.826
30771W        W95756  35.125  12.886   5.222
30772W        W95757  27.922  36.150  13.393
30773W        W95758  12.629  18.243   3.011
30774W        W95759  12.841  19.739  13.438
30775W        W95760  27.753  28.375  11.373
30776W        W95761  39.538  10.442   0.206
30777W        W95762   0.295  42.266  13.867
30778W        W95763  25.769  39.393   2.219
30779W        W95764  26.249   8.611   0.549
30780W        W95765  33.845  21.711  13.129
30781W        W95766  17.800  25.030  10.351
30782W        W95767  31.756  19.147  11.112
30783W        W95768  27.753  20.582   0.466
30784W        W95769  33.134  44.033   1.405
30785W        W95770  21.954  13.193   4.654
30786W        W95771  17.026  13.570  11.137
30787W        W95772   9.113  33.438  13.431
30788W        W95773  43.307  12.331   2.768
30789W        W95774  10.549   3.971   3.391
30790W        W95775  26.588  33.093   4.157
30791W        W95776  36.362  12.285  11.822
30792W        W95777  24.075  10.304  14.308
30793W        W95778  11.121  36.016  11.657
30794W        W95779  39.696   7.631   0.451
30795W        W95780  38.026  29.217   5.197
30796W        W95781  28.543  23.768  13.503
30797W        W95782  37.350  28.503  13.784
30798W        W95783  44.075  37.006   0.473
30799W        W95784  35.098  12.164  11.529
30800W        W95785  20.706  30.580   0.980
30801W        W95786  16.118  44.967  11.141
30802W        W95787  24.036  43.453  12.927
30803W        W95788  35.363   9.241   1.510
30804W        W95789   5.443  38.254  12.892
30805W        W95790  44.875   4.105  13.992
30806W        W95791   5.425  17.536   3.405
30807W        W95792  14.705  35.915  13.988
30808W        W95793  25.527  33.244  11.680
30809W        W95794   6.223   1.126   1.270
30810W        W95795   5.925  10.192  11.184
30811W        W95796   8.602  37.560  14.376
30812W        W95797  10.258  42.043  10.776
30813W        W95798  23.681  40.791   1.771
30814W        W95799  17.953  30.584   0.285
30815W        W95800   7.465  20.046   1.306
30816W        W95801  44.885  41.760  14.163
30817W        W95802   6.648  14.873   4.653
30818W        W95803  18.667  11.754  11.615
30819W        W95804  28.497  37.044  10.650
30820W        W95805  13.277  20.231  11.301
30821W        W95806   2.181  15.592  13.988
30822W        W95807   8.794   7.700  14.497
30823W        W95808   1.768   3.217  12.005
30824W        W95809  13.859  13.574  13.508
30825W        W95810   8.588  10.356   4.098
30826W        W95811  18.710  12.048   2.215
30827W        W95812  35.372  23.010   4.879
30828W        W95813  30.246   2.455  10.684
30829W        W95814  10.641   7.923  11.984
30830W        W95815   6.226  37.896  14.444
30831W        W95816  34.786  28.640   4.090
30832W        W95817  17.542  37.421   2.905
30833W        W95818  43.539  25.468   1.722
30834W        W95819  40.643   4.757   2.411
30835W        W95820   2.797  13.721   2.229
30836W        W95821  40.073   9.056  13.776
30837W        W95822  18.118  27.611  13.619
30838W        W95823  36.533  24.468   3.265
30839W        W95824  28.366  29.089  14.437
30840W        W95825   2.486   5.874  11.640
30841W        W95826  30.912  24.653   0.839
30842W        W95827  21.405   6.899   2.561
30843W        W95828  26.392   6.910   3.512
30844W        W95829  29.608  14.408   2.541
30845W        W95830  10.358  40.523  14.984
30846W        W95831  20.101  14.248   2.286
30847W        W95832  42.441  21.849  14.017
30848W        W95833  44.293  20.194   1.937
30849W        W95834   5.813  15.965   4.728
30850W        W95835   6.628  30.594  13.431
30851W        W95836  15.208   4.941   0.109
30852W        W95837  12.692  32.026  12.861
30853W        W95838  33.304  31.546   1.883
30854W        W95839  15.545  38.946  10.761
30855W        W95840   3.570  17.207   3.729
30856W        W95841  19.318   6.818   0.929
30857W        W95842  25.079  15.405  13.880
30858W        W95843   7.681   5.337   2.416
30859W        W95844   4.266  19.744   3.689
30860W        W95845  17.700  44.513   3.775
30861W        W95846  31.429  41.268  14.158
30862W        W95847  32.553  43.418  13.881
30863W        W95848   4.946  10.733  11.509
30864W        W95849  13.742  12.780   3.811
30865W        W95850   0.197   7.955  12.442
30866W        W95851  28.496  26.566  12.034
30867W        W95852  27.426  20.298   0.800
30868W        W95853  15.828  28.178   2.095
30869W        W95854  33.160   5.110   5.243
30870W        W95855  15.489  36.862  13.973
30871W        W95856   9.801  29.576   4.505
30872W        W95857   5.275   3.524  11.596
30873W        W95858  35.284  12.066   9.772
30874W        W95859  34.567  26.713   0.428
30875W        W95860  10.783   5.026   0.834
30876W        W95861  26.135  29.704  11.701
30877W        W95862  40.461  20.332   4.102
30878W        W95863  20.085  36.730  13.761
30879W        W95864  28.670  12.785   1.882
30880W        W95865   5.683  17.466   4.781
30881W        W95866  32.922  38.348   4.069
30882W        W95867  24.899  42.958   3.642
30883W        W95868  12.596  11.899  14.819
30884W        W95869  15.957  43.913   1.575
30885W        W95870  35.940  14.396  14.903
30886W        W95871  28.848  40.957  13.566
30887W        W95872  27.948  38.391  14.021
30888W        W95873  37.847  19.541  10.183
30889W        W95874  30.330  25.967  11.434
30890W        W95875  41.187  15.937   4.521
30891W        W95876   9.991  39.322  13.466
30892W        W95877  24.509  13.699   3.918
30893W        W95878   7.939   2.473   3.877
30894W        W95879  33.460  36.684  12.491
30895W        W95880  13.585   7.844  12.487
30896W        W95881  20.345  20.252   1.897
30897W        W95882   4.684  14.609  13.532
30898W        W95883  28.711  36.482   3.720
30899W        W95884  26.722  38.342   3.150
30900W        W95885   5.074  40.234  14.079
30901W        W95886  32.118  36.000   1.712
30902W        W95887  33.507  27.935  11.039
30903W        W95888  39.478  26.284   0.805
30904W        W95889   8.146  22.690  11.997
30905W        W95890  26.201  31.929   1.520
30906W        W95891  28.861  41.819  11.046
30907W        W95892  38.734  24.647  11.513
30908W        W95893  34.915   3.449   3.356
30909W        W95894   0.907  16.206   0.353
30910W        W95895  29.841  13.244  14.333
30911W        W95896   7.862  24.433  12.507
30912W        W95897  21.861  37.617   0.323
30913W        W95898  37.852  11.156   4.744
30914W        W95899   7.698  20.223   0.873
30915W        W95900  11.062   7.485  14.829
30916W        W95901   1.360  20.210   4.959
30917W        W95902  33.181  10.291   1.957
30918W        W95903  24.497  43.142   1.297
30919W        W95904  22.804  35.478  12.405
30920W        W95905  31.945   5.195  10.500
30921W        W95906  17.382  21.310  11.988
30922W        W95907  20.682  36.374  13.487
30923W        W95908  13.278  41.363  11.152
30924W        W95909  15.757  40.416  10.399
30925W        W95910  38.753  28.039  13.039
30926W        W95911  38.602  36.312  11.620
30927W        W95912  15.143   2.425   0.932
30928W        W95913  23.718  16.267   0.729
30929W        W95914  37.149   4.791   3.193
30930W        W95915  42.804   7.853   1.168
30931W        W95916  32.628   2.430  14.805
30932W        W95917  36.192   0.365  14.543
30933W        W95918  42.919  31.149   1.600
30934W        W95919  22.710  19.894  14.102
30935W        W95920  41.451  11.398  12.962
30936W        W95921  15.227  42.824  11.845
30937W        W95922   4.294  41.309  13.047
30938W        W95923  24.967  12.650   2.292
30939W        W95924   6.181   1.296  11.175
30940W        W95925  24.630  26.465  13.937
30941W        W95926  27.150   6.756  11.945
30942W        W95927  28.350  23.157   1.547
30943W        W95928  16.080  23.947   2.699
30944W        W95929  36.695  35.965   3.736
30945W        W95930  18.051  11.082   3.655
30946W        W95931   5.235  20.805  14.908
30947W        W95932  33.064  24.730   1.319
30948W        W95933   6.187  38.636  14.895
30949W        W95934  19.010  10.361  13.338
30950W        W95935  44.092  18.052   2.771
30951W        W95936  23.003  29.494   4.564
30952W        W95937  27.051   7.842  12.999
30953W        W95938  18.388  26.922   9.985
30954W        W95939  23.397  31.351  11.550
30955W        W95940  33.151  11.012   2.824
30956W        W95941  25.725   2.431   3.160
30957W        W95942  20.148  13.682  13.510
30958W        W95943  35.641  34.897  10.697
30959W        W95944  29.197  43.151  12.104
30960W        W95945   1.218   9.916   4.164
30961W        W95946  15.622  21.157  12.622
30962W        W95947  10.365  21.321   2.418
30963W        W95948  26.561  25.505   0.416
30964W        W95949  12.195  35.898  12.934
30965W        W95950  28.450   8.244  13.451
30966W        W95951   0.561   5.963   4.910
30967W        W95952   8.153  15.696  13.467
30968W        W95953   8.168  28.309  11.119
30969W        W95954  28.892  25.084   3.823
30970W        W95955  29.691  29.810   1.330
30971W        W95956  42.798   5.988  14.820
30972W        W95957   2.138  16.348  10.551
30973W        W95958  29.507  20.131  12.433
30974W        W95959   2.381  31.273   4.569
30975W        W95960  11.627  29.707  11.270
30976W        W95961   4.227  21.830   0.384
30977W        W95962  17.973   4.370   2.583
30978W        W95963  19.595  12.729  12.653
30979W        W95964  19.809   8.337  13.889
30980W        W95965   2.111  39.242  12.533
30981W        W95966  41.379  23.803  14.772
30982W        W95967  37.155  40.542  10.720
30983W        W95968  16.704   7.099   5.347
30984W        W95969   3.871   4.749   4.184
30985W        W95970  15.807  24.308   4.169
30986W        W95971   1.222   5.893   2.154
30987W        W95972  16.116  18.763   3.194
30988W        W95973  22.074  14.579   0.924
30989W        W95974  42.537   1.524  10.381
30990W        W95975  39.389  38.844  13.114
30991W        W95976  14.550  36.469   4.255
30992W        W95977  35.971  32.148  14.840
30993W        W95978  36.035  40.961   1.637
30994W        W95979   2.500  12.386   2.695
30995W        W95980  38.402  37.000   3.767
30996W        W95981  37.302   4.336  14.291
30997W        W95982  21.013  42.496   1.868
30998W        W95983  39.413  12.573   3.226
30999W        W95984  15.872   7.262   1.284
31000W        W95985  26.675   0.427   3.697
31001W        W95986  25.111  44.820  13.612
31002W        W95987  28.519  35.484  13.703
31003W        W95988  22.056  42.681  13.719
31004W        W95989  17.107  22.530   1.457
31005W        W95990  44.245  24.610   2.279
31006W        W95991  29.585  11.722   3.053
31007W        W95992   1.759  29.921   2.283
31008W        W95993  21.186   8.682   2.251
31009W        W95994  42.211  40.585   0.906
31010W        W95995  37.280  29.787   0.736
31011W        W95996  32.213  19.784  10.294
31012W        W95997   8.164   8.402   4.565
31013W        W95998  32.110  13.882   2.176
31014W        W95999   5.080   8.322   1.463
31015W        W96000  16.498  31.661  12.983
31016W        W96001  13.569  37.905   3.949
31017W        W96002  26.554  36.549  12.185
31018W        W96003  15.841   3.487   3.155
31019W        W96004  40.821  27.119  14.889
31020W        W96005  42.781  21.055   0.214
31021W        W96006  30.096  43.882  13.412
31022W        W96007  35.666  40.329   2.125
31023W        W96008  17.546  22.179   0.407
31024W        W96009  22.902  22.937   1.228
31025W        W96010   4.491   0.492  11.990
31026W        W96011  25.542   7.124   2.245
31027W        W96012  30.923  32.086   3.302
31028W        W96013  26.278   6.427   3.338
31029W        W96014  41.452  20.335  12.471
31030W        W96015   4.421  22.499   3.286
31031W        W96016  32.945  35.259   2.018
31032W        W96017  15.189  37.576   0.784
31033W        W96018  31.910  34.070  11.336
31034W        W96019  36.540   5.619   1.445
31035W        W96020  26.804  12.792  14.898
31036W        W96021  17.352  25.031  13.711
31037W        W96022   7.128  17.501  11.055
31038W        W96023  33.588  32.372  11.426
31039W        W96024  21.356  33.202  13.418
31040W        W96025  22.209   6.057  11.470
31041W        W96026  40.259  14.352   3.228
31042W        W96027  17.804  30.739  12.095
31043W        W96028  19.879  17.045   4.097
31044W        W96029  11.803  29.152  12.565
31045W        W96030  43.009  25.690  12.317
31046W        W96031   1.034  26.886   0.885
31047W        W96032  41.277   7.392   0.811
31048W        W96033  43.010  28.122   3.727
31049W        W96034  40.468  26.885   4.902
31050W        W96035   7.761  42.473  12.901
31051W        W96036  39.504  12.002  10.708
31052W        W96037  34.742  42.768   2.765
31053W        W96038  41.108   5.272  14.871
31054W        W96039  31.719  20.758   0.423
31055W        W96040  32.619   8.578   3.569
31056W        W96041   4.562  33.642   2.656
31057W        W96042  24.245   8.272  13.631
31058W        W96043  12.623  28.579  14.763
31059W        W96044  41.532  23.096   5.394
31060W        W96045  33.890   1.799  10.519
31061W        W96046  21.556   0.341  14.830
31062W        W96047  12.697  33.275   0.358
31063W        W96048  43.944   2.556  12.360
31064W        W96049   6.609  42.833  13.969
31065W        W96050  14.660   7.300  14.136
31066W        W96051  41.384  27.020  14.047
31067W        W96052   5.688  27.750   2.998
31068W        W96053   8.877  27.540  13.874
31069W        W96054  29.340  20.056   1.764
31070W        W96055   3.521  22.329   2.656
31071W        W96056   5.471  28.068  13.923
31072W        W96057  20.019  31.114  13.494
31073W        W96058   1.730  41.027   3.187
31074W        W96059  15.603  31.125  11.179
31075W        W96060  15.286  18.372   0.868
31076W        W96061  28.373  28.702   3.611
31077W        W96062   8.943  13.085   1.405
31078W        W96063  22.472  11.188  10.333
31079W        W96064  34.609  43.748  14.786
31080W        W96065  21.225  36.246  14.273
31081W        W96066  19.669  25.887   0.852
31082W        W96067  23.976  13.752   4.574
31083W        W96068  29.151  41.415   0.660
31084W        W96069  30.019  38.597  12.175
31085W        W96070   3.838  30.542  10.655
31086W        W96071   6.238   0.029   3.694
31087W        W96072  26.070  12.832  11.117
31088W        W96073  13.424   7.751  10.992
31089W        W96074   0.959   6.739   0.830
31090W        W96075   7.706  29.219   3.182
31091W        W96076  10.185   9.740  12.042
31092W        W96077  14.363  25.621   3.397
31093W        W96078  20.888  37.847  12.493
31094W        W96079  26.903  26.198   0.037
31095W        W96080  31.873   5.281   0.467
31096W        W96081  19.476   8.653  13.601
31097W        W96082  37.529  28.523   3.134
31098W        W96083  39.258  35.864  14.963
31099W        W96084  34.500  25.045   0.216
31100W        W96085   5.412  43.245   2.366
31101W        W96086  16.532  32.490   2.779
31102W        W96087   4.482  16.502   2.422
31103W        W96088   1.318  14.315  10.900
31104W        W96089  20.175  37.797   2.912
31105W        W96090   9.457  22.616   0.917
31106W        W96091  27.384  10.292  13.922
31107W        W96092   8.785  38.334   3.185
31108W        W96093  41.133  13.739   0.998
31109W        W96094  36.037   9.453  10.657
31110W        W96095  40.082  37.600   1.687
31111W        W96096  42.945  38.512   0.920
31112W        W96097  12.291  40.542   0.532
31113W        W96098   7.475  40.049  11.520
31114W        W96099  41.857  17.623   1.879
31115W        W96100  19.155  44.223   4.518
31116W        W96101  14.048  16.616   1.455
31117W        W96102  36.130  30.302   4.646
31118W        W96103  30.928  13.254   2.146
31119W        W96104  44.815  44.765   0.771
31120W        W96105  33.490  24.748  11.505
31121W        W96106  19.705   1.181   0.005
31122W        W96107  43.106  44.514  12.058
31123W        W96108   6.746  16.911   0.435
31124W        W96109  35.502  12.534   2.770
31125W        W96110   8.125  10.005   4.173
31126W        W96111  29.472  19.160  13.408
31127W        W96112  32.579  24.145   4.335
31128W        W96113  44.014  36.973  12.665
31129W        W96114   2.554  26.439   3.595
31130W        W96115   5.021  19.169  14.102
31131W        W96116   4.771   7.875   1.702
31132W        W96117  16.760   3.799  10.752
31133W        W96118   8.227  41.326   2.553
31134W        W96119  41.839  11.688  12.803
31135W        W96120  11.205   5.071   0.509
31136W        W96121   9.846  21.179  12.005
31137W        W96122   0.623  11.250  12.199
31138W        W96123   2.001  33.931   0.386
31139W        W96124  22.522   0.335   0.767
31140W        W96125  16.397  36.571   2.365
31141W        W96126   0.974  30.554  13.875
31142W        W96127  12.824  41.316   3.378
31143W        W96128  28.778  32.366   2.388
31144W        W96129  39.977  35.661  12.494
31145W        W96130   1.942  14.127   0.740
31146W        W96131  39.003   0.537   1.969
31147W        W96132   1.147   1.708   9.489
31148W        W96133  33.481  12.556  14.102
31149W        W96134  42.867  20.536   1.862
31150W        W96135  22.470  31.284   0.267
31151W        W96136  20.877   6.217  11.170
31152W        W96137  44.776   0.539   0.005
31153W        W96138   6.984  27.229   0.386
31154W        W96139   9.158  39.773  13.547
31155W        W96140  43.970  15.116   3.478
31156W        W96141  24.097  41.543   2.895
31157W        W96142   4.683  21.426   2.131
31158W        W96143  32.356  36.144  13.295
31159W        W96144   1.436  14.057   0.983
31160W        W96145  30.324  10.852  14.298
31161W        W96146  24.526   1.512  11.434
31162W        W96147  25.008  15.532  14.853
31163W        W96148  40.767   7.718  12.001
31164W        W96149  34.279  10.909   5.055
31165W        W96150  34.796  32.060   2.779
31166W        W96151  27.019  17.829  13.891
31167W        W96152  18.743  26.402   2.855
31168W        W96153   2.995  44.290   3.210
31169W        W96154  34.678   6.640  12.122
31170W        W96155   6.899  20.225   2.201
31171W        W96156   0.405  38.546  12.695
31172W        W96157   6.647   4.903   2.669
31173W        W96158  14.216  21.104  12.382
31174W        W96159  30.083   0.726  13.447
31175W        W96160   1.853  11.159   4.257
31176W        W96161   2.884  34.483   4.090
31177W        W96162  11.072  41.385  11.463
31178W        W96163  13.220  26.232   0.430
31179W        W96164  17.555   9.424   3.090
31180W        W96165   6.776  18.776   3.329
31181W        W96166  38.817   7.361  14.650
31182W        W96167   3.951  24.166  12.952
31183W        W96168  24.563  27.900  11.246
31184W        W96169  10.888  24.024   1.188
31185W        W96170  27.808  24.494   3.687
31186W        W96171  39.378  40.087  11.173
31187W        W96172  16.105  16.273   2.884
31188W        W96173  11.343   8.341  14.796
31189W        W96174   0.911  33.568   1.187
31190W        W96175  33.566   1.938  12.367
31191W        W96176  33.396  36.854   2.954
31192W        W96177   9.456   5.014   4.581
31193W        W96178  39.404  10.215   4.581
31194W        W96179  40.017   1.943   4.012
31195W        W96180   9.442  41.792   2.180
31196W        W96181  36.047  40.853   1.141
31197W        W96182   9.666  33.557  12.594
31198W        W96183  17.078  18.574  13.798
31199W        W96184  23.975  24.304  11.634
31200W        W96185  19.582  23.585  12.365
31201W        W96186   8.254  39.973   0.316
31202W        W96187  10.453  19.948  14.692
31203W        W96188  44.887  22.498  11.529
31204W        W96189  22.549  29.944   4.943
31205W        W96190   2.535  30.424   4.080
31206W        W96191  24.258  33.889  13.060
31207W        W96192  41.202  10.668  11.637
31208W        W96193  41.827  35.146   0.828
31209W        W96194  19.013   3.021   3.145
31210W        W96195  22.146  22.661   1.168
31211W        W96196   9.315  41.457   0.865
31212W        W96197  35.194  24.732   4.813
31213W        W96198   6.513  29.263  14.455
31214W        W96199  10.468  11.865   4.139
31215W        W96200  12.383  12.835   0.668
31216W        W96201  33.413   1.966  13.365
31217W        W96202  30.704  17.751  11.594
31218W        W96203  44.370  13.087   2.419
31219W        W96204  15.497  30.747  11.521
31220W        W96205  31.876  23.253  10.735
31221W        W96206  40.270  12.303  12.368
31222W        W96207   7.248  37.722   0.735
31223W        W96208  40.318  29.227   4.499
31224W        W96209  17.736  29.478   1.629
31225W        W96210  40.107   7.262   1.712
31226W        W96211   3.624  10.205  12.821
31227W        W96212  44.069  24.433  12.611
31228W        W96213   6.084  14.793  13.320
31229W        W96214  16.375  22.156  10.726
31230W        W96215  21.646  42.992   1.328
31231W        W96216  35.228   2.208  14.836
31232W        W96217  31.583  32.124   0.455
31233W        W96218   4.790  44.830  10.644
31234W        W96219  37.153  34.873  10.541
31235W        W96220  23.022   1.006   2.722
31236W        W96221   1.242  38.369   4.410
31237W        W96222  38.538  38.966  13.875
31238W        W96223   7.599  14.554   0.808
31239W        W96224  40.512  23.249  11.103
31240W        W96225  21.961  32.954   1.342
31241W        W96226   5.306  15.339  11.043
31242W        W96227  36.139  31.602   3.739
31243W        W96228   2.875  24.003   1.486
31244W        W96229   5.743  25.010   4.988
31245W        W96230  15.365  29.194  13.970
31246W        W96231  16.784  32.141   3.753
31247W        W96232   2.854  29.892   3.765
31248W        W96233  19.165   5.356  12.157
31249W        W96234  43.952   6.904   3.729
31250W        W96235  11.218  44.396  12.015
31251W        W96236  29.878   9.463   3.659
31252W        W96237  15.424  44.434  11.149
31253W        W96238  17.793  25.447   4.276
31254W        W96239  25.165  23.007  10.619
31255W        W96240  24.699  14.716   4.166
31256W        W96241  44.356   9.773  13.981
31257W        W96242  22.348  29.817  14.910
31258W        W96243  37.907   9.303  12.003
31259W        W96244  14.877  44.451  11.107
31260W        W96245   8.322  36.157  14.829
31261W        W96246  12.647   6.713   1.172
31262W        W96247  30.401  18.347   2.464
31263W        W96248  28.136  36.837  10.317
31264W        W96249  12.086   2.870  11.230
31265W        W96250  14.089  41.888   3.239
31266W        W96251  20.359  23.040   4.832
31267W        W96252  29.492  15.670  14.778
31268W        W96253   2.512   8.386  14.065
31269W        W96254  11.835  36.929  11.658
31270W        W96255  30.286   2.300  11.224
31271W        W96256  43.634  16.498  10.286
31272W        W96257   0.964   6.673   3.635
31273W        W96258  42.803  28.076  11.840
31274W        W96259   5.826   9.335   4.252
31275W        W96260  34.173  17.520   4.532
31276W        W96261  39.527  26.458   2.490
31277W        W96262  34.861  43.044  11.925
31278W        W96263   4.871  35.150  12.847
31279W        W96264  42.432  33.363  12.159
31280W        W96265  40.783  36.707   2.260
31281W        W96266  33.090  24.852   1.858
31282W        W96267  44.443  26.001   4.184
31283W        W96268  31.644  16.603  12.783
31284W        W96269   7.128  28.668  12.632
31285W        W96270  27.309   8.453   0.512
31286W        W96271  38.633  24.122  13.951
31287W        W96272   5.608  33.179  12.130
31288W        W96273   1.808  21.053   3.058
31289W        W96274  43.103  27.700   3.474
31290W        W96275  36.423  34.850   3.803
31291W        W96276  31.491   0.697  10.986
31292W        W96277  29.154  22.231  14.536
31293W        W96278   0.761   1.473   3.448
31294W        W96279   8.360   0.702  12.881
31295W        W96280  20.310  38.084  13.380
31296W        W96281   5.496  44.670  11.938
31297W        W96282  13.760  43.326  12.567
31298W        W96283  42.490  38.368   1.862
31299W        W96284  15.240   9.844  12.709
31300W        W96285  37.586  18.756  13.034
31301W        W96286   9.654  41.602  11.395
31302W        W96287  44.766  21.236  13.927
31303W        W96288  17.370  11.716   4.566
31304W        W96289  11.739  21.815   2.345
31305W        W96290  29.946  32.163  12.938
31306W        W96291  42.270  23.173   1.424
31307W        W96292  30.905   9.786  10.471
31308W        W96293  14.027  39.051  12.786
31309W        W96294  41.421   4.397  13.308
31310W        W96295  32.332   3.313   1.616
31311W        W96296   8.241  31.987  11.549
31312W        W96297  23.692  15.741  11.732
31313W        W96298  21.316  39.502   4.516
31314W        W96299  23.277   5.742  10.662
31315W        W96300  24.353   4.665   2.132
31316W        W96301  24.953  39.501   0.478
31317W        W96302  27.615  22.690  14.859
31318W        W96303   2.010  24.752  12.099
31319W        W96304   1.205  12.424  12.845
31320W        W96305  38.304  16.303   0.538
31321W        W96306  40.468  31.653   0.983
31322W        W96307  12.079  44.316  11.109
31323W        W96308  24.429   1.528  13.760
31324W        W96309  41.588  14.767  10.646
31325W        W96310  36.149  38.059   1.376
31326W        W96311  11.118  41.160  12.134
31327W        W96312   3.871   8.956  14.882
31328W        W96313   3.692  41.246  14.382
31329W        W96314   1.353  39.331   4.801
31330W        W96315  37.003   5.389   3.789
31331W        W96316  31.351  36.329   4.726
31332W        W96317  34.783  37.568  13.462
31333W        W96318  18.517  33.761   0.189
31334W        W96319  23.703  18.778   3.506
31335W        W96320   0.771  19.500  11.013
31336W        W96321  36.517  23.355   4.197
31337W        W96322  12.039  41.260  10.495
31338W        W96323  44.483  39.136   2.737
31339W        W96324   5.929  42.972  11.146
31340W        W96325   5.243  43.113  13.946
31341W        W96326   3.223   1.237   2.677
31342W        W96327  12.117  40.548   4.158
31343W        W96328   4.171  34.893  11.111
31344W        W96329   2.147  42.638  13.439
31345W        W96330  38.980   1.091   0.565
31346W        W96331  23.807  40.846  12.512
31347W        W96332  12.108  18.147   2.238
31348W        W96333  14.087  19.227  10.716
31349W        W96334   9.119  37.773  13.995
31350W        W96335  20.722  44.401  11.524
31351W        W96336  17.031   7.400   3.602
31352W        W96337  17.098   5.358   1.943
31353W        W96338  18.562   5.992  13.027
31354W        W96339   8.759  35.349   4.174
31355W        W96340  25.220   3.328   1.146
31356W        W96341  32.202  31.424  11.559
31357W        W96342  17.085  11.782   3.192
31358W        W96343  39.863  30.969  13.262
31359W        W96344  37.881  31.073   2.621
31360W        W96345  23.095  12.271  11.819
31361W        W96346   3.814  19.189  14.327
31362W        W96347   9.406  21.642  12.772
31363W        W96348  39.518   9.625  13.521
31364W        W96349  24.588  31.623   2.593
31365W        W96350  23.611  13.381   1.728
31366W        W96351  25.980   8.165   2.746
31367W        W96352  15.255  10.022   2.095
31368W        W96353  16.298   2.820   2.735
31369W        W96354  14.761  25.091   2.822
31370W        W96355   0.375  10.125   4.602
31371W        W96356  22.080  16.004  13.459
31372W        W96357  35.134  19.600   0.851
31373W        W96358  25.986  19.977  13.427
31374W        W96359  39.086  38.571   1.296
31375W        W96360   2.121  25.504   2.376
31376W        W96361  24.639  43.636   1.309
31377W        W96362  36.520  36.542   3.110
31378W        W96363  25.025  30.306  12.414
31379W        W96364  22.734  39.365  11.138
31380W        W96365   2.690  36.489   3.143
31381W        W96366   2.346  11.726   1.897
31382W        W96367  17.602  17.143   3.432
31383W        W96368  24.504  20.347  14.381
31384W        W96369  12.322  18.586   3.762
31385W        W96370  40.826  13.174   3.479
31386W        W96371   2.864  44.004  14.898
31387W        W96372  28.468   5.303  10.835
31388W        W96373  34.867  11.167   2.048
31389W        W96374  24.488  12.426  10.799
31390W        W96375   9.202  17.733   1.328
31391W        W96376  11.184  28.259  14.143
31392W        W96377  22.709   1.848   2.051
31393W        W96378  34.349  14.330  10.735
31394W        W96379   2.324  33.413   0.083
31395W        W96380  21.838   1.686   5.193
31396W        W96381  19.639  17.318  13.073
31397W        W96382  27.167  22.695   0.709
31398W        W96383   2.825   0.432  11.559
31399W        W96384  36.868   4.649   4.497
31400W        W96385   7.814  44.450   3.890
31401W        W96386  34.927  37.049   4.479
31402W        W96387  23.814   1.000   3.163
31403W        W96388  10.287  17.482   0.548
31404W        W96389  44.210  14.898   2.781
31405W        W96390  31.830  16.679   1.326
31406W        W96391  23.170  38.346  11.543
31407W        W96392  24.780  41.396   3.764
31408W        W96393   3.352  22.144  13.901
31409W        W96394  32.763  26.998  13.872
31410W        W96395  15.621   6.801  12.739
31411W        W96396  41.504   3.886   0.353
31412W        W96397  30.459  37.164   3.753
31413W        W96398  19.302  24.016   2.799
31414W        W96399  37.503  22.749  11.221
31415W        W96400  26.182  32.610   4.956
31416W        W96401   5.391  26.086  11.765
31417W        W96402  32.562  36.503   3.197
31418W        W96403  13.841  19.123  12.959
31419W        W96404  41.979   9.686   4.741
31420W        W96405  24.515  34.293   4.034
31421W        W96406  23.560  22.168  11.900
31422W        W96407  21.258  12.425   0.994
31423W        W96408   2.006  30.605  12.096
31424W        W96409  23.118  28.062   4.865
31425W        W96410  21.268  27.392  11.625
31426W        W96411  22.219  15.662   4.130
31427W        W96412  14.768  28.741   2.023
31428W        W96413  38.028  13.396   1.833
31429W        W96414  32.922  24.671   4.390
31430W        W96415  25.068  38.803   4.443
31431W        W96416  32.152  25.572   1.974
31432W        W96417   4.403  30.828   2.478
31433W        W96418  27.344   9.158   3.320
31434W        W96419  30.117  29.161   1.833
31435W        W96420  29.179   5.017  10.220
31436W        W96421  16.875  40.518  12.000
31437W        W96422   7.808  26.724  12.036
31438W        W96423  35.569  44.959   2.752
31439W        W96424  19.548   5.670   1.281
31440W        W96425  17.148  12.877  13.565
31441W        W96426   8.167  26.973   2.714
31442W        W96427  31.031   0.881   4.652
31443W        W96428  40.678   6.117   4.119
31444W        W96429  10.478  33.567   4.501
31445W        W96430  35.493   3.879  14.088
31446W        W96431   4.175  32.091   3.154
31447W        W96432   4.473   4.758  13.535
31448W        W96433  40.467  13.781  13.436
31449W        W96434  40.372  20.243  13.861
31450W        W96435   4.480  24.743   0.379
31451W        W96436  27.238  35.036  14.992
31452W        W96437  26.057   6.706  11.061
31453W        W96438  27.042  17.850  12.984
31454W        W96439  42.971   4.566  14.963
31455W        W96440  14.419  14.607  14.302
31456W        W96441  16.521  21.498   0.998
31457W        W96442  18.844  10.683   4.627
31458W        W96443  22.947   8.673  11.968
31459W        W96444  33.709   6.950   4.003
31460W        W96445  41.795  36.439   3.153
31461W        W96446  35.490  26.488   0.361
31462W        W96447  30.444  29.779   3.231
31463W        W96448   6.191  10.592   4.102
31464W        W96449  33.681  28.801   1.266
31465W        W96450  31.099  26.972   4.300
31466W        W96451  15.433  23.116  14.032
31467W        W96452  21.060  41.316  11.309
31468W        W96453  37.603   0.232  13.310
31469W        W96454  44.333  35.399  14.122
31470W        W96455  13.351   3.021   0.734
31471W        W96456  27.449  42.074  11.416
31472W        W96457   2.705  15.239  14.560
31473W        W96458   6.172  21.514  11.792
31474W        W96459   3.735  43.845  10.743
31475W        W96460  30.676  32.603   1.940
31476W        W96461  41.980  12.883   2.807
31477W        W96462  24.160   4.139   0.796
31478W        W96463  27.450  27.461   0.248
31479W        W96464  31.434  40.360  13.989
31480W        W96465   9.876  28.635   3.284
31481W        W96466   2.477  22.285   4.064
31482W        W96467  44.422  19.529   3.682
31483W        W96468  32.101   5.857  11.124
31484W        W96469  19.751   0.828  11.242
31485W        W96470   5.473  15.530   4.799
31486W        W96471   5.056  18.667  12.890
31487W        W96472  42.287   5.847  10.776
31488W        W96473  44.352   5.876   0.313
31489W        W96474   1.087  44.630   2.670
31490W        W96475  21.279  33.311  10.017
31491W        W96476  29.434  41.412   3.309
31492W        W96477  13.701  18.178   4.163
31493W        W96478   0.490  42.534  11.220
31494W        W96479   8.422   8.363   1.302
31495W        W96480  13.385   7.427   3.760
31496W        W96481  33.402   0.274  14.534
31497W        W96482   6.719  26.507   2.660
31498W        W96483   7.216  40.268  11.117
31499W        W96484  38.482  21.524  12.407
31500W        W96485   2.350   4.430  12.470
31501W        W96486  18.122  32.633  11.528
31502W        W96487  27.178   8.722  12.401
31503W        W96488  13.790  11.644   1.470
31504W        W96489  28.010  32.975  12.371
31505W        W96490  42.825  21.415  13.383
31506W        W96491  36.001  26.554  11.706
31507W        W96492   5.416   2.218   4.543
31508W        W96493   7.741  23.527  11.577
31509W        W96494  11.421  40.987  14.963
31510W        W96495  18.315   7.394   3.078
31511W        W96496  16.542  24.158  14.894
31512W        W96497  17.830  32.535   3.214
31513W        W96498  17.071   8.186  14.468
31514W        W96499  16.346  32.532  12.954
31515W        W96500   2.787   8.135  14.456
31516W        W96501  19.016  43.929  10.755
31517W        W96502   2.499  36.119  12.471
31518W        W96503   4.823  14.771  10.527
31519W        W96504  16.845  27.722   0.286
31520W        W96505  28.100  39.088   1.150
31521W        W96506   1.776   0.902  12.875
31522W        W96507  38.570  30.104   2.594
31523W        W96508   7.688  16.022  12.053
31524W        W96509  14.514  14.580   2.266
31525W        W96510  33.351   3.420  11.567
31526W        W96511  15.705  39.774   0.582
31527W        W96512  29.418  37.363  13.017
31528W        W96513  16.430  23.344  13.866
31529W        W96514   3.335  17.316  12.284
31530W        W96515  15.624  40.235   0.354
31531W        W96516   8.159  10.453  11.976
31532W        W96517  20.192  30.476   4.116
31533W        W96518  42.551  44.136   1.557
31534W        W96519   4.834  42.570  13.421
31535W        W96520  14.306  19.154   0.910
31536W        W96521  42.556   5.840  13.242
31537W        W96522  37.055  12.659  12.925
31538W        W96523  25.217  22.024   0.402
31539W        W96524  24.752  19.226  13.394
31540W        W96525  15.301  39.373  13.394
31541W        W96526  44.663  11.937   2.305
31542W        W96527  34.790  42.980   2.267
31543W        W96528  13.706  11.592  12.065
31544W        W96529   6.214  17.235  14.466
31545W        W96530  39.573  34.563   0.047
31546W        W96531  32.946  21.270   0.902
31547W        W96532   3.532   9.771  12.192
31548W        W96533   3.474  39.598   1.170
31549W        W96534  16.240   4.231  10.091
31550W        W96535  43.367  32.905  14.787
31551W        W96536  23.117  20.744   0.470
31552W        W96537   5.046  34.396   2.862
31553W        W96538  28.540  43.798  13.868
31554W        W96539  34.056  43.212   1.232
31555W        W96540  38.805   4.199   4.503
31556W        W96541  23.587  44.232  10.773
31557W        W96542  34.535  31.618  13.489
31558W        W96543  40.303  33.725  12.500
31559W        W96544   6.313   2.337  10.468
31560W        W96545  44.949  15.899  12.417
31561W        W96546  34.486  11.227   3.635
31562W        W96547  30.654  18.804   1.630
31563W        W96548  21.295  35.858   4.320
31564W        W96549  10.581  27.683   0.997
31565W        W96550  38.576   9.072  14.359
31566W        W96551  16.498  36.631  14.860
31567W        W96552  26.134  19.213   2.006
31568W        W96553  31.470   4.946   0.506
31569W        W96554  17.377  25.231  11.656
31570W        W96555  20.116   4.225   4.963
31571W        W96556  18.319  30.715   2.718
31572W        W96557  19.587  13.302   2.228
31573W        W96558   5.244   6.901   4.856
31574W        W96559  13.329  26.998  11.517
31575W        W96560   6.423  33.147   0.124
31576W        W96561  40.086  26.806  10.790
31577W        W96562  29.634  40.596  10.821
31578W        W96563  25.115  11.053  11.595
31579W        W96564  43.615  40.328   2.900
31580W        W96565  21.669  30.463   3.110
31581W        W96566  25.767  11.747  12.893
31582W        W96567  13.332  34.903   2.044
31583W        W96568  37.612   2.737   0.754
31584W        W96569  24.123  13.579  13.828
31585W        W96570  26.105   2.505  14.896
31586W        W96571  20.979   9.662   1.152
31587W        W96572   0.653  24.701  11.201
31588W        W96573   4.563   0.190   1.511
31589W        W96574   5.337  15.625  11.941
31590W        W96575  21.976   0.305  13.032
31591W        W96576  38.765   2.454   0.388
31592W        W96577  33.479  39.015   1.710
31593W        W96578  19.095   6.288   4.063
31594W        W96579  29.261  11.909  14.331
31595W        W96580  44.807  10.922   1.313
31596W        W96581  21.370  28.572  12.951
31597W        W96582  25.912   0.436   2.653
31598W        W96583   5.300  25.284  14.804
31599W        W96584   8.590  26.585  13.709
31600W        W96585  37.253  40.916   2.425
31601W        W96586  34.434  41.786  13.367
31602W        W96587  30.064   7.115  12.858
31603W        W96588   9.623  39.772   0.881
31604W        W96589  41.448  25.181  11.838
31605W        W96590  24.773  14.275   4.438
31606W        W96591  32.787  31.116  11.093
31607W        W96592  35.603  41.313  13.116
31608W        W96593  29.804  34.706  14.232
31609W        W96594  27.495   3.848  14.299
31610W        W96595  17.128  23.126   2.339
31611W        W96596  12.818  39.451   0.436
31612W        W96597  28.112  22.622   3.225
31613W        W96598  17.104  17.670  11.592
31614W        W96599  25.434   0.335  12.467
31615W        W96600  36.492   4.944  10.854
31616W        W96601  13.795  42.800   0.621
31617W        W96602   5.873  32.163   4.249
31618W        W96603   8.372  36.902  11.464
31619W        W96604  23.521  34.559   4.118
31620W        W96605  33.530   8.284   1.756
31621W        W96606  33.794   7.281  11.190
31622W        W96607  22.096  34.148   3.224
31623W        W96608  13.164  20.156   2.209
31624W        W96609   8.913  43.331  14.781
31625W        W96610  31.999   0.300   2.422
31626W        W96611  24.712   5.642  14.400
31627W        W96612  24.494  34.406  11.409
31628W        W96613  32.980   2.527   2.308
31629W        W96614   6.305  14.889   2.395
31630W        W96615  43.091   4.868  14.546
31631W        W96616   2.649   9.757  13.933
31632W        W96617  34.408  38.794  12.551
31633W        W96618   3.377  29.445  11.161
31634W        W96619   2.404  37.765   0.201
31635W        W96620  19.726   9.357  13.831
31636W        W96621  28.542  19.353  14.475
31637W        W96622  22.876  29.470   3.720
31638W        W96623  37.294  33.875  13.594
31639W        W96624   8.132  33.447   4.601
31640W        W96625  11.330  42.806   0.374
31641W        W96626  38.454  21.763   4.479
31642W        W96627   7.117  42.924   3.475
31643W        W96628   7.574   5.253  12.770
31644W        W96629  10.744   1.017   2.170
31645W        W96630  32.077  33.357   3.124
31646W        W96631  40.731  26.262  10.506
31647W        W96632  14.915   3.190  10.323
31648W        W96633   3.925   4.939  12.457
31649W        W96634  30.268  14.821   4.210
31650W        W96635  10.413   9.230  13.078
31651W        W96636  42.895  16.933   0.650
31652W        W96637  27.475  43.073  11.154
31653W        W96638   3.761  38.563   3.200
31654W        W96639  16.190  17.603   4.225
31655W        W96640  20.102  17.819   1.707
31656W        W96641  44.860   8.449   4.668
31657W        W96642  15.117  37.932   1.626
31658W        W96643  13.952   3.040   4.995
31659W        W96644  18.298   4.764   2.677
31660W        W96645  14.110   3.199   1.531
31661W        W96646  30.204   7.401   4.503
31662W        W96647  28.175   5.148  11.667
31663W        W96648   8.473  25.670  13.573
31664W        W96649   1.148  31.731   0.275
31665W        W96650   7.633  32.607   4.727
31666W        W96651  21.040  15.762  10.513
31667W        W96652  34.042  25.592  13.316
31668W        W96653   0.501   1.836  12.577
31669W        W96654   2.880  22.265  14.768
31670W        W96655  22.239  26.976   0.326
31671W        W96656  18.004   8.375   0.965
31672W        W96657   8.292  24.693   2.216
31673W        W96658  39.264   7.420   0.584
31674W        W96659  18.036  19.295   0.387
31675W        W96660  30.033  12.153   5.124
31676W        W96661  31.651  16.856   0.848
31677W        W96662  19.789   2.917   0.613
31678W        W96663  24.451   8.590  12.850
31679W        W96664  39.280   5.432  14.868
31680W        W96665  33.022  42.787  11.396
31681W        W96666  44.441   8.791  11.001
31682W        W96667   2.593  42.405   1.868
31683W        W96668   7.785  12.142   4.930
31684W        W96669  34.826  44.854   2.950
31685W        W96670  32.570  40.095   2.877
31686W        W96671  30.052   3.930   2.224
31687W        W96672   3.639  15.027   2.642
31688W        W96673  10.525  43.930  10.713
31689W        W96674  23.181  20.365   9.630
31690W        W96675  41.334   6.122   3.535
31691W        W96676  16.637   5.531   3.526
31692W        W96677  26.481  19.559  14.797
31693W        W96678   3.925   8.112   2.284
31694W        W96679  14.844  26.144   1.217
31695W        W96680  27.594  42.813  10.740
31696W        W96681  29.895  31.073  11.516
31697W        W96682  27.448  35.119  14.519
31698W        W96683   8.231  24.992  11.612
31699W        W96684  13.174  36.452  11.661
31700W        W96685   1.448  29.877  14.763
31701W        W96686  28.994  24.803  11.444
31702W        W96687  41.936   2.311  11.654
31703W        W96688  27.513  16.958   0.914
31704W        W96689  23.275  11.857   2.290
31705W        W96690   8.791  20.719  12.132
31706W        W96691   8.822   2.593  13.527
31707W        W96692  27.530   9.248  14.569
31708W        W96693  40.852   9.584  14.377
31709W        W96694  19.259   7.908  12.140
31710W        W96695  41.060  24.691  13.149
31711W        W96696  12.245  10.847   1.861
31712W        W96697  42.973   1.135   0.206
31713W        W96698  35.035  25.888   1.750
31714W        W96699   7.899  31.935   3.595
31715W        W96700  11.886  22.340   3.711
31716W        W96701  11.028  40.127  11.168
31717W        W96702   8.028   1.898  11.411
31718W        W96703  28.101  25.814   4.922
31719W        W96704  31.318  34.066  14.537
31720W        W96705  40.342   2.775   0.315
31721W        W96706  27.907  43.241  12.453
31722W        W96707  23.209  28.543   3.050
31723W        W96708  13.224   8.927   2.829
31724W        W96709   0.868  25.234  12.320
31725W        W96710  25.469  33.601   1.702
31726W        W96711  18.181  15.525   4.973
31727W        W96712  19.503  21.080  12.939
31728W        W96713   1.480   0.131   4.649
31729W        W96714  29.742  24.911  12.493
31730W        W96715  41.487   7.229   3.115
31731W        W96716  30.992  28.161   2.303
31732W        W96717   7.136  31.122  13.391
31733W        W96718  38.436  17.711  10.598
31734W        W96719  12.844  38.927  10.721
31735W        W96720  22.601  26.260  11.585
31736W        W96721   9.438  18.419  10.273
31737W        W96722   4.354  26.611   3.596
31738W        W96723  26.772  31.720  12.566
31739W        W96724  14.901  16.656  12.477
31740W        W96725   1.652  40.711   2.690
31741W        W96726  19.779  31.106   0.899
31742W        W96727  11.280  35.213   0.272
31743W        W96728  27.328  24.423   4.378
31744W        W96729   2.458  13.101   3.240
31745W        W96730  36.983  18.171  11.938
31746W        W96731  24.023  24.805  11.656
31747W        W96732   3.502  31.813  10.975
31748W        W96733  43.133  34.124  10.831
31749W        W96734  44.749  25.543   3.539
31750W        W96735  28.583  11.716   3.238
31751W        W96736  39.990  15.761   0.840
31752W        W96737  19.267  24.329   1.843
31753W        W96738  43.766  15.760   3.335
31754W        W96739  23.251  16.068   0.827
31755W        W96740  38.146   9.464  11.108
31756W        W96741  28.735  39.545  12.364
31757W        W96742   7.629  37.097  10.533
31758W        W96743   7.748  23.515   2.788
31759W        W96744  31.276  40.355   4.167
31760W        W96745  33.006  31.193  11.600
31761W        W96746   3.644  19.132   2.387
31762W        W96747   8.947  39.601   2.236
31763W        W96748  26.200  29.203   2.624
31764W        W96749  36.612  42.282   3.735
31765W        W96750  10.445  15.596  13.191
31766W        W96751  19.178  26.666  10.985
31767W        W96752  37.147   3.950  13.452
31768W        W96753  38.774  30.536  12.359
31769W        W96754  24.964  23.304   4.152
31770W        W96755  23.611  31.370  12.680
31771W        W96756  11.738  37.431   3.167
31772W        W96757  36.808  33.101  11.195
31773W        W96758  13.416  25.495   3.653
31774W        W96759  39.381  20.180   0.878
31775W        W96760  33.229  16.298   2.578
31776W        W96761  32.336   3.229   1.063
31777W        W96762  41.410  33.159  11.926
31778W        W96763  14.528  14.812  13.843
31779W        W96764  37.514   5.207  14.308
31780W        W96765   2.428  14.152   3.226
31781W        W96766  14.273  13.268   3.332
31782W        W96767  11.454  39.593  12.003
31783W        W96768  31.236  31.690  10.564
31784W        W96769   6.596  12.178  13.981
31785W        W96770  41.779  29.820   1.328
31786W        W96771   7.894  10.286  11.114
31787W        W96772  15.218  41.233  12.571
31788W        W96773   7.065  40.508  12.084
31789W        W96774  20.328   2.533  12.651
31790W        W96775  27.940  10.703  13.581
31791W        W96776  13.640  14.068  12.483
31792W        W96777  40.994   1.060  11.135
31793W        W96778  19.941   7.786  11.510
31794W        W96779   2.679  35.872   4.594
31795W        W96780  36.066  36.913   2.332
31796W        W96781   5.227   8.549   2.942
31797W        W96782   8.713   7.736  11.770
31798W        W96783  15.255  44.649  13.851
31799W        W96784  25.912   7.184  12.953
31800W        W96785  14.753  23.178   4.636
31801W        W96786  37.273  33.798   0.676
31802W        W96787   5.622  10.818  10.761
31803W        W96788  21.036  17.226  13.341
31804W        W96789  43.996  29.584   3.218
31805W        W96790  38.045  40.051  14.365
31806W        W96791  27.108  40.418  12.048
31807W        W96792  20.510  24.013   3.622
31808W        W96793   3.784  42.571  11.967
31809W        W96794   3.891  23.545  13.360
31810W        W96795  42.511  10.728   0.870
31811W        W96796  42.930   3.574   0.889
31812W        W96797   0.418  13.507   4.681
31813W        W96798  37.419  21.460  12.388
31814W        W96799  11.933  16.457  12.478
31815W        W96800  28.687  30.547  14.305
31816W        W96801  25.188  15.248   4.556
31817W        W96802  20.176  15.749   1.827
31818W        W96803  44.909  30.429   0.456
31819W        W96804  40.095   3.711   1.270
31820W        W96805  38.014  28.028  14.903
31821W        W96806  40.912  38.994  10.613
31822W        W96807   4.852  23.265   4.037
31823W        W96808   5.814  23.554   2.875
31824W        W96809   6.960   4.379  11.265
31825W        W96810  43.249  31.570   2.290
31826W        W96811  26.914   0.915  13.835
31827W        W96812   7.933  22.784   9.806
31828W        W96813  42.481  40.916   1.201
31829W        W96814  37.441   9.775  12.695
31830W        W96815  23.110   3.923   3.105
31831W        W96816  10.258  34.873   0.931
31832W        W96817   3.572  15.831   1.789
31833W        W96818  20.423  17.471   4.973
31834W        W96819  36.936  32.429  11.626
31835W        W96820  40.626   9.294   1.637
31836W        W96821  36.210  24.459   2.849
31837W        W96822  21.090  18.140  11.917
31838W        W96823  32.632  11.695   3.327
31839W        W96824   9.616  40.985   3.507
31840W        W96825   9.292  32.354   1.546
31841W        W96826  31.216   7.077  13.011
31842W        W96827  29.812  12.692   3.299
31843W        W96828  34.347  27.558  14.888
31844W        W96829  16.259  32.443   3.274
31845W        W96830  13.302   8.103  14.698
31846W        W96831  14.316  12.331   3.456
31847W        W96832  29.717  37.025  14.254
31848W        W96833  40.550   1.761  12.107
31849W        W96834  38.293  28.456  14.903
31850W        W96835  12.618  33.053   1.875
31851W        W96836  44.056  11.312   1.723
31852W        W96837  39.159  18.646  14.913
31853W        W96838   4.484   5.750  12.592
31854W        W96839   9.608  27.122   0.066
31855W        W96840  28.748  44.436   0.187
31856W        W96841  40.907  35.585   1.661
31857W        W96842   8.273  42.859   0.380
31858W        W96843  36.895   8.131  10.689
31859W        W96844   7.157   0.318   0.031
31860W        W96845  36.329  17.583  14.493
31861W        W96846  16.619   9.208   4.732
31862W        W96847   8.539   8.580   3.708
31863W        W96848   5.748   0.830  14.317
31864W        W96849  39.859   1.476   2.670
31865W        W96850  26.456  28.035   0.845
31866W        W96851  33.715  15.318   3.844
31867W        W96852  26.682   7.170   0.410
31868W        W96853  16.117   4.704  10.253
31869W        W96854   3.524  38.003  13.863
31870W        W96855  38.120   7.890  12.021
31871W        W96856  38.372   6.006  13.086
31872W        W96857  38.850  12.924   2.320
31873W        W96858   5.396  35.724   3.179
31874W        W96859  25.417  40.934   4.477
31875W        W96860  40.773   8.671  10.724
31876W        W96861  36.416  36.013  11.095
31877W        W96862  25.250  22.027  12.676
31878W        W96863   2.313  30.839   0.698
31879W        W96864  38.863  21.429   2.181
31880W        W96865   5.598  30.732  13.806
31881W        W96866  16.286   3.265  13.479
31882W        W96867  39.327  43.333  11.651
31883W        W96868  22.777  44.427  11.055
31884W        W96869  13.205  25.174  14.294
31885W        W96870  23.788  14.265  11.107
31886W        W96871  29.203  41.374  12.444
31887W        W96872  22.796  25.006  13.009
31888W        W96873   7.958   9.643  12.212
31889W        W96874  41.900  44.021   2.353
31890W        W96875   2.370  39.849   4.101
31891W        W96876  41.844  11.577   3.671
31892W        W96877  41.042  40.426   4.593
31893W        W96878  28.616  20.555   4.479
31894W        W96879   7.564  17.745  10.891
31895W        W96880  22.188   8.028  10.698
31896W        W96881  33.880  25.059   1.438
31897W        W96882  13.989  27.347   1.409
31898W        W96883  18.986  44.016   0.955
31899W        W96884   6.524   7.419   3.626
31900W        W96885  20.709  17.222  11.283
31901W        W96886   5.213  40.511  11.461
31902W        W96887  16.451   4.554   5.018
31903W        W96888  41.827  15.201  11.627
31904W        W96889  28.866  12.285  14.190
31905W        W96890  41.449  15.173  13.009
31906W        W96891  38.451  44.799   0.285
31907W        W96892  27.122   5.833  13.542
31908W        W96893  32.255  12.163   1.436
31909W        W96894  18.070  38.424   4.304
31910W        W96895  31.799  27.810   3.263
31911W        W96896  35.938  41.542   3.832
31912W        W96897  37.570  28.203  12.234
31913W        W96898  26.101  23.215   2.994
31914W        W96899  35.865   2.952   3.225
31915W        W96900  13.049  24.710   1.219
31916W        W96901  35.871  36.152   4.047
31917W        W96902  19.297   1.358   2.711
31918W        W96903  33.105  44.281  13.972
31919W        W96904  41.332   3.918  11.734
31920W        W96905   9.644  37.417   4.724
31921W        W96906   5.785  38.891  11.065
31922W        W96907  26.820  23.042  10.473
31923W        W96908  14.039  22.499  12.118
31924W        W96909  12.857  17.723  14.866
31925W        W96910  44.379   8.294  10.891
31926W        W96911  30.462  44.363  12.223
31927W        W96912  12.857  23.896   3.276
31928W        W96913  15.272  36.085   2.848
31929W        W96914  15.837  16.606  11.102
31930W        W96915  29.480  15.626  11.196
31931W        W96916  19.136  10.955  12.505
31932W        W96917  20.802  39.599   4.600
31933W        W96918  25.086  38.036   2.623
31934W        W96919  11.885  13.757   1.377
31935W        W96920  42.049  14.337   2.720
31936W        W96921  40.457  24.271   0.939
31937W        W96922   6.830  29.537  10.583
31938W        W96923  14.680  35.051   2.209
31939W        W96924  20.223  40.983   4.917
31940W        W96925  42.071  21.588  10.958
31941W        W96926  19.838  24.004  10.635
31942W        W96927  25.474  14.153  14.830
31943W        W96928  41.292  32.241   2.839
31944W        W96929   5.830  17.977   1.375
31945W        W96930  19.030  18.629   3.248
31946W        W96931  13.240  13.417   0.267
31947W        W96932  18.164   5.697  12.944
31948W        W96933  32.356  18.833   4.230
31949W        W96934  16.161  36.272   2.715
31950W        W96935  27.970  17.442  13.342
31951W        W96936  27.522  20.804   0.878
31952W        W96937  20.848  27.956  14.985
31953W        W96938   1.858  19.564   0.858
31954W        W96939  35.403   6.291   2.944
31955W        W96940  40.027  29.677   4.230
31956W        W96941  38.693  26.220   2.709
31957W        W96942  42.510  23.547  13.473
31958W        W96943  30.132  10.756   4.326
31959W        W96944  22.180  29.121   0.256
31960W        W96945  18.569  43.272  12.142
31961W        W96946  33.442   3.121   4.567
31962W        W96947  24.502  42.113   2.189
31963W        W96948  24.204  17.786  13.349
31964W        W96949   0.389   8.598   0.901
31965W        W96950  12.079  31.348  12.082
31966W        W96951  27.406  42.050   0.356
31967W        W96952  19.547  42.755   4.585
31968W        W96953  21.679  16.481  10.751
31969W        W96954  37.543  40.247  14.545
31970W        W96955   0.572  28.177   1.805
31971W        W96956  38.090  30.102  13.652
31972W        W96957  11.240  32.521  11.184
31973W        W96958  35.424  37.743  12.389
31974W        W96959   1.918  32.240  12.228
31975W        W96960  30.212  21.233   0.030
31976W        W96961  37.482  11.627   2.326
31977W        W96962  33.413   2.839  12.312
31978W        W96963  43.938  37.065   3.728
31979W        W96964   2.293  35.041   0.848
31980W        W96965  35.525  36.048  13.535
31981W        W96966  13.281  22.153   3.906
31982W        W96967  44.813   6.338   1.184
31983W        W96968  27.029  29.136   2.360
31984W        W96969  12.402   3.147  11.551
31985W        W96970  22.783  21.732  11.628
31986W        W96971  37.981   4.749  10.604
31987W        W96972  32.682   2.384   1.903
31988W        W96973  17.575  34.615  11.994
31989W        W96974   3.347  33.241   0.904
31990W        W96975  26.242  12.096  13.891
31991W        W96976  28.006  31.318   1.798
31992W        W96977  20.168   8.145  11.173
31993W        W96978  21.747   9.880  14.852
31994W        W96979   2.335  43.391  14.741
31995W        W96980   9.171   5.388   2.879
31996W        W96981  33.911   7.312   2.696
31997W        W96982  22.658  44.965   2.518
31998W        W96983  44.545  40.568   3.238
31999W        W96984  21.258   3.696  12.859
32000W        W96985  33.364  25.645  11.968
32001W        W96986  41.336  17.260  13.774
32002W        W96987  22.754  13.080   0.332
32003W        W96988  26.095  24.339   2.340
32004W        W96989   6.859  32.555  13.974
32005W        W96990  18.175  31.674  12.565
32006W        W96991  18.549   7.564   1.372
32007W        W96992  26.254   1.815   3.390
32008W        W96993  38.953  15.497   1.317
32009W        W96994   2.180  25.066  14.269
32010W        W96995  41.322  39.501   0.421
32011W        W96996  18.201  12.568   2.836
32012W        W96997  21.111  18.370   0.333
32013W        W96998  26.388  28.600  10.167
32014W        W96999  19.762   1.895   3.231
32015W        W97000   4.756  12.397   2.698
32016W        W97001  36.005  25.120  14.516
32017W        W97002   4.113   9.331  11.573
32018W        W97003  36.119  30.124  13.423
32019W        W97004  25.048  18.376   5.097
32020W        W97005  11.571  44.682  13.582
32021W        W97006  16.617  30.183  10.184
32022W        W97007   3.006  32.923  14.215
32023W        W97008  32.460   7.946  12.920
32024W        W97009  13.094   3.922   3.978
32025W        W97010   6.820   8.211  11.566
32026W        W97011  24.977   3.725   1.451
32027W        W97012  33.341  10.698   0.442
32028W        W97013   6.573  31.803  14.778
32029W        W97014  40.690  26.394   4.888
32030W        W97015  44.859   8.120  10.763
32031W        W97016  25.516  35.821   2.693
32032W        W97017  27.570  12.789   1.871
32033W        W97018  30.158  17.698   2.919
32034W        W97019  34.532  37.928   3.622
32035W        W97020  11.656  41.794  12.456
32036W        W97021  37.837  37.864   9.997
32037W        W97022  39.701   2.290   0.320
32038W        W97023  39.919  10.329  14.837
32039W        W97024  32.534  32.911  10.948
32040W        W97025  35.994  34.047   2.126
32041W        W97026   8.718  40.830  13.623
32042W        W97027  30.090  34.179   0.443
32043W        W97028  20.623  38.861   4.660
32044W        W97029  17.867   8.715   1.827
32045W        W97030  15.282  33.871   3.435
32046W        W97031  29.666  37.457   4.634
32047W        W97032  30.528   6.448  13.059
32048W        W97033  23.531  18.110   2.344
32049W        W97034  18.173  18.045  14.798
32050W        W97035  16.008   3.296  13.021
32051W        W97036  18.169  31.792  12.075
32052W        W97037  42.911  17.240   1.104
32053W        W97038  39.107  20.102  11.602
32054W        W97039   3.563  40.957   2.745
32055W        W97040  21.541  31.878   0.321
32056W        W97041  29.073  18.739   4.612
32057W        W97042  29.543  10.348  12.327
32058W        W97043  39.126   2.428  10.799
32059W        W97044  29.162  33.469   4.037
32060W        W97045  39.088  28.022  14.867
32061W        W97046  36.030  14.161  14.364
32062W        W97047  15.327  12.638   1.167
32063W        W97048  23.534  11.727   0.252
32064W        W97049  19.993  10.790   4.120
32065W        W97050  18.890   5.050  11.165
32066W        W97051  12.834  21.758   4.421
32067W        W97052  44.717  14.643   3.986
32068W        W97053   2.914  16.465   0.828
32069W        W97054  17.261  19.983   2.224
32070W        W97055  13.907   9.730  13.938
32071W        W97056  39.954  28.413   2.641
32072W        W97057  31.712   5.438   3.148
32073W        W97058  18.359  39.820   4.053
32074W        W97059  25.411   7.319   4.600
32075W        W97060  26.402   2.982   1.465
32076W        W97061  32.445  38.434   3.091
32077W        W97062  40.465  27.696   4.501
32078W        W97063   4.790  14.731  14.934
32079W        W97064  38.591  14.880  13.588
32080W        W97065  31.892  41.384  12.969
32081W        W97066  42.789  39.731   3.183
32082W        W97067   2.707  11.574  13.972
32083W        W97068   2.731  20.225   4.848
32084W        W97069  12.613  22.956  14.299
32085W        W97070  37.439  30.536  11.940
32086W        W97071  42.823   9.997   4.856
32087W        W97072  25.037   9.631  12.075
32088W        W97073  40.469  27.490  13.169
32089W        W97074  28.162  31.433   3.709
32090W        W97075   0.405  25.112   0.998
32091W        W97076  24.655   8.384   4.619
32092W        W97077   5.301  41.534   4.568
32093W        W97078  16.326  19.726  11.509
32094W        W97079  13.592  20.724  14.246
32095W        W97080  16.902  26.038   0.297
32096W        W97081  28.490  15.045   0.354
32097W        W97082  21.576  24.717  11.927
32098W        W97083  32.838  17.317   4.417
32099W        W97084  39.822  30.900   2.821
32100W        W97085  24.876  29.882  13.277
32101W        W97086  19.972  24.839  10.282
32102W        W97087   6.668  15.911   4.369
32103W        W97088  22.248   8.729   3.651
32104W        W97089  27.505   3.373   5.068
32105W        W97090  28.157   0.275  13.016
32106W        W97091  43.727  38.427   4.221
32107W        W97092  36.545  31.969   2.445
32108W        W97093   3.436  10.250   3.801
32109W        W97094   1.365  44.792  11.724
32110W        W97095  31.379   2.706   2.961
32111W        W97096  14.584  35.645   1.315
32112W        W97097  14.710  35.461   1.798
32113W        W97098  34.332  39.285  12.643
32114W        W97099  41.025   8.739  11.174
32115W        W97100  30.840  28.089  13.065
32116W        W97101  29.499  38.345  13.888
32117W        W97102  33.531  24.256  14.315
32118W        W97103  14.823  29.733   4.031
32119W        W97104   3.194   7.692   1.287
32120W        W97105  24.103  40.802   2.381
32121W        W97106  43.733   4.705  13.393
32122W        W97107  28.949  13.392   1.883
32123W        W97108  10.454   3.458  12.493
32124W        W97109  25.212   9.752  13.465
32125W        W97110  13.509  39.794  12.647
32126W        W97111  17.079  44.808   1.534
32127W        W97112   9.257   6.699  11.999
32128W        W97113  31.413   1.215   4.643
32129W        W97114  21.200  24.909   2.168
32130W        W97115  41.279  39.823  13.687
32131W        W97116   2.755   9.917  14.837
32132W        W97117   5.765   8.238   3.564
32133W        W97118  38.448  20.259  11.965
32134W        W97119   5.873   5.132  13.786
32135W        W97120   0.902  14.184   4.937
32136W        W97121  33.004   0.208  14.150
32137W        W97122  20.396   5.355   2.253
32138W        W97123  39.728   2.742  11.290
32139W        W97124   2.328  27.888  14.402
32140W        W97125   3.608  17.731  13.002
32141W        W97126  17.004  25.978   1.324
32142W        W97127  43.379  12.812  11.287
32143W        W97128   8.111  43.436   1.832
32144W        W97129  11.095   9.328   0.754
32145W        W97130  26.024  11.123  13.905
32146W        W97131  22.621  12.334  13.072
32147W        W97132  32.380  32.113   4.415
32148W        W97133  20.429  34.815   0.144
32149W        W97134  31.698  37.257  14.367
32150W        W97135   2.126  40.982  14.821
32151W        W97136  14.107   7.894  12.528
32152W        W97137  24.295  28.969   1.371
32153W        W97138  20.573  44.375   2.187
32154W        W97139  10.841  42.353   0.787
32155W        W97140  11.116   0.475  13.888
32156W        W97141  21.191  10.741   3.157
32157W        W97142  15.666  29.381  11.896
32158W        W97143  15.020  16.629  11.547
32159W        W97144   0.074  44.276  10.167
32160W        W97145  42.115  27.990  14.700
32161W        W97146  34.933   7.555  13.100
32162W        W97147  29.174  21.733  11.766
32163W        W97148  40.676   8.027  12.765
32164W        W97149  11.032  44.998   0.688
32165W        W97150   0.928   5.850   1.448
32166W        W97151  11.360  23.401  12.148
32167W        W97152  24.428   3.386   0.714
32168W        W97153  13.038   6.711  11.251
32169W        W97154   9.495  39.387   4.068
32170W        W97155  30.584   2.836  11.939
32171W        W97156  44.612  27.583  10.980
32172W        W97157  42.296  43.785   0.281
32173W        W97158  22.701  30.345   0.406
32174W        W97159   3.792  40.353   1.825
32175W        W97160  36.847   7.171   3.558
32176W        W97161  31.851   4.856  12.756
32177W        W97162  33.003   4.746   2.340
32178W        W97163  34.705  26.489  10.731
32179W        W97164  40.971  36.978   0.935
32180W        W97165  20.306  15.870   4.700
32181W        W97166  11.221  22.400  11.936
32182W        W97167   8.646  43.399  11.493
32183W        W97168  18.864   7.779  14.436
32184W        W97169   6.124  16.517  13.063
32185W        W97170  13.463  19.701   0.495
32186W        W97171  43.349  24.713  11.370
32187W        W97172   4.500   8.169   0.728
32188W        W97173  20.570   4.210  13.369
32189W        W97174  17.815  25.109  12.580
32190W        W97175  24.055  31.019  13.506
32191W        W97176  30.605   5.998   1.459
32192W        W97177   8.651  29.097   0.270
32193W        W97178   2.224  39.695   2.290
32194W        W97179  18.076  24.981   1.362
32195W        W97180  44.052  32.770   2.670
32196W        W97181   5.844  36.487   4.753
32197W        W97182  39.800  19.403   1.200
32198W        W97183  23.818  24.736  11.198
32199W        W97184  41.013   3.568  12.907
32200W        W97185  16.043  28.479   3.686
32201W        W97186  12.128  35.796  14.723
32202W        W97187  25.187  29.589   2.792
32203W        W97188  33.783   5.857   1.160
32204W        W97189  12.082  25.520   4.262
32205W        W97190  15.096  10.719  12.137
32206W        W97191  20.008  30.355  12.947
32207W        W97192  39.436   9.062  10.813
32208W        W97193  44.262  21.748   1.476
32209W        W97194  13.587  33.492   2.731
32210W        W97195   0.806  25.661   2.790
32211W        W97196  27.251  32.429   0.840
32212W        W97197  33.363  43.394   0.517
32213W        W97198   0.440  13.107   3.865
32214W        W97199  15.141   5.662   1.614
32215W        W97200  25.934  15.511  11.097
32216W        W97201   6.890  30.373  11.636
32217W        W97202  31.144  12.133  12.403
32218W        W97203   7.628  29.418   3.643
32219W        W97204  35.558  19.095   2.639
32220W        W97205   7.780  36.815  13.018
32221W        W97206  43.963  44.790   0.549
32222W        W97207   4.213  36.098  13.439
32223W        W97208  12.937  15.078  10.685
32224W        W97209  40.471  31.054   1.787
32225W        W97210   2.998  31.942  10.887
32226W        W97211  37.090  13.794   1.246
32227W        W97212   1.969  37.118   3.911
32228W        W97213  18.325  17.171  13.296
32229W        W97214  24.970  17.236  10.529
32230W        W97215  34.846  27.091   2.230
32231W        W97216  40.951  29.377  12.741
32232W        W97217   7.261  32.778  12.618
32233W        W97218  39.646  26.525   0.363
32234W        W97219  28.549  34.165   2.334
32235W        W97220  13.907  35.405  14.771
32236W        W97221  11.883  16.630  11.624
32237W        W97222  11.944   2.959  11.703
32238W        W97223  25.030  42.395   4.676
32239W        W97224  14.180   0.230   2.256
32240W        W97225  10.424  35.215  13.917
32241W        W97226  27.678  14.178  14.382
32242W        W97227  32.213  19.671   5.183
32243W        W97228   4.941  18.185   0.586
32244W        W97229  29.399  16.619   1.259
32245W        W97230  20.097  44.464   3.098
32246W        W97231  20.579  25.391   1.903
32247W        W97232  26.965   1.839   2.158
32248W        W97233  15.775  11.604   4.103
32249W        W97234  17.692   5.513  12.303
32250W        W97235  31.436  25.434   3.170
32251W        W97236   8.876  21.158   2.338
32252W        W97237   0.292  38.077   0.748
32253W        W97238  38.643  24.645   0.696
32254W        W97239  39.812  11.137  14.483
32255W        W97240   7.921  42.843   3.909
32256W        W97241  10.711   3.962   4.370
32257W        W97242  31.134  27.698  14.857
32258W        W97243   9.371  32.062  14.766
32259W        W97244  31.665  29.468  11.147
32260W        W97245  32.515  38.084  11.515
32261W        W97246  42.213  40.489  14.424
32262W        W97247  22.036  14.113   4.604
32263W        W97248   9.933  36.464  11.453
32264W        W97249  35.427  19.798   4.795
32265W        W97250  10.742  30.435   0.507
32266W        W97251  17.579  24.469  13.229
32267W        W97252  27.939  28.180  13.453
32268W        W97253   7.240  41.784   0.343
32269W        W97254  29.858  16.179  12.128
32270W        W97255  19.086   0.328   1.884
32271W        W97256   3.474  41.337   4.101
32272W        W97257  21.789  11.216  11.608
32273W        W97258   1.318  37.394   2.892
32274W        W97259  16.154  19.055   4.806
32275W        W97260  43.521  29.863   1.931
32276W        W97261  39.486  40.369   2.712
32277W        W97262  39.359  24.495   5.009
32278W        W97263  13.782  28.698  12.459
32279W        W97264  21.475  36.950   2.879
32280W        W97265  16.799   1.806   4.070
32281W        W97266  23.460  20.519  14.871
32282W        W97267  29.624  28.665   2.251
32283W        W97268  26.801  28.482   1.051
32284W        W97269  37.723  18.775   3.664
32285W        W97270  26.700  36.150   2.052
32286W        W97271   9.151  16.762  10.732
32287W        W97272   4.284  40.480  13.562
32288W        W97273   3.017  15.443   0.777
32289W        W97274   9.087  31.939  10.655
32290W        W97275  41.501  12.389   1.870
32291W        W97276  17.114   1.224  12.051
32292W        W97277  32.944  38.511   3.181
32293W        W97278   7.507  33.493  14.506
32294W        W97279  44.926   2.557   3.790
32295W        W97280  11.932  26.144   3.737
32296W        W97281  41.720  19.518  12.555
32297W        W97282  24.023  18.126  10.653
32298W        W97283   7.895  28.999  12.400
32299W        W97284  17.052  32.873  11.512
32300W        W97285   3.526   3.988  11.214
32301W        W97286   8.148  41.996  12.414
32302W        W97287   1.815  32.653  10.933
32303W        W97288  44.310   4.211  14.457
32304W        W97289   0.042  36.914  11.439
32305W        W97290  10.735  27.003   0.325
32306W        W97291  14.184  25.422   0.304
32307W        W97292  40.975   5.078   2.705
32308W        W97293  28.799  43.460  12.089
32309W        W97294  33.571   9.735   1.468
32310W        W97295  32.429  17.083   3.306
32311W        W97296  41.953  18.542   1.974
32312W        W97297  13.082  22.123   1.028
32313W        W97298  14.361  12.384  13.017
32314W        W97299  44.401  43.851   4.626
32315W        W97300  40.252  12.599  14.119
32316W        W97301  28.127  22.169   0.577
32317W        W97302  34.669  10.040  13.008
32318W        W97303   8.987  16.044  14.702
32319W        W97304  31.281  13.093   2.676
32320W        W97305  34.684  40.967  13.915
32321W        W97306  41.119  40.019  12.549
32322W        W97307  36.116  25.593  13.797
32323W        W97308   8.403  29.541   4.293
32324W        W97309  28.156   8.717  14.033
32325W        W97310  42.929   2.694  14.135
32326W        W97311   9.382  29.387  13.108
32327W        W97312  39.993   3.781  12.765
32328W        W97313  35.452   5.400   2.124
32329W        W97314  12.688  13.235  14.560
32330W        W97315   9.786  34.520   2.595
32331W        W97316  40.428  28.464   1.865
32332W        W97317  44.174  29.041   1.780
32333W        W97318  26.251  30.537  12.771
32334W        W97319   5.987  44.413   1.322
32335W        W97320  26.704   4.869   1.712
32336W        W97321   7.958  43.862   1.344
32337W        W97322  18.785  13.078   4.355
32338W        W97323  37.777  33.175   2.873
32339W        W97324  28.036   0.954   0.766
32340W        W97325  41.074  14.064   4.688
32341W        W97326  20.671  39.045  13.494
32342W        W97327  29.934  34.972  11.560
32343W        W97328  10.464   1.942   2.155
32344W        W97329  21.332  20.128  11.572
32345W        W97330  19.986   0.365  12.394
32346W        W97331  43.360  35.881   2.411
32347W        W97332  39.564  33.031   0.740
32348W        W97333  23.433  12.208   1.011
32349W        W97334  10.865  20.698   0.321
32350W        W97335   9.722  10.321   2.717
32351W        W97336  33.978  10.180  14.441
32352W        W97337  22.759  27.529  12.904
32353W        W97338  23.480  17.887  14.031
32354W        W97339  24.413  26.540  12.489
32355W        W97340   3.240   9.881  12.617
32356W        W97341   1.481  19.541   3.828
32357W        W97342  39.418  16.817   1.826
32358W        W97343   5.277  42.461   2.997
32359W        W97344   4.124  13.290  14.084
32360W        W97345  37.089  15.652   4.150
32361W        W97346  41.462  15.680  12.746
32362W        W97347   9.293  20.241  10.860
32363W        W97348  34.363  40.266   0.804
32364W        W97349   9.430  36.669  13.586
32365W        W97350  13.998  12.962  12.041
32366W        W97351  20.200  32.572   0.827
32367W        W97352   0.399  25.477   1.381
32368W        W97353  42.711  38.942  14.864
32369W        W97354  23.474  29.573   4.352
32370W        W97355  35.415   4.555   2.431
32371W        W97356  26.613  38.864   1.003
32372W        W97357  44.403  13.140   2.929
32373W        W97358  19.089  36.020   2.162
32374W        W97359  29.024  25.708   1.769
32375W        W97360  27.080  37.939  12.976
32376W        W97361  41.338  15.681   4.098
32377W        W97362  13.530  28.980  13.621
32378W        W97363   6.558  39.864  12.451
32379W        W97364   5.776  32.635   4.061
32380W        W97365   4.733  14.319   5.189
32381W        W97366   8.942  27.472   4.114
32382W        W97367  39.419  43.501   2.335
32383W        W97368  36.842   4.161   0.219
32384W        W97369  19.223   8.688   0.854
32385W        W97370   1.228  30.967   2.820
32386W        W97371  36.984   8.616  12.966
32387W        W97372  40.611  28.988   1.292
32388W        W97373  18.007  23.367   4.138
32389W        W97374  39.858  17.186  14.747
32390W        W97375  30.751  18.623   0.225
32391W        W97376  16.435   6.508  11.667
32392W        W97377  16.136  30.883   1.074
32393W        W97378  16.166   8.045   1.817
32394W        W97379   2.575  27.090   4.769
32395W        W97380  21.660  28.563  13.382
32396W        W97381  25.833   4.011   2.607
32397W        W97382  20.423  27.637  11.106
32398W        W97383  19.151  14.691  11.745
32399W        W97384  44.543  11.586  11.645
32400W        W97385  12.747  17.136  10.808
32401W        W97386  10.313  39.181   3.487
32402W        W97387  15.669  13.163  12.469
32403W        W97388  23.523   4.251  12.545
32404W        W97389   9.305  29.751  10.654
32405W        W97390   8.886  23.947   3.114
32406W        W97391  17.221  43.416  10.282
32407W        W97392  28.143  26.890  12.797
32408W        W97393   6.471  24.605  11.693
32409W        W97394   9.861  34.941  11.235
32410W        W97395  11.736  10.939   4.882
32411W        W97396  38.313  29.424   0.219
32412W        W97397  20.544  19.292  13.869
32413W        W97398  16.226   1.276   2.163
32414W        W97399  15.580  17.026  13.119
32415W        W97400  43.234  25.860  13.966
32416W        W97401  19.074  24.542  14.038
32417W        W97402  36.294  33.385   3.716
32418W        W97403   8.489  19.193   1.491
32419W        W97404   5.834  26.471   4.355
32420W        W97405  30.087  11.585  13.835
32421W        W97406  31.144  41.549   0.889
32422W        W97407  32.990   3.026   0.481
32423W        W97408  37.117   6.638   0.882
32424W        W97409  25.994  18.083  11.484
32425W        W97410  33.446  13.558  13.914
32426W        W97411  41.039  38.008   4.290
32427W        W97412  42.007  19.752  12.122
32428W        W97413   8.184  31.674   1.883
32429W        W97414  18.159  40.355  10.511
32430W        W97415  25.421  36.332  10.531
32431W        W97416  38.151   8.955   1.360
32432W        W97417  15.695  37.035  10.642
32433W        W97418   2.268   9.784  13.304
32434W        W97419  26.026  31.666   0.042
32435W        W97420  19.953  13.337   3.555
32436W        W97421  20.108  42.548   0.783
32437W        W97422  37.369  27.974  10.740
32438W        W97423   9.382   4.901   0.942
32439W        W97424   7.357  10.422   0.893
32440W        W97425  39.898  28.351   3.620
32441W        W97426   0.462  38.701  14.367
32442W        W97427  27.040  25.274   5.134
32443W        W97428  25.574  35.639   1.855
32444W        W97429   3.761  20.661   0.782
32445W        W97430   3.364   1.199  12.545
32446W        W97431  12.902  31.141  10.214
32447W        W97432   3.831  22.098  14.824
32448W        W97433  28.744  35.916  13.874
32449W        W97434  39.948  31.016   1.764
32450W        W97435  25.884  22.588  12.488
32451W        W97436   4.936  23.988   1.470
32452W        W97437  37.659  36.420  14.900
32453W        W97438  22.044  24.500   4.528
32454W        W97439  14.332  24.410   3.859
32455W        W97440  16.093  31.088  12.963
32456W        W97441   3.258  39.127  14.953
32457W        W97442  32.147  35.070   0.725
32458W        W97443   8.304  25.622  10.884
32459W        W97444  12.274  11.831  13.854
32460W        W97445  18.922  11.165  14.436
32461W        W97446  14.065  28.194  14.119
32462W        W97447  38.266  32.938   1.446
32463W        W97448  29.575  21.238   2.209
32464W        W97449  36.839  30.200   4.105
32465W        W97450  31.871  44.854   2.682
32466W        W97451  17.334  44.548   0.774
32467W        W97452  22.179   2.556  14.485
32468W        W97453  22.164  44.663  14.979
32469W        W97454  31.506  41.555  14.561
32470W        W97455  24.889  26.816   0.314
32471W        W97456   0.497  44.376   4.166
32472W        W97457  11.385   4.288  12.235
32473W        W97458  16.709   3.405   3.201
32474W        W97459  36.081   4.360  13.945
32475W        W97460   9.090  18.710   1.818
32476W        W97461  10.313   6.640   4.166
32477W        W97462  38.093  17.116   1.887
32478W        W97463   6.437  15.154   1.767
32479W        W97464   6.683  32.683   2.121
32480W        W97465  39.547   4.021  14.955
32481W        W97466   6.949  13.546   1.364
32482W        W97467  24.749  42.351  11.143
32483W        W97468   2.299  32.021   0.928
32484W        W97469   6.096   7.205  13.066
32485W        W97470  28.085  20.801   3.422
32486W        W97471  11.459   4.364  11.721
32487W        W97472  25.645  26.672  12.912
32488W        W97473  31.314  29.968   3.230
32489W        W97474   5.426  27.689  13.583
32490W        W97475  43.266  11.592  13.034
32491W        W97476   5.329  25.661  12.081
32492W        W97477   0.232   3.738   3.617
32493W        W97478   0.604  37.867  10.344
32494W        W97479  15.527  11.139   1.857
32495W        W97480  33.651  33.950   2.477
32496W        W97481  19.158  28.037  13.547
32497W        W97482   9.098  23.148   4.359
32498W        W97483  43.121  20.188   4.995
32499W        W97484   3.244  34.540  12.450
32500W        W97485   5.004   9.098   4.230
32501W        W97486  16.242   7.723   2.213
32502W        W97487  42.549  24.071  11.593
32503W        W97488  33.706  18.157   2.310
32504W        W97489  42.219  17.144   3.189
32505W        W97490  40.201  30.505  11.736
32506W        W97491   8.327  27.158   2.256
32507W        W97492  34.792  13.656  13.993
32508W        W97493  32.339  35.750  12.512
32509W        W97494  13.714  21.102  11.159
32510W        W97495  14.554  32.306  13.548
32511W        W97496  15.124  30.140   4.023
32512W        W97497  22.998  12.042   1.885
32513W        W97498   1.501  30.616  12.307
32514W        W97499   4.417  28.034   3.139
32515W        W97500  41.139  21.092   1.419
32516W        W97501  23.350  11.939  11.048
32517W        W97502  13.339  14.049  12.896
32518W        W97503  12.664  40.301  10.637
32519W        W97504  13.364  10.881   3.257
32520W        W97505  14.821  11.741  10.635
32521W        W97506  33.066  38.576  12.587
32522W        W97507  38.915  29.963  13.872
32523W        W97508   0.791  16.675   1.128
32524W        W97509  37.514  12.907   3.921
32525W        W97510  38.918  44.101   1.731
32526W        W97511   1.430  18.497   1.937
32527W        W97512  11.603  24.207   3.548
32528W        W97513  24.218  24.335   0.881
32529W        W97514  13.273  11.928  12.105
32530W        W97515  29.920   1.525  11.070
32531W        W97516  27.561  16.283  10.679
32532W        W97517  17.139   3.185   3.346
32533W        W97518  43.717  24.962   1.769
32534W        W97519   7.690  30.546   4.552
32535W        W97520  35.279   2.228  13.518
32536W        W97521  27.869  11.686   1.649
32537W        W97522  26.050  25.959  14.818
32538W        W97523  34.997  42.808  10.713
32539W        W97524  35.034  26.856   0.180
32540W        W97525   0.643  22.420   2.972
32541W        W97526  29.065  16.557  11.542
32542W        W97527   4.697   9.625  14.830
32543W        W97528  21.191  17.124  11.947
32544W        W97529  19.007  27.218   0.904
32545W        W97530  26.230  17.535  13.306
32546W        W97531  30.166  25.010   1.445
32547W        W97532  34.972   4.264   3.918
32548W        W97533  13.461  20.024   2.683
32549W        W97534  13.290  43.847   3.726
32550W        W97535  31.522  18.689  11.204
32551W        W97536  20.590  24.002  11.147
32552W        W97537  19.024  18.261   0.271
32553W        W97538  29.553  14.018  12.240
32554W        W97539   4.249  14.598   2.192
32555W        W97540   7.750  35.960   4.958
32556W        W97541  31.702  36.892   1.927
32557W        W97542  43.460  22.231   2.738
32558W        W97543  18.660  31.603   4.625
32559W        W97544  43.484  14.106  11.546
32560W        W97545   6.474   1.313  10.737
32561W        W97546  38.179  34.886  14.894
32562W        W97547   3.508  31.472   1.462
32563W        W97548  42.310  11.468  11.062
32564W        W97549  39.916  20.744   0.081
32565W        W97550  38.222  10.694  10.707
32566W        W97551  26.193  17.421   4.285
32567W        W97552   9.893  27.800   3.969
32568W        W97553  33.379  42.688   3.711
32569W        W97554   8.246  31.464   2.359
32570W        W97555  40.472  43.427  12.533
32571W        W97556  11.111  28.518  14.700
32572W        W97557  21.898   9.716  13.389
32573W        W97558  17.598  16.028  14.318
32574W        W97559  20.746  43.979  13.250
32575W        W97560  27.434  40.914  13.899
32576W        W97561   5.409  18.639   0.450
32577W        W97562   5.825  13.282   1.820
32578W        W97563  30.755   0.695   1.277
32579W        W97564  30.071  26.471  14.410
32580W        W97565  29.149  31.676  12.688
32581W        W97566  36.827   4.841   0.716
32582W        W97567  24.780  22.273  12.634
32583W        W97568  26.065   6.344   1.484
32584W        W97569  19.120  39.377  14.811
32585W        W97570  29.401  19.627  13.177
32586W        W97571  23.597   5.089  13.493
32587W        W97572  38.392   7.698   3.239
32588W        W97573  23.186  36.897  14.793
32589W        W97574  10.075  24.641   3.163
32590W        W97575   8.302   0.496   2.265
32591W        W97576   9.363  34.283  10.671
32592W        W97577   9.695   6.995  11.986
32593W        W97578  14.067  32.363   0.550
32594W        W97579  17.557  15.661   3.296
32595W        W97580  35.347  11.826  10.250
32596W        W97581  16.814  34.552  14.313
32597W        W97582  44.920  33.644  12.904
32598W        W97583  15.314  14.670  12.414
32599W        W97584   9.202  38.437   4.503
32600W        W97585  41.945  32.710  10.693
32601W        W97586  17.648   1.887  11.476
32602W        W97587  17.132  11.479  13.028
32603W        W97588  10.872  28.199   4.658
32604W        W97589  30.079  27.088   1.930
32605W        W97590  31.556   7.891  11.768
32606W        W97591  18.794  30.514   2.767
32607W        W97592  22.965   1.305  13.031
32608W        W97593  21.262  16.511   0.699
32609W        W97594  31.742  37.323   0.296
32610W        W97595  18.037   5.952   2.365
32611W        W97596  22.126  38.600   3.163
32612W        W97597  34.426   0.052   0.146
32613W        W97598  34.324  13.220  11.982
32614W        W97599  27.946  44.359  14.023
32615W        W97600  28.659  21.344   2.443
32616W        W97601  15.896  42.148  13.603
32617W        W97602  17.415  26.600  10.789
32618W        W97603  42.132  32.593   4.159
32619W        W97604  29.376  42.038  11.612
32620W        W97605  19.888   3.148   2.993
32621W        W97606  23.342  17.828  13.505
32622W        W97607  19.578  23.904   3.218
32623W        W97608  24.287  24.671  10.778
32624W        W97609  33.975  39.073   1.553
32625W        W97610  15.682  14.636   3.023
32626W        W97611  14.733  12.182   1.544
32627W        W97612  34.408  44.093  13.855
32628W        W97613  12.210  10.399  14.733
32629W        W97614  40.719  31.915   4.656
32630W        W97615   6.860   7.572  14.782
32631W        W97616   7.089  33.539   2.424
32632W        W97617   2.695  40.999   4.125
32633W        W97618  13.071  38.475  10.659
32634W        W97619  23.499  29.449   1.522
32635W        W97620   8.451  44.721  12.831
32636W        W97621   4.149  18.833  14.526
32637W        W97622  39.463  10.816  11.296
32638W        W97623  29.861  28.452   3.602
32639W        W97624   3.884   3.763  13.346
32640W        W97625   3.906  23.023  13.348
32641W        W97626  29.002  16.957   4.668
32642W        W97627   4.262  10.635  12.462
32643W        W97628  27.597   6.809  12.523
32644W        W97629  36.546  43.209   3.582
32645W        W97630  11.775  21.984  11.248
32646W        W97631   5.657  36.872   3.926
32647W        W97632  26.693  26.145   4.726
32648W        W97633   4.752  30.064  12.280
32649W        W97634  13.285   5.217   1.553
32650W        W97635  33.951  27.627   3.728
32651W        W97636  28.700  41.824   4.171
32652W        W97637   3.214  11.890  14.361
32653W        W97638  27.179  23.683  10.794
32654W        W97639  21.145  34.504   4.999
32655W        W97640  33.983  25.720   4.309
32656W        W97641   7.138  30.394  11.178
32657W        W97642  29.652  40.800  13.826
32658W        W97643  36.930   9.485   2.851
32659W        W97644  11.123  33.143   0.312
32660W        W97645  36.587  13.267   2.185
32661W        W97646  13.088   7.143   9.898
32662W        W97647  39.336  33.654  11.889
32663W        W97648  33.634  44.639   5.017
32664W        W97649  41.773  18.056   2.129
32665W        W97650  38.271  17.768   9.710
32666W        W97651  21.128  40.825   4.381
32667W        W97652  19.740  25.106   3.077
32668W        W97653  28.454  15.865   3.714
32669W        W97654  19.574  35.336  14.508
32670W        W97655   1.215  40.100  12.076
32671W        W97656  38.100  32.996  11.893
32672W        W97657   4.287  22.744   1.868
32673W        W97658  20.169  17.794   2.610
32674W        W97659   3.139  20.555  11.987
32675W        W97660   0.303  17.492  14.947
32676W        W97661  35.888   7.388   3.633
32677W        W97662  24.290   8.342  14.458
32678W        W97663  15.581  41.059  14.392
32679W        W97664  23.159  39.948  14.442
32680W        W97665  13.003  38.443  14.905
32681W        W97666  16.222   9.075  13.951
32682W        W97667  42.316   8.658   0.202
32683W        W97668  11.920   4.379  10.079
32684W        W97669   8.254  29.607   0.952
32685W        W97670  22.714  11.108   0.325
32686W        W97671  41.749  17.628   0.952
32687W        W97672  20.555   9.383  12.869
32688W        W97673  18.400  33.793  13.870
32689W        W97674  35.982  22.677   2.827
32690W        W97675  41.129  10.426   4.111
32691W        W97676  39.480  15.849   2.776
32692W        W97677   9.290  17.547   4.438
32693W        W97678  38.398   8.641  10.888
32694W        W97679  13.344   3.419  14.843
32695W        W97680  17.177  28.192  10.707
32696W        W97681  15.771  24.714  10.655
32697W        W97682  42.905   7.809  14.304
32698W        W97683  43.740  44.597  14.174
32699W        W97684  38.236  44.356   2.227
32700W        W97685  16.418  11.767  11.919
32701W        W97686  40.801  22.822   5.004
32702W        W97687  20.040  36.489   4.457
32703W        W97688  16.385   2.193   0.310
32704W        W97689   4.927  23.823   4.805
32705W        W97690  13.173   3.696  14.417
32706W        W97691  36.061  22.267  12.443
32707W        W97692   1.954  15.610   5.046
32708W        W97693  41.226  15.053   4.664
32709W        W97694  23.759  44.499  13.426
32710W        W97695  19.283  34.141   0.271
32711W        W97696   5.087  12.099  13.100
32712W        W97697  19.029  37.442   1.669
32713W        W97698  33.452  40.626   0.802
32714W        W97699  41.817  42.195   1.819
32715W        W97700  37.374  38.959   4.729
32716W        W97701  11.536   6.659   0.327
32717W        W97702  22.586  37.825  12.107
32718W        W97703   3.895  17.679   2.291
32719W        W97704  36.622   9.444   2.034
32720W        W97705  43.819  36.514  12.777
32721W        W97706  11.356  31.977   2.870
32722W        W97707   8.572   6.850  12.008
32723W        W97708  18.791  27.036   3.808
32724W        W97709  23.535  32.544  11.007
32725W        W97710  29.957  21.531   2.994
32726W        W97711  30.475  31.027   1.865
32727W        W97712  27.707   6.186   3.657
32728W        W97713  36.902  24.214   0.570
32729W        W97714  27.908   1.335   1.850
32730W        W97715  17.559   9.396   0.260
32731W        W97716   9.673  10.506  12.980
32732W        W97717  29.157  23.488  11.986
32733W        W97718   6.885   8.858   0.423
32734W        W97719  18.145  42.820  14.889
32735W        W97720  24.145  36.183  11.668
32736W        W97721  31.240  44.466  14.495
32737W        W97722  17.157  36.422  11.992
32738W        W97723   0.580  18.807   2.409
32739W        W97724   4.945  36.481  12.135
32740W        W97725  29.396  31.641   0.894
32741W        W97726   0.209  24.109   1.375
32742W        W97727  29.981  19.369   0.897
32743W        W97728  10.799   8.766  11.420
32744W        W97729   3.617   8.245   4.811
32745W        W97730  13.513  38.413  14.839
32746W        W97731  15.229  15.565   0.407
32747W        W97732  38.294   7.179   4.676
32748W        W97733   5.314  20.308  10.608
32749W        W97734  30.376  16.823   0.205
32750W        W97735   8.633  42.503   2.956
32751W        W97736  19.542  14.020  14.843
32752W        W97737  14.163  17.293   0.840
32753W        W97738  19.232  10.204  14.669
32754W        W97739   4.269  22.611   2.364
32755W        W97740  28.778   8.852   0.205
32756W        W97741   4.670   9.534   1.683
32757W        W97742  12.571  31.097  14.558
32758W        W97743  25.482  35.953  11.284
32759W        W97744  25.484   6.271   2.888
32760W        W97745  31.924  11.233  10.715
32761W        W97746   6.828  35.479  10.918
32762W        W97747  28.064  12.147   4.234
32763W        W97748  23.648  12.598   4.655
32764W        W97749   9.979  17.039   3.469
32765W        W97750  33.524  21.578   3.130
32766W        W97751   1.721  30.651   3.587
32767W        W97752   8.874  19.187   1.858
32768W        W97753  13.395   5.167  13.021
32769W        W97754  31.900  14.172   1.805
32770W        W97755  33.576  30.522  11.725
32771W        W97756  41.397  28.022   9.913
32772W        W97757   9.683  15.201   4.076
32773W        W97758  28.047  25.534  11.067
32774W        W97759  33.094  24.060   0.810
32775W        W97760  30.145  37.380  14.535
32776W        W97761  11.235   0.217   2.141
32777W        W97762  37.802   4.776   4.616
32778W        W97763  38.039   6.430  12.952
32779W        W97764  18.950  19.655  12.990
32780W        W97765   5.171  42.907  10.651
32781W        W97766  39.515  16.173  12.045
32782W        W97767  28.589  17.719   1.676
32783W        W97768  17.804  29.891   0.315
32784W        W97769  24.079  41.459  13.838
32785W        W97770   3.927  18.330   3.729
32786W        W97771  32.441  21.811  14.346
32787W        W97772  33.160  12.528   1.501
32788W        W97773  30.043  40.918  10.731
32789W        W97774   8.348  41.013  11.610
32790W        W97775   9.160   4.364   4.503
32791W        W97776  44.813  35.373   2.883
32792W        W97777  36.526  20.231   3.379
32793W        W97778  13.817  13.880   3.010
32794W        W97779  26.635   6.039   3.278
32795W        W97780   0.183  36.358   4.625
32796W        W97781  18.652   5.420  13.839
32797W        W97782  20.746  31.371   2.506
32798W        W97783  23.022  21.128  12.476
32799W        W97784  44.595  26.165   9.940
32800W        W97785   6.490  33.164   4.535
32801W        W97786   5.626  12.645   0.545
32802W        W97787  38.127  44.070   0.530
32803W        W97788  21.097  27.884  13.482
32804W        W97789   5.220   3.910   1.805
32805W        W97790  34.117  26.244  14.391
32806W        W97791  18.697  22.747  14.484
32807W        W97792  35.105   6.912  10.824
32808W        W97793  11.805  28.031   4.738
32809W        W97794  42.676  22.514   4.192
32810W        W97795  42.472  38.851   4.170
32811W        W97796  37.396  26.545   0.772
32812W        W97797   4.875  19.161  14.740
32813W        W97798  37.620  39.749  10.593
32814W        W97799   1.371  10.286  13.807
32815W        W97800   3.168  38.656   2.584
32816W        W97801  31.695  35.107   0.486
32817W        W97802  34.849  12.303   5.054
32818W        W97803  25.142  40.297   1.804
32819W        W97804  16.245  20.122   3.333
32820W        W97805  21.883  20.604   2.201
32821W        W97806  30.004  43.383  14.286
32822W        W97807  40.883  10.685   0.873
32823W        W97808  19.563  13.756   0.317
32824W        W97809  21.173   6.248   4.567
32825W        W97810  30.824  22.041  10.741
32826W        W97811   6.830  13.140   1.671
32827W        W97812   6.741   1.333   0.854
32828W        W97813   9.311  32.228   3.806
32829W        W97814  30.152   2.544  12.715
32830W        W97815  41.335  30.076   1.301
32831W        W97816  11.286  15.581  11.402
32832W        W97817  38.965  21.090   1.813
32833W        W97818  32.578   4.401   2.359
32834W        W97819  10.141  38.313  10.328
32835W        W97820  22.152  18.819   1.202
32836W        W97821   2.773  13.117  12.898
32837W        W97822   0.407  30.619   0.516
32838W        W97823  22.715  15.020   3.786
32839W        W97824  35.850  37.887  11.566
32840W        W97825   7.883  22.017   1.014
32841W        W97826   9.917  17.373   1.749
32842W        W97827  13.172  33.844   2.572
32843W        W97828  25.779  18.679  13.771
32844W        W97829   4.942  10.854  13.947
32845W        W97830  40.814  21.761   2.740
32846W        W97831  12.587  29.836  10.727
32847W        W97832  11.817  16.382   1.858
32848W        W97833  25.982  13.729  13.395
32849W        W97834  42.882  12.112  14.287
32850W        W97835   5.475   7.806  11.569
32851W        W97836  40.899  37.718   1.597
32852W        W97837  24.254  32.697   2.199
32853W        W97838  32.420  11.006   1.518
32854W        W97839  14.262  27.718  13.012
32855W        W97840   0.818  21.954   0.949
32856W        W97841  33.057  28.421  11.511
32857W        W97842  38.371  21.547  14.914
32858W        W97843   9.089  28.489  14.253
32859W        W97844  10.201  43.951   0.185
32860W        W97845  44.782  31.712   2.271
32861W        W97846  28.264   3.718  12.499
32862W        W97847  38.096   9.871   1.188
32863W        W97848  14.972   1.006  12.429
32864W        W97849  21.262  26.815  13.619
32865W        W97850   8.875  44.457  12.930
32866W        W97851  20.722   8.157  14.329
32867W        W97852  19.826  33.357  13.169
32868W        W97853  35.913   2.323   1.999
32869W        W97854  35.657  38.287   1.768
32870W        W97855   3.771  44.678  13.482
32871W        W97856  26.189  15.242   4.749
32872W        W97857   7.305   7.735   0.032
32873W        W97858  23.104  22.392   3.236
32874W        W97859  18.214   8.017   1.328
32875W        W97860  15.521   9.309  10.529
32876W        W97861  31.143   2.438   1.410
32877W        W97862   6.496  11.928  12.941
32878W        W97863   2.138  18.245  14.357
32879W        W97864  32.886  41.925   3.636
32880W        W97865  38.141  27.947  11.265
32881W        W97866   9.703  37.123   4.204
32882W        W97867  34.913  21.708  11.638
32883W        W97868  26.586  30.465  13.997
32884W        W97869  24.515  13.764   4.435
32885W        W97870  16.761  35.167   2.296
32886W        W97871  12.389  36.027   1.898
32887W        W97872  26.170  38.555   0.794
32888W        W97873  34.983  17.425   0.426
32889W        W97874  20.771  40.477  13.362
32890W        W97875   8.869  35.667  12.886
32891W        W97876  28.733   9.107   3.097
32892W        W97877   0.881  37.886  14.823
32893W        W97878  13.342  30.493   0.326
32894W        W97879  34.147  34.569  12.549
32895W        W97880  42.758  19.233   1.957
32896W        W97881  44.051  36.855   1.858
32897W        W97882  16.172   7.222  12.133
32898W        W97883  10.356  32.023   2.274
32899W        W97884  14.113  31.275   4.866
32900W        W97885   7.945  15.287  11.172
32901W        W97886  10.098  41.055   3.698
32902W        W97887  22.761  36.717  12.127
32903W        W97888   0.008  10.354  12.373
32904W        W97889  28.678  20.677  13.150
32905W        W97890  44.337  21.680   2.766
32906W        W97891   0.028  19.318   0.017
32907W        W97892  11.741  42.796   4.016
32908W        W97893  34.827  32.888  13.617
32909W        W97894  24.611  23.709   3.688
32910W        W97895  32.669  26.098   4.583
32911W        W97896  16.332  22.675   2.280
32912W        W97897  30.209  19.712   3.132
32913W        W97898   4.039  22.889   3.128
32914W        W97899  42.453   1.799  13.653
32915W        W97900  18.127   2.237  14.281
32916W        W97901   8.630  28.567  12.423
32917W        W97902   4.372   2.287  13.995
32918W        W97903  26.534   6.683   0.394
32919W        W97904   2.764   0.011   1.851
32920W        W97905  16.210  24.711   0.930
32921W        W97906  37.362  10.291   3.194
32922W        W97907  37.968  21.262   1.734
32923W        W97908  13.098   0.496  11.656
32924W        W97909  31.017  33.095   2.191
32925W        W97910   6.759  30.995  11.609
32926W        W97911  18.770   3.392  14.082
32927W        W97912  10.680  32.529   0.044
32928W        W97913  41.149  26.240  13.419
32929W        W97914  41.880  12.182   2.151
32930W        W97915  27.969  13.047  10.619
32931W        W97916  19.737  25.529  14.253
32932W        W97917  21.817  44.293   3.459
32933W        W97918  41.131  21.090  13.687
32934W        W97919   8.976  43.951  14.790
32935W        W97920  26.285  27.980   2.160
32936W        W97921   0.084   0.689  12.534
32937W        W97922   2.570  16.222   3.461
32938W        W97923  39.222  35.666   5.441
32939W        W97924  10.207   5.002   5.028
32940W        W97925   6.839  19.166   2.391
32941W        W97926  16.092  35.951  12.948
32942W        W97927   2.372  40.761   1.198
32943W        W97928   6.675  38.859  14.953
32944W        W97929   6.952  16.122  12.484
32945W        W97930  22.877  39.372  12.201
32946W        W97931  29.851  30.317   5.412
32947W        W97932  33.752   4.774   0.328
32948W        W97933  30.521  19.528   2.708
32949W        W97934  26.605  38.319   0.926
32950W        W97935  27.093  37.605   2.178
32951W        W97936  38.249  10.852   0.270
32952W        W97937   4.936  15.940   0.338
32953W        W97938  29.565  22.775  13.355
32954W        W97939  19.222  27.227  11.922
32955W        W97940   1.944  37.575  13.448
32956W        W97941  15.262  32.092   4.566
32957W        W97942  42.731  41.882  13.922
32958W        W97943  32.281   0.707  13.459
32959W        W97944  27.701  10.860   0.508
32960W        W97945  33.050  22.482   2.355
32961W        W97946   3.153  13.751  13.253
32962W        W97947  14.742   9.075   0.423
32963W        W97948  16.071  25.493   0.290
32964W        W97949  31.372  15.638   9.987
32965W        W97950  33.378  18.690  14.394
32966W        W97951  13.461  34.169  11.703
32967W        W97952  14.726  23.664   2.817
32968W        W97953  14.842   4.912  13.618
32969W        W97954   3.089  26.110   1.776
32970W        W97955  15.822   3.905  13.022
32971W        W97956   8.923  37.468  12.370
32972W        W97957  11.870  24.622   3.843
32973W        W97958  39.932  43.496   2.608
32974W        W97959  21.462  13.224   0.445
32975W        W97960  10.239   5.015  14.283
32976W        W97961  25.470  38.520  10.955
32977W        W97962  33.448  41.380   0.401
32978W        W97963   5.333  29.406  10.695
32979W        W97964   0.779  37.537   4.610
32980W        W97965   1.606  23.907   0.372
32981W        W97966  35.479  17.616   2.791
32982W        W97967   9.113   7.385   1.438
32983W        W97968  35.493  12.840   3.216
32984W        W97969  16.740  27.488   0.756
32985W        W97970  33.855  25.105   3.258
32986W        W97971  42.890  10.568   1.712
32987W        W97972   3.662  11.064  11.997
32988W        W97973  13.832  10.641   1.265
32989W        W97974   9.310  15.363  11.450
32990W        W97975   0.356   1.324  12.964
32991W        W97976  30.106  27.632   4.658
32992W        W97977  43.764   3.342  10.477
32993W        W97978  44.273  10.583  11.653
32994W        W97979  18.069  19.477  12.098
32995W        W97980  30.905  15.150  11.333
32996W        W97981  24.466   5.812   5.044
32997W        W97982  23.943  19.058   4.349
32998W        W97983   2.186  36.860   4.293
32999W        W97984   8.777  10.185  11.299
33000W        W97985  34.140   3.515   1.328
33001W        W97986  19.608  10.516   3.960
33002W        W97987   6.867  10.389   3.118
33003W        W97988  28.103  38.795   1.615
33004W        W97989   1.793  19.045   0.810
33005W        W97990  22.642  40.536   1.149
33006W        W97991  29.919  15.658  12.033
33007W        W97992   1.950  33.898   3.165
33008W        W97993  19.207  23.203  12.480
33009W        W97994  30.253   3.670   0.338
33010W        W97995  34.917  14.067  13.046
33011W        W97996  35.532   1.247  13.368
33012W        W97997  26.085  21.427  14.754
33013W        W97998  39.356   8.824  13.852
33014W        W97999  10.711  22.260  12.880
33015W        W98000  18.728  31.687   0.583
33016W        W98001  23.928   4.343   4.252
33017W        W98002  37.060  30.317   4.553
33018W        W98003  39.851  18.798  13.599
33019W        W98004   7.414  41.746  14.380
33020W        W98005  14.389   2.257   0.282
33021W        W98006  26.640  10.032   4.059
33022W        W98007  31.843   3.489   5.043
33023W        W98008  19.115  21.240   4.543
33024W        W98009  41.563  33.982  12.443
33025W        W98010  40.949  18.161   1.791
33026W        W98011  31.370  41.034   9.843
33027W        W98012  36.619  19.867  14.005
33028W        W98013  16.243  15.124  10.483
33029W        W98014   6.575  32.141   3.208
33030W        W98015  21.059  37.914  11.414
33031W        W98016  24.978   8.120   4.134
33032W        W98017  33.884  42.808   3.650
33033W        W98018  37.361   1.218  14.853
33034W        W98019   0.978  22.914  12.169
33035W        W98020  26.933  14.517  10.987
33036W        W98021  29.563  33.168  11.168
33037W        W98022  26.690  39.857  11.104
33038W        W98023  15.123  44.816  11.351
33039W        W98024  34.619  37.658   1.302
33040W        W98025  33.978  18.807  13.742
33041W        W98026  22.962  23.176  13.465
33042W        W98027  18.265  44.977  10.680
33043W        W98028  16.164  11.862  12.886
33044W        W98029  12.172  24.179   2.308
33045W        W98030   9.426  12.247   2.882
33046W        W98031  23.815  11.759  11.263
33047W        W98032  13.682  34.656  12.921
33048W        W98033  23.617  35.449  11.178
33049W        W98034  26.672   6.883  10.597
33050W        W98035  17.120   9.197  10.373
33051W        W98036   9.643  22.459  13.998
33052W        W98037  25.282  32.036   0.485
33053W        W98038   6.080  18.449   3.276
33054W        W98039  44.925   5.628   1.419
33055W        W98040  11.143  19.264   0.229
33056W        W98041  30.107  23.807   3.803
33057W        W98042  10.168  23.552  14.337
33058W        W98043  15.154  34.328   3.233
33059W        W98044  34.428  24.484  11.640
33060W        W98045  23.607  15.215   2.346
33061W        W98046  10.832  16.123   3.644
33062W        W98047   1.907   4.342  13.763
33063W        W98048  38.272  17.693  13.593
33064W        W98049  40.897  34.044  11.172
33065W        W98050  39.617  40.347   2.201
33066W        W98051   2.911  42.725   2.145
33067W        W98052  23.701  14.877   1.145
33068W        W98053   3.772  19.986   2.819
33069W        W98054  16.030   0.285  12.993
33070W        W98055  21.642  34.082   1.882
33071W        W98056  20.304  18.531  12.789
33072W        W98057  24.050  12.134   0.892
33073W        W98058  15.542  28.310  14.839
33074W        W98059  40.122  21.474  11.176
33075W        W98060  27.118  32.312   1.331
33076W        W98061  44.912  31.999  12.414
33077W        W98062  13.298  17.789   2.466
33078W        W98063  22.052  28.826  13.906
33079W        W98064  44.229  29.578  14.735
33080W        W98065   3.755  17.574  12.053
33081W        W98066   4.456  25.902  12.170
33082W        W98067  14.851  18.310   3.752
33083W        W98068   1.312  39.543   3.241
33084W        W98069  36.136   5.125  14.364
33085W        W98070  21.955  34.083  10.713
33086W        W98071   0.986  23.986   1.749
33087W        W98072  24.443  19.005   1.965
33088W        W98073  17.408  19.721   3.669
33089W        W98074  35.612   7.274   1.072
33090W        W98075  36.162   4.247   2.675
33091W        W98076  11.121  31.860   0.320
33092W        W98077  26.209  28.048   1.301
33093W        W98078   8.144  18.511  12.569
33094W        W98079  23.691  19.085  12.502
33095W        W98080  14.298  14.915  11.107
33096W        W98081  41.703  19.746   3.200
33097W        W98082  25.559  13.573  13.027
33098W        W98083  42.810  11.850  14.734
33099W        W98084  18.316  17.353   3.758
33100W        W98085   8.746  26.827   0.305
33101W        W98086  21.845   2.065  11.440
33102W        W98087  24.235  28.282   4.607
33103W        W98088  21.175  13.062   1.854
33104W        W98089   4.706  18.104  12.653
33105W        W98090   5.411  19.260  14.758
33106W        W98091  38.831  11.593  12.501
33107W        W98092  10.438  33.656  13.549
33108W        W98093  15.225  30.790   1.414
33109W        W98094   5.782  20.732   2.921
33110W        W98095  27.624  41.866   1.408
33111W        W98096  32.899  24.779  14.832
33112W        W98097   5.200  34.911   4.403
33113W        W98098  39.974  12.330  12.904
33114W        W98099   9.361  12.363   4.786
33115W        W98100  27.563  10.277   3.657
33116W        W98101  15.477  18.791  10.528
33117W        W98102  14.039  11.163  12.519
33118W        W98103  35.520   5.644  14.094
33119W        W98104   6.655  42.108   0.420
33120W        W98105  14.676   5.404   1.506
33121W        W98106  15.154   3.872  11.891
33122W        W98107  30.980  22.780   4.020
33123W        W98108  38.172  30.634  13.521
33124W        W98109  40.500  24.947   3.666
33125W        W98110  42.967   3.694   2.723
33126W        W98111  35.954  10.377  12.259
33127W        W98112  44.903  23.606   2.213
33128W        W98113  43.008   0.101   0.344
33129W        W98114  11.980  25.186  11.930
33130W        W98115  12.724  35.803  14.194
33131W        W98116  17.319  33.664  11.077
33132W        W98117  12.577  14.696  10.711
33133W        W98118  16.105  15.581  13.923
33134W        W98119  36.290  14.804  13.134
33135W        W98120  12.404  33.925   4.155
33136W        W98121  31.313  35.354   0.714
33137W        W98122  14.626  39.295   4.281
33138W        W98123  40.488  44.107   2.357
33139W        W98124  16.152  41.552   1.301
33140W        W98125  35.584  44.839   1.852
33141W        W98126  37.675  43.020   4.576
33142W        W98127   8.970  43.969  14.267
33143W        W98128  36.901  41.379   4.940
33144W        W98129  37.469  36.349  12.185
33145W        W98130   5.640   3.406  13.378
33146W        W98131   0.924  32.648  10.405
33147W        W98132  15.619  33.363   0.502
33148W        W98133  10.180   5.391   0.684
33149W        W98134  32.472  22.616   4.576
33150W        W98135  43.549  28.496   1.213
33151W        W98136  39.510   9.099  14.395
33152W        W98137   8.223  22.593   3.675
33153W        W98138  17.839  26.852  11.016
33154W        W98139  21.377  27.200   0.855
33155W        W98140  14.062  44.468  12.457
33156W        W98141   1.522  20.277  13.808
33157W        W98142   8.754   6.465   0.526
33158W        W98143  35.620  29.415  14.678
33159W        W98144  44.074  19.983  14.434
33160W        W98145  42.471  37.566  12.086
33161W        W98146  18.312  34.238   3.168
33162W        W98147  29.137  19.765   4.577
33163W        W98148  18.863  22.150   1.855
33164W        W98149  36.620   7.880  14.240
33165W        W98150  17.772  44.691  14.570
33166W        W98151  32.288   3.755   0.317
33167W        W98152  29.455  34.886   4.095
33168W        W98153  30.020  27.541   1.680
33169W        W98154  26.260  24.180   1.801
33170W        W98155  29.919  11.035   2.085
33171W        W98156   6.836  24.208   4.823
33172W        W98157  32.194  16.436   0.017
33173W        W98158  36.583  13.621   3.218
33174W        W98159   0.022  12.268  14.869
33175W        W98160   8.437  43.481   4.448
33176W        W98161  13.637  22.137  14.648
33177W        W98162  20.871  23.842   3.225
33178W        W98163  36.558   5.687   3.238
33179W        W98164   7.913   1.381  13.335
33180W        W98165   4.867  31.168   1.777
33181W        W98166  21.588  20.273   0.309
33182W        W98167  40.561  23.906   2.831
33183W        W98168  36.750  34.964   1.918
33184W        W98169  29.348   5.950  12.827
33185W        W98170  10.644  26.112   1.499
33186W        W98171  29.069  23.482   0.943
33187W        W98172   5.858  26.088  11.986
33188W        W98173  18.706   8.675  12.008
33189W        W98174  10.219  19.048   2.669
33190W        W98175  14.061   5.232   4.121
33191W        W98176  22.042  31.624   3.099
33192W        W98177  42.431  19.927   2.453
33193W        W98178   0.550  11.255   1.737
33194W        W98179  11.210  40.505   1.349
33195W        W98180  28.815  19.506  12.514
33196W        W98181  40.149  20.955  11.159
33197W        W98182  40.728  44.173  12.512
33198W        W98183  28.996  17.970   4.299
33199W        W98184  11.241  41.145   2.830
33200W        W98185   2.748   5.710   3.726
33201W        W98186   9.222   2.301  11.192
33202W        W98187  40.995  34.624   0.556
33203W        W98188   7.318  12.929   0.901
33204W        W98189  11.395   9.833   4.115
33205W        W98190  39.123  15.583  11.501
33206W        W98191  18.872  32.221  12.454
33207W        W98192  29.635  28.989   1.837
33208W        W98193  17.403  14.782   2.882
33209W        W98194  41.070  39.050   3.540
33210W        W98195  32.172  30.081   3.591
33211W        W98196  11.431  27.113   0.936
33212W        W98197  11.875  17.943   1.730
33213W        W98198  32.879   9.283   0.876
33214W        W98199  13.986  41.361   4.288
33215W        W98200  13.672   8.800  13.147
33216W        W98201  34.025  40.872   4.080
33217W        W98202   3.509  23.662   3.537
33218W        W98203  10.848  35.795  12.842
33219W        W98204  11.271   8.467   2.622
33220W        W98205   1.683  13.608  11.566
33221W        W98206   5.868  14.053  11.484
33222W        W98207  38.288  44.855  11.663
33223W        W98208  37.421   8.929  11.746
33224W        W98209   0.760  18.328   3.689
33225W        W98210   2.374  21.480   4.513
33226W        W98211   2.501  14.592  13.426
33227W        W98212   3.654  31.958   1.938
33228W        W98213  20.134   2.713  10.637
33229W        W98214  44.998  30.052   4.539
33230W        W98215  41.369  27.554  10.143
33231W        W98216  19.953   5.390  12.885
33232W        W98217  40.559  17.554   1.377
33233W        W98218  20.048  19.805   0.106
33234W        W98219  21.705  40.487  13.795
33235W        W98220  16.122  15.083  12.377
33236W        W98221  34.069  11.561   0.810
33237W        W98222   4.322  40.289  10.997
33238W        W98223  40.461  29.207   3.505
33239W        W98224  24.155  40.554   1.907
33240W        W98225  31.807   3.459  10.571
33241W        W98226  16.673  44.987   2.765
33242W        W98227  29.893   8.721   4.051
33243W        W98228   2.328   2.202  13.034
33244W        W98229  25.546  37.910   1.336
33245W        W98230  44.101  22.755  11.921
33246W        W98231  36.102  40.634   4.210
33247W        W98232  16.405  20.046   0.474
33248W        W98233  21.776  21.141  13.303
33249W        W98234   5.859   1.785   2.288
33250W        W98235  42.839  32.366  12.935
33251W        W98236  43.917  35.016   0.249
33252W        W98237   3.084  32.711   2.902
33253W        W98238  11.672  14.152   2.274
33254W        W98239  10.175  32.208   4.149
33255W        W98240   4.431  17.546   1.811
33256W        W98241  30.441  13.616   2.749
33257W        W98242   6.665   3.359   3.237
33258W        W98243   5.341   9.276  11.266
33259W        W98244  21.623  36.381  10.770
33260W        W98245   1.205  29.739  11.341
33261W        W98246  28.453  38.238   2.216
33262W        W98247  36.316  38.298  14.833
33263W        W98248  22.038  36.221   1.788
33264W        W98249  17.870  43.667  14.479
33265W        W98250  39.985  13.112  11.153
33266W        W98251  23.640  39.982   3.855
33267W        W98252  20.538  39.493  10.757
33268W        W98253  44.917  12.393  11.051
33269W        W98254  35.578   6.784   2.302
33270W        W98255  26.588  29.392   2.314
33271W        W98256  34.533  29.890   3.846
33272W        W98257  34.143  27.091   1.684
33273W        W98258  30.670  37.398  14.523
33274W        W98259  21.110   4.237  12.105
33275W        W98260   9.239   5.973   2.559
33276W        W98261  35.481  19.263   0.688
33277W        W98262  27.185   2.760  11.154
33278W        W98263  21.554   5.779   2.855
33279W        W98264  34.858   0.333  12.954
33280W        W98265   0.911  15.736   1.220
33281W        W98266   2.990  41.236   3.307
33282W        W98267  32.708   1.563   3.930
33283W        W98268  24.747  36.960  14.016
33284W        W98269  36.141  42.002  13.045
33285W        W98270   8.152  38.337   0.850
33286W        W98271  10.690  11.110  12.100
33287W        W98272  14.921  24.903   5.028
33288W        W98273  16.562  44.482   3.622
33289W        W98274  27.346  38.904  10.312
33290W        W98275  35.323  14.017  10.607
33291W        W98276  10.764  22.001   4.081
33292W        W98277  21.867  25.312  14.158
33293W        W98278   4.269   6.576  13.453
33294W        W98279  15.779  36.877   4.285
33295W        W98280  11.969  39.348  11.658
33296W        W98281  10.931  40.021  13.473
33297W        W98282  27.471  32.974   2.008
33298W        W98283  25.089  23.985   0.299
33299W        W98284  16.750  44.358   4.080
33300W        W98285  34.061  11.804  14.409
33301W        W98286  17.573  22.735  10.031
33302W        W98287  21.114   4.425   1.786
33303W        W98288  18.477  12.506   2.120
33304W        W98289  35.433  32.302   0.921
33305W        W98290  41.545   6.514   3.829
33306W        W98291   2.300  11.196   3.590
33307W        W98292  28.433  20.488   0.839
33308W        W98293  36.334  15.153   2.679
33309W        W98294  38.368  20.811   4.069
33310W        W98295  39.681  27.297  14.284
33311W        W98296  21.474  34.955  10.622
33312W        W98297  34.671   9.847  12.130
33313W        W98298  10.769  11.798   0.631
33314W        W98299  16.472  35.547  14.340
33315W        W98300   8.402  21.269   3.082
33316W        W98301  41.030  13.098   1.766
33317W        W98302  36.939   0.406   3.793
33318W        W98303  34.496  11.568  14.549
33319W        W98304  37.648  43.376   4.211
33320W        W98305   7.402  41.253  12.405
33321W        W98306   5.036  32.380   0.625
33322W        W98307   0.796  37.891   0.733
33323W        W98308  13.068  24.461  11.406
33324W        W98309  37.849   9.182  14.864
33325W        W98310  13.895  19.988  12.584
33326W        W98311  22.618   9.865  11.479
33327W        W98312  44.791  29.521   1.057
33328W        W98313   7.695  32.512  12.629
33329W        W98314  42.279  40.322  10.768
33330W        W98315   2.834  25.998  12.460
33331W        W98316  27.405   8.945  11.963
33332W        W98317  38.005  38.589   4.110
33333W        W98318  13.781  41.861   0.975
33334W        W98319   3.034  40.967   1.841
33335W        W98320  15.452  40.943  12.991
33336W        W98321  29.188  40.068  14.934
33337W        W98322  30.511  11.061  11.942
33338W        W98323  25.171  14.911   3.141
33339W        W98324  41.620  36.654  14.903
33340W        W98325  17.627  28.997   3.473
33341W        W98326   8.486  14.690  13.818
33342W        W98327  36.385   6.219   0.911
33343W        W98328   3.731  15.214   0.469
33344W        W98329  36.421  33.910   0.705
33345W        W98330  24.439  28.690   0.132
33346W        W98331  33.094  21.794  13.658
33347W        W98332  12.803   1.902  14.023
33348W        W98333  43.503  26.684   4.529
33349W        W98334   0.292  41.053   2.290
33350W        W98335  21.647  21.540   3.290
33351W        W98336  33.908  40.588  13.969
33352W        W98337  10.830  32.991   0.942
33353W        W98338  20.302  29.511   2.880
33354W        W98339  15.354  38.045  11.982
33355W        W98340   2.261  43.935  10.718
33356W        W98341  38.511  39.511   2.768
33357W        W98342  38.682  42.738   4.118
33358W        W98343   8.618  27.160  14.926
33359W        W98344  35.391   6.697   3.254
33360W        W98345  16.914  36.616  13.966
33361W        W98346  14.200  33.164   4.763
33362W        W98347  40.927  27.298  10.523
33363W        W98348  34.326   9.880  13.743
33364W        W98349  27.188  18.344  13.950
33365W        W98350  14.296  20.766   3.482
33366W        W98351  31.767  12.347   0.536
33367W        W98352  43.221  17.009   2.918
33368W        W98353  39.543  14.335  13.521
33369W        W98354   6.457  44.230   2.349
33370W        W98355  33.909  41.555   0.536
33371W        W98356  43.911   0.989   4.723
33372W        W98357  13.619  36.008   0.743
33373W        W98358  44.602   5.000   2.755
33374W        W98359  39.961  43.523  12.617
33375W        W98360  29.025  35.599  13.586
33376W        W98361   5.809  44.159   1.752
33377W        W98362  16.157  26.638   2.313
33378W        W98363  20.063  16.977  12.886
33379W        W98364  19.558  35.448   4.155
33380W        W98365   8.769  39.054   5.130
33381W        W98366  39.068  44.711   3.329
33382W        W98367  18.473  26.925  11.553
33383W        W98368  19.938  29.855   4.842
33384W        W98369  40.843  18.958  12.408
33385W        W98370  20.603  24.051   4.627
33386W        W98371  25.271  35.578  12.598
33387W        W98372  35.262   5.014   3.264
33388W        W98373  37.108  29.250   4.167
33389W        W98374   9.132  39.951   0.864
33390W        W98375   4.817  44.579  13.712
33391W        W98376  38.445  37.098  11.155
33392W        W98377  43.521  29.402   0.245
33393W        W98378  14.696  21.082   4.629
33394W        W98379  25.173   0.243   4.436
33395W        W98380   5.916  15.818   0.557
33396W        W98381   1.903  19.753   3.390
33397W        W98382   2.615  13.295  13.788
33398W        W98383  37.366  40.258  11.571
33399W        W98384  43.926  11.197   0.714
33400W        W98385   4.831  39.777  12.469
33401W        W98386  24.211  14.876   4.097
33402W        W98387  24.060   2.272   2.792
33403W        W98388  42.315   6.324  13.118
33404W        W98389   7.623  11.145   4.786
33405W        W98390  36.929  26.886   4.626
33406W        W98391  13.881   3.919  11.091
33407W        W98392  34.593  33.204  14.707
33408W        W98393   7.589  30.610   4.065
33409W        W98394   1.328   3.835  11.617
33410W        W98395  24.617   2.062  10.190
33411W        W98396  28.947  37.771   3.135
33412W        W98397  20.260   9.836  10.835
33413W        W98398   0.937  43.736   3.596
33414W        W98399   2.526  11.674   3.708
33415W        W98400  18.256  24.995   2.723
33416W        W98401  41.674  12.222  14.634
33417W        W98402  25.606  17.062  12.086
33418W        W98403  22.667   0.379   2.188
33419W        W98404  36.802  32.566  11.169
33420W        W98405  20.206  30.434  14.048
33421W        W98406  40.899  22.134   0.960
33422W        W98407  35.910   6.768  14.417
33423W        W98408  30.065  30.242   0.629
33424W        W98409  21.688  38.597   4.141
33425W        W98410  38.115  44.317   4.437
33426W        W98411  33.353  10.749   1.814
33427W        W98412  27.199  39.045  14.010
33428W        W98413  37.804  10.749  14.290
33429W        W98414  15.805  14.627  13.500
33430W        W98415  41.039  21.256   2.721
33431W        W98416   8.683  32.806   4.147
33432W        W98417  31.354  35.406  14.201
33433W        W98418  19.085  38.945  10.507
33434W        W98419  27.959  16.037   3.252
33435W        W98420  31.825  35.645  12.425
33436W        W98421  36.971   9.219  11.723
33437W        W98422   4.215  34.149   3.268
33438W        W98423  30.428  21.101   4.593
33439W        W98424   9.076  41.563   4.110
33440W        W98425  17.366  34.011   1.467
33441W        W98426   8.422   5.945   2.265
33442W        W98427  39.730   1.951  12.322
33443W        W98428  19.048  28.019  12.236
33444W        W98429  31.909   8.164   1.249
33445W        W98430  23.664  42.404  11.753
33446W        W98431   7.806   9.568  13.462
33447W        W98432  21.669  42.446   1.265
33448W        W98433  16.054  20.250  13.677
33449W        W98434  44.524   2.993  10.597
33450W        W98435  23.335  44.712  11.540
33451W        W98436  10.859  36.085  12.425
33452W        W98437  18.453  13.843  11.015
33453W        W98438  44.334  12.825  12.633
33454W        W98439  41.659   5.357  13.224
33455W        W98440  30.680  24.146   0.217
33456W        W98441  24.131  22.050  13.050
33457W        W98442  29.014  43.865   0.831
33458W        W98443  36.118  27.102   1.884
33459W        W98444  17.097  24.465  13.049
33460W        W98445  18.651   6.516  13.001
33461W        W98446  36.264  22.652   3.259
33462W        W98447  30.482  38.834  11.315
33463W        W98448  25.715  38.951   4.909
33464W        W98449  14.474   1.162  14.839
33465W        W98450   1.046  17.503   2.814
33466W        W98451  22.260  22.841   3.257
33467W        W98452  42.865  13.272   0.896
33468W        W98453   0.074  34.860  13.450
33469W        W98454  37.118  25.263   1.374
33470W        W98455  10.832  36.991  12.411
33471W        W98456  31.110   7.999   1.832
33472W        W98457  38.381  17.120   0.533
33473W        W98458   3.939   6.159  11.137
33474W        W98459  25.399   6.987   0.973
33475W        W98460  25.825  31.744  12.758
33476W        W98461  44.662   8.007   4.866
33477W        W98462  18.688  19.302  13.787
33478W        W98463  10.763  19.287   1.863
33479W        W98464  35.341  31.410   0.721
33480W        W98465  44.953  16.620  11.626
33481W        W98466  29.204  23.208   2.823
33482W        W98467   3.414  25.188  14.791
33483W        W98468  34.508  12.891  10.647
33484W        W98469   7.346  26.870  12.169
33485W        W98470  22.987  25.782   1.647
33486W        W98471  44.430  34.063  13.516
33487W        W98472  13.655   6.034  10.315
33488W        W98473  35.227  32.745  12.230
33489W        W98474  36.944  30.461   5.037
33490W        W98475  43.411  22.458  11.473
33491W        W98476  37.958  14.346  13.093
33492W        W98477   9.025   7.400   0.925
33493W        W98478  44.773  40.463   1.962
33494W        W98479  26.516  39.614  13.064
33495W        W98480   8.825  37.426   1.412
33496W        W98481  38.970  32.439   4.532
33497W        W98482  42.247  13.932   0.272
33498W        W98483  23.035  44.884   3.337
33499W        W98484   1.896  12.232   4.141
33500W        W98485   2.148   6.591  11.145
33501W        W98486   7.725   3.849  10.067
33502W        W98487  39.025  29.386   1.000
33503W        W98488  11.352  27.116  13.079
33504W        W98489  22.185  23.847   3.138
33505W        W98490  10.764  42.996   4.130
33506W        W98491   2.188  44.002   4.138
33507W        W98492  34.867  42.573   0.354
33508W        W98493  26.035   0.898   0.589
33509W        W98494   6.454  36.042  12.994
33510W        W98495  11.347  14.617   4.005
33511W        W98496  17.848  32.301   2.372
33512W        W98497   6.496  11.596  11.670
33513W        W98498   7.662   3.935   2.359
33514W        W98499   7.624   6.723   2.244
33515W        W98500  33.986  33.590   0.834
33516W        W98501  37.074  29.193   1.395
33517W        W98502  26.817  25.299   4.150
33518W        W98503  18.721   0.642  13.562
33519W        W98504  21.934  24.403  12.107
33520W        W98505   1.820  37.038  14.286
33521W        W98506   9.269   5.379  14.454
33522W        W98507  22.172   1.883  11.782
33523W        W98508   4.850  44.086   5.098
33524W        W98509   4.977  39.578  14.885
33525W        W98510  20.445   7.006   2.296
33526W        W98511  42.860  42.037  10.781
33527W        W98512  15.103  35.888  12.987
33528W        W98513  39.807  12.831  12.944
33529W        W98514  10.432  41.272   2.909
33530W        W98515  37.673  24.983  12.924
33531W        W98516  35.036  20.942  11.991
33532W        W98517  15.749  36.193  12.028
33533W        W98518  16.313  44.744  14.413
33534W        W98519  38.398  28.504  12.067
33535W        W98520   6.190  30.445  14.889
33536W        W98521   5.259  30.887  13.445
33537W        W98522  25.626  19.809  11.935
33538W        W98523  22.980  27.665   4.451
33539W        W98524   3.432  36.778  14.987
33540W        W98525  19.592  10.291  14.306
33541W        W98526  11.183  23.683   1.609
33542W        W98527  44.588  30.972   5.003
33543W        W98528  38.819  16.937  12.923
33544W        W98529  28.365  18.249  12.484
33545W        W98530  18.988  15.226  11.047
33546W        W98531  17.288  14.595   0.902
33547W        W98532  29.571  30.539   0.764
33548W        W98533   5.382  31.792   1.229
33549W        W98534  40.906  11.171   1.096
33550W        W98535  33.094  15.577   2.331
33551W        W98536  27.504  12.375  13.982
33552W        W98537  10.195  23.317   3.213
33553W        W98538  11.927  34.866  13.742
33554W        W98539  37.472  16.454  11.604
33555W        W98540  44.366  17.251   1.509
33556W        W98541  39.752  18.835   2.574
33557W        W98542  43.846  13.118   0.357
33558W        W98543  16.175  25.626   1.185
33559W        W98544  39.109   5.364   3.762
33560W        W98545   1.635  18.174   0.257
33561W        W98546  31.903  36.274  14.420
33562W        W98547   5.711  11.090  12.586
33563W        W98548  31.773   0.882   4.195
33564W        W98549   6.250   1.049  14.384
33565W        W98550  35.412  13.758   2.333
33566W        W98551  10.103  24.197   0.838
33567W        W98552   8.743  17.088   2.201
33568W        W98553  42.828  42.852  12.866
33569W        W98554  23.491  23.741  12.624
33570W        W98555  37.808  15.274  13.890
33571W        W98556  27.086  33.025  13.249
33572W        W98557  24.639  40.894   0.862
33573W        W98558  21.449   5.375  14.305
33574W        W98559  20.459  33.979  11.901
33575W        W98560  29.192  27.017   1.160
33576W        W98561  29.179  23.257   1.919
33577W        W98562  28.073  38.832   4.991
33578W        W98563  13.410  29.463  13.016
33579W        W98564  34.785  31.060  11.393
33580W        W98565  41.081  19.463   1.156
33581W        W98566  29.906  21.138   4.678
33582W        W98567  40.897   9.740  12.534
33583W        W98568  22.279  36.276  14.039
33584W        W98569  12.823  27.762  13.680
33585W        W98570  23.340  40.760  14.773
33586W        W98571  30.171  22.735  10.817
33587W        W98572  44.956   6.439   4.571
33588W        W98573  38.665   1.918  14.995
33589W        W98574  25.966  25.160   1.765
33590W        W98575  14.246  40.065  12.075
33591W        W98576   5.649  14.057   2.854
33592W        W98577   4.345  32.447  14.414
33593W        W98578  22.374  23.474  11.278
33594W        W98579  15.696  27.080   3.467
33595W        W98580   0.378  40.477  12.596
33596W        W98581  12.583  33.598   3.766
33597W        W98582   5.735   5.991  12.104
33598W        W98583   0.790  39.510   1.999
33599W        W98584  22.649  27.132   2.010
33600W        W98585  20.960  38.182  10.122
33601W        W98586  13.413  32.312  14.585
33602W        W98587  21.549  39.247  11.114
33603W        W98588  28.806  35.498   2.551
33604W        W98589   7.552  10.230   2.340
33605W        W98590  24.497  31.358  14.383
33606W        W98591  36.019  25.392   0.764
33607W        W98592  36.990  14.147   3.957
33608W        W98593  30.613  18.608   2.859
33609W        W98594  18.170  18.898  13.390
33610W        W98595  36.624  24.634   0.745
33611W        W98596  11.844  31.758  13.457
33612W        W98597  23.570  31.826  11.509
33613W        W98598  20.124  22.953   2.746
33614W        W98599   1.872  14.542   2.590
33615W        W98600  16.387   6.458  14.359
33616W        W98601  38.858  19.636   4.065
33617W        W98602  15.777  44.164  10.867
33618W        W98603   0.950  39.187   1.648
33619W        W98604   7.682   8.572   0.036
33620W        W98605  42.361   8.624   4.975
33621W        W98606  26.083  14.801  11.985
33622W        W98607  44.727   8.354  14.747
33623W        W98608  13.313  23.667   0.425
33624W        W98609  32.841  21.661  11.486
33625W        W98610  33.572  44.062  11.360
33626W        W98611  40.069  12.247  13.772
33627W        W98612  19.590   9.517   4.098
33628W        W98613   7.357   4.743   2.159
33629W        W98614  12.425  22.500  12.593
33630W        W98615  10.370   1.014  12.767
33631W        W98616   5.509   0.348  10.701
33632W        W98617  31.510  11.528   2.361
33633W        W98618   1.245   5.720   2.652
33634W        W98619  13.828  43.944  12.018
33635W        W98620   9.582  23.803   2.522
33636W        W98621  42.840  32.162   4.569
33637W        W98622  24.367   7.864  13.950
33638W        W98623  42.978  32.655   4.535
33639W        W98624  33.446  43.269   2.396
33640W        W98625  28.233  34.843  14.849
33641W        W98626  20.329  25.905  14.854
33642W        W98627  16.018  43.819  14.019
33643W        W98628  38.115   3.913  13.129
33644W        W98629   9.725  15.305   1.777
33645W        W98630  26.274  11.155   1.489
33646W        W98631   5.935  33.534   0.728
33647W        W98632  15.099  21.071  10.550
33648W        W98633   7.899  17.672   1.892
33649W        W98634  18.996  28.420  13.871
33650W        W98635  38.823  42.381   0.216
33651W        W98636  43.826  44.985  14.553
33652W        W98637  31.620  40.259   4.548
33653W        W98638  29.492  26.408  11.168
33654W        W98639  42.829  16.615   2.855
33655W        W98640   5.895   2.377  11.724
33656W        W98641  11.710  18.084  13.675
33657W        W98642   7.600  15.775   0.284
33658W        W98643  11.787  24.223  12.064
33659W        W98644  10.950   4.372   4.084
33660W        W98645  38.182  26.459   0.339
33661W        W98646  24.260  13.634   2.482
33662W        W98647  16.889  34.565  13.324
33663W        W98648  23.462   1.372  12.919
33664W        W98649   7.344   2.283   5.345
33665W        W98650  11.189  28.095   3.149
33666W        W98651  35.892  35.097  13.256
33667W        W98652  12.874  27.589  11.127
33668W        W98653  11.980  17.142   3.734
33669W        W98654   5.244  34.466   0.189
33670W        W98655   1.971  12.682  14.913
33671W        W98656  10.666   4.834   0.365
33672W        W98657   1.338  31.555   1.993
33673W        W98658   9.674  17.730  14.271
33674W        W98659  32.376  12.884  12.804
33675W        W98660  31.434   5.863  14.263
33676W        W98661  25.448  19.208  10.767
33677W        W98662  26.121  14.830  10.413
33678W        W98663   8.345  14.045   3.861
33679W        W98664   9.120  27.532   2.251
33680W        W98665  10.896  37.979   0.474
33681W        W98666  44.814   7.131  13.078
33682W        W98667  20.338   1.453  12.562
33683W        W98668   7.383  43.957   4.420
33684W        W98669  32.278  36.511   4.525
33685W        W98670  34.690   7.115   4.901
33686W        W98671   7.848  30.408   3.657
33687W        W98672  36.640   4.412   0.930
33688W        W98673  12.952  35.410  12.565
33689W        W98674  32.356  29.569  13.732
33690W        W98675  21.348  44.901  12.117
33691W        W98676  21.054  12.915   3.217
33692W        W98677  27.531  30.417  12.003
33693W        W98678  26.156   7.693   3.576
33694W        W98679  22.948   6.436   4.497
33695W        W98680  31.023  24.226  13.095
33696W        W98681  31.549   1.537  13.493
33697W        W98682   0.609  34.388  11.973
33698W        W98683  16.112  16.098  14.726
33699W        W98684  32.622  35.004  14.772
33700W        W98685   0.528   8.190   2.777
33701W        W98686  43.755   0.050   0.941
33702W        W98687   8.427   9.829  14.833
33703W        W98688  21.637  16.671   1.293
33704W        W98689  38.394   7.641  11.123
33705W        W98690  16.063  43.978   1.060
33706W        W98691  36.063  12.333  10.997
33707W        W98692  39.553   8.010   3.916
33708W        W98693  44.449   8.175   1.907
33709W        W98694  22.415   7.245  11.648
33710W        W98695  19.617  22.467  10.788
33711W        W98696  28.426   4.391   4.369
33712W        W98697  14.833  11.288   3.312
33713W        W98698   1.013  24.280  11.078
33714W        W98699  23.605  20.079  11.152
33715W        W98700  16.324  25.107   0.059
33716W        W98701  26.215  11.931  14.959
33717W        W98702  17.575  33.943  11.875
33718W        W98703  21.167  27.269   4.265
33719W        W98704  41.736  21.203  14.913
33720W        W98705  22.223   7.363  11.196
33721W        W98706  23.988  18.611  13.468
33722W        W98707  11.815   5.848   4.146
33723W        W98708  21.734  28.862  12.735
33724W        W98709  34.690  12.287  10.644
33725W        W98710  43.794  14.256   3.261
33726W        W98711  35.421  44.446  10.948
33727W        W98712   1.000  14.890   2.431
33728W        W98713   6.347  18.580  10.473
33729W        W98714  22.554  35.513   4.668
33730W        W98715   3.653  30.474   1.837
33731W        W98716  38.657   4.708  13.531
33732W        W98717   6.738  39.128   1.904
33733W        W98718  15.543   8.954  13.842
33734W        W98719  30.112   2.206  13.073
33735W        W98720  41.232  30.411  11.566
33736W        W98721   9.179  24.055  14.770
33737W        W98722  44.474  40.752  13.019
33738W        W98723  38.896  32.445  12.112
33739W        W98724  19.136  34.437  13.996
33740W        W98725  27.321  16.610   2.234
33741W        W98726  23.207  15.830  12.498
33742W        W98727  18.141  24.061  12.493
33743W        W98728  10.579  27.149  12.336
33744W        W98729   8.241   0.330   3.284
33745W        W98730  11.210  32.635  14.044
33746W        W98731  29.094  37.340   3.410
33747W        W98732   5.682  19.051  13.460
33748W        W98733  36.311  39.468  14.469
33749W        W98734   5.737   9.060  10.579
33750W        W98735  33.901  40.646   0.476
33751W        W98736  42.937  15.010   0.420
33752W        W98737  39.600  43.824   3.839
33753W        W98738  33.238   2.963   1.228
33754W        W98739  30.391  41.298  12.838
33755W        W98740  12.858  36.081   4.722
33756W        W98741   2.924  12.862   0.047
33757W        W98742  36.623  41.419  13.066
33758W        W98743  15.576  23.023   4.070
33759W        W98744   1.294   6.157   3.742
33760W        W98745  19.788  28.931   4.955
33761W        W98746  37.305  23.512  11.680
33762W        W98747   1.265  43.476  13.342
33763W        W98748   3.490  25.506   1.328
33764W        W98749  42.228  31.857  12.475
33765W        W98750  18.263  36.627   3.862
33766W        W98751  29.112   0.280  14.807
33767W        W98752  17.124  10.013   0.769
33768W        W98753   8.354  41.436  14.297
33769W        W98754  44.488  34.336  11.212
33770W        W98755  14.201  27.675   1.027
33771W        W98756  22.809  14.343   0.905
33772W        W98757  13.885  15.049   0.331
33773W        W98758  20.081  43.773   1.887
33774W        W98759   1.705  41.509  12.347
33775W        W98760   9.336  11.835  14.272
33776W        W98761  21.131  28.130  11.211
33777W        W98762  42.338   2.760   3.591
33778W        W98763   8.500  38.965   3.365
33779W        W98764  34.302  34.616   1.775
33780W        W98765  38.858  18.134   5.315
33781W        W98766   5.176  22.710  14.905
33782W        W98767  15.131  23.527  12.969
33783W        W98768  28.987   6.215  12.330
33784W        W98769  25.137  17.853  14.208
33785W        W98770   3.407  17.758  11.712
33786W        W98771  10.384  14.233  11.187
33787W        W98772  27.077  31.099  10.886
33788W        W98773  26.534  37.290   3.367
33789W        W98774  12.881  28.649  13.442
33790W        W98775  38.353  31.882  11.214
33791W        W98776  44.952  27.616   4.364
33792W        W98777  28.712  37.936  13.810
33793W        W98778  36.433  27.701  12.436
33794W        W98779  11.456  33.197  14.901
33795W        W98780  17.279  39.851  13.090
33796W        W98781  10.212  28.985  13.623
33797W        W98782  43.330  17.306  12.121
33798W        W98783   6.528  24.632   3.952
33799W        W98784  16.905  23.063  11.830
33800W        W98785   9.898   6.712  13.573
33801W        W98786  39.960   2.031   4.531
33802W        W98787  42.312  38.751   3.686
33803W        W98788   1.514  32.428  13.436
33804W        W98789  27.897  15.988   1.861
33805W        W98790  38.569  22.153  13.853
33806W        W98791  10.322  19.227   0.669
33807W        W98792  15.333   8.770  14.293
33808W        W98793  39.373  14.584  13.101
33809W        W98794  38.430  25.674   0.885
33810W        W98795  10.161  14.798   4.620
33811W        W98796  14.337  11.753  10.444
33812W        W98797  33.751  11.362   4.612
33813W        W98798  36.584   0.853   2.639
33814W        W98799   7.318  34.149  11.175
33815W        W98800   8.815  20.257  14.262
33816W        W98801  25.047  11.231   4.040
33817W        W98802  27.602  41.938   2.360
33818W        W98803   2.830  25.388   1.170
33819W        W98804  14.140  10.342  14.592
33820W        W98805  35.354  31.160   2.794
33821W        W98806  30.442  28.348   0.819
33822W        W98807  26.463  44.201  14.513
33823W        W98808  42.033  24.658  14.707
33824W        W98809  18.265   6.483  13.360
33825W        W98810  43.338  34.276   1.125
33826W        W98811  38.415   9.318  13.868
33827W        W98812  23.313   8.703   0.834
33828W        W98813   1.159  18.795  11.186
33829W        W98814  38.042  40.411   2.361
33830W        W98815  13.407  44.700  13.652
33831W        W98816   0.263  27.871   0.922
33832W        W98817  30.453  30.580  14.957
33833W        W98818  41.033   8.725   0.833
33834W        W98819  18.073  12.166   4.656
33835W        W98820   8.652  33.537   4.614
33836W        W98821  20.674  24.342  13.965
33837W        W98822  37.542  12.631  11.629
33838W        W98823  26.923  33.291   5.137
33839W        W98824  41.112  37.832   0.267
33840W        W98825  26.968   5.901   3.637
33841W        W98826  13.711  34.529   1.650
33842W        W98827  33.956  17.706  11.994
33843W        W98828   8.473   6.123  10.610
33844W        W98829  28.041  22.091   2.369
33845W        W98830  38.623   5.213   3.676
33846W        W98831  11.814   7.438  11.377
33847W        W98832  30.118  17.758  10.787
33848W        W98833  30.950  18.919   3.229
33849W        W98834   6.257  11.627  12.529
33850W        W98835  12.276   2.885   3.015
33851W        W98836  17.408  18.847   9.819
33852W        W98837  19.609  17.346  14.559
33853W        W98838  23.668  41.126  13.859
33854W        W98839   4.888  34.134   1.515
33855W        W98840  27.605  13.182  14.360
33856W        W98841  36.364  37.047   2.930
33857W        W98842  39.251  35.604   2.236
33858W        W98843  26.203   2.339  12.453
33859W        W98844  19.196  36.487   2.405
33860W        W98845  14.330  23.995   4.165
33861W        W98846   1.029   5.168  11.572
33862W        W98847  31.635  33.391   3.385
33863W        W98848   8.807  15.336   2.688
33864W        W98849  13.669   4.000   4.579
33865W        W98850  34.041  31.581  14.541
33866W        W98851  32.103  40.877   1.394
33867W        W98852  11.640  36.284   2.735
33868W        W98853   3.529  37.160  13.906
33869W        W98854  11.266  37.047  10.996
33870W        W98855  19.706   4.902   2.235
33871W        W98856  37.865   6.519  10.991
33872W        W98857   0.907  21.552  11.902
33873W        W98858  43.794  21.049   1.365
33874W        W98859  11.924   5.883   2.188
33875W        W98860  41.309  37.599   5.541
33876W        W98861   4.898  11.400   3.814
33877W        W98862  29.531  16.328  13.993
33878W        W98863  33.483  30.017   3.301
33879W        W98864   0.427   2.450   3.860
33880W        W98865   3.259  27.103   3.576
33881W        W98866  28.436  33.257  13.106
33882W        W98867  37.546  18.595  11.214
33883W        W98868  35.644  37.964   1.330
33884W        W98869  19.124  14.386   3.247
33885W        W98870  20.669   9.262   1.271
33886W        W98871  36.192  40.315  13.173
33887W        W98872  12.841  10.172   2.779
33888W        W98873  44.007  17.846  14.943
33889W        W98874   4.400  14.466  10.759
33890W        W98875  23.087  34.093   9.736
33891W        W98876  13.651  13.745   0.381
33892W        W98877  24.701  14.245   0.442
33893W        W98878  15.854  19.596   2.688
33894W        W98879   2.770   6.801   1.122
33895W        W98880   5.965  16.218   3.702
33896W        W98881  15.176  37.264  13.879
33897W        W98882   3.915   9.382   4.139
33898W        W98883  26.133   8.677   4.397
33899W        W98884  41.008  33.510   1.220
33900W        W98885  39.226  42.256  13.980
33901W        W98886  44.962   3.286   4.593
33902W        W98887   7.928  44.215   0.589
33903W        W98888  25.626  43.507   2.440
33904W        W98889  11.957  11.235  12.792
33905W        W98890   5.240   9.168   0.903
33906W        W98891  43.325   7.794   1.013
33907W        W98892  14.336  40.606   3.797
33908W        W98893   0.501  25.922   0.543
33909W        W98894   3.507  38.475  13.048
33910W        W98895  39.670  37.880   3.884
33911W        W98896   8.412  17.719   4.540
33912W        W98897   5.752   3.378   3.606
33913W        W98898   6.218  30.823   1.875
33914W        W98899  36.293  41.108  12.802
33915W        W98900   6.360  19.436   3.243
33916W        W98901  29.186  34.716  11.951
33917W        W98902  20.706  42.581  11.194
33918W        W98903  30.710   7.269   0.722
33919W        W98904   2.997  12.228  12.367
33920W        W98905   4.376   0.893   9.870
33921W        W98906   2.382  20.338  11.272
33922W        W98907  35.450   1.306  12.514
33923W        W98908  42.858  14.635  11.070
33924W        W98909  37.999  15.312  14.382
33925W        W98910  20.105  15.701  10.713
33926W        W98911  34.070   5.299  12.179
33927W        W98912  19.886  19.617  14.571
33928W        W98913  11.407   4.909  14.765
33929W        W98914  36.275  36.774  14.714
33930W        W98915  38.766  27.257  12.597
33931W        W98916  12.759   9.156   2.668
33932W        W98917  13.341  27.493  10.236
33933W        W98918  31.996  19.636   3.358
33934W        W98919  36.949  23.833  12.575
33935W        W98920  18.520   4.301   2.716
33936W        W98921  26.108  12.461  12.478
33937W        W98922  23.198  19.576  14.799
33938W        W98923  37.800  32.111  10.913
33939W        W98924  21.675  32.210  14.879
33940W        W98925  13.215   9.719   1.721
33941W        W98926  16.833  14.806   3.779
33942W        W98927  33.302  14.216  13.112
33943W        W98928  30.454  39.227   2.149
33944W        W98929   1.510  41.907  11.631
33945W        W98930   3.966  12.640   1.450
33946W        W98931   2.841  15.071   1.132
33947W        W98932   3.044  15.420  14.926
33948W        W98933  30.974  40.346  13.290
33949W        W98934  35.799  19.535   0.193
33950W        W98935  13.461  20.501   1.970
33951W        W98936  21.313  29.103  11.506
33952W        W98937  21.183  14.165   2.617
33953W        W98938  16.981  17.556   0.264
33954W        W98939  25.867  43.226  11.775
33955W        W98940  31.173  28.305  13.490
33956W        W98941  15.258  31.893  12.464
33957W        W98942   6.682  43.364  12.410
33958W        W98943  22.558  35.035  13.390
33959W        W98944  37.767  28.649   4.108
33960W        W98945  21.190   5.844   1.768
33961W        W98946  22.713  10.913  10.689
33962W        W98947   1.670  28.948   1.349
33963W        W98948  22.289  22.843  13.734
33964W        W98949  27.652  36.044   0.760
33965W        W98950   1.239  34.098   4.781
33966W        W98951   4.294  44.465  12.105
33967W        W98952  21.329  14.672   4.541
33968W        W98953   2.837  44.381   2.747
33969W        W98954  28.047  30.672  13.746
33970W        W98955  10.338  17.717   0.997
33971W        W98956  38.338  26.084   2.265
33972W        W98957  42.711  14.099   0.442
33973W        W98958  36.455  13.323   4.560
33974W        W98959  15.571  38.806   1.289
33975W        W98960  35.632  39.260   1.003
33976W        W98961   6.947   9.873  14.330
33977W        W98962  29.420  15.230   1.893
33978W        W98963  22.734  34.223  10.130
33979W        W98964  26.967   8.617   0.008
33980W        W98965  36.589  27.467   2.716
33981W        W98966  15.519  18.042  14.373
33982W        W98967  38.412  16.671  11.913
33983W        W98968   7.879  16.761  11.110
33984W        W98969  21.621  17.611   1.419
33985W        W98970  23.292  20.804   2.244
33986W        W98971  41.399   1.858  14.937
33987W        W98972  26.018   1.070  13.023
33988W        W98973  40.411  21.069   1.419
33989W        W98974  24.928   5.446   3.686
33990W        W98975  34.542  22.317   1.909
33991W        W98976  41.613   1.326   2.704
33992W        W98977  20.926  27.009   2.137
33993W        W98978   3.578  39.638   4.652
33994W        W98979  13.259  20.613   3.387
33995W        W98980  17.770  24.930   2.929
33996W        W98981  34.162   2.948   2.881
33997W        W98982  12.884  14.710  13.444
33998W        W98983   8.344   6.245  14.287
33999W        W98984  11.469  43.276  13.432
34000W        W98985  11.916  14.347  10.376
34001W        W98986  29.318  14.949   3.030
34002W        W98987  22.584  39.380   1.683
34003W        W98988   3.341  44.336  11.886
34004W        W98989  37.506  37.822   2.483
34005W        W98990   7.474  31.940   1.349
34006W        W98991  31.163   9.414  12.138
34007W        W98992  31.051  30.489  10.631
34008W        W98993  33.376  14.756   1.169
34009W        W98994   7.744   7.594  14.763
34010W        W98995   7.210  17.678   1.272
34011W        W98996   6.083  39.340   1.328
34012W        W98997   7.207   7.573   3.821
34013W        W98998  42.124  15.490   9.590
34014W        W98999  24.859  19.649   1.887
34015W        W99000  28.371  13.074  12.861
34016W        W99001  25.731  17.290   1.833
34017W        W99002  24.522  28.409   2.758
34018W        W99003  40.420  24.409  13.017
34019W        W99004  20.702  23.309   9.965
34020W        W99005   6.234  22.221   4.965
34021W        W99006  15.385  26.961   0.744
34022W        W99007  31.469  24.163  13.362
34023W        W99008  25.195  29.515  13.453
34024W        W99009  42.067  42.015   3.697
34025W        W99010  14.632  26.476  11.198
34026W        W99011   1.752  32.655  14.102
34027W        W99012  25.472   1.752   1.843
34028W        W99013  21.694   1.202  14.237
34029W        W99014  37.470  32.554  10.748
34030W        W99015   4.450  32.475  12.893
34031W        W99016  23.879   6.644   1.915
34032W        W99017  30.299  33.450   1.893
34033W        W99018  32.886   5.802   1.574
34034W        W99019  19.768   9.090   2.597
34035W        W99020  15.708  10.508   4.002
34036W        W99021  20.415  38.000  12.611
34037W        W99022  42.315  22.029  11.110
34038W        W99023  41.973  10.238  12.943
34039W        W99024  43.862  36.967  14.973
34040W        W99025  38.438  20.554   2.670
34041W        W99026  25.702  30.672  12.069
34042W        W99027  43.757  24.467   4.585
34043W        W99028  16.793  22.975  14.011
34044W        W99029  12.507  35.135  13.388
34045W        W99030  25.635   3.675  13.277
34046W        W99031  42.379   2.790  14.638
34047W        W99032  17.771   5.452  13.985
34048W        W99033   3.309  44.292  14.745
34049W        W99034   5.000  43.854  10.528
34050W        W99035  11.886  20.636   4.594
34051W        W99036  11.845  17.328  14.262
34052W        W99037  24.772  15.783   2.715
34053W        W99038  37.914  17.089   2.737
34054W        W99039   4.283   0.811  13.285
34055W        W99040  17.717  36.298   0.273
34056W        W99041  13.647  15.861   0.215
34057W        W99042   4.950  33.583   3.726
34058W        W99043  23.954  29.455   5.070
34059W        W99044   2.504  18.478   3.452
34060W        W99045  14.579   6.424  12.428
34061W        W99046  44.234  10.750  12.576
34062W        W99047   2.367  20.587   3.612
34063W        W99048   7.321   4.366   1.299
34064W        W99049  42.974   3.099   3.435
34065W        W99050  27.657  17.773  11.838
34066W        W99051   4.187  37.626  11.046
34067W        W99052  20.987  19.556  12.631
34068W        W99053   3.290  25.070  12.588
34069W        W99054  30.722  12.313   2.364
34070W        W99055  26.418  42.793  13.026
34071W        W99056   1.497   1.055   4.225
34072W        W99057  19.192  19.773   0.923
34073W        W99058  42.842  11.298   2.249
34074W        W99059  41.985   3.665   0.280
34075W        W99060  18.118  26.320   4.292
34076W        W99061  36.867  41.768  12.449
34077W        W99062  23.241   6.938   0.767
34078W        W99063  37.809  19.946   3.304
34079W        W99064  18.707  39.041   1.479
34080W        W99065   3.245  35.259   4.214
34081W        W99066  21.163  34.453  10.925
34082W        W99067  44.580  30.936   4.117
34083W        W99068   1.319   2.155  14.755
34084W        W99069   7.852  25.988   0.117
34085W        W99070   6.482  33.802  12.629
34086W        W99071   7.612   2.149  11.171
34087W        W99072  29.588   5.214   4.489
34088W        W99073   5.315  19.786  10.506
34089W        W99074  18.744  19.027   0.144
34090W        W99075  32.071   3.006  11.691
34091W        W99076   1.797  17.687  11.786
34092W        W99077  38.311  12.245   3.823
34093W        W99078  14.183  37.678  12.328
34094W        W99079  21.920  11.485   0.043
34095W        W99080  21.092  42.289   2.345
34096W        W99081  41.306  31.829  13.440
34097W        W99082  14.621   5.874   2.830
34098W        W99083  28.246  38.426  14.472
34099W        W99084  36.906  44.802  13.607
34100W        W99085  35.118  43.998  14.495
34101W        W99086  27.025  33.194  13.711
34102W        W99087  35.356  44.872   4.367
34103W        W99088   1.019   4.225  11.623
34104W        W99089  20.599  14.291  12.961
34105W        W99090  39.530  31.968   3.649
34106W        W99091  14.090  25.929   0.424
34107W        W99092  36.596  32.294  12.526
34108W        W99093   2.654  20.821  11.098
34109W        W99094  24.656  36.056  11.949
34110W        W99095  21.788   1.015   0.831
34111W        W99096   5.331  12.200   1.229
34112W        W99097  21.484   9.191  14.876
34113W        W99098   4.016   5.742   3.145
34114W        W99099   8.390  24.046   4.857
34115W        W99100  17.823  42.354   1.948
34116W        W99101  10.759  32.568  10.976
34117W        W99102   6.936  26.128  13.900
34118W        W99103   5.245  16.719   1.720
34119W        W99104  32.687   6.319   1.958
34120W        W99105  13.257  31.367  12.369
34121W        W99106  36.520  36.274   0.705
34122W        W99107  25.549  18.130   2.483
34123W        W99108  38.548  36.543   2.620
34124W        W99109  35.789   9.359   2.047
34125W        W99110   7.375  16.366   2.425
34126W        W99111  14.519   3.038  13.994
34127W        W99112  30.707  36.493  11.200
34128W        W99113  40.063  32.542  13.327
34129W        W99114  28.503  43.516   4.800
34130W        W99115   3.183  25.695   0.866
34131W        W99116  11.376  44.010  12.932
34132W        W99117  39.312   5.927  13.000
34133W        W99118   9.608  14.756  11.926
34134W        W99119  37.320   5.924   0.075
34135W        W99120   9.287  34.610   0.377
34136W        W99121  12.348  41.998   1.717
34137W        W99122   4.205  38.804   2.696
34138W        W99123  23.189  35.634  13.798
34139W        W99124  27.144  20.485   3.065
34140W        W99125  43.486  29.814  13.397
34141W        W99126  12.796  16.314  12.971
34142W        W99127   6.417  13.315   3.813
34143W        W99128   8.172   8.150  13.478
34144W        W99129  23.291  28.596  11.073
34145W        W99130  16.109   3.702   2.662
34146W        W99131  39.428  23.641  12.436
34147W        W99132  39.511  15.585  14.976
34148W        W99133  25.711  27.600  12.440
34149W        W99134  26.884  23.471  12.982
34150W        W99135  23.563  14.586   3.188
34151W        W99136  34.278  29.003  11.619
34152W        W99137   9.639  30.347   3.529
34153W        W99138   5.980  19.701   2.258
34154W        W99139   0.755  32.675   4.051
34155W        W99140  28.632  42.514   3.638
34156W        W99141   1.545  21.639  11.029
34157W        W99142  26.972  27.435  12.244
34158W        W99143   1.954  24.073   0.809
34159W        W99144  22.623  40.710  11.278
34160W        W99145   7.676   3.305  13.333
34161W        W99146  18.975  26.675   0.173
34162W        W99147  20.221  33.172   0.456
34163W        W99148  33.400   7.345  12.729
34164W        W99149   8.686   6.382   0.024
34165W        W99150  14.640  37.629   2.256
34166W        W99151   3.362   9.443   1.109
34167W        W99152   3.457  22.590  12.454
34168W        W99153  16.472  33.295   1.921
34169W        W99154  38.308  34.259   3.547
34170W        W99155  21.650   3.638   1.472
34171W        W99156  41.938  31.633   2.862
34172W        W99157  22.261   9.873   1.787
34173W        W99158  15.623  30.927   2.388
34174W        W99159  12.216   6.144  11.171
34175W        W99160  22.092   0.972   1.872
34176W        W99161  15.602   1.247   0.839
34177W        W99162  22.494  25.107   0.433
34178W        W99163   5.183  10.738  13.443
34179W        W99164   1.724  16.969   0.891
34180W        W99165  33.568  41.052  11.221
34181W        W99166   3.238  17.543   1.511
34182W        W99167   0.059  10.809   4.021
34183W        W99168   9.773   4.737  14.080
34184W        W99169  25.047  34.836   2.598
34185W        W99170  36.908  38.363   2.640
34186W        W99171  10.189   2.097   3.067
34187W        W99172  30.162  22.032  12.067
34188W        W99173  15.581  17.117   3.434
34189W        W99174  31.705  24.032   4.741
34190W        W99175   5.112   7.290   4.535
34191W        W99176  30.907  14.256   4.622
34192W        W99177  31.742  31.178  11.103
34193W        W99178  28.714  27.014   1.336
34194W        W99179   5.383  36.288   5.016
34195W        W99180  44.844  44.751   3.092
34196W        W99181  27.388   0.987   0.080
34197W        W99182  12.266  42.940  10.375
34198W        W99183  15.704  22.907   3.561
34199W        W99184   5.302  17.628   2.123
34200W        W99185  38.375   0.332  13.945
34201W        W99186  12.700  20.781  12.932
34202W        W99187   7.914  27.955  11.433
34203W        W99188  16.744  24.083  10.605
34204W        W99189   0.907  17.649  11.832
34205W        W99190   0.440  11.192   3.319
34206W        W99191   7.874  15.573   2.413
34207W        W99192  40.056   8.552  11.312
34208W        W99193  35.902  44.424   0.240
34209W        W99194  41.696   3.228   0.239
34210W        W99195  26.546  40.285  14.443
34211W        W99196  36.494  17.034   1.176
34212W        W99197  43.449  36.065   4.303
34213W        W99198  23.581  41.899   3.905
34214W        W99199  23.017  42.481  13.820
34215W        W99200  13.869  24.577  10.896
34216W        W99201   6.969  41.516  12.762
34217W        W99202  30.636   2.752  10.485
34218W        W99203  20.604  13.208   3.342
34219W        W99204  19.610   5.283  13.328
34220W        W99205  30.539  43.656   3.773
34221W        W99206  30.656  10.586   1.082
34222W        W99207  33.334  34.119  12.754
34223W        W99208  38.329  37.657  13.392
34224W        W99209  41.784  33.958   4.074
34225W        W99210   1.474  16.553   2.325
34226W        W99211  10.571  12.810  13.542
34227W        W99212  21.321  35.766  12.076
34228W        W99213  28.576  25.751   4.089
34229W        W99214  17.817   4.977   3.223
34230W        W99215   5.284   1.576  11.689
34231W        W99216   9.591  19.551  14.553
34232W        W99217  44.912  23.665  10.664
34233W        W99218  21.746  42.978   4.319
34234W        W99219  34.105  26.135  12.019
34235W        W99220  29.057   4.167   2.667
34236W        W99221  17.722  10.909  14.000
34237W        W99222   1.721  23.333   2.429
34238W        W99223  35.744  38.774   1.608
34239W        W99224  23.547   3.810  11.088
34240W        W99225  25.682  22.092   3.200
34241W        W99226  11.676   9.107   4.882
34242W        W99227  35.791  13.534   3.677
34243W        W99228  12.145  39.126  11.212
34244W        W99229  37.127  21.451   2.261
34245W        W99230  31.048  27.521  11.493
34246W        W99231   0.679  36.867  12.965
34247W        W99232  15.178  40.863   3.748
34248W        W99233  25.501   8.370   2.706
34249W        W99234  27.893  36.521  10.696
34250W        W99235   7.196  22.366  12.909
34251W        W99236   7.718  19.831  14.461
34252W        W99237  12.879   6.785   3.032
34253W        W99238  14.645  17.521   2.574
34254W        W99239  24.819   1.420   1.788
34255W        W99240  29.938   9.405   1.410
34256W        W99241  24.200  38.939  10.752
34257W        W99242  42.025  42.319   2.888
34258W        W99243  25.869   4.920  10.050
34259W        W99244  24.886  39.207  14.514
34260W        W99245  26.642  15.466   2.431
34261W        W99246  13.322  19.994   4.236
34262W        W99247  44.996   5.923  13.596
34263W        W99248  21.064  37.231   2.326
34264W        W99249  16.344   3.717  14.327
34265W        W99250  40.878  38.079  11.500
34266W        W99251  11.047  10.601   3.135
34267W        W99252  43.553  31.633   4.767
34268W        W99253   8.599  40.282  11.130
34269W        W99254  29.770   6.400   4.160
34270W        W99255  13.719  14.840   1.665
34271W        W99256  31.701  15.879   3.066
34272W        W99257  23.709  37.128  11.237
34273W        W99258  24.152  17.038  14.747
34274W        W99259  29.443  10.792  12.598
34275W        W99260  26.570   0.094  14.887
34276W        W99261  26.047  21.505   0.274
34277W        W99262  27.688  10.143   2.083
34278W        W99263   6.712  15.100   2.736
34279W        W99264  25.271   7.789  14.952
34280W        W99265  14.188  36.527   0.296
34281W        W99266   0.997   0.731  12.352
34282W        W99267  37.346  30.928  14.426
34283W        W99268  43.773  31.532   2.358
34284W        W99269  13.262  36.383   3.201
34285W        W99270  43.755  33.129   1.207
34286W        W99271  23.833  29.849   1.319
34287W        W99272  16.097  11.768   0.349
34288W        W99273  40.954   5.777   4.877
34289W        W99274   1.836  19.478   2.420
34290W        W99275  44.273   5.265  12.971
34291W        W99276  42.328  12.765  11.782
34292W        W99277  17.382  28.780   0.507
34293W        W99278  13.113  30.391   2.704
34294W        W99279  18.174   0.053  13.391
34295W        W99280  39.511  26.786   4.408
34296W        W99281  21.304   7.380   2.740
34297W        W99282   5.429  44.748   3.148
34298W        W99283  16.223   1.679   1.230
34299W        W99284  38.500  12.363   1.211
34300W        W99285   7.385  44.274  11.111
34301W        W99286  20.111  29.418   0.315
34302W        W99287  19.450  41.535   2.856
34303W        W99288  35.370  31.055  13.311
34304W        W99289  31.646   7.835  12.653
34305W        W99290  31.900  14.520  11.065
34306W        W99291   7.431  39.798   3.242
34307W        W99292  23.745   9.332  11.015
34308W        W99293  22.777   1.518   5.546
34309W        W99294  16.685  15.019  11.215
34310W        W99295  37.300  19.054   0.017
34311W        W99296   6.688  16.504   2.788
34312W        W99297  10.151  31.839  13.862
34313W        W99298  21.941  13.366   0.310
34314W        W99299  24.699   3.873   0.850
34315W        W99300  11.588   5.833  10.607
34316W        W99301   1.251  41.002  13.934
34317W        W99302   8.238   4.830   0.258
34318W        W99303  36.813   2.148   2.216
34319W        W99304  42.565  31.899   0.963
34320W        W99305  17.211  16.800  13.352
34321W        W99306  20.036  29.959  10.436
34322W        W99307  27.412   3.832   4.130
34323W        W99308  40.770  31.639   4.069
34324W        W99309   5.013  32.940   2.016
34325W        W99310  14.292  36.874   3.216
34326W        W99311  26.489  11.032   2.319
34327W        W99312  21.654  41.296   1.600
34328W        W99313  31.217   0.011   1.413
34329W        W99314  42.923  18.659  14.053
34330W        W99315   4.769   7.426  14.917
34331W        W99316  21.469  23.149   1.177
34332W        W99317   4.590  26.823   9.980
34333W        W99318  42.203  11.123   0.787
34334W        W99319  37.995  36.620   0.833
34335W        W99320  18.228  27.559  12.611
34336W        W99321   4.388  18.641  10.728
34337W        W99322  41.387  29.299   0.956
34338W        W99323   2.208   6.551   0.085
34339W        W99324  26.137  20.272   2.868
34340W        W99325  36.380  25.582   3.618
34341W        W99326   7.678  28.381  11.595
34342W        W99327  17.731  14.721  12.945
34343W        W99328   2.976  19.209  14.971
34344W        W99329  28.550  27.499  13.343
34345W        W99330  35.392   2.756  11.709
34346W        W99331  38.526   5.461  11.336
34347W        W99332  12.088  15.834  13.866
34348W        W99333  26.062  23.441   3.482
34349W        W99334  26.505  38.452  10.183
34350W        W99335  40.030  22.484  11.204
34351W        W99336  33.551  39.850   0.320
34352W        W99337  22.202  17.201  10.972
34353W        W99338  25.671  44.377  14.946
34354W        W99339  30.150  42.528  12.535
34355W        W99340  13.837  42.530  11.132
34356W        W99341  27.998  24.072   0.252
34357W        W99342  27.750   1.031  12.073
34358W        W99343   7.680  32.048   1.825
34359W        W99344  20.495   4.534   4.746
34360W        W99345  31.974  33.266   2.239
34361W        W99346  38.864  31.171   2.143
34362W        W99347   4.382  15.304  13.803
34363W        W99348  34.419  17.628  11.448
34364W        W99349  31.998   3.408   2.004
34365W        W99350  41.420  22.567  13.588
34366W        W99351  27.931   6.498   5.466
34367W        W99352  32.450  26.199  12.641
34368W        W99353   2.919  11.429   4.739
34369W        W99354  15.835   3.766  11.201
34370W        W99355  11.085  20.826  11.704
34371W        W99356   5.407  28.407  14.977
34372W        W99357  23.498   2.903   3.675
34373W        W99358  24.639  34.105   4.807
34374W        W99359  22.135  35.136   0.381
34375W        W99360  35.468   2.221  12.132
34376W        W99361  39.477  28.132   2.631
34377W        W99362  31.059   3.414   2.089
34378W        W99363  17.201   7.789  12.464
34379W        W99364  38.372  42.334   0.473
34380W        W99365  24.311  22.157  13.545
34381W        W99366  10.671   4.222  13.980
34382W        W99367   2.282   0.737  14.285
34383W        W99368  37.302  24.787   1.329
34384W        W99369  24.939  37.769  14.308
34385W        W99370  29.088  18.675  14.060
34386W        W99371  20.109  18.404  13.404
34387W        W99372  33.651  22.590  11.105
34388W        W99373  43.719   6.389   2.833
34389W        W99374  17.091  24.090   2.133
34390W        W99375  27.785  29.905   1.418
34391W        W99376   4.312  36.354  14.694
34392W        W99377  36.474  24.076  12.573
34393W        W99378   7.375  18.202   0.335
34394W        W99379  23.057  16.893  12.115
34395W        W99380  28.614  39.620   4.103
34396W        W99381  20.029  27.304  11.326
34397W        W99382   4.263  44.962   4.472
34398W        W99383  39.146  22.949  13.898
34399W        W99384  35.951  40.750  13.008
34400W        W99385  43.072  38.542  14.018
34401W        W99386  42.511  32.797  14.336
34402W        W99387  38.909   1.693  13.549
34403W        W99388   5.943  15.300   4.926
34404W        W99389  21.151  13.662   0.442
34405W        W99390  11.050  12.077  12.104
34406W        W99391  21.097  20.582  13.463
34407W        W99392  29.971  27.015   0.956
34408W        W99393  15.800  27.607   3.486
34409W        W99394  11.425  21.547  12.474
34410W        W99395  15.836  15.644   1.873
34411W        W99396   6.557  29.843   4.336
34412W        W99397  21.499  34.547  14.695
34413W        W99398  28.449  31.571   1.835
34414W        W99399  36.021  34.744  11.012
34415W        W99400  35.046  36.897  13.813
34416W        W99401  42.464  11.639   4.054
34417W        W99402  31.525   7.258   1.298
34418W        W99403  32.495  40.609   2.759
34419W        W99404   4.074  35.063   3.123
34420W        W99405  12.830  44.830  10.782
34421W        W99406   0.462  32.496  13.497
34422W        W99407  28.746  10.137  11.889
34423W        W99408  17.106  22.783   4.096
34424W        W99409  36.176  16.879  14.901
34425W        W99410   0.761  43.550  11.378
34426W        W99411   1.263   3.991  12.920
34427W        W99412  13.102  15.252   4.172
34428W        W99413   4.394   8.399   2.428
34429W        W99414  18.561  44.303   4.135
34430W        W99415  19.732  38.035  10.998
34431W        W99416  28.148  19.771   0.160
34432W        W99417   8.348   9.488  10.200
34433W        W99418  11.092   3.840   3.370
34434W        W99419  20.729  26.047   0.911
34435W        W99420   5.982  10.814   4.535
34436W        W99421  27.553  41.828   0.830
34437W        W99422  37.341   6.662   3.821
34438W        W99423  40.410  15.004   2.370
34439W        W99424  26.631  43.267   4.772
34440W        W99425  28.583  29.434  14.972
34441W        W99426  23.953  20.458  13.527
34442W        W99427  31.388  33.920   3.195
34443W        W99428  23.210   8.459  10.725
34444W        W99429  16.083  30.341   3.568
34445W        W99430  10.687  32.817   0.477
34446W        W99431  34.229  24.696  13.318
34447W        W99432  16.579   2.550   1.930
34448W        W99433  26.964  26.917   1.880
34449W        W99434  18.700  32.628   0.931
34450W        W99435   8.126  22.198   0.035
34451W        W99436  18.790  18.018   1.618
34452W        W99437  26.531  36.436   4.503
34453W        W99438  34.017  31.490   3.925
34454W        W99439   9.339   3.110  14.376
34455W        W99440  43.034  37.099   3.851
34456W        W99441  39.521  30.480   2.882
34457W        W99442  36.932  38.106  12.945
34458W        W99443  32.060  27.653   0.606
34459W        W99444  40.819  34.515   1.438
34460W        W99445  39.454  17.085  13.620
34461W        W99446   0.415  21.244  10.344
34462W        W99447  35.462  19.260   3.618
34463W        W99448  44.453  17.943   9.846
34464W        W99449  24.579  31.701   3.480
34465W        W99450  29.430  35.000  12.394
34466W        W99451  12.165  37.991   1.298
34467W        W99452  27.002  38.077  10.541
34468W        W99453  21.818  20.587  12.641
34469W        W99454  20.259  16.699  10.672
34470W        W99455   0.278  32.826   4.253
34471W        W99456  11.287   7.127   0.174
34472W        W99457   0.562  11.251  13.085
34473W        W99458  18.700  20.631  13.867
34474W        W99459  27.990  15.317   3.727
34475W        W99460  13.094  39.214   1.913
34476W        W99461   7.321   4.628  13.340
34477W        W99462   0.486  20.490  11.318
34478W        W99463  44.377  13.252   0.129
34479W        W99464  17.881  15.079   1.798
34480W        W99465  41.455  12.438  12.988
34481W        W99466   8.273  26.453  14.511
34482W        W99467  27.181   6.156  10.718
34483W        W99468   6.834  33.871  11.862
34484W        W99469  15.331  16.230   2.348
34485W        W99470  29.034  36.332   4.138
34486W        W99471  29.457  42.762   4.666
34487W        W99472  19.544   8.281   4.203
34488W        W99473  44.158  40.304  12.997
34489W        W99474  34.029  44.889  10.398
34490W        W99475  24.649  15.841   0.930
34491W        W99476  28.549   2.278  14.508
34492W        W99477   0.445  21.513   9.900
34493W        W99478   4.444   8.112  14.898
34494W        W99479   5.394   7.776  13.019
34495W        W99480   3.315  34.732   4.277
34496W        W99481  36.640  38.090  11.976
34497W        W99482  36.573   9.379  14.520
34498W        W99483   5.360  15.571  10.583
34499W        W99484   8.762  10.434   1.725
34500W        W99485  18.250   4.658  12.995
34501W        W99486   5.513  11.902   0.756
34502W        W99487  32.487   1.769  13.818
34503W        W99488  19.852  30.053   4.145
34504W        W99489  32.991  23.289  12.026
34505W        W99490  43.098  18.853  12.049
34506W        W99491   1.013  10.350   3.249
34507W        W99492   6.790  34.676  13.317
34508W        W99493   7.418   0.660  13.882
34509W        W99494  41.376  19.294  10.605
34510W        W99495  25.513   8.315   0.795
34511W        W99496   2.454  16.778   0.677
34512W        W99497  15.023  39.438  12.442
34513W        W99498  15.156  43.943   0.860
34514W        W99499  39.475  43.007   0.811
34515W        W99500  21.752  15.877   4.216
34516W        W99501  35.642  31.615   3.718
34517W        W99502   1.235  34.379  14.441
34518W        W99503  34.495   7.704  13.314
34519W        W99504  25.031  17.028   1.319
34520W        W99505  34.946  42.572   3.649
34521W        W99506  24.637  26.176  10.811
34522W        W99507  40.787  40.288   2.258
34523W        W99508  32.932  29.643  11.236
34524W        W99509   5.275  30.285  12.140
34525W        W99510  41.365   5.940   1.652
34526W        W99511   6.480  17.702  14.564
34527W        W99512  11.112   5.089  13.553
34528W        W99513  22.552  11.252   3.183
34529W        W99514   1.899  31.374  10.609
34530W        W99515  31.290  11.778   3.993
34531W        W99516  22.508  28.252  11.931
34532W        W99517  20.814  33.243   5.310
34533W        W99518   9.522  14.164  14.499
34534W        W99519  22.313  23.591   4.188
34535W        W99520   7.112   4.171  13.604
34536W        W99521   2.549  25.047  11.364
34537W        W99522   7.075  13.765  12.190
34538W        W99523  16.308  11.542   1.356
34539W        W99524  31.341  28.067  12.137
34540W        W99525  32.487  28.007   3.547
34541W        W99526   8.389  38.014  14.727
34542W        W99527  37.791   2.967  13.567
34543W        W99528   4.286  17.290   1.344
34544W        W99529  31.699   5.438   4.086
34545W        W99530  16.352   0.299   1.453
34546W        W99531  41.048   6.648  13.926
34547W        W99532  14.220  36.657  13.856
34548W        W99533  16.163   1.357   1.651
34549W        W99534  31.935  30.991   3.732
34550W        W99535  40.078   6.629  13.366
34551W        W99536   5.890  21.228   4.220
34552W        W99537  13.204  27.053  13.345
34553W        W99538  30.451   2.166  12.531
34554W        W99539  25.642  17.146   3.606
34555W        W99540  42.454   2.920  10.815
34556W        W99541  19.093  16.552   1.301
34557W        W99542  28.751  33.914   2.729
34558W        W99543  32.998  41.123   0.403
34559W        W99544  28.234   0.820   2.625
34560W        W99545  16.217  21.197   1.846
34561W        W99546   2.225  44.436   0.350
34562W        W99547   8.902  21.227   1.344
34563W        W99548  39.319  15.043   1.406
34564W        W99549   7.421  10.907   0.673
34565W        W99550  26.722  31.501  10.245
34566W        W99551  37.514  19.315  13.884
34567W        W99552  12.259  22.507  12.094
34568W        W99553  41.832   5.415  11.083
34569W        W99554  19.695  27.000  11.073
34570W        W99555  30.066  43.787   3.951
34571W        W99556   8.215  40.567  14.228
34572W        W99557  30.248  18.610   0.356
34573W        W99558  22.230   2.431  12.552
34574W        W99559  38.589  40.049  11.449
34575W        W99560  28.834  26.242  11.760
34576W        W99561   0.935  22.451  11.901
34577W        W99562  13.561  40.028   4.062
34578W        W99563  29.660  21.636  11.985
34579W        W99564  16.963  36.401   4.111
34580W        W99565   8.329   2.254   2.702
34581W        W99566  21.264  44.180  14.089
34582W        W99567  38.522  19.276  12.909
34583W        W99568  44.662  43.807   1.736
34584W        W99569   1.732   7.483  11.221
34585W        W99570  36.228  44.238   0.978
34586W        W99571  24.472   0.365  14.099
34587W        W99572  27.052  24.643  11.916
34588W        W99573  14.594  16.171  13.545
34589W        W99574  31.326  12.300   4.030
34590W        W99575   7.821  31.243  10.495
34591W        W99576  17.646  35.245   0.357
34592W        W99577  33.513  17.377  12.125
34593W        W99578  40.846  34.299  13.526
34594W        W99579  18.606  13.672  14.265
34595W        W99580  35.548  24.436   1.905
34596W        W99581  10.947   0.183  14.295
34597W        W99582  15.383   7.627  12.283
34598W        W99583   4.359   4.779   3.401
34599W        W99584  40.882  25.939   1.775
34600W        W99585  16.531  21.204  13.422
34601W        W99586  21.044  30.652  12.609
34602W        W99587   1.298  33.393   0.873
34603W        W99588  24.110   0.277   1.872
34604W        W99589  13.830  40.897   4.066
34605W        W99590  38.070  37.265  10.851
34606W        W99591  22.263   9.409  11.911
34607W        W99592  18.848  44.928   0.221
34608W        W99593  21.927  30.957  14.321
34609W        W99594   5.166  27.002  13.411
34610W        W99595  27.620  19.164   0.397
34611W        W99596  16.745  17.355   1.192
34612W        W99597  14.382   7.359  13.165
34613W        W99598  27.498  24.658  13.941
34614W        W99599  36.928   0.347  11.116
34615W        W99600   0.710  26.018  11.192
34616W        W99601  10.472  10.560   3.130
34617W        W99602  10.352  37.182  11.209
34618W        W99603  12.564   1.789  11.838
34619W        W99604  30.703   4.887  14.504
34620W        W99605   4.735  31.017   4.718
34621W        W99606  36.051  12.192  13.623
34622W        W99607  18.601  39.277  11.403
34623W        W99608  32.564  43.299  14.907
34624W        W99609  23.665   4.850   2.739
34625W        W99610  27.098  31.165  10.373
34626W        W99611  12.898  30.968  10.737
34627W        W99612  11.950   7.787  14.017
34628W        W99613  41.702  21.071   4.598
34629W        W99614  26.073  26.168  13.338
34630W        W99615  38.076   8.468  11.271
34631W        W99616  13.309  30.896  13.277
34632W        W99617   9.795  24.648  14.071
34633W        W99618  44.429  40.316   2.811
34634W        W99619   0.227  13.737  10.833
34635W        W99620  17.829   6.843   2.106
34636W        W99621  19.172   0.425  11.551
34637W        W99622  35.771  34.886   2.181
34638W        W99623  25.545  29.135   2.307
34639W        W99624   7.977  40.083   3.781
34640W        W99625   0.867  36.362   0.502
34641W        W99626  34.572   5.781  12.611
34642W        W99627  33.469   8.125   2.265
34643W        W99628  27.861   6.837   0.704
34644W        W99629  14.421  36.628  11.188
34645W        W99630  22.618  41.806   3.364
34646W        W99631   5.649  30.561   3.586
34647W        W99632   5.936  17.111  14.012
34648W        W99633  44.286   5.852  11.606
34649W        W99634  10.229  44.041   2.900
34650W        W99635  25.439  21.688  13.035
34651W        W99636  15.780  30.958   3.261
34652W        W99637  15.209  43.022   2.392
34653W        W99638  18.533  21.383  13.453
34654W        W99639  30.644  40.259  12.383
34655W        W99640  34.120  28.487  12.979
34656W        W99641  39.933  32.075  10.374
34657W        W99642  32.888  19.281   2.764
34658W        W99643  32.357   1.100  11.213
34659W        W99644  30.001  26.394  13.382
34660W        W99645  40.625  22.070   1.392
34661W        W99646   0.041  25.763  13.107
34662W        W99647  20.163   0.700   1.260
34663W        W99648  41.253  18.095   2.298
34664W        W99649  44.569  14.998  12.971
34665W        W99650  16.891  20.270   2.439
34666W        W99651   4.082  32.737  14.839
34667W        W99652  18.310  43.368  14.050
34668W        W99653  19.529   2.915  14.844
34669W        W99654   0.374  42.720   1.172
34670W        W99655  33.090  23.783  14.873
34671W        W99656   1.921   0.193   1.490
34672W        W99657   5.419   4.206   0.251
34673W        W99658  35.528  25.433  11.137
34674W        W99659  31.117   3.179   9.674
34675W        W99660  29.290  24.030  14.939
34676W        W99661  26.444  10.511   4.117
34677W        W99662  22.436  10.193   1.376
34678W        W99663  41.186  35.057   3.606
34679W        W99664  33.532  21.991  13.790
34680W        W99665  30.978   0.329  13.547
34681W        W99666  23.816  16.102   2.728
34682W        W99667  20.932  30.163  13.876
34683W        W99668  14.294  34.064   4.662
34684W        W99669   3.438   2.954  13.452
34685W        W99670  23.181  23.667   4.171
34686W        W99671  18.297  17.538  11.036
34687W        W99672  37.700  12.432  12.482
34688W        W99673   5.998  32.640  12.940
34689W        W99674  28.094  17.453   0.050
34690W        W99675   9.322  32.829   1.833
34691W        W99676  39.399  33.040   1.819
34692W        W99677  43.581  26.662   2.562
34693W        W99678   7.651  31.202  14.102
34694W        W99679   8.841  43.318   4.740
34695W        W99680  13.315  41.924   1.238
34696W        W99681  36.719  39.396   0.146
34697W        W99682  27.984  14.778  10.113
34698W        W99683  14.339  28.051  12.042
34699W        W99684  37.586  11.375  12.031
34700W        W99685  25.300  40.217   0.905
34701W        W99686  24.790   2.783   9.983
34702W        W99687  40.645  30.245   5.098
34703W        W99688  13.491   1.224  11.946
34704W        W99689  28.951  22.989   0.996
34705W        W99690  41.799  24.582  13.864
34706W        W99691  11.115  28.347   1.491
34707W        W99692   1.035  35.381  12.052
34708W        W99693  38.242  42.287  12.868
34709W        W99694  30.422   9.819  13.459
34710W        W99695   7.462   8.705  13.478
34711W        W99696  21.140  38.059   0.439
34712W        W99697  44.470  36.771  12.516
34713W        W99698  11.098  42.835  12.382
34714W        W99699   9.220  13.605  11.987
34715W        W99700   7.150   3.314  13.351
34716W        W99701   3.203  28.192  13.459
34717W        W99702  34.953   1.176   4.210
34718W        W99703  27.758   8.279   3.085
34719W        W99704  31.459   8.918  14.026
34720W        W99705  17.314  38.901   1.929
34721W        W99706  22.158   0.715   4.277
34722W        W99707  36.508   8.788   3.137
34723W        W99708  29.529  34.415  14.967
34724W        W99709  13.204  18.250   4.633
34725W        W99710  44.394  31.738  11.714
34726W        W99711  12.132   5.161   3.225
34727W        W99712   0.864   0.348   1.787
34728W        W99713  31.139  17.391  13.579
34729W        W99714  13.335  25.998   4.398
34730W        W99715   7.737  41.986  12.709
34731W        W99716   1.997  37.517   0.936
34732W        W99717  15.151   0.397   2.952
34733W        W99718   7.742  33.510  14.032
34734W        W99719   8.756  24.724   2.751
34735W        W99720  40.749  11.739  13.895
34736W        W99721   7.725  21.240  12.199
34737W        W99722  23.965   7.891  13.409
34738W        W99723   3.792  41.234  11.176
34739W        W99724  32.334  27.697  10.500
34740W        W99725  14.789  14.417   0.717
34741W        W99726  22.789   6.286  12.157
34742W        W99727  11.810  33.675   5.014
34743W        W99728  36.932  18.040  11.074
34744W        W99729  24.674  40.182   4.596
34745W        W99730  34.736  10.787  10.303
34746W        W99731  23.101   9.163   0.697
34747W        W99732  19.275  34.080  11.554
34748W        W99733  31.304  15.563   1.792
34749W        W99734  36.503   0.399  11.448
34750W        W99735  44.751   7.716  13.951
34751W        W99736  15.471  34.733   0.786
34752W        W99737   2.987  21.898   4.022
34753W        W99738  44.868  35.904  14.729
34754W        W99739  39.478  16.701  12.156
34755W        W99740  37.742  22.527  11.626
34756W        W99741  28.099  32.003  12.045
34757W        W99742   6.034  17.232  12.046
34758W        W99743   5.477  13.752  13.885
34759W        W99744  42.063  25.746  14.813
34760W        W99745  23.799   5.124  11.323
34761W        W99746   7.488  44.745  11.270
34762W        W99747  38.562  25.603   2.212
34763W        W99748  34.185  25.506  11.534
34764W        W99749  11.133  44.283   0.341
34765W        W99750  11.819  23.709  12.160
34766W        W99751  30.509   6.101  13.993
34767W        W99752  43.896  35.917   4.530
34768W        W99753  13.420  39.903  12.114
34769W        W99754  43.506  33.154  13.804
34770W        W99755  11.261  30.889   1.234
34771W        W99756  42.963  32.571  14.071
34772W        W99757   3.412  27.084  11.902
34773W        W99758  39.977  11.085   1.733
34774W        W99759  10.157  37.162   3.098
34775W        W99760  15.524  11.864  14.381
34776W        W99761  41.417  29.848   2.144
34777W        W99762  18.315  25.777   0.893
34778W        W99763  39.085   8.129   1.734
34779W        W99764  27.235  36.748   3.988
34780W        W99765  17.339  19.396   3.268
34781W        W99766  33.304  29.116   4.976
34782W        W99767  22.689  35.479   4.189
34783W        W99768  44.026  16.292  13.137
34784W        W99769  19.553   9.256   3.122
34785W        W99770  18.540  17.675   3.119
34786W        W99771  17.734   7.393   1.633
34787W        W99772  42.555  37.374   3.846
34788W        W99773  10.932  32.961   4.130
34789W        W99774  17.165   0.736  11.918
34790W        W99775  14.689  23.205   3.053
34791W        W99776  38.258   5.362   1.435
34792W        W99777  30.034   9.001  13.053
34793W        W99778  25.997  14.675   2.803
34794W        W99779  42.134  30.377  11.270
34795W        W99780  40.351  14.716   0.925
34796W        W99781  20.750  31.856  10.805
34797W        W99782  37.139  28.039  11.186
34798W        W99783  12.618  16.079  12.526
34799W        W99784  20.681  31.342   0.065
34800W        W99785  16.466  32.143  11.210
34801W        W99786  11.390  28.714  14.322
34802W        W99787   9.606   6.196  14.147
34803W        W99788   9.591  38.360   1.280
34804W        W99789  10.256  36.257  14.062
34805W        W99790   2.228  16.821   1.154
34806W        W99791  39.284  12.197  11.143
34807W        W99792  35.650  27.900   2.067
34808W        W99793  10.342  12.861   5.070
34809W        W99794  41.026  14.210  10.052
34810W        W99795  25.397   5.918   0.435
34811W        W99796  12.932  25.150   2.558
34812W        W99797  26.949  23.988   3.722
34813W        W99798  31.060  29.518  13.777
34814W        W99799  14.822  29.607  11.324
34815W        W99800  18.093  24.243  10.760
34816W        W99801  28.174  34.097  13.333
34817W        W99802  30.419   7.321  13.273
34818W        W99803  17.950   8.706  10.461
34819W        W99804  19.360  29.689   0.869
34820W        W99805  43.430   8.330   1.852
34821W        W99806  27.704  23.614  14.310
34822W        W99807  36.581  27.587   1.265
34823W        W99808  27.756  41.660   1.886
34824W        W99809  38.465  24.578   3.065
34825W        W99810  38.449  19.769  13.000
34826W        W99811  14.236   1.425   0.842
34827W        W99812  17.199  17.121   4.233
34828W        W99813  26.948  21.761  12.475
34829W        W99814  26.981  15.424  14.339
34830W        W99815  31.047   4.503  14.624
34831W        W99816  29.641  15.230   3.347
34832W        W99817  10.918  23.554  13.955
34833W        W99818  14.897  36.588  12.083
34834W        W99819  24.605  37.329  13.460
34835W        W99820  35.535  16.722  12.592
34836W        W99821   7.108  20.250  10.825
34837W        W99822   8.769  19.365  13.543
34838W        W99823  41.095  13.556   5.551
34839W        W99824  16.996   9.888   1.259
34840W        W99825  26.147  31.435   4.192
34841W        W99826  28.402   9.834   0.261
34842W        W99827   6.775  30.287   4.143
34843W        W99828  11.670  42.549   2.660
34844W        W99829  19.156  37.616  13.034
34845W        W99830  43.587   3.302   1.767
34846W        W99831  38.140  10.936   4.010
34847W        W99832  41.442  34.418   3.134
34848W        W99833  44.950  33.373  13.380
34849W        W99834  39.105  34.852  10.654
34850W        W99835  30.595  37.020  12.921
34851W        W99836  28.343   8.575   0.019
34852W        W99837  38.534  35.714   0.501
34853W        W99838  18.461  36.796  11.031
34854W        W99839  41.410  13.831   0.559
34855W        W99840  12.740  23.080   4.548
34856W        W99841  27.177   1.324  13.573
34857W        W99842  27.967  30.154  12.129
34858W        W99843  42.150  18.503   4.996
34859W        W99844   9.834  34.844  12.114
34860W        W99845  36.386  14.604  11.028
34861W        W99846  33.686  13.655  13.264
34862W        W99847   0.843  34.024   3.556
34863W        W99848   0.468  14.400   1.404
34864W        W99849  38.478  10.780   4.742
34865W        W99850  19.158  13.066  10.530
34866W        W99851  31.723  33.366   3.898
34867W        W99852  16.932  33.515   1.680
34868W        W99853   3.779   8.872   1.842
34869W        W99854  29.049  43.030   3.525
34870W        W99855  14.359   9.651  11.071
34871W        W99856  26.404  14.554  12.589
34872W        W99857  43.547  20.914  10.147
34873W        W99858  15.189  17.893   3.163
34874W        W99859  19.575  23.459  13.400
34875W        W99860  43.074  33.031   4.214
34876W        W99861   2.134  13.126  13.685
34877W        W99862   4.785   8.961   0.854
34878W        W99863  40.566  12.583   1.312
34879W        W99864   0.326  10.140  13.205
34880W        W99865  31.164  24.551  14.051
34881W        W99866  37.500  35.611   3.572
34882W        W99867  28.834  29.114  11.952
34883W        W99868  27.138  27.048  11.553
34884W        W99869  34.471  22.244  11.024
34885W        W99870  37.592  28.549   2.260
34886W        W99871  28.213  10.813   2.985
34887W        W99872  42.551   1.606   2.446
34888W        W99873  31.613  13.554   0.511
34889W        W99874  10.939   5.831   2.313
34890W        W99875  19.192  24.010   2.283
34891W        W99876  35.100   0.578   1.179
34892W        W99877   8.851  24.030   4.599
34893W        W99878  19.254  28.469   1.663
34894W        W99879  42.584   9.335  12.863
34895W        W99880   5.250  24.136   3.734
34896W        W99881   1.697  22.141  14.263
34897W        W99882  12.606  25.757  13.969
34898W        W99883  22.206  12.218  12.330
34899W        W99884  24.239  15.641   3.679
34900W        W99885  30.637  15.995   1.270
34901W        W99886  37.587  13.391  13.833
34902W        W99887  28.517  21.132  13.001
34903W        W99888   4.650  19.985  12.809
34904W        W99889  26.070  13.078   1.314
34905W        W99890  14.068  15.723   4.575
34906W        W99891  26.740   6.084   2.378
34907W        W99892   8.232   3.900   1.300
34908W        W99893  37.485  12.101   0.049
34909W        W99894  18.603   2.040  13.433
34910W        W99895  22.451  21.025   2.759
34911W        W99896  33.623   0.821  12.137
34912W        W99897  44.805  42.437   1.429
34913W        W99898  44.385  15.093  14.937
34914W        W99899  42.003  15.166   0.241
34915W        W99900  14.173  22.996   2.248
34916W        W99901  16.232  20.492  11.058
34917W        W99902  25.145  28.992   3.238
34918W        W99903  19.251  21.271  12.037
34919W        W99904  36.003  38.926  12.350
34920W        W99905  15.092  38.486   2.974
34921W        W99906  24.368  25.777  14.468
34922W        W99907  14.254  20.276  14.471
34923W        W99908   6.739  11.887   4.058
34924W        W99909  36.373   7.387   0.526
34925W        W99910  27.679   6.926  13.895
34926W        W99911  12.246  38.398   3.720
34927W        W99912  16.207  43.800  12.049
34928W        W99913  26.201   9.260  14.955
34929W        W99914  15.250  28.470   0.795
34930W        W99915   5.443  41.281   3.639
34931W        W99916   8.002  25.060  13.020
34932W        W99917  19.103   3.825  14.577
34933W        W99918  17.664  12.573  11.134
34934W        W99919  31.129  10.392   1.275
34935W        W99920  35.422  35.052   1.374
34936W        W99921  33.858  26.059  14.828
34937W        W99922  40.160  16.793  14.547
34938W        W99923   9.283  15.097  14.537
34939W        W99924   0.824  39.449   3.075
34940W        W99925   1.060  32.380   1.790
34941W        W99926  36.684  24.073  11.599
34942W        W99927   0.020  20.769  12.124
34943W        W99928  32.274  33.950   2.856
34944W        W99929  29.866  24.232  11.488
34945W        W99930   4.894  11.224  11.666
34946W        W99931  11.188  27.176  11.834
34947W        W99932   9.789  35.179   0.809
34948W        W99933   5.376  33.975   2.922
34949W        W99934  20.705  33.204   3.379
34950W        W99935  22.978   0.908  14.110
34951W        W99936   2.896  25.589  11.976
34952W        W99937   6.101  23.006  14.913
34953W        W99938  40.337  35.732   0.017
34954W        W99939  14.843  26.254  12.039
34955W        W99940   0.350  16.582  13.353
34956W        W99941   1.738  14.252   1.770
34957W        W99942   4.584  27.770   1.737
34958W        W99943  23.134  32.645   1.494
34959W        W99944  11.719  11.812   2.390
34960W        W99945  25.480  36.405  11.048
34961W        W99946   4.676  20.790   1.682
34962W        W99947  36.514  15.676   3.346
34963W        W99948  17.323  11.293  14.862
34964W        W99949   0.711  29.548   0.209
34965W        W99950  10.524  18.067  11.627
34966W        W99951  42.267  12.001  12.210
34967W        W99952  36.430  33.740  12.118
34968W        W99953  41.620  36.041   0.350
34969W        W99954  21.214  15.040  13.218
34970W        W99955  33.559  19.756  12.830
34971W        W99956  17.882   6.440  11.774
34972W        W99957   9.089  36.629   1.266
34973W        W99958  23.571  13.682   0.459
34974W        W99959  20.325   3.946   2.945
34975W        W99960  21.370   9.748   3.589
34976W        W99961  10.184  40.601  13.559
34977W        W99962  31.403   6.863  10.686
34978W        W99963  11.166  10.717   0.885
34979W        W99964  17.933  13.102  12.638
34980W        W99965   4.929   6.012  13.949
34981W        W99966  31.593  43.353   2.325
34982W        W99967  12.543  30.801   1.821
34983W        W99968   5.161   4.065  10.623
34984W        W99969  34.134  42.425  14.454
34985W        W99970  36.717  19.928   4.982
34986W        W99971  33.152  42.083   1.384
34987W        W99972  40.457   8.508  14.933
34988W        W99973  31.147  10.879  11.963
34989W        W99974  11.345  25.686  13.084
34990W        W99975  36.502  28.578   1.344
34991W        W99976  44.294  22.090   0.667
34992W        W99977  12.257   5.684   0.394
34993W        W99978   1.609  17.604  14.913
34994W        W99979  28.139  11.337   2.278
34995W        W99980  35.941   3.835   2.936
34996W        W99981  25.003   0.722  10.289
34997W        W99982  28.611  32.094  10.479
34998W        W99983  42.294  34.024  11.158
34999W        W99984  37.757  21.728  13.823
35000W        W99985  13.799  39.609  10.506
35001W        W99986  22.521  30.214  11.898
35002W        W99987   6.654  18.674   2.408
35003W        W99988  26.236  19.548  11.502
35004W        W99989   2.605  14.494   4.536
35005W        W99990  20.739   6.986   0.960
35006W        W99991  31.933  42.397   4.376
35007W        W99992  10.688  16.776  14.336
35008W        W99993  22.968  18.707   4.549
35009W        W99994  14.176  36.114  13.963
35010W        W99995  11.631  21.763   1.383
35011W        W99996  15.957   7.931  10.774
35012W        W99997  44.340  26.589  11.140
35013W        W99998  32.649  24.926   2.886
35014W        W99999  30.466  30.342  13.985
35015W        W    0  30.887  37.410  12.108
35016W        W    1  14.578   3.046  10.702
35017W        W    2  39.233  43.326  13.049
35018W        W    3  36.118  27.436   4.347
35019W        W    4   5.035  38.250   4.699
35020W        W    5  19.572  34.514  14.993
35021W        W    6  19.008  35.154  12.119
35022W        W    7  43.804  30.792  13.562
35023W        W    8   0.751   1.006  11.992
35024W        W    9  25.649  37.582  11.362
35025W        W   10  37.914  31.220   1.710
35026W        W   11   6.430  20.487   2.152
35027W        W   12  16.718  17.053   4.451
35028W        W   13  44.166  34.528  13.412
35029W        W   14  30.670  26.914  14.868
35030W        W   15  39.322  23.817   2.173
35031W        W   16  43.884  33.335   4.384
35032W        W   17  16.208  13.091   3.615
35033W        W   18  15.672  24.403  14.377
35034W        W   19  33.562   5.127  11.451
35035W        W   20  30.887  10.508  14.848
35036W        W   21  13.204   9.415   4.664
35037W        W   22   9.943   4.947  12.086
35038W        W   23  18.775   7.301  14.281
35039W        W   24  10.765  43.758  12.395
35040W        W   25  16.285  23.598   4.545
35041W        W   26  17.692  15.769  11.638
35042W        W   27  26.208   4.412  12.807
35043W        W   28  38.599  43.571   0.836
35044W        W   29   0.852  26.139   3.686
35045W        W   30  26.546  44.093   1.760
35046W        W   31  38.229  30.132  12.763
35047W        W   32  29.018  35.032   3.773
35048W        W   33   0.974  12.352   0.825
35049W        W   34  44.282  21.420  13.770
35050W        W   35  13.747  41.340   1.701
35051W        W   36  37.215  39.169  13.808
35052W        W   37  25.374  40.113   4.221
35053W        W   38  33.555  13.110  12.627
35054W        W   39  14.765  42.100  10.733
35055W        W   40   7.721   3.026  12.034
35056W        W   41   4.207  42.521   3.752
35057W        W   42   4.303  38.103  10.855
35058W        W   43  11.863  25.113   4.016
35059W        W   44  42.283   6.027  14.798
35060W        W   45  38.432  26.610   4.481
35061W        W   46   3.460  37.662   3.652
35062W        W   47  11.888  29.994   2.720
35063W        W   48   2.040  44.940  14.443
35064W        W   49   9.771  29.620  14.452
35065W        W   50  18.746  24.048   1.180
35066W        W   51   3.733  38.368  12.592
35067W        W   52   1.436  12.292   1.847
35068W        W   53  23.567  39.205   2.721
35069W        W   54  20.209   8.790  14.882
35070W        W   55  11.395  31.207  11.149
35071W        W   56   8.648   0.468  12.035
35072W        W   57   5.764  43.738  12.486
35073W        W   58   3.550  19.385   3.325
35074W        W   59  30.305  20.519   1.177
35075W        W   60  32.670  41.589  11.191
35076W        W   61   2.296  30.754   4.546
35077W        W   62  28.204   8.889  12.545
35078W        W   63  13.851  17.780  12.097
35079W        W   64   5.084  16.578  13.098
35080W        W   65  33.621  37.614   4.061
35081W        W   66  40.323  24.596   1.723
35082W        W   67   5.136  31.974  13.301
35083W        W   68   6.686  15.412   4.594
35084W        W   69  43.890  30.533  11.920
35085W        W   70  35.173  27.831  11.214
35086W        W   71  12.651  37.005   1.915
35087W        W   72  23.614  27.869  14.346
35088W        W   73  27.223  40.073  10.827
35089W        W   74   0.861  21.245  11.066
35090W        W   75  44.578  34.617  12.927
35091W        W   76  19.152  27.675   4.656
35092W        W   77   4.350   4.880  14.046
35093W        W   78   8.787  32.647   2.778
35094W        W   79  37.558   4.684   0.456
35095W        W   80  30.111  30.505  12.651
35096W        W   81  19.756  40.910  14.065
35097W        W   82  32.604  22.635  12.929
35098W        W   83  27.420  22.256  11.192
35099W        W   84  35.452  40.827  13.032
35100W        W   85  43.974  20.733  11.844
35101W        W   86   2.920  43.629  11.220
35102W        W   87  41.964  20.820  13.515
35103W        W   88  22.450  12.752   4.076
35104W        W   89  28.755   4.330  11.189
35105W        W   90   0.791  17.902  10.409
35106W        W   91  15.294  42.983   3.419
35107W        W   92  28.419  36.482   4.694
35108W        W   93  44.481  13.149   3.426
35109W        W   94  34.074   1.733  12.448
35110W        W   95  41.838  29.935   2.752
35111W        W   96  43.355   9.419   4.331
35112W        W   97  28.542  13.105  14.415
35113W        W   98   7.642   4.215  14.893
35114W        W   99  37.860  24.780  10.400
35115W        W  100  21.123   1.425   2.235
35116W        W  101  28.470   1.127   4.025
35117W        W  102  26.466  18.231  10.731
35118W        W  103  28.352  14.094   4.993
35119W        W  104  30.225   8.794   2.197
35120W        W  105  23.807  30.837  14.869
35121W        W  106  16.538  14.401   2.205
35122W        W  107  39.409  26.946   0.531
35123W        W  108  21.139  25.096  13.927
35124W        W  109  28.694  43.698  13.393
35125W        W  110  38.806  41.795  12.480
35126W        W  111  43.896  26.717   9.692
35127W        W  112  13.795  14.544   4.212
35128W        W  113  24.659  40.608  12.627
35129W        W  114  11.332   9.490   0.325
35130W        W  115  11.882  24.487   0.646
35131W        W  116  36.413  25.639   3.105
35132W        W  117  32.504  33.469  14.858
35133W        W  118  31.104  19.042   1.427
35134W        W  119  38.121  44.337  10.715
35135W        W  120  36.813  15.540   3.738
35136W        W  121   3.497  39.953   2.085
35137W        W  122  11.402  20.312   3.169
35138W        W  123  36.435  26.219   0.810
35139W        W  124  30.586  27.581   4.881
35140W        W  125  13.093  29.430   4.142
35141W        W  126  29.389   8.780  11.847
35142W        W  127  39.196  27.166  13.410
35143W        W  128  39.238  27.606  14.394
35144W        W  129  13.744  30.435  12.608
35145W        W  130  31.275   9.435   9.580
35146W        W  131  31.565  32.641   0.415
35147W        W  132  35.869  16.642  10.553
35148W        W  133  37.229  11.847  10.543
35149W        W  134  24.027  40.834  10.545
35150W        W  135  44.877  31.577  14.044
35151W        W  136   7.408   3.153   4.147
35152W        W  137  39.261   8.569  10.733
35153W        W  138  41.301  12.865  12.686
35154W        W  139  42.892   2.808   0.913
35155W        W  140   9.523   9.976  11.269
35156W        W  141  42.595  30.579  11.386
35157W        W  142  10.094  31.452   0.461
35158W        W  143  21.310  44.478   1.683
35159W        W  144  26.164   8.904   0.978
35160W        W  145  31.422   7.330  12.564
35161W        W  146  15.305   4.294   2.834
35162W        W  147   8.125  29.892  12.880
35163W        W  148  29.754  41.759  14.736
35164W        W  149  22.655   2.710   3.368
35165W        W  150  37.421   4.491   1.497
35166W        W  151   5.021  36.486   2.673
35167W        W  152  34.870  39.348  13.505
35168W        W  153  44.090  38.455  12.134
35169W        W  154  32.225  11.268  11.139
35170W        W  155  23.692  14.926   1.668
35171W        W  156  27.404  35.794  12.462
35172W        W  157  44.788  19.412  13.539
35173W        W  158  23.731  38.855  10.473
35174W        W  159  32.902   3.521  14.439
35175W        W  160  39.352   9.697   0.910
35176W        W  161   2.463  28.724   4.601
35177W        W  162  18.803  36.928  11.971
35178W        W  163   7.741  19.458   4.596
35179W        W  164  16.100  38.429  12.386
35180W        W  165  25.236  34.022  11.281
35181W        W  166  42.950  40.751   4.137
35182W        W  167  37.293  19.568  14.534
35183W        W  168  41.986  31.435  11.103
35184W        W  169   0.939   3.323  11.741
35185W        W  170  10.321  35.984   0.881
35186W        W  171  39.621  17.634  12.253
35187W        W  172  35.858  39.329   0.537
35188W        W  173   5.223   7.388   1.344
35189W        W  174   1.603   4.889   3.674
35190W        W  175  33.914  40.432   0.968
35191W        W  176  35.471  41.990  14.846
35192W        W  177  10.108  31.961   0.378
35193W        W  178  30.636  25.149   2.735
35194W        W  179   7.655  28.512   4.627
35195W        W  180  26.573  43.280  14.499
35196W        W  181   9.118  12.612  12.064
35197W        W  182   6.151  18.597   2.247
35198W        W  183  41.393  38.795  14.176
35199W        W  184   5.353  24.951   0.181
35200W        W  185   4.817  11.892   2.648
35201W        W  186   3.629   5.873  10.818
35202W        W  187  21.751  25.884   0.542
35203W        W  188  39.324  41.102  11.036
35204W        W  189   2.429   0.696   2.814
35205W        W  190  26.695   8.433  12.105
35206W        W  191  20.533  20.823  12.386
35207W        W  192  39.358  15.444  12.759
35208W        W  193   2.991  32.894  14.767
35209W        W  194  31.471  44.394   3.317
35210W        W  195  37.111  43.173  13.759
35211W        W  196  22.087  25.932   1.156
35212W        W  197  18.468  38.441  13.434
35213W        W  198   5.668  22.744  13.735
35214W        W  199  20.479  15.722  12.966
35215W        W  200  20.080   5.782   1.291
35216W        W  201  30.869  38.933   4.704
35217W        W  202  43.848   8.361   4.356
35218W        W  203  41.553  17.187   0.783
35219W        W  204  22.963  33.027   4.478
35220W        W  205   9.442  18.080   4.266
35221W        W  206  27.157  28.210  10.764
35222W        W  207   0.852  25.966   3.208
35223W        W  208  10.370  21.628  13.090
35224W        W  209  44.873  12.908  10.447
35225W        W  210  39.635  15.311  13.786
35226W        W  211   3.980  26.290   1.284
35227W        W  212   3.932  29.168   1.523
35228W        W  213  16.380   2.233   2.285
35229W        W  214  37.739  41.822  11.667
35230W        W  215  40.825  31.905   0.484
35231W        W  216   2.864  31.526   4.625
35232W        W  217  10.598  36.925   1.835
35233W        W  218  15.101  11.052  10.883
35234W        W  219   5.249  14.589  12.979
35235W        W  220  26.046  34.334   1.651
35236W        W  221  17.526  17.681  12.914
35237W        W  222  26.208   5.256   3.750
35238W        W  223  32.724  11.078   4.016
35239W        W  224  11.336   9.794  14.056
35240W        W  225  12.577   0.813  14.685
35241W        W  226  39.697   0.058  11.951
35242W        W  227   6.925  12.776   2.349
35243W        W  228  19.226   6.462   2.761
35244W        W  229  42.734   3.723   5.225
35245W        W  230  30.352   5.417   2.841
35246W        W  231  27.096  33.344  12.053
35247W        W  232   0.603  26.968   4.279
35248W        W  233   8.787   1.608  11.163
35249W        W  234   8.978  37.113   1.036
35250W        W  235  36.650   5.386  14.975
35251W        W  236  37.498  35.116  11.693
35252W        W  237   8.101  14.742  10.511
35253W        W  238   4.276   5.251   3.224
35254W        W  239  21.765  41.045   2.145
35255W        W  240  14.308  42.172   4.603
35256W        W  241  13.608   7.857   2.262
35257W        W  242  37.880  11.419   1.392
35258W        W  243   1.789  18.782  10.748
35259W        W  244  19.177   1.796   1.403
35260W        W  245   9.757   2.070   1.082
35261W        W  246  25.106   2.383   1.380
35262W        W  247  13.430  32.117   4.180
35263W        W  248  40.339  32.407  11.155
35264W        W  249  33.410  41.626  12.394
35265W        W  250  31.604  19.672  11.087
35266W        W  251  29.128  44.083   0.370
35267W        W  252  20.254  32.120  14.951
35268W        W  253  19.564  44.515  13.348
35269W        W  254   3.925   2.202  13.455
35270W        W  255  22.144   4.095  13.978
35271W        W  256  13.605  41.957   4.830
35272W        W  257  14.217  21.316  11.916
35273W        W  258  17.627   7.849   0.277
35274W        W  259  33.737  26.044  14.032
35275W        W  260  29.204   9.239   1.739
35276W        W  261  41.709  15.926   4.407
35277W        W  262  28.416  39.294  12.996
35278W        W  263  39.152  25.229   1.831
35279W        W  264  42.558  38.602   5.654
35280W        W  265  19.601  26.091   1.300
35281W        W  266  38.419  32.828  13.089
35282W        W  267  36.454  27.289   3.606
35283W        W  268   5.042  35.087  12.232
35284W        W  269  12.813  38.877   0.756
35285W        W  270  38.800  11.270   4.856
35286W        W  271   9.686  35.992  12.901
35287W        W  272  43.652  40.313  11.544
35288W        W  273  16.812  15.563  13.408
35289W        W  274  10.359   0.390   4.247
35290W        W  275  31.392  10.694   3.676
35291W        W  276  27.703  17.988   1.076
35292W        W  277   4.479  12.481   2.254
35293W        W  278   5.339  11.077  11.397
35294W        W  279  26.528   4.369   0.442
35295W        W  280  35.531   7.227  10.775
35296W        W  281  36.005  33.462  11.482
35297W        W  282  28.529  15.803   2.815
35298W        W  283  14.665  20.477  12.000
35299W        W  284   0.984  21.476   2.740
35300W        W  285  13.310  41.550   3.349
35301W        W  286   7.663  43.756   2.733
35302W        W  287  10.078   9.780  11.208
35303W        W  288  36.902  28.610  11.139
35304W        W  289   1.979  26.154   3.720
35305W        W  290  30.325  13.406  14.282
35306W        W  291  32.781   4.739   2.852
35307W        W  292   5.529   8.424  10.981
35308W        W  293  12.126  42.439  10.454
35309W        W  294   4.931  20.136  14.536
35310W        W  295  24.013   3.176  13.453
35311W        W  296  24.911  33.331  12.474
35312W        W  297  29.852  40.794   1.979
35313W        W  298  31.524  35.619   3.348
35314W        W  299   6.823  31.492  14.431
35315W        W  300  19.514  25.512  12.555
35316W        W  301  29.695  11.223  12.908
35317W        W  302  40.241  21.535  10.675
35318W        W  303  32.885  37.712   1.727
35319W        W  304  24.274  10.709  13.371
35320W        W  305  33.526  21.555  13.523
35321W        W  306  42.606  39.060  11.445
35322W        W  307  10.919  15.572   3.674
35323W        W  308  23.435  39.312  10.664
35324W        W  309  35.495  42.359   3.582
35325W        W  310  29.338  30.286   5.523
35326W        W  311   2.075  39.304   1.341
35327W        W  312  33.031   9.826   1.515
35328W        W  313   5.304  18.859   1.403
35329W        W  314  11.091  42.423  13.913
35330W        W  315  33.420  40.554  10.307
35331W        W  316   9.643  35.650  11.703
35332W        W  317  23.982  14.595  13.940
35333W        W  318   0.250  24.245   4.170
35334W        W  319   8.186   9.759   1.166
35335W        W  320  44.904  36.273   4.173
35336W        W  321  31.993   2.474   3.230
35337W        W  322  43.334  40.373   4.246
35338W        W  323  15.304   5.397  14.311
35339W        W  324  31.323  38.745   3.208
35340W        W  325   0.074  42.867  12.450
35341W        W  326  26.126  44.616   9.951
35342W        W  327  17.281  28.256   0.474
35343W        W  328   5.850  33.135   2.479
35344W        W  329  24.617   2.550  10.856
35345W        W  330  18.549  21.302   3.786
35346W        W  331   6.770  13.083  11.749
35347W        W  332  41.656   2.186   3.242
35348W        W  333   3.372  18.636   2.337
35349W        W  334  39.111  32.406  13.496
35350W        W  335  17.867  22.216  14.035
35351W        W  336   8.434  21.703   1.832
35352W        W  337  20.843  43.556   2.641
35353W        W  338  34.497  24.774   3.594
35354W        W  339   4.867  35.521  12.482
35355W        W  340  34.119  14.835   0.873
35356W        W  341   0.993   7.083   2.698
35357W        W  342   6.501  29.627   0.924
35358W        W  343  15.535  35.070   3.085
35359W        W  344  21.336  25.208   4.283
35360W        W  345  34.920  11.407   2.501
35361W        W  346  27.538  15.357   4.735
35362W        W  347  18.962   5.583  11.041
35363W        W  348  33.911  22.288   4.402
35364W        W  349  18.703   0.768  10.780
35365W        W  350  13.075  12.272   4.322
35366W        W  351  22.368  25.211  11.099
35367W        W  352  21.922   6.436   3.296
35368W        W  353  32.701  19.229   4.064
35369W        W  354  38.968  28.926  14.763
35370W        W  355  12.706  10.371   2.326
35371W        W  356   4.272   6.210   1.036
35372W        W  357  23.492  23.443   0.894
35373W        W  358   4.885   8.385  12.063
35374W        W  359  44.900  39.933  14.282
35375W        W  360  25.371   4.831  14.568
35376W        W  361  15.289  41.845  14.270
35377W        W  362  44.730  25.657  12.247
35378W        W  363  32.280  30.593   3.682
35379W        W  364  22.684  37.009  10.813
35380W        W  365  42.476   6.368  10.648
35381W        W  366  31.212  12.757  11.035
35382W        W  367   4.741  24.311   0.463
35383W        W  368  39.086  26.638  10.566
35384W        W  369   2.928  10.733   4.028
35385W        W  370  23.524  21.629   2.454
35386W        W  371   1.731   2.428   0.887
35387W        W  372   4.696  28.350   4.121
35388W        W  373  20.138  40.358  12.417
35389W        W  374  28.114  10.429   2.278
35390W        W  375  33.557  13.083   4.667
35391W        W  376  14.857  16.812   1.272
35392W        W  377  26.236  42.380  11.955
35393W        W  378  34.629  25.656  11.286
35394W        W  379   6.351   1.560   2.227
35395W        W  380   6.380  35.672  11.154
35396W        W  381   3.612  24.977   1.295
35397W        W  382  20.765   5.973  11.620
35398W        W  383  27.767  40.811  12.987
35399W        W  384  33.587   4.674  11.170
35400W        W  385  39.113   3.807   2.746
35401W        W  386  19.272  22.766  12.978
35402W        W  387  19.218  37.944   4.537
35403W        W  388  39.342  19.547   1.353
35404W        W  389  37.053  11.714   2.763
35405W        W  390  25.884   1.171  11.947
35406W        W  391  12.181  28.307   1.177
35407W        W  392   2.953   7.696  13.081
35408W        W  393  36.820  20.152  11.178
35409W        W  394  43.306  10.896  14.095
35410W        W  395  26.198  43.889   3.599
35411W        W  396  33.895  19.363   0.402
35412W        W  397  18.988  17.914   3.647
35413W        W  398  21.289  19.092  13.511
35414W        W  399  41.973  19.733   4.586
35415W        W  400  25.975  21.631   1.446
35416W        W  401  10.600  26.712  11.532
35417W        W  402  18.642  30.152   3.608
35418W        W  403  13.120  12.211  11.268
35419W        W  404   0.486  34.464  14.756
35420W        W  405  36.543  40.350   4.188
35421W        W  406  42.836  32.212   2.746
35422W        W  407  40.827  39.855  12.112
35423W        W  408  34.582  23.928   3.108
35424W        W  409  10.208  16.253  12.062
35425W        W  410  12.376   7.851  14.304
35426W        W  411  22.804  29.008   4.542
35427W        W  412  31.626  43.485  11.556
35428W        W  413  34.459  15.479  12.980
35429W        W  414  23.153  26.524  13.845
35430W        W  415   6.192   9.684   1.282
35431W        W  416   6.528  37.449  14.435
35432W        W  417   7.749  32.588  11.210
35433W        W  418   5.469  27.948  12.941
35434W        W  419  11.802  44.582   4.616
35435W        W  420  34.964   8.221   1.672
35436W        W  421  39.801  16.200  13.822
35437W        W  422   7.405  42.238  11.677
35438W        W  423  29.618  39.492   4.402
35439W        W  424  27.136  34.504  11.454
35440W        W  425   2.029   9.781  10.622
35441W        W  426   1.323  26.755   0.469
35442W        W  427  33.971  18.245   1.848
35443W        W  428  37.012  25.855   0.037
35444W        W  429  34.402   5.351   5.058
35445W        W  430  40.282  27.513   1.789
35446W        W  431  13.717   7.610  10.584
35447W        W  432   6.748  32.252  14.953
35448W        W  433   7.733  18.019  12.095
35449W        W  434  20.508  27.961   3.146
35450W        W  435  27.367  14.722  12.196
35451W        W  436  21.836  12.853   0.458
35452W        W  437  19.775  15.560   3.014
35453W        W  438  42.234  27.987   3.458
35454W        W  439  44.516  11.802  13.416
35455W        W  440  21.616  44.052   2.510
35456W        W  441  22.993  24.462   4.575
35457W        W  442  16.248  17.374  14.424
35458W        W  443   8.165  18.182  11.603
35459W        W  444   4.798   7.124  12.649
35460W        W  445  12.159   9.648  11.913
35461W        W  446   9.710   6.357   4.581
35462W        W  447  32.140  18.409  13.906
35463W        W  448  11.275  14.104   0.229
35464W        W  449  40.751   2.780  11.516
35465W        W  450   2.200   7.851   1.380
35466W        W  451  18.588  13.812   4.505
35467W        W  452  18.079   5.197   2.843
35468W        W  453  15.826  31.465   3.264
35469W        W  454  21.957   1.450   1.096
35470W        W  455  43.175  23.660  14.845
35471W        W  456  27.174  15.770  11.494
35472W        W  457  25.271  41.385  12.054
35473W        W  458  24.722  20.998  14.737
35474W        W  459  12.372  43.060  12.914
35475W        W  460  36.689  34.975   2.428
35476W        W  461   7.593  18.664   0.429
35477W        W  462  22.887  30.642  12.497
35478W        W  463  16.631  43.070  14.907
35479W        W  464   4.445  16.102   3.816
35480W        W  465  32.105  36.622  12.444
35481W        W  466  39.041  42.945  11.869
35482W        W  467   1.756  12.299  11.035
35483W        W  468  35.586  26.577   1.292
35484W        W  469  34.098   4.152   4.865
35485W        W  470  10.776  15.366   0.479
35486W        W  471   1.664  26.030   4.120
35487W        W  472  28.299   4.213  11.423
35488W        W  473  24.743  17.615   2.604
35489W        W  474   6.224  35.751  14.294
35490W        W  475   2.541  32.616   2.662
35491W        W  476  29.855  22.998   1.291
35492W        W  477  35.133   0.414  13.428
35493W        W  478  41.794   2.254  10.636
35494W        W  479  10.209  20.173  10.551
35495W        W  480   4.575   6.223   0.269
35496W        W  481  44.766  19.676   2.729
35497W        W  482  17.673  15.260   0.764
35498W        W  483   3.168  11.595   0.250
35499W        W  484   1.831  42.222  11.004
35500W        W  485  41.474  15.866   3.624
35501W        W  486  13.195  24.457   0.784
35502W        W  487   6.749  34.969  11.084
35503W        W  488  14.051  42.019  13.330
35504W        W  489  20.661  26.267   0.007
35505W        W  490  37.416   7.353   4.283
35506W        W  491  32.111   5.953  14.961
35507W        W  492  35.379   6.652   0.365
35508W        W  493  33.845  43.673   9.988
35509W        W  494  13.525  30.235   4.096
35510W        W  495  10.269  26.547   4.232
35511W        W  496  27.628  38.504   2.448
35512W        W  497  19.015  41.515   0.811
35513W        W  498  39.502  14.679   4.290
35514W        W  499  19.249  26.195   0.683
35515W        W  500  41.439  11.935  14.268
35516W        W  501  40.821  22.106  13.470
35517W        W  502  27.081  40.119  13.645
35518W        W  503  33.789  40.133   2.381
35519W        W  504  42.298  27.152   0.957
35520W        W  505   2.642  36.546  14.671
35521W        W  506  41.349   7.412  10.762
35522W        W  507  18.333  38.794   2.181
35523W        W  508  24.419  34.040  14.035
35524W        W  509  28.538  39.300  11.052
35525W        W  510  26.858  23.431   3.625
35526W        W  511   8.578  20.512   3.289
35527W        W  512   9.299  39.251   1.475
35528W        W  513  16.314   6.707  12.133
35529W        W  514  16.673  19.799   2.355
35530W        W  515  21.824  36.010   2.361
35531W        W  516  33.142  16.510  11.774
35532W        W  517  12.793  43.811  14.755
35533W        W  518  17.680  17.241  14.970
35534W        W  519   0.273  14.566   0.954
35535W        W  520   3.346  10.461  14.401
35536W        W  521  16.326  15.737  13.442
35537W        W  522  19.481  16.045  12.581
35538W        W  523   2.216  37.446  13.859
35539W        W  524  35.792  20.061  13.803
35540W        W  525  41.337   3.397  11.704
35541W        W  526  28.085  34.638   1.745
35542W        W  527  44.651  12.247  13.140
35543W        W  528  24.682  20.484   2.156
35544W        W  529  42.005  29.074   5.020
35545W        W  530  27.010   3.306   5.252
35546W        W  531   8.532  18.956   3.786
35547W        W  532  35.599  44.740   4.801
35548W        W  533   7.148  32.846  13.608
35549W        W  534  10.386   3.358  13.017
35550W        W  535  21.667  36.488   2.640
35551W        W  536   1.911  36.011   3.263
35552W        W  537  20.906  14.529  14.990
35553W        W  538  25.267  39.383   2.335
35554W        W  539  43.935  19.781  11.679
35555W        W  540  29.449  34.991   1.223
35556W        W  541  43.195  10.143  10.275
35557W        W  542  13.605   4.713  12.496
35558W        W  543   9.277  41.359  10.716
35559W        W  544   8.676   2.190   4.141
35560W        W  545  41.821  21.956   0.742
35561W        W  546  39.045  31.962   0.475
35562W        W  547   9.464   7.636  12.461
35563W        W  548  25.580  43.777   2.936
35564W        W  549  33.955  13.443   1.037
35565W        W  550  27.881  27.713   5.194
35566W        W  551   8.191   9.120   0.767
35567W        W  552  26.613  23.689   4.084
35568W        W  553  13.199  15.226  14.258
35569W        W  554  40.600  31.436  11.430
35570W        W  555  25.543  30.182   3.210
35571W        W  556  39.622  24.599   1.040
35572W        W  557  16.279  28.710  13.992
35573W        W  558  30.123  43.161  11.397
35574W        W  559  16.767  15.081  13.574
35575W        W  560  43.003  44.812   2.158
35576W        W  561   3.781   7.913  11.003
35577W        W  562  22.681  40.216  12.576
35578W        W  563  39.524   4.783   4.482
35579W        W  564  12.402  36.198   0.299
35580W        W  565   0.619  12.249  14.023
35581W        W  566  39.385   3.984   3.187
35582W        W  567  15.059  16.422   3.580
35583W        W  568  38.491   6.836  13.527
35584W        W  569  19.734  16.528  14.094
35585W        W  570  31.646  41.870  14.936
35586W        W  571  22.678  32.634   3.205
35587W        W  572  18.481  43.540  11.700
35588W        W  573  24.544   6.724   3.642
35589W        W  574  18.493  16.598  14.090
35590W        W  575   4.659  44.120  14.594
35591W        W  576  38.749   3.463   2.643
35592W        W  577  30.432  34.642  10.503
35593W        W  578  10.875  14.674   1.263
35594W        W  579   7.720  34.106  12.353
35595W        W  580  27.407   0.218   4.347
35596W        W  581  21.499   0.336   0.807
35597W        W  582  30.873   6.149   0.267
35598W        W  583  16.352  10.880  13.845
35599W        W  584  17.353  13.083  11.988
35600W        W  585  39.863  21.200  10.809
35601W        W  586   4.470  22.968  11.114
35602W        W  587  39.020  38.851  13.502
35603W        W  588   2.785  40.874  10.677
35604W        W  589   2.688  18.263   1.367
35605W        W  590  36.804  28.337   0.657
35606W        W  591   3.347  13.347  12.592
35607W        W  592  34.004  39.374   1.020
35608W        W  593   6.188   0.913   3.049
35609W        W  594  35.403  35.945  12.607
35610W        W  595  43.513   3.747  12.489
35611W        W  596   2.480  11.669  12.128
35612W        W  597  32.709  37.356   0.460
35613W        W  598  42.922  36.347  14.910
35614W        W  599  22.301  37.809   4.481
35615W        W  600  13.186  34.476  12.015
35616W        W  601   4.195  22.149   1.396
35617W        W  602   6.715   4.705   1.740
35618W        W  603   5.379  21.191  13.581
35619W        W  604  15.065   2.689   3.188
35620W        W  605  13.304  32.081   3.683
35621W        W  606   4.501   0.853  13.760
35622W        W  607  16.118  42.912   2.163
35623W        W  608  44.874  19.846   9.754
35624W        W  609  31.859  32.322  10.831
35625W        W  610  30.191   1.899   4.507
35626W        W  611  19.803   5.347  14.057
35627W        W  612  15.081  31.499   2.855
35628W        W  613  23.212  35.065  11.754
35629W        W  614  38.140  25.604   3.208
35630W        W  615  16.243  41.054   5.033
35631W        W  616  34.140  40.389  13.045
35632W        W  617   6.644  40.074  14.401
35633W        W  618  18.265  29.587   3.540
35634W        W  619  20.246  33.840   2.131
35635W        W  620  31.155  38.290  14.279
35636W        W  621   9.893  22.782  11.521
35637W        W  622  26.063  43.387  14.499
35638W        W  623  18.066  32.127   1.096
35639W        W  624  31.789  37.273   1.137
35640W        W  625  32.123  41.344  13.430
35641W        W  626   0.758  33.674  10.660
35642W        W  627  21.549  18.496   3.594
35643W        W  628  41.817  23.539   3.600
35644W        W  629  41.341  23.586   3.763
35645W        W  630  37.954  14.100  10.726
35646W        W  631  19.031  21.811   0.686
35647W        W  632   6.443  32.106   1.366
35648W        W  633  14.898   1.165   1.655
35649W        W  634  32.947  30.136   1.255
35650W        W  635  31.387  38.493  13.139
35651W        W  636  39.931  40.006   3.130
35652W        W  637  18.045  39.827  14.044
35653W        W  638   9.881  40.687  14.791
35654W        W  639  25.656   9.181  12.645
35655W        W  640  17.613  13.413  13.617
35656W        W  641  36.534  23.251  14.208
35657W        W  642  22.481  39.430  13.314
35658W        W  643  38.992  35.273  14.708
35659W        W  644   7.270   4.267   4.173
35660W        W  645  44.831  20.308   5.066
35661W        W  646  26.386  18.487  12.385
35662W        W  647  12.524  12.114   2.566
35663W        W  648  37.943  20.851  11.319
35664W        W  649  27.593  35.322  12.444
35665W        W  650   3.781  10.980   1.871
35666W        W  651   1.433  39.957  14.228
35667W        W  652  21.166  36.168  11.790
35668W        W  653  18.802  11.496  12.940
35669W        W  654  42.510  30.196  13.406
35670W        W  655  28.434  44.692   3.635
35671W        W  656  14.546  38.062  13.504
35672W        W  657  39.770  23.791  14.809
35673W        W  658  40.608  10.941   3.398
35674W        W  659  18.504  38.707  11.641
35675W        W  660   6.520  33.079   1.362
35676W        W  661  16.921  12.826  10.691
35677W        W  662  16.695  32.153   0.352
35678W        W  663   3.890   4.778   3.171
35679W        W  664  18.696  37.099  14.889
35680W        W  665  34.680  39.064   3.200
35681W        W  666  27.271   3.432   3.337
35682W        W  667   1.087   0.970  11.603
35683W        W  668  43.602  31.054   2.382
35684W        W  669  42.553  34.591  14.841
35685W        W  670  43.423  25.919  10.060
35686W        W  671   4.984  35.957  12.780
35687W        W  672  32.912  25.089  14.354
35688W        W  673   0.794  41.707  13.802
35689W        W  674  38.589  17.608  14.007
35690W        W  675   4.460   6.532   1.996
35691W        W  676   8.702  15.189   3.682
35692W        W  677   5.057   0.350   1.478
35693W        W  678  32.505   2.889  12.453
35694W        W  679   3.036  44.377  14.068
35695W        W  680  15.306   1.420   4.376
35696W        W  681  44.282   7.096   1.684
35697W        W  682  42.754   3.363  10.389
35698W        W  683  44.505  28.996  11.277
35699W        W  684  15.524  19.652   3.865
35700W        W  685  32.634   5.069  13.318
35701W        W  686   6.496  39.326  11.801
35702W        W  687  23.619  12.152  14.074
35703W        W  688   6.317  25.435  12.006
35704W        W  689  14.587   6.658   4.590
35705W        W  690  15.145  43.194   4.717
35706W        W  691  20.912   3.980   4.074
35707W        W  692  39.824  29.405  10.724
35708W        W  693   3.397  40.016   3.520
35709W        W  694  30.476  14.031  12.085
35710W        W  695  14.183   2.761  11.911
35711W        W  696  34.503  33.081   4.630
35712W        W  697  10.452   8.176  13.054
35713W        W  698  31.070  32.418   2.767
35714W        W  699  31.740  11.437   0.318
35715W        W  700  14.797   7.492   3.659
35716W        W  701   5.879  18.292   0.962
35717W        W  702  19.694  18.167   0.344
35718W        W  703   3.704   1.513   1.233
35719W        W  704  37.874  28.391   4.679
35720W        W  705   9.888  34.413   0.850
35721W        W  706   6.884  24.491  12.589
35722W        W  707   2.794  44.492   1.850
35723W        W  708  21.459  34.317  13.239
35724W        W  709  42.028  42.465  14.807
35725W        W  710  22.263  44.000   4.694
35726W        W  711  17.410   4.919   1.976
35727W        W  712  12.319   7.362  13.376
35728W        W  713  27.265   6.830   4.145
35729W        W  714  29.677   4.623   3.625
35730W        W  715  23.275   3.610   5.090
35731W        W  716  43.488   3.313   4.571
35732W        W  717  41.765   1.376  10.691
35733W        W  718  35.104   8.460  13.524
35734W        W  719  42.738  11.777   0.650
35735W        W  720  11.037  43.588  14.788
35736W        W  721  31.482  31.877  13.084
35737W        W  722  24.956   2.873   1.242
35738W        W  723  44.821  33.165  11.118
35739W        W  724  35.298  34.250   1.114
35740W        W  725  40.943  11.733   4.625
35741W        W  726  11.580  44.563   0.345
35742W        W  727  21.010  35.146  10.815
35743W        W  728  17.200   2.975   2.903
35744W        W  729   2.170  40.342  14.317
35745W        W  730  10.343  14.157   0.548
35746W        W  731   1.461  22.832  14.801
35747W        W  732  21.043  12.744  13.806
35748W        W  733   9.950  23.133   4.080
35749W        W  734  10.572  35.919  11.643
35750W        W  735  17.197   8.797  12.625
35751W        W  736  35.976  42.810   2.070
35752W        W  737  12.266  28.855   2.099
35753W        W  738  12.375  32.178   3.520
35754W        W  739   5.250   4.697   0.700
35755W        W  740  43.353   7.339   0.647
35756W        W  741   5.683  37.700  11.561
35757W        W  742   1.725   1.534   0.744
35758W        W  743  41.448  17.355   2.726
35759W        W  744  16.331  26.438   9.820
35760W        W  745  37.106   4.734  11.682
35761W        W  746  33.073   2.511   4.251
35762W        W  747  33.948  27.593  13.022
35763W        W  748  24.017  14.251  13.357
35764W        W  749  34.053  12.201  11.833
35765W        W  750  10.918   9.702   3.296
35766W        W  751  42.700   3.921  13.501
35767W        W  752  23.732   5.202   1.402
35768W        W  753  25.644  41.522  12.440
35769W        W  754   9.119  13.055   2.647
35770W        W  755   7.388  40.020  13.070
35771W        W  756  41.015  12.455   1.092
35772W        W  757  39.390   8.276   1.325
35773W        W  758   5.655  22.786   2.008
35774W        W  759   8.872  19.775  13.950
35775W        W  760  42.033  36.491  12.629
35776W        W  761   0.886  43.298   1.026
35777W        W  762  28.986   6.314  11.522
35778W        W  763  25.679  11.300   4.668
35779W        W  764  17.142  22.247   4.093
35780W        W  765   6.625  20.100  10.955
35781W        W  766   1.488   8.624   3.679
35782W        W  767  23.084  19.815   2.229
35783W        W  768   1.737  19.429  11.439
35784W        W  769  20.356  29.234  13.336
35785W        W  770  25.109  34.518   3.269
35786W        W  771  12.738  14.646   2.882
35787W        W  772  25.049  10.410   1.050
35788W        W  773  15.916  21.173   1.425
35789W        W  774  43.814  11.692   3.677
35790W        W  775  21.682  37.794  13.200
35791W        W  776  43.005  29.890   0.481
35792W        W  777  11.631  38.800   3.494
35793W        W  778  30.678   8.200   0.621
35794W        W  779  14.212  31.755   1.819
35795W        W  780  14.057  23.946   3.667
35796W        W  781  40.805  21.516  10.641
35797W        W  782   6.461  41.571   4.188
35798W        W  783  22.239  37.236   1.750
35799W        W  784  36.494  32.361  14.794
35800W        W  785  38.445   1.244  10.542
35801W        W  786   0.956   3.531  14.095
35802W        W  787  14.796  16.957   4.578
35803W        W  788  26.714   5.253  14.340
35804W        W  789  21.738  21.597  12.999
35805W        W  790  33.096   4.858  12.047
35806W        W  791  25.895   8.671   2.885
35807W        W  792  23.022  26.067   1.159
35808W        W  793  16.636  13.140  13.451
35809W        W  794  25.961  37.562  12.428
35810W        W  795  35.012  19.580  12.418
35811W        W  796  20.076  29.665   2.232
35812W        W  797   9.920  42.508   3.297
35813W        W  798  31.832  29.872   4.216
35814W        W  799  40.871  14.583   2.139
35815W        W  800  26.392   7.752  11.584
35816W        W  801  25.962  24.727   0.359
35817W        W  802  39.470  28.562   1.868
35818W        W  803  26.628  10.320   5.200
35819W        W  804  29.463  33.820  12.072
35820W        W  805  11.617  15.334   0.313
35821W        W  806  38.021  23.444  13.353
35822W        W  807  14.266  37.177  13.961
35823W        W  808   0.274   1.716   1.683
35824W        W  809  29.160  37.909  12.855
35825W        W  810  29.026  32.872   3.668
35826W        W  811  20.539  28.453   2.354
35827W        W  812  26.141  31.190   0.218
35828W        W  813  28.713  37.820  14.850
35829W        W  814  42.850   8.386  12.560
35830W        W  815  21.633  26.184  10.478
35831W        W  816   8.463  29.219  11.042
35832W        W  817  43.100  42.292  13.981
35833W        W  818  30.661  39.726   2.224
35834W        W  819  18.003  31.434  11.728
35835W        W  820   7.511  44.282   3.066
35836W        W  821  44.165  24.375   4.284
35837W        W  822  27.672  43.791   2.568
35838W        W  823   1.168  35.508   1.337
35839W        W  824  27.406  42.450   2.748
35840W        W  825  21.210  13.343   2.287
35841W        W  826  14.816  23.824   1.212
35842W        W  827  31.910  23.708   2.230
35843W        W  828  25.064  21.722   1.689
35844W        W  829   1.033  24.828   4.190
35845W        W  830  25.442   2.566   2.210
35846W        W  831  15.188  30.599   3.096
35847W        W  832   9.357  24.522  13.835
35848W        W  833  23.821  43.937   2.391
35849W        W  834   7.809  30.642   3.144
35850W        W  835   1.795  31.033  13.034
35851W        W  836  23.659  27.090   0.457
35852W        W  837  13.553  34.273   1.168
35853W        W  838  38.522  13.370  12.548
35854W        W  839  34.575  15.769   0.837
35855W        W  840  28.310  41.071  12.156
35856W        W  841  26.477  42.514   2.744
35857W        W  842  21.278  12.290  10.685
35858W        W  843  18.048  18.026   1.332
35859W        W  844   3.871  38.814  13.557
35860W        W  845   9.062  19.652  11.622
35861W        W  846  38.711   9.142   3.890
35862W        W  847   3.927   7.002  13.096
35863W        W  848  24.146   7.211   0.886
35864W        W  849  40.392  14.497   2.332
35865W        W  850  43.729  30.413  10.218
35866W        W  851  23.960  28.186  13.558
35867W        W  852   8.351  28.093   4.448
35868W        W  853  39.269  36.564  13.789
35869W        W  854   8.393  42.456   0.688
35870W        W  855   7.979  32.150  12.881
35871W        W  856  11.329  32.070  12.141
35872W        W  857   7.876   9.308   1.701
35873W        W  858  31.908  36.935  11.440
35874W        W  859  31.460   5.187   1.892
35875W        W  860   5.805  34.422  14.422
35876W        W  861   8.375  16.790   0.109
35877W        W  862  42.224  33.091   4.163
35878W        W  863  18.804  38.408   0.388
35879W        W  864  30.338  28.492   1.315
35880W        W  865  16.070  20.236   3.812
35881W        W  866  34.369  24.961   3.127
35882W        W  867  44.827  40.064  10.351
35883W        W  868  31.566   1.712   4.613
35884W        W  869   0.522   5.357  12.464
35885W        W  870  31.576  17.145   1.268
35886W        W  871  11.614  20.689   1.459
35887W        W  872  31.403  24.524  11.893
35888W        W  873  11.732  44.390  12.121
35889W        W  874  32.538  29.970   4.523
35890W        W  875  15.164  21.459  12.669
35891W        W  876  36.037  17.332   2.952
35892W        W  877  34.007  24.609   3.305
35893W        W  878  20.200  30.225  11.216
35894W        W  879  21.998  39.784   0.856
35895W        W  880  43.932  33.019  14.076
35896W        W  881  34.755  36.994   2.721
35897W        W  882  38.389  39.654  14.526
35898W        W  883  41.857   9.335  13.414
35899W        W  884  44.541  21.087  13.379
35900W        W  885  43.923  25.708   0.256
35901W        W  886  11.760  18.759  12.711
35902W        W  887  25.191  39.747   1.875
35903W        W  888   6.707  28.128  12.231
35904W        W  889  10.639  16.552  13.437
35905W        W  890  25.124  21.285   1.204
35906W        W  891  12.668  34.884   3.242
35907W        W  892  40.519  12.204  11.937
35908W        W  893  38.399  35.188  10.854
35909W        W  894  43.632  36.899  13.594
35910W        W  895  35.265   3.854   4.144
35911W        W  896  30.361  19.155   1.854
35912W        W  897  10.621  40.619  14.530
35913W        W  898  29.236  28.091   1.129
35914W        W  899   4.203   4.422  13.846
35915W        W  900  37.888  35.056  12.929
35916W        W  901   9.613  40.987  10.551
35917W        W  902   8.182  42.856   4.357
35918W        W  903  30.216   1.441   1.441
35919W        W  904   3.774  21.619   1.929
35920W        W  905  38.870  13.129   1.852
35921W        W  906  34.907  20.227   2.932
35922W        W  907  12.277   8.610  11.469
35923W        W  908  27.001  15.264  11.627
35924W        W  909   0.262  27.218   3.683
35925W        W  910  37.318  20.249   4.584
35926W        W  911  36.612  25.190   2.889
35927W        W  912  28.188  16.471  11.076
35928W        W  913  27.220  24.588   1.844
35929W        W  914  21.262  27.700  14.821
35930W        W  915   0.271  38.161  13.062
35931W        W  916  38.460  31.229   1.002
35932W        W  917   2.998  41.213  11.937
35933W        W  918  28.103   1.962   1.034
35934W        W  919  13.086  39.917   1.244
35935W        W  920  41.780   2.273   2.740
35936W        W  921   8.343  36.143   4.164
35937W        W  922  11.266   8.123  12.488
35938W        W  923  41.509  43.811  10.945
35939W        W  924  21.216  36.439  10.450
35940W        W  925  30.448  27.217  11.125
35941W        W  926  31.604  32.715  14.010
35942W        W  927  43.704  34.437  11.650
35943W        W  928  10.264  38.692  14.532
35944W        W  929  19.667  22.187   0.284
35945W        W  930  18.738  34.422  12.091
35946W        W  931  26.014  25.891   3.389
35947W        W  932  43.035  17.980   2.808
35948W        W  933  42.055  13.158   2.334
35949W        W  934  39.709  22.591  12.907
35950W        W  935   8.817  13.387   4.210
35951W        W  936   0.707  12.571  12.051
35952W        W  937  43.370  43.038   1.890
35953W        W  938  12.754   6.444  13.016
35954W        W  939  44.458  20.556   0.995
35955W        W  940  28.504   5.839  14.528
35956W        W  941   5.288  10.265   3.510
35957W        W  942  34.760  34.350   3.624
35958W        W  943  32.585  28.581  13.310
35959W        W  944  31.204  42.828   3.150
35960W        W  945  22.031  36.553  13.699
35961W        W  946   2.100  11.163   0.749
35962W        W  947  43.037  35.561   0.369
35963W        W  948   0.871  42.250   3.683
35964W        W  949  31.576   6.274  11.008
35965W        W  950  33.505   7.524  14.224
35966W        W  951   9.768  23.508  11.097
35967W        W  952   3.792  38.308  13.466
35968W        W  953  29.468  11.269   4.477
35969W        W  954  43.370  11.823   2.821
35970W        W  955   1.510  24.492  13.479
35971W        W  956  29.541  32.439  12.412
35972W        W  957  27.991  14.554  14.973
35973W        W  958  39.524   6.253   4.553
35974W        W  959  27.260  33.515  13.347
35975W        W  960  24.633  22.039   4.112
35976W        W  961  21.512   6.844  13.531
35977W        W  962   2.293  26.624  12.075
35978W        W  963  11.588   5.371   1.880
35979W        W  964  21.222  16.618  12.182
35980W        W  965  36.417   1.465  11.188
35981W        W  966  11.242  34.844  14.296
35982W        W  967  18.064  40.507   2.883
35983W        W  968  17.355   3.292   4.148
35984W        W  969   2.826   2.454  14.035
35985W        W  970  10.598  40.479   4.155
35986W        W  971   1.308   2.415   0.243
35987W        W  972  31.102  31.458  11.587
35988W        W  973  43.117  27.942   0.351
35989W        W  974  17.871  27.425   1.372
35990W        W  975  26.690  43.767   4.922
35991W        W  976  39.354  25.652  14.899
35992W        W  977  33.985  25.749  14.404
35993W        W  978   2.007  28.246   0.249
35994W        W  979  36.435   6.099   4.369
35995W        W  980  38.222  17.225  10.555
35996W        W  981  37.763  22.794  14.625
35997W        W  982  29.000  13.311   0.693
35998W        W  983  25.616   6.414   1.724
35999W        W  984   5.293   9.373   5.022
36000W        W  985  11.110  24.241   2.146
36001W        W  986   2.880  24.276   2.994
36002W        W  987  28.964   7.178   2.567
36003W        W  988  14.291   3.654  14.818
36004W        W  989  10.467  31.390   3.790
36005W        W  990  18.341  22.008  12.806
36006W        W  991  11.138   7.103  11.605
36007W        W  992  23.337   3.492   9.820
36008W        W  993  29.871  33.925   3.395
36009W        W  994  20.892  23.991  11.952
36010W        W  995  38.073  31.921   4.555
36011W        W  996   8.445  32.844  11.405
36012W        W  997   9.580  43.261   0.800
36013W        W  998   0.336   7.366   4.652
36014W        W  999  43.357   4.963  11.991
36015W        W 1000   5.752  31.892  14.432
36016W        W 1001  13.180   6.190  13.155
36017W        W 1002   2.458  13.187  13.294
36018W        W 1003  36.904  34.087   3.566
36019W        W 1004  20.030   8.521   1.119
36020W        W 1005  29.098   7.842   4.128
36021W        W 1006  15.101  16.707  13.932
36022W        W 1007  38.957  12.937  14.297
36023W        W 1008  44.432  42.303   4.703
36024W        W 1009  17.818  29.893   1.353
36025W        W 1010  28.236   9.301   3.069
36026W        W 1011   4.401  25.530   2.610
36027W        W 1012  11.354  15.302   4.525
36028W        W 1013  25.986  26.559  11.018
36029W        W 1014  43.795  20.161  14.838
36030W        W 1015  21.635  38.860   3.684
36031W        W 1016   9.368  10.627  12.098
36032W        W 1017  15.666  10.839   3.584
36033W        W 1018  41.222   4.045  14.773
36034W        W 1019  44.804  38.368  10.574
36035W        W 1020  36.776  21.057   2.267
36036W        W 1021  31.991  12.749   3.438
36037W        W 1022  16.536  14.245  14.632
36038W        W 1023  28.748  11.867  12.554
36039W        W 1024   8.452  19.186  14.723
36040W        W 1025  13.707  23.898   2.732
36041W        W 1026   4.138   2.752   3.714
36042W        W 1027  23.892  27.325   5.010
36043W        W 1028   0.549   0.999  12.488
36044W        W 1029  28.337  31.695  10.683
36045W        W 1030  11.687   2.321   2.668
36046W        W 1031  36.100  36.957  12.431
36047W        W 1032  20.239  26.007  10.640
36048W        W 1033  22.250  24.113   4.183
36049W        W 1034  11.754  28.935  12.080
36050W        W 1035   1.739  22.772   1.280
36051W        W 1036  17.644   3.894  14.051
36052W        W 1037   4.004  18.010  14.027
36053W        W 1038  23.758  36.067   4.122
36054W        W 1039  36.457   2.235  14.215
36055W        W 1040   3.256  26.774   4.325
36056W        W 1041   2.836  33.120   0.251
36057W        W 1042  40.924  39.836   3.174
36058W        W 1043   5.766  27.406  11.383
36059W        W 1044  36.466   7.278   1.429
36060W        W 1045   4.304   6.766   0.672
36061W        W 1046  19.188   2.506   0.707
36062W        W 1047  40.694  27.600   1.383
36063W        W 1048   6.618  26.456  12.303
36064W        W 1049  40.315   3.130  12.543
36065W        W 1050  15.533  27.519   1.389
36066W        W 1051  17.139  30.227   4.196
36067W        W 1052  13.343  44.086  10.604
36068W        W 1053   2.917  34.969  12.943
36069W        W 1054  32.670  14.243  13.838
36070W        W 1055   6.403  32.550  14.298
36071W        W 1056  27.449  21.666  12.482
36072W        W 1057  28.519  22.267   4.196
36073W        W 1058  28.975  40.258  14.302
36074W        W 1059  12.856  38.480  13.048
36075W        W 1060  11.453   8.157   3.540
36076W        W 1061  41.852  39.441   1.284
36077W        W 1062  11.563  19.557   0.121
36078W        W 1063  39.691  42.678  10.594
36079W        W 1064   8.868  12.876   4.210
36080W        W 1065  41.808  15.057   0.733
36081W        W 1066  16.572  30.614   1.172
36082W        W 1067   5.256   9.626   0.696
36083W        W 1068   6.841  26.441   4.205
36084W        W 1069  11.450  42.353   2.162
36085W        W 1070  15.157  21.755   0.030
36086W        W 1071  36.769  26.992   4.127
36087W        W 1072  15.936  22.052   1.502
36088W        W 1073  38.313  33.436   4.596
36089W        W 1074  33.232  33.451  13.113
36090W        W 1075  44.973   2.182  13.331
36091W        W 1076  35.466  25.735   3.544
36092W        W 1077  39.031  11.159  14.867
36093W        W 1078  21.892  42.936   3.171
36094W        W 1079  19.569   4.996   0.727
36095W        W 1080  19.085  36.528  13.987
36096W        W 1081   9.326   8.192   3.495
36097W        W 1082  32.686  38.075  14.937
36098W        W 1083  24.729   9.277   2.291
36099W        W 1084  28.810   3.094   1.812
36100W        W 1085  25.183  16.285  12.066
36101W        W 1086  21.434   4.102   0.355
36102W        W 1087  25.270  27.686  10.284
36103W        W 1088  44.991  17.736  12.526
36104W        W 1089   3.320  34.482  14.469
36105W        W 1090  34.784  16.019   4.434
36106W        W 1091  38.821  42.305   2.912
36107W        W 1092  38.943   4.950   5.356
36108W        W 1093  27.032  30.901  14.902
36109W        W 1094  38.212  18.873  11.934
36110W        W 1095   0.769  23.238   0.331
36111W        W 1096  39.453  25.761  13.913
36112W        W 1097   6.856  34.430   3.425
36113W        W 1098   5.678  40.591   1.301
36114W        W 1099  24.875  20.813   1.289
36115W        W 1100  18.737  39.820   3.141
36116W        W 1101  23.101  19.732   4.572
36117W        W 1102  36.289  28.009  13.004
36118W        W 1103  18.552  39.043  14.941
36119W        W 1104   5.383  11.152   3.686
36120W        W 1105  25.139  36.044  10.868
36121W        W 1106  14.765  27.453   1.875
36122W        W 1107   7.844  33.042  13.332
36123W        W 1108  19.170   0.971  10.672
36124W        W 1109  44.092  29.580   5.082
36125W        W 1110   8.868   0.929   0.239
36126W        W 1111  38.347   6.742   4.333
36127W        W 1112  21.230  38.469   2.817
36128W        W 1113  36.313  37.497   4.088
36129W        W 1114  41.499  19.819   4.396
36130W        W 1115  19.502  40.218  11.594
36131W        W 1116   5.839   0.440  14.673
36132W        W 1117  11.915  26.129   1.823
36133W        W 1118  38.540   0.343   2.261
36134W        W 1119  39.302  19.806  14.342
36135W        W 1120  38.787  28.441  14.810
36136W        W 1121   6.247  28.911   3.338
36137W        W 1122  33.018   6.164  10.689
36138W        W 1123  36.442   7.142  13.588
36139W        W 1124  11.830  19.108  10.545
36140W        W 1125  22.737   9.186  13.075
36141W        W 1126  44.168   7.392   2.092
36142W        W 1127  17.097  30.237   5.071
36143W        W 1128  26.412  27.111  14.898
36144W        W 1129  38.818  17.757   0.810
36145W        W 1130  43.878   1.242  10.680
36146W        W 1131   8.182   0.189  11.959
36147W        W 1132  19.313   1.187  11.113
36148W        W 1133  40.809  38.009   2.428
36149W        W 1134  38.280  16.508   9.808
36150W        W 1135  43.862   1.965  13.337
36151W        W 1136  27.360  44.899   0.444
36152W        W 1137  26.758  38.589  11.564
36153W        W 1138  12.955  17.294  12.807
36154W        W 1139  35.507  20.279  12.756
36155W        W 1140  32.461   1.843  11.914
36156W        W 1141  12.790  14.379   1.806
36157W        W 1142  26.212  30.344  13.663
36158W        W 1143  11.394  29.024   1.771
36159W        W 1144   2.109  24.470   2.272
36160W        W 1145  27.649  28.032   2.700
36161W        W 1146  19.771  16.331  13.591
36162W        W 1147  44.690  42.212   0.954
36163W        W 1148   3.046  25.419   4.154
36164W        W 1149  41.910   0.367  11.476
36165W        W 1150  38.085  33.465  12.118
36166W        W 1151   0.223   1.315   2.200
36167W        W 1152  34.429  24.225  13.720
36168W        W 1153  22.014   3.862   1.185
36169W        W 1154  42.867  12.412   4.238
36170W        W 1155  41.420  21.968  14.365
36171W        W 1156  18.938  24.170  11.569
36172W        W 1157  11.855  44.819   3.272
36173W        W 1158   7.520  23.014   4.243
36174W        W 1159  20.703  13.033  11.072
36175W        W 1160  43.354  42.292   0.418
36176W        W 1161  25.034  15.670   5.167
36177W        W 1162  31.528  21.031  13.313
36178W        W 1163   6.949  15.854   3.790
36179W        W 1164   9.495   0.669  11.047
36180W        W 1165  27.227  31.573   2.300
36181W        W 1166   1.167  38.926  11.661
36182W        W 1167   0.960  44.386   3.115
36183W        W 1168  43.033  21.559   0.933
36184W        W 1169  10.826   6.476  10.884
36185W        W 1170  27.081  37.116  12.472
36186W        W 1171  37.249  17.410  14.055
36187W        W 1172  23.453  17.233  12.957
36188W        W 1173   9.009  14.091  14.445
36189W        W 1174   6.683  17.674  13.096
36190W        W 1175  19.692  43.709   3.240
36191W        W 1176  38.933  37.896  14.917
36192W        W 1177  31.148  12.603   3.472
36193W        W 1178  26.525   1.616  11.786
36194W        W 1179  10.696   0.016   1.418
36195W        W 1180   0.910  13.145   4.173
36196W        W 1181  10.028  32.546  13.609
36197W        W 1182  43.423   8.274   3.677
36198W        W 1183  26.744  25.650  13.226
36199W        W 1184  38.741   7.324  10.910
36200W        W 1185  35.266  24.933   3.187
36201W        W 1186  14.651   2.728   4.528
36202W        W 1187  25.146  24.619  11.411
36203W        W 1188  21.665  17.323   1.849
36204W        W 1189  44.772  18.214  13.483
36205W        W 1190  38.080   3.862  11.149
36206W        W 1191  44.663  27.995  10.000
36207W        W 1192  16.693  14.091  13.620
36208W        W 1193  31.054   1.685   3.552
36209W        W 1194  20.727  24.441   0.289
36210W        W 1195  15.922  24.263  11.947
36211W        W 1196   3.748   8.355   4.188
36212W        W 1197  38.964  13.781   1.272
36213W        W 1198  20.272  35.533   1.794
36214W        W 1199   3.428   2.222  12.533
36215W        W 1200   1.454  43.254   0.398
36216W        W 1201  38.292  21.575   3.577
36217W        W 1202   4.849   7.460   2.076
36218W        W 1203   7.663   2.735  14.931
36219W        W 1204  16.519  44.790   4.216
36220W        W 1205  34.361  11.587  14.023
36221W        W 1206   0.415  36.362  11.972
36222W        W 1207  30.131   5.400  11.859
36223W        W 1208   6.869  33.085   2.385
36224W        W 1209  25.822   2.394   0.299
36225W        W 1210  36.409  38.590  11.154
36226W        W 1211  25.909  24.808   2.372
36227W        W 1212   0.391  23.089   1.607
36228W        W 1213  11.823  11.122  13.771
36229W        W 1214  10.802  25.065   0.320
36230W        W 1215   8.073  39.204   1.431
36231W        W 1216  23.006  25.003   4.559
36232W        W 1217  20.305  15.103  13.643
36233W        W 1218  35.170  31.450   3.745
36234W        W 1219  25.983  42.926  14.730
36235W        W 1220  12.354   5.270   2.748
36236W        W 1221   5.162  13.403  14.907
36237W        W 1222  31.417  15.149  11.174
36238W        W 1223  22.750  35.937   3.949
36239W        W 1224  21.094  24.885  14.468
36240W        W 1225   5.410  10.865  12.983
36241W        W 1226   0.514  35.673  13.447
36242W        W 1227  43.817  36.345  14.897
36243W        W 1228  31.503   8.620   0.872
36244W        W 1229  13.369   7.486  10.228
36245W        W 1230  13.782  42.094  14.573
36246W        W 1231  43.015  26.737  12.582
36247W        W 1232   4.794  29.892  12.768
36248W        W 1233   7.115   5.280   3.287
36249W        W 1234  15.319  39.344  11.116
36250W        W 1235  32.110  33.597   3.596
36251W        W 1236  34.703  10.627   4.957
36252W        W 1237   6.503  26.072   4.991
36253W        W 1238   7.874  44.023   2.279
36254W        W 1239  42.288  22.000  10.201
36255W        W 1240   5.416   0.592   2.722
36256W        W 1241  40.020  32.408   4.558
36257W        W 1242   3.299  42.483  14.509
36258W        W 1243  14.512  40.443   2.257
36259W        W 1244  38.606  17.641  14.793
36260W        W 1245  37.302   6.656   2.772
36261W        W 1246  14.674  36.407   1.874
36262W        W 1247  13.888  22.515  13.482
36263W        W 1248  26.509  31.828  13.974
36264W        W 1249  20.168  12.048   0.129
36265W        W 1250  25.245   1.479  13.711
36266W        W 1251  31.109  41.993  13.108
36267W        W 1252  21.370  20.750   0.308
36268W        W 1253  24.901  28.190   1.438
36269W        W 1254  33.403  40.117  13.427
36270W        W 1255  27.601  13.596  14.706
36271W        W 1256   2.956  42.243  11.694
36272W        W 1257  17.034  19.415  13.000
36273W        W 1258  28.603  39.776   2.311
36274W        W 1259  21.323  29.919  11.115
36275W        W 1260  34.691  15.715   0.290
36276W        W 1261  23.773  25.125  14.836
36277W        W 1262  44.887  30.795   2.557
36278W        W 1263   2.624  38.179   2.483
36279W        W 1264  42.372  18.329  12.193
36280W        W 1265  43.361  22.105  13.438
36281W        W 1266  21.459  22.295   0.986
36282W        W 1267  20.328  25.288   4.025
36283W        W 1268  34.807  20.865  14.415
36284W        W 1269  19.750  30.042  11.099
36285W        W 1270   3.206  39.918  12.955
36286W        W 1271  13.325  25.900  11.448
36287W        W 1272  29.407  14.071  11.751
36288W        W 1273  19.648   0.813  14.092
36289W        W 1274  44.921  33.415   4.582
36290W        W 1275  13.290  12.365  14.395
36291W        W 1276  39.734  26.504  13.957
36292W        W 1277  27.625   3.274   0.899
36293W        W 1278  38.366  10.738   1.239
36294W        W 1279  36.986   1.335   4.598
36295W        W 1280  20.447  42.353  10.807
36296W        W 1281  30.405  15.889  12.826
36297W        W 1282  28.514  42.029   3.515
36298W        W 1283  15.284   1.358  14.573
36299W        W 1284  29.599  10.821  14.939
36300W        W 1285  13.699  37.926  13.003
36301W        W 1286  37.006  36.557   2.826
36302W        W 1287  31.978  30.065   1.432
36303W        W 1288  16.440  17.468  11.956
36304W        W 1289   4.689  40.881  10.416
36305W        W 1290  30.316  15.797  11.742
36306W        W 1291  31.838   6.448   2.139
36307W        W 1292  34.429   7.076   1.257
36308W        W 1293  16.599  21.986   2.870
36309W        W 1294  12.877   6.329  14.426
36310W        W 1295   6.250  11.404  14.485
36311W        W 1296  12.421  17.720   2.358
36312W        W 1297  25.191  26.107  12.457
36313W        W 1298  18.564  41.796   0.732
36314W        W 1299   3.986  31.614   3.305
36315W        W 1300  16.998  20.320  13.294
36316W        W 1301   6.681   7.002  13.878
36317W        W 1302  23.842  16.685   2.388
36318W        W 1303  29.983  17.610   4.394
36319W        W 1304  10.188  38.379  13.558
36320W        W 1305   0.752   9.831   3.647
36321W        W 1306  19.508  44.903  14.457
36322W        W 1307  23.340  30.945   2.369
36323W        W 1308   9.795   7.677   2.376
36324W        W 1309  41.496  42.834  10.894
36325W        W 1310  13.139  13.110  13.874
36326W        W 1311  21.488  24.353   0.893
36327W        W 1312  23.178  19.648  12.861
36328W        W 1313  28.835  22.102   0.843
36329W        W 1314  37.514  43.200   1.720
36330W        W 1315  23.000  29.399   1.385
36331W        W 1316   3.555  38.576   2.235
36332W        W 1317  29.243  39.334  14.308
36333W        W 1318  33.120   2.984  14.313
36334W        W 1319  15.757  32.486   4.982
36335W        W 1320  30.568  35.812   5.119
36336W        W 1321  30.469  25.478  11.777
36337W        W 1322  31.747  15.374  11.488
36338W        W 1323  28.667  40.567  10.592
36339W        W 1324  35.903  10.731  14.873
36340W        W 1325  30.219  15.782   3.288
36341W        W 1326  31.096  41.437  11.490
36342W        W 1327  21.956  39.873  14.515
36343W        W 1328  43.470  10.813   4.583
36344W        W 1329  24.852  34.858   1.378
36345W        W 1330   5.839  23.559   2.347
36346W        W 1331  11.287   5.800   4.047
36347W        W 1332  21.340  12.883  11.879
36348W        W 1333  37.986  34.405   3.171
36349W        W 1334   2.972   3.740   2.291
36350W        W 1335  18.286  20.207   1.978
36351W        W 1336  34.481  10.745   4.522
36352W        W 1337   1.197  27.928  10.732
36353W        W 1338  19.275   0.857   0.183
36354W        W 1339   3.959  25.968  12.734
36355W        W 1340   8.346  21.782  11.296
36356W        W 1341   7.368  29.439   4.492
36357W        W 1342  17.602  18.154   3.701
36358W        W 1343  39.767  33.683   4.143
36359W        W 1344  22.225  40.462  11.047
36360W        W 1345  44.537  25.366  11.180
36361W        W 1346  12.196  13.296  12.339
36362W        W 1347  39.683  42.356   1.729
36363W        W 1348  25.171   5.905  11.853
36364W        W 1349  11.145  41.094  12.982
36365W        W 1350  12.439  10.633  12.429
36366W        W 1351   5.632  28.132   3.786
36367W        W 1352   4.458  41.930  11.395
36368W        W 1353   1.738  20.269   4.618
36369W        W 1354   9.348  24.238  13.375
36370W        W 1355  39.529  13.823  13.419
36371W        W 1356  43.679  12.611  10.904
36372W        W 1357  19.980  16.810   3.669
36373W        W 1358  32.037   4.289   2.408
36374W        W 1359  26.982  41.584   3.298
36375W        W 1360  38.446  31.693  11.897
36376W        W 1361   2.381  29.001   0.083
36377W        W 1362  34.131   4.004  14.946
36378W        W 1363  28.393  27.515   3.634
36379W        W 1364  44.174  32.091   3.789
36380W        W 1365   3.635   8.856  13.485
36381W        W 1366  19.357   3.169   5.128
36382W        W 1367  41.700  22.205   3.726
36383W        W 1368  34.475  23.423   3.174
36384W        W 1369  11.862   8.114   3.234
36385W        W 1370   1.923  15.710   2.857
36386W        W 1371   6.936   2.352  13.609
36387W        W 1372  19.799  32.868  13.351
36388W        W 1373  17.525   1.210   4.747
36389W        W 1374  23.458  40.394   3.603
36390W        W 1375  34.040  10.649  11.373
36391W        W 1376  22.024  30.593   1.465
36392W        W 1377  40.081   2.558   4.601
36393W        W 1378  43.120  41.484  10.319
36394W        W 1379  37.854  16.076   3.657
36395W        W 1380  21.950   9.024  12.132
36396W        W 1381  19.065  10.905   1.674
36397W        W 1382  24.666  16.281  11.042
36398W        W 1383  15.851  16.235   2.360
36399W        W 1384   0.921  22.287   4.239
36400W        W 1385  13.851  37.511   4.136
36401W        W 1386  19.121   6.180  14.039
36402W        W 1387  20.805   3.157   2.336
36403W        W 1388   1.559  25.697  12.527
36404W        W 1389   5.783  11.367   4.242
36405W        W 1390  40.181  12.842   0.975
36406W        W 1391  37.806  35.383   9.694
36407W        W 1392  34.295   1.829  14.320
36408W        W 1393  35.635  16.124   2.934
36409W        W 1394   7.831  22.878   4.634
36410W        W 1395   4.081  32.586   3.227
36411W        W 1396  21.760  14.852   1.836
36412W        W 1397   2.417  32.037  10.805
36413W        W 1398  13.888   9.773   1.346
36414W        W 1399  20.335  14.225  10.337
36415W        W 1400  11.735  43.491   1.211
36416W        W 1401  40.263  33.394   2.188
36417W        W 1402  38.452  13.651   2.029
36418W        W 1403  31.092  31.813   0.436
36419W        W 1404  23.549  24.995  11.955
36420W        W 1405  23.923   7.329  10.468
36421W        W 1406  29.629  31.195   2.219
36422W        W 1407  32.634  32.971   4.193
36423W        W 1408  22.535   8.201   0.785
36424W        W 1409   0.216  13.268   0.361
36425W        W 1410  20.458   2.959  11.510
36426W        W 1411  23.142  30.477  13.461
36427W        W 1412  21.537  39.873   3.545
36428W        W 1413  14.227   4.775   0.417
36429W        W 1414   6.730   9.195  13.216
36430W        W 1415  28.422  33.138   3.207
36431W        W 1416  20.529  35.144   0.579
36432W        W 1417  27.664  39.026   1.452
36433W        W 1418  23.500   6.785   1.180
36434W        W 1419   7.753  35.598  12.344
36435W        W 1420  23.867  28.865  14.455
36436W        W 1421  42.910  25.178  12.389
36437W        W 1422  30.583  16.766  14.222
36438W        W 1423  34.830  38.339   2.700
36439W        W 1424  34.531  17.315  12.379
36440W        W 1425   1.511  25.545   4.269
36441W        W 1426  13.113  30.397   3.758
36442W        W 1427  25.039  42.729   4.285
36443W        W 1428   8.181  17.806   0.424
36444W        W 1429  17.215  42.512  10.694
36445W        W 1430  22.110  33.426   3.806
36446W        W 1431   4.466  40.455  14.912
36447W        W 1432   3.695  35.863   3.705
36448W        W 1433  29.646  13.196  11.562
36449W        W 1434   3.823  32.888   0.945
36450W        W 1435  39.643  19.972   1.278
36451W        W 1436  26.619  24.189   4.921
36452W        W 1437  32.763  25.848  10.709
36453W        W 1438  39.739  16.291   2.976
36454W        W 1439  29.059  18.902  11.585
36455W        W 1440  19.630   7.291   4.333
36456W        W 1441  32.737  17.014  11.196
36457W        W 1442  11.641  26.794  14.405
36458W        W 1443  21.017  12.671  10.904
36459W        W 1444  31.998  41.746  12.572
36460W        W 1445  36.474  15.798  13.426
36461W        W 1446  40.910  24.705   0.472
36462W        W 1447   8.686   9.419   5.169
36463W        W 1448   9.839  40.549   4.500
36464W        W 1449  11.408  10.240  11.545
36465W        W 1450   6.674  11.170  13.566
36466W        W 1451  17.723  37.587   3.758
36467W        W 1452  25.038  16.707  10.579
36468W        W 1453  27.576  18.609   3.393
36469W        W 1454   2.027  40.053   3.242
36470W        W 1455  23.413  43.543  12.067
36471W        W 1456  32.311  40.886  11.642
36472W        W 1457   8.805   1.008  12.008
36473W        W 1458  40.409  36.861   0.860
36474W        W 1459  16.062   8.339  14.606
36475W        W 1460  38.538  31.228  14.999
36476W        W 1461  17.097  39.960  12.127
36477W        W 1462  19.173  31.232  13.496
36478W        W 1463  35.565  26.229  10.708
36479W        W 1464  21.939  42.567   0.830
36480W        W 1465  42.871  11.224  11.574
36481W        W 1466  44.345  15.447   0.770
36482W        W 1467  34.970   4.457   2.150
36483W        W 1468  39.068  25.836  12.252
36484W        W 1469   1.763  40.231   2.787
36485W        W 1470  21.061   1.491  11.160
36486W        W 1471  22.536   5.747  13.604
36487W        W 1472  24.557  43.480  12.845
36488W        W 1473   8.320  31.440   2.858
36489W        W 1474   6.757  39.974  12.921
36490W        W 1475  40.898  37.596  12.347
36491W        W 1476  39.893  43.589   2.113
36492W        W 1477  16.953  42.588   1.796
36493W        W 1478   7.534  25.516  11.673
36494W        W 1479  34.083  12.224  12.889
36495W        W 1480  17.538   9.890   0.434
36496W        W 1481   5.711  13.859  13.425
36497W        W 1482  39.060   3.940  13.680
36498W        W 1483  35.124   6.825  12.343
36499W        W 1484  36.977  37.569   0.303
36500W        W 1485   8.860  10.786  13.947
36501W        W 1486  15.592  13.873   5.027
36502W        W 1487  20.681  16.079   4.421
36503W        W 1488  11.241   3.889   0.958
36504W        W 1489  31.547  12.829  10.621
36505W        W 1490  44.303  32.657  14.457
36506W        W 1491  24.068  20.102   1.217
36507W        W 1492  31.927  31.135   0.973
36508W        W 1493  20.340  40.162  11.961
36509W        W 1494  43.936  40.379   0.525
36510W        W 1495  40.207   0.250  12.048
36511W        W 1496  10.318  13.287   4.325
36512W        W 1497  24.363  10.290   1.514
36513W        W 1498   4.499  27.196  12.860
36514W        W 1499  28.977  41.474  14.298
36515W        W 1500  12.196  21.692   2.154
36516W        W 1501  36.276   9.493  11.148
36517W        W 1502  17.108  13.886  12.984
36518W        W 1503  42.732  10.863   1.320
36519W        W 1504   0.016  19.052  10.453
36520W        W 1505   8.243  33.340  13.375
36521W        W 1506  30.380   5.641   4.120
36522W        W 1507  37.806  27.142  14.310
36523W        W 1508  38.265  44.304   0.026
36524W        W 1509  32.848  33.561  10.625
36525W        W 1510  24.773   6.420   1.126
36526W        W 1511  29.093  21.299  14.576
36527W        W 1512  10.096  30.596  11.876
36528W        W 1513   8.611   4.772  14.255
36529W        W 1514  44.880  33.419   0.931
36530W        W 1515  31.737   0.702   3.293
36531W        W 1516  17.370   0.557  10.185
36532W        W 1517   9.073   7.239   4.139
36533W        W 1518  26.117  30.600   2.659
36534W        W 1519  28.963  23.721  12.522
36535W        W 1520  24.953  32.414  12.390
36536W        W 1521  44.329  41.686   5.265
36537W        W 1522  15.367   2.485   4.902
36538W        W 1523  24.813  44.115   1.311
36539W        W 1524  34.402  39.412  13.896
36540W        W 1525   8.901   5.052  14.568
36541W        W 1526  34.082  15.761  10.435
36542W        W 1527  39.396  33.175  12.066
36543W        W 1528  29.616   4.776   5.072
36544W        W 1529  31.598  44.055  14.470
36545W        W 1530  42.395  32.439   3.727
36546W        W 1531  44.323  44.960  14.854
36547W        W 1532   4.579  13.314  11.410
36548W        W 1533   9.657  16.167   2.395
36549W        W 1534   4.805   6.352   4.608
36550W        W 1535  40.746  16.674  13.375
36551W        W 1536  30.411  34.731  11.010
36552W        W 1537   4.811  32.238  14.497
36553W        W 1538   3.505  11.606   3.805
36554W        W 1539  40.697   6.858  10.406
36555W        W 1540  43.773  15.028   1.731
36556W        W 1541  25.715  14.551   2.397
36557W        W 1542  14.125  22.240   0.926
36558W        W 1543  25.947  15.155  11.593
36559W        W 1544  28.232  37.105   0.372
36560W        W 1545  42.883   7.462   3.750
36561W        W 1546  26.401  15.189   1.096
36562W        W 1547  24.013  44.798   3.977
36563W        W 1548   5.212  15.104  14.142
36564W        W 1549  21.113   7.892   0.894
36565W        W 1550  25.639  19.173   2.204
36566W        W 1551  22.926  11.780  11.947
36567W        W 1552  41.602  22.390  14.059
36568W        W 1553  36.229  28.035  12.074
36569W        W 1554  13.091  18.190   3.292
36570W        W 1555  17.676   4.138  14.501
36571W        W 1556  39.368  37.081  14.287
36572W        W 1557  27.420  37.873   3.130
36573W        W 1558  10.947   9.192   1.249
36574W        W 1559  20.494   7.916   1.242
36575W        W 1560  43.948   5.972  11.990
36576W        W 1561  38.904  29.024   0.647
36577W        W 1562  21.392  28.461   4.627
36578W        W 1563  36.162  16.603   4.582
36579W        W 1564  24.119  14.250  14.328
36580W        W 1565  11.425   0.694  14.495
36581W        W 1566  11.052   0.237   3.706
36582W        W 1567  21.222  33.012  14.814
36583W        W 1568  24.119   5.434  11.620
36584W        W 1569  19.281  39.772  11.030
36585W        W 1570  32.069  33.007   2.698
36586W        W 1571  33.697  34.754  10.422
36587W        W 1572  31.557  44.724  13.028
36588W        W 1573   6.372  23.272  12.912
36589W        W 1574  10.140  14.713   3.276
36590W        W 1575  33.144   3.895  11.649
36591W        W 1576   3.002  17.867   4.846
36592W        W 1577   5.665  26.566  12.526
36593W        W 1578  28.910  12.785   4.101
36594W        W 1579  31.009  24.219   2.400
36595W        W 1580  15.477  30.442  10.705
36596W        W 1581  37.567  22.249   2.250
36597W        W 1582  42.945  28.479   1.011
36598W        W 1583  39.419  40.452  12.490
36599W        W 1584  19.005  31.799   4.120
36600W        W 1585  10.103  44.840   5.057
36601W        W 1586  40.330  22.617   4.821
36602W        W 1587   4.404   5.291  12.388
36603W        W 1588   8.145  24.653   1.678
36604W        W 1589  38.504   0.396   3.180
36605W        W 1590  10.869  25.813   0.853
36606W        W 1591  20.013  25.523  14.686
36607W        W 1592  44.187   9.085   1.783
36608W        W 1593   1.019  38.738   4.127
36609W        W 1594   0.120   5.117   2.728
36610W        W 1595  23.171  20.271   5.311
36611W        W 1596  22.180  10.646   4.504
36612W        W 1597  36.955  32.061  12.966
36613W        W 1598  13.665  24.776   0.581
36614W        W 1599  17.675  31.629  12.219
36615W        W 1600  41.908  33.416   1.261
36616W        W 1601   7.224  33.158   0.567
36617W        W 1602   8.910  19.079  12.226
36618W        W 1603  19.240  33.370  11.125
36619W        W 1604  23.074   5.941   4.621
36620W        W 1605  23.038  43.810  14.753
36621W        W 1606   6.445   9.685  10.739
36622W        W 1607  31.040  27.205   0.925
36623W        W 1608  37.120   0.857  12.797
36624W        W 1609  33.350  17.574  12.599
36625W        W 1610   7.629  11.089  13.399
36626W        W 1611   4.897  34.827  13.363
36627W        W 1612  17.843  32.098   3.801
36628W        W 1613  40.815  14.253   3.353
36629W        W 1614   8.432  35.136  12.849
36630W        W 1615  22.826  14.107  11.193
36631W        W 1616  28.637  24.284   4.114
36632W        W 1617   5.875  20.628  12.387
36633W        W 1618  38.737  33.381  12.558
36634W        W 1619  27.733  37.143   0.247
36635W        W 1620  24.913  23.199  11.677
36636W        W 1621   1.395   9.105  13.150
36637W        W 1622  31.854   4.343  10.690
36638W        W 1623  15.180   1.819  12.319
36639W        W 1624  40.379  19.866  11.482
36640W        W 1625  26.890  31.193  12.533
36641W        W 1626  32.321  40.355  13.410
36642W        W 1627  29.570  24.636   1.853
36643W        W 1628  39.718  23.065   9.869
36644W        W 1629   2.284   7.582  11.194
36645W        W 1630  25.278   7.842   0.863
36646W        W 1631  18.420  25.604   3.425
36647W        W 1632   0.929  14.488   4.517
36648W        W 1633  14.558   8.602  12.147
36649W        W 1634  43.566  19.790  12.037
36650W        W 1635  19.554  31.601   2.876
36651W        W 1636  20.592  20.081  12.188
36652W        W 1637  11.563   0.719   3.134
36653W        W 1638  28.406  40.903   4.158
36654W        W 1639  28.535  10.878  14.306
36655W        W 1640  10.326  34.947   0.413
36656W        W 1641  14.622  39.778  12.324
36657W        W 1642  18.603  11.731  12.474
36658W        W 1643  27.312  27.703   2.063
36659W        W 1644  18.607   6.509  13.827
36660W        W 1645  39.737  11.151  13.590
36661W        W 1646  41.705  36.108  14.380
36662W        W 1647  14.578  35.080   1.156
36663W        W 1648  29.691  19.518  12.224
36664W        W 1649   8.976  12.181  10.672
36665W        W 1650  40.277  15.811   3.466
36666W        W 1651  35.916  30.260  12.370
36667W        W 1652  29.063  34.352   4.375
36668W        W 1653  41.253  37.585  12.707
36669W        W 1654  36.080  16.310   1.019
36670W        W 1655  40.033  19.741   2.097
36671W        W 1656   6.969   4.549  14.409
36672W        W 1657  34.508   4.757   3.370
36673W        W 1658  33.670   1.255   3.745
36674W        W 1659   7.224  43.916   3.366
36675W        W 1660  24.812  10.274   4.705
36676W        W 1661  11.819  27.758   3.216
36677W        W 1662  10.332   3.884  14.528
36678W        W 1663  28.528  26.089  13.769
36679W        W 1664  32.628  21.759  13.491
36680W        W 1665  29.615  39.159   3.047
36681W        W 1666  40.545  41.547  14.866
36682W        W 1667  23.460   4.601  13.414
36683W        W 1668  37.399   6.224   0.827
36684W        W 1669   1.983   3.459   4.787
36685W        W 1670  40.835  22.345  10.401
36686W        W 1671  14.242  34.791  12.022
36687W        W 1672   7.857  30.735  12.844
36688W        W 1673  23.645  12.130   0.544
36689W        W 1674  13.929  15.394  10.585
36690W        W 1675  18.571  10.434   5.006
36691W        W 1676  13.131  31.197   9.748
36692W        W 1677   6.804  11.630   3.609
36693W        W 1678  43.928  27.448   1.168
36694W        W 1679  25.695  38.745  10.024
36695W        W 1680  35.822  21.473  13.859
36696W        W 1681  11.827  35.881  12.575
36697W        W 1682  25.718  22.600   2.215
36698W        W 1683   7.427   2.451   0.347
36699W        W 1684   7.623   1.011   2.948
36700W        W 1685  23.626  18.249   4.222
36701W        W 1686  38.110   6.155   0.261
36702W        W 1687  26.809  15.440   0.929
36703W        W 1688  35.377   7.451   3.700
36704W        W 1689  11.669  27.599   1.370
36705W        W 1690  24.946   7.107   4.529
36706W        W 1691  38.797  28.913  13.830
36707W        W 1692  18.277  14.020  13.313
36708W        W 1693  15.071  23.143   0.737
36709W        W 1694   0.903   4.815   1.536
36710W        W 1695  21.095   8.824   3.666
36711W        W 1696  42.851  19.179   3.316
36712W        W 1697  11.751   9.214   2.773
36713W        W 1698  19.120  38.970   1.176
36714W        W 1699  39.990  22.682   1.543
36715W        W 1700  29.656  10.897  10.249
36716W        W 1701  14.745  24.322   1.321
36717W        W 1702  14.644   7.719   2.356
36718W        W 1703   0.011  35.503   2.432
36719W        W 1704  33.054  20.287  11.247
36720W        W 1705  32.723  14.335   0.285
36721W        W 1706  15.780  32.489  14.451
36722W        W 1707   2.619  27.719  14.762
36723W        W 1708   2.504  42.725   3.812
36724W        W 1709  21.411   0.822  13.242
36725W        W 1710  36.101  20.005   0.991
36726W        W 1711  43.521   4.671  11.546
36727W        W 1712  32.198  27.737   2.532
36728W        W 1713  36.054  35.435  11.987
36729W        W 1714  42.428  28.369  11.637
36730W        W 1715  17.565   3.312  10.758
36731W        W 1716   5.344  21.075  13.077
36732W        W 1717  38.513  29.840   3.252
36733W        W 1718   0.175   6.717  14.579
36734W        W 1719   0.140  10.945  13.976
36735W        W 1720  17.964  30.874   1.392
36736W        W 1721  21.445  18.430   0.735
36737W        W 1722  38.899  21.224  14.495
36738W        W 1723  12.751   0.072   4.252
36739W        W 1724  23.669   6.461   3.769
36740W        W 1725  20.629  14.917  14.782
36741W        W 1726  28.370  23.612   4.554
36742W        W 1727  10.309   3.369  14.415
36743W        W 1728   9.721  16.220  11.165
36744W        W 1729  27.666  20.409  12.312
36745W        W 1730  35.718  11.243   1.904
36746W        W 1731  14.637  18.830   0.289
36747W        W 1732  29.408  27.488   1.716
36748W        W 1733  32.180  29.554   1.308
36749W        W 1734  34.965  34.567   4.256
36750W        W 1735  22.595  26.139   5.064
36751W        W 1736  39.661   1.438  11.138
36752W        W 1737  20.312  32.733  12.412
36753W        W 1738  27.922  41.962   0.452
36754W        W 1739   2.988  14.062  14.813
36755W        W 1740   1.086  19.756   0.831
36756W        W 1741  11.407   0.934   2.687
36757W        W 1742  28.202  24.065   4.300
36758W        W 1743  26.447  43.292   0.467
36759W        W 1744   7.817  20.829  12.469
36760W        W 1745  18.067  25.010  12.131
36761W        W 1746   7.335  18.147   3.368
36762W        W 1747  22.009   8.275  13.914
36763W        W 1748  26.582  13.876   4.240
36764W        W 1749  21.949   8.761  11.391
36765W        W 1750   9.201  14.845  11.493
36766W        W 1751  42.903  30.209   3.626
36767W        W 1752   6.742  42.742   4.613
36768W        W 1753  42.042  29.100  12.177
36769W        W 1754  14.791  43.997   0.513
36770W        W 1755   6.425  44.183  13.239
36771W        W 1756  40.799   0.502   3.622
36772W        W 1757  40.092  33.051  14.996
36773W        W 1758   1.037  27.982   2.186
36774W        W 1759   4.370  23.294  14.107
36775W        W 1760  14.148   7.326  14.050
36776W        W 1761  20.175  32.585   2.876
36777W        W 1762  15.488  41.434  14.021
36778W        W 1763   5.797  38.476  12.546
36779W        W 1764  29.028  15.252   1.517
36780W        W 1765  30.028   0.437   2.308
36781W        W 1766  17.135   9.440   2.805
36782W        W 1767  32.971   7.898  13.973
36783W        W 1768   0.704   7.895   1.855
36784W        W 1769  19.510  25.748   2.453
36785W        W 1770  39.351  20.563  12.348
36786W        W 1771  10.503  39.678  14.362
36787W        W 1772  26.134   0.600  12.903
36788W        W 1773  19.374  19.788   1.400
36789W        W 1774  29.378   4.036  12.667
36790W        W 1775  24.481  35.294  11.412
36791W        W 1776  20.734  10.325   2.022
36792W        W 1777  40.845  31.542  11.963
36793W        W 1778   9.078  10.519   4.275
36794W        W 1779   8.449  34.162  13.505
36795W        W 1780  39.908  34.081  12.413
36796W        W 1781  40.162  22.617   3.769
36797W        W 1782  39.581  26.153   1.930
36798W        W 1783  42.273  44.737   3.335
36799W        W 1784  27.157  29.667   1.197
36800W        W 1785  25.590  35.316  12.300
36801W        W 1786   5.186  10.403  10.668
36802W        W 1787  15.706  33.203   3.358
36803W        W 1788  35.470  27.368   3.532
36804W        W 1789  19.233  40.923  13.980
36805W        W 1790   8.275  42.255  10.749
36806W        W 1791  12.314  41.837  11.123
36807W        W 1792  22.101  23.259   1.804
36808W        W 1793  19.020   5.609  12.584
36809W        W 1794   5.260  16.167  11.419
36810W        W 1795  29.890  21.919  10.700
36811W        W 1796  32.696   1.056  14.368
36812W        W 1797  32.470   6.756   0.598
36813W        W 1798  33.460  43.594  11.192
36814W        W 1799  15.139   1.724   3.191
36815W        W 1800   7.849  42.303  10.471
36816W        W 1801  31.313  23.074   4.849
36817W        W 1802   9.976  43.734  13.438
36818W        W 1803  44.378  17.462   0.682
36819W        W 1804  22.040  32.151   4.224
36820W        W 1805  15.759  17.016   1.345
36821W        W 1806  31.332   8.607  14.498
36822W        W 1807  32.881  19.696   0.267
36823W        W 1808   6.648   4.924   0.433
36824W        W 1809  39.898  25.684  14.948
36825W        W 1810   8.441  21.426  10.749
36826W        W 1811  32.039  13.114  13.624
36827W        W 1812  24.264   6.978   1.850
36828W        W 1813  20.816  39.293   3.875
36829W        W 1814   9.490  23.986  11.115
36830W        W 1815  24.128   2.233   1.477
36831W        W 1816  32.294   5.062   2.860
36832W        W 1817  40.999   6.942  11.066
36833W        W 1818  14.752  17.994   0.454
36834W        W 1819  12.783  31.621   2.239
36835W        W 1820   9.012  21.328  12.579
36836W        W 1821   7.847  12.189   0.869
36837W        W 1822  18.962  41.488   2.966
36838W        W 1823   4.283  35.631  14.041
36839W        W 1824  44.594  34.609   3.206
36840W        W 1825  21.529  40.991  12.475
36841W        W 1826  18.871  39.299   0.256
36842W        W 1827   0.509  37.337  11.913
36843W        W 1828  18.600  18.645  12.027
36844W        W 1829  43.078   8.759  11.224
36845W        W 1830  35.471  24.947   4.046
36846W        W 1831   3.876   6.871  10.552
36847W        W 1832  17.251  44.297   1.205
36848W        W 1833   5.975  14.940   1.775
36849W        W 1834  41.257  12.426  14.391
36850W        W 1835  26.711  10.300   4.522
36851W        W 1836  32.780  10.037   3.608
36852W        W 1837  29.524  21.254  14.853
36853W        W 1838  19.038  34.731  12.432
36854W        W 1839  12.290   9.312  13.613
36855W        W 1840  40.914  21.258   4.064
36856W        W 1841  12.387  23.799   4.084
36857W        W 1842  24.461  43.091   2.197
36858W        W 1843  20.142   3.895  14.743
36859W        W 1844  11.729  31.018   1.467
36860W        W 1845  22.683  41.783   4.890
36861W        W 1846   9.236  23.202   1.798
36862W        W 1847  17.743  10.387  10.122
36863W        W 1848  14.884  16.125  12.439
36864W        W 1849  30.206  32.323  13.937
36865W        W 1850   8.036  12.610  13.917
36866W        W 1851  23.652  16.616  12.396
36867W        W 1852   2.724  17.563  12.900
36868W        W 1853  14.627  17.151  14.973
36869W        W 1854  17.128  21.619  14.745
36870W        W 1855  39.129  18.046  13.501
36871W        W 1856  31.098  42.750  12.633
36872W        W 1857   6.221  16.843   2.081
36873W        W 1858  19.626  10.911  12.950
36874W        W 1859  39.898  38.827   3.428
36875W        W 1860   0.703  26.684  12.750
36876W        W 1861  16.394   8.460  11.594
36877W        W 1862  38.658  42.702  11.610
36878W        W 1863  20.121  30.103   0.039
36879W        W 1864  18.967  30.158  10.690
36880W        W 1865  14.109  36.910  13.031
36881W        W 1866  24.524  25.475  13.222
36882W        W 1867  29.665  21.916   2.761
36883W        W 1868  37.551  15.721   1.711
36884W        W 1869  22.469  32.440  11.902
36885W        W 1870   6.286  16.410  12.203
36886W        W 1871  29.813   0.773  13.020
36887W        W 1872  16.003  38.686  10.332
36888W        W 1873   4.254  33.883  10.682
36889W        W 1874  44.952   1.724   2.482
36890W        W 1875  26.136  33.581   5.379
36891W        W 1876  24.312   9.428  12.526
36892W        W 1877   3.433  18.143   1.694
36893W        W 1878  17.552  23.477   3.894
36894W        W 1879  11.313  31.556  10.247
36895W        W 1880  39.610  23.235  12.996
36896W        W 1881  32.895   3.316   1.823
36897W        W 1882   7.475  25.637   1.691
36898W        W 1883   8.656  40.803   0.510
36899W        W 1884  40.208  15.979   3.962
36900W        W 1885  15.229   5.128  13.873
36901W        W 1886  34.720   0.237   1.070
36902W        W 1887  40.447  26.218   0.494
36903W        W 1888  38.908  32.154  14.992
36904W        W 1889  12.116  32.168  11.716
36905W        W 1890  34.343   2.391   3.239
36906W        W 1891  18.574  42.458   2.943
36907W        W 1892  16.693   9.729   0.848
36908W        W 1893  12.826  21.686  13.495
36909W        W 1894  42.765  39.018  13.303
36910W        W 1895  31.341  43.821  13.821
36911W        W 1896   7.621   2.524   2.496
36912W        W 1897  16.341  21.229  11.991
36913W        W 1898   2.884  24.465  11.878
36914W        W 1899  16.477  32.551   3.885
36915W        W 1900  39.550   2.981  13.073
36916W        W 1901  37.438  29.166  11.418
36917W        W 1902  39.793  24.033   2.184
36918W        W 1903  37.371  30.978   2.600
36919W        W 1904  44.591  22.878  10.134
36920W        W 1905  12.367  43.718  14.458
36921W        W 1906  34.104   5.250  11.633
36922W        W 1907  26.028  10.187  10.659
36923W        W 1908  18.423  32.240   0.720
36924W        W 1909   6.970  41.611   4.133
36925W        W 1910  27.818  36.800  11.125
36926W        W 1911  43.377   2.296  12.583
36927W        W 1912   9.281   4.736   4.153
36928W        W 1913  20.231   6.609  13.802
36929W        W 1914  17.115   2.352   4.215
36930W        W 1915  34.038  32.832   4.666
36931W        W 1916  37.373   8.779   1.898
36932W        W 1917  24.505  41.343   1.749
36933W        W 1918  42.718   6.387  11.339
36934W        W 1919  12.768  27.408   4.289
36935W        W 1920  10.190  32.016  11.394
36936W        W 1921  33.411  37.883  14.289
36937W        W 1922  13.968  22.047  13.669
36938W        W 1923  12.545  21.042   0.342
36939W        W 1924  29.072  15.001  11.394
36940W        W 1925  20.768  37.521  14.280
36941W        W 1926  26.023  25.613   2.967
36942W        W 1927  12.104  44.067   1.856
36943W        W 1928  21.821  21.026   0.906
36944W        W 1929  44.796   4.854   4.331
36945W        W 1930  19.109  39.916  10.539
36946W        W 1931  34.408  11.845  10.699
36947W        W 1932  17.062  22.024   1.418
36948W        W 1933  19.104  33.698   4.674
36949W        W 1934  23.096  29.591  14.873
36950W        W 1935  13.800   0.505   4.184
36951W        W 1936   0.047  10.469  11.237
36952W        W 1937   8.065  16.187  10.959
36953W        W 1938  34.042   8.112  10.726
36954W        W 1939  16.719  42.038   4.086
36955W        W 1940  41.033  15.238  11.174
36956W        W 1941  13.605   4.732  14.330
36957W        W 1942   0.407  19.810   2.933
36958W        W 1943   2.453  39.335   4.103
36959W        W 1944   4.436  13.267  13.656
36960W        W 1945  33.420   0.825   1.003
36961W        W 1946   0.995  36.141   0.046
36962W        W 1947  19.155  17.614  14.592
36963W        W 1948  16.067  14.385   1.463
36964W        W 1949   8.342  28.740   1.420
36965W        W 1950  14.016  35.334   3.833
36966W        W 1951  10.372  39.855   9.986
36967W        W 1952  34.346   0.490  11.515
36968W        W 1953  35.874  34.211  14.760
36969W        W 1954  32.600  13.825   1.399
36970W        W 1955  34.108  12.446   2.847
36971W        W 1956  30.042  15.281  14.303
36972W        W 1957  42.062  29.592   5.031
36973W        W 1958   4.002  43.084   0.421
36974W        W 1959  21.426  15.769   3.391
36975W        W 1960  44.439  24.910   5.654
36976W        W 1961   8.244  44.388   3.085
36977W        W 1962  32.006  43.058   3.782
36978W        W 1963  15.543   0.603  11.537
36979W        W 1964   4.603  39.977  14.260
36980W        W 1965  31.916  40.987   0.872
36981W        W 1966  41.611  41.957   1.374
36982W        W 1967  30.025  10.150  12.565
36983W        W 1968  17.359  14.866   3.698
36984W        W 1969  17.046   6.024   2.733
36985W        W 1970  37.825  37.928   0.318
36986W        W 1971  17.717  35.291   4.152
36987W        W 1972  20.683  29.159  10.663
36988W        W 1973  22.094  33.462   1.417
36989W        W 1974  14.275  10.442  10.775
36990W        W 1975  30.533   1.527   4.234
36991W        W 1976  21.297  30.876  12.987
36992W        W 1977  32.671  17.748  10.718
36993W        W 1978  15.473   9.419  12.433
36994W        W 1979  32.358  36.375   2.738
36995W        W 1980  12.618  39.931   0.485
36996W        W 1981  10.567   6.703   3.668
36997W        W 1982   9.914  35.788  11.253
36998W        W 1983  27.481  37.407   1.380
36999W        W 1984  35.806   8.889   2.354
37000W        W 1985  21.147  41.833   0.221
37001W        W 1986   9.324   5.155   3.822
37002W        W 1987  12.525  38.493   0.085
37003W        W 1988  23.763  39.854  13.781
37004W        W 1989  40.925  28.306   1.891
37005W        W 1990   0.258  44.276   1.314
37006W        W 1991  37.589  15.137  13.065
37007W        W 1992  34.399   3.394   3.608
37008W        W 1993   6.941  40.272   1.711
37009W        W 1994  42.399   5.065  13.771
37010W        W 1995  32.986  24.922  12.433
37011W        W 1996  16.753   5.729  14.884
37012W        W 1997  41.897  24.023   1.593
37013W        W 1998   8.056  24.437   2.906
37014W        W 1999   8.150  37.483  14.065
37015W        W 2000  21.445   9.693   4.104
37016W        W 2001   2.434  37.689   2.532
37017W        W 2002  30.092  28.962   0.571
37018W        W 2003  36.449  35.782  14.299
37019W        W 2004  20.277  17.754  12.470
37020W        W 2005  42.428  13.845  10.186
37021W        W 2006   0.835   5.349   1.348
37022W        W 2007  44.468  40.959   2.035
37023W        W 2008  29.332  20.224  13.849
37024W        W 2009  14.741   9.379   5.021
37025W        W 2010  33.097  35.169   3.217
37026W        W 2011  37.062  20.073  11.634
37027W        W 2012  37.796  29.523   3.611
37028W        W 2013  37.414   0.986  11.565
37029W        W 2014  26.021  20.317  14.508
37030W        W 2015   6.920  14.784  11.168
37031W        W 2016  22.555  27.550   3.229
37032W        W 2017  17.410  10.796  14.416
37033W        W 2018  38.533  40.917   3.516
37034W        W 2019  29.116  35.022  12.862
37035W        W 2020   9.153  44.987   2.277
37036W        W 2021   6.899  26.968   0.818
37037W        W 2022  32.488   9.468   1.149
37038W        W 2023   6.251   9.557   0.764
37039W        W 2024  36.094  34.469   1.384
37040W        W 2025  34.330  17.396  11.005
37041W        W 2026  24.012  27.122   1.668
37042W        W 2027  18.353  16.063  12.611
37043W        W 2028  27.675   8.825  14.263
37044W        W 2029  41.554   2.544   0.722
37045W        W 2030  12.813  40.577  13.353
37046W        W 2031  44.857   8.646  10.720
37047W        W 2032  40.958  16.795  12.092
37048W        W 2033  33.984  21.100   1.655
37049W        W 2034   3.285  35.801  13.014
37050W        W 2035  31.187  24.951   1.140
37051W        W 2036  30.623  28.538   2.398
37052W        W 2037   2.517  27.251  12.893
37053W        W 2038  43.838  36.140   9.981
37054W        W 2039  22.745  37.927  11.590
37055W        W 2040  24.192  26.632  11.670
37056W        W 2041  41.448   5.634   0.761
37057W        W 2042  31.540  27.329   1.817
37058W        W 2043  19.618  16.545   0.020
37059W        W 2044   8.286  19.315  12.997
37060W        W 2045   8.345   8.703   5.573
37061W        W 2046   7.657  18.240  11.628
37062W        W 2047  26.064  20.269   1.974
37063W        W 2048  18.692  37.076   2.726
37064W        W 2049  32.380   7.608   1.176
37065W        W 2050  15.578   3.317  10.403
37066W        W 2051   9.259   9.282  14.540
37067W        W 2052   3.903   5.811   0.432
37068W        W 2053  43.942  42.728  14.469
37069W        W 2054  14.879  15.587   4.099
37070W        W 2055   2.679   2.441  14.536
37071W        W 2056  37.035  16.406   1.591
37072W        W 2057  30.046  36.359  12.927
37073W        W 2058  22.100  15.356  14.317
37074W        W 2059  18.719  37.555  13.317
37075W        W 2060  14.701  22.669  14.764
37076W        W 2061  33.080  28.864  12.031
37077W        W 2062  26.544  35.770   1.693
37078W        W 2063  38.170   1.574   1.411
37079W        W 2064  13.636  11.671   4.457
37080W        W 2065   4.348  30.650  13.290
37081W        W 2066  10.820  23.423   2.203
37082W        W 2067  24.932  28.727   1.409
37083W        W 2068   5.958   6.461   0.817
37084W        W 2069  19.503  44.546  10.637
37085W        W 2070  11.058  35.877  13.613
37086W        W 2071  14.852   8.173  13.003
37087W        W 2072  30.591   7.882  10.742
37088W        W 2073  24.782  39.908  13.942
37089W        W 2074  33.874  25.105  13.991
37090W        W 2075  14.384  19.687   4.706
37091W        W 2076  39.873  12.624  11.593
37092W        W 2077   5.068  39.900  14.487
37093W        W 2078  38.450  34.580   3.921
37094W        W 2079  38.190  34.550   0.802
37095W        W 2080  10.123  28.533  14.949
37096W        W 2081  14.906   3.027  12.386
37097W        W 2082  32.700  15.334  11.787
37098W        W 2083  23.769   3.709  13.983
37099W        W 2084  41.012  41.435   0.234
37100W        W 2085  14.234  27.876   2.771
37101W        W 2086  42.066   3.249   0.616
37102W        W 2087  15.804  31.955  12.379
37103W        W 2088  24.061  43.800   4.871
37104W        W 2089  16.577   8.907   2.172
37105W        W 2090   6.677  27.225  13.405
37106W        W 2091   7.281  24.770   2.253
37107W        W 2092  43.645   3.495  12.031
37108W        W 2093  13.148   7.834   2.860
37109W        W 2094  44.351  32.547   3.639
37110W        W 2095  44.628   6.846  10.156
37111W        W 2096   1.024  24.196  14.102
37112W        W 2097  34.057   5.327   2.873
37113W        W 2098  30.900  19.519   0.264
37114W        W 2099  16.443  33.091  14.409
37115W        W 2100   5.861   6.201  13.059
37116W        W 2101  20.526  12.233  13.449
37117W        W 2102  18.505  17.511  13.817
37118W        W 2103  36.132  29.083  11.189
37119W        W 2104  27.723  42.882   2.749
37120W        W 2105  21.763   9.157   4.065
37121W        W 2106  34.880  41.616  12.473
37122W        W 2107   2.657  21.114  11.522
37123W        W 2108  22.012  23.069   0.830
37124W        W 2109   0.710  24.718  14.079
37125W        W 2110  12.382  34.143  13.510
37126W        W 2111  36.862  25.393   4.800
37127W        W 2112  30.583  26.611   0.812
37128W        W 2113  19.216  27.140  11.174
37129W        W 2114  17.576  11.621  12.792
37130W        W 2115  28.805  27.673  11.395
37131W        W 2116  33.422  35.898   4.082
37132W        W 2117  38.126  15.140   3.672
37133W        W 2118  38.942  40.510   4.068
37134W        W 2119  19.577  16.972   0.943
37135W        W 2120  32.980  17.632   3.154
37136W        W 2121  33.454  23.045  11.231
37137W        W 2122   4.004  33.917  14.556
37138W        W 2123  11.807  19.195  12.045
37139W        W 2124  29.340   6.909   2.336
37140W        W 2125  41.795  43.366   4.116
37141W        W 2126  32.684  28.981  12.965
37142W        W 2127   0.363   5.947   2.267
37143W        W 2128  32.500   9.343   3.132
37144W        W 2129   8.862  30.212   2.247
37145W        W 2130  26.225  18.199   1.911
37146W        W 2131  23.613  22.048  11.407
37147W        W 2132  34.634  26.192   1.863
37148W        W 2133   0.731  33.177   3.354
37149W        W 2134  43.263  33.866   1.479
37150W        W 2135  14.827   2.383   4.153
37151W        W 2136  37.323   9.083  13.030
37152W        W 2137  20.648   9.905  11.164
37153W        W 2138  19.718  39.102  13.163
37154W        W 2139  12.761  21.094   2.078
37155W        W 2140  40.950   6.718   2.961
37156W        W 2141  36.879   4.291  10.715
37157W        W 2142  20.772   1.848   0.386
37158W        W 2143   1.528  22.659  11.015
37159W        W 2144   2.337  19.980  13.041
37160W        W 2145  21.691  27.589   3.012
37161W        W 2146  15.062  20.162  14.684
37162W        W 2147  11.252  25.051  14.384
37163W        W 2148   3.747  36.736   1.817
37164W        W 2149  36.081  11.812   3.677
37165W        W 2150  16.867  19.040  14.851
37166W        W 2151  42.531  26.734   0.756
37167W        W 2152  21.772  35.385  10.346
37168W        W 2153   0.331  14.190   1.911
37169W        W 2154  14.370   9.659  12.963
37170W        W 2155   9.685   5.197  11.673
37171W        W 2156  35.142   7.162   4.148
37172W        W 2157   8.879  15.240   0.254
37173W        W 2158  13.378  10.209   0.293
37174W        W 2159  14.371  41.454   3.942
37175W        W 2160  11.093  33.132   3.681
37176W        W 2161   9.817  20.453  14.540
37177W        W 2162  43.001  30.777   1.973
37178W        W 2163  31.281   9.294   4.979
37179W        W 2164  39.318  32.051   4.113
37180W        W 2165  32.461   2.773   4.632
37181W        W 2166  22.940  28.598   0.282
37182W        W 2167   9.651  11.721  13.357
37183W        W 2168  41.122  32.270  11.740
37184W        W 2169   5.775  19.250  12.969
37185W        W 2170  28.001  29.926   1.923
37186W        W 2171  28.923   7.752   1.882
37187W        W 2172  11.201  16.666   0.212
37188W        W 2173  40.395  17.901  11.668
37189W        W 2174  33.712  26.488   0.894
37190W        W 2175  30.605  42.845  13.798
37191W        W 2176   8.133  16.818   1.117
37192W        W 2177  36.055  17.245   1.371
37193W        W 2178  43.153  16.244  11.491
37194W        W 2179   9.148   0.623  10.116
37195W        W 2180  24.032   5.687   1.201
37196W        W 2181  35.793  43.163  11.657
37197W        W 2182  19.333   3.829   2.859
37198W        W 2183  17.331  19.057  12.544
37199W        W 2184  29.943  31.469  14.739
37200W        W 2185  30.478   2.958  12.829
37201W        W 2186  22.479  35.462   1.298
37202W        W 2187   4.296  22.518  13.597
37203W        W 2188  12.490  19.111   4.642
37204W        W 2189  16.598  31.602   2.654
37205W        W 2190  33.540  22.997  11.766
37206W        W 2191  43.807  19.688  13.310
37207W        W 2192   6.440  23.690  11.631
37208W        W 2193  14.176   9.398   1.608
37209W        W 2194  14.883  38.800   3.427
37210W        W 2195  42.394  27.858  11.624
37211W        W 2196  25.531  30.892   0.960
37212W        W 2197  18.554  17.085  10.717
37213W        W 2198  10.566  18.596  14.992
37214W        W 2199   7.394   9.764  10.992
37215W        W 2200  24.126  29.947   3.277
37216W        W 2201  29.010  43.449  10.571
37217W        W 2202  13.029  32.415   4.426
37218W        W 2203  44.930  23.546  14.280
37219W        W 2204  31.442  11.190   1.944
37220W        W 2205  19.242  42.414  13.804
37221W        W 2206  39.948  27.477  13.844
37222W        W 2207   5.293  30.169  14.570
37223W        W 2208  21.624  41.809  14.952
37224W        W 2209  40.640  42.049  14.781
37225W        W 2210  21.760   6.934   3.391
37226W        W 2211  11.552   2.909   0.700
37227W        W 2212  26.378  41.303  13.587
37228W        W 2213  18.559  11.231   3.720
37229W        W 2214  24.994  42.287   2.414
37230W        W 2215   8.710   3.225   3.839
37231W        W 2216   9.153  21.414  11.420
37232W        W 2217  26.457  17.699  13.875
37233W        W 2218   5.767  43.087  14.488
37234W        W 2219   6.381   4.706  13.657
37235W        W 2220  15.697  37.995  11.577
37236W        W 2221  34.191  34.616  11.197
37237W        W 2222  42.513  12.484  12.172
37238W        W 2223  27.306  21.212  10.750
37239W        W 2224  27.375   1.461  11.990
37240W        W 2225  43.074  26.644   4.108
37241W        W 2226  40.181  11.422  10.454
37242W        W 2227   7.858  13.770  10.747
37243W        W 2228  42.602   3.274  12.071
37244W        W 2229  34.112  36.484   3.617
37245W        W 2230   8.309  43.329  14.153
37246W        W 2231  12.706  25.008   3.555
37247W        W 2232   8.121   0.191  11.159
37248W        W 2233  38.899   5.842   1.042
37249W        W 2234   5.796  42.334  14.338
37250W        W 2235  34.660   5.460  14.304
37251W        W 2236   3.640  14.251   9.929
37252W        W 2237   3.440  41.461  11.939
37253W        W 2238   2.458  35.553   0.811
37254W        W 2239  16.226  11.874   3.168
37255W        W 2240  24.543   1.009  11.525
37256W        W 2241  25.689  10.378   2.589
37257W        W 2242  18.198  29.983  14.921
37258W        W 2243   5.526  25.142   3.438
37259W        W 2244  28.595  24.690   0.713
37260W        W 2245  38.335  36.058  11.224
37261W        W 2246  24.319   4.446  10.494
37262W        W 2247  16.583  28.532   0.902
37263W        W 2248  35.271  31.448  13.001
37264W        W 2249  21.020  34.263  12.341
37265W        W 2250  13.682  26.429   1.124
37266W        W 2251   7.266   0.704   0.882
37267W        W 2252  24.559  21.303  12.503
37268W        W 2253  25.148  27.944  10.728
37269W        W 2254  34.205   8.671   3.242
37270W        W 2255  41.016  44.333  11.651
37271W        W 2256  29.054  31.554  12.174
37272W        W 2257  36.821  27.625  11.090
37273W        W 2258   3.536  15.672  11.385
37274W        W 2259  30.441  43.792  10.635
37275W        W 2260  33.676  40.891  14.801
37276W        W 2261  23.257   8.101  11.609
37277W        W 2262  37.057  19.242  11.619
37278W        W 2263   1.250  42.940   2.307
37279W        W 2264  20.519  26.758  12.321
37280W        W 2265  22.376  35.974   3.131
37281W        W 2266  22.981  28.717  13.765
37282W        W 2267  25.968  34.392  14.001
37283W        W 2268  18.993  28.902   1.889
37284W        W 2269  36.492   8.817  14.939
37285W        W 2270  27.305  23.353   1.412
37286W        W 2271   7.654  17.764   0.390
37287W        W 2272  12.239  22.984   4.633
37288W        W 2273   5.751  34.492   1.456
37289W        W 2274   7.232   7.785   0.526
37290W        W 2275  21.704  19.716   3.352
37291W        W 2276  15.286  22.212  13.423
37292W        W 2277  30.529  39.809   4.205
37293W        W 2278  10.135  10.673   4.073
37294W        W 2279  29.652   4.699   4.533
37295W        W 2280  18.587  26.385   0.800
37296W        W 2281  37.002  40.995   4.611
37297W        W 2282  42.523   5.687  14.495
37298W        W 2283   6.149  13.148  13.915
37299W        W 2284  25.650  29.502  11.556
37300W        W 2285  36.433  38.433   3.938
37301W        W 2286  42.473  38.317  12.983
37302W        W 2287  34.618   2.913   2.000
37303W        W 2288  15.485   1.509  13.901
37304W        W 2289  37.681  40.810  12.526
37305W        W 2290  43.957  22.045  12.542
37306W        W 2291  17.664   3.958   1.309
37307W        W 2292  17.690  44.606  14.062
37308W        W 2293  21.422  22.846   2.721
37309W        W 2294  10.530  34.016  11.010
37310W        W 2295  20.057   4.898  12.908
37311W        W 2296  30.474   9.479  14.794
37312W        W 2297  20.620  35.334  13.425
37313W        W 2298  36.891  39.468  11.246
37314W        W 2299  43.999  21.293   1.830
37315W        W 2300  32.437   7.792  14.333
37316W        W 2301  29.435  11.315  11.178
37317W        W 2302  39.231  44.386   2.454
37318W        W 2303  31.564  21.300  11.475
37319W        W 2304  13.836  38.758   3.233
37320W        W 2305  10.208  34.426   4.586
37321W        W 2306  17.742  43.251   4.410
37322W        W 2307  42.480   4.556   2.404
37323W        W 2308  33.543  29.532  12.382
37324W        W 2309  22.867  13.825  13.013
37325W        W 2310  21.125  41.358   3.604
37326W        W 2311  15.091  17.336  14.866
37327W        W 2312  22.102  32.855   0.852
37328W        W 2313  29.366  18.686  13.587
37329W        W 2314  20.195  32.451   4.270
37330W        W 2315  32.561  23.298  14.177
37331W        W 2316  10.030   6.845   2.239
37332W        W 2317   7.152  20.713  13.557
37333W        W 2318   2.551  13.792  14.490
37334W        W 2319   2.293  19.766   4.259
37335W        W 2320  40.783   8.801  13.213
37336W        W 2321  23.948  35.109  13.425
37337W        W 2322   5.390  31.297  13.126
37338W        W 2323  28.537   8.795  12.160
37339W        W 2324   4.981  29.637   4.156
37340W        W 2325  34.384  15.814  14.874
37341W        W 2326  26.215  37.957  14.034
37342W        W 2327   6.824  26.891  14.392
37343W        W 2328   6.855   5.390  13.477
37344W        W 2329  12.390  21.655  12.566
37345W        W 2330  19.523  39.446   4.088
37346W        W 2331  24.232  32.889  10.883
37347W        W 2332  30.537  13.241   1.294
37348W        W 2333   9.606  44.513   0.738
37349W        W 2334  17.592  26.844   0.236
37350W        W 2335  12.172  21.643  13.587
37351W        W 2336  13.796  19.741   1.428
37352W        W 2337  24.611  42.747   3.066
37353W        W 2338  19.091  17.642  10.637
37354W        W 2339  36.894   9.877  11.016
37355W        W 2340  20.597  28.927   0.841
37356W        W 2341  21.164  29.736  13.719
37357W        W 2342  13.628  25.537  12.700
37358W        W 2343  10.761   2.930  11.072
37359W        W 2344  14.206  16.284   0.734
37360W        W 2345  31.664  13.900   2.436
37361W        W 2346  38.525   6.767  14.052
37362W        W 2347  30.547  36.509   2.319
37363W        W 2348   0.966  17.207   1.391
37364W        W 2349   0.257  22.865  11.508
37365W        W 2350  13.459  10.716   2.329
37366W        W 2351  41.890  10.680  12.662
37367W        W 2352   8.655  35.928  11.623
37368W        W 2353  13.281  38.750   3.249
37369W        W 2354  17.003  10.529   0.732
37370W        W 2355  30.217   0.288  12.142
37371W        W 2356   9.841  32.664  14.079
37372W        W 2357  33.118  15.563  12.526
37373W        W 2358  11.757  16.246  12.934
37374W        W 2359  35.610   1.223  11.029
37375W        W 2360   9.428  13.075  10.973
37376W        W 2361  15.247  20.675   3.568
37377W        W 2362  19.316  41.909  13.872
37378W        W 2363  22.662  21.870  13.056
37379W        W 2364  37.973  34.996   0.941
37380W        W 2365  21.166  12.091   2.889
37381W        W 2366  42.288   5.401  14.139
37382W        W 2367  23.421   5.198   0.536
37383W        W 2368  18.995  38.008   0.792
37384W        W 2369  18.770   2.410  12.071
37385W        W 2370  39.443   3.754   1.855
37386W        W 2371  37.839   8.889   0.473
37387W        W 2372  10.432  42.591   3.355
37388W        W 2373  43.511  30.737   4.137
37389W        W 2374  19.563  35.392   2.279
37390W        W 2375  13.230  24.679   0.281
37391W        W 2376  30.427  19.097  10.462
37392W        W 2377  35.980   9.650  12.953
37393W        W 2378  24.390  31.641  11.415
37394W        W 2379  32.934  25.721  13.529
37395W        W 2380  36.311   5.070  12.009
37396W        W 2381  22.068  22.006  13.837
37397W        W 2382  37.025  15.259  10.740
37398W        W 2383  16.710   5.146   2.697
37399W        W 2384  17.529  40.052  13.509
37400W        W 2385  31.879  38.906  14.827
37401W        W 2386  33.195  35.386   1.505
37402W        W 2387  37.420  20.754   4.191
37403W        W 2388  17.656   3.254   3.456
37404W        W 2389   9.857   5.418  13.040
37405W        W 2390  11.404  31.818  14.863
37406W        W 2391  42.085  44.472   1.150
37407W        W 2392  19.251  34.609  12.896
37408W        W 2393  32.999   8.771   0.909
37409W        W 2394   2.347   9.200  11.178
37410W        W 2395   4.516  26.915  14.467
37411W        W 2396  33.265  44.273   4.887
37412W        W 2397  22.844  11.557   1.120
37413W        W 2398   3.232   3.309   2.432
37414W        W 2399  18.551  19.170   1.153
37415W        W 2400   8.062  23.833  13.520
37416W        W 2401  35.858  13.537   1.083
37417W        W 2402  12.534  29.455  14.886
37418W        W 2403  13.309  14.197   1.108
37419W        W 2404  15.764  31.269  10.332
37420W        W 2405   9.379  44.297  14.778
37421W        W 2406  31.988   2.033   1.410
37422W        W 2407  13.778  24.441   0.200
37423W        W 2408  38.851  39.037   4.557
37424W        W 2409   0.315  18.201   1.264
37425W        W 2410  15.189   0.700  12.785
37426W        W 2411  28.582   7.356   2.905
37427W        W 2412  21.528  18.051  11.649
37428W        W 2413  22.452  28.068   3.204
37429W        W 2414  12.427  18.152   4.040
37430W        W 2415  18.122  32.945   3.261
37431W        W 2416  13.192   7.136  14.379
37432W        W 2417  38.617  15.667  11.430
37433W        W 2418  18.301  41.019  13.958
37434W        W 2419  26.235  21.661  13.291
37435W        W 2420  35.464  18.844   4.863
37436W        W 2421   6.792  33.964   2.713
37437W        W 2422   5.934  16.153   3.165
37438W        W 2423  17.367  18.245   4.165
37439W        W 2424  30.364  30.703  11.156
37440W        W 2425  35.729  36.492  11.526
37441W        W 2426  40.507  43.568   4.747
37442W        W 2427  34.150   7.683  14.361
37443W        W 2428  28.070  22.517  11.622
37444W        W 2429  15.108  32.912  14.805
37445W        W 2430  43.757  25.569   3.727
37446W        W 2431  14.596   9.424   1.904
37447W        W 2432  40.701  14.045  12.063
37448W        W 2433  12.381  26.344   2.889
37449W        W 2434  36.550  43.580  10.978
37450W        W 2435  12.369  28.355   2.080
37451W        W 2436  32.522  21.212   2.406
37452W        W 2437  17.514  25.096   2.027
37453W        W 2438  23.033  20.623   1.810
37454W        W 2439  20.258  21.714  12.857
37455W        W 2440  35.599  40.748  11.746
37456W        W 2441  13.339   4.344   4.836
37457W        W 2442  23.621  36.817  14.465
37458W        W 2443  20.305  43.055  14.498
37459W        W 2444  16.712   9.964  11.877
37460W        W 2445  12.278  29.339   4.624
37461W        W 2446   7.186   3.718   2.201
37462W        W 2447  41.475  12.701   1.262
37463W        W 2448  18.210  44.239  12.886
37464W        W 2449  27.093  24.237  13.930
37465W        W 2450  42.447  19.981   1.323
37466W        W 2451  11.126   8.648   3.352
37467W        W 2452  42.571  15.314   0.208
37468W        W 2453  42.014  40.589   3.648
37469W        W 2454  30.876  21.242  12.600
37470W        W 2455  41.671  33.580   3.723
37471W        W 2456   2.208  11.756   2.389
37472W        W 2457  25.245  33.676  13.923
37473W        W 2458   5.253  35.856  11.478
37474W        W 2459  32.962   0.863  13.979
37475W        W 2460  38.747  32.927   1.263
37476W        W 2461   7.785  37.199   3.655
37477W        W 2462  22.994  30.679   3.836
37478W        W 2463  13.822  12.743   4.875
37479W        W 2464  22.631  15.806   4.419
37480W        W 2465   7.648  37.425   0.892
37481W        W 2466  44.779  40.334   1.425
37482W        W 2467   0.181  39.037  11.964
37483W        W 2468  43.493  24.244   2.463
37484W        W 2469  44.941   8.629  12.913
37485W        W 2470   2.537  30.436  11.460
37486W        W 2471  39.569   1.204  11.583
37487W        W 2472   2.254  18.761  14.375
37488W        W 2473  23.543  36.504   2.236
37489W        W 2474  25.189  11.887   1.429
37490W        W 2475   7.768   2.770   4.611
37491W        W 2476   6.186  21.798   0.464
37492W        W 2477   4.552  33.352  12.080
37493W        W 2478  32.030  22.513   0.449
37494W        W 2479  19.569  18.337  14.191
37495W        W 2480  10.466   7.291   4.512
37496W        W 2481  30.120  31.328   3.517
37497W        W 2482  20.193   8.261  14.465
37498W        W 2483  31.956  43.498   0.917
37499W        W 2484  11.629  16.190  11.103
37500W        W 2485  31.063  30.695   4.230
37501W        W 2486   5.753   6.951  14.476
37502W        W 2487   4.263   1.742   1.938
37503W        W 2488   2.835  38.864  10.710
37504W        W 2489   6.180  21.063  11.536
37505W        W 2490  16.699  38.182  12.118
37506W        W 2491  21.482   4.645   3.142
37507W        W 2492  17.172  12.773   0.964
37508W        W 2493  27.162  25.163  14.878
37509W        W 2494  34.783  23.611   2.700
37510W        W 2495  14.153  13.024   2.567
37511W        W 2496  31.840  12.593  13.517
37512W        W 2497   0.874  14.713   1.475
37513W        W 2498  28.296  35.696  12.855
37514W        W 2499  11.810  18.472   3.804
37515W        W 2500  14.339  22.119   4.433
37516W        W 2501  20.122   1.347   4.703
37517W        W 2502   2.034   7.181  14.139
37518W        W 2503   6.226   7.999   0.470
37519W        W 2504  28.005  24.240  13.387
37520W        W 2505  15.676  34.184   3.327
37521W        W 2506  44.480  14.670  14.200
37522W        W 2507  23.949   7.806   4.100
37523W        W 2508   9.166  41.009   3.225
37524W        W 2509  26.230  36.361   1.885
37525W        W 2510  41.502  39.773   3.679
37526W        W 2511  14.302   4.175  14.869
37527W        W 2512  19.208  41.081  10.636
37528W        W 2513   3.946  19.182  14.859
37529W        W 2514  44.254  40.458   4.488
37530W        W 2515  13.133  24.016  11.664
37531W        W 2516  26.935   6.704   4.526
37532W        W 2517  17.671   2.342   1.890
37533W        W 2518  36.503   5.845   0.144
37534W        W 2519  15.166  18.275   0.361
37535W        W 2520  35.449   4.763  13.201
37536W        W 2521  22.572  42.626  14.507
37537W        W 2522  31.873  35.169  12.588
37538W        W 2523  22.768  37.621  14.365
37539W        W 2524   3.980  28.874  10.685
37540W        W 2525  11.306  26.273   4.617
37541W        W 2526  33.943   2.213   1.333
37542W        W 2527  36.354  13.931   2.883
37543W        W 2528   5.494  41.340  14.206
37544W        W 2529  39.308  29.695   1.366
37545W        W 2530  11.235  42.073  11.702
37546W        W 2531  19.710  19.434  12.109
37547W        W 2532  11.378   3.362  13.170
37548W        W 2533  10.731  19.471  13.912
37549W        W 2534  10.782  31.560  10.925
37550W        W 2535  23.117   9.069   3.121
37551W        W 2536  36.574   4.847  12.399
37552W        W 2537  26.602  31.639   1.819
37553W        W 2538   8.682   2.581   1.779
37554W        W 2539  26.874  15.164   1.934
37555W        W 2540  11.586  15.796  12.740
37556W        W 2541  15.283  32.702  10.685
37557W        W 2542  20.342   8.199   4.626
37558W        W 2543  28.002  24.974   3.809
37559W        W 2544  41.662  15.632   5.004
37560W        W 2545  33.840  21.000   0.725
37561W        W 2546  16.023  31.948   1.796
37562W        W 2547  37.528  10.142   1.335
37563W        W 2548  39.345  25.778   0.947
37564W        W 2549   7.699  11.578   4.531
37565W        W 2550   2.148  41.529   1.822
37566W        W 2551  24.771  29.885   2.664
37567W        W 2552  33.647  27.043   2.887
37568W        W 2553  19.700   6.186   1.877
37569W        W 2554   5.748  38.083   0.245
37570W        W 2555  23.018  15.139  12.422
37571W        W 2556  23.966  29.875  11.231
37572W        W 2557  31.977  22.071   0.059
37573W        W 2558   4.224  24.951  13.449
37574W        W 2559   0.110  40.053   3.545
37575W        W 2560  26.059  42.376   1.902
37576W        W 2561  16.335   1.374  12.501
37577W        W 2562   4.142  29.488  12.032
37578W        W 2563   9.430   5.297  13.968
37579W        W 2564  41.341  29.940   3.685
37580W        W 2565  13.410  30.873  12.505
37581W        W 2566  24.607  42.615   2.083
37582W        W 2567   1.900  28.169  14.498
37583W        W 2568  21.068  40.719  12.015
37584W        W 2569  19.306   1.495  10.705
37585W        W 2570   7.575  17.986  13.846
37586W        W 2571   7.154  21.236   1.637
37587W        W 2572  12.312  27.006   0.992
37588W        W 2573  12.734  23.442   2.713
37589W        W 2574  16.574  29.460  13.582
37590W        W 2575  15.612  30.963   4.241
37591W        W 2576  17.779  40.664  11.804
37592W        W 2577  17.934   8.891   2.747
37593W        W 2578   9.570  21.267  14.252
37594W        W 2579   8.210  37.964  14.250
37595W        W 2580   8.204  37.658   0.069
37596W        W 2581  28.099  28.666  14.329
37597W        W 2582  39.837  31.897   1.921
37598W        W 2583  34.993  16.643  12.408
37599W        W 2584  36.326   4.232   4.901
37600W        W 2585  24.005  36.359   2.038
37601W        W 2586  15.751   8.852   0.343
37602W        W 2587  19.523  38.511  14.984
37603W        W 2588   5.335  20.840  10.701
37604W        W 2589   8.976  14.848  14.009
37605W        W 2590  10.670  35.513  13.523
37606W        W 2591   7.250  25.090   4.516
37607W        W 2592  20.705  39.522  13.691
37608W        W 2593  34.090  12.859   0.280
37609W        W 2594  33.085  28.287   1.249
37610W        W 2595  44.817   9.347   0.090
37611W        W 2596  23.985   9.724  13.366
37612W        W 2597  32.265  39.066   4.807
37613W        W 2598  19.980  36.592  11.126
37614W        W 2599  24.919   2.538   0.661
37615W        W 2600   6.129   1.327  13.898
37616W        W 2601  33.603  12.365   1.201
37617W        W 2602  19.637   1.524   1.381
37618W        W 2603   2.425  38.270   0.269
37619W        W 2604  10.486  11.667   5.059
37620W        W 2605  12.524  18.476  14.055
37621W        W 2606  42.049  44.026   1.426
37622W        W 2607  38.336   1.269  13.894
37623W        W 2608   1.014  29.669   4.161
37624W        W 2609  16.849  33.197  11.894
37625W        W 2610  22.883  36.055  11.262
37626W        W 2611  16.771  11.505  14.757
37627W        W 2612  22.833   7.173   1.897
37628W        W 2613  42.189  15.054  11.951
37629W        W 2614  37.581   3.339   3.251
37630W        W 2615  24.129  43.832  10.717
37631W        W 2616  25.050  26.922   1.226
37632W        W 2617  29.957  32.044   9.861
37633W        W 2618   0.892   8.974   2.137
37634W        W 2619  21.008  16.220   1.581
37635W        W 2620  26.034  18.593  11.449
37636W        W 2621  18.522  39.951   3.566
37637W        W 2622  35.560  28.809   2.357
37638W        W 2623  39.450  30.416   2.372
37639W        W 2624  22.643  36.003   0.194
37640W        W 2625  41.211  10.960   3.970
37641W        W 2626  21.588  42.471   3.392
37642W        W 2627  32.704  17.311  14.429
37643W        W 2628  16.579  28.383  12.734
37644W        W 2629   1.731  12.126   1.409
37645W        W 2630   8.017  41.804  10.642
37646W        W 2631  32.986  40.816  12.385
37647W        W 2632  10.349   0.846   3.466
37648W        W 2633  42.862  43.196  11.037
37649W        W 2634  13.256  20.597  11.679
37650W        W 2635   8.744  13.974  10.417
37651W        W 2636  37.312   4.870   0.871
37652W        W 2637   1.405  21.170   3.380
37653W        W 2638   9.144  18.496   4.180
37654W        W 2639  34.297  44.760   4.209
37655W        W 2640   8.226   3.411   0.996
37656W        W 2641  23.321  39.044   0.128
37657W        W 2642   2.120  29.213   1.085
37658W        W 2643  14.110  13.412   4.206
37659W        W 2644  16.312   9.599   1.892
37660W        W 2645   8.811  39.990   3.712
37661W        W 2646  22.768   0.836  13.119
37662W        W 2647   4.858  36.541   3.829
37663W        W 2648  17.663  34.646  14.593
37664W        W 2649  29.423  12.151   1.939
37665W        W 2650  12.548  22.699   0.889
37666W        W 2651   9.012  20.156  11.324
37667W        W 2652  13.278  18.205   1.665
37668W        W 2653  33.883  39.270   3.542
37669W        W 2654  26.344  38.835  14.451
37670W        W 2655  10.163  28.062  13.995
37671W        W 2656  44.561  22.678  12.102
37672W        W 2657  38.467  27.405   4.191
37673W        W 2658  34.123  38.985  13.015
37674W        W 2659  14.257  25.538  10.972
37675W        W 2660  12.270   2.949  10.763
37676W        W 2661   2.864   0.422  12.075
37677W        W 2662  22.322  34.322   3.676
37678W        W 2663  18.530  10.867  11.892
37679W        W 2664  12.971  38.723  12.402
37680W        W 2665  40.077  41.929  13.406
37681W        W 2666  21.507  18.608  13.571
37682W        W 2667  25.715  11.674   0.820
37683W        W 2668  32.383  15.642   2.636
37684W        W 2669  27.464  14.365   4.423
37685W        W 2670  24.185  12.123   3.060
37686W        W 2671  35.821   3.483  12.433
37687W        W 2672  10.296  41.830   0.348
37688W        W 2673  39.937  38.852   2.473
37689W        W 2674  20.196  29.003  13.814
37690W        W 2675   1.736  43.227   4.139
37691W        W 2676  44.666   2.381  11.035
37692W        W 2677  37.045  29.967   2.467
37693W        W 2678  22.849  15.569  13.858
37694W        W 2679  25.640  28.111  13.968
37695W        W 2680  24.062   1.365   4.160
37696W        W 2681  25.056  43.955   4.688
37697W        W 2682   0.742  18.812   0.262
37698W        W 2683  37.749  31.246  12.953
37699W        W 2684  44.500  10.882  11.225
37700W        W 2685  34.502  28.173   3.153
37701W        W 2686  35.339  26.908   2.241
37702W        W 2687   6.017  29.404   0.829
37703W        W 2688  20.812  11.034  13.422
37704W        W 2689  20.556  35.286  14.841
37705W        W 2690   0.671  43.961   3.168
37706W        W 2691  30.996  40.266  14.327
37707W        W 2692  39.158  12.886   4.199
37708W        W 2693  14.369  38.930   3.295
37709W        W 2694  40.403   3.091  10.278
37710W        W 2695  41.298   8.654   0.311
37711W        W 2696  23.923  28.504   1.273
37712W        W 2697   5.670   4.595   4.930
37713W        W 2698   2.811  16.084  14.870
37714W        W 2699  11.658  19.061   0.250
37715W        W 2700  27.636  23.565   2.355
37716W        W 2701  26.037  42.537   3.854
37717W        W 2702  13.810  11.098   2.229
37718W        W 2703  31.654  25.075   0.953
37719W        W 2704  36.056  13.528  12.345
37720W        W 2705   9.773  30.641  10.475
37721W        W 2706  16.877  41.036  12.089
37722W        W 2707   5.616  29.138  11.062
37723W        W 2708   1.892  38.891   2.608
37724W        W 2709  13.346  14.831  10.906
37725W        W 2710  36.990  28.026   3.745
37726W        W 2711  31.403  35.130  11.681
37727W        W 2712   8.740  30.461  11.745
37728W        W 2713  19.846  15.908  10.285
37729W        W 2714  28.704  19.664   3.163
37730W        W 2715  25.475  21.789  10.708
37731W        W 2716  38.090  17.555  14.886
37732W        W 2717  25.546  21.584   1.874
37733W        W 2718  43.249  30.430  12.588
37734W        W 2719   3.947  25.781   1.322
37735W        W 2720  36.584  38.104   2.056
37736W        W 2721   7.608  22.309   4.118
37737W        W 2722   9.432   9.142  11.030
37738W        W 2723  32.083  16.731  14.620
37739W        W 2724  39.471  23.473   1.824
37740W        W 2725   5.657   3.394  14.702
37741W        W 2726  21.784   7.132  10.504
37742W        W 2727  39.110  24.736  14.362
37743W        W 2728   0.834  42.420  12.618
37744W        W 2729  37.593  23.083   3.091
37745W        W 2730  25.005  16.981  10.059
37746W        W 2731  16.223   6.772   3.720
37747W        W 2732  17.847  14.743   0.841
37748W        W 2733  24.044   1.509   0.727
37749W        W 2734  39.370  12.366  12.508
37750W        W 2735  42.926  21.140  10.522
37751W        W 2736   3.971  22.777  11.092
37752W        W 2737   1.022   9.090   4.134
37753W        W 2738  33.611  25.589  14.736
37754W        W 2739  35.015  11.573   2.967
37755W        W 2740   3.426  35.663   2.377
37756W        W 2741  24.205  43.365   0.929
37757W        W 2742  39.794   7.842   4.345
37758W        W 2743  36.164  24.462  12.830
37759W        W 2744   5.197   8.851   0.097
37760W        W 2745  43.297   6.429  13.163
37761W        W 2746  35.098  20.690   2.784
37762W        W 2747  26.936  13.162  13.922
37763W        W 2748  22.504  25.578  12.350
37764W        W 2749  14.021  19.311   1.733
37765W        W 2750   3.028  28.311   3.248
37766W        W 2751   8.887  43.973  12.019
37767W        W 2752  26.086   6.058  10.297
37768W        W 2753  32.869  16.534  14.291
37769W        W 2754  37.776  24.925  11.182
37770W        W 2755   1.296  33.897   0.948
37771W        W 2756  37.077  20.932  13.119
37772W        W 2757  34.298  36.993   3.652
37773W        W 2758  20.169  23.503   2.741
37774W        W 2759   2.025  33.161  12.629
37775W        W 2760  22.991  39.499   0.903
37776W        W 2761  19.560  21.735  12.433
37777W        W 2762  35.807  28.945   3.483
37778W        W 2763  36.827  33.339  10.551
37779W        W 2764   1.439  29.184   0.448
37780W        W 2765  21.649  12.610   3.772
37781W        W 2766  28.537  33.112   2.330
37782W        W 2767  11.798  10.747  14.137
37783W        W 2768   4.436  28.910  14.404
37784W        W 2769  39.800  36.894   0.533
37785W        W 2770  14.749  27.580   0.990
37786W        W 2771   7.882   0.081   4.041
37787W        W 2772   7.107   1.470  12.159
37788W        W 2773  11.531  32.640  12.906
37789W        W 2774  38.048  41.421  11.966
37790W        W 2775  33.897  16.262   1.806
37791W        W 2776  13.170  13.922   0.251
37792W        W 2777  17.300  41.725   0.325
37793W        W 2778  20.969   1.937   2.319
37794W        W 2779  34.546  15.106   0.243
37795W        W 2780   1.972  22.245  12.479
37796W        W 2781  36.657  20.607  13.018
37797W        W 2782  34.602  24.214   2.688
37798W        W 2783   4.388  14.704   0.872
37799W        W 2784  36.441  26.004   1.289
37800W        W 2785   7.623  26.083  11.154
37801W        W 2786   0.029  27.939  13.545
37802W        W 2787  33.379  10.661  12.459
37803W        W 2788  14.655  29.109  11.298
37804W        W 2789  28.562  17.865   4.591
37805W        W 2790  11.144  22.205  13.169
37806W        W 2791  28.515  10.538   2.653
37807W        W 2792  19.746  40.295   3.782
37808W        W 2793  24.446  21.127  12.033
37809W        W 2794  28.672   3.216   4.017
37810W        W 2795   8.542  19.436   4.011
37811W        W 2796   6.693   9.784   1.328
37812W        W 2797  23.108  12.145  13.895
37813W        W 2798  41.721  38.459  12.451
37814W        W 2799   0.804   0.891   4.610
37815W        W 2800  41.630  10.081   4.783
37816W        W 2801  33.949  42.456  14.957
37817W        W 2802  20.776  20.549   1.872
37818W        W 2803   5.677  34.448  12.009
37819W        W 2804  43.540  39.491  10.883
37820W        W 2805  16.883  14.061   4.064
37821W        W 2806   6.848  14.339   2.773
37822W        W 2807  13.627   6.989  14.988
37823W        W 2808  24.950   2.424  12.923
37824W        W 2809  27.764  39.631  13.366
37825W        W 2810  29.159  33.412   1.170
37826W        W 2811  18.168  42.524  13.982
37827W        W 2812  24.792   1.471  12.937
37828W        W 2813  37.465  40.493  11.134
37829W        W 2814  33.665  41.279   3.658
37830W        W 2815  11.727  43.509   4.521
37831W        W 2816  11.264  17.877   3.489
37832W        W 2817  31.275   1.919  10.383
37833W        W 2818  12.315  31.385   2.253
37834W        W 2819   4.022  27.571  10.904
37835W        W 2820  24.288   3.651  11.564
37836W        W 2821   2.522  14.579   0.273
37837W        W 2822  11.663  40.336   2.721
37838W        W 2823  19.165  18.279   1.873
37839W        W 2824   2.612  33.973  14.542
37840W        W 2825  15.209  43.234  11.533
37841W        W 2826  38.313  30.429   4.275
37842W        W 2827  12.311  17.325   1.694
37843W        W 2828  19.901   5.618  13.640
37844W        W 2829  17.266  44.750  14.364
37845W        W 2830  19.613  13.774  14.387
37846W        W 2831   5.378  14.342  12.568
37847W        W 2832  31.018  11.408   1.758
37848W        W 2833  30.433  15.499   1.162
37849W        W 2834  27.559  16.878  12.046
37850W        W 2835  17.753  37.876  11.146
37851W        W 2836  10.599   4.304  12.108
37852W        W 2837  10.227  20.694  13.972
37853W        W 2838  19.583  26.407   4.296
37854W        W 2839  26.745   4.721   3.695
37855W        W 2840   3.025  15.477   3.133
37856W        W 2841  44.606   3.086  13.444
37857W        W 2842   3.922   0.887  13.910
37858W        W 2843   3.003  19.540  10.251
37859W        W 2844   4.824  19.589   4.409
37860W        W 2845  42.294  34.860   2.710
37861W        W 2846  39.282  13.125  14.983
37862W        W 2847  27.533  20.283   3.615
37863W        W 2848  22.862   2.566  12.095
37864W        W 2849  27.931  16.282   2.267
37865W        W 2850  18.788  42.816   3.250
37866W        W 2851   9.762   2.660   4.762
37867W        W 2852  41.522  17.177  11.046
37868W        W 2853  42.259  37.910   1.949
37869W        W 2854  23.758   0.898   4.907
37870W        W 2855  32.116  38.782   5.267
37871W        W 2856   1.242  21.178  10.160
37872W        W 2857  25.985  17.737   1.917
37873W        W 2858  33.973  21.952   1.092
37874W        W 2859  38.820   2.348   3.352
37875W        W 2860  41.183   6.959  10.544
37876W        W 2861  27.020  28.225  13.929
37877W        W 2862  12.115  16.482   2.737
37878W        W 2863  28.035  30.175  11.615
37879W        W 2864  44.082  25.621  11.449
37880W        W 2865   7.474  37.446   0.343
37881W        W 2866  20.606  12.570   1.180
37882W        W 2867   1.491  17.237   3.631
37883W        W 2868  36.525   6.117   2.971
37884W        W 2869  15.672  30.676   1.186
37885W        W 2870  15.866  13.852  11.669
37886W        W 2871  38.605   6.292   4.068
37887W        W 2872  43.506   0.924   3.844
37888W        W 2873   4.519   1.781  13.884
37889W        W 2874  31.481  35.299  13.450
37890W        W 2875  21.906  28.732   0.985
37891W        W 2876   9.356  30.914   3.244
37892W        W 2877  30.224   3.237   3.681
37893W        W 2878  42.820  20.337  10.580
37894W        W 2879  43.907  26.071   5.572
37895W        W 2880   4.323  15.558   2.228
37896W        W 2881  25.585   8.522   3.740
37897W        W 2882  18.529  17.114  12.685
37898W        W 2883   7.224  15.269   1.459
37899W        W 2884  23.194  25.373  13.002
37900W        W 2885  20.364  17.302   0.722
37901W        W 2886  22.863  33.428  12.858
37902W        W 2887  36.470   9.270   4.601
37903W        W 2888   9.914  40.863   2.185
37904W        W 2889  38.194  15.628  13.980
37905W        W 2890   4.825  13.865   3.883
37906W        W 2891   5.223  20.484   2.200
37907W        W 2892  31.215   0.412   4.742
37908W        W 2893  17.233   2.731  12.471
37909W        W 2894  28.258  13.376   2.309
37910W        W 2895  14.273  26.656   3.957
37911W        W 2896  17.286  22.336  10.211
37912W        W 2897   5.207  14.506   0.869
37913W        W 2898  33.772  16.753   1.723
37914W        W 2899  22.037   4.179   2.232
37915W        W 2900  10.833  28.640  14.255
37916W        W 2901  34.760  39.402   1.864
37917W        W 2902  30.152  29.237  14.609
37918W        W 2903  23.002   7.150  14.773
37919W        W 2904  16.958  40.534  14.286
37920W        W 2905  27.621  42.532   3.658
37921W        W 2906  25.514  44.957  10.910
37922W        W 2907  37.437  41.747  14.155
37923W        W 2908  23.487   2.703  13.928
37924W        W 2909  28.693  15.635   1.544
37925W        W 2910  42.948  41.784  11.203
37926W        W 2911   4.813   2.583   2.666
37927W        W 2912  34.163  14.964   2.243
37928W        W 2913  31.087  43.795   0.302
37929W        W 2914  15.661  42.608   3.567
37930W        W 2915  25.741  25.264  14.044
37931W        W 2916  12.580  15.699   4.668
37932W        W 2917  39.922  15.944  14.856
37933W        W 2918  13.265  34.079   3.303
37934W        W 2919  14.961  21.566  10.761
37935W        W 2920  16.112  37.512  14.879
37936W        W 2921  29.703  32.846   4.455
37937W        W 2922  23.393  15.270   0.437
37938W        W 2923  44.514  25.699   3.093
37939W        W 2924  16.842   3.159  14.954
37940W        W 2925  14.556  39.095  13.436
37941W        W 2926  17.580  32.523   2.765
37942W        W 2927   2.443  13.436   4.108
37943W        W 2928  23.538  44.002  11.228
37944W        W 2929  41.246  35.978  10.970
37945W        W 2930  42.942   8.315   0.959
37946W        W 2931  16.764  30.658   3.728
37947W        W 2932  41.785   5.929   3.768
37948W        W 2933  15.273  18.819  11.148
37949W        W 2934  27.475  38.881  14.408
37950W        W 2935   0.391  11.629  13.444
37951W        W 2936  16.109   5.905   0.877
37952W        W 2937  18.275  29.103  12.444
37953W        W 2938  42.106  42.905   4.210
37954W        W 2939  28.234  34.554  14.400
37955W        W 2940  44.892  32.112   2.611
37956W        W 2941  20.053   0.403  11.136
37957W        W 2942  36.294  15.848  12.117
37958W        W 2943  41.997  22.721   1.254
37959W        W 2944  40.817  38.359   3.982
37960W        W 2945  24.944  38.733   1.735
37961W        W 2946  11.207  19.239  13.891
37962W        W 2947  29.128  30.335  10.667
37963W        W 2948  24.745  27.684  13.140
37964W        W 2949  30.959  19.267   0.976
37965W        W 2950  40.522  43.851   4.299
37966W        W 2951  16.855  22.698   2.380
37967W        W 2952  42.850  28.252   0.014
37968W        W 2953  13.163   5.600   0.018
37969W        W 2954  37.520  34.440   4.573
37970W        W 2955   3.375  18.711  12.868
37971W        W 2956   8.685  26.439  11.610
37972W        W 2957   0.037  24.135  11.332
37973W        W 2958   1.015  36.018   3.105
37974W        W 2959   9.671  41.259  11.014
37975W        W 2960  37.821  41.512  12.441
37976W        W 2961  32.972  39.832   1.350
37977W        W 2962  18.961  32.750  12.448
37978W        W 2963  42.989   8.135  12.974
37979W        W 2964   3.403   3.603   5.305
37980W        W 2965  28.484  35.929  11.081
37981W        W 2966  24.385   6.264  14.671
37982W        W 2967  44.755  23.946  12.362
37983W        W 2968  41.694  22.080   0.265
37984W        W 2969  16.100  44.979  13.489
37985W        W 2970  10.865   1.787  11.179
37986W        W 2971  36.844  14.090   2.988
37987W        W 2972  12.025   4.665   0.420
37988W        W 2973  31.660  36.795   0.926
37989W        W 2974   9.226   7.201  12.705
37990W        W 2975  28.997  22.732   2.798
37991W        W 2976   4.312   0.830  14.254
37992W        W 2977  16.672  41.736   2.669
37993W        W 2978  42.608  19.098  14.888
37994W        W 2979  35.388  13.015   1.874
37995W        W 2980  35.031  22.417   0.086
37996W        W 2981  26.526  15.161  13.291
37997W        W 2982  26.578  33.533  10.477
37998W        W 2983  16.049   4.583  10.760
37999W        W 2984  28.212  31.571   4.547
38000W        W 2985  33.966   3.321  10.256
38001W        W 2986  11.730  10.827   1.762
38002W        W 2987  34.399  39.090  13.469
38003W        W 2988  11.079  36.077   2.003
38004W        W 2989  26.430  34.023  13.688
38005W        W 2990  14.353  40.105   3.693
38006W        W 2991  37.438  10.450  11.913
38007W        W 2992  14.975  37.021  10.544
38008W        W 2993  43.573  24.172   0.364
38009W        W 2994  25.448  30.184  12.125
38010W        W 2995  31.481  12.658   0.830
38011W        W 2996  30.754   8.823   0.366
38012W        W 2997  26.744  26.704  14.862
38013W        W 2998  42.645   7.959   5.064
38014W        W 2999  12.187  27.453   2.279
38015W        W 3000  21.197  43.209  12.702
38016W        W 3001  44.508   3.487  13.155
38017W        W 3002  17.638  11.239   4.684
38018W        W 3003  17.197  34.862   2.799
38019W        W 3004   4.471  37.959  12.347
38020W        W 3005   8.887  44.971  12.924
38021W        W 3006  39.918  18.544   2.978
38022W        W 3007  29.594   1.798   0.462
38023W        W 3008   3.762  16.078   0.698
38024W        W 3009  30.235  35.453   0.699
38025W        W 3010  37.418  16.585  14.446
38026W        W 3011  24.386   7.371  13.803
38027W        W 3012  31.522  26.925   1.036
38028W        W 3013  38.085  23.605   4.592
38029W        W 3014  18.318  30.211   0.380
38030W        W 3015  36.989  31.973   4.541
38031W        W 3016  20.373   6.231  11.253
38032W        W 3017  14.746  41.599   2.716
38033W        W 3018   4.877  29.128   0.063
38034W        W 3019   0.212  22.463   2.233
38035W        W 3020   9.564   5.517   5.340
38036W        W 3021  41.006  23.295   4.977
38037W        W 3022   8.094   5.193  14.836
38038W        W 3023  11.616  21.640   4.545
38039W        W 3024  40.780  41.341   2.264
38040W        W 3025  37.416  22.273  13.361
38041W        W 3026  40.288  40.553  11.887
38042W        W 3027  32.077  30.032  12.549
38043W        W 3028   3.858  15.656   3.798
38044W        W 3029  32.118  26.377   3.850
38045W        W 3030  23.520  25.821   4.573
38046W        W 3031  20.140  17.582   1.249
38047W        W 3032   5.831   2.279   2.579
38048W        W 3033  14.232  37.247  14.492
38049W        W 3034  26.734   0.524  13.560
38050W        W 3035  41.826   1.759   3.452
38051W        W 3036   8.710  39.308   4.485
38052W        W 3037  37.129  30.686  11.567
38053W        W 3038  19.347  33.947  13.930
38054W        W 3039   5.813  17.878  12.833
38055W        W 3040  11.039   1.527   2.886
38056W        W 3041  32.383  44.445   1.192
38057W        W 3042  44.544   1.801   4.661
38058W        W 3043   8.409  28.714  14.945
38059W        W 3044   7.657  43.449  11.354
38060W        W 3045  25.065  19.067   1.210
38061W        W 3046   7.680  44.690   2.769
38062W        W 3047   4.499  25.247   1.699
38063W        W 3048  44.863  44.297   3.373
38064W        W 3049  41.082  22.800  14.027
38065W        W 3050  28.474  21.717  12.594
38066W        W 3051   1.475  37.382   2.381
38067W        W 3052  22.696   3.622  12.033
38068W        W 3053   8.369  39.891  12.889
38069W        W 3054   6.418   2.011   1.143
38070W        W 3055  15.616  26.102   1.831
38071W        W 3056  15.865  40.307   4.893
38072W        W 3057  42.282  28.089   2.127
38073W        W 3058   6.804  19.572  11.708
38074W        W 3059  29.480  22.150  13.323
38075W        W 3060  33.269  22.277   4.207
38076W        W 3061   3.680   4.067   0.715
38077W        W 3062  28.351   0.201   3.718
38078W        W 3063  35.725  12.176   0.076
38079W        W 3064  19.364  35.274  14.000
38080W        W 3065  37.035   5.720  10.858
38081W        W 3066  44.604   4.693   1.049
38082W        W 3067   3.929  29.125   2.029
38083W        W 3068  26.988   6.045  14.063
38084W        W 3069   5.376  42.495   4.390
38085W        W 3070  17.845  15.828  14.990
38086W        W 3071  23.781   6.923  13.570
38087W        W 3072  12.797   8.431  14.780
38088W        W 3073  31.309  34.865   3.303
38089W        W 3074   4.419  14.443  12.610
38090W        W 3075   9.278  37.386   0.713
38091W        W 3076  32.886   8.418   3.148
38092W        W 3077  10.592  33.974   3.302
38093W        W 3078   8.409  44.416   0.536
38094W        W 3079  15.859  19.295   3.623
38095W        W 3080  44.387  25.205   3.162
38096W        W 3081  30.656  28.929  13.086
38097W        W 3082  14.141  41.853  13.809
38098W        W 3083   5.317   2.409   2.721
38099W        W 3084  30.221  31.054  11.975
38100W        W 3085   8.781  14.046   2.116
38101W        W 3086  14.055   5.479  13.297
38102W        W 3087  27.177  14.758   1.292
38103W        W 3088   6.808  19.035  14.574
38104W        W 3089  38.998  44.243  10.218
38105W        W 3090  33.590   0.784  13.053
38106W        W 3091  38.900  39.144  11.911
38107W        W 3092  11.061  10.107  13.785
38108W        W 3093  44.095  22.664  10.969
38109W        W 3094  23.015  20.263  14.271
38110W        W 3095  21.073  37.019  11.225
38111W        W 3096   0.710  18.645  10.062
38112W        W 3097  10.147  20.713   3.262
38113W        W 3098   6.320  32.396  11.334
38114W        W 3099  35.625  43.258   0.439
38115W        W 3100  21.186  34.443   4.473
38116W        W 3101   5.013   1.936  11.444
38117W        W 3102  32.028  43.610   3.738
38118W        W 3103  43.526  37.142  12.882
38119W        W 3104  31.176   9.709   2.883
38120W        W 3105  16.083   3.127   4.410
38121W        W 3106  40.275  10.311  13.496
38122W        W 3107  32.678  19.935  11.273
38123W        W 3108  29.194  35.849  11.931
38124W        W 3109  43.370  25.330  13.986
38125W        W 3110  20.519  41.307  13.078
38126W        W 3111  17.185  28.130  12.586
38127W        W 3112  40.799  14.439  13.819
38128W        W 3113   7.161  18.537  10.669
38129W        W 3114  31.640   5.089  14.109
38130W        W 3115  22.948   4.083   2.100
38131W        W 3116  18.142  15.619   4.176
38132W        W 3117  19.621  36.574  13.979
38133W        W 3118  28.055   7.167  10.707
38134W        W 3119  36.949  17.816   2.332
38135W        W 3120  10.109  41.474   1.887
38136W        W 3121   0.232  18.346   0.449
38137W        W 3122  30.469  36.859   1.017
38138W        W 3123  34.315   0.844   1.780
38139W        W 3124  27.596  43.425   4.612
38140W        W 3125  40.810  27.997   1.035
38141W        W 3126  31.444  31.559   4.335
38142W        W 3127  14.879  26.523   1.896
38143W        W 3128  32.384  43.190   0.816
38144W        W 3129   8.665  17.251  13.857
38145W        W 3130   4.542   5.183   3.678
38146W        W 3131  39.088   6.635   1.432
38147W        W 3132  35.316  36.016   3.508
38148W        W 3133   6.742  38.247   2.205
38149W        W 3134  42.145  17.746  11.373
38150W        W 3135  26.744  40.764  14.429
38151W        W 3136  30.480  21.647  14.755
38152W        W 3137   6.836  42.391   0.875
38153W        W 3138  32.016   8.915  11.896
38154W        W 3139  29.301   3.805  12.093
38155W        W 3140  31.732  19.634  13.336
38156W        W 3141  21.704  20.101  13.883
38157W        W 3142  24.916   6.610   3.253
38158W        W 3143  31.815  33.962  14.489
38159W        W 3144  37.777  36.425   0.410
38160W        W 3145  39.813  31.025  14.347
38161W        W 3146  39.327  13.078   2.395
38162W        W 3147   2.019  16.089   3.668
38163W        W 3148   4.885  22.457  12.485
38164W        W 3149   9.955   8.634   4.134
38165W        W 3150  10.188  20.061   3.636
38166W        W 3151  22.143   6.546  11.559
38167W        W 3152  28.022  10.850   0.975
38168W        W 3153  38.260  10.716  14.030
38169W        W 3154   5.433  29.980  13.567
38170W        W 3155   1.633  40.857  13.025
38171W        W 3156   3.646  13.239   3.787
38172W        W 3157  27.766  18.761   2.469
38173W        W 3158   8.218   3.855  10.670
38174W        W 3159  18.805  15.652  10.244
38175W        W 3160  26.963   0.833   0.344
38176W        W 3161  21.474  38.911  14.895
38177W        W 3162  38.950  29.691   4.187
38178W        W 3163  43.007  32.156   0.868
38179W        W 3164  44.935   3.781   3.214
38180W        W 3165   4.238  16.347  14.890
38181W        W 3166  33.468  43.445  13.953
38182W        W 3167  24.531  22.464   3.853
38183W        W 3168  22.225  14.660   0.054
38184W        W 3169  21.357  35.346  14.211
38185W        W 3170  11.196  24.246   0.010
38186W        W 3171  17.390   3.805   1.718
38187W        W 3172  31.977   5.253   1.340
38188W        W 3173  36.923   5.940  13.488
38189W        W 3174  14.484  27.464   1.437
38190W        W 3175  42.465   1.902  11.677
38191W        W 3176   5.807  14.719   2.225
38192W        W 3177  10.849  37.146  14.991
38193W        W 3178  21.596   2.007  10.648
38194W        W 3179  33.261  41.209   1.772
38195W        W 3180  20.778  28.867  13.374
38196W        W 3181  44.306  23.253   9.898
38197W        W 3182  18.132  44.871  11.172
38198W        W 3183  17.799  42.874  11.856
38199W        W 3184  13.563  17.037  11.239
38200W        W 3185  24.727  23.971  14.932
38201W        W 3186  19.567  39.810   3.684
38202W        W 3187  34.890   9.143  11.288
38203W        W 3188  22.444  36.046   0.672
38204W        W 3189  21.767  41.822  12.842
38205W        W 3190  24.049   5.840   0.159
38206W        W 3191  28.494  23.875   0.316
38207W        W 3192  40.678  42.557   2.134
38208W        W 3193  11.835  11.784   0.371
38209W        W 3194  33.288  13.028  13.951
38210W        W 3195  25.708  12.866  13.376
38211W        W 3196   2.099  13.893   1.520
38212W        W 3197  13.716  22.896   2.919
38213W        W 3198   2.749  24.951   3.590
38214W        W 3199  41.011  11.057  14.342
38215W        W 3200  42.265  33.222  13.048
38216W        W 3201  40.131  40.252   2.144
38217W        W 3202  20.644  23.524  12.999
38218W        W 3203  31.444   4.465  12.742
38219W        W 3204  43.996   6.278  11.579
38220W        W 3205  37.644   7.370  13.994
38221W        W 3206  21.643  42.967  10.598
38222W        W 3207  10.323   0.835   1.933
38223W        W 3208  25.282  27.157  10.281
38224W        W 3209  44.949  39.337  13.066
38225W        W 3210  23.324  37.010  14.093
38226W        W 3211  22.533  26.283   4.556
38227W        W 3212  15.234  44.301   3.442
38228W        W 3213  43.055  27.688   1.733
38229W        W 3214  13.137   9.922  14.335
38230W        W 3215  20.589  24.126   0.675
38231W        W 3216  18.785  34.629  14.521
38232W        W 3217   0.750  34.526   1.497
38233W        W 3218  11.595  16.296   4.554
38234W        W 3219  41.835  25.304  13.336
38235W        W 3220  44.093  44.854   3.921
38236W        W 3221  38.783  38.884  10.112
38237W        W 3222  34.641  17.767   3.769
38238W        W 3223   6.817  23.590   2.852
38239W        W 3224  15.412   5.805   2.900
38240W        W 3225   8.640   4.290   3.125
38241W        W 3226  16.063  26.934   1.485
38242W        W 3227  36.344  10.675  14.455
38243W        W 3228   7.564  36.148  10.766
38244W        W 3229  41.186  34.494  13.852
38245W        W 3230  11.796  21.441   0.032
38246W        W 3231  39.377   7.826  13.857
38247W        W 3232  35.305  14.765  14.948
38248W        W 3233  36.943  27.161  14.679
38249W        W 3234   9.994   6.202   4.154
38250W        W 3235   9.140  35.074   3.179
38251W        W 3236  41.396   2.847   3.846
38252W        W 3237  17.419  22.561  11.454
38253W        W 3238   7.108  21.139  10.558
38254W        W 3239   2.345  29.416  12.930
38255W        W 3240  23.807  18.451  14.860
38256W        W 3241  15.345  12.366  14.258
38257W        W 3242  33.939  35.186  14.346
38258W        W 3243  25.175  29.677   3.731
38259W        W 3244  37.084  11.120   1.892
38260W        W 3245   0.827  16.598  13.075
38261W        W 3246  34.580  23.083  11.795
38262W        W 3247   0.530  11.956  14.424
38263W        W 3248  44.061   0.214  10.818
38264W        W 3249  44.300  14.600   3.207
38265W        W 3250  26.247  21.594   0.750
38266W        W 3251  25.312  43.411   0.026
38267W        W 3252   6.448  19.693  13.874
38268W        W 3253  37.895   5.728  10.526
38269W        W 3254   0.765  44.732  11.054
38270W        W 3255  43.409  32.603   4.207
38271W        W 3256   1.184  21.553  11.443
38272W        W 3257  34.838  11.312  13.324
38273W        W 3258  25.178   0.388  10.916
38274W        W 3259  39.556  42.890  13.747
38275W        W 3260   5.168  17.254  14.298
38276W        W 3261  33.141  20.637   4.150
38277W        W 3262  33.789  13.763   4.233
38278W        W 3263  24.712   3.915   1.889
38279W        W 3264  44.756  11.770   0.721
38280W        W 3265  33.398  15.308   2.844
38281W        W 3266  30.938  41.939  10.737
38282W        W 3267  29.947   3.190   1.709
38283W        W 3268  41.638  38.607   0.390
38284W        W 3269  42.922  33.472   4.418
38285W        W 3270  15.095  29.150  12.554
38286W        W 3271  41.340  16.636   1.393
38287W        W 3272   4.498  28.843  10.675
38288W        W 3273  19.530  41.821  13.400
38289W        W 3274   6.267  15.041  12.876
38290W        W 3275  20.180   0.080  11.572
38291W        W 3276  31.665  31.512  11.477
38292W        W 3277  23.466  16.351  13.894
38293W        W 3278  19.787  26.187  12.354
38294W        W 3279  35.339  38.038  13.991
38295W        W 3280  32.269  40.644   4.009
38296W        W 3281  33.520  19.572   1.384
38297W        W 3282   7.553  40.929  14.923
38298W        W 3283   9.898  26.463  13.457
38299W        W 3284  17.578  34.165  14.772
38300W        W 3285  30.011   6.165   3.069
38301W        W 3286   4.796  13.845  11.466
38302W        W 3287   8.895  26.442  13.312
38303W        W 3288  27.467  18.672   3.908
38304W        W 3289  20.493  21.669  13.608
38305W        W 3290  29.692  25.954   3.371
38306W        W 3291  14.331   7.286   2.246
38307W        W 3292  43.936   0.734  12.069
38308W        W 3293  14.894   4.170  11.539
38309W        W 3294   7.286   7.831   4.900
38310W        W 3295  41.295  18.286  12.896
38311W        W 3296   3.794   4.313   4.436
38312W        W 3297   4.183  37.950   1.699
38313W        W 3298  14.751  37.636   0.466
38314W        W 3299   0.562  17.656  13.363
38315W        W 3300   8.828  28.323   4.193
38316W        W 3301  29.469  16.190  10.659
38317W        W 3302  10.943  15.598   0.945
38318W        W 3303  17.199  11.123  11.176
38319W        W 3304  12.410   6.563  14.524
38320W        W 3305   1.439   3.453   1.726
38321W        W 3306   9.644  41.061  13.075
38322W        W 3307   6.885  12.608   0.886
38323W        W 3308  39.807   0.775  10.766
38324W        W 3309  41.464  41.283   0.016
38325W        W 3310  31.400  40.411  12.949
38326W        W 3311  17.336  33.875   0.131
38327W        W 3312  16.175  41.645   2.411
38328W        W 3313  40.889  28.343  13.986
38329W        W 3314  44.898  27.756  12.802
38330W        W 3315  19.744  21.872  11.629
38331W        W 3316  40.099  34.112  10.494
38332W        W 3317  39.458  29.653   0.867
38333W        W 3318  37.936  35.576   2.280
38334W        W 3319  41.342  23.057   0.381
38335W        W 3320  27.268  17.168  14.866
38336W        W 3321  25.860  15.051   2.297
38337W        W 3322  12.043  30.639   1.764
38338W        W 3323   5.206  44.586  12.392
38339W        W 3324  14.809  26.492  14.617
38340W        W 3325  28.091  38.893  12.365
38341W        W 3326  35.342  26.256  14.861
38342W        W 3327   2.545  25.631   4.315
38343W        W 3328  29.885   2.849   3.813
38344W        W 3329  41.371  15.169   4.180
38345W        W 3330  18.106  25.482   3.838
38346W        W 3331  27.923   7.370  11.716
38347W        W 3332  44.462   0.599   0.822
38348W        W 3333  15.121  20.315   0.793
38349W        W 3334  16.623   6.812   4.936
38350W        W 3335  14.207   8.120   1.484
38351W        W 3336   3.069  16.675   4.169
38352W        W 3337   9.512  36.182   4.112
38353W        W 3338   5.262  13.298  10.651
38354W        W 3339   6.669  20.168  13.899
38355W        W 3340  33.045   7.688   2.734
38356W        W 3341  17.661  14.945   2.279
38357W        W 3342  38.482   9.928  11.563
38358W        W 3343  14.422  18.515   1.588
38359W        W 3344   7.092  27.722  12.601
38360W        W 3345  23.357   7.938   1.968
38361W        W 3346  39.860  10.723   3.058
38362W        W 3347  24.079  17.132  12.012
38363W        W 3348  19.745   7.219   1.937
38364W        W 3349   7.501  15.070  11.006
38365W        W 3350  25.685  18.269   4.477
38366W        W 3351  29.496  33.056   1.355
38367W        W 3352  34.381  29.075   2.296
38368W        W 3353   3.262  43.251  14.809
38369W        W 3354  40.631  34.023  11.691
38370W        W 3355  40.779  15.965  11.564
38371W        W 3356   8.737  23.636   3.928
38372W        W 3357  26.691  31.358  13.843
38373W        W 3358  36.363   6.161  13.412
38374W        W 3359  10.866  21.762  13.037
38375W        W 3360  13.529   6.706   2.190
38376W        W 3361  17.352  26.677   4.876
38377W        W 3362  27.241   2.692   3.496
38378W        W 3363  13.784  17.701   2.283
38379W        W 3364  33.435   8.489  13.850
38380W        W 3365  16.768  43.073   1.715
38381W        W 3366  36.319   1.737  12.029
38382W        W 3367  40.327  37.623  13.931
38383W        W 3368  13.637  31.458   3.721
38384W        W 3369  19.948  18.544   3.301
38385W        W 3370  40.748  40.356  12.024
38386W        W 3371  40.971  20.183   2.370
38387W        W 3372  38.038  22.175  13.886
38388W        W 3373  35.855   8.018  11.632
38389W        W 3374   4.668  31.145  13.776
38390W        W 3375  12.032   8.789   4.034
38391W        W 3376   4.853  33.899   2.990
38392W        W 3377  24.562  23.562  12.916
38393W        W 3378  31.860  23.899  11.171
38394W        W 3379  31.386  31.133   1.692
38395W        W 3380  35.479  35.843   1.742
38396W        W 3381   9.462  18.744   3.617
38397W        W 3382  28.326  42.189   3.046
38398W        W 3383  27.851   2.425   0.288
38399W        W 3384  43.500  18.104  14.426
38400W        W 3385   9.668   3.721  12.861
38401W        W 3386   4.207  32.315   1.887
38402W        W 3387  19.022  21.376   4.009
38403W        W 3388   4.229  42.752   3.263
38404W        W 3389  25.954  11.771  10.479
38405W        W 3390  13.299  36.906  11.480
38406W        W 3391  32.590   3.722   1.791
38407W        W 3392   9.143  41.761   1.753
38408W        W 3393  33.712  34.971  11.752
38409W        W 3394   5.792  11.402  12.165
38410W        W 3395  30.734   4.671  13.967
38411W        W 3396  29.066  22.790  13.103
38412W        W 3397  21.777   2.250   3.195
38413W        W 3398   9.281  39.857   4.106
38414W        W 3399  12.347   8.142  13.867
38415W        W 3400  43.290  20.362   0.381
38416W        W 3401  26.587  15.726  10.086
38417W        W 3402  26.616   8.132  13.984
38418W        W 3403  29.488   7.930   3.167
38419W        W 3404  24.486   9.198   3.687
38420W        W 3405  20.211  16.194  10.550
38421W        W 3406  39.577  21.031  13.086
38422W        W 3407  30.719   3.165  10.968
38423W        W 3408  44.434   5.362   3.345
38424W        W 3409   8.368  19.242   2.004
38425W        W 3410  40.539  21.820   3.180
38426W        W 3411  39.007  32.572  14.576
38427W        W 3412  28.741  35.076  13.963
38428W        W 3413  31.577  25.928  13.115
38429W        W 3414   1.369  21.140  11.732
38430W        W 3415   8.329  25.606   0.753
38431W        W 3416  30.697  38.186   1.208
38432W        W 3417  20.124   2.907   4.344
38433W        W 3418  25.794  41.439   3.952
38434W        W 3419   3.353   3.167   1.689
38435W        W 3420  14.098  33.485  14.357
38436W        W 3421  31.895  40.717  14.215
38437W        W 3422  39.031  15.924  12.086
38438W        W 3423  24.629  28.005  14.793
38439W        W 3424   8.606  16.648  11.611
38440W        W 3425  34.805  30.576   3.662
38441W        W 3426  18.359  25.005  12.551
38442W        W 3427  21.090  33.171  10.503
38443W        W 3428  37.098  34.073  10.891
38444W        W 3429   7.861  18.229   4.108
38445W        W 3430  15.311  40.527  11.481
38446W        W 3431  11.006  33.679   0.248
38447W        W 3432  26.817   0.299  12.141
38448W        W 3433   0.290  14.692  10.739
38449W        W 3434  22.938  36.435  14.998
38450W        W 3435  14.074  25.659  12.964
38451W        W 3436  27.904  20.185   1.400
38452W        W 3437  30.546  25.591   0.310
38453W        W 3438  33.625  40.749   2.226
38454W        W 3439  33.588  11.446   3.120
38455W        W 3440  42.889  40.458   4.558
38456W        W 3441  19.269  32.933  14.370
38457W        W 3442  28.618  21.775  13.458
38458W        W 3443   6.673  26.004   3.922
38459W        W 3444   7.883  12.195  14.429
38460W        W 3445  10.984  42.849  11.679
38461W        W 3446  12.231  28.180  12.089
38462W        W 3447  37.819  21.318  10.342
38463W        W 3448  14.362  42.085   1.808
38464W        W 3449  30.054  36.393   4.886
38465W        W 3450  41.450   2.068   0.899
38466W        W 3451   0.539  18.380  12.471
38467W        W 3452  21.543  23.882   1.862
38468W        W 3453   8.239  35.845  12.389
38469W        W 3454  27.982  34.630   3.657
38470W        W 3455  37.498  25.569   2.680
38471W        W 3456   6.144  24.030   3.510
38472W        W 3457  39.463  25.953   1.433
38473W        W 3458  43.640   3.440  10.951
38474W        W 3459  36.195  38.731  12.775
38475W        W 3460  38.326  22.481  12.479
38476W        W 3461  20.248  40.055   2.432
38477W        W 3462  42.458  11.684  13.437
38478W        W 3463  10.910  43.369  13.469
38479W        W 3464  42.438  43.026   1.797
38480W        W 3465   7.256  29.230   0.250
38481W        W 3466   3.664   3.621  14.212
38482W        W 3467   5.990  11.864   2.919
38483W        W 3468   9.775   7.357   0.402
38484W        W 3469  17.200  38.398  13.894
38485W        W 3470  34.993  22.607  11.559
38486W        W 3471  12.831  32.953  14.473
38487W        W 3472   6.303  29.878  13.015
38488W        W 3473  25.984  29.502   0.805
38489W        W 3474  39.007  23.066   0.801
38490W        W 3475  26.808  16.374  11.837
38491W        W 3476  38.885  19.553   0.344
38492W        W 3477  14.971  41.365   2.315
38493W        W 3478  14.800  44.676  13.492
38494W        W 3479  10.100  29.065   2.608
38495W        W 3480  28.899  15.765  11.120
38496W        W 3481  17.686  35.530   0.820
38497W        W 3482  27.893   8.939  11.051
38498W        W 3483  10.877  18.150  14.763
38499W        W 3484  12.156   2.994   1.356
38500W        W 3485  10.371  28.107   4.691
38501W        W 3486   4.780  42.660   1.980
38502W        W 3487  35.962  27.229   0.495
38503W        W 3488  34.576  43.615   4.754
38504W        W 3489  35.579  21.848   0.477
38505W        W 3490  24.268  19.041  13.407
38506W        W 3491   2.483  18.607  13.341
38507W        W 3492  19.599   1.254  12.009
38508W        W 3493  22.326  37.447  13.232
38509W        W 3494  34.548  18.595  12.300
38510W        W 3495   2.482  20.605  14.073
38511W        W 3496  28.603  15.284  11.754
38512W        W 3497   0.950  40.772   3.545
38513W        W 3498  34.161  34.952  13.884
38514W        W 3499  42.067  30.927   2.118
38515W        W 3500  32.188  12.101   0.339
38516W        W 3501  39.590   0.345  12.915
38517W        W 3502  41.411  30.923  10.696
38518W        W 3503  22.114   2.988   3.090
38519W        W 3504  22.030   5.918  14.375
38520W        W 3505  20.296  32.888  13.489
38521W        W 3506  14.148  30.504   3.746
38522W        W 3507  19.268  33.491  14.909
38523W        W 3508  23.474  16.877   3.608
38524W        W 3509   1.009  11.198  10.597
38525W        W 3510  11.469  15.848   2.311
38526W        W 3511  30.618  31.891   0.163
38527W        W 3512  41.511   1.673  12.037
38528W        W 3513  22.642   5.513  14.045
38529W        W 3514  26.708  10.748  11.079
38530W        W 3515  41.813  40.968   4.530
38531W        W 3516  44.989   6.477  13.829
38532W        W 3517  13.258  17.130  14.116
38533W        W 3518  38.444  16.424  11.055
38534W        W 3519  33.000  42.463  14.795
38535W        W 3520   9.287  33.899  12.484
38536W        W 3521  37.524  37.622  12.194
38537W        W 3522  24.214  26.650  12.949
38538W        W 3523  41.984  43.567   1.670
38539W        W 3524  16.215  24.416  12.558
38540W        W 3525  36.913  26.602  12.983
38541W        W 3526  21.428  13.960  10.842
38542W        W 3527  28.182   0.352   2.855
38543W        W 3528  41.510  21.296   3.604
38544W        W 3529  19.276  17.084  11.022
38545W        W 3530   2.531  27.282  11.550
38546W        W 3531  13.145   6.709   2.556
38547W        W 3532   9.779  42.390  14.600
38548W        W 3533  28.093  13.347  14.440
38549W        W 3534   1.616  13.359   0.369
38550W        W 3535  17.342   5.713  13.258
38551W        W 3536   0.670  16.134   4.124
38552W        W 3537   8.747  23.816  10.851
38553W        W 3538  35.571  10.168  11.962
38554W        W 3539  20.150  42.896  13.834
38555W        W 3540   2.219  37.076  10.576
38556W        W 3541  41.089   8.214  12.489
38557W        W 3542   6.706  16.172   0.665
38558W        W 3543   6.932  24.843  12.206
38559W        W 3544   9.338  43.157   4.599
38560W        W 3545  21.047  36.960  12.844
38561W        W 3546  22.005  11.629   1.739
38562W        W 3547  43.439  10.642   2.326
38563W        W 3548  23.201  16.558   0.960
38564W        W 3549  42.184  31.079  11.986
38565W        W 3550  44.068  18.155  10.622
38566W        W 3551  33.415  22.800   4.573
38567W        W 3552  17.618  44.240   4.202
38568W        W 3553  42.776  41.528   2.322
38569W        W 3554  11.450  26.324  14.395
38570W        W 3555  20.094  19.996  12.349
38571W        W 3556   4.247  32.123   3.654
38572W        W 3557  24.393  27.064  11.496
38573W        W 3558  35.075  26.961   2.674
38574W        W 3559  23.045   9.669   1.903
38575W        W 3560   1.745  14.662  12.985
38576W        W 3561   7.275  17.676   2.639
38577W        W 3562  36.040  44.991   3.567
38578W        W 3563  10.979  30.100  13.373
38579W        W 3564  36.079  38.668   4.649
38580W        W 3565  14.999   3.274  14.040
38581W        W 3566  17.250  19.169   4.224
38582W        W 3567  36.685  37.363  14.922
38583W        W 3568  10.698  10.866  11.646
38584W        W 3569   5.803  35.662   2.828
38585W        W 3570  24.239  32.470   0.751
38586W        W 3571  15.089  13.234  13.344
38587W        W 3572  42.117   3.948  10.649
38588W        W 3573  33.203  36.515   0.320
38589W        W 3574  37.699  38.595   3.231
38590W        W 3575  15.600  21.989  14.370
38591W        W 3576  29.159   9.714   2.856
38592W        W 3577  13.711   5.420  12.005
38593W        W 3578  18.669   9.166  11.089
38594W        W 3579  44.982  13.844  14.567
38595W        W 3580  13.565  14.748   3.168
38596W        W 3581  21.513  31.473   2.929
38597W        W 3582   7.428   2.388  12.677
38598W        W 3583  27.686  28.449   0.989
38599W        W 3584  12.183  42.584   2.669
38600W        W 3585  10.620  33.038  11.160
38601W        W 3586  18.785   4.414  14.822
38602W        W 3587  26.214   9.696  10.755
38603W        W 3588  34.109  31.032   3.236
38604W        W 3589  21.977   3.431   0.459
38605W        W 3590  14.224  12.821   3.589
38606W        W 3591   5.944   8.834  13.024
38607W        W 3592  43.341  36.839  14.203
38608W        W 3593  44.010  36.550   2.600
38609W        W 3594  41.650  42.023   0.496
38610W        W 3595  22.267  19.550  13.463
38611W        W 3596  15.692  37.366   3.110
38612W        W 3597  27.685  31.920  13.356
38613W        W 3598  37.457  28.548  14.292
38614W        W 3599   7.118   6.438  11.233
38615W        W 3600  22.100   0.413  12.550
38616W        W 3601  10.898  16.771  11.461
38617W        W 3602  38.810   7.913  12.953
38618W        W 3603  10.659  41.196   1.595
38619W        W 3604  25.154  13.012   2.840
38620W        W 3605   5.931   1.596   1.311
38621W        W 3606  23.764   4.832  13.049
38622W        W 3607  38.081  25.054  10.769
38623W        W 3608  19.774  24.117  13.003
38624W        W 3609  26.119  30.685   1.355
38625W        W 3610  20.810  41.444  13.482
38626W        W 3611  40.820  20.962  10.619
38627W        W 3612  34.540   0.772   2.246
38628W        W 3613  26.091  23.591   3.996
38629W        W 3614  14.692   5.947  13.952
38630W        W 3615  25.524  44.778   4.513
38631W        W 3616  39.765  23.416   4.801
38632W        W 3617  35.848  22.590  12.052
38633W        W 3618  25.699   8.089   2.291
38634W        W 3619  22.078  18.482  12.117
38635W        W 3620  42.896  12.603  13.374
38636W        W 3621  20.080   7.109  13.800
38637W        W 3622  22.977   3.002  14.023
38638W        W 3623  41.545  40.326   4.509
38639W        W 3624  23.787  25.986  14.465
38640W        W 3625   6.590  26.488   3.716
38641W        W 3626  31.089   0.952  11.203
38642W        W 3627  33.085  15.057   1.466
38643W        W 3628  24.771   5.393  13.941
38644W        W 3629   8.079  33.171  13.860
38645W        W 3630  25.130  19.633  10.739
38646W        W 3631  36.387  30.324   0.949
38647W        W 3632   5.396  39.772  13.173
38648W        W 3633   0.501  20.445   4.426
38649W        W 3634   4.220  24.630  13.951
38650W        W 3635  33.521  10.433   4.097
38651W        W 3636   1.406  34.469  14.950
38652W        W 3637  14.127   5.566  11.622
38653W        W 3638  26.805  41.813  13.018
38654W        W 3639  37.342  14.268   2.822
38655W        W 3640  25.591  42.514   4.105
38656W        W 3641  28.088  21.443   0.714
38657W        W 3642  16.801  28.621  13.125
38658W        W 3643  38.627  15.195   3.693
38659W        W 3644  20.998  34.489   3.429
38660W        W 3645  25.105  16.755  14.300
38661W        W 3646   7.840   1.014   3.410
38662W        W 3647  32.662  19.134  13.814
38663W        W 3648   3.317  39.449  11.772
38664W        W 3649  31.861  19.640   3.855
38665W        W 3650  11.933  22.926  10.280
38666W        W 3651  43.924  23.147  11.115
38667W        W 3652  43.232  21.253  14.550
38668W        W 3653   9.418   1.643  14.331
38669W        W 3654  29.035  37.734  12.258
38670W        W 3655   5.993  10.807   2.022
38671W        W 3656  44.393  42.371  13.721
38672W        W 3657  22.922  33.481   0.652
38673W        W 3658  37.415   7.506  12.636
38674W        W 3659  39.578  34.028  13.183
38675W        W 3660  12.821  36.293  14.377
38676W        W 3661  37.798  34.105  12.876
38677W        W 3662   4.789  36.595  10.210
38678W        W 3663  32.294   7.371  10.870
38679W        W 3664   3.067  25.405   0.162
38680W        W 3665  39.354  43.284   0.377
38681W        W 3666   3.410  25.684  12.079
38682W        W 3667   2.319   8.517  12.381
38683W        W 3668  11.948  27.061   3.824
38684W        W 3669   4.452  22.550  12.724
38685W        W 3670  38.508  32.168   3.700
38686W        W 3671  31.567   3.914  10.600
38687W        W 3672  34.822  44.331   0.755
38688W        W 3673  11.696  20.330  12.880
38689W        W 3674  42.182  34.410  13.714
38690W        W 3675  11.774   0.508  10.733
38691W        W 3676  36.289  12.826  14.387
38692W        W 3677  32.847   1.043  11.076
38693W        W 3678  41.177  32.629  14.770
38694W        W 3679  31.591   7.317   2.302
38695W        W 3680  22.711  27.008   0.983
38696W        W 3681   8.422   2.330  10.622
38697W        W 3682  29.635  19.533   5.052
38698W        W 3683  35.030   6.151  11.248
38699W        W 3684  29.071   3.006   3.140
38700W        W 3685   7.437  24.524  14.409
38701W        W 3686  30.022  25.556  11.522
38702W        W 3687  42.082  30.678  13.903
38703W        W 3688  41.123  28.992   1.297
38704W        W 3689  43.822  25.494   2.439
38705W        W 3690  23.686   7.277  12.644
38706W        W 3691  44.574  35.992  12.948
38707W        W 3692  38.787  32.415  11.129
38708W        W 3693  43.009   0.802  12.490
38709W        W 3694   2.900  10.181  14.416
38710W        W 3695  15.741  37.586  14.506
38711W        W 3696  35.607   3.142   3.643
38712W        W 3697   8.100  43.744  12.158
38713W        W 3698  30.359  25.289   1.017
38714W        W 3699  25.128  18.357   2.685
38715W        W 3700  31.832  23.975  13.862
38716W        W 3701   6.419  28.525   4.709
38717W        W 3702  39.487   7.690  14.583
38718W        W 3703  24.657  44.810  11.993
38719W        W 3704   4.362  11.309   0.716
38720W        W 3705  32.832  12.534   4.199
38721W        W 3706  25.955  32.646  10.807
38722W        W 3707  26.967   2.287  13.835
38723W        W 3708  38.390  38.325   0.904
38724W        W 3709  12.968  15.015  13.858
38725W        W 3710  19.306  36.656  14.439
38726W        W 3711  33.115  33.432  13.976
38727W        W 3712   3.432   5.493   4.997
38728W        W 3713   5.450   9.747  11.070
38729W        W 3714  42.651  12.323   2.287
38730W        W 3715  40.351  40.490  12.387
38731W        W 3716  37.450  24.111   0.730
38732W        W 3717  39.896   3.838  11.524
38733W        W 3718  33.598  41.408   3.170
38734W        W 3719  11.804  19.714  12.124
38735W        W 3720  35.429  28.111  11.658
38736W        W 3721  14.937  43.156  14.953
38737W        W 3722  14.748  40.182  12.009
38738W        W 3723  37.042  24.429   3.262
38739W        W 3724   0.434  34.007   0.952
38740W        W 3725  20.087  22.243   3.403
38741W        W 3726  24.438  10.254   3.773
38742W        W 3727  37.104  44.362  10.596
38743W        W 3728  41.882  34.582   2.923
38744W        W 3729  25.208  44.492   0.149
38745W        W 3730  15.404  27.950   0.863
38746W        W 3731  29.883  31.520   0.832
38747W        W 3732  32.631   8.058   3.587
38748W        W 3733  20.276  16.982  12.045
38749W        W 3734  12.633   3.673   3.698
38750W        W 3735  17.634  43.165   0.292
38751W        W 3736  44.940   9.172  13.962
38752W        W 3737  16.859  42.425  13.308
38753W        W 3738  27.578   8.831   4.761
38754W        W 3739  40.738  20.643   0.603
38755W        W 3740  12.348  32.158   2.782
38756W        W 3741  43.901  37.364   0.787
38757W        W 3742  22.091   9.802  11.002
38758W        W 3743  22.950  34.556  12.546
38759W        W 3744   4.340  19.052  13.453
38760W        W 3745  38.488  16.159  10.157
38761W        W 3746  10.733  17.768   0.466
38762W        W 3747  32.383  30.709  12.923
38763W        W 3748  36.963  10.259  12.628
38764W        W 3749  44.748  22.712   2.145
38765W        W 3750  15.023  38.856  13.361
38766W        W 3751  35.099  38.377   1.786
38767W        W 3752  39.986  36.344  14.120
38768W        W 3753  37.781  24.357  12.349
38769W        W 3754   3.492  36.669   4.499
38770W        W 3755  43.694  13.722  14.767
38771W        W 3756  13.784  21.557   3.387
38772W        W 3757   9.785  44.818   0.359
38773W        W 3758  30.416   6.516   1.413
38774W        W 3759   9.960  28.447  13.692
38775W        W 3760  14.262  37.476   0.501
38776W        W 3761  36.955  16.533   4.007
38777W        W 3762  21.226  21.336  12.936
38778W        W 3763   7.540  19.427  14.801
38779W        W 3764  34.001  42.307   1.323
38780W        W 3765  24.913  43.121  12.925
38781W        W 3766   9.297  30.737  14.808
38782W        W 3767  38.358  39.970   3.534
38783W        W 3768  39.317  30.315  12.738
38784W        W 3769  36.501   6.251  10.861
38785W        W 3770  35.625  26.387  14.420
38786W        W 3771  41.823  23.728   2.641
38787W        W 3772  19.549  29.085  13.083
38788W        W 3773  16.105   2.516  11.896
38789W        W 3774  33.632  29.141  12.004
38790W        W 3775  20.074   1.545   0.822
38791W        W 3776  34.092  24.343   2.825
38792W        W 3777  19.646  20.009  14.815
38793W        W 3778  37.779  25.298  12.511
38794W        W 3779   1.019  34.779   1.885
38795W        W 3780  16.627  25.700  13.406
38796W        W 3781  41.620  39.077   2.447
38797W        W 3782  23.509   9.648  14.887
38798W        W 3783   8.436  37.786   1.486
38799W        W 3784  25.150  36.894   3.199
38800W        W 3785  38.584  38.121   9.749
38801W        W 3786  18.670  41.655   2.583
38802W        W 3787  20.571  20.713   0.944
38803W        W 3788  31.892  32.709   0.858
38804W        W 3789   0.914  34.686   1.000
38805W        W 3790  25.137  37.269   3.905
38806W        W 3791   3.162  23.953   3.778
38807W        W 3792  34.398   8.640   4.501
38808W        W 3793  38.823  16.630  13.379
38809W        W 3794   0.068   4.289  14.901
38810W        W 3795  34.965  20.137  11.564
38811W        W 3796   2.510  13.167   4.572
38812W        W 3797   4.704   4.797  10.244
38813W        W 3798  44.887  22.487  10.668
38814W        W 3799   2.762  26.654   0.427
38815W        W 3800  14.102  43.581  11.123
38816W        W 3801  21.291  33.316  14.372
38817W        W 3802  34.115  35.701  14.269
38818W        W 3803  28.972  10.083  14.042
38819W        W 3804  23.286  37.859   3.198
38820W        W 3805   9.213  37.022  12.361
38821W        W 3806  32.932   0.484   1.128
38822W        W 3807   6.679  42.902  12.613
38823W        W 3808  34.595  30.188   4.869
38824W        W 3809  12.701  10.590   1.869
38825W        W 3810  21.242  35.016   2.598
38826W        W 3811  10.166  22.654   2.665
38827W        W 3812  11.610  16.745  13.046
38828W        W 3813  12.174  20.728   2.920
38829W        W 3814  11.443  19.359  13.429
38830W        W 3815  35.912  35.284   2.949
38831W        W 3816  38.803  37.805   3.646
38832W        W 3817  41.445  20.839  12.390
38833W        W 3818   2.422  44.116  13.412
38834W        W 3819  42.528  43.761  14.379
38835W        W 3820  35.050   5.931  12.124
38836W        W 3821  36.121  32.200   1.638
38837W        W 3822  28.625  24.201  11.978
38838W        W 3823   9.022  18.612  12.042
38839W        W 3824   2.338  20.546  13.058
38840W        W 3825   0.795   7.763   2.961
38841W        W 3826  11.739  23.735   3.745
38842W        W 3827  23.019   2.759   0.569
38843W        W 3828  37.575  38.924   4.089
38844W        W 3829   1.157  21.074   0.446
38845W        W 3830  20.800  25.710   2.467
38846W        W 3831  18.158  33.461   2.492
38847W        W 3832  18.177  43.793   2.119
38848W        W 3833  20.090  30.744  11.173
38849W        W 3834   9.310  18.621   2.614
38850W        W 3835  35.730  14.478  12.078
38851W        W 3836  40.239  31.540   2.372
38852W        W 3837  31.858  25.415   5.116
38853W        W 3838  30.562  44.489  13.666
38854W        W 3839  26.700  20.897  10.875
38855W        W 3840   9.333  33.876   4.680
38856W        W 3841  26.390   4.548   4.038
38857W        W 3842  11.893  41.730  11.511
38858W        W 3843  13.069  44.434   1.869
38859W        W 3844  33.561   4.434   2.101
38860W        W 3845   8.592  22.755  13.573
38861W        W 3846  38.122  19.213   0.355
38862W        W 3847  42.908  21.199  11.539
38863W        W 3848  22.018  27.415  13.341
38864W        W 3849  18.285   6.660   1.955
38865W        W 3850   8.386  41.599   2.943
38866W        W 3851  37.427  10.643   1.348
38867W        W 3852  16.525  20.021   3.753
38868W        W 3853  39.222   8.450  12.027
38869W        W 3854  24.187  16.667   0.179
38870W        W 3855  40.471  43.712  11.117
38871W        W 3856  31.693  18.362   0.139
38872W        W 3857   2.774  35.670  13.572
38873W        W 3858   8.880  41.718   4.591
38874W        W 3859   7.766   2.005   1.000
38875W        W 3860   4.508  38.061  13.633
38876W        W 3861  11.836  41.808   4.117
38877W        W 3862  26.048  28.562   4.829
38878W        W 3863  35.499  41.404   4.058
38879W        W 3864   3.535  17.171   1.779
38880W        W 3865   4.791  42.253  14.710
38881W        W 3866   2.166   3.485   0.384
38882W        W 3867  33.943  10.661   3.236
38883W        W 3868  33.944  19.429   2.687
38884W        W 3869   8.847  32.083   4.574
38885W        W 3870  35.610  18.251  11.607
38886W        W 3871  32.036  16.578  10.351
38887W        W 3872  32.032  21.269   3.226
38888W        W 3873   1.106   4.852  11.992
38889W        W 3874  15.388  19.151   3.813
38890W        W 3875   9.652   3.134   4.595
38891W        W 3876  12.450  11.387  14.959
38892W        W 3877  21.041   2.014  11.110
38893W        W 3878   5.719  36.979  12.554
38894W        W 3879  42.674  17.161  12.966
38895W        W 3880  26.514   2.954   0.523
38896W        W 3881  12.480  27.224  11.056
38897W        W 3882   5.526  32.567  14.935
38898W        W 3883  31.594  32.060   1.772
38899W        W 3884  18.598   0.262  13.190
38900W        W 3885  34.888  43.753  10.714
38901W        W 3886  35.095  42.324   2.262
38902W        W 3887  11.299  34.068  11.620
38903W        W 3888   0.973   2.420  13.504
38904W        W 3889  41.375  37.093   5.629
38905W        W 3890  42.406  17.370   2.712
38906W        W 3891  34.124  39.550  10.829
38907W        W 3892  14.305  35.878   4.547
38908W        W 3893   6.123  33.603   2.438
38909W        W 3894  23.386   8.344   3.760
38910W        W 3895  40.986  39.616   9.804
38911W        W 3896  39.309  21.498   1.940
38912W        W 3897  17.965   9.047   0.176
38913W        W 3898   7.675  19.583   1.419
38914W        W 3899  17.252  43.539   4.125
38915W        W 3900  19.042  10.258  14.195
38916W        W 3901  31.106  24.416   2.904
38917W        W 3902   2.504   3.348  11.480
38918W        W 3903  41.564   5.303   1.831
38919W        W 3904  11.319  37.352   1.415
38920W        W 3905   9.449  41.640  13.120
38921W        W 3906  43.783  24.048   0.851
38922W        W 3907   9.464  12.794  12.510
38923W        W 3908  12.394   4.423   4.160
38924W        W 3909  10.319   6.244   0.451
38925W        W 3910  28.704  30.941   1.201
38926W        W 3911  39.852   2.210   1.459
38927W        W 3912  30.455  41.537  14.494
38928W        W 3913   5.174  14.394  13.445
38929W        W 3914  39.367  32.945  11.622
38930W        W 3915  36.925  37.631   4.722
38931W        W 3916  22.019  19.563  13.930
38932W        W 3917  19.409  30.043   3.221
38933W        W 3918  26.965  18.815   4.547
38934W        W 3919  40.297  23.673  14.754
38935W        W 3920  41.480  33.695   1.296
38936W        W 3921  43.269  43.313   0.369
38937W        W 3922   3.914  35.416  13.729
38938W        W 3923  20.483  33.992  12.897
38939W        W 3924  14.758  34.511   2.339
38940W        W 3925  15.604  15.618  11.138
38941W        W 3926   1.649  36.942  10.633
38942W        W 3927  44.455  41.889  13.485
38943W        W 3928  36.556  18.308   0.745
38944W        W 3929  10.704  32.983   2.407
38945W        W 3930  34.325  44.318  10.547
38946W        W 3931  11.736  27.747  13.469
38947W        W 3932  23.415  20.044  13.115
38948W        W 3933  16.163  11.753  10.543
38949W        W 3934  39.104  29.643   3.275
38950W        W 3935   0.518  28.427  10.670
38951W        W 3936  43.575  35.964   3.808
38952W        W 3937   4.846  36.697   4.888
38953W        W 3938  39.884   3.957   1.668
38954W        W 3939  44.771  25.403   2.233
38955W        W 3940   0.888  41.022  13.484
38956W        W 3941  33.983  44.967   0.429
38957W        W 3942  36.377  13.654   1.899
38958W        W 3943   5.078  26.210   2.280
38959W        W 3944  15.424  31.400   2.457
38960W        W 3945  27.603  22.499  13.994
38961W        W 3946  44.810  35.003   2.220
38962W        W 3947  32.884  44.358   0.382
38963W        W 3948   7.726  29.235   4.152
38964W        W 3949  25.829  12.344   2.394
38965W        W 3950  33.308  30.148  11.984
38966W        W 3951  22.571   7.203  12.868
38967W        W 3952  16.906  18.678   4.916
38968W        W 3953  39.787  13.917  12.117
38969W        W 3954  11.662   8.041  14.475
38970W        W 3955   2.193  40.294   1.424
38971W        W 3956  15.282  23.284   3.745
38972W        W 3957  36.973  41.582  14.378
38973W        W 3958  35.588  38.074  11.992
38974W        W 3959  34.865   5.422   0.430
38975W        W 3960   0.923   7.255   1.234
38976W        W 3961   0.252  33.599  14.326
38977W        W 3962  29.887  43.266  12.898
38978W        W 3963  25.790  30.093  13.810
38979W        W 3964  22.194  38.975  11.035
38980W        W 3965  40.980  10.162  12.946
38981W        W 3966  42.795  24.562   0.420
38982W        W 3967   5.287   3.298  14.344
38983W        W 3968  43.775  41.062  14.249
38984W        W 3969   4.669  10.280  10.675
38985W        W 3970  38.029  11.359   3.288
38986W        W 3971  35.111  35.948   2.363
38987W        W 3972  14.672  11.239   0.235
38988W        W 3973  11.289  29.141   0.923
38989W        W 3974  39.429  29.081  12.594
38990W        W 3975  30.239  19.207   4.542
38991W        W 3976  18.151  44.360   1.855
38992W        W 3977  13.608   9.828  10.785
38993W        W 3978  16.695  17.884   1.235
38994W        W 3979  36.050  12.937   4.506
38995W        W 3980  28.706   4.715   3.810
38996W        W 3981  43.037  15.771  14.877
38997W        W 3982  34.048  19.071   3.080
38998W        W 3983   1.188  41.924   3.272
38999W        W 3984  12.342  15.506  11.486
39000W        W 3985   1.529  44.912  13.420
39001W        W 3986  22.275  13.616  13.345
39002W        W 3987   4.873  28.645   4.509
39003W        W 3988  12.249  42.762  14.390
39004W        W 3989  15.854  42.097   4.197
39005W        W 3990  17.395  11.341   0.386
39006W        W 3991  12.101   4.061  14.542
39007W        W 3992  36.279  43.267  11.524
39008W        W 3993   5.295  19.156  12.724
39009W        W 3994   9.902   3.759  14.262
39010W        W 3995  32.958  18.922  13.371
39011W        W 3996  26.955  39.533   2.825
39012W        W 3997  23.662  29.442   1.043
39013W        W 3998   4.812  29.947   3.786
39014W        W 3999  40.550  11.253   4.272
39015W        W 4000  43.052  13.461   1.428
39016W        W 4001  28.995  30.886   3.459
39017W        W 4002  13.040  44.021   4.743
39018W        W 4003  22.237  43.682  14.637
39019W        W 4004  33.108   4.742  10.660
39020W        W 4005  38.337  11.152  10.960
39021W        W 4006  20.857  41.766  10.677
39022W        W 4007  25.519  33.543   3.130
39023W        W 4008  28.252   7.709   2.311
39024W        W 4009  23.053  12.243  12.773
39025W        W 4010  35.431  12.884   1.027
39026W        W 4011   6.552  44.923  13.805
39027W        W 4012  26.159  10.540   5.145
39028W        W 4013  34.317   4.238   1.561
39029W        W 4014  44.556  22.052   4.060
39030W        W 4015   4.798  31.823  12.613
39031W        W 4016  30.663  34.689  11.898
39032W        W 4017  40.717  12.802  14.074
39033W        W 4018  39.378   2.750   1.730
39034W        W 4019  41.591  37.061   3.511
39035W        W 4020  17.979   4.830   2.278
39036W        W 4021  43.109  21.409  10.073
39037W        W 4022  12.763  37.523   0.678
39038W        W 4023  28.737  25.057   1.684
39039W        W 4024  43.913   9.702   0.916
39040W        W 4025  26.676  17.055   1.919
39041W        W 4026  21.465  34.433   1.187
39042W        W 4027   0.742  42.433  13.664
39043W        W 4028   1.306  38.058   3.470
39044W        W 4029  12.535  14.929  14.792
39045W        W 4030   3.286  28.609   4.093
39046W        W 4031  43.901  17.806  11.653
39047W        W 4032   2.984  30.554  11.223
39048W        W 4033  35.340   8.344  13.044
39049W        W 4034  14.671  38.011  11.095
39050W        W 4035  31.188  29.390  10.834
39051W        W 4036  44.818  23.664   4.650
39052W        W 4037  17.499  41.666   3.102
39053W        W 4038  25.518  11.945  11.964
39054W        W 4039  37.844   3.952   0.087
39055W        W 4040   4.188  39.765   3.739
39056W        W 4041  30.560  10.733  13.319
39057W        W 4042  28.188   9.241  12.176
39058W        W 4043  39.425  39.047  11.603
39059W        W 4044  18.505  37.559   0.010
39060W        W 4045  16.667  31.243   3.547
39061W        W 4046  28.691   8.261  12.997
39062W        W 4047  10.717  12.370   3.196
39063W        W 4048  42.850  28.319  10.843
39064W        W 4049  23.201  43.334   3.639
39065W        W 4050  32.899  24.527   3.091
39066W        W 4051  24.991   9.905  10.688
39067W        W 4052  38.113   4.219  11.520
39068W        W 4053   2.956  36.439  10.719
39069W        W 4054  12.431   2.849  12.046
39070W        W 4055  29.722   9.742  14.245
39071W        W 4056  28.122  31.051  12.128
39072W        W 4057  13.107  30.552   1.299
39073W        W 4058  18.929  42.408   3.820
39074W        W 4059  24.718  16.613   1.288
39075W        W 4060  13.643  23.642  14.000
39076W        W 4061  12.109  14.220   4.149
39077W        W 4062  10.483  24.689  12.806
39078W        W 4063   9.245   8.135  12.418
39079W        W 4064  31.451  28.249   4.151
39080W        W 4065  31.292  18.089   1.712
39081W        W 4066  22.194   3.815   1.671
39082W        W 4067  12.357  17.807   1.859
39083W        W 4068  17.740   1.644   1.218
39084W        W 4069  18.749  20.507   1.336
39085W        W 4070  29.893  15.735   4.761
39086W        W 4071  37.040   7.043   3.075
39087W        W 4072   5.649  39.637   1.290
39088W        W 4073  15.375  12.395   1.975
39089W        W 4074  38.392   8.009  11.541
39090W        W 4075  30.571  20.323  12.936
39091W        W 4076   0.022   0.216   2.892
39092W        W 4077   1.916  28.225   3.877
39093W        W 4078  36.937  16.655  12.219
39094W        W 4079  28.406   7.646   3.683
39095W        W 4080  10.121  27.897  11.603
39096W        W 4081   4.705  38.877  11.060
39097W        W 4082  44.292   0.263  13.790
39098W        W 4083  11.747   5.033   2.234
39099W        W 4084  14.826   4.301   1.209
39100W        W 4085  10.144   2.443   5.023
39101W        W 4086  15.720  23.656  11.457
39102W        W 4087   4.199  34.404   3.743
39103W        W 4088  37.852   6.638   4.079
39104W        W 4089  30.000  24.512   0.712
39105W        W 4090   3.346  40.384  12.679
39106W        W 4091  33.876  15.991   4.471
39107W        W 4092  25.434   1.216   1.882
39108W        W 4093   8.156   3.691   3.767
39109W        W 4094  42.592  36.390  14.483
39110W        W 4095  38.424   5.149  13.784
39111W        W 4096   1.622   4.877  12.021
39112W        W 4097  25.737  24.853   4.927
39113W        W 4098  29.390  37.054   3.742
39114W        W 4099  24.907   5.837   4.756
39115W        W 4100  28.174  42.138   2.436
39116W        W 4101   8.399  29.002   3.086
39117W        W 4102  12.246   7.630  11.511
39118W        W 4103  41.214  18.631  11.227
39119W        W 4104  41.898  29.710   3.243
39120W        W 4105  32.141  24.630   1.714
39121W        W 4106  18.194   8.319   4.013
39122W        W 4107  25.613  17.553  11.953
39123W        W 4108  32.847   8.920  14.032
39124W        W 4109  39.998  29.197  11.988
39125W        W 4110  16.442  37.002   1.538
39126W        W 4111   0.819   2.808   4.697
39127W        W 4112  24.521   5.475   0.880
39128W        W 4113  35.131  31.528  14.313
39129W        W 4114  23.559  41.938  12.489
39130W        W 4115  42.395  41.432  13.031
39131W        W 4116   2.713  36.974   1.343
39132W        W 4117  33.324  10.164  11.571
39133W        W 4118  25.500  36.871  14.602
39134W        W 4119  27.089  30.489  13.848
39135W        W 4120   6.087  40.063  12.454
39136W        W 4121  39.414  33.075  12.939
39137W        W 4122  43.797  20.622  13.359
39138W        W 4123  26.030  35.891   1.799
39139W        W 4124  25.472  15.156  13.383
39140W        W 4125  33.546  33.190  12.797
39141W        W 4126  44.931  21.000  12.625
39142W        W 4127  10.717  25.780  14.488
39143W        W 4128  37.641  34.560   9.894
39144W        W 4129  32.616  19.763   1.955
39145W        W 4130   0.297  34.918  14.595
39146W        W 4131  15.199  14.648   0.483
39147W        W 4132  31.927  32.606  13.591
39148W        W 4133  32.911  21.730   1.325
39149W        W 4134  44.017  42.371   3.113
39150W        W 4135  42.955  37.881   3.148
39151W        W 4136  36.923  21.684  12.599
39152W        W 4137  10.919  43.487   3.290
39153W        W 4138  37.844  21.998   0.311
39154W        W 4139  15.265  27.126   3.139
39155W        W 4140  15.679  39.089   3.160
39156W        W 4141  21.958   1.760   2.394
39157W        W 4142  43.460  35.409   2.575
39158W        W 4143  34.559  20.620  14.004
39159W        W 4144  24.611  30.700   1.498
39160W        W 4145  42.842  14.723   2.690
39161W        W 4146   5.891   1.824   2.829
39162W        W 4147  36.307  14.739  10.542
39163W        W 4148  30.706   0.723   3.297
39164W        W 4149  24.618  36.295  10.985
39165W        W 4150   7.237  44.246  13.817
39166W        W 4151  27.771  44.290   3.334
39167W        W 4152  35.911  30.618  12.743
39168W        W 4153  28.890  12.969   0.309
39169W        W 4154  10.278   9.043  12.616
39170W        W 4155  28.757  15.199  12.788
39171W        W 4156  18.073   6.426   3.201
39172W        W 4157  40.443  38.422   2.840
39173W        W 4158  43.804  25.622  13.449
39174W        W 4159  43.874   3.011  13.875
39175W        W 4160  44.369  43.672   2.708
39176W        W 4161  31.109  10.038  14.896
39177W        W 4162   9.653  31.657  13.924
39178W        W 4163  32.500  12.064  12.472
39179W        W 4164  20.148  28.129  11.700
39180W        W 4165  13.667  17.608  11.217
39181W        W 4166  29.449  30.404  14.778
39182W        W 4167  44.032  38.063  14.477
39183W        W 4168   3.209  24.681  13.910
39184W        W 4169   3.904   8.136  11.883
39185W        W 4170  29.087  22.239   3.563
39186W        W 4171  31.515   1.991  11.077
39187W        W 4172  22.125  35.305  14.747
39188W        W 4173   5.771  44.004  11.193
39189W        W 4174  24.902   1.976   3.378
39190W        W 4175  32.412   6.116  13.519
39191W        W 4176  39.963  40.493  14.770
39192W        W 4177  35.039  14.775   1.722
39193W        W 4178  15.342  15.222   3.341
39194W        W 4179  16.072  41.277  12.075
39195W        W 4180  10.010  17.641  13.858
39196W        W 4181   7.486   6.076   0.940
39197W        W 4182  26.099  38.806  12.879
39198W        W 4183  34.706  40.370  11.648
39199W        W 4184  26.641  16.309  14.010
39200W        W 4185  21.662  10.981  11.101
39201W        W 4186  30.638  14.511  12.013
39202W        W 4187   2.152  24.778   3.406
39203W        W 4188   3.685  38.857   4.468
39204W        W 4189  44.319  11.773   3.620
39205W        W 4190  12.202   6.009   0.808
39206W        W 4191  11.157  25.704   2.949
39207W        W 4192  21.358   4.151   4.263
39208W        W 4193  23.826  18.435  11.136
39209W        W 4194  24.389  27.769   4.564
39210W        W 4195  16.577  35.824  13.020
39211W        W 4196  41.250  20.745  11.547
39212W        W 4197  28.393   0.729  14.909
39213W        W 4198  17.508   1.007   0.249
39214W        W 4199  20.965  12.766   2.687
39215W        W 4200  16.222   3.312   3.938
39216W        W 4201  24.762  33.970   2.336
39217W        W 4202   9.629  43.986   4.507
39218W        W 4203   4.909  16.296   3.697
39219W        W 4204  23.033  34.190   1.896
39220W        W 4205  28.141  35.996   4.637
39221W        W 4206   4.659  11.765   0.304
39222W        W 4207  11.178  35.251   3.999
39223W        W 4208  29.600  24.627   2.397
39224W        W 4209   5.712   7.193   2.185
39225W        W 4210  16.103  36.071   3.721
39226W        W 4211  27.735  15.545   3.261
39227W        W 4212   6.988   0.370  13.200
39228W        W 4213  39.026   8.897   3.101
39229W        W 4214  41.087   5.291   4.124
39230W        W 4215  14.178  21.713  11.132
39231W        W 4216  37.435  36.902   2.159
39232W        W 4217  15.899   0.249   2.364
39233W        W 4218  41.361  22.171   0.746
39234W        W 4219  14.660   8.361  10.878
39235W        W 4220   7.109  21.322  11.505
39236W        W 4221   2.537  22.617  11.382
39237W        W 4222  17.163  33.930  13.124
39238W        W 4223  33.993  36.328  14.859
39239W        W 4224   5.368   3.088   3.827
39240W        W 4225  13.290  28.566   2.136
39241W        W 4226  37.750  32.523   3.540
39242W        W 4227  44.473  23.305   2.836
39243W        W 4228   3.456  25.168   1.754
39244W        W 4229  25.626  30.419   2.740
39245W        W 4230  44.913  22.341  13.979
39246W        W 4231  36.945  24.271  12.300
39247W        W 4232  25.752   6.655  13.297
39248W        W 4233  10.115  43.389  13.889
39249W        W 4234  23.018  30.794   4.347
39250W        W 4235  13.183  24.978   0.721
39251W        W 4236  38.437   1.817   0.453
39252W        W 4237  40.540  32.376   4.525
39253W        W 4238   8.678   3.971  13.039
39254W        W 4239  17.064  37.780  14.615
39255W        W 4240  15.803   2.971  12.621
39256W        W 4241  40.615  42.248   2.574
39257W        W 4242  30.546  19.501   4.847
39258W        W 4243  39.427  40.391  14.643
39259W        W 4244  30.179  20.678  12.449
39260W        W 4245   7.437  12.314   0.460
39261W        W 4246  15.540  42.512   4.070
39262W        W 4247  21.049  22.155  11.761
39263W        W 4248   4.253  27.240  14.992
39264W        W 4249  33.680  11.239  12.423
39265W        W 4250   2.526  39.529  12.492
39266W        W 4251  39.388   7.758   1.434
39267W        W 4252  19.076  37.845  11.592
39268W        W 4253  29.147  22.824  12.605
39269W        W 4254  34.174   6.868   2.559
39270W        W 4255  19.190  34.000   4.123
39271W        W 4256  18.614  13.512  11.404
39272W        W 4257   1.342  15.068   3.142
39273W        W 4258  30.721  15.922  12.053
39274W        W 4259  17.900  22.103   3.770
39275W        W 4260  37.167  16.268  10.666
39276W        W 4261  41.889   8.221   2.044
39277W        W 4262   4.733  40.024  14.866
39278W        W 4263  17.153  26.973  12.160
39279W        W 4264   4.954  28.175  14.833
39280W        W 4265  40.892  26.630   0.617
39281W        W 4266  21.687  23.488  14.333
39282W        W 4267  20.380  20.665   0.119
39283W        W 4268  34.832  43.270  10.882
39284W        W 4269  28.125  18.131   0.779
39285W        W 4270  26.219  12.213   3.783
39286W        W 4271   0.301  11.132  13.517
39287W        W 4272  15.815  11.422  12.868
39288W        W 4273  42.305  12.884   3.611
39289W        W 4274  38.774  27.876   1.184
39290W        W 4275  13.366  16.402  13.528
39291W        W 4276   9.908  11.919   2.916
39292W        W 4277  12.321  18.808  10.398
39293W        W 4278  20.564  19.262   3.411
39294W        W 4279  33.871   9.493  14.966
39295W        W 4280  37.985  27.198   0.895
39296W        W 4281  21.202   8.425  14.408
39297W        W 4282  11.865  31.656   2.246
39298W        W 4283  27.107  10.826   0.731
39299W        W 4284  36.495  35.333  12.792
39300W        W 4285  28.570   3.687   3.804
39301W        W 4286  30.018   3.339  12.123
39302W        W 4287  16.111  42.871  13.996
39303W        W 4288   8.879  22.205   1.432
39304W        W 4289  23.470  31.168  11.071
39305W        W 4290  32.672  15.503  12.290
39306W        W 4291  17.292  13.573   0.493
39307W        W 4292  41.490   2.005  14.038
39308W        W 4293   0.444  24.701   0.666
39309W        W 4294   9.138  12.619  14.932
39310W        W 4295  15.893  12.832   4.003
39311W        W 4296  14.026  12.145  12.497
39312W        W 4297  21.194  16.181  13.452
39313W        W 4298  38.887  33.500  14.725
39314W        W 4299  33.119   7.360  14.988
39315W        W 4300   4.316   7.274   0.414
39316W        W 4301  28.932   8.948  13.427
39317W        W 4302  14.720  13.294   0.028
39318W        W 4303  21.155  44.837   0.827
39319W        W 4304  12.198  25.527  13.243
39320W        W 4305  22.596  39.278   1.157
39321W        W 4306  20.632  41.661  12.150
39322W        W 4307  34.915  43.871  13.545
39323W        W 4308   8.561  32.266   5.010
39324W        W 4309  10.115   5.231   3.147
39325W        W 4310   5.472  24.937  14.284
39326W        W 4311  11.864  20.497   3.259
39327W        W 4312  25.289  13.205   5.093
39328W        W 4313  42.936  11.910   4.050
39329W        W 4314  37.493   0.760  10.691
39330W        W 4315   3.012  31.532  12.078
39331W        W 4316   4.330  37.038  12.331
39332W        W 4317   7.811   5.456   0.281
39333W        W 4318  35.172  15.176   3.639
39334W        W 4319  30.466   5.112  14.094
39335W        W 4320  19.488   8.927  14.453
39336W        W 4321   2.234  31.577   3.284
39337W        W 4322  24.196  23.521   1.368
39338W        W 4323  22.537   0.851   1.642
39339W        W 4324   5.733  17.544  13.226
39340W        W 4325  11.641  24.012  14.855
39341W        W 4326  20.499  30.582  12.929
39342W        W 4327  36.258  11.571   3.245
39343W        W 4328  22.175  40.978  11.158
39344W        W 4329  15.746  44.408   5.119
39345W        W 4330  15.249  18.629   3.816
39346W        W 4331  26.787  16.718   4.128
39347W        W 4332   2.954  14.863  11.548
39348W        W 4333  38.857  18.327   2.196
39349W        W 4334  10.327  34.627  13.075
39350W        W 4335   2.698  40.373   1.367
39351W        W 4336  35.900   7.418   0.248
39352W        W 4337  27.600  30.006  12.769
39353W        W 4338   2.509   8.116  14.917
39354W        W 4339  25.156  22.171  13.171
39355W        W 4340   8.902  31.144   2.377
39356W        W 4341  16.011  21.190  13.522
39357W        W 4342  44.677   8.147  14.246
39358W        W 4343   8.754  13.473  13.933
39359W        W 4344  23.507   0.890  10.779
39360W        W 4345  39.529   9.478   0.350
39361W        W 4346  38.843  19.595  13.399
39362W        W 4347  22.889  39.107   4.181
39363W        W 4348  23.025   2.996   2.869
39364W        W 4349  19.975   5.376   0.449
39365W        W 4350   4.780  15.083   1.410
39366W        W 4351   4.880  14.810  11.908
39367W        W 4352  32.415  43.038  12.435
39368W        W 4353  14.327  22.496   1.327
39369W        W 4354  29.087  29.730  11.590
39370W        W 4355  20.986  21.734  11.101
39371W        W 4356  40.862  41.161  10.750
39372W        W 4357  27.443  32.441   2.660
39373W        W 4358  29.018   3.005  14.460
39374W        W 4359  14.003   8.032   1.963
39375W        W 4360   0.255   2.674   1.733
39376W        W 4361  14.492  40.670  11.964
39377W        W 4362  24.616  10.268   3.279
39378W        W 4363   5.754  24.305  12.399
39379W        W 4364   3.973  18.558  11.078
39380W        W 4365  33.255  35.650   3.257
39381W        W 4366  44.830  13.597  11.200
39382W        W 4367  44.313  30.028  13.257
39383W        W 4368   8.641   1.796  12.425
39384W        W 4369  14.257  29.001   2.699
39385W        W 4370  44.052  23.548  11.573
39386W        W 4371  13.630  41.529  12.335
39387W        W 4372  19.039  43.243   3.507
39388W        W 4373  18.337  19.515   3.096
39389W        W 4374  43.769  30.965  12.179
39390W        W 4375  24.284  12.995  11.004
39391W        W 4376  24.552  10.038  12.625
39392W        W 4377  20.750   3.069   3.693
39393W        W 4378   5.727  19.001   0.220
39394W        W 4379  40.531  18.686  12.064
39395W        W 4380  10.681  37.341   2.283
39396W        W 4381  39.521   1.767   0.350
39397W        W 4382  12.651  22.655  10.789
39398W        W 4383  28.657  33.805  11.699
39399W        W 4384  16.680  29.909  13.860
39400W        W 4385  42.223  17.800  10.865
39401W        W 4386  18.193  30.421  13.272
39402W        W 4387  32.332  44.835   1.801
39403W        W 4388  20.488  29.457  11.099
39404W        W 4389  44.250   7.683   3.784
39405W        W 4390   9.447  20.832  14.500
39406W        W 4391   4.320  19.286   1.278
39407W        W 4392  41.115  38.559   1.711
39408W        W 4393  21.015  22.153   3.110
39409W        W 4394  11.280   4.674  12.558
39410W        W 4395   5.904  24.982   2.287
39411W        W 4396  31.649  24.077   3.278
39412W        W 4397   3.287   3.715   2.758
39413W        W 4398   6.580   2.870   0.805
39414W        W 4399   1.139  44.384  11.092
39415W        W 4400  10.415  39.452  11.258
39416W        W 4401  39.821   9.208  12.897
39417W        W 4402  15.278  44.684   1.985
39418W        W 4403  15.686  41.590  14.470
39419W        W 4404   4.319  15.851  14.956
39420W        W 4405  39.146   2.286   3.715
39421W        W 4406  16.922  26.912   0.040
39422W        W 4407  18.174  14.192   3.800
39423W        W 4408  18.070  11.259   2.726
39424W        W 4409  14.113  12.450  12.083
39425W        W 4410  16.053  38.885   1.483
39426W        W 4411  20.158  21.123   5.386
39427W        W 4412  33.541   6.138  14.347
39428W        W 4413   0.536  17.570   2.743
39429W        W 4414  37.224   3.305  13.999
39430W        W 4415  42.094  17.635   1.394
39431W        W 4416   1.729  33.430   1.844
39432W        W 4417   0.160  35.129   5.100
39433W        W 4418   0.843  43.256   2.372
39434W        W 4419  41.873  16.739   1.384
39435W        W 4420  34.029  14.294  13.502
39436W        W 4421  11.144  15.780   1.904
39437W        W 4422  39.959  31.131   4.838
39438W        W 4423  38.090  30.863   4.004
39439W        W 4424  10.258  34.718   2.715
39440W        W 4425  35.804  29.956   2.224
39441W        W 4426  25.446  41.234   2.169
39442W        W 4427  40.905  10.262  11.653
39443W        W 4428   8.629  34.202  11.148
39444W        W 4429  44.911  26.756  13.028
39445W        W 4430  24.380  33.748   0.973
39446W        W 4431  12.732  43.421   3.599
39447W        W 4432  27.542  10.619   0.929
39448W        W 4433   8.003  20.094   4.107
39449W        W 4434   3.320  35.423  12.042
39450W        W 4435  33.479  23.825  12.075
39451W        W 4436  14.796   7.777  14.433
39452W        W 4437  11.593   8.282   2.245
39453W        W 4438  18.818  17.012  13.077
39454W        W 4439  16.111  25.197   5.125
39455W        W 4440  35.372  37.086   3.227
39456W        W 4441  42.996  37.311  13.756
39457W        W 4442  43.317  32.552  11.997
39458W        W 4443  28.361  22.010  10.514
39459W        W 4444  17.843  32.704   1.859
39460W        W 4445  33.467  42.741   4.583
39461W        W 4446  28.391  32.248  13.017
39462W        W 4447  38.501  32.493  10.677
39463W        W 4448   0.295  17.471   0.836
39464W        W 4449  25.701  39.859  13.559
39465W        W 4450  34.244  12.485  10.462
39466W        W 4451  29.336   5.513  13.151
39467W        W 4452  25.006  17.735   1.709
39468W        W 4453  24.237  27.077   3.633
39469W        W 4454  22.288   9.207   1.233
39470W        W 4455  16.172   8.703   0.094
39471W        W 4456  16.013  14.349   3.383
39472W        W 4457   0.530   5.261  14.837
39473W        W 4458  23.526  25.549   2.252
39474W        W 4459  32.190  33.445   0.338
39475W        W 4460  10.178  17.609  10.788
39476W        W 4461  19.752  29.640  14.423
39477W        W 4462  12.782  12.618   3.855
39478W        W 4463  40.068  38.434  13.116
39479W        W 4464   9.605  23.077   1.145
39480W        W 4465  21.447  41.994   4.647
39481W        W 4466   9.091  34.035  11.040
39482W        W 4467  27.201  42.945   2.788
39483W        W 4468  42.437  24.688  12.734
39484W        W 4469  20.438  44.887   3.479
39485W        W 4470  16.965  14.206  14.989
39486W        W 4471  35.358  44.017  10.691
39487W        W 4472  36.746  27.615  14.923
39488W        W 4473   3.183  25.037  14.332
39489W        W 4474  37.462   0.500  11.134
39490W        W 4475   6.659  27.002   4.344
39491W        W 4476  34.354  12.873   2.732
39492W        W 4477  30.693  35.098  12.176
39493W        W 4478  31.115  33.360   1.720
39494W        W 4479  28.996  36.416   1.354
39495W        W 4480  28.429  20.311   4.042
39496W        W 4481  42.859  20.730  14.363
39497W        W 4482  13.269   2.290  12.395
39498W        W 4483  13.802  13.788  10.583
39499W        W 4484  38.828  29.203  10.824
39500W        W 4485  26.963  20.119   0.980
39501W        W 4486   4.471  30.531   0.459
39502W        W 4487  33.973  21.049   3.701
39503W        W 4488  10.225  23.569  10.825
39504W        W 4489  41.428  34.026   2.788
39505W        W 4490   8.924  22.559  12.522
39506W        W 4491  41.516  27.527  14.130
39507W        W 4492  13.086  32.143   3.217
39508W        W 4493  44.791  20.189   1.131
39509W        W 4494  38.333  37.061  13.005
39510W        W 4495   4.633  33.203  11.226
39511W        W 4496  16.154   2.753  10.813
39512W        W 4497  14.556  22.960  11.676
39513W        W 4498  23.199   1.675   9.773
39514W        W 4499  21.090  39.403  13.369
39515W        W 4500   7.885  23.734   3.560
39516W        W 4501  32.001  27.604   1.613
39517W        W 4502  12.676   6.883   3.508
39518W        W 4503  32.462  12.623   2.625
39519W        W 4504   1.511  11.855  11.144
39520W        W 4505  40.028  36.160  12.291
39521W        W 4506  38.986  12.630   0.527
39522W        W 4507  30.199  11.813   0.464
39523W        W 4508  17.863  38.760   2.649
39524W        W 4509  15.183  39.463   4.648
39525W        W 4510  10.345  20.729   4.108
39526W        W 4511  44.510   6.310  11.567
39527W        W 4512  42.729  14.582   0.686
39528W        W 4513  23.370  37.773   4.130
39529W        W 4514   0.799   3.733   2.156
39530W        W 4515  41.857  38.623   3.314
39531W        W 4516  19.185  13.412   0.474
39532W        W 4517  43.451  38.312   2.795
39533W        W 4518  38.802  25.705  11.839
39534W        W 4519  27.656  11.849   0.447
39535W        W 4520  25.230  15.774   1.206
39536W        W 4521  21.057  15.191  14.728
39537W        W 4522  10.580  21.680   2.753
39538W        W 4523   4.727  24.288  11.714
39539W        W 4524  30.154  41.988  13.991
39540W        W 4525  38.797  29.077   1.463
39541W        W 4526  11.682  34.869   2.648
39542W        W 4527  19.751  13.650  12.966
39543W        W 4528  13.773  11.225   0.385
39544W        W 4529  30.990   5.243  10.346
39545W        W 4530   1.686   7.366   3.937
39546W        W 4531  10.741  43.055  12.068
39547W        W 4532  14.580  20.747   0.364
39548W        W 4533  16.711  40.442   2.256
39549W        W 4534  13.317  10.399   2.731
39550W        W 4535  11.642   7.719   0.964
39551W        W 4536  41.022  25.963  11.649
39552W        W 4537  10.089   9.384  14.811
39553W        W 4538  23.706  33.768  10.880
39554W        W 4539  27.981  20.715   2.834
39555W        W 4540   9.423   9.757  10.459
39556W        W 4541  12.678  41.336   3.896
39557W        W 4542  12.621  33.620   4.534
39558W        W 4543  42.594  19.061   1.203
39559W        W 4544  23.360   4.997   3.686
39560W        W 4545  32.339  28.098  11.982
39561W        W 4546  43.450  29.663  14.357
39562W        W 4547  21.615   5.866  14.054
39563W        W 4548  42.543  42.484  14.822
39564W        W 4549  40.953   5.464   0.869
39565W        W 4550  20.762  14.034   1.868
39566W        W 4551  10.720  36.591  10.582
39567W        W 4552   7.301  44.337   4.088
39568W        W 4553   8.191  42.793  11.981
39569W        W 4554  21.971   2.837   1.706
39570W        W 4555  20.031  23.985   3.437
39571W        W 4556  32.803   0.826  13.484
39572W        W 4557  44.874   3.151  14.777
39573W        W 4558  14.556  11.229  11.586
39574W        W 4559  37.939  29.006  14.256
39575W        W 4560  31.964  41.849  13.553
39576W        W 4561  14.429   7.777  11.212
39577W        W 4562  28.815  32.732   0.514
39578W        W 4563  15.312   5.868  13.520
39579W        W 4564  16.198  43.700   1.975
39580W        W 4565  39.528   9.160   1.784
39581W        W 4566  35.107  17.214  14.963
39582W        W 4567   5.211   6.639  14.534
39583W        W 4568  25.624  36.768   2.640
39584W        W 4569   1.833   8.836   1.402
39585W        W 4570  37.457  23.539  13.951
39586W        W 4571   3.704  13.190  11.751
39587W        W 4572  13.919  32.118   4.291
39588W        W 4573  18.836  30.398  11.979
39589W        W 4574  22.802   6.718   2.187
39590W        W 4575   6.712   1.987  13.319
39591W        W 4576  28.216  25.151  14.452
39592W        W 4577   0.920   3.546   0.786
39593W        W 4578  24.381  32.476   4.492
39594W        W 4579  11.361  23.224  13.915
39595W        W 4580  33.962  41.438  14.042
39596W        W 4581  21.747  30.636  11.501
39597W        W 4582  38.827  10.370  14.394
39598W        W 4583   6.342  15.497   0.692
39599W        W 4584  29.050  39.885  11.313
39600W        W 4585  32.159   5.451   0.887
39601W        W 4586   9.182  30.875   1.783
39602W        W 4587   3.197  40.470   3.619
39603W        W 4588   8.371  10.622   0.763
39604W        W 4589  13.317  42.391  11.159
39605W        W 4590  10.714  10.357  11.641
39606W        W 4591  28.709   3.418  12.551
39607W        W 4592   4.307  28.549   4.431
39608W        W 4593  28.392  25.111  13.890
39609W        W 4594  43.045   1.138  10.505
39610W        W 4595  15.965  27.738  11.658
39611W        W 4596  34.826   5.666   5.117
39612W        W 4597  27.957  20.115   0.569
39613W        W 4598  44.108  18.154   4.105
39614W        W 4599  22.505  35.063  10.562
39615W        W 4600   9.189  32.325   2.793
39616W        W 4601  26.531   3.963   0.747
39617W        W 4602   4.540  16.839  12.085
39618W        W 4603  33.552   0.144   3.667
39619W        W 4604  14.691   2.009  13.971
39620W        W 4605  30.153  33.514  14.844
39621W        W 4606  43.674  16.337   1.817
39622W        W 4607  41.613  32.530  10.312
39623W        W 4608   2.452  24.498  14.417
39624W        W 4609  38.735  43.011  13.445
39625W        W 4610  28.683  24.030   4.552
39626W        W 4611  40.915  11.228  13.766
39627W        W 4612  35.986  15.890   0.738
39628W        W 4613  25.694   2.254   1.260
39629W        W 4614  21.506  15.743   4.701
39630W        W 4615  42.833  37.384  11.371
39631W        W 4616  20.631  22.229   3.659
39632W        W 4617   1.016   0.453   2.585
39633W        W 4618  28.609  13.345  14.932
39634W        W 4619  33.448  34.854   4.904
39635W        W 4620  35.390  30.615   1.698
39636W        W 4621  14.076  39.471   3.958
39637W        W 4622  38.549   3.919   4.056
39638W        W 4623   9.792  19.240   0.924
39639W        W 4624   1.436  33.090   2.307
39640W        W 4625   0.805  29.830   2.362
39641W        W 4626  17.834  13.903  13.564
39642W        W 4627  21.075  40.353   4.573
39643W        W 4628  34.014  42.529  11.750
39644W        W 4629  44.181  20.645  10.554
39645W        W 4630  36.984   1.224  10.661
39646W        W 4631  32.906  15.892   3.870
39647W        W 4632  32.155   5.955   0.961
39648W        W 4633  19.301  22.434  14.999
39649W        W 4634  35.208  18.792  11.743
39650W        W 4635  29.004  13.300   2.830
39651W        W 4636  42.363  32.015   4.681
39652W        W 4637  16.039  33.076   2.123
39653W        W 4638   9.409   9.198   2.729
39654W        W 4639  31.258  27.988   2.748
39655W        W 4640  21.094  13.638   4.520
39656W        W 4641  33.635  18.423  12.407
39657W        W 4642   8.906   2.228  13.909
39658W        W 4643  44.765   8.656   4.192
39659W        W 4644   0.557  28.693   0.520
39660W        W 4645   6.021  32.194   2.171
39661W        W 4646  30.314  20.207   3.255
39662W        W 4647  23.349  37.224  12.019
39663W        W 4648   8.643  20.194  12.817
39664W        W 4649  17.616   5.714  12.819
39665W        W 4650   6.641  43.365   2.892
39666W        W 4651  24.199   8.829   1.191
39667W        W 4652  30.860  39.771   3.330
39668W        W 4653  19.108  26.320  13.365
39669W        W 4654  37.337  24.008   3.125
39670W        W 4655  14.325  31.930   1.258
39671W        W 4656   4.044  14.716  12.401
39672W        W 4657  28.579  44.129   1.060
39673W        W 4658   0.515  38.054  12.603
39674W        W 4659  27.824  13.596   2.507
39675W        W 4660  40.074  32.548  11.589
39676W        W 4661  21.060  32.177   2.296
39677W        W 4662  14.824  21.479  11.678
39678W        W 4663  16.316   0.931   2.783
39679W        W 4664  10.028  39.809  11.940
39680W        W 4665  30.285  27.095   3.777
39681W        W 4666  37.347  14.285   0.978
39682W        W 4667  43.719  16.215   2.690
39683W        W 4668  19.574  36.248  11.093
39684W        W 4669  43.350   9.914  10.714
39685W        W 4670  31.964  16.411   2.630
39686W        W 4671   0.485  38.437   3.202
39687W        W 4672  32.589  11.614   2.331
39688W        W 4673  42.522   1.393   0.333
39689W        W 4674  16.394  36.649  13.982
39690W        W 4675  42.389  38.650  14.200
39691W        W 4676  10.188  11.563  14.258
39692W        W 4677  27.586   9.176   2.012
39693W        W 4678  34.498   9.551   1.063
39694W        W 4679  44.466  12.097  11.682
39695W        W 4680  31.058   2.914   1.950
39696W        W 4681   5.169  22.064   0.419
39697W        W 4682  23.852  40.729  14.179
39698W        W 4683  18.542  19.201  12.134
39699W        W 4684   8.292  16.951   2.444
39700W        W 4685   5.685  19.011  10.491
39701W        W 4686  27.987  32.338   3.297
39702W        W 4687  39.025  34.024   1.196
39703W        W 4688  28.501   9.834   1.840
39704W        W 4689  19.237   6.466   1.851
39705W        W 4690  37.585  11.642   4.464
39706W        W 4691   3.912   4.256  14.519
39707W        W 4692   2.252  32.712   3.943
39708W        W 4693  40.032  36.281  10.406
39709W        W 4694  17.311   4.656   1.526
39710W        W 4695   4.911  41.865  13.589
39711W        W 4696  27.032  19.164   1.030
39712W        W 4697  38.799   8.240   3.764
39713W        W 4698   7.650  38.917  12.928
39714W        W 4699   9.340  23.254   3.411
39715W        W 4700  23.973  41.941  11.127
39716W        W 4701  15.622  29.479  10.751
39717W        W 4702  21.673   6.185  10.851
39718W        W 4703  27.467  11.352   0.497
39719W        W 4704  28.885   2.939  10.312
39720W        W 4705  28.206   6.957   2.787
39721W        W 4706  17.970  44.053  10.784
39722W        W 4707   7.921  34.634  11.599
39723W        W 4708  15.509  20.762  12.150
39724W        W 4709  29.872  40.790   0.345
39725W        W 4710  21.537  38.882   0.867
39726W        W 4711   2.251  17.678  13.090
39727W        W 4712   7.271  29.107  11.382
39728W        W 4713  16.693  27.915  13.959
39729W        W 4714  28.230  20.963  13.384
39730W        W 4715  35.401   2.430  11.246
39731W        W 4716  35.840  13.555  10.881
39732W        W 4717  26.354  22.105  10.192
39733W        W 4718  14.521   5.742   3.327
39734W        W 4719  32.601  35.953  14.759
39735W        W 4720  33.966  10.841   4.638
39736W        W 4721  35.931  13.025   0.931
39737W        W 4722  32.630  22.689   2.568
39738W        W 4723   8.097  28.638   3.711
39739W        W 4724   1.662  24.699   3.589
39740W        W 4725  39.301  41.837   3.277
39741W        W 4726  41.200  36.077  14.472
39742W        W 4727  36.302  40.392  12.313
39743W        W 4728  15.597  39.324  14.837
39744W        W 4729  24.738  14.250   3.922
39745W        W 4730  21.673  20.684   3.037
39746W        W 4731   3.226  31.851  13.861
39747W        W 4732  10.264  43.014  14.853
39748W        W 4733  27.516  19.946   3.985
39749W        W 4734  14.973   1.822   4.477
39750W        W 4735   6.321  10.847   3.698
39751W        W 4736  34.990  26.531  10.100
39752W        W 4737  41.508  14.289   3.670
39753W        W 4738  19.255  11.925  11.836
39754W        W 4739  43.425  32.652  14.321
39755W        W 4740  27.850   0.641  12.867
39756W        W 4741  44.884  27.252   5.460
39757W        W 4742  30.585   5.425  14.474
39758W        W 4743  27.693  26.979  14.043
39759W        W 4744  14.608  37.360   3.716
39760W        W 4745   1.907  39.259   3.653
39761W        W 4746  36.906  26.224  14.692
39762W        W 4747  29.450  15.485  12.104
39763W        W 4748   1.419  25.507  11.654
39764W        W 4749  17.227  10.734  13.428
39765W        W 4750  17.262  42.826  13.498
39766W        W 4751  32.849   6.540   4.223
39767W        W 4752  43.602   9.419  12.889
39768W        W 4753  17.881  33.743   0.339
39769W        W 4754  19.508   7.422  11.092
39770W        W 4755  25.611  31.588  14.678
39771W        W 4756  16.538  38.570  13.001
39772W        W 4757  21.258  13.890   4.927
39773W        W 4758  31.497   1.444   3.649
39774W        W 4759  41.810   5.409   3.712
39775W        W 4760  27.473  24.930   3.681
39776W        W 4761  20.618  19.942   1.534
39777W        W 4762   7.921  41.979   3.608
39778W        W 4763  10.077  36.012  14.502
39779W        W 4764  26.979  39.908   3.190
39780W        W 4765   1.356  18.063  14.814
39781W        W 4766  15.792  16.614  14.226
39782W        W 4767   8.878  34.697  10.207
39783W        W 4768  35.568  39.801   1.712
39784W        W 4769  43.959  30.116   1.149
39785W        W 4770  26.957  16.065   3.500
39786W        W 4771   1.943   2.940   2.710
39787W        W 4772  16.683  38.443   2.243
39788W        W 4773  41.406  31.213   3.735
39789W        W 4774  29.629  34.415   4.977
39790W        W 4775   0.230  34.200   4.527
39791W        W 4776  23.240  22.990  13.882
39792W        W 4777   5.288  42.699  12.036
39793W        W 4778  23.893  20.966   5.059
39794W        W 4779  18.080   0.496   1.812
39795W        W 4780  17.422  35.452  13.031
39796W        W 4781  12.107  39.863   3.367
39797W        W 4782  20.688  39.776  12.120
39798W        W 4783  42.805   6.453  14.030
39799W        W 4784  21.512  14.793  14.323
39800W        W 4785  41.819  35.561   3.190
39801W        W 4786  38.464  36.815  11.595
39802W        W 4787  23.402   6.264   3.307
39803W        W 4788  35.923  41.868   2.052
39804W        W 4789  14.261   9.103   1.189
39805W        W 4790  33.475  40.360   0.325
39806W        W 4791  35.573  16.304   0.865
39807W        W 4792  29.108   9.952  13.537
39808W        W 4793   7.280  30.362  14.298
39809W        W 4794  37.424  28.976   1.047
39810W        W 4795  38.120   4.703   4.230
39811W        W 4796  37.695  27.119  11.533
39812W        W 4797  23.270  38.865  13.477
39813W        W 4798  13.738  25.159   1.469
39814W        W 4799  36.191  42.205  10.875
39815W        W 4800  13.186  14.001  13.823
39816W        W 4801   3.841   2.398   4.786
39817W        W 4802  31.412  20.793   3.689
39818W        W 4803  36.468  37.388   0.401
39819W        W 4804  24.785  23.491   3.254
39820W        W 4805  10.131   3.525   2.684
39821W        W 4806   3.365  11.651  13.035
39822W        W 4807   7.894  23.609  13.980
39823W        W 4808  21.019  30.113  11.480
39824W        W 4809  18.988  34.762  11.062
39825W        W 4810  12.907  42.413  14.746
39826W        W 4811  31.176   0.577  12.072
39827W        W 4812  11.644  34.357   2.627
39828W        W 4813   7.471  36.405   2.237
39829W        W 4814  14.656   6.768   1.775
39830W        W 4815  25.510   7.804   4.470
39831W        W 4816  41.875  19.633  14.937
39832W        W 4817   4.852  13.325   2.685
39833W        W 4818  34.193   3.245   2.216
39834W        W 4819  35.276  20.119  13.701
39835W        W 4820   0.352  23.148   3.082
39836W        W 4821  41.236  22.473  14.404
39837W        W 4822  19.177  20.956   3.661
39838W        W 4823  27.653  18.123   0.060
39839W        W 4824  38.441  25.290  10.345
39840W        W 4825   3.206   6.402  11.583
39841W        W 4826  33.184  26.947   2.103
39842W        W 4827  21.996  14.974  13.392
39843W        W 4828  22.234  39.563  13.738
39844W        W 4829  13.877   2.240   0.299
39845W        W 4830  33.224  36.550   2.221
39846W        W 4831  11.948  43.762   3.167
39847W        W 4832   9.855  34.387  13.031
39848W        W 4833  34.383  29.043  13.490
39849W        W 4834  13.277   5.730   1.613
39850W        W 4835  39.068  40.380   5.022
39851W        W 4836  27.581  37.131   2.845
39852W        W 4837  30.685  39.442   2.977
39853W        W 4838  15.047  32.795   3.274
39854W        W 4839  39.266  39.523   3.204
39855W        W 4840   1.108  29.579   2.829
39856W        W 4841   2.429  37.490  11.504
39857W        W 4842   2.925  32.623   0.454
39858W        W 4843   9.783  14.215  13.119
39859W        W 4844  22.871   5.867   2.110
39860W        W 4845  25.026  21.680   4.089
39861W        W 4846  43.519  25.229  11.088
39862W        W 4847   5.720  29.093  14.037
39863W        W 4848  30.110  11.270   1.635
39864W        W 4849  17.289   0.949  11.092
39865W        W 4850  22.143  42.559  11.068
39866W        W 4851  26.451   2.343  13.804
39867W        W 4852  17.148  24.728  11.670
39868W        W 4853  10.765  24.724   4.057
39869W        W 4854  42.845   7.876  12.465
39870W        W 4855  16.622  26.521  10.240
39871W        W 4856  27.467  37.348  13.939
39872W        W 4857  17.840   7.212  12.509
39873W        W 4858  42.028  13.856  14.753
39874W        W 4859  36.782  36.956  14.624
39875W        W 4860  37.375  28.633   0.304
39876W        W 4861  24.740  11.119   1.245
39877W        W 4862  43.278  20.576   9.873
39878W        W 4863  20.611  28.704  12.508
39879W        W 4864  44.840  10.939  13.390
39880W        W 4865  20.144  29.705  13.433
39881W        W 4866  15.279  35.807   3.286
39882W        W 4867   3.283  41.866  13.704
39883W        W 4868   7.436  13.308   1.337
39884W        W 4869   4.513   6.796  11.185
39885W        W 4870  19.020  26.474  12.441
39886W        W 4871  22.816   9.827   3.778
39887W        W 4872   1.549  28.441   4.861
39888W        W 4873  10.835  39.347  11.001
39889W        W 4874  31.672  27.672  13.001
39890W        W 4875   1.989   3.190  10.653
39891W        W 4876   3.716  29.007   0.172
39892W        W 4877  33.886  27.586  11.973
39893W        W 4878  17.753  31.202  10.437
39894W        W 4879  17.165  43.403   1.687
39895W        W 4880  23.090   1.314   3.638
39896W        W 4881   8.095  18.623   0.453
39897W        W 4882  40.293  12.147  14.336
39898W        W 4883  31.850  40.146   0.280
39899W        W 4884  28.710  40.746   4.555
39900W        W 4885  22.968   3.654   4.667
39901W        W 4886  30.880  26.357  14.849
39902W        W 4887  30.722  15.913  14.325
39903W        W 4888  39.830  28.491  10.764
39904W        W 4889   3.973  39.421   1.048
39905W        W 4890  23.123  19.258  14.382
39906W        W 4891  37.609   2.046   2.440
39907W        W 4892  16.398   0.916   3.682
39908W        W 4893   8.774  24.507   3.612
39909W        W 4894  18.348   8.862  10.777
39910W        W 4895  10.136   7.868  14.869
39911W        W 4896   4.784  26.040   4.619
39912W        W 4897  41.769  32.476  14.080
39913W        W 4898  44.269   9.654   1.865
39914W        W 4899   5.523  28.706   0.396
39915W        W 4900  31.985  15.341   0.790
39916W        W 4901  36.494  22.463   4.538
39917W        W 4902  20.181  18.061   9.981
39918W        W 4903  21.442  31.389   0.129
39919W        W 4904   3.348  29.896   2.538
39920W        W 4905  40.441  10.122  11.476
39921W        W 4906  19.777  32.057  13.640
39922W        W 4907   7.467   4.549  14.533
39923W        W 4908   4.832  11.477  14.055
39924W        W 4909  41.075  28.560  14.436
39925W        W 4910   2.051  23.094  13.343
39926W        W 4911  38.314   6.534  11.268
39927W        W 4912  37.763  26.118  10.202
39928W        W 4913  35.109  19.223   2.017
39929W        W 4914  33.478   7.171   1.415
39930W        W 4915  10.856  12.705  11.536
39931W        W 4916  19.630  30.576  11.002
39932W        W 4917  10.766  21.044   2.220
39933W        W 4918  29.583  36.948  11.887
39934W        W 4919  34.894  37.303   0.213
39935W        W 4920  30.952  18.206   3.789
39936W        W 4921   3.478   4.294   1.232
39937W        W 4922   9.661   1.263   2.949
39938W        W 4923  37.879   2.097   1.966
39939W        W 4924   7.837  23.373   4.399
39940W        W 4925  24.709  37.593   3.773
39941W        W 4926  26.405  24.162   3.964
39942W        W 4927  44.115  36.053  11.234
39943W        W 4928  13.197   7.370   1.726
39944W        W 4929  35.672  23.461  14.387
39945W        W 4930  13.371  31.567  12.851
39946W        W 4931  40.143  30.497  13.916
39947W        W 4932   5.415  38.986   3.186
39948W        W 4933  17.813  40.466   2.140
39949W        W 4934  14.297  44.902  12.631
39950W        W 4935  30.459  10.709  11.543
39951W        W 4936   2.397  28.855  13.578
39952W        W 4937  12.760  23.079   1.576
39953W        W 4938  25.941  42.333   2.900
39954W        W 4939  14.373   1.484   1.666
39955W        W 4940  27.416  33.390  14.471
39956W        W 4941  12.414  21.764   1.698
39957W        W 4942  24.125  27.226   0.768
39958W        W 4943  20.661   4.444  11.356
39959W        W 4944  12.199  37.254   1.229
39960W        W 4945  14.809  39.305  11.023
39961W        W 4946  19.551  22.588   0.906
39962W        W 4947  40.514  13.676  14.956
39963W        W 4948  31.586  33.264   2.885
39964W        W 4949  20.736  44.952   4.047
39965W        W 4950  42.717  24.398   4.097
39966W        W 4951  12.770  29.893   1.718
39967W        W 4952  15.001   9.283  10.634
39968W        W 4953  22.901  41.348  11.657
39969W        W 4954  26.674   5.788   1.630
39970W        W 4955  44.284  12.066  14.377
39971W        W 4956  17.714  10.856   1.919
39972W        W 4957  17.694   9.896   9.977
39973W        W 4958  41.340  28.586  14.907
39974W        W 4959  27.347   2.370   9.735
39975W        W 4960  29.612  32.791  12.009
39976W        W 4961  21.485  11.625   3.739
39977W        W 4962  24.470  39.523  13.785
39978W        W 4963  23.962  17.516  14.706
39979W        W 4964  18.271  39.148  11.802
39980W        W 4965  17.596  17.664   3.555
39981W        W 4966   8.550  15.996  11.002
39982W        W 4967  26.043  11.277   4.240
39983W        W 4968  15.540  42.603  14.421
39984W        W 4969  42.031   6.686   1.763
39985W        W 4970  37.768  24.430  11.400
39986W        W 4971   2.806   6.696   3.847
39987W        W 4972   0.338   5.420   2.242
39988W        W 4973  24.681   4.438  14.045
39989W        W 4974  39.268  14.970   3.939
39990W        W 4975  20.213  17.231  10.671
39991W        W 4976  40.515  42.055   2.105
39992W        W 4977  44.155   5.203   0.891
39993W        W 4978  13.393  36.335   1.789
39994W        W 4979   7.098   6.659  14.701
39995W        W 4980  35.873  20.813   0.828
39996W        W 4981  21.668  24.781  12.891
39997W        W 4982  18.208   8.834  14.710
39998W        W 4983  26.397  26.325  14.972
39999W        W 4984  34.767  10.290  12.430
40000W        W 4985  15.641  15.324   0.162
40001W        W 4986  12.738  16.991   0.419
40002W        W 4987  28.033   4.890   3.562
40003W        W 4988  31.378  35.449   1.888
40004W        W 4989  38.437  30.326   3.371
40005W        W 4990  15.154  17.313  13.026
40006W        W 4991  36.001   2.292  10.672
40007W        W 4992  41.895  12.758  13.452
40008W        W 4993  38.338  31.837   3.345
40009W        W 4994   6.132  25.571  12.937
40010W        W 4995  19.828  41.679  10.893
40011W        W 4996  13.572  22.174  13.243
40012W        W 4997   3.977  11.929  14.853
40013W        W 4998   9.180  13.653  12.896
40014W        W 4999  16.616   6.904  11.233
40015W        W 5000  10.798  14.668  12.353
40016W        W 5001   0.545  29.629   1.919
40017W        W 5002  31.087  16.279   4.275
40018W        W 5003  22.884   3.938   5.090
40019W        W 5004   8.790  32.526   1.420
40020W        W 5005  30.446  43.625  11.133
40021W        W 5006  16.235  15.591  14.757
40022W        W 5007  17.738  12.148  12.764
40023W        W 5008  23.253  10.245  12.489
40024W        W 5009  26.932  38.056   1.935
40025W        W 5010  42.889  19.610   5.200
40026W        W 5011   8.292  12.315   1.701
40027W        W 5012   0.689  19.173  14.477
40028W        W 5013  17.265  19.156   1.677
40029W        W 5014  11.576  15.773  11.797
40030W        W 5015   8.919   2.800  12.538
40031W        W 5016  12.687  33.154   4.860
40032W        W 5017  32.171   8.880  14.889
40033W        W 5018  35.661  34.077   0.234
40034W        W 5019  36.855  28.045   0.230
40035W        W 5020  29.698   9.045   1.740
40036W        W 5021  19.854  17.659   0.365
40037W        W 5022  22.340  21.921   1.351
40038W        W 5023  41.043  20.051  14.536
40039W        W 5024  35.096  12.688  11.517
40040W        W 5025   9.362  18.712   1.387
40041W        W 5026  27.977  22.605   2.743
40042W        W 5027   0.334  15.578  14.834
40043W        W 5028  31.266  14.729  12.744
40044W        W 5029   7.659   6.410   3.493
40045W        W 5030   7.602  16.152  11.141
40046W        W 5031  11.347  30.104   4.037
40047W        W 5032  22.083  19.617   0.783
40048W        W 5033  25.773  28.636  10.651
40049W        W 5034  24.700  10.477  10.370
40050W        W 5035  10.834  25.094   1.229
40051W        W 5036  26.754  16.587   3.127
40052W        W 5037  15.968   3.355   1.928
40053W        W 5038  17.801  35.050   3.686
40054W        W 5039  13.813   2.253   1.291
40055W        W 5040   7.631  38.033  12.477
40056W        W 5041   0.938  11.945  11.513
40057W        W 5042  43.506  27.441  12.856
40058W        W 5043  33.523  33.646  11.874
40059W        W 5044  36.443  37.810   0.700
40060W        W 5045  37.660  24.812   4.616
40061W        W 5046  20.763  35.306  12.446
40062W        W 5047  26.770  30.888   3.788
40063W        W 5048  29.160  15.086   3.503
40064W        W 5049  22.259  43.492   2.399
40065W        W 5050   9.367  34.557  13.006
40066W        W 5051  40.294  42.838   0.360
40067W        W 5052   3.415  12.373  14.276
40068W        W 5053   4.620  35.587  12.954
40069W        W 5054  40.328   9.953   9.928
40070W        W 5055  20.650   9.323  11.880
40071W        W 5056  12.964  13.356   0.949
40072W        W 5057   5.922  21.662  13.785
40073W        W 5058  18.216  14.339   1.025
40074W        W 5059   3.151   5.788   4.655
40075W        W 5060   4.849  23.105   0.739
40076W        W 5061   6.404  11.832   2.289
40077W        W 5062  25.909  16.315   0.377
40078W        W 5063   2.969  36.175  14.788
40079W        W 5064  15.962   5.965  12.566
40080W        W 5065  27.550   1.227   3.156
40081W        W 5066  29.962  13.795   2.764
40082W        W 5067   9.243  21.505   3.594
40083W        W 5068   3.143  15.245   2.678
40084W        W 5069  11.184   8.188   0.699
40085W        W 5070   3.733  34.660  12.303
40086W        W 5071  22.162  21.379   4.507
40087W        W 5072  22.065  42.495  12.723
40088W        W 5073  36.071  21.052   0.398
40089W        W 5074  44.434  38.497   1.256
40090W        W 5075  42.176   0.268   0.775
40091W        W 5076   1.568  26.647  14.045
40092W        W 5077  41.422  16.291  12.102
40093W        W 5078  21.128  42.502   0.373
40094W        W 5079  41.491  29.030   1.677
40095W        W 5080  34.478  19.978   2.188
40096W        W 5081   1.720  19.216   0.288
40097W        W 5082  21.246  18.234  10.985
40098W        W 5083  23.324  40.770  13.945
40099W        W 5084  13.548  38.007   2.130
40100W        W 5085  18.764   9.169   0.424
40101W        W 5086   1.335   2.664  14.774
40102W        W 5087   8.198  16.296   3.985
40103W        W 5088  34.020  10.652   4.164
40104W        W 5089   6.692   6.005  12.991
40105W        W 5090  29.867  22.411   2.763
40106W        W 5091  23.255  32.051  12.709
40107W        W 5092  18.293  27.063   3.665
40108W        W 5093  26.180  36.017  10.719
40109W        W 5094   9.349  34.880   3.681
40110W        W 5095  18.963  38.023   4.064
40111W        W 5096  16.656  41.944   4.594
40112W        W 5097  41.840  44.349  11.471
40113W        W 5098  25.658  41.964  13.860
40114W        W 5099   6.786  14.016   1.236
40115W        W 5100  13.680  36.477   0.500
40116W        W 5101   4.967   1.230  13.104
40117W        W 5102  14.114   3.743   2.217
40118W        W 5103  35.594   3.440  14.906
40119W        W 5104   7.407   1.149   3.750
40120W        W 5105   6.159  15.062  13.797
40121W        W 5106  25.482   7.846  13.093
40122W        W 5107  12.012   0.806   4.486
40123W        W 5108   4.605  15.627  10.111
40124W        W 5109  10.809   9.843   1.955
40125W        W 5110  30.333  38.430  12.586
40126W        W 5111   0.405  35.602   0.742
40127W        W 5112  29.543  13.555   4.564
40128W        W 5113  38.296  20.068  13.966
40129W        W 5114  35.772  33.566   0.888
40130W        W 5115  16.490   2.010   0.817
40131W        W 5116  41.918  31.004   4.533
40132W        W 5117  13.116  16.303   2.803
40133W        W 5118  21.263  31.205  12.005
40134W        W 5119   6.307  39.076   4.593
40135W        W 5120  24.595  11.842   2.868
40136W        W 5121  39.105  13.371  11.656
40137W        W 5122  30.881  31.842   1.914
40138W        W 5123  38.392  30.623  14.000
40139W        W 5124  30.594   3.579   2.338
40140W        W 5125  16.340  38.427  14.297
40141W        W 5126  40.276  30.096   2.609
40142W        W 5127   9.916  27.318   4.154
40143W        W 5128  10.844  12.415  12.502
40144W        W 5129  20.625  18.004   2.735
40145W        W 5130  33.571  28.424   3.233
40146W        W 5131  19.123  29.967   3.691
40147W        W 5132  37.670  25.355   3.158
40148W        W 5133  13.762  41.904   0.433
40149W        W 5134  32.916  42.459   3.721
40150W        W 5135   9.991  37.127  12.045
40151W        W 5136  37.405  21.996   1.816
40152W        W 5137  25.732  27.191  13.542
40153W        W 5138   5.301  40.386  14.539
40154W        W 5139   0.540   6.862  11.249
40155W        W 5140  33.265  12.596  14.958
40156W        W 5141  39.510  17.192   0.981
40157W        W 5142   2.137  38.667   4.574
40158W        W 5143  43.756  24.660   0.151
40159W        W 5144   8.215   9.227  11.574
40160W        W 5145   0.130  30.769  13.587
40161W        W 5146   2.903  33.870   3.138
40162W        W 5147   2.484  10.655  13.045
40163W        W 5148  28.030   2.189   3.151
40164W        W 5149  20.528   1.612  13.420
40165W        W 5150   5.736  44.970  14.945
40166W        W 5151  18.073  33.309   0.527
40167W        W 5152   6.581  33.170  11.060
40168W        W 5153  34.616  17.122  13.405
40169W        W 5154  32.818  24.431  12.549
40170W        W 5155  31.855  40.859   4.358
40171W        W 5156  42.322  32.634   2.239
40172W        W 5157  30.582  16.837   0.676
40173W        W 5158  20.398   8.171  10.231
40174W        W 5159  28.794   6.952   0.171
40175W        W 5160  37.022  11.970   3.671
40176W        W 5161  16.197  22.777  12.881
40177W        W 5162  17.104  28.543   0.869
40178W        W 5163  28.653  21.256  13.521
40179W        W 5164  24.490   9.138  14.990
40180W        W 5165  30.431  23.718   0.346
40181W        W 5166  20.540   3.424   0.716
40182W        W 5167   9.806  19.552   2.282
40183W        W 5168   7.365  10.348   1.844
40184W        W 5169  42.448   4.886   2.795
40185W        W 5170  22.702  19.672  14.966
40186W        W 5171  32.457  38.978   1.805
40187W        W 5172  40.101  37.972  11.775
40188W        W 5173  26.238   2.779   1.930
40189W        W 5174  23.927  14.939   3.183
40190W        W 5175  41.253   9.689   4.141
40191W        W 5176  35.784  24.311   0.685
40192W        W 5177  17.547   8.543   2.782
40193W        W 5178  32.049  43.276  13.756
40194W        W 5179   2.971  19.482  14.496
40195W        W 5180  42.959  28.898  14.334
40196W        W 5181  10.698  11.146  14.926
40197W        W 5182  22.178  27.038  11.607
40198W        W 5183   9.001   9.362  12.389
40199W        W 5184  28.041  11.174   0.290
40200W        W 5185  37.079  13.857   0.012
40201W        W 5186  25.694  32.620   4.694
40202W        W 5187  32.943  16.320   0.808
40203W        W 5188  26.230  27.482   2.839
40204W        W 5189  12.203   0.035  14.924
40205W        W 5190  39.846  24.529  14.088
40206W        W 5191  11.230  11.094   0.291
40207W        W 5192  15.311  38.949  11.487
40208W        W 5193  13.246  23.580   1.756
40209W        W 5194  18.217  10.208   2.246
40210W        W 5195  34.046  31.861   4.991
40211W        W 5196   9.584  20.068  12.963
40212W        W 5197  12.719  31.151   4.518
40213W        W 5198  34.919  40.429  13.857
40214W        W 5199  44.793   9.731   0.464
40215W        W 5200  31.868  13.218   3.730
40216W        W 5201  24.276  36.806  12.906
40217W        W 5202  24.089  43.883   4.365
40218W        W 5203  38.454  30.013  10.795
40219W        W 5204   7.798  43.037   0.478
40220W        W 5205  40.577   2.331   4.644
40221W        W 5206   2.976  16.875  11.021
40222W        W 5207   5.353   4.731   3.620
40223W        W 5208  14.544  43.236   3.843
40224W        W 5209  24.593  11.409   1.676
40225W        W 5210  37.536   9.458   9.770
40226W        W 5211  33.804  28.151   0.764
40227W        W 5212  17.411  28.780   3.890
40228W        W 5213  35.336  39.928   2.174
40229W        W 5214  17.129   3.477   2.891
40230W        W 5215  27.482  39.318   1.054
40231W        W 5216  12.285  16.733   1.205
40232W        W 5217  40.012   3.285  12.944
40233W        W 5218  21.644  34.624  12.845
40234W        W 5219  18.689  25.356   4.882
40235W        W 5220  39.231  42.411  13.062
40236W        W 5221   4.239  43.960  10.713
40237W        W 5222  16.500  12.160  12.638
40238W        W 5223   5.925   3.831  13.540
40239W        W 5224   5.845  42.769  13.552
40240W        W 5225   9.248  14.626   3.800
40241W        W 5226  20.680  21.817   3.334
40242W        W 5227   7.979  23.274  11.981
40243W        W 5228  36.546  44.437  13.516
40244W        W 5229   6.952  20.014   0.436
40245W        W 5230  22.030  12.051   0.737
40246W        W 5231  18.048  27.625   3.696
40247W        W 5232  30.248   1.933  10.330
40248W        W 5233  27.197   4.787   1.529
40249W        W 5234  42.521  16.703  11.807
40250W        W 5235   3.189   7.564   5.203
40251W        W 5236   4.397  39.350   2.361
40252W        W 5237   5.466  38.974  13.658
40253W        W 5238  42.999  38.054   2.674
40254W        W 5239  36.976  25.188  11.452
40255W        W 5240   0.992  22.089   1.957
40256W        W 5241  18.626  42.200  11.216
40257W        W 5242  16.094  28.009  14.757
40258W        W 5243   5.514   4.761   5.421
40259W        W 5244  31.560  13.179  10.981
40260W        W 5245  36.594  21.102  12.891
40261W        W 5246  39.809  37.558   3.110
40262W        W 5247  15.746  20.616   0.859
40263W        W 5248  31.826  41.840  10.761
40264W        W 5249  26.493  31.058   4.188
40265W        W 5250  33.251  16.036  12.728
40266W        W 5251  11.290   0.849   4.481
40267W        W 5252   0.889  29.800   3.242
40268W        W 5253  29.574   8.943   3.153
40269W        W 5254  24.544  12.328   4.382
40270W        W 5255  27.228  35.954  13.820
40271W        W 5256  40.291  15.225  14.997
40272W        W 5257  32.656  36.701   4.179
40273W        W 5258  17.870  10.782   2.890
40274W        W 5259  21.442   0.349  10.783
40275W        W 5260  34.894  31.919   2.263
40276W        W 5261  31.534  41.375  10.671
40277W        W 5262  20.841  11.752  12.814
40278W        W 5263  41.256  33.413  10.494
40279W        W 5264   2.665  10.505   3.200
40280W        W 5265  40.778  19.099   1.403
40281W        W 5266  14.033   5.551  14.753
40282W        W 5267  15.830   1.527  12.511
40283W        W 5268   2.663  26.462   2.710
40284W        W 5269  27.378  22.515   0.268
40285W        W 5270  36.004   5.358   0.739
40286W        W 5271  10.568  32.821   3.713
40287W        W 5272  27.106  39.919   4.132
40288W        W 5273  10.102  15.672   3.173
40289W        W 5274   1.915  44.373   1.652
40290W        W 5275   8.124  11.263   4.678
40291W        W 5276   4.859  41.871  11.708
40292W        W 5277  34.862   6.226  14.951
40293W        W 5278   6.481  22.189   0.804
40294W        W 5279  27.628  38.534   4.395
40295W        W 5280   9.355  31.254  14.824
40296W        W 5281  13.126  35.928   0.905
40297W        W 5282  13.380  37.120  13.316
40298W        W 5283  43.791  16.198   4.528
40299W        W 5284  33.627  16.537   0.923
40300W        W 5285  33.665   6.647  12.535
40301W        W 5286  36.417  42.316   3.249
40302W        W 5287   9.570   0.331   1.668
40303W        W 5288   7.282  18.561  13.395
40304W        W 5289   2.488   1.209   0.461
40305W        W 5290  32.622  34.294   3.075
40306W        W 5291  30.395  24.530   1.334
40307W        W 5292   8.264  29.870   0.491
40308W        W 5293  10.398  15.112   1.971
40309W        W 5294   2.901  25.417   1.693
40310W        W 5295   0.583  13.723   1.802
40311W        W 5296  35.393  10.148   3.543
40312W        W 5297  23.210   5.564   0.840
40313W        W 5298   9.113  34.574  11.014
40314W        W 5299  18.490  22.744  12.552
40315W        W 5300  43.723  26.490  12.018
40316W        W 5301  33.551   0.786  13.908
40317W        W 5302   5.207  38.958   4.338
40318W        W 5303  21.262  16.241   3.572
40319W        W 5304  11.745  42.219  11.517
40320W        W 5305  37.079  26.701  13.970
40321W        W 5306   9.636  29.509   4.978
40322W        W 5307  14.574  29.148  12.579
40323W        W 5308  43.117  33.960   0.754
40324W        W 5309  21.931  36.036   2.865
40325W        W 5310   6.374  14.421  12.063
40326W        W 5311  41.988  42.484   3.899
40327W        W 5312  11.104  11.255   1.752
40328W        W 5313   1.308  21.216   4.947
40329W        W 5314  10.644   1.925  11.604
40330W        W 5315  30.461  36.276   3.694
40331W        W 5316  34.700  13.958   4.407
40332W        W 5317   4.319  23.060   4.184
40333W        W 5318  36.291   9.308  14.950
40334W        W 5319  31.972  33.402  10.738
40335W        W 5320   9.081  12.545   2.647
40336W        W 5321  44.466  16.820   3.647
40337W        W 5322  19.753  10.272   1.629
40338W        W 5323  35.925  25.641   3.298
40339W        W 5324  31.956  35.618  14.934
40340W        W 5325  34.521  43.286   3.962
40341W        W 5326   0.536  26.041  12.233
40342W        W 5327   6.640  32.091  14.198
40343W        W 5328  25.909   1.970  13.545
40344W        W 5329  36.075  27.631  14.293
40345W        W 5330  11.689  18.286   4.283
40346W        W 5331  15.400  26.125   3.600
40347W        W 5332   5.356  10.755   3.295
40348W        W 5333  23.103  11.215  14.150
40349W        W 5334  21.240  29.641   0.613
40350W        W 5335   2.364  30.050   1.915
40351W        W 5336  43.242  32.042   4.895
40352W        W 5337  36.419  42.057  14.847
40353W        W 5338   7.183  22.375  14.631
40354W        W 5339  15.321  16.142  13.862
40355W        W 5340  39.819  23.722  10.697
40356W        W 5341  10.037  20.449   1.362
40357W        W 5342  16.323  19.535  11.050
40358W        W 5343  31.696  34.133   2.826
40359W        W 5344  26.111  15.547  10.192
40360W        W 5345  29.617  38.605   3.179
40361W        W 5346  26.625  10.117  14.362
40362W        W 5347  26.140  29.867  14.965
40363W        W 5348  18.386   6.567   5.179
40364W        W 5349  21.517   0.807   2.612
40365W        W 5350   7.582  25.534   0.215
40366W        W 5351  30.872  14.203   3.294
40367W        W 5352  12.557  14.284   0.996
40368W        W 5353   1.806  11.201   2.591
40369W        W 5354  19.202  37.979  14.417
40370W        W 5355  10.930  28.581  11.143
40371W        W 5356  35.434  30.348  11.574
40372W        W 5357   6.807  32.570  12.478
40373W        W 5358  43.120   7.571   1.491
40374W        W 5359  36.813  18.642  14.358
40375W        W 5360  37.278  32.310  11.162
40376W        W 5361  36.371  28.978  10.715
40377W        W 5362  13.840  13.710   4.847
40378W        W 5363   1.772   5.932  13.896
40379W        W 5364   8.199  12.255   2.208
40380W        W 5365  32.080  42.551   2.380
40381W        W 5366  36.860  41.537  10.761
40382W        W 5367  43.972  29.934   0.641
40383W        W 5368  20.584   7.915   4.259
40384W        W 5369  11.240  33.636   2.829
40385W        W 5370  29.802   2.880  12.819
40386W        W 5371  25.431  27.594  11.519
40387W        W 5372  43.885  31.975   0.486
40388W        W 5373  42.349   3.288  11.205
40389W        W 5374  36.955  17.983   4.715
40390W        W 5375   3.729  12.121   3.136
40391W        W 5376  33.730  20.107   1.297
40392W        W 5377  20.944  40.625   1.900
40393W        W 5378   2.306  20.755  11.600
40394W        W 5379  27.124  14.291   3.757
40395W        W 5380  34.564  20.223   0.961
40396W        W 5381  17.952  36.906  10.921
40397W        W 5382  17.568  34.669   0.099
40398W        W 5383  24.448  28.657   2.226
40399W        W 5384  28.078   9.644  13.922
40400W        W 5385   6.911   4.435   2.624
40401W        W 5386   6.775  31.150   1.348
40402W        W 5387  42.473  29.961   0.350
40403W        W 5388  17.640   3.649   2.643
40404W        W 5389  42.226  43.932   1.931
40405W        W 5390  10.332   0.230  11.820
40406W        W 5391  42.123  14.251   4.558
40407W        W 5392   1.220  13.102   2.342
40408W        W 5393  27.081  10.755   4.611
40409W        W 5394  29.215  31.731  14.040
40410W        W 5395   9.320  33.760   3.842
40411W        W 5396  14.609  31.426   1.881
40412W        W 5397  20.191  41.970   0.296
40413W        W 5398  28.507  34.602   3.161
40414W        W 5399   2.874  27.972  11.630
40415W        W 5400  15.377  35.910  11.280
40416W        W 5401  39.892  18.343  13.804
40417W        W 5402  38.317  18.037  12.481
40418W        W 5403  37.542   0.974  13.091
40419W        W 5404  13.155  37.840   4.297
40420W        W 5405  19.292  13.148  11.014
40421W        W 5406   0.863  44.857   3.290
40422W        W 5407  18.148  29.235   1.871
40423W        W 5408  11.739  34.309  12.075
40424W        W 5409  21.452  34.115  10.642
40425W        W 5410  33.964   8.716   3.697
40426W        W 5411   3.082  27.936   4.601
40427W        W 5412  38.724  14.060   2.242
40428W        W 5413   1.454  38.312  14.681
40429W        W 5414  34.789  44.894   4.364
40430W        W 5415  10.678  17.755  12.047
40431W        W 5416  24.910  38.554  13.171
40432W        W 5417  30.642  42.885   0.882
40433W        W 5418   7.867   3.799   0.939
40434W        W 5419  11.268   4.252  13.214
40435W        W 5420  25.147  40.451   4.545
40436W        W 5421   2.110   5.864  11.196
40437W        W 5422  13.391  16.267   4.479
40438W        W 5423  19.498  25.580  14.752
40439W        W 5424   8.590   0.055  13.811
40440W        W 5425  25.915  31.614   2.900
40441W        W 5426  30.959  18.081  12.462
40442W        W 5427   7.125  37.052  10.631
40443W        W 5428  21.112   2.187   2.755
40444W        W 5429  32.569   5.261  13.810
40445W        W 5430  44.975   1.190  13.881
40446W        W 5431  16.320  12.957  13.986
40447W        W 5432  22.101  24.310   5.010
40448W        W 5433  39.386  38.361   2.664
40449W        W 5434  21.953  28.067   3.404
40450W        W 5435   9.725  39.887  11.223
40451W        W 5436  27.373   4.132  14.753
40452W        W 5437  44.790  25.218   3.945
40453W        W 5438  20.431  23.713   4.086
40454W        W 5439  13.694  44.969   1.377
40455W        W 5440   1.070  29.319   3.287
40456W        W 5441  14.134  35.009  13.979
40457W        W 5442  42.988  40.248  12.365
40458W        W 5443  20.255  28.723  13.389
40459W        W 5444  32.985  41.393   2.214
40460W        W 5445   8.855  42.511  14.438
40461W        W 5446  20.130  12.698   4.374
40462W        W 5447   7.175   6.265  12.074
40463W        W 5448  24.211   5.827  10.273
40464W        W 5449  19.086  21.990  12.381
40465W        W 5450   0.673  22.823   3.332
40466W        W 5451  31.845   7.107  10.766
40467W        W 5452  26.399   1.663   3.862
40468W        W 5453  15.928  33.453  13.112
40469W        W 5454  31.016   8.626  14.104
40470W        W 5455  41.910  24.623   3.694
40471W        W 5456  15.803  36.698  11.121
40472W        W 5457  38.112   4.958   3.423
40473W        W 5458   5.312   9.404  12.631
40474W        W 5459  13.901  37.534  11.185
40475W        W 5460  22.975   8.824  14.395
40476W        W 5461  24.476  36.601   3.873
40477W        W 5462  35.821   3.857  14.597
40478W        W 5463  32.004  18.644  12.042
40479W        W 5464   1.938  37.952  14.756
40480W        W 5465  34.509   7.979  11.982
40481W        W 5466  11.331   6.705   1.789
40482W        W 5467  30.567  38.448  14.986
40483W        W 5468  29.815   7.223  11.034
40484W        W 5469  17.980   9.052  12.475
40485W        W 5470  35.597  43.789  14.784
40486W        W 5471   0.848  13.864   3.675
40487W        W 5472  27.032   6.957   3.695
40488W        W 5473  23.966  41.586   0.290
40489W        W 5474  27.200  13.536   4.858
40490W        W 5475   9.975  15.202  14.369
40491W        W 5476  23.254  21.993   1.422
40492W        W 5477  37.320  10.745  13.986
40493W        W 5478  35.923   3.728  12.888
40494W        W 5479  32.589   6.942   0.140
40495W        W 5480   2.984  41.408   4.240
40496W        W 5481   3.378  33.096   2.669
40497W        W 5482  18.306   1.880   0.514
40498W        W 5483  36.352  15.636   0.476
40499W        W 5484  28.249  27.821  13.637
40500W        W 5485  40.360  25.732   3.037
40501W        W 5486  30.788  18.331   1.789
40502W        W 5487   5.414  12.262  12.149
40503W        W 5488  31.278  27.764   4.055
40504W        W 5489  25.189  15.468  12.474
40505W        W 5490  24.118  17.176  11.123
40506W        W 5491  42.973   7.458  11.522
40507W        W 5492  12.743   2.723   4.501
40508W        W 5493   1.671  12.112  12.840
40509W        W 5494   6.717   4.098  13.947
40510W        W 5495   4.965  24.088  13.845
40511W        W 5496  29.072  10.438  12.748
40512W        W 5497  18.145  22.491  12.869
40513W        W 5498   8.368  36.000  11.165
40514W        W 5499  23.100  21.449  11.108
40515W        W 5500   0.966  39.037   2.173
40516W        W 5501  36.617  33.361  12.928
40517W        W 5502  18.647  18.316   3.588
40518W        W 5503   6.330  39.847   1.444
40519W        W 5504  20.085  17.537  12.937
40520W        W 5505  16.324  27.095  12.498
40521W        W 5506   9.114  19.573   4.913
40522W        W 5507  36.523  25.697  14.964
40523W        W 5508  12.361  36.988   4.643
40524W        W 5509  26.488  18.700   1.697
40525W        W 5510  29.184  32.109   4.196
40526W        W 5511  17.715  33.376   1.296
40527W        W 5512   7.197  14.887  14.843
40528W        W 5513  30.306   4.662  14.261
40529W        W 5514  39.040  37.472   4.055
40530W        W 5515   9.410  21.234  10.965
40531W        W 5516   6.836  42.384  12.838
40532W        W 5517  44.239  17.208   2.488
40533W        W 5518   8.194  33.304  14.923
40534W        W 5519  42.375  38.997   9.713
40535W        W 5520  34.328  30.891  12.216
40536W        W 5521   1.923  43.611  14.439
40537W        W 5522  32.814  32.226   0.771
40538W        W 5523  19.669  40.102  13.977
40539W        W 5524   4.203  17.217  12.576
40540W        W 5525  42.939   1.425   0.639
40541W        W 5526   5.187  26.500  12.949
40542W        W 5527  33.025  41.430  14.508
40543W        W 5528  35.702  42.300   1.856
40544W        W 5529   5.661   4.642   4.422
40545W        W 5530  16.286  39.143  12.044
40546W        W 5531   5.978  16.391  14.834
40547W        W 5532  44.881  40.896   1.184
40548W        W 5533  42.091   7.237   2.224
40549W        W 5534   9.971  29.592   2.466
40550W        W 5535  28.647  11.425  11.740
40551W        W 5536   3.909  18.506   0.494
40552W        W 5537  17.540  18.634   4.480
40553W        W 5538  33.757  26.577   2.644
40554W        W 5539  24.670  38.064  13.948
40555W        W 5540  33.057  40.980  10.595
40556W        W 5541  23.393  23.678  14.977
40557W        W 5542  24.036  10.833  12.185
40558W        W 5543   4.204  44.848   1.679
40559W        W 5544  30.035  37.906  11.991
40560W        W 5545  23.693  30.201   3.130
40561W        W 5546  29.143  21.443  13.583
40562W        W 5547  44.612  38.359  12.227
40563W        W 5548  31.365  33.460   0.743
40564W        W 5549   0.516  13.254   2.864
40565W        W 5550  20.593  11.299  13.816
40566W        W 5551  38.470  27.528  11.141
40567W        W 5552  35.091  38.365  13.566
40568W        W 5553  13.626  32.330   3.132
40569W        W 5554  10.909  20.742  14.347
40570W        W 5555  44.388  33.131   2.025
40571W        W 5556  24.734  21.510   4.950
40572W        W 5557  18.658   7.901  14.943
40573W        W 5558  27.305  24.153  14.797
40574W        W 5559  35.095   9.829   1.435
40575W        W 5560   3.943  33.121   4.393
40576W        W 5561  38.753   6.213   1.427
40577W        W 5562  43.058  28.670  11.144
40578W        W 5563  11.224   5.300  14.502
40579W        W 5564  13.145   4.920   3.987
40580W        W 5565  24.112  28.893   3.881
40581W        W 5566   0.794   6.181   3.660
40582W        W 5567  23.700  22.327   1.337
40583W        W 5568  37.340  24.986   3.315
40584W        W 5569  12.330  39.374   2.296
40585W        W 5570  44.195  33.996   3.193
40586W        W 5571   3.846  18.556   1.296
40587W        W 5572   6.901  42.552  14.826
40588W        W 5573  36.002  23.423   1.226
40589W        W 5574  22.255  21.570  13.060
40590W        W 5575   5.301  36.057  14.336
40591W        W 5576  18.300  10.774  10.856
40592W        W 5577  39.514  24.466   2.941
40593W        W 5578  36.376  35.959  11.607
40594W        W 5579  30.427  16.658  12.527
40595W        W 5580   2.877  19.471   1.936
40596W        W 5581  44.389  21.206   3.591
40597W        W 5582  18.201   0.892   4.531
40598W        W 5583  12.684   3.432  14.460
40599W        W 5584  35.635  42.893   2.714
40600W        W 5585   0.480  26.076   2.847
40601W        W 5586  22.926  36.559  11.031
40602W        W 5587   3.831  31.908  12.855
40603W        W 5588  26.525  16.124  12.741
40604W        W 5589  28.014  25.350   5.148
40605W        W 5590  20.709  31.782   4.708
40606W        W 5591   1.749   7.075  13.331
40607W        W 5592  41.837  23.889  14.367
40608W        W 5593   7.207  33.363  13.593
40609W        W 5594   2.330  24.213   3.152
40610W        W 5595  30.813   3.320  10.494
40611W        W 5596  33.865   4.216  13.487
40612W        W 5597  16.522   0.536  13.923
40613W        W 5598  28.627   5.261   1.658
40614W        W 5599  42.760  31.217  12.010
40615W        W 5600  36.896  30.376  12.606
40616W        W 5601  20.234  23.686   1.721
40617W        W 5602  37.455   6.173   2.757
40618W        W 5603  23.707  28.240   0.332
40619W        W 5604   1.480   6.642   3.721
40620W        W 5605  26.054  38.584  12.336
40621W        W 5606  19.469   0.421  14.395
40622W        W 5607  42.983  43.361  12.889
40623W        W 5608   2.513   7.177  10.088
40624W        W 5609  12.934  40.014  11.965
40625W        W 5610   3.317  10.696  11.053
40626W        W 5611   3.433  19.288   0.220
40627W        W 5612  23.709  35.811  13.037
40628W        W 5613  42.896  29.188  12.409
40629W        W 5614  33.018  19.987  13.469
40630W        W 5615  22.187   1.237   0.588
40631W        W 5616  34.886  27.159   4.046
40632W        W 5617  44.898  34.414   3.647
40633W        W 5618  16.245  20.166   1.927
40634W        W 5619  33.231  11.628   1.309
40635W        W 5620  28.446  14.345  11.523
40636W        W 5621  24.195   5.648  14.362
40637W        W 5622  25.998  38.809   2.567
40638W        W 5623  23.617  38.534  11.295
40639W        W 5624   7.260  22.308   3.705
40640W        W 5625  21.048  34.003   3.682
40641W        W 5626  31.387  15.139  11.960
40642W        W 5627  16.077  34.072   1.718
40643W        W 5628  13.513  29.035   3.302
40644W        W 5629  22.527  40.850  10.275
40645W        W 5630  34.176  21.626   2.388
40646W        W 5631  26.691  36.824  13.900
40647W        W 5632   1.945  12.803   0.441
40648W        W 5633  39.766  14.087   0.897
40649W        W 5634  35.204  24.639   2.688
40650W        W 5635  19.069  27.130  10.666
40651W        W 5636  13.090   9.346  12.707
40652W        W 5637  29.203  39.444   0.369
40653W        W 5638  11.090  34.071   3.429
40654W        W 5639  37.866   1.612  13.045
40655W        W 5640  32.918  33.479   1.889
40656W        W 5641  26.833   8.874  10.277
40657W        W 5642  25.752   9.146  13.180
40658W        W 5643  36.473  19.066   2.184
40659W        W 5644  22.824  40.466   2.006
40660W        W 5645   6.982  28.092  11.131
40661W        W 5646  43.004  14.619  11.587
40662W        W 5647  21.591  16.361   4.092
40663W        W 5648  32.640  18.398  11.252
40664W        W 5649   2.365  36.460   3.574
40665W        W 5650  30.508   2.724   5.596
40666W        W 5651  11.609  11.398  13.376
40667W        W 5652  31.193  39.504   2.110
40668W        W 5653  21.013  42.822   2.288
40669W        W 5654  23.170  39.614  10.994
40670W        W 5655  16.518   1.249  13.158
40671W        W 5656  27.327  21.657  14.011
40672W        W 5657  15.334  15.272  13.738
40673W        W 5658  21.959   1.410  11.194
40674W        W 5659  36.244  29.591  13.446
40675W        W 5660  18.559  10.107  13.430
40676W        W 5661   0.693  19.645   5.020
40677W        W 5662  30.888  37.398   3.319
40678W        W 5663  18.575  11.191  13.326
40679W        W 5664  31.089  36.510   0.373
40680W        W 5665  29.569  27.993  12.372
40681W        W 5666  29.363  42.308   3.145
40682W        W 5667  25.033  25.141   3.114
40683W        W 5668  22.414  11.662  14.434
40684W        W 5669  28.919  42.638   0.328
40685W        W 5670  37.386  39.375  12.753
40686W        W 5671  16.206   0.765  14.338
40687W        W 5672   6.910   6.937  11.207
40688W        W 5673  19.261  19.209  12.225
40689W        W 5674  44.213   5.231  12.058
40690W        W 5675  22.505  27.825   2.747
40691W        W 5676  18.468  40.830   4.014
40692W        W 5677  30.904  44.867  13.752
40693W        W 5678  22.552  17.289   2.281
40694W        W 5679  10.592  25.180   2.654
40695W        W 5680  30.155  26.199   3.359
40696W        W 5681  19.134  42.774   1.772
40697W        W 5682   1.352  41.151  14.414
40698W        W 5683   4.752  19.205  10.611
40699W        W 5684  10.717  24.887  13.526
40700W        W 5685   6.873  26.820  10.576
40701W        W 5686  43.354   1.194  13.433
40702W        W 5687  31.857  36.307   2.604
40703W        W 5688  11.199   0.721   2.270
40704W        W 5689  38.625  29.617  11.179
40705W        W 5690  31.885   9.383  10.331
40706W        W 5691  31.520  16.353   2.143
40707W        W 5692  40.847  30.005  13.988
40708W        W 5693  43.585   7.293   2.426
40709W        W 5694  37.585  18.552   1.895
40710W        W 5695  29.901  38.181  12.479
40711W        W 5696  14.306  33.558   1.385
40712W        W 5697   8.138  29.133   1.739
40713W        W 5698   6.284  41.991   4.507
40714W        W 5699  16.275  11.583  11.024
40715W        W 5700   6.221  33.058   3.262
40716W        W 5701  36.801  35.340  12.325
40717W        W 5702  29.142  12.867   2.093
40718W        W 5703  30.283  26.553  12.531
40719W        W 5704  29.136  44.790   4.062
40720W        W 5705  42.358   7.444  14.894
40721W        W 5706   7.491  14.846  13.969
40722W        W 5707  22.732  10.486  13.888
40723W        W 5708   9.910  27.068  13.013
40724W        W 5709  39.614  21.594  11.376
40725W        W 5710   5.513  40.722   4.620
40726W        W 5711  21.692  32.930  12.357
40727W        W 5712  26.771  43.345  11.585
40728W        W 5713  36.326  10.615   3.234
40729W        W 5714  33.401  20.496   1.309
40730W        W 5715  43.949  19.319  11.402
40731W        W 5716  22.635  37.994   0.210
40732W        W 5717  15.248  31.862  14.852
40733W        W 5718  15.184  35.312   3.384
40734W        W 5719   2.718  42.380   2.793
40735W        W 5720  43.869  17.572   2.969
40736W        W 5721  26.942   7.825  14.378
40737W        W 5722  37.064  29.892  12.527
40738W        W 5723  40.498  42.754   1.197
40739W        W 5724  19.665   1.351   4.450
40740W        W 5725  36.379  36.751  13.930
40741W        W 5726  16.213   2.227  10.875
40742W        W 5727  39.443   4.980   0.861
40743W        W 5728  16.805   4.651   0.804
40744W        W 5729  15.627  44.811   1.473
40745W        W 5730  31.360  13.310   1.855
40746W        W 5731  35.430  22.393  14.192
40747W        W 5732  44.687  15.759   0.986
40748W        W 5733  26.992  11.220   2.331
40749W        W 5734  16.688  19.315   2.166
40750W        W 5735  15.794  26.659  12.076
40751W        W 5736   0.295  18.464  14.041
40752W        W 5737   2.813  37.818  10.677
40753W        W 5738  28.681  42.034  10.574
40754W        W 5739  39.916   1.718  14.992
40755W        W 5740  40.258  29.928   1.362
40756W        W 5741  31.641  35.894  10.581
40757W        W 5742  13.229  37.795  11.592
40758W        W 5743  29.007  40.850   0.490
40759W        W 5744  15.313  17.241  11.435
40760W        W 5745  13.407   1.357   4.582
40761W        W 5746   1.344  25.335  13.582
40762W        W 5747  12.933   3.884  11.544
40763W        W 5748  14.804  41.927  14.431
40764W        W 5749   2.153   6.238   3.267
40765W        W 5750  21.146  43.885   9.916
40766W        W 5751  39.992  33.520   3.198
40767W        W 5752  32.624   3.839  11.542
40768W        W 5753   1.646  43.726   0.469
40769W        W 5754  40.888  22.308   3.254
40770W        W 5755   6.784   5.100  13.936
40771W        W 5756  43.879   1.070   1.478
40772W        W 5757  34.917  14.185  14.109
40773W        W 5758  34.339  17.558  14.453
40774W        W 5759  14.863   3.087  14.947
40775W        W 5760   4.856  37.125  11.616
40776W        W 5761   3.296  44.701   2.815
40777W        W 5762  42.544  23.534   2.106
40778W        W 5763  23.208  32.979  11.868
40779W        W 5764  18.178  24.648  11.694
40780W        W 5765  39.818  35.879  14.986
40781W        W 5766  39.834  14.336  13.078
40782W        W 5767   9.393  15.883   5.082
40783W        W 5768  26.950  43.726  12.949
40784W        W 5769   3.424   8.596  13.081
40785W        W 5770  25.854  31.118   3.522
40786W        W 5771   8.981  39.932   0.253
40787W        W 5772  32.384  23.099   0.221
40788W        W 5773   5.804   4.163   4.107
40789W        W 5774   5.501  41.831  14.462
40790W        W 5775  23.057  28.137  11.251
40791W        W 5776  28.970   1.166   4.170
40792W        W 5777   2.580  18.344  10.818
40793W        W 5778  21.511  40.026  13.964
40794W        W 5779  34.894  23.399  13.821
40795W        W 5780   4.592  40.032   4.611
40796W        W 5781  42.241  41.757  14.027
40797W        W 5782   2.371   6.686   3.145
40798W        W 5783  44.022  21.571   3.596
40799W        W 5784  16.644  43.606  14.931
40800W        W 5785  38.841  13.771  11.421
40801W        W 5786  17.175  39.999  12.622
40802W        W 5787  15.187   2.312   0.026
40803W        W 5788   3.992  41.386  13.971
40804W        W 5789  44.078  30.067  14.783
40805W        W 5790  38.039  27.607   3.258
40806W        W 5791  35.897  20.520  13.005
40807W        W 5792  18.169  25.690   2.965
40808W        W 5793  17.187  15.102  11.529
40809W        W 5794  12.889  37.327  14.326
40810W        W 5795  31.329   7.743   2.222
40811W        W 5796  30.019  35.292   3.565
40812W        W 5797  29.382  22.317   1.905
40813W        W 5798  28.952  20.572   3.099
40814W        W 5799  39.905  31.816  12.085
40815W        W 5800  34.441  27.660   0.967
40816W        W 5801  10.266   4.331  11.723
40817W        W 5802  10.124  37.401   4.946
40818W        W 5803  42.335  40.330   2.886
40819W        W 5804  20.785  43.588   0.697
40820W        W 5805  29.143   3.831   3.686
40821W        W 5806  10.745  13.987   0.019
40822W        W 5807  11.208  43.482  10.539
40823W        W 5808  10.665  12.734   1.262
40824W        W 5809  42.947  10.788   2.192
40825W        W 5810  12.283  20.142   1.648
40826W        W 5811   2.440  18.064   1.784
40827W        W 5812  32.285  33.395   9.865
40828W        W 5813  41.816  20.684   0.035
40829W        W 5814  12.521  12.258  14.028
40830W        W 5815  29.501  21.638  10.508
40831W        W 5816  19.971  41.619   0.715
40832W        W 5817  26.819  13.619  12.685
40833W        W 5818   1.848  16.790  11.652
40834W        W 5819  30.904  36.597   4.754
40835W        W 5820   8.609  32.108  14.066
40836W        W 5821  36.488  26.648  11.902
40837W        W 5822  10.562  25.047  10.268
40838W        W 5823  15.657  30.158   2.911
40839W        W 5824  24.043  23.987  12.031
40840W        W 5825  25.895  23.830  13.125
40841W        W 5826  36.628   7.710   1.157
40842W        W 5827  30.507   2.222   1.860
40843W        W 5828  35.509  25.065   2.755
40844W        W 5829  11.725   6.660  14.491
40845W        W 5830  15.582  38.080   1.851
40846W        W 5831  38.947  34.351  13.352
40847W        W 5832   6.273  15.676   1.390
40848W        W 5833  43.293  23.153  13.366
40849W        W 5834   7.207  13.440   0.892
40850W        W 5835   8.348  28.657   2.323
40851W        W 5836  10.908  12.648   1.722
40852W        W 5837  36.958   7.938   0.748
40853W        W 5838  33.730  39.409   1.914
40854W        W 5839  26.936  33.917   4.181
40855W        W 5840  43.287  21.831  12.093
40856W        W 5841  31.718  33.566  13.103
40857W        W 5842   8.934  34.057  11.537
40858W        W 5843  37.929  29.059   4.661
40859W        W 5844  23.640  17.273   1.757
40860W        W 5845   9.328  16.921  14.865
40861W        W 5846   6.520  38.409   1.173
40862W        W 5847  40.722  31.678  10.558
40863W        W 5848   8.308  34.557   4.298
40864W        W 5849  13.132  28.154   2.417
40865W        W 5850   0.455  16.264   4.585
40866W        W 5851  17.243  20.595   2.740
40867W        W 5852  22.408   2.243  14.823
40868W        W 5853   4.312   1.716  12.514
40869W        W 5854  23.181   5.799   4.137
40870W        W 5855   2.404  44.444  10.764
40871W        W 5856  39.718   9.292  11.166
40872W        W 5857  20.059  15.656  11.584
40873W        W 5858   4.506  13.161   4.306
40874W        W 5859  33.818  19.810   1.723
40875W        W 5860  19.618   7.466  10.184
40876W        W 5861  31.368  29.099   1.387
40877W        W 5862  32.514  17.856  12.131
40878W        W 5863   5.901  33.960  13.349
40879W        W 5864  32.002  23.411  11.236
40880W        W 5865  38.406   0.309   4.534
40881W        W 5866  36.055  21.846  11.526
40882W        W 5867   8.155  12.875  11.883
40883W        W 5868  19.607  19.805   0.448
40884W        W 5869   2.314  28.780   1.866
40885W        W 5870   4.828  31.676   1.884
40886W        W 5871  17.683   5.862   3.179
40887W        W 5872  34.678  34.017  10.654
40888W        W 5873  43.863  37.934  12.923
40889W        W 5874  27.151  39.357   3.319
40890W        W 5875  16.784   8.685  14.483
40891W        W 5876  27.817   4.350  11.157
40892W        W 5877  36.618  21.014  13.402
40893W        W 5878   0.828  21.087   3.139
40894W        W 5879  21.706  26.492  14.833
40895W        W 5880  16.867  35.289   0.217
40896W        W 5881  29.638  17.695   2.793
40897W        W 5882  32.361  32.425  10.840
40898W        W 5883   1.684  38.881  11.639
40899W        W 5884  37.541  31.038   1.205
40900W        W 5885  28.610   0.256  14.740
40901W        W 5886   8.366  29.202  12.304
40902W        W 5887  44.463  21.515  11.521
40903W        W 5888  17.317   5.394  14.992
40904W        W 5889  22.780  22.532  11.369
40905W        W 5890  41.008  43.463   0.770
40906W        W 5891  30.451  19.962  14.266
40907W        W 5892  39.272  39.988   2.405
40908W        W 5893  23.913  22.621   2.826
40909W        W 5894  34.648  28.173   0.469
40910W        W 5895  11.511  42.625   4.432
40911W        W 5896  19.968  24.839   0.294
40912W        W 5897  17.618  42.262   2.973
40913W        W 5898   3.506  11.585  12.129
40914W        W 5899   7.859  44.458   4.906
40915W        W 5900  14.830  37.058  12.591
40916W        W 5901  18.777  41.543   0.331
40917W        W 5902  23.227   9.275  14.457
40918W        W 5903   2.745   9.522  11.267
40919W        W 5904   3.419  15.617  14.516
40920W        W 5905  20.442   4.590  13.045
40921W        W 5906  17.808  15.100   2.945
40922W        W 5907  37.975  44.538   0.384
40923W        W 5908  44.850   1.397   4.500
40924W        W 5909  28.066  18.612  13.743
40925W        W 5910  21.713  43.951  14.038
40926W        W 5911  26.765   3.399  14.435
40927W        W 5912   0.732   3.796   0.358
40928W        W 5913  10.206  15.988   0.772
40929W        W 5914  38.078  26.227   1.848
40930W        W 5915  27.234   4.820   4.344
40931W        W 5916   9.694  21.993   2.314
40932W        W 5917   4.700  43.643  13.480
40933W        W 5918  30.948   2.289   0.448
40934W        W 5919  18.207   0.116  11.643
40935W        W 5920   4.160  14.312   3.733
40936W        W 5921  13.576  12.452  14.836
40937W        W 5922  37.086  19.651  13.004
40938W        W 5923  14.731  34.927   3.678
40939W        W 5924   2.270  22.076   3.243
40940W        W 5925  33.395  41.105  12.532
40941W        W 5926   3.428  40.550   0.847
40942W        W 5927  36.486  12.229   0.383
40943W        W 5928  40.562  12.714   2.448
40944W        W 5929  27.449  17.416   1.144
40945W        W 5930  31.617  38.983  13.023
40946W        W 5931   6.928   9.796   0.838
40947W        W 5932  43.999  41.503   1.317
40948W        W 5933  10.634  34.064   0.256
40949W        W 5934  13.177  24.747  13.517
40950W        W 5935  39.350  32.693   5.180
40951W        W 5936   9.292   1.914   4.176
40952W        W 5937  28.466  28.604  13.250
40953W        W 5938  10.158  17.734   1.481
40954W        W 5939  19.114  16.585   1.832
40955W        W 5940  43.551  40.338   0.868
40956W        W 5941  28.126  25.556  13.557
40957W        W 5942   1.529   6.760   2.116
40958W        W 5943  14.536  12.036  12.569
40959W        W 5944  34.502   7.766  14.742
40960W        W 5945  22.239  21.645   0.903
40961W        W 5946  19.051  38.588   1.813
40962W        W 5947  20.640   9.162  12.393
40963W        W 5948   6.849  23.928  14.697
40964W        W 5949  30.939   2.632   5.180
40965W        W 5950  14.897  13.246  10.878
40966W        W 5951  26.244  40.172   2.698
40967W        W 5952  37.432  44.218   2.761
40968W        W 5953  20.321  29.510   0.818
40969W        W 5954  31.579  10.706   2.738
40970W        W 5955  28.495  14.754  14.906
40971W        W 5956  10.943   0.392   0.359
40972W        W 5957  36.884  34.535  12.493
40973W        W 5958  43.351  43.940   3.688
40974W        W 5959  35.473  21.055  13.785
40975W        W 5960  20.928   4.214   4.546
40976W        W 5961  29.795  26.716  12.494
40977W        W 5962  26.654   7.473   1.807
40978W        W 5963   9.953  17.911  11.719
40979W        W 5964  12.674   1.803   4.515
40980W        W 5965  25.446  29.029  11.579
40981W        W 5966   2.712  13.322  11.576
40982W        W 5967   3.253  30.651  14.430
40983W        W 5968  24.966  38.544   2.706
40984W        W 5969  32.548  20.404   1.255
40985W        W 5970  35.728  15.540   0.466
40986W        W 5971  33.473   8.659   1.120
40987W        W 5972  38.850  36.905   0.771
40988W        W 5973  37.819  26.094   2.331
40989W        W 5974  28.491  27.162   0.877
40990W        W 5975  10.233  24.014  12.793
40991W        W 5976  15.753  25.941  13.503
40992W        W 5977  26.139  13.268  13.577
40993W        W 5978  32.597  27.459  10.869
40994W        W 5979   4.457  42.375  11.630
40995W        W 5980   6.660  43.007   3.278
40996W        W 5981  23.727  44.984  13.016
40997W        W 5982   8.719  25.920  12.422
40998W        W 5983  18.978  31.169   1.445
40999W        W 5984  37.312  10.593  14.974
41000W        W 5985  44.537   5.126  13.920
41001W        W 5986  24.509   2.226   0.605
41002W        W 5987  37.588  34.161  14.338
41003W        W 5988  35.875  38.441  13.078
41004W        W 5989  38.858  11.146   2.823
41005W        W 5990  41.154  22.145   0.260
41006W        W 5991  21.243  38.065   1.474
41007W        W 5992  16.771  10.230   2.810
41008W        W 5993  35.600  44.898  10.811
41009W        W 5994  13.192  39.729  14.838
41010W        W 5995   6.800  21.580  13.087
41011W        W 5996  10.731  25.688   2.609
41012W        W 5997   1.150  24.002  14.589
41013W        W 5998  31.963   6.403  13.498
41014W        W 5999  31.677  22.713   0.868
41015W        W 6000  25.058  33.341   2.939
41016W        W 6001  15.357  27.924  14.054
41017W        W 6002  38.178  41.201   1.218
41018W        W 6003  33.313   6.349  12.050
41019W        W 6004  42.020   8.419  13.902
41020W        W 6005  32.154  14.693  14.199
41021W        W 6006   3.473   0.345   0.548
41022W        W 6007  19.326   4.504  10.427
41023W        W 6008   6.272  17.114   0.313
41024W        W 6009   1.758  25.576  13.415
41025W        W 6010  38.761  12.580   1.944
41026W        W 6011  18.982  18.052   5.214
41027W        W 6012   2.208  27.379   0.445
41028W        W 6013   2.730  15.587   1.234
41029W        W 6014  39.546  35.886   1.304
41030W        W 6015  39.763  20.154  10.865
41031W        W 6016  35.726   6.660   4.068
41032W        W 6017  22.414  30.071  14.414
41033W        W 6018  23.297  26.663  10.501
41034W        W 6019   3.726  24.542   4.335
41035W        W 6020  25.926  37.994  14.566
41036W        W 6021   0.060  17.099  11.529
41037W        W 6022   6.488  27.016   3.812
41038W        W 6023  25.294  20.738  12.609
41039W        W 6024  34.849  35.019  12.500
41040W        W 6025  21.595   1.851  14.951
41041W        W 6026  32.959  13.341   2.682
41042W        W 6027  10.924   5.940  13.014
41043W        W 6028   5.731  38.954   3.605
41044W        W 6029  19.763  44.822   0.366
41045W        W 6030  34.571   8.185   0.871
41046W        W 6031   9.179  44.176   2.604
41047W        W 6032  11.071  14.860   4.367
41048W        W 6033   3.791   2.286   2.381
41049W        W 6034  24.052  33.572  10.558
41050W        W 6035  11.828  44.231  14.896
41051W        W 6036  10.803   6.168   3.800
41052W        W 6037  33.719  13.019   2.033
41053W        W 6038   5.070  33.273  12.136
41054W        W 6039   1.013  20.687  11.844
41055W        W 6040  33.308  14.186   0.824
41056W        W 6041   7.826  10.290  10.188
41057W        W 6042  34.936  21.630   0.901
41058W        W 6043   3.228  10.077  13.101
41059W        W 6044  15.545  37.071  11.884
41060W        W 6045  26.886  14.726  12.417
41061W        W 6046   1.103  26.678   2.484
41062W        W 6047   8.212  23.768   1.735
41063W        W 6048  23.261   0.773  11.596
41064W        W 6049   9.787   2.924  14.200
41065W        W 6050  12.209  39.295  12.569
41066W        W 6051  18.593  44.470   1.586
41067W        W 6052  14.496  31.517  14.055
41068W        W 6053  35.438  33.800   1.394
41069W        W 6054   7.567  26.044   3.328
41070W        W 6055   6.323   5.634   0.168
41071W        W 6056   9.804   0.989   1.250
41072W        W 6057  44.938  23.237   1.361
41073W        W 6058  18.820  26.967   1.634
41074W        W 6059  14.991   5.618   3.138
41075W        W 6060  24.967   4.468  12.227
41076W        W 6061  29.021  37.888   4.224
41077W        W 6062  41.919  19.380  11.145
41078W        W 6063  10.311  26.426   1.289
41079W        W 6064  20.609  42.304   3.259
41080W        W 6065   0.775   5.618  11.621
41081W        W 6066  21.015  35.739  14.226
41082W        W 6067  37.792   6.680  14.538
41083W        W 6068  14.264   7.438   4.380
41084W        W 6069  43.069  35.438  13.393
41085W        W 6070  16.132  27.009   0.373
41086W        W 6071  38.072  22.239   3.126
41087W        W 6072  43.914   4.010  14.199
41088W        W 6073  34.695  24.616   4.644
41089W        W 6074  27.132  20.744  13.909
41090W        W 6075  29.534   6.533  13.551
41091W        W 6076  20.205  37.045   0.214
41092W        W 6077  21.071  27.086  12.182
41093W        W 6078   1.178   3.381   2.201
41094W        W 6079   2.487  35.584   3.749
41095W        W 6080  15.721  44.282   3.275
41096W        W 6081  40.139   7.001  14.952
41097W        W 6082  36.928   6.679   4.295
41098W        W 6083  37.410  36.073  13.456
41099W        W 6084  14.192   5.241  12.087
41100W        W 6085   9.406  16.764   2.833
41101W        W 6086  34.932  23.133  14.581
41102W        W 6087   0.472  20.927   4.236
41103W        W 6088  27.243  19.570  14.276
41104W        W 6089  17.071  20.507   1.807
41105W        W 6090  27.525  25.612   1.322
41106W        W 6091  29.530   0.360  12.367
41107W        W 6092  40.785  29.458  14.743
41108W        W 6093  28.901   3.982  14.883
41109W        W 6094  35.172  35.242  11.552
41110W        W 6095   4.900   2.463  10.737
41111W        W 6096  16.476  26.841   1.190
41112W        W 6097  25.940   2.775  12.543
41113W        W 6098   2.446  44.323   2.397
41114W        W 6099  33.502  40.106   0.775
41115W        W 6100   1.403  30.678   0.420
41116W        W 6101  28.984  44.390   2.781
41117W        W 6102  10.980  14.760  10.487
41118W        W 6103  41.477   4.662  11.161
41119W        W 6104   5.350  35.437   2.723
41120W        W 6105  43.027  26.399   4.557
41121W        W 6106  43.361  14.828   3.804
41122W        W 6107  19.480  42.926  12.085
41123W        W 6108  32.114  35.909  12.075
41124W        W 6109  34.091  33.442  10.799
41125W        W 6110  32.044  35.790  11.176
41126W        W 6111  29.603   7.787   4.161
41127W        W 6112  28.063  35.368   0.011
41128W        W 6113   6.830  37.755   2.484
41129W        W 6114   1.550  38.007   4.244
41130W        W 6115  31.503  11.353  13.964
41131W        W 6116  41.031  42.158   0.118
41132W        W 6117   7.182  33.526  14.906
41133W        W 6118  35.397  15.232   2.722
41134W        W 6119  15.062  34.004   0.766
41135W        W 6120  21.865  36.879   3.225
41136W        W 6121  20.151  14.636   0.994
41137W        W 6122  26.988   9.212  14.469
41138W        W 6123  41.403  12.610   4.490
41139W        W 6124  44.178  40.321  11.581
41140W        W 6125  31.028  28.896  14.350
41141W        W 6126  28.259   0.914   1.240
41142W        W 6127  15.219  30.666   2.581
41143W        W 6128  21.595  37.155   2.412
41144W        W 6129  20.651  40.952   3.566
41145W        W 6130  34.125  21.329  13.380
41146W        W 6131   9.231   2.775  10.616
41147W        W 6132  11.528  16.347  13.394
41148W        W 6133  23.054  30.385  11.698
41149W        W 6134  14.458  34.949  12.453
41150W        W 6135  24.972   3.878   2.332
41151W        W 6136  32.402  44.059  12.593
41152W        W 6137  14.193  43.064  11.103
41153W        W 6138   4.269  40.325  11.988
41154W        W 6139   7.854  16.146  12.577
41155W        W 6140   7.853  44.178   4.323
41156W        W 6141  15.305   1.244   3.858
41157W        W 6142   5.750  12.829  12.651
41158W        W 6143   8.781  21.086  11.671
41159W        W 6144   4.734  30.150  14.535
41160W        W 6145  37.413  44.811   1.678
41161W        W 6146  33.056  28.952  13.909
41162W        W 6147  24.289   8.747   4.573
41163W        W 6148  13.274   9.398   2.610
41164W        W 6149  22.728  34.920  13.995
41165W        W 6150  12.198  12.079  12.995
41166W        W 6151  18.794  39.596  11.055
41167W        W 6152  42.627  21.186  12.957
41168W        W 6153  22.933   5.051   2.044
41169W        W 6154   9.502  33.046  12.911
41170W        W 6155   1.011  36.438  12.537
41171W        W 6156  32.083  40.638   2.399
41172W        W 6157  15.812  33.855   2.690
41173W        W 6158  21.307  42.402  12.044
41174W        W 6159  18.550  14.010   4.971
41175W        W 6160  41.739  23.337  11.402
41176W        W 6161   5.403   7.817   4.076
41177W        W 6162  41.311  26.412   0.842
41178W        W 6163  32.175   9.215  13.606
41179W        W 6164  33.119  10.632  11.483
41180W        W 6165   3.149  30.831   3.585
41181W        W 6166  38.015   4.904   2.899
41182W        W 6167  20.613  15.514   2.003
41183W        W 6168   6.707  34.373  12.902
41184W        W 6169  15.684  26.748   4.493
41185W        W 6170   0.996  37.921   4.347
41186W        W 6171  20.871  20.722   0.189
41187W        W 6172   3.314  38.637  10.719
41188W        W 6173  32.918  14.341   4.580
41189W        W 6174   7.393   5.109  11.533
41190W        W 6175  44.147  10.380  12.191
41191W        W 6176  27.721  16.112  11.930
41192W        W 6177  38.323  42.760   0.776
41193W        W 6178   0.890   2.300  10.677
41194W        W 6179  23.780  20.570   2.285
41195W        W 6180   8.688  16.330  12.170
41196W        W 6181   3.853  15.586   0.837
41197W        W 6182  42.532  24.117  13.935
41198W        W 6183  24.969   9.378   3.632
41199W        W 6184  31.049  30.253  11.256
41200W        W 6185  29.666  30.840   1.353
41201W        W 6186  36.646  41.934  13.143
41202W        W 6187  18.856   7.441  14.852
41203W        W 6188   7.081  43.431  14.612
41204W        W 6189  15.292  36.951  10.932
41205W        W 6190  30.172  19.840   0.718
41206W        W 6191  10.286   8.352  14.773
41207W        W 6192   4.981  19.136   1.766
41208W        W 6193   0.832  17.173  11.663
41209W        W 6194  31.977   4.195  10.230
41210W        W 6195   5.786  43.403   0.940
41211W        W 6196  16.135   8.391   3.724
41212W        W 6197  27.882  43.341   4.188
41213W        W 6198  20.510  25.476  14.603
41214W        W 6199   9.989   8.316   1.493
41215W        W 6200  40.002  38.901   0.933
41216W        W 6201   0.296  22.496   0.824
41217W        W 6202  22.369  34.871   4.992
41218W        W 6203   8.711  28.765   0.639
41219W        W 6204  27.675  22.452  10.443
41220W        W 6205  11.728  21.932   0.051
41221W        W 6206  41.554  42.270   2.679
41222W        W 6207  16.130  26.064   5.398
41223W        W 6208  31.182   3.946  11.889
41224W        W 6209  15.121  26.516   1.440
41225W        W 6210  13.848  31.902   0.285
41226W        W 6211   3.434  40.404   4.072
41227W        W 6212   3.396  37.810  14.822
41228W        W 6213  12.984  44.852  12.952
41229W        W 6214  18.575  32.961  12.960
41230W        W 6215  15.102  27.441  13.989
41231W        W 6216  29.688  35.071  11.106
41232W        W 6217  34.625   7.812   1.636
41233W        W 6218  31.495  23.694  13.562
41234W        W 6219  30.019  35.541   2.248
41235W        W 6220  39.087   2.119   4.499
41236W        W 6221  11.375   1.945   1.262
41237W        W 6222  25.455  40.813   1.296
41238W        W 6223   1.375  20.272  12.277
41239W        W 6224  11.371  11.178  12.957
41240W        W 6225  28.558   5.217  11.329
41241W        W 6226   9.799  37.884   3.010
41242W        W 6227  15.673  40.044   3.040
41243W        W 6228  26.192  17.610   3.804
41244W        W 6229  43.743  28.505  14.798
41245W        W 6230   3.893   2.915   4.153
41246W        W 6231  13.846  43.744   0.562
41247W        W 6232  34.631   9.897   2.335
41248W        W 6233   8.778  15.981  14.115
41249W        W 6234  29.500  31.507   0.392
41250W        W 6235  33.285  20.874  10.779
41251W        W 6236  34.642   2.685  12.905
41252W        W 6237   8.765  38.827  11.543
41253W        W 6238  14.796  12.643   1.270
41254W        W 6239  42.472  20.183   0.425
41255W        W 6240   9.651  39.409   3.592
41256W        W 6241  12.555   4.469  11.105
41257W        W 6242   4.229   8.787   2.742
41258W        W 6243   1.470   4.773   0.961
41259W        W 6244  34.954  11.781  14.756
41260W        W 6245  44.790  20.745  13.067
41261W        W 6246  40.365  42.326  11.100
41262W        W 6247   9.426  38.475   4.035
41263W        W 6248  14.817  26.171  13.850
41264W        W 6249   7.823  28.038   4.512
41265W        W 6250   8.865  20.577  11.640
41266W        W 6251  43.351  23.877  12.068
41267W        W 6252  36.291   5.662   2.758
41268W        W 6253   2.849  22.423   3.715
41269W        W 6254  41.865  13.831  10.386
41270W        W 6255  22.110  23.893  11.108
41271W        W 6256   6.535   0.304  13.442
41272W        W 6257  27.483  29.228  10.718
41273W        W 6258  18.673  12.543   0.376
41274W        W 6259   7.200  30.394  12.047
41275W        W 6260  14.623   0.778   0.180
41276W        W 6261   5.905  40.499  12.642
41277W        W 6262  41.145  44.659   0.241
41278W        W 6263  21.107  29.605  11.508
41279W        W 6264  16.590  43.884   4.255
41280W        W 6265  27.101  40.519  13.992
41281W        W 6266  24.426  19.467   1.692
41282W        W 6267   0.019  32.524  13.763
41283W        W 6268  11.762  41.088   4.683
41284W        W 6269  17.855   7.038   1.262
41285W        W 6270  40.323  22.648   2.832
41286W        W 6271   7.901  39.709   1.284
41287W        W 6272  28.877  25.641   3.083
41288W        W 6273  16.547  30.379   3.329
41289W        W 6274  31.493   1.707   2.304
41290W        W 6275  41.033   0.171  12.563
41291W        W 6276  24.907   2.973  12.045
41292W        W 6277  34.134   2.711   0.960
41293W        W 6278   7.753  11.712  14.745
41294W        W 6279  16.810   6.830   4.097
41295W        W 6280   6.196  41.809  11.964
41296W        W 6281   1.733  16.618   1.882
41297W        W 6282  21.380  27.448  14.375
41298W        W 6283  30.128  27.693  14.683
41299W        W 6284  29.745  34.835  14.721
41300W        W 6285  30.165   1.422  11.999
41301W        W 6286   0.833  20.167  14.035
41302W        W 6287  32.388  29.164  14.600
41303W        W 6288  28.891  27.540   1.796
41304W        W 6289   3.444  18.678   1.829
41305W        W 6290   7.381  44.304  12.016
41306W        W 6291  34.439  20.576   4.534
41307W        W 6292  37.375  12.888   2.460
41308W        W 6293  32.367  13.987  13.505
41309W        W 6294  25.421  20.014   4.299
41310W        W 6295  28.866   2.652  12.663
41311W        W 6296  34.915  10.154   4.072
41312W        W 6297  27.623   7.278  10.957
41313W        W 6298  40.401  41.650  10.319
41314W        W 6299  37.813   9.882   0.295
41315W        W 6300  36.063  40.426  10.569
41316W        W 6301  39.998  12.881   4.590
41317W        W 6302   2.751  27.029   4.279
41318W        W 6303   4.577  40.515   3.155
41319W        W 6304   0.982  27.309   4.145
41320W        W 6305  42.935   0.979   3.111
41321W        W 6306  41.561  22.908   4.479
41322W        W 6307  16.372   5.351   0.038
41323W        W 6308  23.945  26.474   0.243
41324W        W 6309  31.173  26.392  12.492
41325W        W 6310   4.636   2.397   1.042
41326W        W 6311  12.064  10.461   3.146
41327W        W 6312  28.279  16.689  11.531
41328W        W 6313  31.973  23.062   3.047
41329W        W 6314   5.174   9.488  13.120
41330W        W 6315   8.721   4.669   2.781
41331W        W 6316  30.392  38.285  12.024
41332W        W 6317  44.678  35.589  10.322
41333W        W 6318  33.491  28.129  13.932
41334W        W 6319  18.819  24.023   2.659
41335W        W 6320  24.057  30.854   2.699
41336W        W 6321  21.830  44.933   2.546
41337W        W 6322  11.297  36.826   3.172
41338W        W 6323  42.802   2.411  10.537
41339W        W 6324  40.147  38.223  13.593
41340W        W 6325  18.483  31.238  11.522
41341W        W 6326  28.113   1.486   0.688
41342W        W 6327  14.193  15.668   1.335
41343W        W 6328  11.141  22.724  10.688
41344W        W 6329  17.019  40.038  13.485
41345W        W 6330  17.234   7.671   4.960
41346W        W 6331  27.698  25.446   2.196
41347W        W 6332  35.510  24.731  13.864
41348W        W 6333   3.296  19.509  11.955
41349W        W 6334  22.671  13.564   1.285
41350W        W 6335   7.520   1.711  14.930
41351W        W 6336   6.382  42.299  13.102
41352W        W 6337   9.863   9.403   2.708
41353W        W 6338  27.103  20.313  11.394
41354W        W 6339  20.703  24.254   1.153
41355W        W 6340   1.073  42.982   4.062
41356W        W 6341  25.590  26.910   4.380
41357W        W 6342   1.292  28.705  12.033
41358W        W 6343  24.167  16.608  12.924
41359W        W 6344  28.985  32.883  11.435
41360W        W 6345  17.520  29.710   4.281
41361W        W 6346  16.135   3.279  11.146
41362W        W 6347  23.406  38.988   3.154
41363W        W 6348  43.315  32.467   3.716
41364W        W 6349  11.156  21.759   0.767
41365W        W 6350  34.827  27.942   3.481
41366W        W 6351   8.988  20.065   4.676
41367W        W 6352  44.398  12.262   3.293
41368W        W 6353  16.767  25.015   4.416
41369W        W 6354  29.003  30.437   0.738
41370W        W 6355   2.673  10.312  11.722
41371W        W 6356  30.181  16.701  11.438
41372W        W 6357   8.083  11.779  12.410
41373W        W 6358  30.096   4.444   2.240
41374W        W 6359  43.354  23.876  11.103
41375W        W 6360  16.628   9.439   1.277
41376W        W 6361   5.368   2.932   1.962
41377W        W 6362  37.777  28.722   2.727
41378W        W 6363  36.755  14.564  10.332
41379W        W 6364  41.373  33.375   4.088
41380W        W 6365   2.997  29.196   1.205
41381W        W 6366  12.841   5.831   1.925
41382W        W 6367  39.041  26.808  12.568
41383W        W 6368  26.903  14.244   1.790
41384W        W 6369  28.858  10.918   3.695
41385W        W 6370  43.746  11.604  11.264
41386W        W 6371  20.654   3.282  11.157
41387W        W 6372   0.054  30.920   3.914
41388W        W 6373  18.579  35.805   2.217
41389W        W 6374  26.866  17.884   0.528
41390W        W 6375  26.284  36.408   3.868
41391W        W 6376   1.325  44.270  11.578
41392W        W 6377  23.468   2.539  10.331
41393W        W 6378   2.316   5.370  13.355
41394W        W 6379   2.389  17.228  13.444
41395W        W 6380  43.807   3.879   2.202
41396W        W 6381  31.470  24.176  10.972
41397W        W 6382  10.189   9.597   1.227
41398W        W 6383  25.712  23.926  14.286
41399W        W 6384  14.168  23.621  13.898
41400W        W 6385   1.170   2.870   2.352
41401W        W 6386  16.936  19.065  11.614
41402W        W 6387  13.582  37.434  12.926
41403W        W 6388   7.371  43.447  14.167
41404W        W 6389  41.819  23.378   4.119
41405W        W 6390   9.167   5.491   2.374
41406W        W 6391  18.780  27.247  13.469
41407W        W 6392  17.396  30.259   0.283
41408W        W 6393  30.846  13.820  10.998
41409W        W 6394   6.892  40.668   2.401
41410W        W 6395  30.610  10.273   3.707
41411W        W 6396  36.237  42.792  12.759
41412W        W 6397  36.580  34.576  13.449
41413W        W 6398  41.783  10.659  13.164
41414W        W 6399   9.727   0.795  14.040
41415W        W 6400  24.146  19.160  14.403
41416W        W 6401  34.388  28.072  12.542
41417W        W 6402   6.858   4.460   3.897
41418W        W 6403  40.285  43.108   2.158
41419W        W 6404  17.672   7.362   3.229
41420W        W 6405  34.860  17.536   3.312
41421W        W 6406   7.125   4.039   3.761
41422W        W 6407  31.926  12.361   1.037
41423W        W 6408   1.906   7.242  12.007
41424W        W 6409  42.059  19.167  14.769
41425W        W 6410  38.283  13.696   3.836
41426W        W 6411  19.538  43.907   0.083
41427W        W 6412  12.295   1.445   3.371
41428W        W 6413  29.895  31.515  10.700
41429W        W 6414  40.000  20.623  10.797
41430W        W 6415  24.570  40.398  14.052
41431W        W 6416  38.061  23.949  11.471
41432W        W 6417  28.196  34.109   1.597
41433W        W 6418  14.696   3.946  13.032
41434W        W 6419  16.174  17.889  14.479
41435W        W 6420  20.998   4.145  12.628
41436W        W 6421  25.866  35.835   4.458
41437W        W 6422  18.137  34.629   3.736
41438W        W 6423  44.978  25.019   4.595
41439W        W 6424  21.020  38.931   0.898
41440W        W 6425  28.092  34.374   4.090
41441W        W 6426  11.925   1.445   4.200
41442W        W 6427   9.888  40.123   3.214
41443W        W 6428   0.897  12.656  10.319
41444W        W 6429  35.625  33.568   0.363
41445W        W 6430  22.134   5.302  14.056
41446W        W 6431  25.549  21.051   1.912
41447W        W 6432   6.478  41.962   0.887
41448W        W 6433   7.333  37.836   2.297
41449W        W 6434  27.622  18.344  13.542
41450W        W 6435  14.606  17.637  10.913
41451W        W 6436  30.446  36.554  10.764
41452W        W 6437  25.108  10.357  14.749
41453W        W 6438  35.733  21.248  13.327
41454W        W 6439  16.929  25.199  13.959
41455W        W 6440  37.306  37.998  14.396
41456W        W 6441   9.025   2.902   1.981
41457W        W 6442  30.593  31.663   3.415
41458W        W 6443  28.517  23.127   0.744
41459W        W 6444  17.769  37.034  11.793
41460W        W 6445  39.882  38.060   0.768
41461W        W 6446  25.886   9.742  11.559
41462W        W 6447  22.975  27.996   0.876
41463W        W 6448  12.312  43.436  11.650
41464W        W 6449  35.063  21.281  10.357
41465W        W 6450  19.098  41.846   0.029
41466W        W 6451   0.910  34.568   2.845
41467W        W 6452  39.850  35.876   1.740
41468W        W 6453   6.165  21.222   0.761
41469W        W 6454  42.793  40.046   0.723
41470W        W 6455  17.361  11.170   1.708
41471W        W 6456  10.137  39.988  14.162
41472W        W 6457  13.747  20.137   2.253
41473W        W 6458  38.309  39.334   1.690
41474W        W 6459  27.215  24.033   0.701
41475W        W 6460  18.550  31.147   3.625
41476W        W 6461  41.944   0.315  10.101
41477W        W 6462   6.143  27.665  14.332
41478W        W 6463  21.597  25.746   1.044
41479W        W 6464   8.436  26.122  13.888
41480W        W 6465  28.236  39.811  14.167
41481W        W 6466  19.626  26.765   5.118
41482W        W 6467  18.059  18.778   3.633
41483W        W 6468   7.302  23.763   2.869
41484W        W 6469   5.399   6.945   4.218
41485W        W 6470  40.211   2.632   2.123
41486W        W 6471  19.191   6.777   3.198
41487W        W 6472  10.627  12.979  14.991
41488W        W 6473  23.450   2.467  12.896
41489W        W 6474  27.034  28.496   3.725
41490W        W 6475  37.925  34.345  11.712
41491W        W 6476  43.790   5.164   0.513
41492W        W 6477  35.494  27.644  14.056
41493W        W 6478   9.459  21.066   0.787
41494W        W 6479   1.022  37.313  11.168
41495W        W 6480  19.150  30.716  13.376
41496W        W 6481  23.298  40.309   0.973
41497W        W 6482  22.719  25.995  12.565
41498W        W 6483  24.185  38.353  11.630
41499W        W 6484  19.324   7.303  13.125
41500W        W 6485  26.360  31.123   1.225
41501W        W 6486  38.016   3.858   3.299
41502W        W 6487   8.387  13.256  12.123
41503W        W 6488  10.226  26.415  14.437
41504W        W 6489  44.465  30.487   1.252
41505W        W 6490  30.939   7.493  13.150
41506W        W 6491  31.920  28.654   3.650
41507W        W 6492  15.100  43.007   2.925
41508W        W 6493  25.559  24.192   0.336
41509W        W 6494   1.298  43.009  11.998
41510W        W 6495  14.247  29.484   0.695
41511W        W 6496  35.505   5.489   4.618
41512W        W 6497   3.723  35.064   4.067
41513W        W 6498  21.083  21.181   1.888
41514W        W 6499  42.198  26.312   0.800
41515W        W 6500   5.095  35.593  11.064
41516W        W 6501   3.432  22.769  11.208
41517W        W 6502  41.456   1.834  13.126
41518W        W 6503   7.525  23.515   3.270
41519W        W 6504   6.233  19.173  13.824
41520W        W 6505   6.329  42.564  12.672
41521W        W 6506  36.674  34.976  11.375
41522W        W 6507  26.093  24.554  11.525
41523W        W 6508  11.694   3.839  10.640
41524W        W 6509  26.376  26.502   4.488
41525W        W 6510  27.902  36.880   2.355
41526W        W 6511   0.632  16.336   1.927
41527W        W 6512   7.670  28.899   0.513
41528W        W 6513  28.624  29.162   0.894
41529W        W 6514  40.577  17.069  14.398
41530W        W 6515  20.372  22.660   5.200
41531W        W 6516  37.658  28.457   0.669
41532W        W 6517  31.356  27.585   3.465
41533W        W 6518  17.163   9.788   0.053
41534W        W 6519  34.027  20.819  13.946
41535W        W 6520  39.521   4.477  11.155
41536W        W 6521  39.627  20.235  11.682
41537W        W 6522  40.234  10.024   4.189
41538W        W 6523  24.500  16.137   1.326
41539W        W 6524  23.930  43.591  12.111
41540W        W 6525   4.099  18.175   2.235
41541W        W 6526  44.682  12.893  11.007
41542W        W 6527   9.268  15.212   2.944
41543W        W 6528   4.923  17.551  12.778
41544W        W 6529  29.987   7.379   2.915
41545W        W 6530  30.631  20.140   1.395
41546W        W 6531   6.143  21.131  10.993
41547W        W 6532  22.555   9.021   1.901
41548W        W 6533  25.002  37.749  12.076
41549W        W 6534  26.638  21.032   0.776
41550W        W 6535   2.965   2.688  13.460
41551W        W 6536  10.221  21.540   3.663
41552W        W 6537  12.079  39.380  14.909
41553W        W 6538  35.309  35.633  14.850
41554W        W 6539  11.322  15.564  14.377
41555W        W 6540  23.941  19.341   1.838
41556W        W 6541  43.933  33.555  10.747
41557W        W 6542  26.209  44.389   5.300
41558W        W 6543  26.177  31.428   1.601
41559W        W 6544  28.445   1.743   2.366
41560W        W 6545  41.818   5.547  11.998
41561W        W 6546  12.222  34.184  10.624
41562W        W 6547  29.543  17.246  12.618
41563W        W 6548  18.642   4.272  11.580
41564W        W 6549  28.382  42.497   4.092
41565W        W 6550  31.630  33.573   4.802
41566W        W 6551  17.591  10.237   0.831
41567W        W 6552  19.338  24.758  10.850
41568W        W 6553   4.648  34.865  12.471
41569W        W 6554  44.476   4.710   3.153
41570W        W 6555  43.578   0.267   0.453
41571W        W 6556  14.456  40.614   2.768
41572W        W 6557   1.398   5.787   1.683
41573W        W 6558  32.336  24.094  11.084
41574W        W 6559  15.820  36.489  10.663
41575W        W 6560   5.976  23.687   4.745
41576W        W 6561   1.836  27.396   2.299
41577W        W 6562  14.761   4.430  12.924
41578W        W 6563  11.071   0.057  12.032
41579W        W 6564  16.161   9.722   1.058
41580W        W 6565   0.831   7.887   5.430
41581W        W 6566  39.562  23.247  12.142
41582W        W 6567   4.739   5.027  12.097
41583W        W 6568  40.767   2.766  12.610
41584W        W 6569  18.650   5.236   0.189
41585W        W 6570  34.583  31.457   4.600
41586W        W 6571  41.899  39.147  12.869
41587W        W 6572  25.846  36.530   3.107
41588W        W 6573  30.139  28.465  11.562
41589W        W 6574  42.006  40.046   3.705
41590W        W 6575  12.822   9.329   0.316
41591W        W 6576  19.710   8.913  12.190
41592W        W 6577  21.499  34.483  12.356
41593W        W 6578   1.977  26.887   2.216
41594W        W 6579  44.243  37.837  13.873
41595W        W 6580  40.792   9.762  11.615
41596W        W 6581  33.091  20.629   2.180
41597W        W 6582  28.018  39.563   3.317
41598W        W 6583   7.940  34.825   4.695
41599W        W 6584  25.550  43.718  13.477
41600W        W 6585  23.309  13.297   2.617
41601W        W 6586   1.495  22.535   3.050
41602W        W 6587  19.511  22.677   0.402
41603W        W 6588  14.836  16.556  14.379
41604W        W 6589   9.144   3.319   0.103
41605W        W 6590  25.964  36.871  14.360
41606W        W 6591   3.823   8.904  12.132
41607W        W 6592  44.753  32.434  10.606
41608W        W 6593  14.670  35.028  14.671
41609W        W 6594   4.139   0.195   2.468
41610W        W 6595   9.405   0.795   1.825
41611W        W 6596  12.639  13.121  13.077
41612W        W 6597   7.422  17.083  14.787
41613W        W 6598  33.578  15.795   1.300
41614W        W 6599  11.467  25.181  11.959
41615W        W 6600  34.775   1.991  10.287
41616W        W 6601  44.806  37.286   4.012
41617W        W 6602  35.289   2.325   4.250
41618W        W 6603  33.994  14.271  14.012
41619W        W 6604  43.573  35.510   2.093
41620W        W 6605   4.212  42.982   0.998
41621W        W 6606  34.134   0.327  11.946
41622W        W 6607   2.288  23.651   3.172
41623W        W 6608   2.769  39.485  13.371
41624W        W 6609  14.256  15.300   0.567
41625W        W 6610   8.228  29.770  13.763
41626W        W 6611   1.902  32.927   2.122
41627W        W 6612   9.672  18.634  13.389
41628W        W 6613  24.131  24.750   4.166
41629W        W 6614  11.295  24.906   1.148
41630W        W 6615  23.902  37.623  13.960
41631W        W 6616  12.692   0.200   4.827
41632W        W 6617  20.880  44.603   3.243
41633W        W 6618  26.939  43.877  14.762
41634W        W 6619  21.716  10.283  10.336
41635W        W 6620   6.719  20.573  10.669
41636W        W 6621  13.357  16.307   1.457
41637W        W 6622  19.433  32.105  11.638
41638W        W 6623  37.228   8.012   4.980
41639W        W 6624  13.282   3.793   1.729
41640W        W 6625   8.552   9.921  11.653
41641W        W 6626  35.268  20.622  13.504
41642W        W 6627   5.363  21.688  14.530
41643W        W 6628  19.132  14.355  11.053
41644W        W 6629  21.664   7.945   3.665
41645W        W 6630  43.763  38.422   0.314
41646W        W 6631  20.693  10.911   3.894
41647W        W 6632  42.434   7.197  14.407
41648W        W 6633   1.798  33.580   0.879
41649W        W 6634  43.919   9.804  13.041
41650W        W 6635  14.046  34.505  11.630
41651W        W 6636  12.615  37.519  14.771
41652W        W 6637  13.196  28.868   2.960
41653W        W 6638  43.284  18.200   2.380
41654W        W 6639  35.517  27.383   2.153
41655W        W 6640  35.894  37.158   2.758
41656W        W 6641  24.653  28.318  14.366
41657W        W 6642   4.479  38.432  11.199
41658W        W 6643  14.982  23.450  11.937
41659W        W 6644   5.811  11.670   4.870
41660W        W 6645  18.158  17.643  13.475
41661W        W 6646  29.533  13.865  13.585
41662W        W 6647  39.378  19.359  14.583
41663W        W 6648  24.039  15.391  13.412
41664W        W 6649  26.196  37.433  10.576
41665W        W 6650  29.446  40.099   4.180
41666W        W 6651  21.514  41.704   0.619
41667W        W 6652   5.330   1.143   4.493
41668W        W 6653   9.163  43.418  11.557
41669W        W 6654   6.585  19.651   0.250
41670W        W 6655   7.760  26.859  10.753
41671W        W 6656  29.340  44.964   4.506
41672W        W 6657  17.295   3.183  13.402
41673W        W 6658  11.188  10.495   0.423
41674W        W 6659  40.883  38.865   0.798
41675W        W 6660  36.798  38.925   0.386
41676W        W 6661   2.254   0.996  13.250
41677W        W 6662  26.156  22.155   3.397
41678W        W 6663   8.047  35.450   0.420
41679W        W 6664  19.799   3.158   4.036
41680W        W 6665  40.749   7.387   0.789
41681W        W 6666  31.037  44.376  13.429
41682W        W 6667   8.673  36.667   3.843
41683W        W 6668   1.667  28.610  12.959
41684W        W 6669  24.137  40.293   2.353
41685W        W 6670  40.901  40.175  10.773
41686W        W 6671  13.256  36.540  14.056
41687W        W 6672   4.745   3.454   0.959
41688W        W 6673   7.354  40.566  10.703
41689W        W 6674  13.033  13.817  10.989
41690W        W 6675  29.947  22.184   4.268
41691W        W 6676   2.377  16.295  11.858
41692W        W 6677  36.315  28.424   0.805
41693W        W 6678  13.604  30.743   1.162
41694W        W 6679   9.282  26.139  13.164
41695W        W 6680  11.783  26.536  10.278
41696W        W 6681   2.241  12.810   0.937
41697W        W 6682  17.847  16.749  11.415
41698W        W 6683  16.503   6.226   1.737
41699W        W 6684  22.222  10.276  14.028
41700W        W 6685  38.337  43.484  10.662
41701W        W 6686  35.270  19.697  11.545
41702W        W 6687  30.850   1.113  10.264
41703W        W 6688  13.606  24.204  14.385
41704W        W 6689  10.091   5.209   1.830
41705W        W 6690   8.352   2.179   3.728
41706W        W 6691   0.387   5.117  13.491
41707W        W 6692  24.017  12.727   0.063
41708W        W 6693  10.352   5.242   0.212
41709W        W 6694  38.864  43.960   4.836
41710W        W 6695  29.942   3.758  13.990
41711W        W 6696   2.246  40.530   1.881
41712W        W 6697   7.304  37.978   4.750
41713W        W 6698  34.617  35.385  12.824
41714W        W 6699  16.724   3.535   1.212
41715W        W 6700  15.847  15.359  10.728
41716W        W 6701  34.778  40.420  13.370
41717W        W 6702   3.772  31.660   4.137
41718W        W 6703  15.914  26.049  11.280
41719W        W 6704  11.692  27.420   0.488
41720W        W 6705  43.019  34.482   2.353
41721W        W 6706   1.638  33.047   0.683
41722W        W 6707  16.065  41.321  14.286
41723W        W 6708   8.876  25.385   3.237
41724W        W 6709  21.152  26.877   1.182
41725W        W 6710  28.191  20.697  14.162
41726W        W 6711  27.109  26.450   4.615
41727W        W 6712  33.041  30.984   2.261
41728W        W 6713  10.894  23.658  12.097
41729W        W 6714  24.969  43.775  11.169
41730W        W 6715  10.303  17.563  11.653
41731W        W 6716  10.745  11.941   0.138
41732W        W 6717   8.366  19.715   2.247
41733W        W 6718  26.293  20.218   4.562
41734W        W 6719   0.324  12.726   2.169
41735W        W 6720   6.644  20.037  11.941
41736W        W 6721  37.104  36.591  11.464
41737W        W 6722  29.575  30.319  11.004
41738W        W 6723   1.715  17.682  10.777
41739W        W 6724  29.595  10.822   3.316
41740W        W 6725  30.817   0.950  12.900
41741W        W 6726  30.578   3.160  14.952
41742W        W 6727  10.144  11.316  12.564
41743W        W 6728  11.430   5.205  13.962
41744W        W 6729  16.828  29.129   2.782
41745W        W 6730  25.735  30.584   2.256
41746W        W 6731  26.595  44.232  13.015
41747W        W 6732   6.833  12.815  14.956
41748W        W 6733  18.173   8.151   0.493
41749W        W 6734  21.423  32.549   2.232
41750W        W 6735  24.486  30.356   1.882
41751W        W 6736  15.106  17.287   0.644
41752W        W 6737  24.567   0.466  13.610
41753W        W 6738  33.629  41.578   1.852
41754W        W 6739   2.007  42.487  12.502
41755W        W 6740  39.294   6.789   1.875
41756W        W 6741  33.957  44.845   4.619
41757W        W 6742  30.190  30.800   3.297
41758W        W 6743  15.739  24.081  10.645
41759W        W 6744  33.681  25.408   3.651
41760W        W 6745  36.517   2.289  14.725
41761W        W 6746  30.721  23.013  12.019
41762W        W 6747  23.062  37.692   0.860
41763W        W 6748  25.689  38.905   3.876
41764W        W 6749  42.392  10.702   1.737
41765W        W 6750  17.790   0.374  13.399
41766W        W 6751  22.124  41.436  14.034
41767W        W 6752  31.476  44.976   0.864
41768W        W 6753   9.633   1.190   3.461
41769W        W 6754  19.531  32.932   1.290
41770W        W 6755  38.950  38.069   2.609
41771W        W 6756   8.552  39.030   1.568
41772W        W 6757  18.292  36.757  10.548
41773W        W 6758  26.738  26.567  14.346
41774W        W 6759  18.856  13.936  10.152
41775W        W 6760  41.608  25.919   2.360
41776W        W 6761  33.891  35.305   4.663
41777W        W 6762   3.218  37.452  10.741
41778W        W 6763  25.703  15.791   2.587
41779W        W 6764  20.218  34.546  13.957
41780W        W 6765   7.682  39.786  14.465
41781W        W 6766  25.652  25.595   0.323
41782W        W 6767   5.750  25.922  10.980
41783W        W 6768  25.595  28.609  12.795
41784W        W 6769  36.432  24.505  10.856
41785W        W 6770  11.578  30.902  10.784
41786W        W 6771  35.711   6.301  11.758
41787W        W 6772  25.605  24.141  14.782
41788W        W 6773   2.824   4.358   4.122
41789W        W 6774   0.522   2.167  13.419
41790W        W 6775  22.019  13.642  13.819
41791W        W 6776   3.461  38.299  11.230
41792W        W 6777  32.584  11.190   1.989
41793W        W 6778  20.545  25.071   2.837
41794W        W 6779   2.780  29.115   3.346
41795W        W 6780  21.945   2.883  11.824
41796W        W 6781  40.476  16.642   3.167
41797W        W 6782  26.144  10.319   2.824
41798W        W 6783  15.583  34.626  13.995
41799W        W 6784  28.861  25.122  11.069
41800W        W 6785  26.454  29.683   3.296
41801W        W 6786   4.116  33.706   1.420
41802W        W 6787  31.415   7.085   1.804
41803W        W 6788  24.351  24.724  13.992
41804W        W 6789   3.939  17.035  11.165
41805W        W 6790   7.188   8.717  12.529
41806W        W 6791  27.122  25.281   3.415
41807W        W 6792  24.085   3.296   4.342
41808W        W 6793  34.051   7.710  13.021
41809W        W 6794  23.012  26.562   3.636
41810W        W 6795  40.777  27.066   3.511
41811W        W 6796   6.733  36.523   1.100
41812W        W 6797  17.248  35.156  11.602
41813W        W 6798  38.337  27.062  10.907
41814W        W 6799   3.281  12.144   3.779
41815W        W 6800   6.620  40.848  12.057
41816W        W 6801   8.137  42.944  12.502
41817W        W 6802  22.824  44.714  12.992
41818W        W 6803  16.229  11.273  10.132
41819W        W 6804  32.332  36.574  13.965
41820W        W 6805  12.897  41.545   0.749
41821W        W 6806  19.794   4.686   2.689
41822W        W 6807  33.345  36.394  11.154
41823W        W 6808  30.770  32.324  13.896
41824W        W 6809  16.660  42.434  12.394
41825W        W 6810  35.158  44.483   1.809
41826W        W 6811   8.200  39.840   4.204
41827W        W 6812  21.499  40.704  11.171
41828W        W 6813   1.939  31.049   1.764
41829W        W 6814  28.046  24.464  14.471
41830W        W 6815  30.453  31.503   3.893
41831W        W 6816  34.428  22.951   4.725
41832W        W 6817  26.481  37.638  12.493
41833W        W 6818   7.324  11.163   3.097
41834W        W 6819  22.753  43.531  11.136
41835W        W 6820  29.839  37.383  11.975
41836W        W 6821  13.736  13.666  12.168
41837W        W 6822  13.244  30.058  13.821
41838W        W 6823  16.471  30.013   2.702
41839W        W 6824  34.302  13.224  13.114
41840W        W 6825   2.578  32.095   2.383
41841W        W 6826  33.034   6.586  12.920
41842W        W 6827  23.822   8.609   0.741
41843W        W 6828  36.489  10.201  10.929
41844W        W 6829  43.046   4.786  11.623
41845W        W 6830  19.556  36.843   1.981
41846W        W 6831  24.145  35.610  13.425
41847W        W 6832  18.051  21.276  14.973
41848W        W 6833  35.867  34.629   0.067
41849W        W 6834  17.166  22.131  11.595
41850W        W 6835  21.264  43.777   3.655
41851W        W 6836  37.108  21.992   2.263
41852W        W 6837  29.854  16.371   1.777
41853W        W 6838  14.591  20.264  13.107
41854W        W 6839  36.029  15.965  14.681
41855W        W 6840  20.448   2.727  14.440
41856W        W 6841   0.394  23.662   3.436
41857W        W 6842  10.604  11.201   1.988
41858W        W 6843  34.582  21.703   2.728
41859W        W 6844   8.517  15.544   0.454
41860W        W 6845  13.312  16.813  14.951
41861W        W 6846  10.114  39.859   1.175
41862W        W 6847  24.694  35.287  10.950
41863W        W 6848  28.889  39.163  14.636
41864W        W 6849   9.926  36.756  11.037
41865W        W 6850   5.417  38.079   1.041
41866W        W 6851  33.153  44.062  12.933
41867W        W 6852  23.930  39.389  10.761
41868W        W 6853  36.926  17.720  13.771
41869W        W 6854  39.888   5.166  13.096
41870W        W 6855  43.460   6.462  14.891
41871W        W 6856  29.463   1.991   3.725
41872W        W 6857  17.888   8.211   2.518
41873W        W 6858  38.957  44.700   0.493
41874W        W 6859  10.206  42.834   4.166
41875W        W 6860  44.688  19.929  13.494
41876W        W 6861  18.308   1.338  14.768
41877W        W 6862  33.960   9.657  10.780
41878W        W 6863   1.899   6.095  13.298
41879W        W 6864  21.055  25.010   2.746
41880W        W 6865  41.528   1.538  11.521
41881W        W 6866  13.802  31.238   1.200
41882W        W 6867  13.015  20.320   2.671
41883W        W 6868  17.487  40.100  11.197
41884W        W 6869  18.088  25.464  10.333
41885W        W 6870  43.676  21.620   2.658
41886W        W 6871  19.719  41.271   2.097
41887W        W 6872   1.982  38.490  14.648
41888W        W 6873   9.169  29.883   0.265
41889W        W 6874  44.870   6.869  12.137
41890W        W 6875  37.560  15.568  14.455
41891W        W 6876  10.776  37.655   0.049
41892W        W 6877  14.045  10.304   3.436
41893W        W 6878  44.155  40.455  12.506
41894W        W 6879  11.575  28.359  13.071
41895W        W 6880  38.809  29.958  11.969
41896W        W 6881   5.450  37.585  12.056
41897W        W 6882  37.081  20.450  12.047
41898W        W 6883  27.712   6.703   1.409
41899W        W 6884  36.552  13.130  11.272
41900W        W 6885  23.216  13.082   1.857
41901W        W 6886  27.898  26.640   1.312
41902W        W 6887  20.302  21.959   1.882
41903W        W 6888  27.664  28.319  10.864
41904W        W 6889  35.531  25.709  13.140
41905W        W 6890  13.321  40.425  11.214
41906W        W 6891  41.018  23.928   5.114
41907W        W 6892  42.492  43.527   1.663
41908W        W 6893  30.983   0.472   2.877
41909W        W 6894  23.744  26.441  10.730
41910W        W 6895   1.241  20.994  14.470
41911W        W 6896  36.474  26.470   2.756
41912W        W 6897  43.284   2.212   4.273
41913W        W 6898  19.611  32.153  12.147
41914W        W 6899  33.960   8.139   2.044
41915W        W 6900  22.324  35.214  12.615
41916W        W 6901  43.030  39.313  11.087
41917W        W 6902  21.660  24.564   2.285
41918W        W 6903   7.644  31.050  13.453
41919W        W 6904  13.947   3.145  11.626
41920W        W 6905  25.643  13.411  10.477
41921W        W 6906  41.046  41.650  14.761
41922W        W 6907  23.085   9.431  12.154
41923W        W 6908   6.972  40.065  11.602
41924W        W 6909  37.023  42.741   2.340
41925W        W 6910  43.831  26.853  13.755
41926W        W 6911  20.642  13.113   1.838
41927W        W 6912  26.027  37.948   3.138
41928W        W 6913  34.139   2.036   1.830
41929W        W 6914  24.635  10.204  13.088
41930W        W 6915  16.114  20.305  13.167
41931W        W 6916  21.088  31.818   3.146
41932W        W 6917   9.621  43.440  13.882
41933W        W 6918  44.837   9.673  11.589
41934W        W 6919  38.957  31.889   2.722
41935W        W 6920  36.844  23.943   3.267
41936W        W 6921  32.241   1.891   1.861
41937W        W 6922  23.667   0.238  14.043
41938W        W 6923  26.492  22.119   4.359
41939W        W 6924  11.121  13.904   4.174
41940W        W 6925  18.987   3.337   1.285
41941W        W 6926   6.726  22.726   2.527
41942W        W 6927  36.985   5.767  12.732
41943W        W 6928  22.850  28.192   2.878
41944W        W 6929  21.041  42.261  13.813
41945W        W 6930  39.814  32.049  10.881
41946W        W 6931  42.055  13.400   2.789
41947W        W 6932   8.802  34.333   4.195
41948W        W 6933  11.030  42.258  11.109
41949W        W 6934  13.300   6.754   4.990
41950W        W 6935  11.559  13.093  10.244
41951W        W 6936  41.503  35.579  10.768
41952W        W 6937  41.453   9.028  12.363
41953W        W 6938  15.820  20.162  10.641
41954W        W 6939  43.600  37.256  11.180
41955W        W 6940  27.511  36.892   2.005
41956W        W 6941  31.110  17.191   0.355
41957W        W 6942  11.186  14.121   2.382
41958W        W 6943  28.267  18.093   1.833
41959W        W 6944  22.420  28.543   4.653
41960W        W 6945  42.093   3.650  14.332
41961W        W 6946  30.347  28.133  11.894
41962W        W 6947  22.339  33.139   4.942
41963W        W 6948  20.318  14.823  11.075
41964W        W 6949  21.611  13.371   1.854
41965W        W 6950  32.960   5.329  10.299
41966W        W 6951   0.750  15.320  13.569
41967W        W 6952  13.879  32.159  14.810
41968W        W 6953  20.983  18.557  13.608
41969W        W 6954  33.366  29.251   2.178
41970W        W 6955   5.881  40.834   3.274
41971W        W 6956  15.697  27.888   2.781
41972W        W 6957  44.225  18.177   1.293
41973W        W 6958   1.275  34.602   1.495
41974W        W 6959   8.284  21.214   3.576
41975W        W 6960  44.276  28.858  12.280
41976W        W 6961  28.652  41.502   2.664
41977W        W 6962  38.617   2.515  13.339
41978W        W 6963  41.303  33.877  12.884
41979W        W 6964  20.446   9.426   0.698
41980W        W 6965   7.863  24.603  11.641
41981W        W 6966  44.292  20.277   5.013
41982W        W 6967  29.991  16.219  14.428
41983W        W 6968   7.947  17.850  13.359
41984W        W 6969  41.963  25.749   3.171
41985W        W 6970  40.264  34.519  14.076
41986W        W 6971  20.264   5.434   4.640
41987W        W 6972  38.954  24.674   9.889
41988W        W 6973  23.187  23.972   3.701
41989W        W 6974  17.773  28.590   2.464
41990W        W 6975  32.215  10.223   2.341
41991W        W 6976   5.526  38.197  13.841
41992W        W 6977  18.014  40.329  14.359
41993W        W 6978  18.856   1.329   1.920
41994W        W 6979  30.446  23.437   4.141
41995W        W 6980  31.053  44.918   4.866
41996W        W 6981  19.713  35.521  12.586
41997W        W 6982  38.015  20.828  12.604
41998W        W 6983  23.496  15.859   4.600
41999W        W 6984  39.331  21.243  14.199
42000W        W 6985  17.232  24.882   1.652
42001W        W 6986  26.966  10.502   1.155
42002W        W 6987   1.032  22.452   3.305
42003W        W 6988  43.504  31.127   3.285
42004W        W 6989  20.378  36.384  10.855
42005W        W 6990   4.748  30.403   3.591
42006W        W 6991  26.451  18.026  11.196
42007W        W 6992  26.278  24.969   0.004
42008W        W 6993  40.110  35.269  14.237
42009W        W 6994  18.081  24.589   0.326
42010W        W 6995  37.894  33.270   4.305
42011W        W 6996  26.277  27.198   0.689
42012W        W 6997   4.468  33.876   1.759
42013W        W 6998  31.069   6.234  10.825
42014W        W 6999  39.147   1.034   1.890
42015W        W 7000  24.949  29.176  13.824
42016W        W 7001  11.330  40.841   4.537
42017W        W 7002  13.656   5.679  10.718
42018W        W 7003  26.965  23.209  13.863
42019W        W 7004   9.310  40.444  11.609
42020W        W 7005  16.154   8.920  13.440
42021W        W 7006  33.666  25.681   1.103
42022W        W 7007  15.855  39.419   0.258
42023W        W 7008  34.077  18.361  13.992
42024W        W 7009   4.837  16.644   4.851
42025W        W 7010   8.764   4.579   4.196
42026W        W 7011   8.833  27.888   4.472
42027W        W 7012  25.708  10.682   4.899
42028W        W 7013  31.865  18.725  10.812
42029W        W 7014   2.462  25.625   1.461
42030W        W 7015  29.376  19.074   3.390
42031W        W 7016  38.824  34.878   4.555
42032W        W 7017  33.989  28.172  13.425
42033W        W 7018  43.267  27.455  12.365
42034W        W 7019  10.320  25.485  14.280
42035W        W 7020  35.227  11.248  14.353
42036W        W 7021  19.065   9.571   0.510
42037W        W 7022  11.337  26.146  12.856
42038W        W 7023  26.028  14.423   0.787
42039W        W 7024  20.157  36.143  14.644
42040W        W 7025  26.952  42.708  12.975
42041W        W 7026   4.805   0.475   1.936
42042W        W 7027  26.778  16.188   0.524
42043W        W 7028  10.478   2.918  11.752
42044W        W 7029   0.953  30.035   3.691
42045W        W 7030   7.957  36.098  14.430
42046W        W 7031  12.296  27.895  13.486
42047W        W 7032   7.654  23.047   3.487
42048W        W 7033   2.039   4.418  11.207
42049W        W 7034  12.339   4.172  14.090
42050W        W 7035  37.423  20.663   0.963
42051W        W 7036  40.063  23.784  13.467
42052W        W 7037  29.578  10.748   4.247
42053W        W 7038   1.391  19.350   0.756
42054W        W 7039   0.774  44.782  10.515
42055W        W 7040  14.695  10.752  10.741
42056W        W 7041  40.337  31.436  11.987
42057W        W 7042  23.077  20.773  13.527
42058W        W 7043   0.329  39.013  12.457
42059W        W 7044  24.461  17.801  12.500
42060W        W 7045  27.577  44.202  13.673
42061W        W 7046  28.396  16.113   1.705
42062W        W 7047  28.922  18.486   4.134
42063W        W 7048  22.126   5.813  11.912
42064W        W 7049  19.584  30.961  13.263
42065W        W 7050  12.825  33.551   0.765
42066W        W 7051  40.711  20.278  14.917
42067W        W 7052  28.588  27.113   1.839
42068W        W 7053  32.157  24.985   0.954
42069W        W 7054  10.274  22.496  14.422
42070W        W 7055   2.186   1.839  13.931
42071W        W 7056  29.951  44.237  14.951
42072W        W 7057  21.427  41.873   2.349
42073W        W 7058  37.667  13.999   2.477
42074W        W 7059  41.906  24.057   4.429
42075W        W 7060  27.662  24.623  11.209
42076W        W 7061  24.703  42.260  12.989
42077W        W 7062  40.289  19.690   2.932
42078W        W 7063  44.058   6.290   2.438
42079W        W 7064   0.002  31.295   2.469
42080W        W 7065  20.200  11.825   4.860
42081W        W 7066  41.103  36.457  10.969
42082W        W 7067  25.580   5.820  14.416
42083W        W 7068  42.798  13.812   5.063
42084W        W 7069  28.482   2.978   1.185
42085W        W 7070   4.752   7.818   2.421
42086W        W 7071  31.590  17.151  13.554
42087W        W 7072  42.465  42.997  14.854
42088W        W 7073   6.696   7.892  12.870
42089W        W 7074  30.674  37.903  14.843
42090W        W 7075   7.232  16.662   3.841
42091W        W 7076  11.251  41.366   2.363
42092W        W 7077   0.850  21.090  10.580
42093W        W 7078  24.543   3.736  12.013
42094W        W 7079  10.798  32.045   2.550
42095W        W 7080   0.266  38.889   3.118
42096W        W 7081  12.034  11.151  14.365
42097W        W 7082   2.932  36.938   3.352
42098W        W 7083  23.617   3.204  13.824
42099W        W 7084   2.718  15.779   1.727
42100W        W 7085  33.404  17.728   0.367
42101W        W 7086  22.085   8.188  11.550
42102W        W 7087  21.993  21.265  11.680
42103W        W 7088   7.364  37.313  12.207
42104W        W 7089  18.135  31.477  11.228
42105W        W 7090  21.828  32.608  10.218
42106W        W 7091  14.878  31.228   0.921
42107W        W 7092  14.413   7.954   2.808
42108W        W 7093  11.353   5.066   3.786
42109W        W 7094  10.800   2.038   0.643
42110W        W 7095  44.483   6.321   3.373
42111W        W 7096   1.533  23.065  13.034
42112W        W 7097  17.611  44.852  11.157
42113W        W 7098  17.820  30.176  14.340
42114W        W 7099  22.386  39.319  12.129
42115W        W 7100  21.207  39.718   2.116
42116W        W 7101  39.818  17.602   2.639
42117W        W 7102  31.569  33.624   1.715
42118W        W 7103  41.579  20.132  14.475
42119W        W 7104  13.837  12.541   3.360
42120W        W 7105  41.396   5.287   0.359
42121W        W 7106   6.469   4.275  12.807
42122W        W 7107  26.929   3.682   1.287
42123W        W 7108  28.221   2.172  12.502
42124W        W 7109   7.199  31.831   1.787
42125W        W 7110  26.488  32.123   1.920
42126W        W 7111  42.951  40.086  14.813
42127W        W 7112  22.933  13.123  12.953
42128W        W 7113   1.352   3.832   4.683
42129W        W 7114   5.869  39.794  13.919
42130W        W 7115   0.742  12.216   0.360
42131W        W 7116   5.418  19.118   4.393
42132W        W 7117  12.184  19.593  11.528
42133W        W 7118  22.657  30.602  14.570
42134W        W 7119  44.328   2.435   0.863
42135W        W 7120  16.318  13.565  13.610
42136W        W 7121   4.497   0.014  13.733
42137W        W 7122   7.477  44.720  12.901
42138W        W 7123  29.725   8.958   0.485
42139W        W 7124  13.625  28.185  12.453
42140W        W 7125  15.831  20.375   3.245
42141W        W 7126  16.241  44.196   3.336
42142W        W 7127  32.456  27.456   3.411
42143W        W 7128  14.652  16.635   4.208
42144W        W 7129   9.108  26.006  14.991
42145W        W 7130   1.001  39.284  13.083
42146W        W 7131  32.001  26.628   4.690
42147W        W 7132  29.102  34.219  13.443
42148W        W 7133  42.139  41.005  14.314
42149W        W 7134  24.706  43.058  12.444
42150W        W 7135   5.806   9.168  11.486
42151W        W 7136  35.660  30.546   2.155
42152W        W 7137  44.910  25.779   4.041
42153W        W 7138  26.337  29.704   4.790
42154W        W 7139  11.902  17.275  12.721
42155W        W 7140   9.910  12.732  11.647
42156W        W 7141  28.964  32.565   4.103
42157W        W 7142   6.662  21.549  12.095
42158W        W 7143  34.452   3.352   0.366
42159W        W 7144  36.458  13.353  13.465
42160W        W 7145  14.641  29.577  14.807
42161W        W 7146  22.927  38.120  11.131
42162W        W 7147  35.821  42.907  14.016
42163W        W 7148  35.823  35.528  14.870
42164W        W 7149   0.846  16.518   3.817
42165W        W 7150  10.625   1.352   2.601
42166W        W 7151  39.458  38.593  13.551
42167W        W 7152  22.960  26.614  10.899
42168W        W 7153   8.175  44.730  13.816
42169W        W 7154  40.541   0.420   2.263
42170W        W 7155   4.954   0.742   2.404
42171W        W 7156  36.460  12.887   0.245
42172W        W 7157  11.290   8.977   0.328
42173W        W 7158  38.499  14.338  11.287
42174W        W 7159  13.675  19.935  11.324
42175W        W 7160  27.670   4.458   0.294
42176W        W 7161  39.747  40.078   1.766
42177W        W 7162  39.262  21.398  13.310
42178W        W 7163  36.297  37.911   0.219
42179W        W 7164  20.638   4.439  10.845
42180W        W 7165  10.877  18.617   4.774
42181W        W 7166  42.108  35.189  12.131
42182W        W 7167   6.716  24.145  11.708
42183W        W 7168  42.014   6.250  13.539
42184W        W 7169   1.330  20.086  10.780
42185W        W 7170  19.961  18.076   5.247
42186W        W 7171  18.739  24.605  14.507
42187W        W 7172  20.317  30.958   1.785
42188W        W 7173  36.519  27.667   2.214
42189W        W 7174  40.326  10.861  13.920
42190W        W 7175  22.684  31.097   0.718
42191W        W 7176  17.680  22.146  11.659
42192W        W 7177   1.771  31.012  11.248
42193W        W 7178  42.530  29.986   4.438
42194W        W 7179  23.404   7.866   0.130
42195W        W 7180   0.743  20.630  13.835
42196W        W 7181  30.409  37.986   0.279
42197W        W 7182  13.327  27.619   3.126
42198W        W 7183  33.684  37.937   3.396
42199W        W 7184  27.925   8.758  12.937
42200W        W 7185  18.622  33.855   2.966
42201W        W 7186  24.604  30.469  12.148
42202W        W 7187   0.231  40.364  10.762
42203W        W 7188  13.537   8.662   4.170
42204W        W 7189   3.951   5.806  14.851
42205W        W 7190   3.602   3.819   0.230
42206W        W 7191   6.935  31.589  13.410
42207W        W 7192   3.478   6.435  12.021
42208W        W 7193  14.074  27.005   3.119
42209W        W 7194  43.785  38.799   2.080
42210W        W 7195   4.586  43.171   1.834
42211W        W 7196  28.653   9.786  12.361
42212W        W 7197  35.143  20.125   1.821
42213W        W 7198   3.503  31.341   0.954
42214W        W 7199  14.229  33.928   4.107
42215W        W 7200  15.440  21.391   0.315
42216W        W 7201  10.814   6.204   0.319
42217W        W 7202  22.214  16.288   0.902
42218W        W 7203  13.808  31.609  11.173
42219W        W 7204   0.879   6.230   4.558
42220W        W 7205  15.330  11.377   3.185
42221W        W 7206  27.490  31.844  14.284
42222W        W 7207  27.715  38.971   4.072
42223W        W 7208  16.111  25.508  10.726
42224W        W 7209  39.263  18.538   4.618
42225W        W 7210  31.785   5.766  13.880
42226W        W 7211   4.382  34.103  14.887
42227W        W 7212  39.053   9.556   2.322
42228W        W 7213  20.299  43.534   2.670
42229W        W 7214  14.191   3.437  11.237
42230W        W 7215  13.253  18.269  12.580
42231W        W 7216  16.323  11.828   2.666
42232W        W 7217  19.194  23.704  12.673
42233W        W 7218  23.393   0.419  13.033
42234W        W 7219   4.936  29.887   3.290
42235W        W 7220  35.997   4.226  12.977
42236W        W 7221  39.384  20.794   3.837
42237W        W 7222  15.295  24.702  13.518
42238W        W 7223  35.466  13.846   0.895
42239W        W 7224  15.206  28.170  12.944
42240W        W 7225  17.936  44.216  12.453
42241W        W 7226  22.615  43.026  14.145
42242W        W 7227   0.987  26.094  14.874
42243W        W 7228  35.917  32.075   3.673
42244W        W 7229  41.987   0.700  12.342
42245W        W 7230  34.535  22.010   0.475
42246W        W 7231  40.986  31.649   0.928
42247W        W 7232  21.166  41.733  12.174
42248W        W 7233   0.456  39.262   3.414
42249W        W 7234  31.893  35.026  11.701
42250W        W 7235  35.422   5.697   3.745
42251W        W 7236  26.608  40.458   3.816
42252W        W 7237  12.264   5.198  10.640
42253W        W 7238  16.297  41.878  13.831
42254W        W 7239  25.149   1.023  13.517
42255W        W 7240  26.249  14.646  14.070
42256W        W 7241  15.107  20.279   3.844
42257W        W 7242  14.046  21.608   4.066
42258W        W 7243  24.129  31.364   2.588
42259W        W 7244  24.540  32.462  12.058
42260W        W 7245  10.416  25.998  14.127
42261W        W 7246  24.517  23.029   4.460
42262W        W 7247  25.502  35.015   4.664
42263W        W 7248  20.408   9.966  14.479
42264W        W 7249  44.493  42.182  12.820
42265W        W 7250  43.556  34.133  10.270
42266W        W 7251  34.060  35.076   1.783
42267W        W 7252  10.862  17.130  14.727
42268W        W 7253  38.017  15.052  14.854
42269W        W 7254  30.715  21.205  14.827
42270W        W 7255   3.493  13.902   3.319
42271W        W 7256  31.157  20.300  12.348
42272W        W 7257  34.901  14.950  14.695
42273W        W 7258  17.624  13.769   4.099
42274W        W 7259  35.181  14.795   3.246
42275W        W 7260  29.117  11.157   1.892
42276W        W 7261  15.078   4.764  12.292
42277W        W 7262   7.349   8.399  13.892
42278W        W 7263  10.204  36.090   0.027
42279W        W 7264  14.614   6.325   4.985
42280W        W 7265  17.166  12.516  14.520
42281W        W 7266  16.236   4.245  11.100
42282W        W 7267   3.767   7.170  14.363
42283W        W 7268  38.591   1.225  11.932
42284W        W 7269   0.830  10.285  12.510
42285W        W 7270  38.847  27.414   2.101
42286W        W 7271  12.561  18.233   2.496
42287W        W 7272  15.643  17.568   3.124
42288W        W 7273   9.699  20.781  14.961
42289W        W 7274  19.292  35.090  13.080
42290W        W 7275  35.845  35.343   2.435
42291W        W 7276  41.273  34.891  12.419
42292W        W 7277  40.827  17.661  13.572
42293W        W 7278  40.924   8.948   4.460
42294W        W 7279  41.341  21.801   3.717
42295W        W 7280  40.466  17.575   3.144
42296W        W 7281  27.310  17.820   0.297
42297W        W 7282   7.143   4.417  14.919
42298W        W 7283  33.307  12.802   2.668
42299W        W 7284  20.462  10.082   2.871
42300W        W 7285  33.695  21.577   2.224
42301W        W 7286  42.523  26.062  10.350
42302W        W 7287   4.197  36.333   0.225
42303W        W 7288   8.696  14.164  12.351
42304W        W 7289  43.066  44.268   2.796
42305W        W 7290  27.588  39.771   0.777
42306W        W 7291  18.301  17.031  13.816
42307W        W 7292  38.470  30.728   4.665
42308W        W 7293  36.670   7.544  12.086
42309W        W 7294  15.698  12.798   4.485
42310W        W 7295  21.131  20.050  12.069
42311W        W 7296  42.326  37.100  14.114
42312W        W 7297  15.545  30.070  14.556
42313W        W 7298   6.180   7.825   3.392
42314W        W 7299  17.169  14.876  14.500
42315W        W 7300  24.796  29.846  11.508
42316W        W 7301   2.143  40.774  13.019
42317W        W 7302  41.788  28.856   4.614
42318W        W 7303  32.026   7.806  10.715
42319W        W 7304  37.988   0.043   0.479
42320W        W 7305   9.628  20.676   3.397
42321W        W 7306   2.719   0.516  13.953
42322W        W 7307   5.491  38.454  11.065
42323W        W 7308  31.348  23.497  14.457
42324W        W 7309   7.717   3.352  10.263
42325W        W 7310  31.731  39.199  11.517
42326W        W 7311  32.629  32.876   2.738
42327W        W 7312  25.440  21.964   0.888
42328W        W 7313  35.991   8.956   1.723
42329W        W 7314  41.436  12.869   3.451
42330W        W 7315  44.136  17.343  13.099
42331W        W 7316  30.465  26.070  12.444
42332W        W 7317   9.192  41.301  14.989
42333W        W 7318   0.786  16.596  10.448
42334W        W 7319  43.934  26.274   4.195
42335W        W 7320   1.432  26.043   3.665
42336W        W 7321   6.084   9.852  12.112
42337W        W 7322  12.368  10.901  14.709
42338W        W 7323  37.909   5.691  11.456
42339W        W 7324  33.530  18.994  12.473
42340W        W 7325  13.488   5.903  12.854
42341W        W 7326  12.556  44.204   0.392
42342W        W 7327  26.551  27.154  12.124
42343W        W 7328  38.382  37.096   0.233
42344W        W 7329  44.985  24.137   1.854
42345W        W 7330   4.700  42.061  12.161
42346W        W 7331  23.206  39.870   1.258
42347W        W 7332   6.539   7.768  11.575
42348W        W 7333  44.893   7.920   1.928
42349W        W 7334  14.879  40.954   1.200
42350W        W 7335  12.418  41.769   1.264
42351W        W 7336   4.383   4.315   1.145
42352W        W 7337  29.631  35.053  13.906
42353W        W 7338   6.144   2.427   0.816
42354W        W 7339   7.793  41.358   1.297
42355W        W 7340  28.538   0.184   1.697
42356W        W 7341  28.465   5.493  13.321
42357W        W 7342  33.836  40.391   1.926
42358W        W 7343  34.347  25.489   0.456
42359W        W 7344  14.776  11.259   2.310
42360W        W 7345  16.160  37.177   1.094
42361W        W 7346   7.160  40.897   3.761
42362W        W 7347  18.105  39.841  12.244
42363W        W 7348  12.311  34.563   3.416
42364W        W 7349  25.258  14.268   3.718
42365W        W 7350  10.806  37.554  12.398
42366W        W 7351  18.173  35.138  12.084
42367W        W 7352  25.137  44.324  13.812
42368W        W 7353  36.565  40.354  13.585
42369W        W 7354   5.451  24.732   3.110
42370W        W 7355  28.091  21.552  10.442
42371W        W 7356   9.685  44.337   3.564
42372W        W 7357  40.964  38.359  11.924
42373W        W 7358  34.267  29.900  13.008
42374W        W 7359  19.643  21.540   1.500
42375W        W 7360  42.307   7.693   0.375
42376W        W 7361  17.009  18.695   4.392
42377W        W 7362  11.684  39.953   4.574
42378W        W 7363  18.547  38.059  12.455
42379W        W 7364  33.145  21.689  11.049
42380W        W 7365  19.614  13.696  11.692
42381W        W 7366  23.415  36.706  11.144
42382W        W 7367  42.080   3.027   1.983
42383W        W 7368  38.074  12.607   0.394
42384W        W 7369  41.267  26.942   0.919
42385W        W 7370  31.857  22.123   3.079
42386W        W 7371  44.470   9.758   2.336
42387W        W 7372  16.940  28.561  10.446
42388W        W 7373   9.394   4.178   2.178
42389W        W 7374  21.014  43.765  11.422
42390W        W 7375  15.835  37.957  14.853
42391W        W 7376   4.723  40.514  11.640
42392W        W 7377   8.514  18.770  12.034
42393W        W 7378  44.531  24.907   4.283
42394W        W 7379   9.667  29.904  14.901
42395W        W 7380   5.963  26.985  12.099
42396W        W 7381   9.434  13.858   0.361
42397W        W 7382   8.315   9.865   3.326
42398W        W 7383  31.009   7.306   4.187
42399W        W 7384  29.638  22.157  14.152
42400W        W 7385  22.020   7.819   2.297
42401W        W 7386  26.625  16.167   4.507
42402W        W 7387   1.784  13.207  12.466
42403W        W 7388   7.833   1.002  11.641
42404W        W 7389  31.568  41.294   0.011
42405W        W 7390  14.265  33.296  11.968
42406W        W 7391  34.486  14.358  12.459
42407W        W 7392  35.434  36.161  11.756
42408W        W 7393  37.877   6.324   1.886
42409W        W 7394  41.125   0.930  13.521
42410W        W 7395  15.303  24.420  11.993
42411W        W 7396   5.888   5.637  14.850
42412W        W 7397  39.590  25.258  13.835
42413W        W 7398   4.753  44.537   0.876
42414W        W 7399  38.840   0.025   1.946
42415W        W 7400   9.679  29.309   1.300
42416W        W 7401  41.494   9.167   3.366
42417W        W 7402  17.204  29.152   5.049
42418W        W 7403  18.166  17.077   3.326
42419W        W 7404   8.694  23.264   1.008
42420W        W 7405  18.776  18.675   1.871
42421W        W 7406  12.264  15.711   0.192
42422W        W 7407  29.009  15.634  12.932
42423W        W 7408  36.934   8.888   5.436
42424W        W 7409  21.482  29.432  11.163
42425W        W 7410  18.837   8.141  11.105
42426W        W 7411  13.238  30.903  13.795
42427W        W 7412  33.017   7.719  12.061
42428W        W 7413   9.078  38.882  13.195
42429W        W 7414  41.518  19.027   4.124
42430W        W 7415  17.631  31.501   1.907
42431W        W 7416  17.857  11.514   1.310
42432W        W 7417  38.129  11.712  12.948
42433W        W 7418  26.026  39.762   2.447
42434W        W 7419  39.545  30.876   0.688
42435W        W 7420  25.742  15.991  13.938
42436W        W 7421  21.942  14.382   2.043
42437W        W 7422  39.380  18.509  10.256
42438W        W 7423  27.484  26.637  12.453
42439W        W 7424  32.738  33.995  11.535
42440W        W 7425  36.441  22.066   0.868
42441W        W 7426  34.652   8.169  14.362
42442W        W 7427  37.069  34.855  11.653
42443W        W 7428  10.363  17.831   3.394
42444W        W 7429  24.412   7.414  11.149
42445W        W 7430  25.104  26.107   3.488
42446W        W 7431   9.818  39.858   2.683
42447W        W 7432  16.672   4.133   4.470
42448W        W 7433  40.300  35.102  12.127
42449W        W 7434  30.376  44.300   4.568
42450W        W 7435  29.732  21.042   3.041
42451W        W 7436   9.795  23.968  13.501
42452W        W 7437  24.652  32.110  13.914
42453W        W 7438  28.190  15.603   4.077
42454W        W 7439  23.052  37.621  11.175
42455W        W 7440  32.279  34.783   3.201
42456W        W 7441  40.931  39.976   4.393
42457W        W 7442  36.986  27.674   2.440
42458W        W 7443  14.727  30.601   3.844
42459W        W 7444   1.895  36.033  10.752
42460W        W 7445  15.739  22.947   4.591
42461W        W 7446  33.292   2.409  12.575
42462W        W 7447   0.590  13.574  12.822
42463W        W 7448  32.923  38.994  10.486
42464W        W 7449   0.839  32.464  11.740
42465W        W 7450  13.327   1.461  11.519
42466W        W 7451  24.601  21.204   2.351
42467W        W 7452  21.732  19.987   1.798
42468W        W 7453  31.617  13.342  10.500
42469W        W 7454   6.988  44.863   1.268
42470W        W 7455  38.239  20.676   3.581
42471W        W 7456  29.924  33.626  12.219
42472W        W 7457  39.278  11.866  12.493
42473W        W 7458   4.601  15.208   2.759
42474W        W 7459  16.784  12.588  13.322
42475W        W 7460  44.740  36.856  14.878
42476W        W 7461   0.108  10.423  11.860
42477W        W 7462  30.815  19.226  14.139
42478W        W 7463   0.496  18.191   3.076
42479W        W 7464   9.743  31.034   0.076
42480W        W 7465  16.438  29.626   5.084
42481W        W 7466  42.544  34.277   4.945
42482W        W 7467   8.591  25.913   4.574
42483W        W 7468  43.981   5.440  13.498
42484W        W 7469  35.184  22.940   2.423
42485W        W 7470  15.815  39.903  12.546
42486W        W 7471  27.523   5.848   4.804
42487W        W 7472   1.299  27.349  14.491
42488W        W 7473  43.023   2.991  12.170
42489W        W 7474  41.808   9.223   0.694
42490W        W 7475   9.408  37.838   3.343
42491W        W 7476  12.363  41.394  12.387
42492W        W 7477   8.410  35.182   1.156
42493W        W 7478  38.511   0.723   3.596
42494W        W 7479   5.425  16.229   2.578
42495W        W 7480  36.437   4.454   2.277
42496W        W 7481   2.851  44.746  10.764
42497W        W 7482   2.285  21.071  13.036
42498W        W 7483  28.614  33.165  11.220
42499W        W 7484  31.605  27.955  13.446
42500W        W 7485  12.888  18.018  12.348
42501W        W 7486   1.301   8.667   1.736
42502W        W 7487  36.479   1.322   1.355
42503W        W 7488   7.424  15.346   4.165
42504W        W 7489  13.119  42.976  11.322
42505W        W 7490   0.417   8.776  13.759
42506W        W 7491  36.412   7.856  10.750
42507W        W 7492  35.747  32.563  11.610
42508W        W 7493   3.902   5.366  13.843
42509W        W 7494  37.906   5.723  13.351
42510W        W 7495  31.220   3.339   3.757
42511W        W 7496   9.595  30.538  11.812
42512W        W 7497   7.698  29.492   4.896
42513W        W 7498  22.226  18.589   2.154
42514W        W 7499  42.862  21.918  13.303
42515W        W 7500   2.845  23.266  13.847
42516W        W 7501  34.969  11.001   3.629
42517W        W 7502  40.078  22.526   2.393
42518W        W 7503  21.788  38.275  13.020
42519W        W 7504  34.377   7.264  13.016
42520W        W 7505  38.865  13.575  10.658
42521W        W 7506  34.454  38.525   4.375
42522W        W 7507  42.204  25.979   1.678
42523W        W 7508  17.863  25.652   3.413
42524W        W 7509  40.908  13.462   1.413
42525W        W 7510   3.895  24.280   2.925
42526W        W 7511  41.897  25.656  12.095
42527W        W 7512   3.361  28.688  13.502
42528W        W 7513   1.313   0.927   4.705
42529W        W 7514   7.907   9.261  11.109
42530W        W 7515  17.757  18.231  14.519
42531W        W 7516  24.101  23.490   3.769
42532W        W 7517  11.601   7.122   1.655
42533W        W 7518  20.739  42.971   1.856
42534W        W 7519   7.262  25.979  11.510
42535W        W 7520  19.189  25.213  12.921
42536W        W 7521  21.771  14.220  13.170
42537W        W 7522   4.964  20.591   0.312
42538W        W 7523  24.259   7.924  12.421
42539W        W 7524  19.491  19.371   0.763
42540W        W 7525  14.406  30.961   2.843
42541W        W 7526  34.137   0.296  14.791
42542W        W 7527  30.516  24.973  11.999
42543W        W 7528  15.301   9.909   3.528
42544W        W 7529  33.359  27.582  12.043
42545W        W 7530  40.780  41.052   3.600
42546W        W 7531   1.323   1.000  13.131
42547W        W 7532  31.814  19.407  11.562
42548W        W 7533  29.630  43.324   3.579
42549W        W 7534  12.906  26.702  11.554
42550W        W 7535   9.295  21.795   1.333
42551W        W 7536  17.176   9.375  11.403
42552W        W 7537   0.503  18.888  12.357
42553W        W 7538  34.174  41.848   4.078
42554W        W 7539  22.277  10.746  13.844
42555W        W 7540   4.208  21.026   0.747
42556W        W 7541  25.842  18.543  12.362
42557W        W 7542  38.116  32.149   1.431
42558W        W 7543  12.723  13.164  12.558
42559W        W 7544  24.996  16.545  14.762
42560W        W 7545  20.501  31.315  12.050
42561W        W 7546  43.489   3.446   1.259
42562W        W 7547  35.934  10.718   0.998
42563W        W 7548  35.852   1.290   2.653
42564W        W 7549   7.260  13.220  12.876
42565W        W 7550  32.785  26.014   2.318
42566W        W 7551  42.962  30.965  14.023
42567W        W 7552  22.531  40.774   1.743
42568W        W 7553  31.043  25.606   0.604
42569W        W 7554   4.909   5.920   4.933
42570W        W 7555  29.503  30.987   2.738
42571W        W 7556  10.826  41.735   0.385
42572W        W 7557  44.423  23.430   4.122
42573W        W 7558  34.928   1.493   2.358
42574W        W 7559  13.218  29.545  12.543
42575W        W 7560  42.821   0.630   0.231
42576W        W 7561  28.146  28.168   2.875
42577W        W 7562  20.457  29.928   3.170
42578W        W 7563   9.159  18.100  13.935
42579W        W 7564  32.350  12.874  11.536
42580W        W 7565  28.046   2.963  14.505
42581W        W 7566  20.919   0.380  10.165
42582W        W 7567   2.696  39.479  14.253
42583W        W 7568  38.337  19.969   3.775
42584W        W 7569  14.076  33.240  13.551
42585W        W 7570  17.204   1.996   2.754
42586W        W 7571  37.994  35.920  10.862
42587W        W 7572  27.756   3.765  13.291
42588W        W 7573  17.430  28.392   2.831
42589W        W 7574  31.118  43.499  12.078
42590W        W 7575  10.644  19.222  11.810
42591W        W 7576  28.538  31.407  14.914
42592W        W 7577   0.353  21.137  10.847
42593W        W 7578  44.452  29.188  12.623
42594W        W 7579  26.035   7.440  14.298
42595W        W 7580  42.000  25.950  10.233
42596W        W 7581  41.942  10.907  14.977
42597W        W 7582   8.064   1.889  14.994
42598W        W 7583  29.658  42.361   3.581
42599W        W 7584  27.446  14.312   2.795
42600W        W 7585  43.969  18.135   4.600
42601W        W 7586  33.582  22.703   0.829
42602W        W 7587   4.875  37.606   2.719
42603W        W 7588  36.017   7.842  12.509
42604W        W 7589  38.348  31.024   1.478
42605W        W 7590  10.649  42.425  14.825
42606W        W 7591  23.844  44.514   3.196
42607W        W 7592  36.396  30.239  13.852
42608W        W 7593  21.763  19.737   3.867
42609W        W 7594  25.561   4.612   4.031
42610W        W 7595  20.792   9.677   4.696
42611W        W 7596  41.749  39.793  13.477
42612W        W 7597  40.713  31.373   2.627
42613W        W 7598   4.371  36.506   3.620
42614W        W 7599  17.296  40.931   4.191
42615W        W 7600  28.059  39.350   1.607
42616W        W 7601  23.346  15.685  13.985
42617W        W 7602  13.402  19.908  12.664
42618W        W 7603  10.116  23.021   1.241
42619W        W 7604  14.328   9.904  14.421
42620W        W 7605  12.437  15.780  12.932
42621W        W 7606  29.451  28.038  10.671
42622W        W 7607  37.015  12.823  14.954
42623W        W 7608  43.334   8.660   5.038
42624W        W 7609  33.475   3.180  10.115
42625W        W 7610   5.750  19.180  10.973
42626W        W 7611  40.029  14.061   1.915
42627W        W 7612  44.213  10.452  13.901
42628W        W 7613  17.218   9.472   4.631
42629W        W 7614  25.004   6.861  11.990
42630W        W 7615  35.539   3.265   4.128
42631W        W 7616  33.093  36.796  13.956
42632W        W 7617  16.865  39.338  14.235
42633W        W 7618  23.064  12.912   2.326
42634W        W 7619   6.807   8.824  12.860
42635W        W 7620  40.380  22.258  11.522
42636W        W 7621  16.839  22.994   2.796
42637W        W 7622  17.875  25.022   3.576
42638W        W 7623  18.685   3.070   2.278
42639W        W 7624  36.544  17.066   4.072
42640W        W 7625  18.541  36.306   4.169
42641W        W 7626  35.277  29.023  11.546
42642W        W 7627  27.104   1.247   1.369
42643W        W 7628  20.662   3.810  11.112
42644W        W 7629  28.200  13.671  11.125
42645W        W 7630  25.735  44.761   5.013
42646W        W 7631  34.364  28.835   3.592
42647W        W 7632  41.220  15.077   9.817
42648W        W 7633  27.883  28.841   0.001
42649W        W 7634  22.628  32.700  13.481
42650W        W 7635  15.104  33.082   2.799
42651W        W 7636  18.524  23.620   2.465
42652W        W 7637  14.895  37.159   1.388
42653W        W 7638   8.247  30.140   0.920
42654W        W 7639  14.165   5.294   0.606
42655W        W 7640  17.696   6.735   1.632
42656W        W 7641   0.481  43.993  12.839
42657W        W 7642  22.468  29.464   4.666
42658W        W 7643  27.397  33.319  11.163
42659W        W 7644  24.721   6.114  12.018
42660W        W 7645  28.471  11.434  11.269
42661W        W 7646  20.762  44.413   1.667
42662W        W 7647  30.126  28.530  14.217
42663W        W 7648   9.669   6.402   0.038
42664W        W 7649  29.373  43.890  13.138
42665W        W 7650  42.752   5.768   3.608
42666W        W 7651  16.100  21.722  10.652
42667W        W 7652  39.760   3.341  13.404
42668W        W 7653  21.555  13.251   3.220
42669W        W 7654  24.442  36.098   1.910
42670W        W 7655  12.358  38.615   0.567
42671W        W 7656   3.926  44.300   2.320
42672W        W 7657  29.658  16.749   2.875
42673W        W 7658   3.729  42.091  13.001
42674W        W 7659   8.796   7.630   1.786
42675W        W 7660   2.304  11.910   4.121
42676W        W 7661  43.817  12.714   0.039
42677W        W 7662  38.319   3.791  14.950
42678W        W 7663  23.657  29.378   2.426
42679W        W 7664   8.657  12.804  11.978
42680W        W 7665   3.833  16.742   3.740
42681W        W 7666  25.188  17.802  11.987
42682W        W 7667   2.473  12.897   2.735
42683W        W 7668  23.914   9.771   3.093
42684W        W 7669   1.459  37.599   1.798
42685W        W 7670  32.925   8.258   0.769
42686W        W 7671  27.115  42.518  11.531
42687W        W 7672   2.527  39.248  12.942
42688W        W 7673  10.172  16.676  10.838
42689W        W 7674  29.161  37.616  10.736
42690W        W 7675  32.178  13.721  12.552
42691W        W 7676  11.048  34.886  12.456
42692W        W 7677  20.556   1.629   2.250
42693W        W 7678  27.534  28.023   1.716
42694W        W 7679  44.396  43.463  14.784
42695W        W 7680   1.234  18.032  13.476
42696W        W 7681  15.041  14.848  13.894
42697W        W 7682   4.039   2.318  12.938
42698W        W 7683  20.650  36.418   2.669
42699W        W 7684  32.018  40.127   2.279
42700W        W 7685  27.661  15.601   1.485
42701W        W 7686  11.787  23.737   1.345
42702W        W 7687  27.542  17.319   2.898
42703W        W 7688  16.807  14.125   1.829
42704W        W 7689   0.939  16.718   0.118
42705W        W 7690  29.175  41.019  14.485
42706W        W 7691  35.567   1.447   0.854
42707W        W 7692   2.825  40.249  12.863
42708W        W 7693  25.121  37.343  11.296
42709W        W 7694  36.416   6.545   4.103
42710W        W 7695  33.540  20.276  12.916
42711W        W 7696   9.864  39.146   3.207
42712W        W 7697  43.259  12.183  13.409
42713W        W 7698  37.434  42.089  14.977
42714W        W 7699  26.484  26.578  12.525
42715W        W 7700   4.811  21.729   1.695
42716W        W 7701  26.721  44.665   0.685
42717W        W 7702  22.434  35.217   0.807
42718W        W 7703  43.908  20.757   0.391
42719W        W 7704  17.706   5.973  13.977
42720W        W 7705  18.166  26.072   3.319
42721W        W 7706  14.911  28.108   0.941
42722W        W 7707  34.151  33.540   0.253
42723W        W 7708  30.611  21.474   0.252
42724W        W 7709   9.205  43.277   2.118
42725W        W 7710  33.912   6.165  10.613
42726W        W 7711  18.675  38.556  12.483
42727W        W 7712  44.423  40.889  14.526
42728W        W 7713   5.950  19.239   0.911
42729W        W 7714   1.470  17.484  12.421
42730W        W 7715  21.504  24.434  11.497
42731W        W 7716  25.881   8.644  12.002
42732W        W 7717  37.600  32.466   3.059
42733W        W 7718  25.683   2.585  14.335
42734W        W 7719  36.859   1.374  14.972
42735W        W 7720   9.841   2.450  14.669
42736W        W 7721  42.109  18.714   2.427
42737W        W 7722  11.912  25.753   0.940
42738W        W 7723  13.115  36.770  13.017
42739W        W 7724   8.214  23.477  13.182
42740W        W 7725  32.514  27.452  11.846
42741W        W 7726  17.078  31.277   2.746
42742W        W 7727  37.964  21.402  13.453
42743W        W 7728  15.954  10.103   1.414
42744W        W 7729  12.388  38.113   3.329
42745W        W 7730  32.117  24.580   2.583
42746W        W 7731   1.249  16.756   1.377
42747W        W 7732  40.922   8.544   4.777
42748W        W 7733  22.079  24.037  12.902
42749W        W 7734  11.699   5.442  14.761
42750W        W 7735  44.076  32.497   3.131
42751W        W 7736  24.354  39.828   0.839
42752W        W 7737  23.262   7.031  13.444
42753W        W 7738  24.520  19.212   2.851
42754W        W 7739   0.164  35.026   2.633
42755W        W 7740  12.567  25.267  14.845
42756W        W 7741   2.484  18.703  11.179
42757W        W 7742  36.827  25.410   3.306
42758W        W 7743  20.143   9.939   1.478
42759W        W 7744  32.145  24.998   4.266
42760W        W 7745  42.994   2.448  14.622
42761W        W 7746  20.700   4.904  11.623
42762W        W 7747   4.410  35.817  14.511
42763W        W 7748  21.029  35.205  12.894
42764W        W 7749  23.894  28.987  11.610
42765W        W 7750  37.335  32.991  12.614
42766W        W 7751  19.842  21.138  13.351
42767W        W 7752  24.013  42.764  12.372
42768W        W 7753  22.405  15.995   3.175
42769W        W 7754  31.367  38.287   3.797
42770W        W 7755  31.459  18.225   0.622
42771W        W 7756  22.761  21.564   1.415
42772W        W 7757  20.305  20.257   0.890
42773W        W 7758  17.699   3.616   0.925
42774W        W 7759  25.465  17.901   1.364
42775W        W 7760   4.629  29.623  10.162
42776W        W 7761  42.467  20.249  10.951
42777W        W 7762  37.409   5.402   2.252
42778W        W 7763  37.314  12.178  11.506
42779W        W 7764  36.841  37.865  11.556
42780W        W 7765  21.448  39.443  10.632
42781W        W 7766  19.103  29.524  11.332
42782W        W 7767  15.554  36.570  14.810
42783W        W 7768   4.018  20.092  14.340
42784W        W 7769  10.705   0.729   3.125
42785W        W 7770   9.293  37.912   0.869
42786W        W 7771  24.605  26.774   1.417
42787W        W 7772  14.088  30.130   1.812
42788W        W 7773  15.645  12.905   3.541
42789W        W 7774  38.537  28.488  12.930
42790W        W 7775   6.568  19.631   2.806
42791W        W 7776  24.328  30.247   9.847
42792W        W 7777  32.037  40.022  14.800
42793W        W 7778  24.374  23.193  11.649
42794W        W 7779  36.849  30.070   0.829
42795W        W 7780  40.275   5.490   3.266
42796W        W 7781   7.719  21.787  10.889
42797W        W 7782   3.003  13.779  11.510
42798W        W 7783  33.721   5.392   0.066
42799W        W 7784  31.510  14.354  14.723
42800W        W 7785   0.271  26.473  13.574
42801W        W 7786  25.695   5.899   0.849
42802W        W 7787   0.002   4.298  11.628
42803W        W 7788  37.419  17.592   2.409
42804W        W 7789  32.613  21.011   4.726
42805W        W 7790  41.088  36.561   2.663
42806W        W 7791  42.626  42.807   4.999
42807W        W 7792   0.226   6.610   4.108
42808W        W 7793  37.607  31.028   2.127
42809W        W 7794  19.482  21.563   4.794
42810W        W 7795  37.322  44.809  11.660
42811W        W 7796  30.543  21.022   1.890
42812W        W 7797   1.264  27.667  11.168
42813W        W 7798   1.962  11.620   2.830
42814W        W 7799   5.443   5.737   1.990
42815W        W 7800  33.928  43.019  11.892
42816W        W 7801  27.950  17.799   2.213
42817W        W 7802  41.200  18.614  10.253
42818W        W 7803   5.438  40.818   4.106
42819W        W 7804  25.426  17.415  10.311
42820W        W 7805  11.395  40.516  12.418
42821W        W 7806  25.117   7.743  12.734
42822W        W 7807  43.421  42.276   3.263
42823W        W 7808  10.346  43.324   1.541
42824W        W 7809  37.638  17.892  13.242
42825W        W 7810  10.759  36.299  11.011
42826W        W 7811  20.700   4.905   2.222
42827W        W 7812   9.799  19.122  11.270
42828W        W 7813  28.523  14.121  12.452
42829W        W 7814  41.855  33.709  14.974
42830W        W 7815  35.798  10.626   3.300
42831W        W 7816   8.463  38.405   2.664
42832W        W 7817  28.012   8.131   4.903
42833W        W 7818  42.412  13.830   4.680
42834W        W 7819  10.194   0.583  11.460
42835W        W 7820   2.747  44.477  12.712
42836W        W 7821   7.264  39.441  14.448
42837W        W 7822   4.953  17.517  13.878
42838W        W 7823  18.461  20.728   2.140
42839W        W 7824   9.662  36.968   3.147
42840W        W 7825  20.116  42.868   2.456
42841W        W 7826  11.359  17.609   2.351
42842W        W 7827  29.901  26.002   0.804
42843W        W 7828  12.720  32.050  14.434
42844W        W 7829  10.666  34.195  13.964
42845W        W 7830   3.510  42.549  14.025
42846W        W 7831  14.056   1.913  10.471
42847W        W 7832  35.477  36.037  14.551
42848W        W 7833  34.981   0.507   3.284
42849W        W 7834  40.765  16.851   0.634
42850W        W 7835  24.084  39.453  12.552
42851W        W 7836  35.990  35.890  14.505
42852W        W 7837  24.559   8.691   0.298
42853W        W 7838  25.276  35.511  14.929
42854W        W 7839  23.280  18.093   2.828
42855W        W 7840  24.945  22.016  12.184
42856W        W 7841  27.599  34.470  11.258
42857W        W 7842   4.755  20.559   2.423
42858W        W 7843   3.419  34.047   2.795
42859W        W 7844   3.460  17.037  10.985
42860W        W 7845  22.160  30.070   2.255
42861W        W 7846  37.868  40.299  11.533
42862W        W 7847  17.364   4.337  12.889
42863W        W 7848  36.022  30.162  14.204
42864W        W 7849  36.002  14.772   2.650
42865W        W 7850   0.973  36.472   0.993
42866W        W 7851   9.797  38.985  11.509
42867W        W 7852  29.463  36.827   2.843
42868W        W 7853  30.072  42.537   4.388
42869W        W 7854  14.367   6.902  12.548
42870W        W 7855  16.625  20.856  14.835
42871W        W 7856  30.184  23.595   3.326
42872W        W 7857  25.970  34.667  14.845
42873W        W 7858  20.431   2.346   4.945
42874W        W 7859  10.815  11.680   1.856
42875W        W 7860  38.479  19.448   3.725
42876W        W 7861  23.844  18.475  12.066
42877W        W 7862   3.143  25.164  12.105
42878W        W 7863   5.684  15.175  13.946
42879W        W 7864  18.063  20.374   4.767
42880W        W 7865  31.795   9.310   4.875
42881W        W 7866  42.179  32.902   3.690
42882W        W 7867   5.251  29.057  13.805
42883W        W 7868  33.619  35.595  14.436
42884W        W 7869  30.353  20.555  11.994
42885W        W 7870  40.506  18.847  13.767
42886W        W 7871   8.285  29.482  14.524
42887W        W 7872  17.749  24.043  13.464
42888W        W 7873  33.889  12.169  12.340
42889W        W 7874  25.570  10.247  12.500
42890W        W 7875  41.373   6.006  12.725
42891W        W 7876  40.997  14.146   0.440
42892W        W 7877  10.347  26.732  13.552
42893W        W 7878  26.382  38.465   4.201
42894W        W 7879  30.015  17.826   4.886
42895W        W 7880  31.962  21.602   0.949
42896W        W 7881   3.308   2.105   0.263
42897W        W 7882   9.731  38.632   1.760
42898W        W 7883  12.304  33.067   0.858
42899W        W 7884  42.087  18.819   4.589
42900W        W 7885  27.173  24.896  13.153
42901W        W 7886  18.165  41.376   0.624
42902W        W 7887  30.984   6.457  12.322
42903W        W 7888  17.829  15.780   2.294
42904W        W 7889   5.312   8.235  13.595
42905W        W 7890  33.115  19.275  10.901
42906W        W 7891  31.606  36.038  12.916
42907W        W 7892  43.709   2.949   3.120
42908W        W 7893  36.998  44.043   1.959
42909W        W 7894  24.009  29.807  10.696
42910W        W 7895   1.486   8.604  13.128
42911W        W 7896  31.031  28.292  12.592
42912W        W 7897  43.055  19.761  12.083
42913W        W 7898  39.948  36.094   9.919
42914W        W 7899  14.932  34.236  12.575
42915W        W 7900  24.966   2.085   0.390
42916W        W 7901  34.316   9.005  14.011
42917W        W 7902   8.285  10.211  14.483
42918W        W 7903   2.034   1.949   2.734
42919W        W 7904  44.533  24.405  12.392
42920W        W 7905  11.205  16.078  14.321
42921W        W 7906  12.586  29.467   2.656
42922W        W 7907  29.892  42.509   1.583
42923W        W 7908  41.387  22.166   3.321
42924W        W 7909  33.474  26.984   1.662
42925W        W 7910  32.199  24.226   4.816
42926W        W 7911   5.845  44.727   3.932
42927W        W 7912  21.428  12.717  13.350
42928W        W 7913  37.917  17.658   4.599
42929W        W 7914  12.764  40.469  12.844
42930W        W 7915  18.198   0.039   3.204
42931W        W 7916   7.210  29.095   3.436
42932W        W 7917   0.807  28.923  13.157
42933W        W 7918   2.912  29.626  12.495
42934W        W 7919  28.900   9.765   0.322
42935W        W 7920  17.113   7.720   0.282
42936W        W 7921  40.432  24.871   2.494
42937W        W 7922  27.019   0.221  12.604
42938W        W 7923  35.631   9.359   5.070
42939W        W 7924  16.338  42.397   0.046
42940W        W 7925   8.303   0.856  11.478
42941W        W 7926  37.933   1.788   2.747
42942W        W 7927  32.057  21.535  11.101
42943W        W 7928  10.512  20.130  11.672
42944W        W 7929  38.892   2.438   2.481
42945W        W 7930   4.274  10.579   2.788
42946W        W 7931  36.624   0.800   3.756
42947W        W 7932  40.797  38.239   0.252
42948W        W 7933  17.285  27.609   3.128
42949W        W 7934  32.079  12.233   3.299
42950W        W 7935   6.621  39.407   3.193
42951W        W 7936  22.592  28.399   1.659
42952W        W 7937  10.807   9.800  14.492
42953W        W 7938  38.299  18.303   2.210
42954W        W 7939  10.754  18.137  10.711
42955W        W 7940  18.658   4.285  10.675
42956W        W 7941   0.897   1.670   0.280
42957W        W 7942  14.685  38.436   2.652
42958W        W 7943  41.869  34.426   1.511
42959W        W 7944  13.349  41.025   1.645
42960W        W 7945  19.619  42.844   1.592
42961W        W 7946  19.558  39.616  14.036
42962W        W 7947  13.331  17.575   3.875
42963W        W 7948   2.868  14.635   2.064
42964W        W 7949   0.356  44.237  14.734
42965W        W 7950   4.747  43.044   2.311
42966W        W 7951   6.067  33.211  11.159
42967W        W 7952  10.354  19.120  14.798
42968W        W 7953  15.180   3.877   1.662
42969W        W 7954  20.154   4.863   4.512
42970W        W 7955   6.167  35.810   1.143
42971W        W 7956  29.546  24.176  13.536
42972W        W 7957  37.283   2.377   2.164
42973W        W 7958  40.133  31.596  11.558
42974W        W 7959  14.867  20.633  10.737
42975W        W 7960  43.304  16.340  12.350
42976W        W 7961  30.666  36.561  12.166
42977W        W 7962   4.539  29.554   3.237
42978W        W 7963  20.696  11.257   1.958
42979W        W 7964  23.134   2.848  13.071
42980W        W 7965  20.724   7.051   4.835
42981W        W 7966  15.743  29.657  13.321
42982W        W 7967  30.127  11.529  12.957
42983W        W 7968  42.745  17.716  13.003
42984W        W 7969  31.078  40.508   3.729
42985W        W 7970  37.092  20.360   4.114
42986W        W 7971  20.000   6.191   2.319
42987W        W 7972   8.299  26.709  11.345
42988W        W 7973  37.880  27.958  10.822
42989W        W 7974  12.741  18.903   3.731
42990W        W 7975  10.288  18.057   0.483
42991W        W 7976  34.929  38.960  14.372
42992W        W 7977  14.630  32.606   3.581
42993W        W 7978   7.810  28.034   2.276
42994W        W 7979  37.601  37.480   1.225
42995W        W 7980  26.560  28.458   4.745
42996W        W 7981  26.607  19.730   3.308
42997W        W 7982  21.065   4.513  10.546
42998W        W 7983  43.326  20.864  14.101
42999W        W 7984   3.462  31.569   3.373
43000W        W 7985  36.284  38.933  13.705
43001W        W 7986  34.386  12.238   2.163
43002W        W 7987  32.049  16.365   2.142
43003W        W 7988  24.827   1.198  13.906
43004W        W 7989   4.160  31.607   4.896
43005W        W 7990  43.745  40.334   4.542
43006W        W 7991  30.650  26.729   1.834
43007W        W 7992   2.192   5.632   1.068
43008W        W 7993  27.466   2.292  14.953
43009W        W 7994  20.576  44.342  12.942
43010W        W 7995  28.829   0.576   5.059
43011W        W 7996  19.142   1.366   4.409
43012W        W 7997  14.226   1.081   2.597
43013W        W 7998   0.222  29.676  11.128
43014W        W 7999  34.538  12.020  13.803
43015W        W 8000  17.822  22.985  11.994
43016W        W 8001  17.692  11.891  14.055
43017W        W 8002  24.351   2.185  13.346
43018W        W 8003  21.802   6.231  11.866
43019W        W 8004  25.837  20.066  12.939
43020W        W 8005  27.504  15.129   4.092
43021W        W 8006  25.278  28.954   1.855
43022W        W 8007  43.548   9.692   1.258
43023W        W 8008  34.476  33.945   0.859
43024W        W 8009   1.028  17.357   3.425
43025W        W 8010   9.743  33.481   3.754
43026W        W 8011   9.091  24.129   0.731
43027W        W 8012  16.401   6.956  10.767
43028W        W 8013   6.427  11.590   3.258
43029W        W 8014   7.717  27.878   3.643
43030W        W 8015  22.472  29.452  11.415
43031W        W 8016  27.921  22.163  11.282
43032W        W 8017  40.549  18.671  14.267
43033W        W 8018   3.290   4.826  14.313
43034W        W 8019  10.537  42.237  11.152
43035W        W 8020   0.401   0.387  11.196
43036W        W 8021  31.859  25.158   3.329
43037W        W 8022   1.571  16.844   2.735
43038W        W 8023   3.402  42.804   1.953
43039W        W 8024  13.175  30.162  11.863
43040W        W 8025  36.270   8.432  12.970
43041W        W 8026  11.505  14.874   3.567
43042W        W 8027   6.229   6.561   0.253
43043W        W 8028  20.270  18.265  14.727
43044W        W 8029  22.044  10.166   3.309
43045W        W 8030  43.336  17.227   1.393
43046W        W 8031  18.585   7.054  11.129
43047W        W 8032   2.755  32.085  14.755
43048W        W 8033  21.790  37.989   2.217
43049W        W 8034  30.090  28.601  12.063
43050W        W 8035  23.205   9.444  13.034
43051W        W 8036   6.072  40.420   5.256
43052W        W 8037  16.716   3.849   5.420
43053W        W 8038  36.109  44.259   2.778
43054W        W 8039  19.138  15.708  14.299
43055W        W 8040  30.544  28.713  14.471
43056W        W 8041  43.279  19.754  13.343
43057W        W 8042   6.905  17.281   4.875
43058W        W 8043  21.495  36.320   4.161
43059W        W 8044   4.541  24.198   4.147
43060W        W 8045  23.286  41.922   0.913
43061W        W 8046  22.235  15.859   3.656
43062W        W 8047  20.963  18.600  10.191
43063W        W 8048  43.908   3.305   0.938
43064W        W 8049  24.868  16.069  11.711
43065W        W 8050  18.996  42.342   3.297
43066W        W 8051  27.969   8.097   2.048
43067W        W 8052  19.206  27.602  10.471
43068W        W 8053  41.232  13.447   5.065
43069W        W 8054  11.658   9.798  13.104
43070W        W 8055  37.057   2.522  12.507
43071W        W 8056  27.899  24.574   0.930
43072W        W 8057  43.396  18.317   5.276
43073W        W 8058  27.764   7.309  14.348
43074W        W 8059  39.335  10.142   9.928
43075W        W 8060  29.328  30.874  14.538
43076W        W 8061   3.255  18.556  12.019
43077W        W 8062  13.861  29.538   1.260
43078W        W 8063  17.495  22.625   0.144
43079W        W 8064  30.013  20.702  10.681
43080W        W 8065  44.502  28.741  13.967
43081W        W 8066   0.438  20.284  10.801
43082W        W 8067  35.236  38.785  12.420
43083W        W 8068   2.273  11.397   4.071
43084W        W 8069  11.375  12.075   0.467
43085W        W 8070  36.307  33.632   2.314
43086W        W 8071  15.425  26.110   1.332
43087W        W 8072  14.783   9.359  11.106
43088W        W 8073  15.419  36.494   3.155
43089W        W 8074  24.572   0.765   2.340
43090W        W 8075  11.816  28.640   0.246
43091W        W 8076   9.173  36.065   4.488
43092W        W 8077  14.016   6.901  10.279
43093W        W 8078  42.114  25.061   0.656
43094W        W 8079  30.958   8.182   3.193
43095W        W 8080   6.976   6.210   0.914
43096W        W 8081  14.006  42.742  14.766
43097W        W 8082  44.635   9.219   0.571
43098W        W 8083   2.403  32.495  14.533
43099W        W 8084  27.156  25.794  14.069
43100W        W 8085  27.043  39.801   1.454
43101W        W 8086  21.113  31.994  12.468
43102W        W 8087  13.635  24.749  14.313
43103W        W 8088  23.817  10.315   0.341
43104W        W 8089  13.005  32.470  14.294
43105W        W 8090  18.253  28.223   1.617
43106W        W 8091  24.265  12.764  14.595
43107W        W 8092  31.844  31.801   2.155
43108W        W 8093  44.946   4.412  13.099
43109W        W 8094   9.199  11.029   0.184
43110W        W 8095  38.411  17.353   4.352
43111W        W 8096  18.246   5.904   3.171
43112W        W 8097   8.087  36.094  10.737
43113W        W 8098  44.004   9.668   4.844
43114W        W 8099  30.015  21.487  14.584
43115W        W 8100   8.292   6.628  13.427
43116W        W 8101  29.840   4.679  14.447
43117W        W 8102  28.630  28.725   0.618
43118W        W 8103   9.572   9.437   2.266
43119W        W 8104  38.733  37.881   4.190
43120W        W 8105  28.384  30.933  14.105
43121W        W 8106  39.540   9.917  12.283
43122W        W 8107  42.281  26.635  12.149
43123W        W 8108  26.519  32.430  13.108
43124W        W 8109   7.945  13.841   0.308
43125W        W 8110  27.008  15.311  14.873
43126W        W 8111  42.144   7.760   3.904
43127W        W 8112  22.503  42.787   3.707
43128W        W 8113  17.762  33.989   3.635
43129W        W 8114  37.397  12.413   3.798
43130W        W 8115  42.008  32.058   3.181
43131W        W 8116  38.584  20.632   3.167
43132W        W 8117  18.141  25.134   0.120
43133W        W 8118  26.740  14.492   2.232
43134W        W 8119  14.200  20.781  14.394
43135W        W 8120  23.133  21.534  14.734
43136W        W 8121   9.469   6.307   5.049
43137W        W 8122  36.246   7.814   0.237
43138W        W 8123  21.188  34.112  13.676
43139W        W 8124  37.861   4.979  12.059
43140W        W 8125  15.753   9.838   0.320
43141W        W 8126  24.271  25.569   1.291
43142W        W 8127  19.610  40.715  11.746
43143W        W 8128  12.116  14.672   2.503
43144W        W 8129  35.385  33.023   4.681
43145W        W 8130  20.612  31.982   3.313
43146W        W 8131  37.817  26.381   4.577
43147W        W 8132   2.931   9.165   1.297
43148W        W 8133  32.895  30.087   4.143
43149W        W 8134   3.847   4.452  12.083
43150W        W 8135   0.340  12.438  14.434
43151W        W 8136  34.041  38.403  11.160
43152W        W 8137  40.859  32.913  14.477
43153W        W 8138  29.718  26.437   0.466
43154W        W 8139  26.486   0.976   2.215
43155W        W 8140  20.541  19.058   0.265
43156W        W 8141  22.560   5.027  13.890
43157W        W 8142  42.201  21.050   3.153
43158W        W 8143  19.619  34.449   0.535
43159W        W 8144  17.050  21.289  14.336
43160W        W 8145  38.548  30.697   0.056
43161W        W 8146  13.044  38.022   2.189
43162W        W 8147  38.006  13.330   0.797
43163W        W 8148  28.470  33.395  14.376
43164W        W 8149  38.479  35.079   1.159
43165W        W 8150  14.991   1.633   1.489
43166W        W 8151   6.033  18.992   1.718
43167W        W 8152   5.763   7.708  11.147
43168W        W 8153   9.702  23.283   3.048
43169W        W 8154  22.274   2.719  14.987
43170W        W 8155   2.085  29.123  14.675
43171W        W 8156  23.069  39.922  11.377
43172W        W 8157  22.692  42.323   3.080
43173W        W 8158  20.866  14.758  12.954
43174W        W 8159   7.893  19.241   2.212
43175W        W 8160  38.673  37.658  12.088
43176W        W 8161  19.717  15.310   3.677
43177W        W 8162   2.397  43.023   4.233
43178W        W 8163  20.398  27.169   3.587
43179W        W 8164  13.308  34.657  13.383
43180W        W 8165  41.274   9.688  11.635
43181W        W 8166  17.512  40.919  14.416
43182W        W 8167  39.398  15.840  12.428
43183W        W 8168  44.360  16.031  14.435
43184W        W 8169   1.308  15.642  14.374
43185W        W 8170  31.484   0.509   0.786
43186W        W 8171  36.818  17.725   3.240
43187W        W 8172  37.059  15.363   1.228
43188W        W 8173  17.002   6.471  12.081
43189W        W 8174  15.692  44.500   0.033
43190W        W 8175  27.946   7.814   2.881
43191W        W 8176  10.949  12.119  12.943
43192W        W 8177   0.336  24.120  11.988
43193W        W 8178   1.726  22.028   2.327
43194W        W 8179  37.958  23.096   1.369
43195W        W 8180  20.019  35.958   1.639
43196W        W 8181   5.934   9.531  10.408
43197W        W 8182  18.211  21.701   2.192
43198W        W 8183  12.875   7.619  10.269
43199W        W 8184  12.737  26.010  14.912
43200W        W 8185  33.223  12.704  12.665
43201W        W 8186  11.356  41.725   4.237
43202W        W 8187  34.532  11.678   2.711
43203W        W 8188  27.077  34.065   2.232
43204W        W 8189  39.834  22.638  12.416
43205W        W 8190   2.964  28.587  11.402
43206W        W 8191  42.921  31.687   2.702
43207W        W 8192  40.173   1.947  14.139
43208W        W 8193   0.407  25.231   3.238
43209W        W 8194   2.328  10.668   4.841
43210W        W 8195  17.348   3.549  11.658
43211W        W 8196  35.589  12.207  13.862
43212W        W 8197   9.653  29.923   0.820
43213W        W 8198  35.852  21.799  10.670
43214W        W 8199  16.478   3.929   0.220
43215W        W 8200  24.742  25.786   0.321
43216W        W 8201  25.711  12.411  14.595
43217W        W 8202  21.255  38.993   2.687
43218W        W 8203  30.899  41.909  11.254
43219W        W 8204  25.698  34.942   3.761
43220W        W 8205  15.118  11.191  13.958
43221W        W 8206  12.870   4.327   2.352
43222W        W 8207   6.458  30.873   0.013
43223W        W 8208  21.153   3.215  14.137
43224W        W 8209  44.452  33.853  13.968
43225W        W 8210  30.496   1.489   0.673
43226W        W 8211  26.210  14.837   0.357
43227W        W 8212  17.344   6.704   2.221
43228W        W 8213  32.376   4.932   3.749
43229W        W 8214  13.576  28.947  13.102
43230W        W 8215   5.955   8.274  11.910
43231W        W 8216  28.727  32.487  14.895
43232W        W 8217  21.094  30.169   3.652
43233W        W 8218  32.122  15.310   1.312
43234W        W 8219  44.026   9.271   0.517
43235W        W 8220  32.643  35.402  11.628
43236W        W 8221  18.671   9.679  10.970
43237W        W 8222   7.241  40.027   2.755
43238W        W 8223  32.683  44.175   2.207
43239W        W 8224  19.495  40.946   1.736
43240W        W 8225  42.706  30.509   1.038
43241W        W 8226   6.959   7.118   3.752
43242W        W 8227  39.025  34.109  12.911
43243W        W 8228   6.394  19.230   4.540
43244W        W 8229  34.309   5.598   2.516
43245W        W 8230  41.115  32.578   3.192
43246W        W 8231  37.999  36.501  13.085
43247W        W 8232  30.716   1.707   1.675
43248W        W 8233  33.848  35.244  10.452
43249W        W 8234   1.790  23.189   3.778
43250W        W 8235  41.872   5.636   2.806
43251W        W 8236  21.031   3.289  13.633
43252W        W 8237  11.322  21.078  12.088
43253W        W 8238  34.349  32.103   0.288
43254W        W 8239   5.208   1.614  12.315
43255W        W 8240   0.247  15.682  13.281
43256W        W 8241  22.269  33.957  14.760
43257W        W 8242  15.582   0.168  12.114
43258W        W 8243  42.320  42.862   0.829
43259W        W 8244  32.640  15.779   3.058
43260W        W 8245   0.077  35.377  13.381
43261W        W 8246  44.700   9.373  12.412
43262W        W 8247  29.463   0.215   1.653
43263W        W 8248   4.170  21.376  13.771
43264W        W 8249  34.803   0.262   4.757
43265W        W 8250  24.631   8.108  12.711
43266W        W 8251   4.392  10.236  11.126
43267W        W 8252  40.018  42.219  11.483
43268W        W 8253  41.822  40.103  12.032
43269W        W 8254  28.945   7.453   0.228
43270W        W 8255  15.416  40.391  12.801
43271W        W 8256   3.041   4.266   2.295
43272W        W 8257  18.008  20.883  11.549
43273W        W 8258  22.212  17.619  11.694
43274W        W 8259  23.899  13.668  12.113
43275W        W 8260  15.825   4.895   2.699
43276W        W 8261  42.529  37.038   3.293
43277W        W 8262   3.734  44.720  11.709
43278W        W 8263  10.120  26.552  11.634
43279W        W 8264  17.571  33.502  13.823
43280W        W 8265  28.132   6.777  12.480
43281W        W 8266  29.076  42.338  14.561
43282W        W 8267  35.868  41.608   4.384
43283W        W 8268  30.060  40.579  11.150
43284W        W 8269  42.528  29.034   2.033
43285W        W 8270  13.034   5.878   0.990
43286W        W 8271  22.593  44.498  14.690
43287W        W 8272  10.543  21.570  14.548
43288W        W 8273  37.561  23.978  11.589
43289W        W 8274  39.209  15.489   2.280
43290W        W 8275  30.913  24.766  14.439
43291W        W 8276  27.555  42.549  11.225
43292W        W 8277  16.321  12.648  13.562
43293W        W 8278  20.758  20.328  10.473
43294W        W 8279   8.291  35.580  11.478
43295W        W 8280  33.105  25.350   3.691
43296W        W 8281  41.265  31.113   1.334
43297W        W 8282  22.092   8.134  12.625
43298W        W 8283   8.881  42.043   4.141
43299W        W 8284  35.628  44.995   0.825
43300W        W 8285  33.659  12.949  14.756
43301W        W 8286  28.666  37.909  10.974
43302W        W 8287  43.354  28.844   4.934
43303W        W 8288  21.838  21.791  12.193
43304W        W 8289  27.751   6.278   2.197
43305W        W 8290  28.948  16.980  14.833
43306W        W 8291  43.736  16.125  12.145
43307W        W 8292  32.453  44.215   0.730
43308W        W 8293   4.819  44.283   4.139
43309W        W 8294  22.301  38.396   0.822
43310W        W 8295  21.632   2.523  13.466
43311W        W 8296  34.117  41.362   3.899
43312W        W 8297  15.582   2.712   2.253
43313W        W 8298  14.324  43.339   3.264
43314W        W 8299  10.449   9.710   3.502
43315W        W 8300   1.381  18.884   0.492
43316W        W 8301  16.580  10.673  11.171
43317W        W 8302   2.869   3.558   0.848
43318W        W 8303  31.073  14.265   4.141
43319W        W 8304  23.314  29.490  11.017
43320W        W 8305  35.889   5.320  11.877
43321W        W 8306  43.125  36.026  12.331
43322W        W 8307   1.253  28.100   5.149
43323W        W 8308  39.383  31.643   1.862
43324W        W 8309  14.148  38.709   2.030
43325W        W 8310  25.983  18.683   1.908
43326W        W 8311  33.618  38.567   0.732
43327W        W 8312   0.730  10.744  10.645
43328W        W 8313  11.185  31.432   1.738
43329W        W 8314   2.654   5.991   4.604
43330W        W 8315  26.510  39.078  13.019
43331W        W 8316  44.967   4.846   0.694
43332W        W 8317  29.571  38.782  11.997
43333W        W 8318  22.938   2.049  12.114
43334W        W 8319  32.355  18.972   2.147
43335W        W 8320  26.877   0.413  14.025
43336W        W 8321   6.932   8.348   1.405
43337W        W 8322  29.645  24.832  11.996
43338W        W 8323  16.558  29.091  14.403
43339W        W 8324   6.234  13.695   0.649
43340W        W 8325   7.759  28.279   2.804
43341W        W 8326   7.958  44.739  12.064
43342W        W 8327  35.293   8.808  11.346
43343W        W 8328   9.972  37.550   4.349
43344W        W 8329  16.091  30.968  10.660
43345W        W 8330  30.043   4.633   0.440
43346W        W 8331  35.095  41.313  10.651
43347W        W 8332   3.268  34.244   2.294
43348W        W 8333   9.822  14.335  14.075
43349W        W 8334  15.679  15.111  13.284
43350W        W 8335  24.171  38.032  13.768
43351W        W 8336   4.795  22.041  10.743
43352W        W 8337  37.917  19.377  11.094
43353W        W 8338  13.063  33.713  10.483
43354W        W 8339   1.373  41.240   0.343
43355W        W 8340   5.322  20.474   4.028
43356W        W 8341  15.786   7.931   3.229
43357W        W 8342  39.446  39.117  13.642
43358W        W 8343  40.536   7.024  14.009
43359W        W 8344  26.951  30.200  14.276
43360W        W 8345  19.026  10.166   1.163
43361W        W 8346   3.668  24.008   3.900
43362W        W 8347   8.951  20.508   2.909
43363W        W 8348  33.424  35.366   4.913
43364W        W 8349  29.450   1.889  14.444
43365W        W 8350  44.276  43.264   0.270
43366W        W 8351  25.408  22.561  10.682
43367W        W 8352   1.462  36.074   1.762
43368W        W 8353  37.265   2.832  14.458
43369W        W 8354  21.263  34.790   1.494
43370W        W 8355  17.143  25.396   4.623
43371W        W 8356  14.675  36.159   1.387
43372W        W 8357   7.365  32.943   4.119
43373W        W 8358  29.415  40.015   3.178
43374W        W 8359   8.316  14.137  12.953
43375W        W 8360  10.138  31.011  14.041
43376W        W 8361  14.259  42.513   0.926
43377W        W 8362   1.198  11.369  12.202
43378W        W 8363  39.101   9.434  10.655
43379W        W 8364  30.586  40.475   1.823
43380W        W 8365  20.616  27.416   4.399
43381W        W 8366   6.291  19.004   4.096
43382W        W 8367   7.888  40.944   2.382
43383W        W 8368  29.527  32.488   4.105
43384W        W 8369  40.719  24.946   2.054
43385W        W 8370  13.718  15.204  13.426
43386W        W 8371  40.950   7.837  10.893
43387W        W 8372  10.216  44.721  13.434
43388W        W 8373  15.555  13.152   2.892
43389W        W 8374  18.813   9.876  13.035
43390W        W 8375  22.700  43.301  12.493
43391W        W 8376  14.598  26.895   3.156
43392W        W 8377  31.824   6.250  14.438
43393W        W 8378  26.141  25.804   0.328
43394W        W 8379  39.780   7.441  14.971
43395W        W 8380  20.276   2.360  13.889
43396W        W 8381  14.883  24.574   2.767
43397W        W 8382  40.220  41.929   0.070
43398W        W 8383   5.207  24.091  13.375
43399W        W 8384  34.851  37.146   3.226
43400W        W 8385  22.723  25.544  12.839
43401W        W 8386  37.385   9.431   3.251
43402W        W 8387  15.556  26.700  10.242
43403W        W 8388   9.164  10.408   0.131
43404W        W 8389  10.082   8.847  14.808
43405W        W 8390  10.306  37.456  14.956
43406W        W 8391  32.114  14.753  11.546
43407W        W 8392  36.428   3.035  12.521
43408W        W 8393  18.164   1.332  12.909
43409W        W 8394  34.863   3.953   2.156
43410W        W 8395   9.335  30.943  12.101
43411W        W 8396  42.869  14.629   3.722
43412W        W 8397   5.075  13.399  11.529
43413W        W 8398  34.109  35.608   4.296
43414W        W 8399  11.130  11.420  12.558
43415W        W 8400  41.734  36.662   1.406
43416W        W 8401  30.244  20.159  12.575
43417W        W 8402  33.517  12.894  11.869
43418W        W 8403   3.964   0.975   0.554
43419W        W 8404  22.772  39.555  12.914
43420W        W 8405  20.541  16.736  13.850
43421W        W 8406  37.854  17.627   2.731
43422W        W 8407  14.720  12.093  11.011
43423W        W 8408  29.585   3.461   1.443
43424W        W 8409   5.433  38.586   4.637
43425W        W 8410  18.234  21.704   3.718
43426W        W 8411  17.374  25.899  14.344
43427W        W 8412  10.127  24.225  13.836
43428W        W 8413  18.659   0.299  10.559
43429W        W 8414  16.741  34.085  13.496
43430W        W 8415  10.240   0.020   4.586
43431W        W 8416  27.561   6.393   2.676
43432W        W 8417  42.544  24.926  13.739
43433W        W 8418  21.133  18.203   2.702
43434W        W 8419  42.146  29.532  11.113
43435W        W 8420  31.141  12.831   1.943
43436W        W 8421   4.228  42.901  14.942
43437W        W 8422   8.393  32.559  13.987
43438W        W 8423  29.483  36.614   2.317
43439W        W 8424  42.523   6.695   0.664
43440W        W 8425  10.344  17.725   0.089
43441W        W 8426  33.210  13.002  12.241
43442W        W 8427  27.079  36.072   1.357
43443W        W 8428  22.694  30.139  12.438
43444W        W 8429  24.019  18.761   5.263
43445W        W 8430   9.614   4.192  13.063
43446W        W 8431  25.712  25.138  12.860
43447W        W 8432  26.136  33.608   9.742
43448W        W 8433   4.955  22.225   0.885
43449W        W 8434  22.535   5.316  11.594
43450W        W 8435  26.055  37.671   1.248
43451W        W 8436  39.043   5.705  12.623
43452W        W 8437  34.084  13.271  14.967
43453W        W 8438   4.423  18.234   4.911
43454W        W 8439  17.970  36.948  14.412
43455W        W 8440  37.720  20.267   0.764
43456W        W 8441  43.522   9.264  14.703
43457W        W 8442  39.145   8.938  11.299
43458W        W 8443  26.074  29.383  14.239
43459W        W 8444  29.048  31.000  12.212
43460W        W 8445  32.593  26.335   2.684
43461W        W 8446   5.323  18.311   5.023
43462W        W 8447  19.598  36.747   4.590
43463W        W 8448   3.916  25.707   2.771
43464W        W 8449  43.957  14.601  14.407
43465W        W 8450   8.173   1.681   0.818
43466W        W 8451  26.553  11.856  14.570
43467W        W 8452  22.518  15.170   1.926
43468W        W 8453  41.924  13.646  10.888
43469W        W 8454  18.217  15.284   1.428
43470W        W 8455  21.326  16.825  14.788
43471W        W 8456   3.137  29.615   2.134
43472W        W 8457   8.601   5.428   1.290
43473W        W 8458  37.992  35.437  10.702
43474W        W 8459  16.051  23.578  13.581
43475W        W 8460  38.915  33.366   0.235
43476W        W 8461   7.974  14.877   2.595
43477W        W 8462  25.138  12.683  10.920
43478W        W 8463  32.093  32.865  12.465
43479W        W 8464  15.146  24.659  14.028
43480W        W 8465  20.159  37.116   0.725
43481W        W 8466  23.366  39.594  12.155
43482W        W 8467  36.588   5.794  10.644
43483W        W 8468  23.583  31.421   2.246
43484W        W 8469   0.081  34.144  14.680
43485W        W 8470  39.605  38.454  14.412
43486W        W 8471   3.977  24.718   1.019
43487W        W 8472  30.009  24.075  11.024
43488W        W 8473  21.164  12.009   4.172
43489W        W 8474  42.018  16.580  14.115
43490W        W 8475  37.520  12.919   4.428
43491W        W 8476  37.123  30.494  14.598
43492W        W 8477   7.261  22.010  14.039
43493W        W 8478   9.737  25.459   3.718
43494W        W 8479  36.326  23.994   3.243
43495W        W 8480  37.944  23.100   4.507
43496W        W 8481   3.650  20.490  12.012
43497W        W 8482   1.932  44.337   2.174
43498W        W 8483  14.136   7.865  14.005
43499W        W 8484  14.029  26.871  12.631
43500W        W 8485  44.508  34.165  10.547
43501W        W 8486   5.830  23.047   2.908
43502W        W 8487  42.755  10.073   1.276
43503W        W 8488  32.710  16.728   1.714
43504W        W 8489  33.666  21.750  11.131
43505W        W 8490  20.420  36.414   0.864
43506W        W 8491  43.907  21.257  11.425
43507W        W 8492  14.319   9.645  14.884
43508W        W 8493  19.937   8.373   0.001
43509W        W 8494  17.372  35.925  11.156
43510W        W 8495  43.819  36.306   0.798
43511W        W 8496  18.072  14.893  14.498
43512W        W 8497  12.881   8.863  13.843
43513W        W 8498  10.294   6.291   3.748
43514W        W 8499  12.383   3.964   0.003
43515W        W 8500  32.357  12.222  12.006
43516W        W 8501  34.646  21.745  14.575
43517W        W 8502  22.034   9.175   2.213
43518W        W 8503  41.061  32.058  14.137
43519W        W 8504   2.459  34.037   1.885
43520W        W 8505  29.835   9.164   2.240
43521W        W 8506  33.071   6.034  14.522
43522W        W 8507   0.043  40.550   3.382
43523W        W 8508  24.281  17.631  13.845
43524W        W 8509  32.549  19.083   3.599
43525W        W 8510  22.137  20.510  10.483
43526W        W 8511  36.471  37.976   4.181
43527W        W 8512  24.583   9.680   0.310
43528W        W 8513  39.476  13.181  11.179
43529W        W 8514  21.111  36.144  13.344
43530W        W 8515  34.430  31.893   3.642
43531W        W 8516  23.214   1.243   2.285
43532W        W 8517  23.092  34.629   2.810
43533W        W 8518  14.511  31.079   4.583
43534W        W 8519  22.986   6.973   0.309
43535W        W 8520  25.656  17.649   2.346
43536W        W 8521   9.633  44.371  13.987
43537W        W 8522  15.690  19.324  12.598
43538W        W 8523  32.285  23.176  12.221
43539W        W 8524   7.178  37.799  13.742
43540W        W 8525   7.254  25.024  11.660
43541W        W 8526  21.268  10.196   4.717
43542W        W 8527  30.857  40.993   0.946
43543W        W 8528  42.338  21.129  13.367
43544W        W 8529   0.189  24.548   3.746
43545W        W 8530  11.545  40.107  11.202
43546W        W 8531  41.094  43.832  10.621
43547W        W 8532  31.970   2.755   3.723
43548W        W 8533   7.841  19.778   2.383
43549W        W 8534   5.179  17.014   2.147
43550W        W 8535  38.041  44.366  10.200
43551W        W 8536   8.319   3.798   2.894
43552W        W 8537  13.245  27.256  12.031
43553W        W 8538  33.643  28.045  11.978
43554W        W 8539   0.889  44.417   0.420
43555W        W 8540  36.118  40.741   3.393
43556W        W 8541  31.965  18.225  12.396
43557W        W 8542  22.791   8.678   0.918
43558W        W 8543  32.136  29.073  12.041
43559W        W 8544  15.035  14.690   4.752
43560W        W 8545  23.163  40.862   4.190
43561W        W 8546  11.260  37.235   4.221
43562W        W 8547  25.494  34.932  11.787
43563W        W 8548  10.461   6.222   3.273
43564W        W 8549   1.352  21.533   0.321
43565W        W 8550  38.396   9.159  12.080
43566W        W 8551  35.416  31.700   3.232
43567W        W 8552  36.800   4.311   1.774
43568W        W 8553  40.589  28.015  14.993
43569W        W 8554  37.768   2.733  12.254
43570W        W 8555  39.451  37.424   1.671
43571W        W 8556   8.779  44.338   4.847
43572W        W 8557   9.446   4.714  10.911
43573W        W 8558  20.603  15.790   4.005
43574W        W 8559  39.328  20.758  14.373
43575W        W 8560   5.948  32.594  14.004
43576W        W 8561  19.855  35.715  13.354
43577W        W 8562  14.891  30.188   0.325
43578W        W 8563  20.198  38.969  12.414
43579W        W 8564  33.923  34.180  12.826
43580W        W 8565   3.949  26.741  11.317
43581W        W 8566  13.401  25.304  10.092
43582W        W 8567  19.447  35.903  13.584
43583W        W 8568   5.740  25.576   2.691
43584W        W 8569  23.707  35.962   2.249
43585W        W 8570   2.435  11.155  13.850
43586W        W 8571  16.622  41.461   2.237
43587W        W 8572  10.177  33.574  14.475
43588W        W 8573  21.795   9.531  12.072
43589W        W 8574   5.321  39.056   4.850
43590W        W 8575   7.876   9.775   2.738
43591W        W 8576   3.566  15.386  14.994
43592W        W 8577  27.567  26.764  14.488
43593W        W 8578   0.714  22.957  14.355
43594W        W 8579  17.009  42.829   4.973
43595W        W 8580  26.507  41.069   2.741
43596W        W 8581  16.731  28.870   3.227
43597W        W 8582  30.084  38.940   0.745
43598W        W 8583  41.348  36.169  12.006
43599W        W 8584   9.607   5.308  12.580
43600W        W 8585  15.777  30.198   4.688
43601W        W 8586  39.980  42.660   1.365
43602W        W 8587  18.658   4.682  13.353
43603W        W 8588   4.001  22.510  12.468
43604W        W 8589  16.341  30.849  14.837
43605W        W 8590   4.455  23.601   4.962
43606W        W 8591  43.629   1.913   0.456
43607W        W 8592   3.414  18.901   3.152
43608W        W 8593  10.219  28.393  11.579
43609W        W 8594  30.622  35.449   4.145
43610W        W 8595  10.090  20.642  13.476
43611W        W 8596   0.791  23.893   3.137
43612W        W 8597  24.788   4.690  14.515
43613W        W 8598  40.384  11.625   3.957
43614W        W 8599   4.964   9.734   0.279
43615W        W 8600  16.763   1.585   3.615
43616W        W 8601  15.013  40.484  14.422
43617W        W 8602  30.232  33.947  12.490
43618W        W 8603  38.531  33.181   0.874
43619W        W 8604  26.472  13.851  10.780
43620W        W 8605   6.862  26.435  11.457
43621W        W 8606  25.100   4.186  13.781
43622W        W 8607  12.201  29.179  12.224
43623W        W 8608   9.807   8.951   3.736
43624W        W 8609   3.748  32.588   1.721
43625W        W 8610  13.067  25.646   1.228
43626W        W 8611   7.421   5.572   0.838
43627W        W 8612  34.508  18.493  14.249
43628W        W 8613  36.173  24.450  13.344
43629W        W 8614  18.187  28.084  12.300
43630W        W 8615   8.345  38.518  11.628
43631W        W 8616  12.635   7.393  12.466
43632W        W 8617  27.746  14.112   3.233
43633W        W 8618  21.957  12.668  12.469
43634W        W 8619  34.344   8.742  13.041
43635W        W 8620  37.264  37.059  14.452
43636W        W 8621  28.588  16.134  10.924
43637W        W 8622  42.466   1.002  11.136
43638W        W 8623   9.687  25.015  12.074
43639W        W 8624  32.030  23.632  12.111
43640W        W 8625   5.964  20.904   2.068
43641W        W 8626   0.654  39.443  12.403
43642W        W 8627  39.742  34.435   4.474
43643W        W 8628  35.726  22.707   4.141
43644W        W 8629   2.299  36.520  11.419
43645W        W 8630  10.748  10.605  12.110
43646W        W 8631  25.864   5.589  10.306
43647W        W 8632  14.699  33.413   2.705
43648W        W 8633   9.095   6.193   0.803
43649W        W 8634  14.706  43.434   4.892
43650W        W 8635  40.176  11.119   3.138
43651W        W 8636  34.873  18.136   0.941
43652W        W 8637  44.394  26.213   4.647
43653W        W 8638  29.063  27.909   3.977
43654W        W 8639  22.168  35.838   4.753
43655W        W 8640  32.065  34.098   3.673
43656W        W 8641  29.761   0.935  11.129
43657W        W 8642  30.058  25.682  12.026
43658W        W 8643  36.502  21.982   1.850
43659W        W 8644   1.789  11.124  14.562
43660W        W 8645   2.852  36.907  10.355
43661W        W 8646  12.837  44.826  11.548
43662W        W 8647  42.496   0.774   1.477
43663W        W 8648   4.759  32.749  14.299
43664W        W 8649  38.577  23.481   0.416
43665W        W 8650  33.851  36.048   1.999
43666W        W 8651  19.949  41.443  10.459
43667W        W 8652  25.962   3.287  13.354
43668W        W 8653   5.236  17.641   2.639
43669W        W 8654  44.030  16.548  14.488
43670W        W 8655  14.815  14.816  11.206
43671W        W 8656  16.571  22.695  12.083
43672W        W 8657  26.194  29.842  13.989
43673W        W 8658   5.260   6.117  14.406
43674W        W 8659  40.763  34.581  12.588
43675W        W 8660  22.560  36.488   0.439
43676W        W 8661  27.051  33.650  10.294
43677W        W 8662  17.818  26.307  10.935
43678W        W 8663  33.023  32.922  13.976
43679W        W 8664   1.243   4.444   3.251
43680W        W 8665   0.065  20.672  11.596
43681W        W 8666   5.652  37.123   1.532
43682W        W 8667  39.775  33.521   0.711
43683W        W 8668  43.918  40.703   0.901
43684W        W 8669  42.410   0.892  14.046
43685W        W 8670  41.463  40.255  13.460
43686W        W 8671  16.642  32.440   4.854
43687W        W 8672  33.018  32.411  12.094
43688W        W 8673  34.045  25.295   1.898
43689W        W 8674   4.226  42.273   2.289
43690W        W 8675  17.645  22.305   9.768
43691W        W 8676   9.623  19.218  13.148
43692W        W 8677  37.719   5.013   4.140
43693W        W 8678  14.265  18.157   4.581
43694W        W 8679  34.469   4.293   3.624
43695W        W 8680  19.345  17.539  14.118
43696W        W 8681  31.689  29.186  12.954
43697W        W 8682   6.463   4.465  14.238
43698W        W 8683   0.051  13.166  13.043
43699W        W 8684   2.734   0.768   0.280
43700W        W 8685   2.189  36.598  14.927
43701W        W 8686  24.051  44.496  14.347
43702W        W 8687  36.068  37.600  13.009
43703W        W 8688  36.364  19.325   0.791
43704W        W 8689   6.945  17.288  13.984
43705W        W 8690  44.963  41.001   3.644
43706W        W 8691  30.539  20.738   0.765
43707W        W 8692   8.805  44.962  14.846
43708W        W 8693   9.812  18.115  10.520
43709W        W 8694  28.899  25.269   0.259
43710W        W 8695   3.964   1.923   1.474
43711W        W 8696  34.613  39.991  13.907
43712W        W 8697  22.093  42.302   0.401
43713W        W 8698  16.595  31.497  14.019
43714W        W 8699  18.618   3.751  14.455
43715W        W 8700  30.982  27.233  10.539
43716W        W 8701   5.036  42.389  12.418
43717W        W 8702  10.064   3.559   0.318
43718W        W 8703  28.043   9.186   0.829
43719W        W 8704  16.645   0.543   2.672
43720W        W 8705  15.806   9.290   3.062
43721W        W 8706  34.575  17.428   4.159
43722W        W 8707  21.320  26.984   0.352
43723W        W 8708   4.823  25.965  14.014
43724W        W 8709  11.693  11.288   0.364
43725W        W 8710  32.932  36.903  11.492
43726W        W 8711   8.729   1.903   2.824
43727W        W 8712  29.516   0.799  12.612
43728W        W 8713  26.249  27.459  13.832
43729W        W 8714  15.318  18.072   2.332
43730W        W 8715   8.896  15.776  12.856
43731W        W 8716  16.658   2.855   2.331
43732W        W 8717  36.524  39.099  11.172
43733W        W 8718   9.159  30.071   0.888
43734W        W 8719   6.836  17.941  12.129
43735W        W 8720  36.638  43.020  12.468
43736W        W 8721   7.691  31.235  14.663
43737W        W 8722  27.493  11.998  14.976
43738W        W 8723  38.005  10.229  10.731
43739W        W 8724  21.472  22.723   3.677
43740W        W 8725  41.107   0.450  14.828
43741W        W 8726  36.663  23.792  12.160
43742W        W 8727  26.702  23.572   0.133
43743W        W 8728  27.552  30.898   2.602
43744W        W 8729  41.776  14.093   3.225
43745W        W 8730  38.807  19.517   2.303
43746W        W 8731  44.285  37.600   2.740
43747W        W 8732  28.584  10.953   4.901
43748W        W 8733  44.961  37.434   0.279
43749W        W 8734  38.064   4.606  14.377
43750W        W 8735   2.427  32.961  14.863
43751W        W 8736  25.080  13.549  13.439
43752W        W 8737  12.083  31.899   3.163
43753W        W 8738  44.357  31.427  12.573
43754W        W 8739  43.445  14.222  12.058
43755W        W 8740  40.164  23.319  10.721
43756W        W 8741  14.639  14.108  11.143
43757W        W 8742  19.760  27.626  11.656
43758W        W 8743  37.786  22.285  12.441
43759W        W 8744   9.545  32.032  12.023
43760W        W 8745  39.055  26.781   4.132
43761W        W 8746  19.961   2.241   2.224
43762W        W 8747  43.102  42.725  13.690
43763W        W 8748  20.025   4.640   4.068
43764W        W 8749   7.582   9.816  11.871
43765W        W 8750  33.965  10.286   1.345
43766W        W 8751  39.211  43.965  13.465
43767W        W 8752   3.913   3.813  14.798
43768W        W 8753  34.259  44.007   3.710
43769W        W 8754  34.553   1.420   1.134
43770W        W 8755  17.755  28.334  12.093
43771W        W 8756  42.560  13.425   2.753
43772W        W 8757  39.713   4.967  11.122
43773W        W 8758   8.841  40.605  14.672
43774W        W 8759   8.269  30.916  13.103
43775W        W 8760  27.931  37.549  14.043
43776W        W 8761  23.879   1.323   2.743
43777W        W 8762  42.570  26.566  10.229
43778W        W 8763  13.876  42.833   3.287
43779W        W 8764  25.103  35.003   5.024
43780W        W 8765   7.188   8.353  11.225
43781W        W 8766  43.515  13.259  12.988
43782W        W 8767  41.403  22.741  14.912
43783W        W 8768  44.181  35.466   3.359
43784W        W 8769  41.580  29.954   4.228
43785W        W 8770  36.329  12.199  10.518
43786W        W 8771  15.529  31.497  12.148
43787W        W 8772  22.243  20.541  13.813
43788W        W 8773   5.974  14.188   4.082
43789W        W 8774  12.211   2.239  14.234
43790W        W 8775   3.084  11.052   0.762
43791W        W 8776  23.694  34.090  13.600
43792W        W 8777   8.329  11.113  14.522
43793W        W 8778   5.008   9.211   0.442
43794W        W 8779  40.270   4.622   4.367
43795W        W 8780  11.165  13.391   4.202
43796W        W 8781  24.020   9.607  11.875
43797W        W 8782   2.757  25.472   3.729
43798W        W 8783  43.309   7.509  14.048
43799W        W 8784  30.935  25.197   3.181
43800W        W 8785  13.629  17.503   4.925
43801W        W 8786   4.671  32.570   0.926
43802W        W 8787   1.885  44.127  14.430
43803W        W 8788   6.409  35.897   5.122
43804W        W 8789   9.755  32.171  13.964
43805W        W 8790  26.747  31.326   3.473
43806W        W 8791  33.398  14.689  13.354
43807W        W 8792  14.831   8.438  12.548
43808W        W 8793   1.331   7.210   2.324
43809W        W 8794  38.966  40.847  11.334
43810W        W 8795  13.555   0.215   0.870
43811W        W 8796  13.597  33.669   1.253
43812W        W 8797  18.262  23.856   1.275
43813W        W 8798  28.956  43.963  10.771
43814W        W 8799  18.480  39.469   1.792
43815W        W 8800   4.977  14.175   2.088
43816W        W 8801  23.307  24.359   2.435
43817W        W 8802  14.150  12.577   0.143
43818W        W 8803  11.128  12.802  14.972
43819W        W 8804   8.183  10.223  13.935
43820W        W 8805  38.215  37.775   4.363
43821W        W 8806   1.266  32.576   4.162
43822W        W 8807  32.119  12.385  11.576
43823W        W 8808  29.094  14.277  14.777
43824W        W 8809  42.944  43.465  14.284
43825W        W 8810  18.800  24.054  13.236
43826W        W 8811  30.595  23.071  13.515
43827W        W 8812  42.922  22.635   4.613
43828W        W 8813   8.835  40.395   2.133
43829W        W 8814   6.065  39.133  13.716
43830W        W 8815  22.181  31.719  13.885
43831W        W 8816   1.771  30.439   2.259
43832W        W 8817  37.346  20.214  11.056
43833W        W 8818   6.164  13.941   3.665
43834W        W 8819  27.448  36.317   4.733
43835W        W 8820   0.297  10.629  13.413
43836W        W 8821   3.749   9.416   1.854
43837W        W 8822  39.414  11.802  11.601
43838W        W 8823   3.754  18.612  11.928
43839W        W 8824  36.619  41.861   3.447
43840W        W 8825  15.009   6.695   2.164
43841W        W 8826   6.368  14.512  12.982
43842W        W 8827  24.471  34.556  12.897
43843W        W 8828  41.278  40.906  14.340
43844W        W 8829  13.148  35.180   1.177
43845W        W 8830  26.384  28.693  11.980
43846W        W 8831  19.333  31.662  14.984
43847W        W 8832  14.116  35.871   0.738
43848W        W 8833  26.987  29.902   0.007
43849W        W 8834   2.489  37.032  14.796
43850W        W 8835   7.689   1.994   5.015
43851W        W 8836  10.140  11.829  10.745
43852W        W 8837   2.908  35.858  11.613
43853W        W 8838  23.400  38.609   1.275
43854W        W 8839   9.796  34.207  14.835
43855W        W 8840  35.888   4.409  13.451
43856W        W 8841  41.928   3.842   1.330
43857W        W 8842  35.298  12.845  13.588
43858W        W 8843  31.539   4.696  13.582
43859W        W 8844  19.579  20.662   0.533
43860W        W 8845  30.862  14.183  14.340
43861W        W 8846  44.220  31.090   3.711
43862W        W 8847   9.630  30.182  10.671
43863W        W 8848  16.203  40.334   2.136
43864W        W 8849  20.971   0.339   0.874
43865W        W 8850  38.899  30.586  13.897
43866W        W 8851   4.479  29.971  14.961
43867W        W 8852   5.190   4.874  11.131
43868W        W 8853  33.519  29.934  14.783
43869W        W 8854  38.190   5.450   3.522
43870W        W 8855  30.927   5.161   0.331
43871W        W 8856  44.779  21.545   4.058
43872W        W 8857  11.077  26.575   2.660
43873W        W 8858  31.986  34.195   4.173
43874W        W 8859   9.791  22.634   1.324
43875W        W 8860  39.407  30.571   0.186
43876W        W 8861  35.691  18.856  12.922
43877W        W 8862  35.613  27.728  13.419
43878W        W 8863   8.254  12.639  14.848
43879W        W 8864  35.692   1.094  12.121
43880W        W 8865  32.884  19.798   3.241
43881W        W 8866  31.557  42.518  11.159
43882W        W 8867  44.610  13.194  11.449
43883W        W 8868  13.288  24.875  11.622
43884W        W 8869  30.379  36.520   4.155
43885W        W 8870  31.896  34.946   4.971
43886W        W 8871  14.352  44.771   1.237
43887W        W 8872  18.185  20.127   3.778
43888W        W 8873   5.655  21.689   4.174
43889W        W 8874  23.630  40.972   4.001
43890W        W 8875  44.769  22.217  12.168
43891W        W 8876  31.422   6.350   3.112
43892W        W 8877  20.270   6.293  12.267
43893W        W 8878  11.251  14.698  10.910
43894W        W 8879  41.488   6.828  10.921
43895W        W 8880  33.825  38.418   1.226
43896W        W 8881  20.113  39.417  12.973
43897W        W 8882  26.538  27.743   1.758
43898W        W 8883  10.336  35.140  12.978
43899W        W 8884   8.279   6.520   4.722
43900W        W 8885  42.780   5.990  12.588
43901W        W 8886   9.723  17.799   3.057
43902W        W 8887  16.210  13.257   4.122
43903W        W 8888  22.030  19.990  12.056
43904W        W 8889   2.368  19.454  12.121
43905W        W 8890   3.481   5.239   3.683
43906W        W 8891  33.370  24.008   0.356
43907W        W 8892  37.374  10.115   2.312
43908W        W 8893  15.782  17.589  14.371
43909W        W 8894  28.592  21.621  11.160
43910W        W 8895  42.394  33.947   0.869
43911W        W 8896   2.955  18.281   0.926
43912W        W 8897  35.693  27.679   4.219
43913W        W 8898   0.284   3.332  14.424
43914W        W 8899  23.208  34.582   3.709
43915W        W 8900  43.671  22.693   4.125
43916W        W 8901  21.732  38.286   2.842
43917W        W 8902   1.323  18.518  10.780
43918W        W 8903  37.419  29.452  14.244
43919W        W 8904  15.768  23.972   0.261
43920W        W 8905   8.351  19.785   0.335
43921W        W 8906  29.548  17.464  10.704
43922W        W 8907   2.785   8.084   0.347
43923W        W 8908  23.687  37.109   3.418
43924W        W 8909  31.094  24.490  13.544
43925W        W 8910  38.332  21.625   1.692
43926W        W 8911  41.996  27.545   4.521
43927W        W 8912   5.300   9.604   1.199
43928W        W 8913  20.077  13.459  11.578
43929W        W 8914  10.056  22.819   2.180
43930W        W 8915  26.740  20.027  14.938
43931W        W 8916   2.738  10.971  14.841
43932W        W 8917  39.581  19.977  13.489
43933W        W 8918  25.549   1.055   0.689
43934W        W 8919   4.444   5.711   0.017
43935W        W 8920  24.110   7.476   1.819
43936W        W 8921  26.801  14.172  14.412
43937W        W 8922   6.410  10.368  11.217
43938W        W 8923  35.359  13.727   0.380
43939W        W 8924  38.954  39.242  11.407
43940W        W 8925   6.793   6.301   3.229
43941W        W 8926  22.133   1.210  13.943
43942W        W 8927   6.823  27.152  10.987
43943W        W 8928  43.413  29.147  14.453
43944W        W 8929  14.273  40.786  10.747
43945W        W 8930   5.090  14.687  14.516
43946W        W 8931  18.086   1.417   2.912
43947W        W 8932   5.425  31.979  10.995
43948W        W 8933  26.229   6.243  13.013
43949W        W 8934   3.301  11.854  12.544
43950W        W 8935  43.264  39.808   4.081
43951W        W 8936  33.475  14.067   2.132
43952W        W 8937  31.323   5.459  13.916
43953W        W 8938  37.429   1.265  12.691
43954W        W 8939   2.402  34.545   4.298
43955W        W 8940  22.991   5.273  11.845
43956W        W 8941  30.148  11.667  11.014
43957W        W 8942   2.017  41.851  11.417
43958W        W 8943  20.683   9.855  14.047
43959W        W 8944  31.605  10.768   1.699
43960W        W 8945  14.174  25.677   3.898
43961W        W 8946  28.758   4.831  10.996
43962W        W 8947   6.844  27.331  10.504
43963W        W 8948  22.108  17.773  13.116
43964W        W 8949  22.740  44.924  14.421
43965W        W 8950   0.512  40.581   3.184
43966W        W 8951   3.001  34.163   4.491
43967W        W 8952  14.781  31.352  14.476
43968W        W 8953   1.244  23.046   0.354
43969W        W 8954  35.547   7.920   2.746
43970W        W 8955  25.823  11.704   4.955
43971W        W 8956  25.626  26.612  10.654
43972W        W 8957   2.666  44.195   4.073
43973W        W 8958   3.106  16.292  11.530
43974W        W 8959  16.578  35.885   3.840
43975W        W 8960  23.277  43.035  11.987
43976W        W 8961  36.741  29.066   4.513
43977W        W 8962   7.806  16.733   2.434
43978W        W 8963  15.058  18.273   1.932
43979W        W 8964  14.644  20.703   1.699
43980W        W 8965  12.221  30.880   2.203
43981W        W 8966  39.853   8.764  13.143
43982W        W 8967   9.909  24.706  14.931
43983W        W 8968  35.469  27.406  11.191
43984W        W 8969  23.471   3.245  13.323
43985W        W 8970  36.364  27.153   2.351
43986W        W 8971  22.586  43.684   3.338
43987W        W 8972  42.280  24.596   0.444
43988W        W 8973  32.943  28.007   3.784
43989W        W 8974   7.901  13.314   0.314
43990W        W 8975  14.082   9.638   0.374
43991W        W 8976  12.775  28.745  12.576
43992W        W 8977  18.634  22.719   1.214
43993W        W 8978   8.868  36.748  11.445
43994W        W 8979   0.867   3.945  13.796
43995W        W 8980  38.393  41.797  14.741
43996W        W 8981  35.074  37.622   3.219
43997W        W 8982  30.620  24.758   1.756
43998W        W 8983   0.542  17.875  12.604
43999W        W 8984  36.933  22.766   2.762
44000W        W 8985  28.077  23.441   5.015
44001W        W 8986  26.607   9.831  11.731
44002W        W 8987  36.323  43.338   3.136
44003W        W 8988  43.158  17.851   0.401
44004W        W 8989  26.583   4.995   3.273
44005W        W 8990  44.852   0.049  11.382
44006W        W 8991   0.514  12.640   4.713
44007W        W 8992  19.077  13.148  13.366
44008W        W 8993  15.681  44.648   4.577
44009W        W 8994  31.425  13.041  11.440
44010W        W 8995  28.126  19.078  11.217
44011W        W 8996  18.257  18.851   0.246
44012W        W 8997  35.408  42.548   1.358
44013W        W 8998  15.687   6.146   2.647
44014W        W 8999  42.066   7.870  13.883
44015W        W 9000  15.629   1.861   3.192
44016W        W 9001   6.767   4.335   4.386
44017W        W 9002  19.544  43.431  11.963
44018W        W 9003  24.497  32.173   3.274
44019W        W 9004  16.797  39.579   3.370
44020W        W 9005  38.901  14.329  12.993
44021W        W 9006   8.215  21.886  10.808
44022W        W 9007  16.116   2.367   3.756
44023W        W 9008  28.726   2.919  11.735
44024W        W 9009  11.798   2.951   4.168
44025W        W 9010  18.114   5.453  14.370
44026W        W 9011  14.612  38.343   4.117
44027W        W 9012  31.570  32.916   3.670
44028W        W 9013  15.241   8.977   0.283
44029W        W 9014  32.229  10.216  14.845
44030W        W 9015  27.356   4.636  14.910
44031W        W 9016   8.573  13.582   3.802
44032W        W 9017  14.648  32.691  14.834
44033W        W 9018  28.945  30.121  14.773
44034W        W 9019  37.493   9.404   4.132
44035W        W 9020  13.847   5.151  11.575
44036W        W 9021  41.508  15.092   5.614
44037W        W 9022  10.723  17.375   4.210
44038W        W 9023  34.584  35.426  12.298
44039W        W 9024  28.058  22.906  11.977
44040W        W 9025   3.481   6.675  13.905
44041W        W 9026  32.933  12.655  14.042
44042W        W 9027   1.868  28.498   1.900
44043W        W 9028  34.015  43.843  10.559
44044W        W 9029  26.778  23.758   0.634
44045W        W 9030  34.158   7.190  11.566
44046W        W 9031  35.907  20.617   3.335
44047W        W 9032  28.181  14.276  10.192
44048W        W 9033  34.622  28.497   1.333
44049W        W 9034  44.780  26.445   2.364
44050W        W 9035   2.269   5.868   3.670
44051W        W 9036  44.669   8.110  12.466
44052W        W 9037  41.350  13.340   0.727
44053W        W 9038   2.456  30.047  10.676
44054W        W 9039  23.281  15.069   0.898
44055W        W 9040   5.781   7.009   1.698
44056W        W 9041   2.344  32.417   1.274
44057W        W 9042   5.220  32.510   2.399
44058W        W 9043  29.258  30.013  13.431
44059W        W 9044  37.306   7.586   2.303
44060W        W 9045  43.817  29.756  12.541
44061W        W 9046  40.413  11.406   1.792
44062W        W 9047  10.752  24.795  14.416
44063W        W 9048  44.540  32.910  10.767
44064W        W 9049   7.875   9.261   3.902
44065W        W 9050  22.546  18.250   0.159
44066W        W 9051  14.673  11.756   4.069
44067W        W 9052  21.197   9.199   2.570
44068W        W 9053  18.206  26.720   0.792
44069W        W 9054  16.631   0.399   3.632
44070W        W 9055  44.705  17.077   1.887
44071W        W 9056  43.357   2.929  13.923
44072W        W 9057  31.200  34.884  12.461
44073W        W 9058  25.541  26.933   2.756
44074W        W 9059   3.069  31.989   2.219
44075W        W 9060  32.432  24.172  14.403
44076W        W 9061  29.260  15.165  13.017
44077W        W 9062  37.013  11.832  11.015
44078W        W 9063   6.249  22.008  14.503
44079W        W 9064  28.112  34.715  12.459
44080W        W 9065   6.715  37.477  12.394
44081W        W 9066   0.869  38.444  12.488
44082W        W 9067  34.896   1.494   4.620
44083W        W 9068  26.548   3.428   4.930
44084W        W 9069  38.925  41.542   4.933
44085W        W 9070  25.714   9.535  10.734
44086W        W 9071   7.027  42.029   1.690
44087W        W 9072  25.496  14.089   9.959
44088W        W 9073  20.483  10.738   0.285
44089W        W 9074  30.991  24.975  13.803
44090W        W 9075  37.180   5.496  13.597
44091W        W 9076  38.503  25.056  14.476
44092W        W 9077  44.724  43.694   0.865
44093W        W 9078  12.798  15.995  11.562
44094W        W 9079  31.979  31.419  13.898
44095W        W 9080  44.228  33.425   4.009
44096W        W 9081  24.736  15.538   3.579
44097W        W 9082  13.335  42.514  12.534
44098W        W 9083  14.395   3.295  10.277
44099W        W 9084  30.827  39.003  11.632
44100W        W 9085  37.111  22.519   2.273
44101W        W 9086  22.454  11.281   0.869
44102W        W 9087  38.985  23.229   2.676
44103W        W 9088   4.583  41.012   2.916
44104W        W 9089   5.658  23.801  14.550
44105W        W 9090  20.291  35.015   3.113
44106W        W 9091  31.082  36.352   2.966
44107W        W 9092  35.122  16.881  13.882
44108W        W 9093  10.269   7.880   2.315
44109W        W 9094  38.845   9.270  14.904
44110W        W 9095  33.924  25.235  14.494
44111W        W 9096   4.221  23.069  14.546
44112W        W 9097   0.659  35.444   1.293
44113W        W 9098  24.185   0.231  13.346
44114W        W 9099  28.554  26.720   0.612
44115W        W 9100  35.131  43.421   0.455
44116W        W 9101  14.842  16.442   4.664
44117W        W 9102  34.406   0.363  14.344
44118W        W 9103  29.788   5.736  13.006
44119W        W 9104  28.522   6.429  12.456
44120W        W 9105  41.316  27.597   4.110
44121W        W 9106  28.414  38.459   0.799
44122W        W 9107  24.544  29.533  11.876
44123W        W 9108  31.920  30.894  12.197
44124W        W 9109  20.018  39.227  14.960
44125W        W 9110  19.477  18.249   2.290
44126W        W 9111  31.093  26.730  10.503
44127W        W 9112  40.937  10.391  14.941
44128W        W 9113  34.053  12.190   0.953
44129W        W 9114  13.096  41.146   4.761
44130W        W 9115  15.074  41.679   3.151
44131W        W 9116  33.326  40.944   2.625
44132W        W 9117  20.649  31.731   5.232
44133W        W 9118  43.239  28.160   3.209
44134W        W 9119   9.768   2.122   4.342
44135W        W 9120  11.221  15.695   0.391
44136W        W 9121  29.344  41.656  13.368
44137W        W 9122  23.528  14.368  11.539
44138W        W 9123  28.193  25.300   2.318
44139W        W 9124   4.716  16.226  11.658
44140W        W 9125   7.150   6.860   0.182
44141W        W 9126   0.978  37.656   1.622
44142W        W 9127  11.244  25.021   3.239
44143W        W 9128  16.693  16.285   1.842
44144W        W 9129  15.116  10.209   0.822
44145W        W 9130  29.724   1.267  10.570
44146W        W 9131  16.433  36.340   4.058
44147W        W 9132  26.465   3.698  10.305
44148W        W 9133  28.276  40.423  14.981
44149W        W 9134  17.971  19.852   1.693
44150W        W 9135  14.934  25.021  10.315
44151W        W 9136   2.147   6.161   1.837
44152W        W 9137   1.675  23.390   4.252
44153W        W 9138  30.458  13.223   2.348
44154W        W 9139   0.928   7.997  13.096
44155W        W 9140  25.158   1.785   0.742
44156W        W 9141  34.841  38.650   1.391
44157W        W 9142  21.521  20.241   2.202
44158W        W 9143  32.345  28.229   4.572
44159W        W 9144  22.978  33.053   3.134
44160W        W 9145  13.259  42.970   3.220
44161W        W 9146  40.318  30.515   3.353
44162W        W 9147   5.239  16.397  10.954
44163W        W 9148  20.171   1.965  13.530
44164W        W 9149  36.832  34.208   3.057
44165W        W 9150  13.393   0.793   0.947
44166W        W 9151  13.331   1.203  14.630
44167W        W 9152   9.546  25.827  10.852
44168W        W 9153  41.453  11.782   2.805
44169W        W 9154  25.648  20.792  13.868
44170W        W 9155  13.145   6.322   1.936
44171W        W 9156  26.763  34.804   2.710
44172W        W 9157  29.569  11.407  12.072
44173W        W 9158  44.440  12.330  12.693
44174W        W 9159  19.895  21.214  10.009
44175W        W 9160  22.543  38.451  11.087
44176W        W 9161  12.897  38.470  13.971
44177W        W 9162  35.866  39.285   0.020
44178W        W 9163   8.387  11.943  12.034
44179W        W 9164  43.543  20.481   4.862
44180W        W 9165  32.315  39.475  11.192
44181W        W 9166   1.973   9.529  12.455
44182W        W 9167  18.291   4.639  14.806
44183W        W 9168  25.691  24.081  10.383
44184W        W 9169  40.265  18.530  13.413
44185W        W 9170  33.563  37.813   0.410
44186W        W 9171  15.848   2.839  14.066
44187W        W 9172   5.950  26.121  12.492
44188W        W 9173  12.732  19.327  13.113
44189W        W 9174  13.675   9.367   2.260
44190W        W 9175   1.958  41.341   4.097
44191W        W 9176  44.776   6.061  14.060
44192W        W 9177  14.369   3.765   0.730
44193W        W 9178  39.981   9.898  10.649
44194W        W 9179  37.886  17.554   0.979
44195W        W 9180  21.237  38.485   0.131
44196W        W 9181  30.390  31.068  14.309
44197W        W 9182  18.122   9.300  11.534
44198W        W 9183  44.060  31.751   4.941
44199W        W 9184  21.964   6.249   2.230
44200W        W 9185  29.034  38.851  14.251
44201W        W 9186  41.397  21.716   1.030
44202W        W 9187  19.631   4.278   4.779
44203W        W 9188  27.476   9.327   4.649
44204W        W 9189   0.779  24.607   4.602
44205W        W 9190   2.250  19.706  12.566
44206W        W 9191  42.544  24.103   0.373
44207W        W 9192  19.675   7.097  14.536
44208W        W 9193  10.923  41.961   2.710
44209W        W 9194  42.032  43.938   0.907
44210W        W 9195   6.853  29.442   0.535
44211W        W 9196  29.896  25.470   0.894
44212W        W 9197  24.099  25.229   2.023
44213W        W 9198   5.231  13.641   3.683
44214W        W 9199   1.481  28.154   1.962
44215W        W 9200  43.928   0.428   4.572
44216W        W 9201  36.350  41.799   4.380
44217W        W 9202   4.605  17.477   5.015
44218W        W 9203  14.612  43.289  13.601
44219W        W 9204  22.831  27.173   4.422
44220W        W 9205  10.218  43.888  11.124
44221W        W 9206  14.862  24.952  13.637
44222W        W 9207  25.215  22.865   3.310
44223W        W 9208  40.834   5.554  12.944
44224W        W 9209  12.562  18.559  13.082
44225W        W 9210  25.774  37.058  13.838
44226W        W 9211  25.595  37.508   2.719
44227W        W 9212  27.127  43.928   2.583
44228W        W 9213  23.744  39.055  11.998
44229W        W 9214  26.910  41.001  13.990
44230W        W 9215  40.161  12.577   4.200
44231W        W 9216  14.354   6.833  13.942
44232W        W 9217   4.812  15.747  12.970
44233W        W 9218  32.811   5.005   3.505
44234W        W 9219  26.589  33.965  13.173
44235W        W 9220  31.420   3.459  11.995
44236W        W 9221   5.533   9.818  14.393
44237W        W 9222   7.811  26.642   1.844
44238W        W 9223  12.094   9.647  10.486
44239W        W 9224  22.633  44.932  14.955
44240W        W 9225  26.950  43.048   2.334
44241W        W 9226  30.979   2.862  12.627
44242W        W 9227  40.395  17.594  14.467
44243W        W 9228   2.713  29.779  12.993
44244W        W 9229  12.067  23.508   3.131
44245W        W 9230  24.078  25.692  11.436
44246W        W 9231  35.848  16.781  11.076
44247W        W 9232  27.928  32.346  13.569
44248W        W 9233  27.012   9.854   4.443
44249W        W 9234   4.260   4.318   4.238
44250W        W 9235  25.769  11.894  11.108
44251W        W 9236  33.674  17.679  10.736
44252W        W 9237  18.576  40.385   4.272
44253W        W 9238  26.477   5.627  14.651
44254W        W 9239   5.474   8.755  11.407
44255W        W 9240  22.055   8.855   1.795
44256W        W 9241  41.788  12.056  12.444
44257W        W 9242  38.253   0.762   2.097
44258W        W 9243  30.666  38.032  12.795
44259W        W 9244  20.627  41.648   1.930
44260W        W 9245  44.989  34.485   2.646
44261W        W 9246  16.110  43.698  11.553
44262W        W 9247  11.429   9.293  11.243
44263W        W 9248  18.983  23.996   5.418
44264W        W 9249  27.686  25.244  12.396
44265W        W 9250  41.587   1.025   3.258
44266W        W 9251  41.219  19.760   3.027
44267W        W 9252  22.446  20.265  13.318
44268W        W 9253   2.405  36.631  12.514
44269W        W 9254  15.270  40.363   3.629
44270W        W 9255  25.188  14.532   4.139
44271W        W 9256  28.197  39.544  10.328
44272W        W 9257  30.636  32.752  14.824
44273W        W 9258  37.485  14.796   0.847
44274W        W 9259  27.080  16.932   0.277
44275W        W 9260   0.932   4.378  12.977
44276W        W 9261  28.960  35.923   2.788
44277W        W 9262  22.257  37.567   5.030
44278W        W 9263  35.480  16.616   4.034
44279W        W 9264  25.399   2.404  11.997
44280W        W 9265   0.980  32.897   1.756
44281W        W 9266  26.228  15.695   1.145
44282W        W 9267   4.920  36.157   4.203
44283W        W 9268   9.946  44.847   3.410
44284W        W 9269  41.921  35.390  14.746
44285W        W 9270  32.859  35.068  13.436
44286W        W 9271   1.300  23.154   4.524
44287W        W 9272   9.915  18.945   4.358
44288W        W 9273  26.094   3.801   0.979
44289W        W 9274  33.314  32.213   2.702
44290W        W 9275  39.191  41.366   3.501
44291W        W 9276   7.836  34.085   0.803
44292W        W 9277  19.874  31.928   2.647
44293W        W 9278  36.600  14.260   4.358
44294W        W 9279  22.779  18.245  11.080
44295W        W 9280  14.737  42.522   2.840
44296W        W 9281  25.428  21.698   1.326
44297W        W 9282   4.502  41.074   3.769
44298W        W 9283  16.408  36.366  13.080
44299W        W 9284   4.035   3.274   3.084
44300W        W 9285   6.620   3.512   4.603
44301W        W 9286  14.724  22.492  11.525
44302W        W 9287  23.442  33.027   1.350
44303W        W 9288   2.480  19.006  14.898
44304W        W 9289  28.168  36.406  11.133
44305W        W 9290  27.412  39.509  14.791
44306W        W 9291  19.062  15.894  11.805
44307W        W 9292  35.455  28.142   1.621
44308W        W 9293   3.920   0.801   2.889
44309W        W 9294  17.826  24.198   1.729
44310W        W 9295   6.840  13.625   4.902
44311W        W 9296   3.397   7.970  13.220
44312W        W 9297   4.811  17.592  14.815
44313W        W 9298  42.021  40.635   3.145
44314W        W 9299  33.163  21.696   3.492
44315W        W 9300   2.737  32.405   0.900
44316W        W 9301   7.837  18.604  14.888
44317W        W 9302  44.225  43.274  12.192
44318W        W 9303   0.601  32.049  12.953
44319W        W 9304  21.945  28.654   2.306
44320W        W 9305  27.572   5.382  10.914
44321W        W 9306  22.091  40.802  12.007
44322W        W 9307  41.924  39.997  13.028
44323W        W 9308  21.174   2.542   3.135
44324W        W 9309  32.166  21.161   1.195
44325W        W 9310   8.567  26.025   0.932
44326W        W 9311  11.306   1.553   0.795
44327W        W 9312  29.752  32.361  14.216
44328W        W 9313  40.976  14.719   0.633
44329W        W 9314  36.483   4.391  13.063
44330W        W 9315  26.402  42.255   3.166
44331W        W 9316  37.962   1.474  12.557
44332W        W 9317  10.171  17.776  12.146
44333W        W 9318  19.195  12.890  12.375
44334W        W 9319  42.222   4.030  13.976
44335W        W 9320   7.843  29.262   0.845
44336W        W 9321  32.054  20.465   4.451
44337W        W 9322  21.189  21.521   0.758
44338W        W 9323  21.963   7.807   4.205
44339W        W 9324   4.819   1.972   0.793
44340W        W 9325  21.821  23.510   1.045
44341W        W 9326  27.896  23.613   1.888
44342W        W 9327  26.460  28.479   1.455
44343W        W 9328  21.561   5.599   1.224
44344W        W 9329  11.165   2.611  11.083
44345W        W 9330  29.726  39.461  14.359
44346W        W 9331  40.399  36.585  13.912
44347W        W 9332  40.908  13.327  14.811
44348W        W 9333  11.249  40.273   0.351
44349W        W 9334   4.161   7.477  13.069
44350W        W 9335  43.399   0.359   1.436
44351W        W 9336  39.752  43.218  13.012
44352W        W 9337  37.582   8.774  11.236
44353W        W 9338  12.289  34.841  12.786
44354W        W 9339  11.292  23.031   3.322
44355W        W 9340  13.593  19.547  10.591
44356W        W 9341   3.938  36.735   0.465
44357W        W 9342  37.760  26.033   4.193
44358W        W 9343   8.260   1.508  12.258
44359W        W 9344   1.791  37.481   3.583
44360W        W 9345  38.233  34.538  14.479
44361W        W 9346  12.296  10.099  11.696
44362W        W 9347  31.521   8.402  14.043
44363W        W 9348  35.225  33.033   4.184
44364W        W 9349  37.149   1.339   3.201
44365W        W 9350  23.004  42.573  11.107
44366W        W 9351  38.240  15.822   0.295
44367W        W 9352  21.116  34.928   4.661
44368W        W 9353  26.721   0.327   2.807
44369W        W 9354   2.180  42.418   5.004
44370W        W 9355  36.614  14.763  14.484
44371W        W 9356   9.597  12.118  13.898
44372W        W 9357  39.427  12.369   4.995
44373W        W 9358   8.364  30.503  11.424
44374W        W 9359  13.278  36.113  12.384
44375W        W 9360   2.740  18.640  12.052
44376W        W 9361  40.277   1.503  10.748
44377W        W 9362  44.409  30.415  14.945
44378W        W 9363  28.158  38.875   0.684
44379W        W 9364  15.582  41.677  11.217
44380W        W 9365   5.877  13.028   1.384
44381W        W 9366  10.614  34.541  14.926
44382W        W 9367  12.446   2.902  13.935
44383W        W 9368  30.519  20.558   1.678
44384W        W 9369  17.749  30.273   0.644
44385W        W 9370  10.510  31.547  14.086
44386W        W 9371   3.439  26.078   1.168
44387W        W 9372  18.607  14.263   2.277
44388W        W 9373  20.491   4.852  12.605
44389W        W 9374  15.410  26.607   1.849
44390W        W 9375  25.481  13.305  14.948
44391W        W 9376  42.910  18.142   1.832
44392W        W 9377   7.299  33.006   4.629
44393W        W 9378  22.799  35.087  11.441
44394W        W 9379  11.298  30.139   0.778
44395W        W 9380  27.765   9.411   4.230
44396W        W 9381  24.296  10.335   2.859
44397W        W 9382  43.781  13.549   0.654
44398W        W 9383  39.541   3.880  13.456
44399W        W 9384   3.964   6.629   5.496
44400W        W 9385  25.294  16.775   2.123
44401W        W 9386  32.010  32.941   0.394
44402W        W 9387  22.134  40.649  10.564
44403W        W 9388   6.824  19.623  12.642
44404W        W 9389   8.653   7.847  12.874
44405W        W 9390  11.846   5.938  14.595
44406W        W 9391  24.035   2.300  13.748
44407W        W 9392  13.145  32.106  12.032
44408W        W 9393  12.812  37.973  13.407
44409W        W 9394  27.307  44.517   1.790
44410W        W 9395   7.308  20.659  10.547
44411W        W 9396   0.587  31.472   0.674
44412W        W 9397  36.904   5.793  14.816
44413W        W 9398   5.210  27.634  14.112
44414W        W 9399  40.710  24.920   4.468
44415W        W 9400  22.238   0.075  12.142
44416W        W 9401   2.970  21.997  13.428
44417W        W 9402  33.881  14.769  14.793
44418W        W 9403  16.840   6.877   2.272
44419W        W 9404   4.259  37.457   1.964
44420W        W 9405  27.070   6.372   3.879
44421W        W 9406   8.376   8.672  11.682
44422W        W 9407   9.490  22.934   2.610
44423W        W 9408  40.508  11.376  11.547
44424W        W 9409  33.142  41.989   4.108
44425W        W 9410   7.317  34.002   0.731
44426W        W 9411   8.176  12.283  12.577
44427W        W 9412  19.102  35.175   2.298
44428W        W 9413  16.361  19.021  14.755
44429W        W 9414  40.822  38.897  11.106
44430W        W 9415   7.890   3.697   4.752
44431W        W 9416   3.913  35.017  14.054
44432W        W 9417  43.424  21.305  10.458
44433W        W 9418  14.003  10.828  10.584
44434W        W 9419   4.672   8.518   1.108
44435W        W 9420  30.123  42.944  14.023
44436W        W 9421   7.949  41.751   1.618
44437W        W 9422   8.798  44.764  11.588
44438W        W 9423  26.212  15.814   1.652
44439W        W 9424  18.831   6.980  13.855
44440W        W 9425  17.619  26.687   3.566
44441W        W 9426  38.913  16.056  11.602
44442W        W 9427  33.200  30.870  10.935
44443W        W 9428  33.740  21.121  13.651
44444W        W 9429  31.058  41.461  10.472
44445W        W 9430  27.948  17.076   4.468
44446W        W 9431  38.298  41.596  13.353
44447W        W 9432   2.586  18.982   1.931
44448W        W 9433   5.528  36.112  13.866
44449W        W 9434  32.388  29.828   0.659
44450W        W 9435   8.777  43.065   2.326
44451W        W 9436  16.602  10.383  14.000
44452W        W 9437  35.824   4.689  12.840
44453W        W 9438   3.210  19.883  11.090
44454W        W 9439  19.208  17.113  13.868
44455W        W 9440   9.726  44.889  10.817
44456W        W 9441  24.344  30.140  13.963
44457W        W 9442  12.003  26.705   2.835
44458W        W 9443  41.050  38.357  11.092
44459W        W 9444  28.914  20.231   4.727
44460W        W 9445  29.182  30.687  12.614
44461W        W 9446  18.271  35.635   3.518
44462W        W 9447  28.439  44.465   2.758
44463W        W 9448  17.762  26.454  11.837
44464W        W 9449  10.355  20.191   1.714
44465W        W 9450  31.979  15.560  14.828
44466W        W 9451  27.132   8.512  11.191
44467W        W 9452  40.001  34.425  14.804
44468W        W 9453  33.225  15.070  14.456
44469W        W 9454  34.564  22.331   3.735
44470W        W 9455  41.033  36.573  13.374
44471W        W 9456  31.178  27.881  11.137
44472W        W 9457   3.264   7.923  14.406
44473W        W 9458   2.145  14.906   4.563
44474W        W 9459   9.642  19.971   4.070
44475W        W 9460  41.806  27.099   3.683
44476W        W 9461  35.006  12.696  10.600
44477W        W 9462  15.048  24.588  11.589
44478W        W 9463  25.681  31.913   1.730
44479W        W 9464   5.760  31.655  12.950
44480W        W 9465   6.527  40.800  14.878
44481W        W 9466  18.207  27.155   2.778
44482W        W 9467   1.418  13.083   4.431
44483W        W 9468  32.099  22.670   3.354
44484W        W 9469  36.161  17.283  11.943
44485W        W 9470  12.859  21.583   3.345
44486W        W 9471  18.656  14.372   3.729
44487W        W 9472  31.918  10.670   3.659
44488W        W 9473  12.132   3.961  13.214
44489W        W 9474  36.496  29.459  10.416
44490W        W 9475  34.608  40.997   1.161
44491W        W 9476  17.383  36.792  13.118
44492W        W 9477  35.188  31.994  11.227
44493W        W 9478   3.656  38.087   1.585
44494W        W 9479   3.461  28.525   3.076
44495W        W 9480  10.714   3.334   0.353
44496W        W 9481  34.079   2.030  13.893
44497W        W 9482   3.018  37.927   3.731
44498W        W 9483  35.560   2.869   4.442
44499W        W 9484   9.727   7.238   2.125
44500W        W 9485  15.413  37.973  10.672
44501W        W 9486  38.547   1.349   0.679
44502W        W 9487  30.501  18.976  14.522
44503W        W 9488  10.240  13.114  14.083
44504W        W 9489   0.308  22.440   4.124
44505W        W 9490  17.710  21.653   1.407
44506W        W 9491  42.251  23.799   0.750
44507W        W 9492   4.846   6.073   3.295
44508W        W 9493   1.323   2.003  10.712
44509W        W 9494  35.591  10.252   2.590
44510W        W 9495  41.085  33.800   4.956
44511W        W 9496  43.936  32.977   2.205
44512W        W 9497  24.326  11.331  11.910
44513W        W 9498  42.409   1.237   3.745
44514W        W 9499  37.328  20.594   3.707
44515W        W 9500  43.771  25.964  14.019
44516W        W 9501  36.570  41.383   1.620
44517W        W 9502  35.117   2.862   0.771
44518W        W 9503   3.882  13.231  14.553
44519W        W 9504  23.920  40.460   3.864
44520W        W 9505   2.783  26.605   5.075
44521W        W 9506  20.449  26.643   2.731
44522W        W 9507   1.297  14.087   4.565
44523W        W 9508  27.708   7.009   2.858
44524W        W 9509  36.390   0.458   2.893
44525W        W 9510   6.620  28.648  12.504
44526W        W 9511  42.289  15.150   4.703
44527W        W 9512  37.534   6.920  14.923
44528W        W 9513  42.456  21.882   3.270
44529W        W 9514  31.992   0.392   4.278
44530W        W 9515  42.963  40.890   2.321
44531W        W 9516  15.877  19.588  14.851
44532W        W 9517  15.464  34.044  12.862
44533W        W 9518  13.751  39.605  13.503
44534W        W 9519  18.101  16.124   2.985
44535W        W 9520  26.011  18.246  11.016
44536W        W 9521   4.833  29.119   1.936
44537W        W 9522   7.932  38.764   2.294
44538W        W 9523   2.221   3.655  10.703
44539W        W 9524  22.558  21.252   4.189
44540W        W 9525   8.768  11.851   0.757
44541W        W 9526  29.392  38.539   2.210
44542W        W 9527  27.148  42.131  12.074
44543W        W 9528  20.630  12.824  14.121
44544W        W 9529  29.949  24.271   2.782
44545W        W 9530  10.887  34.030   1.610
44546W        W 9531  14.354  33.473  11.096
44547W        W 9532   9.401  27.114  10.710
44548W        W 9533  20.491  23.180  14.756
44549W        W 9534  16.738  10.745   0.247
44550W        W 9535   4.661  16.408   4.158
44551W        W 9536  27.266   5.341   3.206
44552W        W 9537  32.681   4.222   4.582
44553W        W 9538   8.410  43.300   0.819
44554W        W 9539  41.507  35.816   3.902
44555W        W 9540  40.863  24.393   3.659
44556W        W 9541   7.143  22.559  11.193
44557W        W 9542   7.047  32.034  10.359
44558W        W 9543  18.176  25.251   0.813
44559W        W 9544  38.898  27.117   1.695
44560W        W 9545  33.455  38.370   2.120
44561W        W 9546  22.654   3.405  14.296
44562W        W 9547  39.831  12.756   0.595
44563W        W 9548  14.232  32.603   0.122
44564W        W 9549  14.321  15.145   0.069
44565W        W 9550  10.778  31.458   0.916
44566W        W 9551  32.368  11.891   1.952
44567W        W 9552  33.172  27.313  13.767
44568W        W 9553  10.346  20.121   0.173
44569W        W 9554  29.628  28.715  13.091
44570W        W 9555  37.298  36.995  12.982
44571W        W 9556  28.939  36.128  13.441
44572W        W 9557  29.817  21.434  10.943
44573W        W 9558  20.490  19.433   0.624
44574W        W 9559  17.631   2.291   4.189
44575W        W 9560  28.506   4.228   3.879
44576W        W 9561  40.814   7.614  14.999
44577W        W 9562  23.200   4.729   0.271
44578W        W 9563  38.086  16.647   4.547
44579W        W 9564   2.821  37.828   2.855
44580W        W 9565   9.377  15.250   4.939
44581W        W 9566  37.025   0.748   2.353
44582W        W 9567  11.578   0.554   1.255
44583W        W 9568  13.338  34.851   1.514
44584W        W 9569  20.080  22.164   4.395
44585W        W 9570   0.368  10.318  12.727
44586W        W 9571   1.359  13.173   3.917
44587W        W 9572   6.719  12.416   4.071
44588W        W 9573  16.691  12.376   1.050
44589W        W 9574  22.242  20.703   1.309
44590W        W 9575   4.803   3.875  14.928
44591W        W 9576  43.954  23.777   0.414
44592W        W 9577  21.230  43.520   4.117
44593W        W 9578  29.738  27.058   3.413
44594W        W 9579   3.483  24.375  14.248
44595W        W 9580  31.876   0.718  10.622
44596W        W 9581  29.696   6.788  13.114
44597W        W 9582  19.956   9.798   4.844
44598W        W 9583  28.687  37.104   3.164
44599W        W 9584  12.197   3.072   1.856
44600W        W 9585  11.468   6.852   2.695
44601W        W 9586  44.817  44.568  12.376
44602W        W 9587  23.494  15.270  13.677
44603W        W 9588   3.322  34.117  11.197
44604W        W 9589  13.172   8.920   4.458
44605W        W 9590  33.778  35.773   0.717
44606W        W 9591  37.055  37.112   1.399
44607W        W 9592  24.538   7.664   1.605
44608W        W 9593   9.904  24.940   1.356
44609W        W 9594  34.937  29.481  10.712
44610W        W 9595  38.069  36.351   2.597
44611W        W 9596   5.361  29.790  12.091
44612W        W 9597  25.622  21.033   3.978
44613W        W 9598  33.869  41.117   0.229
44614W        W 9599   1.419   4.663   1.468
44615W        W 9600  23.152  13.354   1.388
44616W        W 9601   6.708  22.966   1.298
44617W        W 9602  26.225  37.311  12.863
44618W        W 9603  24.725  26.666  10.660
44619W        W 9604  41.328   1.819   3.566
44620W        W 9605  42.871  37.979   1.799
44621W        W 9606  17.132  14.334  14.516
44622W        W 9607   9.375  18.226   3.751
44623W        W 9608  38.512  42.803  13.926
44624W        W 9609   0.611  44.327  10.239
44625W        W 9610   2.861   4.848   1.342
44626W        W 9611  36.139  38.486  13.512
44627W        W 9612  40.991  18.736  13.974
44628W        W 9613  17.985  13.319   0.991
44629W        W 9614   4.277   2.700  12.141
44630W        W 9615  10.795  33.618   4.927
44631W        W 9616  38.870  39.728  14.703
44632W        W 9617  26.996  24.683  12.457
44633W        W 9618  20.036  43.862   4.873
44634W        W 9619  10.012  42.214  11.204
44635W        W 9620  26.986  26.906  12.022
44636W        W 9621  44.993  18.158   9.992
44637W        W 9622  20.199  40.756   4.446
44638W        W 9623  43.510  13.169   1.340
44639W        W 9624   9.905  30.125  12.529
44640W        W 9625  21.075  38.560   3.596
44641W        W 9626  28.884  18.050   3.795
44642W        W 9627  40.938  20.874   9.857
44643W        W 9628  24.763  33.102   3.785
44644W        W 9629  35.249  40.426   0.916
44645W        W 9630  26.468  33.991   0.998
44646W        W 9631  40.444  10.885   0.533
44647W        W 9632  16.928   6.017  12.353
44648W        W 9633  16.343   0.045   0.254
44649W        W 9634  14.796  30.078  13.946
44650W        W 9635  38.501  11.590  12.078
44651W        W 9636  25.185   2.223  12.442
44652W        W 9637   3.312  30.387  12.471
44653W        W 9638  15.044  19.106  11.567
44654W        W 9639  40.795  20.333  14.154
44655W        W 9640  15.216  34.958   3.822
44656W        W 9641  38.409  44.533   2.682
44657W        W 9642  11.093  30.933   3.815
44658W        W 9643  23.492  35.063   0.838
44659W        W 9644  41.214  20.153   4.743
44660W        W 9645  31.695  44.041  13.518
44661W        W 9646  18.917  15.352  13.998
44662W        W 9647  28.561   5.914  10.654
44663W        W 9648   3.981  41.306   3.204
44664W        W 9649  19.955  18.579   1.147
44665W        W 9650  25.521  26.222  12.093
44666W        W 9651  13.086  32.418   0.492
44667W        W 9652   1.227  40.355  11.612
44668W        W 9653  25.916  27.179   1.210
44669W        W 9654  30.882  39.469   1.235
44670W        W 9655  22.174  13.756   1.348
44671W        W 9656  21.971  33.203  11.805
44672W        W 9657  30.511  27.574   4.350
44673W        W 9658  20.684   3.851   2.606
44674W        W 9659  17.301  34.886   3.635
44675W        W 9660  31.582   3.926   1.456
44676W        W 9661  24.745  10.365   4.183
44677W        W 9662   3.580  18.150   2.176
44678W        W 9663  44.858   7.371   1.168
44679W        W 9664  26.194  17.594   1.026
44680W        W 9665   3.421  33.960   4.776
44681W        W 9666  28.311  40.875  11.032
44682W        W 9667  36.319  32.047   2.887
44683W        W 9668  17.045  23.242  14.665
44684W        W 9669   6.654  13.038  13.863
44685W        W 9670  40.875  39.780   0.483
44686W        W 9671  23.863   4.842   4.511
44687W        W 9672  11.136  22.579   2.826
44688W        W 9673  24.253  29.979  10.278
44689W        W 9674  31.756   8.963   0.329
44690W        W 9675   0.042  32.874  10.389
44691W        W 9676  42.376  15.776  11.404
44692W        W 9677  23.573  29.762  13.588
44693W        W 9678  25.696  38.323   0.899
44694W        W 9679  25.289   7.227  11.091
44695W        W 9680  37.175  10.424   0.934
44696W        W 9681  15.544  37.303   3.608
44697W        W 9682  23.891  26.733   2.911
44698W        W 9683  17.641  36.549  11.724
44699W        W 9684  14.318  37.654  14.151
44700W        W 9685  14.803   0.517   4.226
44701W        W 9686   6.408  30.788  10.419
44702W        W 9687  28.243  26.184  14.435
44703W        W 9688  36.620  36.345  10.727
44704W        W 9689  14.360  37.828  10.689
44705W        W 9690  17.866  12.399  11.605
44706W        W 9691  38.445   3.799   4.958
44707W        W 9692  35.379  35.163  13.346
44708W        W 9693  37.121  16.050  13.058
44709W        W 9694  29.801  15.830  10.849
44710W        W 9695  38.800  11.721   5.312
44711W        W 9696   0.476  22.108  12.724
44712W        W 9697  31.371  17.181  14.011
44713W        W 9698  20.351   7.861   1.762
44714W        W 9699  25.433   4.859   2.178
44715W        W 9700   9.067  42.637  13.026
44716W        W 9701  20.798  27.580   2.964
44717W        W 9702  14.525  36.178  12.213
44718W        W 9703  17.721  14.301  11.442
44719W        W 9704  31.365  15.275   0.042
44720W        W 9705  36.520  28.051  13.493
44721W        W 9706   5.324  17.740  10.585
44722W        W 9707  34.413  16.321  12.126
44723W        W 9708   4.818  43.414  13.002
44724W        W 9709  38.521  15.733   4.712
44725W        W 9710   9.782   4.016  10.570
44726W        W 9711  21.321  41.493  14.446
44727W        W 9712  39.657   3.379  11.943
44728W        W 9713  29.085   3.227   4.334
44729W        W 9714   7.315  30.439   1.726
44730W        W 9715  11.309   6.812   1.249
44731W        W 9716  24.714   7.712  10.785
44732W        W 9717   3.957  23.167   3.588
44733W        W 9718  18.700  33.553  12.156
44734W        W 9719  10.246  21.763  10.105
44735W        W 9720  18.636  31.920   3.371
44736W        W 9721  20.493  11.995  11.029
44737W        W 9722  36.685  10.670   4.404
44738W        W 9723   6.412   0.378  12.928
44739W        W 9724  19.736  43.028   0.233
44740W        W 9725  25.204  13.928   0.666
44741W        W 9726  38.539  42.707   4.608
44742W        W 9727  28.695  36.841   1.313
44743W        W 9728  17.124   1.817  12.730
44744W        W 9729  38.614   2.797   2.157
44745W        W 9730  32.454  35.413   1.868
44746W        W 9731  15.824  10.301   2.684
44747W        W 9732   9.822   7.913   1.892
44748W        W 9733  23.994  13.855  10.808
44749W        W 9734  14.319  18.562   3.666
44750W        W 9735  24.984  24.016  10.779
44751W        W 9736  23.030  38.624  12.010
44752W        W 9737  30.404  19.370  11.480
44753W        W 9738  13.140  23.632  14.923
44754W        W 9739  26.837  16.606  12.552
44755W        W 9740  32.622  21.638  11.017
44756W        W 9741  19.486  29.042   4.442
44757W        W 9742  13.936  18.228  12.923
44758W        W 9743  19.053  26.599   3.723
44759W        W 9744  32.636  16.696  12.953
44760W        W 9745   4.034  14.906   1.813
44761W        W 9746   4.942   9.568   4.623
44762W        W 9747  36.191   7.621  11.618
44763W        W 9748  33.569  19.269   0.962
44764W        W 9749   6.795   7.066  14.807
44765W        W 9750  44.193  23.882   1.668
44766W        W 9751   9.309  16.211   1.720
44767W        W 9752  37.231  31.459  13.783
44768W        W 9753   9.899  13.046  11.196
44769W        W 9754  16.545   2.778  12.173
44770W        W 9755  10.712  22.885   2.040
44771W        W 9756   5.327   0.323  11.173
44772W        W 9757  26.151   0.386   9.691
44773W        W 9758   9.154  16.856  12.484
44774W        W 9759   2.278  21.669  12.893
44775W        W 9760  16.611   8.354   0.796
44776W        W 9761  39.396  42.445  13.542
44777W        W 9762  23.511  37.770  12.009
44778W        W 9763  32.545  35.534  10.476
44779W        W 9764  41.495  17.026  12.827
44780W        W 9765  25.415  23.662  13.967
44781W        W 9766  16.604  42.259  12.884
44782W        W 9767  44.494  31.389  14.549
44783W        W 9768  11.573   2.372   1.470
44784W        W 9769   1.480  10.196  14.401
44785W        W 9770  28.931  42.120   3.812
44786W        W 9771   1.033  19.841   4.681
44787W        W 9772  34.079   3.425   2.699
44788W        W 9773  10.339  29.099   4.578
44789W        W 9774  14.293  33.783  13.424
44790W        W 9775   5.309  30.225   3.354
44791W        W 9776  22.287  42.236   2.701
44792W        W 9777  25.107  33.619   0.528
44793W        W 9778  22.287  44.405  10.912
44794W        W 9779   8.254  30.521  11.933
44795W        W 9780  27.979  35.669   2.832
44796W        W 9781  41.175  31.578  12.385
44797W        W 9782   5.670  34.890   4.151
44798W        W 9783  13.283  15.956   0.966
44799W        W 9784  43.873  43.368  13.780
44800W        W 9785  27.686  36.424   2.540
44801W        W 9786   5.676  17.587  11.897
44802W        W 9787  34.625  28.365   4.731
44803W        W 9788   8.984   0.333   2.611
44804W        W 9789   7.455  28.417  12.970
44805W        W 9790  37.533  31.934   4.544
44806W        W 9791  31.469  11.630   0.969
44807W        W 9792  17.601  14.211  14.767
44808W        W 9793   3.525   2.942   1.247
44809W        W 9794   3.352   6.100   0.760
44810W        W 9795  14.838  13.014   0.894
44811W        W 9796  11.073  30.413  14.800
44812W        W 9797   6.924   2.321   0.419
44813W        W 9798   6.394   9.118   1.190
44814W        W 9799  34.408  39.092   3.642
44815W        W 9800  20.929   4.139   0.320
44816W        W 9801  21.653  16.186  13.846
44817W        W 9802  24.446  30.170  13.055
44818W        W 9803  23.946  24.188  12.840
44819W        W 9804  21.320  15.350   1.293
44820W        W 9805   8.055  42.098   0.481
44821W        W 9806  31.932  26.090  13.474
44822W        W 9807  24.008  39.570   1.901
44823W        W 9808  16.830  10.068  13.024
44824W        W 9809  33.911  24.904  10.687
44825W        W 9810  43.980  23.721  14.476
44826W        W 9811  36.516  17.510   3.776
44827W        W 9812  29.888  31.961  14.519
44828W        W 9813  42.592  38.234  10.323
44829W        W 9814  26.495  21.097  12.063
44830W        W 9815  28.487  16.476   0.466
44831W        W 9816  23.594  38.109  13.518
44832W        W 9817  30.421  18.834   3.276
44833W        W 9818  20.714  24.875   1.916
44834W        W 9819  15.306  18.097  11.576
44835W        W 9820  43.417  13.031   4.532
44836W        W 9821  40.719  28.629  10.439
44837W        W 9822   5.750  14.656  12.369
44838W        W 9823  16.519  29.076   2.373
44839W        W 9824  38.413  37.468   1.698
44840W        W 9825   4.377  11.332   4.680
44841W        W 9826   1.271  14.110   1.987
44842W        W 9827   6.909   4.491  13.065
44843W        W 9828  24.010  19.097   3.796
44844W        W 9829   4.173  14.626  13.401
44845W        W 9830  43.901  41.935  14.923
44846W        W 9831  39.047  44.860   4.760
44847W        W 9832  33.076  44.715   4.648
44848W        W 9833  30.121   6.112  12.945
44849W        W 9834  22.560  28.845   1.396
44850W        W 9835  26.759  36.933   0.406
44851W        W 9836  18.685  31.372   4.165
44852W        W 9837  20.360  35.197   2.628
44853W        W 9838   4.204  29.955  11.186
44854W        W 9839  13.701  27.262  13.471
44855W        W 9840  33.927  38.996  12.522
44856W        W 9841  15.965  42.977   1.257
44857W        W 9842  22.452  26.514   0.425
44858W        W 9843  27.167   0.677   3.573
44859W        W 9844  29.074  36.034  10.949
44860W        W 9845  19.480  26.091  14.674
44861W        W 9846   9.551  26.547   2.291
44862W        W 9847   5.199   6.157   2.511
44863W        W 9848  20.521  43.336   0.353
44864W        W 9849  37.725  12.776  10.774
44865W        W 9850  30.471  19.899  11.583
44866W        W 9851  38.244   8.897   5.133
44867W        W 9852  30.097  41.425  10.945
44868W        W 9853  37.415  27.126   4.768
44869W        W 9854  37.423  42.569   4.525
44870W        W 9855  16.098  33.466   9.842
44871W        W 9856  29.206  13.308   2.341
44872W        W 9857   5.840  44.887   3.409
44873W        W 9858   1.824  27.167   3.740
44874W        W 9859  37.752   9.486   3.692
44875W        W 9860  23.647   7.626  13.040
44876W        W 9861   8.942  28.630  12.033
44877W        W 9862  13.094  31.657   3.035
44878W        W 9863  28.045  29.501  12.833
44879W        W 9864  33.603  21.463   1.699
44880W        W 9865   4.949  11.005   0.949
44881W        W 9866  27.605  10.335   0.409
44882W        W 9867   2.168  33.111   0.701
44883W        W 9868  38.563   8.361  12.932
44884W        W 9869  38.794   7.209  13.301
44885W        W 9870   6.396  34.981  13.409
44886W        W 9871  25.198  39.471   1.399
44887W        W 9872  25.605  32.080  14.510
44888W        W 9873  14.616   4.911   2.813
44889W        W 9874  25.630  32.743   4.190
44890W        W 9875  16.022  40.811  14.448
44891W        W 9876   9.067  23.492  13.030
44892W        W 9877  37.589  12.728  12.887
44893W        W 9878  30.479  32.481  11.821
44894W        W 9879  19.298  34.198   4.582
44895W        W 9880   6.983  14.207   4.284
44896W        W 9881   3.770  29.455   0.397
44897W        W 9882  14.878  14.375  11.517
44898W        W 9883   9.334   5.734   0.817
44899W        W 9884  41.777   4.032  13.517
44900W        W 9885  24.251  19.617   1.225
44901W        W 9886  32.674   9.429   4.948
44902W        W 9887   8.331   4.848   3.165
44903W        W 9888  29.465  21.997  12.797
44904W        W 9889   5.360  42.049   4.646
44905W        W 9890  10.325  17.589   4.457
44906W        W 9891  37.918   4.898   1.465
44907W        W 9892  29.717   2.803  11.508
44908W        W 9893  14.335  14.563   2.766
44909W        W 9894  30.483  35.847   1.304
44910W        W 9895  42.485  23.997   3.845
44911W        W 9896  18.958  31.036   4.496
44912W        W 9897   1.953  33.656  11.893
44913W        W 9898  28.401  24.500   4.528
44914W        W 9899  13.171  31.516   3.544
44915W        W 9900  23.415   4.124   5.073
44916W        W 9901  16.134  14.283   2.896
44917W        W 9902  38.532   0.330  11.709
44918W        W 9903  14.642  23.139  12.145
44919W        W 9904   9.850  30.529   4.574
44920W        W 9905  35.130  31.863  12.650
44921W        W 9906  41.516  35.488  13.460
44922W        W 9907  21.154  36.956  14.076
44923W        W 9908  31.785  12.419   1.533
44924W        W 9909  12.393  11.230   4.162
44925W        W 9910  37.054   3.240  12.098
44926W        W 9911   6.209  33.106  10.665
44927W        W 9912  16.646  22.088  14.380
44928W        W 9913  30.976  26.240   3.183
44929W        W 9914  21.283  44.314   0.745
44930W        W 9915  23.564   9.195  14.048
44931W        W 9916  32.385  15.689   1.118
44932W        W 9917  11.715  26.508  12.911
44933W        W 9918  20.232  19.321  14.850
44934W        W 9919  39.042  13.814  14.240
44935W        W 9920  18.694  24.599  12.562
44936W        W 9921   5.005  17.071  14.801
44937W        W 9922   1.579  31.508   0.831
44938W        W 9923  21.764  33.597  10.757
44939W        W 9924  19.093  24.404  13.527
44940W        W 9925  41.616   4.615  12.459
44941W        W 9926   9.179  16.195   4.387
44942W        W 9927  43.498   9.402  14.214
44943W        W 9928   7.389  38.457  10.565
44944W        W 9929  29.094  17.208  12.368
44945W        W 9930   3.701   9.769  11.191
44946W        W 9931  38.333   9.924  13.633
44947W        W 9932   2.536  29.907  11.523
44948W        W 9933  16.083  11.230  10.638
44949W        W 9934  37.863  19.379   2.176
44950W        W 9935   1.018  27.082   2.154
44951W        W 9936  22.999  14.516   4.729
44952W        W 9937   8.248  30.964  11.228
44953W        W 9938  25.486  21.683  11.620
44954W        W 9939  42.527  11.824   3.145
44955W        W 9940  41.875  15.120  13.394
44956W        W 9941  16.590  14.409   3.124
44957W        W 9942  38.076  27.334   5.426
44958W        W 9943   5.750  19.972   1.850
44959W        W 9944  32.801  13.263   3.703
44960W        W 9945  26.023   7.350  11.566
44961W        W 9946  42.325   2.263   2.768
44962W        W 9947  12.560  28.664  13.040
44963W        W 9948  39.020  30.091  14.825
44964W        W 9949  34.517  32.408  14.325
44965W        W 9950  18.834   8.390  12.417
44966W        W 9951  13.247  38.780   1.709
44967W        W 9952  25.541   6.813  11.989
44968W        W 9953  21.309   2.853  14.642
44969W        W 9954  11.880   3.057   3.344
44970W        W 9955   9.379  31.522   0.954
44971W        W 9956  37.580  40.489  11.971
44972W        W 9957   8.096  10.813  12.712
44973W        W 9958  19.194  13.650  14.986
44974W        W 9959  36.807  32.951  12.593
44975W        W 9960  34.488  43.796  11.795
44976W        W 9961  12.107  26.017   1.318
44977W        W 9962  19.043   7.898   0.304
44978W        W 9963  20.340  11.289  13.380
44979W        W 9964  22.842   0.299   3.664
44980W        W 9965   8.074  18.101  13.821
44981W        W 9966  30.677  22.211   2.815
44982W        W 9967  39.110  15.957  12.816
44983W        W 9968  26.104  12.365  13.024
44984W        W 9969  22.177  32.992   1.807
44985W        W 9970   9.993   0.775  11.039
44986W        W 9971   3.866  20.977  14.968
44987W        W 9972  44.016   7.910   0.160
44988W        W 9973  17.892  11.694  11.169
44989W        W 9974  13.575   2.985   1.424
44990W        W 9975  15.112  33.014   1.929
44991W        W 9976  12.211  14.702   4.312
44992W        W 9977   8.292   5.637   1.853
44993W        W 9978  26.955   3.375   3.745
44994W        W 9979  14.385  27.203   0.827
44995W        W 9980  30.464   8.735   4.747
44996W        W 9981  24.147  27.589   3.595
44997W        W 9982  22.648  39.809  13.962
44998W        W 9983  19.533  40.096  12.531
44999W        W 9984  35.048  10.836  14.992
45000W        W 9985  26.459  25.609  12.792
45001W        W 9986  40.299  28.330   3.192
45002W        W 9987  26.660  16.233   3.998
45003W        W 9988  37.909   6.228  12.446
45004W        W 9989   1.868  22.081  11.617
45005W        W 9990  10.699  35.655   0.762
45006W        W 9991  32.191  33.603  12.076
45007W        W 9992  33.387   5.637   1.448
45008W        W 9993  37.963   6.978   5.018
45009W        W 9994  26.527  21.602  14.504
45010W        W 9995  34.517  23.308   3.774
45011W        W 9996  12.630   7.878   9.878
45012W        W 9997  34.889  18.840  14.146
45013W        W 9998  43.624  12.174   0.660
45014W        W 9999   6.021  37.406  14.605
45015W        W10000   0.679  17.110  12.177
45016W        W10001  27.847   9.034  13.777
45017W        W10002   2.267  44.478  14.415
45018W        W10003  32.147  30.667  11.711
45019W        W10004   3.278  41.865  12.218
45020W        W10005  28.939  36.530   4.614
45021W        W10006  42.084  25.554   2.285
45022W        W10007  23.913   2.801   2.768
45023W        W10008  35.100  10.354  12.061
45024W        W10009  24.564  21.587   3.880
45025W        W10010  12.767  21.196  13.736
45026W        W10011  44.452   9.183  11.347
45027W        W10012  29.253  38.558  11.146
45028W        W10013  21.626  29.988  12.059
45029W        W10014  10.558  27.197   4.881
45030W        W10015  29.434   1.891  13.201
45031W        W10016  37.295  37.315  13.946
45032W        W10017  43.302  37.335  11.602
45033W        W10018   5.278  14.781  13.750
45034W        W10019  22.481  18.350  12.430
45035W        W10020  18.183  44.253   3.778
45036W        W10021   0.799  35.320   0.398
45037W        W10022  16.236  40.334  13.276
45038W        W10023  30.026  38.517   1.978
45039W        W10024  17.683  18.073   4.604
45040W        W10025  24.053  22.980   4.701
45041W        W10026  14.643  11.526   0.657
45042W        W10027   3.632  23.236   3.195
45043W        W10028   0.813  19.662   0.406
45044W        W10029  21.559  41.901  13.307
45045W        W10030  38.536   0.455   1.761
45046W        W10031  26.651  14.789   1.318
45047W        W10032  34.166  31.432   1.341
45048W        W10033   1.253  26.646  12.101
45049W        W10034  42.759  44.593   3.719
45050W        W10035  43.490  34.400   3.744
45051W        W10036  27.043  42.634  12.035
45052W        W10037  41.213  29.632  11.936
45053W        W10038  41.959  27.727  11.376
45054W        W10039  29.661  33.539   0.004
45055W        W10040  24.088  16.310  10.696
45056W        W10041  17.985  24.635  12.552
45057W        W10042  28.561   9.686   2.392
45058W        W10043  26.291  29.144   1.976
45059W        W10044  16.340   4.607   3.586
45060W        W10045  39.080  44.260   1.245
45061W        W10046  36.000   3.870  14.085
45062W        W10047  11.081  43.439   2.800
45063W        W10048  13.162  42.554   1.587
45064W        W10049  28.637  30.040  10.270
45065W        W10050  31.494  33.085  12.403
45066W        W10051  10.740  38.507   3.092
45067W        W10052   3.945  18.175   0.108
45068W        W10053  27.518  19.654   3.248
45069W        W10054  10.214  16.062  13.061
45070W        W10055  12.400  24.187   1.449
45071W        W10056   0.842   0.918  13.337
45072W        W10057  28.013  22.838  10.644
45073W        W10058  41.821   0.644   0.695
45074W        W10059  18.608  27.219  12.409
45075W        W10060  39.254  10.634   1.482
45076W        W10061  30.661  16.254   3.919
45077W        W10062  31.999  16.847  13.612
45078W        W10063   8.909   4.098  12.597
45079W        W10064  13.557  14.728  14.955
45080W        W10065  26.580  12.437   4.082
45081W        W10066  36.538  34.403   0.462
45082W        W10067  14.218  43.517   0.823
45083W        W10068  42.278  13.143  13.672
45084W        W10069   1.758  14.555  14.806
45085W        W10070  14.400   9.080  11.992
45086W        W10071  18.420  23.241  12.725
45087W        W10072  24.711  29.959   4.667
45088W        W10073  44.578  27.873   0.440
45089W        W10074  42.594  26.740   2.697
45090W        W10075  30.035  37.248   1.731
45091W        W10076  21.535  37.423  12.849
45092W        W10077  29.407  34.679   4.577
45093W        W10078  43.891  27.077   2.558
45094W        W10079  28.555  16.317   2.759
45095W        W10080  40.163  42.796  13.261
45096W        W10081  22.427  24.413  12.788
45097W        W10082  12.807  15.204   4.654
45098W        W10083  36.382  31.091  13.662
45099W        W10084  27.949  35.107  13.438
45100W        W10085  21.621  40.077  13.436
45101W        W10086  23.500  10.315  10.616
45102W        W10087  25.526   6.711   3.159
45103W        W10088  28.859  22.643  12.223
45104W        W10089  18.133  38.506  13.837
45105W        W10090   2.822  41.487   4.725
45106W        W10091  39.299  23.671   0.920
45107W        W10092   0.925   9.956  12.028
45108W        W10093  33.085  19.153  11.573
45109W        W10094  44.908  10.488   3.608
45110W        W10095  17.042  26.569  11.554
45111W        W10096  24.092  24.879  14.460
45112W        W10097   8.104   3.368  11.931
45113W        W10098  15.661   4.366  12.830
45114W        W10099   4.767  10.847   1.413
45115W        W10100  27.910   7.888  13.075
45116W        W10101  44.560  34.939  11.532
45117W        W10102  37.564  34.296  13.366
45118W        W10103  18.615  22.005   2.280
45119W        W10104  31.187  25.557   1.834
45120W        W10105  25.557   7.832   2.732
45121W        W10106   4.804   7.876  13.762
45122W        W10107  23.427  43.248  10.770
45123W        W10108  17.041  21.793  14.258
45124W        W10109  44.262  19.597  13.552
45125W        W10110   3.946  34.834  13.090
45126W        W10111  28.084  44.389  14.857
45127W        W10112  41.217  10.751   1.280
45128W        W10113  10.504   5.803   3.631
45129W        W10114   7.177  28.648   3.709
45130W        W10115  30.960  12.870   4.427
45131W        W10116  28.066  23.556  13.421
45132W        W10117  32.045  12.235  12.660
45133W        W10118  24.207  28.531   1.702
45134W        W10119  30.715   2.003  11.220
45135W        W10120  43.364  35.948   1.349
45136W        W10121  31.588  11.357   4.896
45137W        W10122   7.580  16.657  11.516
45138W        W10123   0.936  27.942  12.950
45139W        W10124  22.148  18.341   0.488
45140W        W10125  21.757  15.103  14.687
45141W        W10126  36.078  42.663  11.684
45142W        W10127  43.392  19.040   4.045
45143W        W10128  38.408  20.519  12.433
45144W        W10129  32.239  37.801  14.923
45145W        W10130  11.745  34.346   3.342
45146W        W10131  26.499  15.220  10.300
45147W        W10132  36.903  26.190   2.433
45148W        W10133   7.239  15.698  11.668
45149W        W10134  25.399   1.436   1.009
45150W        W10135  39.918  26.033  13.952
45151W        W10136  26.530  21.726  11.542
45152W        W10137  12.614  43.665   2.649
45153W        W10138   8.641  33.850  10.505
45154W        W10139  34.450  21.274   3.658
45155W        W10140  10.887  23.516   1.056
45156W        W10141  40.870   6.516   2.165
45157W        W10142  26.276  28.500   0.957
45158W        W10143  31.726  29.445   3.079
45159W        W10144  16.202  13.083   0.971
45160W        W10145  11.836  10.295   2.647
45161W        W10146  25.195  44.995   2.911
45162W        W10147   9.751  20.197   1.706
45163W        W10148   8.909  19.085  11.714
45164W        W10149  21.004  34.432  14.525
45165W        W10150  11.801  36.531   3.574
45166W        W10151  44.741  28.073  10.999
45167W        W10152  22.158  37.074  12.913
45168W        W10153  15.401  21.335   1.382
45169W        W10154  17.340  23.148   1.870
45170W        W10155  19.232  26.686  11.967
45171W        W10156  19.761  30.505   9.969
45172W        W10157  10.023  38.194  11.213
45173W        W10158   9.871  33.138  11.502
45174W        W10159  17.734   9.428   1.261
45175W        W10160  26.901  37.104  14.461
45176W        W10161  38.539  41.684   4.628
45177W        W10162  32.970  21.730   4.353
45178W        W10163  13.657  23.688  12.973
45179W        W10164  27.699   4.869  11.103
45180W        W10165  40.547   9.532   1.198
45181W        W10166  11.415   8.389  12.074
45182W        W10167   8.031   4.713  12.209
45183W        W10168  40.545  10.758  13.443
45184W        W10169  10.321  16.019   1.603
45185W        W10170   4.650  21.023   3.486
45186W        W10171   2.014  29.950  14.284
45187W        W10172  10.567  35.930   1.913
45188W        W10173  21.945  37.095   4.142
45189W        W10174   2.191  23.701  12.066
45190W        W10175  36.178  12.347   1.858
45191W        W10176  30.118  32.279  11.208
45192W        W10177   4.314  33.016   4.795
45193W        W10178  22.121   2.497   3.872
45194W        W10179  18.584  43.204   4.186
45195W        W10180  43.554  34.677   3.306
45196W        W10181  43.391   7.976  14.333
45197W        W10182   7.667  30.207   2.844
45198W        W10183  21.323  32.453  11.615
45199W        W10184  33.550  39.540   0.794
45200W        W10185  33.851   1.880   2.281
45201W        W10186  39.834  27.433   2.469
45202W        W10187  26.144  34.057   3.581
45203W        W10188   7.240  29.779   0.349
45204W        W10189  18.934  36.042   3.649
45205W        W10190   1.213  16.559  12.448
45206W        W10191  42.036  31.427  13.396
45207W        W10192  23.907  43.779   1.000
45208W        W10193  35.935  13.440   4.595
45209W        W10194  32.852  35.538  11.171
45210W        W10195  37.947  13.791  13.960
45211W        W10196  16.702  19.547   3.705
45212W        W10197  26.094  23.037  12.603
45213W        W10198  29.150  28.707   0.482
45214W        W10199  13.995  31.398  13.956
45215W        W10200  37.935  11.340   2.312
45216W        W10201  26.442   3.318   3.617
45217W        W10202   8.174  34.284  14.542
45218W        W10203  11.821  22.738  11.958
45219W        W10204  17.241  42.000  12.123
45220W        W10205  29.115   2.657   1.778
45221W        W10206   4.323   3.570   1.795
45222W        W10207  44.878   9.476   3.746
45223W        W10208  14.758  30.585   2.819
45224W        W10209  42.707  30.361   1.838
45225W        W10210   4.436  13.626   4.613
45226W        W10211  15.610  24.555   2.283
45227W        W10212   7.366  35.827   1.379
45228W        W10213  27.844  39.364  10.664
45229W        W10214   1.329  25.183   3.364
45230W        W10215  13.416  17.620  13.969
45231W        W10216  19.564   2.554   1.445
45232W        W10217   3.648   2.170   1.843
45233W        W10218  28.798  19.062  14.823
45234W        W10219  26.375   7.164  11.891
45235W        W10220  22.773  26.204  13.039
45236W        W10221  44.078  20.581  14.883
45237W        W10222  30.042   8.248   4.291
45238W        W10223  31.627  40.778   1.227
45239W        W10224   8.884   0.819   1.730
45240W        W10225  14.553  11.749   4.577
45241W        W10226  10.056  38.106   2.146
45242W        W10227  36.413  36.576  12.138
45243W        W10228  33.042  13.012   1.331
45244W        W10229  13.764  15.555   0.607
45245W        W10230  25.038   5.927  10.864
45246W        W10231  22.383   1.105  11.241
45247W        W10232  12.272  27.267   0.541
45248W        W10233  39.329   0.004  13.581
45249W        W10234   6.425   3.720   0.292
45250W        W10235  28.881  23.782  13.927
45251W        W10236  13.387  20.258   3.781
45252W        W10237   7.809  37.341  13.015
45253W        W10238   2.866  40.065   0.985
45254W        W10239  24.523   1.325   9.720
45255W        W10240  40.079  31.995  13.950
45256W        W10241  24.741   1.622   3.727
45257W        W10242  42.651  36.645  11.881
45258W        W10243  39.298  31.129  12.118
45259W        W10244  20.258   3.944  12.390
45260W        W10245  18.000  31.365  12.952
45261W        W10246  36.185  25.465  10.471
45262W        W10247  17.744   8.300   0.042
45263W        W10248  23.957   4.937  10.861
45264W        W10249  14.547  27.824  13.454
45265W        W10250   1.102  19.152   3.379
45266W        W10251  14.769  20.466  13.546
45267W        W10252  26.247  20.084  11.592
45268W        W10253  14.270  14.308   4.872
45269W        W10254  38.255   6.355  13.550
45270W        W10255  12.192  19.103  11.719
45271W        W10256  38.351  43.427  11.537
45272W        W10257   4.660  15.585   1.337
45273W        W10258   1.914  44.774   3.991
45274W        W10259  28.239   3.187  12.491
45275W        W10260   6.245  44.029   3.383
45276W        W10261  41.345  27.995  10.933
45277W        W10262   2.291  34.309   2.334
45278W        W10263  33.181  44.212   2.841
45279W        W10264  10.292  13.191   3.831
45280W        W10265  19.829  44.632  13.937
45281W        W10266  19.333   2.301   4.673
45282W        W10267  10.576  31.451   4.367
45283W        W10268   8.153  12.813  13.412
45284W        W10269   5.414  23.125   0.660
45285W        W10270   0.212   8.759  13.307
45286W        W10271  19.607  21.122  11.145
45287W        W10272  37.391  33.878   3.715
45288W        W10273   0.373  37.461   3.760
45289W        W10274  18.178   2.172  13.735
45290W        W10275  43.227   2.933   3.846
45291W        W10276  28.070  25.919  13.971
45292W        W10277   4.857  29.633   0.135
45293W        W10278  11.191  44.975   1.654
45294W        W10279  24.938   2.476   2.447
45295W        W10280  10.235  41.404   1.380
45296W        W10281  42.867  31.165   3.699
45297W        W10282  34.250  31.077   3.735
45298W        W10283  21.212   1.542   3.233
45299W        W10284  15.062  30.028  14.382
45300W        W10285   2.270  28.648  11.129
45301W        W10286  35.002  14.604  13.816
45302W        W10287  23.117  42.049   3.638
45303W        W10288  26.204  17.782  12.805
45304W        W10289  28.721   2.991  12.260
45305W        W10290   3.809  31.951   4.572
45306W        W10291   2.090  15.672   3.356
45307W        W10292  11.660  20.246  10.790
45308W        W10293  37.880  40.595   4.545
45309W        W10294  17.000   4.657   3.215
45310W        W10295  37.009  37.496  11.163
45311W        W10296  44.237  28.150  10.257
45312W        W10297  18.620  28.008   1.924
45313W        W10298  22.008  36.154  11.821
45314W        W10299   7.170  11.137  11.048
45315W        W10300  44.371  19.009   3.714
45316W        W10301  41.687  30.414   4.012
45317W        W10302  44.467  29.125   2.244
45318W        W10303  12.754   3.370   2.323
45319W        W10304  39.419  42.851   1.638
45320W        W10305  37.908  24.198   1.010
45321W        W10306  34.903  22.279   4.115
45322W        W10307  19.140  14.568  10.553
45323W        W10308   3.577   9.172  10.765
45324W        W10309  21.719  19.170   1.271
45325W        W10310  22.004   0.628  14.875
45326W        W10311  44.224  27.579  12.181
45327W        W10312  27.037  12.129   1.683
45328W        W10313  34.177  27.063   3.066
45329W        W10314  34.417   8.231  12.950
45330W        W10315  14.777   5.875   1.292
45331W        W10316   7.886  15.553   3.994
45332W        W10317  33.156  17.123  12.441
45333W        W10318  35.445   1.535  12.959
45334W        W10319  31.294  37.899  13.840
45335W        W10320  23.946  13.192   3.425
45336W        W10321  25.977  17.546  12.358
45337W        W10322  42.906  19.457   2.859
45338W        W10323  11.370   4.363   4.406
45339W        W10324  13.253   2.481  11.478
45340W        W10325  13.535  41.021   4.484
45341W        W10326  27.895  20.267  14.225
45342W        W10327   4.681  32.046  13.069
45343W        W10328  20.620  27.134  14.486
45344W        W10329  42.517   5.124  12.423
45345W        W10330   7.759  25.085  11.791
45346W        W10331  40.015  17.200   0.815
45347W        W10332   4.805  37.028   4.028
45348W        W10333  16.299  14.518   0.002
45349W        W10334  39.253  18.079  11.095
45350W        W10335  26.020  37.132  13.320
45351W        W10336   0.544  15.829  11.488
45352W        W10337   7.400  30.895  12.997
45353W        W10338  16.713  43.058   2.616
45354W        W10339  20.259  43.420   4.139
45355W        W10340   0.546  10.461  14.791
45356W        W10341   5.619  44.423  12.870
45357W        W10342  10.157   3.309   3.734
45358W        W10343   4.307   0.296   0.548
45359W        W10344  41.977   8.436  12.671
45360W        W10345  11.823  17.719  10.838
45361W        W10346  23.929  11.726   3.253
45362W        W10347  24.464  33.556  11.391
45363W        W10348  27.932  42.570   1.113
45364W        W10349  28.136  28.385   1.247
45365W        W10350   4.442  36.317  11.561
45366W        W10351  16.694  15.093  14.516
45367W        W10352  33.866  21.755  12.616
45368W        W10353  38.470  22.056  14.955
45369W        W10354   4.014  44.971  10.948
45370W        W10355  10.289  35.608  14.800
45371W        W10356  11.541  36.080  13.902
45372W        W10357   6.331  41.083   4.082
45373W        W10358  32.896  14.795  11.102
45374W        W10359  28.424  24.689  14.186
45375W        W10360  41.448  12.289   0.898
45376W        W10361  14.874  15.037  12.908
45377W        W10362  15.864  15.866  10.771
45378W        W10363   4.682  34.539  14.706
45379W        W10364   4.723  28.435  12.389
45380W        W10365  14.271  17.606   2.198
45381W        W10366  21.434   3.892  14.540
45382W        W10367  39.706  12.135   3.181
45383W        W10368   5.431  25.963  14.346
45384W        W10369  35.992   6.663   1.640
45385W        W10370  44.420  18.080   3.170
45386W        W10371  12.198   6.817  14.096
45387W        W10372  17.418   7.449   2.795
45388W        W10373  43.377  22.582  10.576
45389W        W10374  18.817  41.964  12.957
45390W        W10375  13.796  22.021   4.290
45391W        W10376  17.800   2.661   0.716
45392W        W10377  28.993  14.981  14.997
45393W        W10378  39.961  33.321  12.900
45394W        W10379  24.932  36.894   2.372
45395W        W10380  33.474   6.870  12.974
45396W        W10381  19.799   5.742  10.620
45397W        W10382  11.653  26.072  11.134
45398W        W10383  30.092  16.511  14.916
45399W        W10384   9.638  35.633  12.517
45400W        W10385  43.940   5.274  14.982
45401W        W10386  24.966   4.254   1.272
45402W        W10387  19.856  29.217  13.491
45403W        W10388  37.354  24.238   2.181
45404W        W10389   4.234  30.652   4.607
45405W        W10390  27.216   2.907  12.029
45406W        W10391  25.079  36.880   4.921
45407W        W10392  43.933   0.638  13.897
45408W        W10393  21.326  27.049   3.075
45409W        W10394  32.865  27.718   1.793
45410W        W10395  32.929  31.170   3.149
45411W        W10396   1.314  25.703   2.705
45412W        W10397   1.126   6.368   1.932
45413W        W10398  24.822  40.937  14.507
45414W        W10399  17.619  35.268   1.380
45415W        W10400   7.339  31.612   0.864
45416W        W10401   1.832  21.057  13.327
45417W        W10402  27.250   0.752  10.722
45418W        W10403  44.308   8.623  14.903
45419W        W10404  32.152   5.651  10.644
45420W        W10405  22.217   3.421   3.374
45421W        W10406  18.090  17.794   2.848
45422W        W10407  24.201  27.499   2.644
45423W        W10408  16.816   0.465  14.832
45424W        W10409  14.619   6.659  12.945
45425W        W10410  17.765   3.264  11.723
45426W        W10411  23.775  12.024   1.336
45427W        W10412  35.373  30.197  12.094
45428W        W10413  38.914  27.501   2.605
45429W        W10414  38.994  30.730  12.783
45430W        W10415  15.489  22.059  12.097
45431W        W10416  18.362  33.029   4.588
45432W        W10417  42.885  19.541  14.996
45433W        W10418   6.552  11.304   0.339
45434W        W10419  19.216  15.695   4.811
45435W        W10420  16.665  31.192  12.820
45436W        W10421  42.289  40.458   1.416
45437W        W10422  22.543  41.378  10.250
45438W        W10423  22.173  38.500   0.279
45439W        W10424  21.276  11.149  11.649
45440W        W10425  43.730  40.203  12.372
45441W        W10426  32.614  18.087  11.685
45442W        W10427   0.910  29.340   2.247
45443W        W10428   6.283   9.329   2.365
45444W        W10429  27.416  15.586   4.287
45445W        W10430  29.421   7.143  10.718
45446W        W10431  25.087  23.924   2.391
45447W        W10432  16.836  29.938  11.409
45448W        W10433   8.978  13.333  11.169
45449W        W10434  18.103   3.807  11.098
45450W        W10435  11.841   9.842  13.968
45451W        W10436  15.035  25.098  11.151
45452W        W10437  33.940  30.522   1.816
45453W        W10438  10.771   3.930   3.860
45454W        W10439   2.902  38.402  13.587
45455W        W10440  19.243  35.459  10.772
45456W        W10441  33.516  10.863  11.153
45457W        W10442  30.671   9.810   3.007
45458W        W10443   4.905  14.179   3.260
45459W        W10444  43.225  14.249  11.084
45460W        W10445  34.217  33.768  12.925
45461W        W10446  33.944  30.118  10.583
45462W        W10447   1.669  10.486  13.433
45463W        W10448  42.922  34.913  11.221
45464W        W10449   6.392  20.445   1.352
45465W        W10450  14.303  24.160   4.667
45466W        W10451  10.055  21.519   2.802
45467W        W10452  13.332   5.654  13.979
45468W        W10453  13.113  27.653  10.665
45469W        W10454  17.421  15.085  13.880
45470W        W10455  38.877  19.086   4.084
45471W        W10456  40.916  10.370  10.752
45472W        W10457  27.050   9.416  13.954
45473W        W10458  12.297  11.949   3.144
45474W        W10459  41.931  29.889   4.627
45475W        W10460  43.497  24.019   4.747
45476W        W10461  15.209  22.439  12.348
45477W        W10462   5.805  16.813   2.399
45478W        W10463  10.673  12.443  12.008
45479W        W10464  22.635  11.583  12.351
45480W        W10465  41.761   8.026   2.532
45481W        W10466  16.625  39.322  14.829
45482W        W10467  28.085  39.026   2.077
45483W        W10468  41.086  32.521   1.447
45484W        W10469   7.188  41.004  12.002
45485W        W10470   1.849   8.999   4.508
45486W        W10471  10.834  17.548   4.730
45487W        W10472  38.584   4.177  14.638
45488W        W10473  37.838  44.296   0.921
45489W        W10474  34.859   8.618  13.037
45490W        W10475  41.615  32.667   1.490
45491W        W10476  39.311  39.941  14.886
45492W        W10477  20.949   9.664   3.907
45493W        W10478   3.042   0.416   2.101
45494W        W10479  33.813   3.001   4.152
45495W        W10480  11.780  16.252   3.698
45496W        W10481  27.639   9.740  12.494
45497W        W10482  37.511  21.176  14.675
45498W        W10483  28.705  12.248   1.460
45499W        W10484  30.718  12.630  13.450
45500W        W10485  22.478  15.290   1.417
45501W        W10486  12.157  22.580   2.643
45502W        W10487  42.518  20.112  14.352
45503W        W10488   4.296   8.500  13.325
45504W        W10489  27.523   3.688  13.735
45505W        W10490  27.262  44.597   9.912
45506W        W10491  15.695   4.544   4.125
45507W        W10492   7.112  19.682   0.079
45508W        W10493   9.376  20.264   3.161
45509W        W10494  36.094  43.494   3.617
45510W        W10495  39.223  15.989   2.358
45511W        W10496   4.198  33.619   3.292
45512W        W10497  20.244  27.160  10.151
45513W        W10498  21.582   8.777  13.532
45514W        W10499  29.244  12.080   3.175
45515W        W10500   9.955  23.153   2.601
45516W        W10501  35.710  34.398   3.800
45517W        W10502   7.693  24.226  14.787
45518W        W10503  44.363  18.050  13.813
45519W        W10504  38.671  41.348  13.088
45520W        W10505  29.642  21.111   3.557
45521W        W10506  25.655  29.142  14.621
45522W        W10507  38.609  35.356  13.377
45523W        W10508  16.946  33.145  14.549
45524W        W10509  40.797  18.017   1.312
45525W        W10510  43.821  38.966  11.221
45526W        W10511  16.048  39.291  10.746
45527W        W10512  41.828  19.547   4.110
45528W        W10513  16.489   2.905  11.245
45529W        W10514  12.447  43.793   1.582
45530W        W10515  35.606   1.735  10.943
45531W        W10516  37.320  30.631   1.838
45532W        W10517  44.301  16.398   0.342
45533W        W10518  38.854  35.131  12.028
45534W        W10519  38.958  28.204   4.059
45535W        W10520  15.871  31.419  10.823
45536W        W10521  41.893  17.511  14.363
45537W        W10522  30.594  22.745  12.474
45538W        W10523   3.442  36.604  10.720
45539W        W10524  14.607  40.256   4.109
45540W        W10525  43.087  39.523  10.603
45541W        W10526  43.707   6.945   2.868
45542W        W10527  22.692  19.532  14.466
45543W        W10528  34.684  32.020  11.234
45544W        W10529  27.784  21.819   1.874
45545W        W10530  24.580   4.489  11.492
45546W        W10531   2.718   7.903  13.992
45547W        W10532  24.465   7.675  12.024
45548W        W10533  12.164  20.117   3.059
45549W        W10534  39.607  16.005  10.652
45550W        W10535   5.619  24.579   0.601
45551W        W10536  15.827  30.476   2.224
45552W        W10537  41.929  28.086   1.769
45553W        W10538   8.385  14.245   2.387
45554W        W10539  19.997  11.427   1.475
45555W        W10540  12.281  24.259  13.103
45556W        W10541  19.247  38.783  11.455
45557W        W10542  26.456  25.435  11.863
45558W        W10543  27.396   7.937   0.513
45559W        W10544  12.589  37.466  12.664
45560W        W10545  14.689   4.930  12.608
45561W        W10546  40.411  15.678   2.425
45562W        W10547  16.647  39.957   1.382
45563W        W10548  16.628  14.596  12.730
45564W        W10549  28.605  32.825  11.778
45565W        W10550  43.168   7.944  11.554
45566W        W10551  10.424  16.824  11.249
45567W        W10552  38.583  41.439   0.947
45568W        W10553  25.600  11.076   1.495
45569W        W10554  32.228  21.630   2.442
45570W        W10555  14.649  30.990  10.677
45571W        W10556   8.253  12.510   0.708
45572W        W10557  39.003  22.614   4.754
45573W        W10558  14.129  17.371   4.098
45574W        W10559  18.815  37.298  12.789
45575W        W10560  13.252  25.213   5.368
45576W        W10561  20.141  25.913  13.037
45577W        W10562  16.901   8.905  11.289
45578W        W10563   9.182  40.782   3.697
45579W        W10564  20.290  32.439  11.571
45580W        W10565  27.502   0.019   3.857
45581W        W10566  44.033  28.355  11.169
45582W        W10567  15.642  43.659   4.739
45583W        W10568  20.493  44.629   4.339
45584W        W10569  14.960  37.309  11.134
45585W        W10570  43.191   1.292  12.548
45586W        W10571  28.593  19.314  11.135
45587W        W10572   2.832  37.518  13.545
45588W        W10573  13.650   1.515  14.256
45589W        W10574  23.161  29.992   4.610
45590W        W10575  37.317  33.330  11.146
45591W        W10576   1.493  14.608   2.182
45592W        W10577   5.119  24.141   1.974
45593W        W10578  11.734  14.555   0.918
45594W        W10579  14.018  30.015  14.392
45595W        W10580   2.387   4.344  14.497
45596W        W10581  38.896  22.501   4.248
45597W        W10582  24.206   1.784   2.850
45598W        W10583  16.332  16.145   3.369
45599W        W10584  36.609   5.839  11.163
45600W        W10585   6.476  42.044  14.775
45601W        W10586  12.697  20.526   2.303
45602W        W10587   6.314  21.251   4.522
45603W        W10588  43.550  35.922  11.494
45604W        W10589   3.912  15.554  13.781
45605W        W10590   1.180  22.036  14.403
45606W        W10591  41.307  12.620   2.309
45607W        W10592  43.556  18.192  11.646
45608W        W10593  36.040  39.810  14.944
45609W        W10594  44.994  22.138   1.852
45610W        W10595  13.281  31.001   0.175
45611W        W10596   7.781  41.522   3.796
45612W        W10597  30.629  21.265  10.933
45613W        W10598  35.172  36.205   0.375
45614W        W10599  22.539  27.196  13.530
45615W        W10600  10.733  28.438  11.601
45616W        W10601  24.052   4.784   1.667
45617W        W10602  25.090  44.912   0.428
45618W        W10603  27.437   2.527   2.568
45619W        W10604  39.058  13.123  13.521
45620W        W10605   5.535  37.453   5.015
45621W        W10606  35.928  26.427   4.901
45622W        W10607   9.452   5.088   2.515
45623W        W10608  19.380  17.221  11.817
45624W        W10609  17.256  35.906   4.974
45625W        W10610   0.836  36.058  11.923
45626W        W10611  41.353  10.405   0.373
45627W        W10612   9.843  22.439  13.529
45628W        W10613  17.562  23.491  10.622
45629W        W10614  39.974   4.712   1.227
45630W        W10615  22.451   7.915  14.385
45631W        W10616  29.159  25.570   2.656
45632W        W10617   2.238   9.499  12.017
45633W        W10618  16.952   0.836  13.837
45634W        W10619  15.828  43.117  10.053
45635W        W10620   8.207  27.700  14.004
45636W        W10621  32.807  24.988   2.328
45637W        W10622  36.745  15.315   0.291
45638W        W10623  17.228  42.646   4.548
45639W        W10624  43.509   5.222  14.639
45640W        W10625  11.458  41.337  13.345
45641W        W10626  30.607   5.237   0.758
45642W        W10627   5.336   8.363   0.062
45643W        W10628  19.657  18.450   2.894
45644W        W10629  22.002  34.537   4.444
45645W        W10630  42.933   8.924   3.365
45646W        W10631  21.786  30.512  14.070
45647W        W10632  42.354   9.190   0.662
45648W        W10633   7.120  26.717   2.956
45649W        W10634  15.834  37.868   4.542
45650W        W10635   8.558  43.717   0.519
45651W        W10636  26.059  36.631  13.431
45652W        W10637   0.777   2.802  12.902
45653W        W10638  10.696  10.332   0.050
45654W        W10639  38.837  33.908   1.660
45655W        W10640  12.636   9.781  14.346
45656W        W10641  11.139   5.926   2.782
45657W        W10642   4.776  18.770   2.093
45658W        W10643   9.655   7.585   3.339
45659W        W10644  22.662  13.726  14.958
45660W        W10645  38.397  11.360  13.255
45661W        W10646   8.657  18.108  11.689
45662W        W10647  35.373  17.333  13.512
45663W        W10648  34.158  21.522   1.371
45664W        W10649  38.348  43.807  14.894
45665W        W10650  10.887  34.506   0.393
45666W        W10651  27.990  31.185   2.649
45667W        W10652  44.924  16.730   4.201
45668W        W10653  21.814  28.097   4.021
45669W        W10654  19.707   5.157   9.683
45670W        W10655  41.338  36.628   4.905
45671W        W10656  31.628  19.787  14.210
45672W        W10657  36.330  42.963  13.275
45673W        W10658  36.900  22.144   3.623
45674W        W10659  25.279  41.840   2.632
45675W        W10660  27.799  32.492   2.292
45676W        W10661   0.732  15.589   0.318
45677W        W10662  39.816  19.568  14.397
45678W        W10663  19.184  31.684   0.889
45679W        W10664  41.705  34.484   1.981
45680W        W10665  21.773  38.685   1.956
45681W        W10666  22.792  12.148   5.000
45682W        W10667   5.211  13.507   0.860
45683W        W10668  18.001   1.493   0.772
45684W        W10669  18.023  44.891   2.725
45685W        W10670  13.188  36.132   2.275
45686W        W10671  11.234   5.593  11.877
45687W        W10672  30.537  26.927  13.965
45688W        W10673  17.042  19.808   3.296
45689W        W10674   3.728   7.624  10.229
45690W        W10675   5.865  31.515   2.749
45691W        W10676   2.697  37.879   1.967
45692W        W10677   4.384  23.037  13.611
45693W        W10678  37.040   7.168  12.915
45694W        W10679   6.331   3.030  14.507
45695W        W10680  37.168  40.885  14.847
45696W        W10681  20.244   3.194   4.760
45697W        W10682  31.980   1.716  13.972
45698W        W10683   4.886  18.068  11.383
45699W        W10684  22.753   6.185   0.650
45700W        W10685  42.067  21.541   3.233
45701W        W10686  23.904  13.137  14.785
45702W        W10687  26.766  44.558   3.316
45703W        W10688   4.348  16.624   3.764
45704W        W10689  34.083  12.374   0.463
45705W        W10690  33.466   5.989   2.255
45706W        W10691  24.723  40.652   4.822
45707W        W10692  25.007  35.359   4.257
45708W        W10693  31.816   9.596   5.323
45709W        W10694  16.235  21.585   1.482
45710W        W10695  16.651  21.042   2.256
45711W        W10696  37.663  30.223   1.765
45712W        W10697  16.533   3.323  10.815
45713W        W10698  10.284  39.910   4.732
45714W        W10699  13.942  13.768  12.993
45715W        W10700   5.431  37.036  10.587
45716W        W10701  32.886  17.788   4.146
45717W        W10702  13.158   9.530  12.253
45718W        W10703  21.329   0.038   2.429
45719W        W10704  33.390  42.450   4.170
45720W        W10705  27.951  10.239   3.303
45721W        W10706   9.894  25.430  14.593
45722W        W10707   8.045  39.119   0.475
45723W        W10708  41.261  34.079   4.556
45724W        W10709  35.645  16.710   1.790
45725W        W10710  28.398  13.042  11.930
45726W        W10711  23.523   3.807  14.442
45727W        W10712  33.362  26.057   1.280
45728W        W10713  39.091  42.411  11.743
45729W        W10714   4.039  18.186   0.904
45730W        W10715  40.880  36.176   1.368
45731W        W10716  32.378  14.706  11.096
45732W        W10717  44.994  19.030  12.420
45733W        W10718   9.735  34.104  12.596
45734W        W10719  21.094  36.047   1.889
45735W        W10720  29.162   7.879  14.992
45736W        W10721  33.170  24.515  13.922
45737W        W10722  14.501  23.623   3.297
45738W        W10723   9.333  16.849   1.059
45739W        W10724  41.443  31.358   0.894
45740W        W10725  17.831  30.111   4.166
45741W        W10726   8.795  37.903  13.026
45742W        W10727  10.959  43.931  10.426
45743W        W10728  20.956  39.152   4.356
45744W        W10729  40.141   8.572   2.742
45745W        W10730  40.425  37.250  11.507
45746W        W10731  10.615  15.635   3.239
45747W        W10732  16.492  11.947   4.766
45748W        W10733  43.798  23.537  12.971
45749W        W10734   7.359  11.674   2.333
45750W        W10735  26.755  28.937   3.704
45751W        W10736   4.272  27.284   1.427
45752W        W10737   9.379  16.595  12.024
45753W        W10738  11.856   4.268  12.028
45754W        W10739  34.884  35.496  13.822
45755W        W10740  25.612  21.096  12.441
45756W        W10741   9.529  36.064  10.625
45757W        W10742   3.682  36.066   1.329
45758W        W10743  33.828  44.437  11.585
45759W        W10744  22.288   4.648   0.984
45760W        W10745   1.914  10.940   1.880
45761W        W10746  38.329  20.025   2.831
45762W        W10747  22.220  18.739  10.081
45763W        W10748  22.240  43.884  12.989
45764W        W10749   2.094  43.793   1.419
45765W        W10750  38.800  19.349  11.168
45766W        W10751  44.302   4.408   0.330
45767W        W10752   6.159  26.692  11.020
45768W        W10753   4.221   7.252  10.473
45769W        W10754  44.415  23.605  10.733
45770W        W10755  17.099  25.297  12.930
45771W        W10756  42.036  12.396  13.813
45772W        W10757   3.881  24.594  11.626
45773W        W10758  23.142   5.242   3.293
45774W        W10759  34.933  12.759   1.886
45775W        W10760   8.649  22.507   2.742
45776W        W10761  32.511   7.621  12.002
45777W        W10762  15.455  18.217  13.417
45778W        W10763  19.683  24.286   4.697
45779W        W10764   9.719   3.014  10.598
45780W        W10765  39.375  36.870  12.899
45781W        W10766   2.301  16.206  11.030
45782W        W10767  16.652   4.021  10.290
45783W        W10768  44.590  38.010  10.268
45784W        W10769  40.688  18.662  11.124
45785W        W10770  26.935   9.027   4.123
45786W        W10771   4.757  25.292   0.469
45787W        W10772  15.263  37.115   1.790
45788W        W10773  24.571  37.222  14.926
45789W        W10774  38.312  44.784   3.683
45790W        W10775  31.863  35.994   0.301
45791W        W10776  39.434  37.300   9.557
45792W        W10777  31.999   6.634  13.033
45793W        W10778  42.770  26.756  12.126
45794W        W10779  38.511  38.314   1.697
45795W        W10780   4.704   5.368  14.687
45796W        W10781  28.584  37.619   4.177
45797W        W10782  39.473  13.129  14.479
45798W        W10783  22.887  20.480  10.144
45799W        W10784  25.769   9.021   1.529
45800W        W10785  42.524  33.536   3.148
45801W        W10786  36.422  26.524  12.897
45802W        W10787   0.984  10.385   0.958
45803W        W10788  13.517   8.657   4.733
45804W        W10789  27.663   2.767  14.818
45805W        W10790  34.628   1.886  11.139
45806W        W10791  11.133  14.732  11.958
45807W        W10792  35.022   6.962  10.323
45808W        W10793  19.357  41.577  10.706
45809W        W10794   1.246  12.332  11.169
45810W        W10795  13.864  31.615  13.005
45811W        W10796  26.108   2.312   2.163
45812W        W10797  20.733  18.241  11.140
45813W        W10798  41.949   7.263  14.329
45814W        W10799  38.975  41.112   1.758
45815W        W10800  18.176  14.814   2.229
45816W        W10801  36.892   4.201  11.237
45817W        W10802  20.570  32.512  12.032
45818W        W10803  41.496   6.974  13.893
45819W        W10804  33.624  41.851  12.823
45820W        W10805  38.148  40.495   0.262
45821W        W10806  36.040  33.985   1.159
45822W        W10807   2.535  11.052   3.136
45823W        W10808   6.765  26.520   2.134
45824W        W10809  41.300  19.887   1.988
45825W        W10810  12.419  13.630   4.578
45826W        W10811  37.015  36.065   0.596
45827W        W10812  21.085  31.656  13.431
45828W        W10813  38.128  18.132  13.308
45829W        W10814  14.201  38.799  13.788
45830W        W10815   6.071  10.602  10.877
45831W        W10816  11.248  43.313   2.321
45832W        W10817  33.174  20.594   2.724
45833W        W10818  13.666  17.950  12.574
45834W        W10819  41.677  14.046  12.150
45835W        W10820  10.205  41.331  12.148
45836W        W10821  44.545  16.716   4.560
45837W        W10822  17.093  31.150   3.245
45838W        W10823  27.514  20.449   4.138
45839W        W10824  30.534   9.125  13.101
45840W        W10825  36.806  42.989   0.861
45841W        W10826  35.460   6.653  11.067
45842W        W10827  13.870  43.528   4.963
45843W        W10828  36.074  30.922   0.496
45844W        W10829   9.701  36.705  12.353
45845W        W10830  11.204  22.089   0.013
45846W        W10831  34.042   5.239   3.749
45847W        W10832   0.983   9.397  13.337
45848W        W10833  31.058   6.902   0.860
45849W        W10834  16.483  13.759  11.557
45850W        W10835  38.037   7.380  12.023
45851W        W10836  40.070  14.897  14.412
45852W        W10837  32.646  12.259  11.145
45853W        W10838  28.332  10.171  12.209
45854W        W10839   9.149  30.849   2.769
45855W        W10840  27.399   9.802   4.789
45856W        W10841  19.335  26.187   3.886
45857W        W10842  36.765  26.312  13.809
45858W        W10843  11.951  24.663  13.080
45859W        W10844   2.972   1.743  11.258
45860W        W10845  17.305  44.135   4.937
45861W        W10846  25.626  37.979   2.464
45862W        W10847  16.000  22.479   2.645
45863W        W10848   3.287  29.309   4.607
45864W        W10849  18.058  18.339  12.663
45865W        W10850  39.960  12.208   0.539
45866W        W10851  11.491   7.483  13.110
45867W        W10852  39.728  13.576   4.120
45868W        W10853  23.926  42.367  10.758
45869W        W10854  33.897  24.695  12.427
45870W        W10855  18.476   2.480  12.507
45871W        W10856  25.518  12.812  11.243
45872W        W10857  31.452  42.627   2.703
45873W        W10858  13.375   0.450   3.694
45874W        W10859   7.803   6.856   2.709
45875W        W10860  31.997   5.004   3.275
45876W        W10861   7.838  10.738  13.893
45877W        W10862  37.552  12.330   3.305
45878W        W10863  15.625  10.145   0.719
45879W        W10864   2.777  35.100   1.856
45880W        W10865  40.906  42.569  11.080
45881W        W10866  37.498  18.811   4.129
45882W        W10867   1.895  34.229  14.019
45883W        W10868  14.920  30.812   1.832
45884W        W10869  34.533  12.730   2.252
45885W        W10870  37.988  29.021   3.625
45886W        W10871   9.268  18.052   1.743
45887W        W10872  12.307  16.023   3.560
45888W        W10873  42.101  34.011  12.483
45889W        W10874  22.572  16.226  13.561
45890W        W10875   0.807  37.090  10.776
45891W        W10876   5.429  28.038  10.768
45892W        W10877  41.601  33.134   4.468
45893W        W10878   9.071  43.345   2.628
45894W        W10879  17.757   1.127   1.228
45895W        W10880  19.021  40.187  12.454
45896W        W10881  33.875  41.890  11.496
45897W        W10882  30.026  23.419   2.449
45898W        W10883  30.283  17.716   0.216
45899W        W10884  10.184  40.326  14.546
45900W        W10885  21.836   7.246   1.712
45901W        W10886  42.459   5.276  13.284
45902W        W10887  32.949  22.097   2.023
45903W        W10888  14.159  41.268   0.365
45904W        W10889  12.375  26.332   1.601
45905W        W10890  28.101  43.881   3.517
45906W        W10891  33.129  26.163   0.393
45907W        W10892  34.386  22.433  12.095
45908W        W10893  31.386  20.068  11.956
45909W        W10894  34.925   5.931   0.374
45910W        W10895  28.407   5.265   2.452
45911W        W10896  15.085  11.270   0.876
45912W        W10897   6.134  42.833   9.898
45913W        W10898  28.647  44.665   1.873
45914W        W10899  10.875   0.281  11.043
45915W        W10900  31.241  20.523   2.174
45916W        W10901  27.916   8.907   3.138
45917W        W10902  36.309  34.355   0.927
45918W        W10903  14.385   5.297   3.704
45919W        W10904   5.384  18.817  10.993
45920W        W10905  14.750   2.267   3.110
45921W        W10906  20.950  33.195  11.719
45922W        W10907   4.736  42.556   5.082
45923W        W10908  12.935  32.055   4.057
45924W        W10909   8.281  32.810  13.559
45925W        W10910   9.884  28.394  12.827
45926W        W10911  11.977   8.952   3.165
45927W        W10912   4.253  21.610  12.518
45928W        W10913   3.167  28.084   4.120
45929W        W10914  37.025  29.430   4.810
45930W        W10915  19.068  39.217   2.639
45931W        W10916   6.974  14.442  10.757
45932W        W10917  42.398  19.553  14.760
45933W        W10918  31.411  34.079   2.230
45934W        W10919  37.369  12.720   1.439
45935W        W10920   9.315   6.189  11.961
45936W        W10921  19.246  39.060   1.676
45937W        W10922  31.003  23.921  13.516
45938W        W10923  33.779  22.258  14.390
45939W        W10924  11.327  22.910  12.013
45940W        W10925  33.535  36.970   2.416
45941W        W10926  14.269  23.305  13.472
45942W        W10927  35.540  39.342   3.809
45943W        W10928   3.831  21.959  13.174
45944W        W10929   5.405  41.342   2.153
45945W        W10930  24.629  15.262  14.099
45946W        W10931   9.724  28.587   1.942
45947W        W10932  14.162   3.514   0.322
45948W        W10933  36.600   2.859  12.996
45949W        W10934  37.051  38.977  11.425
45950W        W10935  17.658  34.349  11.565
45951W        W10936   2.886   2.786   0.439
45952W        W10937  40.870  32.880   3.853
45953W        W10938  19.761   1.345  14.109
45954W        W10939  11.732  35.615   3.770
45955W        W10940  29.894   3.708   2.901
45956W        W10941  33.001  13.865   2.712
45957W        W10942   7.168  15.217  12.937
45958W        W10943  17.066  20.755   2.278
45959W        W10944   5.702  38.700  14.047
45960W        W10945  12.587  21.790   4.916
45961W        W10946  30.400  31.517  10.821
45962W        W10947   9.435   2.289  10.718
45963W        W10948  39.839  36.912  11.959
45964W        W10949  28.678   4.888   3.327
45965W        W10950  27.265   8.776   0.899
45966W        W10951  34.095  27.730  14.428
45967W        W10952  21.996  23.488   0.503
45968W        W10953   6.643  26.048   3.405
45969W        W10954  14.695  43.306   0.735
45970W        W10955  36.148  25.677  12.448
45971W        W10956  14.958  21.181  13.063
45972W        W10957  42.829  26.250   2.878
45973W        W10958   4.383  41.897   1.933
45974W        W10959  12.832  31.617  13.171
45975W        W10960  23.123  15.423   2.204
45976W        W10961   9.880   8.871  12.953
45977W        W10962  21.398  15.687  12.137
45978W        W10963   2.943   3.244   4.483
45979W        W10964  41.479   1.336  12.989
45980W        W10965  33.566   7.836   2.730
45981W        W10966  27.708  32.389  12.572
45982W        W10967  33.610  43.877   1.201
45983W        W10968  30.994  10.239  10.223
45984W        W10969  24.990  42.263  12.531
45985W        W10970  39.596  24.095  12.915
45986W        W10971  21.551  24.096   2.751
45987W        W10972   8.403  18.842   2.351
45988W        W10973  19.680   5.840   0.807
45989W        W10974  31.032  42.040   0.719
45990W        W10975  43.916  39.355   1.899
45991W        W10976  35.165  37.857   4.216
45992W        W10977  32.896  40.575  13.935
45993W        W10978  31.093  34.138   2.790
45994W        W10979   2.196  31.955   1.472
45995W        W10980   8.002  15.081  14.805
45996W        W10981  20.969   2.363   3.581
45997W        W10982  43.153  23.251   3.614
45998W        W10983  35.136  15.449   4.973
45999W        W10984  38.367  11.616   2.201
46000W        W10985   1.218  40.269   1.337
46001W        W10986  38.940   1.140  10.034
46002W        W10987   4.968   8.126  10.757
46003W        W10988  22.394  32.929  11.631
46004W        W10989  34.910  10.825  14.481
46005W        W10990  12.128  27.948  12.566
46006W        W10991  38.543  13.720  12.159
46007W        W10992  35.405  41.212   3.578
46008W        W10993  31.820  24.629   3.230
46009W        W10994  13.381   0.500   0.495
46010W        W10995   7.695  25.136   4.177
46011W        W10996  27.059   2.132  12.985
46012W        W10997  35.337  29.233   2.193
46013W        W10998   0.958  38.071  14.362
46014W        W10999  17.648  32.384   4.558
46015W        W11000  34.114  26.214   1.814
46016W        W11001  42.869  36.913  12.298
46017W        W11002  37.681  43.380   0.953
46018W        W11003  18.799  42.691  14.372
46019W        W11004  13.172  28.924   4.249
46020W        W11005   9.586  41.903   0.841
46021W        W11006  43.860   7.275   0.813
46022W        W11007   5.594  29.644  11.070
46023W        W11008  20.090  36.393   3.928
46024W        W11009  19.911   8.282  10.381
46025W        W11010  42.685  38.799  12.838
46026W        W11011  10.511   6.645  12.395
46027W        W11012  42.892  34.269  12.056
46028W        W11013  17.312  23.654  12.983
46029W        W11014  35.889  11.241  14.990
46030W        W11015  30.819  21.488   2.153
46031W        W11016  16.330  28.105   2.093
46032W        W11017  16.946  18.654  10.704
46033W        W11018   4.328  19.548  13.567
46034W        W11019  24.115  10.921  11.686
46035W        W11020  32.134  18.718  12.543
46036W        W11021  30.558   5.925  13.092
46037W        W11022  30.831  43.798   0.795
46038W        W11023  22.019  14.002   4.067
46039W        W11024  34.730  18.015  14.349
46040W        W11025  27.199  38.582   2.172
46041W        W11026  31.818   9.592  14.457
46042W        W11027  28.093  39.247  13.534
46043W        W11028  20.102   2.748   2.140
46044W        W11029   6.929  20.050   1.353
46045W        W11030  26.647   9.160  13.030
46046W        W11031  39.982   9.360  10.733
46047W        W11032  13.234   4.368  13.594
46048W        W11033  43.540  23.114   0.966
46049W        W11034   6.223   5.732  14.198
46050W        W11035  18.678  29.345  11.109
46051W        W11036  27.596  22.878  13.085
46052W        W11037  23.265   5.987  12.533
46053W        W11038  33.482  16.323  13.142
46054W        W11039   6.465  16.172   1.930
46055W        W11040  40.067   1.750   0.487
46056W        W11041  15.729  24.811   0.703
46057W        W11042  27.700  30.370   0.398
46058W        W11043  21.589  41.567   3.420
46059W        W11044  22.230  29.302  14.786
46060W        W11045  28.549  12.249  12.851
46061W        W11046  44.827  39.578  10.631
46062W        W11047  11.320   8.184  13.358
46063W        W11048  41.294  36.938   1.343
46064W        W11049  24.422   9.697   2.205
46065W        W11050  19.844  20.715   5.304
46066W        W11051  14.388  29.640  13.029
46067W        W11052  40.160   5.499   2.740
46068W        W11053  22.956  16.069   3.960
46069W        W11054  42.523  22.345   3.444
46070W        W11055  41.234  36.126  11.491
46071W        W11056  27.597   1.966   1.341
46072W        W11057  12.214   7.949  13.395
46073W        W11058   1.557  12.456   0.098
46074W        W11059  36.019  33.792  14.438
46075W        W11060  28.131  11.320   0.791
46076W        W11061  12.717  29.842   0.855
46077W        W11062   8.154  26.658   2.276
46078W        W11063  25.931  34.952  11.150
46079W        W11064  20.991  16.160  12.009
46080W        W11065   6.282  35.083   3.327
46081W        W11066  40.965  16.680   2.939
46082W        W11067   6.687  44.845   3.501
46083W        W11068   7.033  39.676  12.436
46084W        W11069   4.925  14.117   1.206
46085W        W11070  11.229  18.322   1.761
46086W        W11071  14.121   1.705  12.778
46087W        W11072  28.234  27.780  12.074
46088W        W11073   6.425   3.012  11.565
46089W        W11074  41.886   6.493  12.197
46090W        W11075   7.872  30.272   0.538
46091W        W11076   9.062  20.742   2.052
46092W        W11077  44.496  41.286   1.367
46093W        W11078  23.705  40.311  11.027
46094W        W11079  14.402  44.221  14.948
46095W        W11080  42.881  40.247   4.068
46096W        W11081   8.678  39.460  14.001
46097W        W11082  40.863  25.690   3.223
46098W        W11083   4.753  17.118   4.657
46099W        W11084   9.360  43.393  14.339
46100W        W11085  42.291  15.279  10.556
46101W        W11086  16.270  34.507  11.574
46102W        W11087  32.634  42.916   4.247
46103W        W11088  11.335  30.148  11.199
46104W        W11089  26.015  22.335   1.881
46105W        W11090  20.840   3.309   1.137
46106W        W11091  34.711  19.305  14.025
46107W        W11092  27.739  29.040   1.759
46108W        W11093  28.995   8.646   3.057
46109W        W11094  32.957  39.428   4.156
46110W        W11095  19.741  20.119  11.527
46111W        W11096  22.209  42.912   1.805
46112W        W11097  37.981  17.154   4.551
46113W        W11098  33.581  38.574  12.523
46114W        W11099  39.396  39.444  11.217
46115W        W11100  20.563  32.459  13.500
46116W        W11101   7.523  29.343  14.448
46117W        W11102  20.212  14.030   4.158
46118W        W11103  15.106  43.204  13.860
46119W        W11104  17.690   7.044   4.299
46120W        W11105  18.539  35.012  13.260
46121W        W11106  39.732  10.300   2.139
46122W        W11107  43.966   8.574  13.830
46123W        W11108  34.584   5.722   0.755
46124W        W11109  10.784  19.242   2.758
46125W        W11110  42.198  16.599   4.181
46126W        W11111  23.130   4.145  13.181
46127W        W11112   9.567  24.348  11.637
46128W        W11113  13.077   0.504  10.348
46129W        W11114  16.069   1.749   3.427
46130W        W11115  33.946   6.839   0.408
46131W        W11116   2.970  38.892  11.926
46132W        W11117  43.122   8.176  12.066
46133W        W11118  41.994  39.275   2.130
46134W        W11119  30.360  22.106  11.594
46135W        W11120  25.689  14.059  12.952
46136W        W11121  44.449  38.752   4.914
46137W        W11122  23.962  11.955  14.478
46138W        W11123   8.448  43.226  11.059
46139W        W11124  25.099  10.784   0.118
46140W        W11125  26.705   2.332  13.356
46141W        W11126  27.393   6.649   2.262
46142W        W11127   0.983  22.410  13.056
46143W        W11128  30.991  10.363   0.762
46144W        W11129  34.136  35.448   0.907
46145W        W11130   5.816   9.778  13.827
46146W        W11131  12.130  19.208  11.167
46147W        W11132  20.950   3.342  13.133
46148W        W11133  26.589   9.728  14.755
46149W        W11134  25.276   6.671  11.579
46150W        W11135   2.466  25.942   3.732
46151W        W11136  29.358  16.616   4.947
46152W        W11137  36.937  14.579   3.111
46153W        W11138  41.683  41.006   3.184
46154W        W11139   8.885  34.954   0.968
46155W        W11140  11.825  19.812  13.039
46156W        W11141   2.812  24.418  14.871
46157W        W11142   0.572  43.765  14.919
46158W        W11143  19.353   2.980   2.766
46159W        W11144   0.039  39.723   2.693
46160W        W11145   9.762   5.969  12.121
46161W        W11146  42.284  22.527  10.194
46162W        W11147  24.200  36.363   1.523
46163W        W11148  11.795  22.926  13.953
46164W        W11149   9.895  12.394   0.309
46165W        W11150   1.507   8.393  14.944
46166W        W11151  19.165  22.535  11.563
46167W        W11152  44.021   1.948   0.785
46168W        W11153  14.114  34.608  11.145
46169W        W11154  34.414  33.570   3.080
46170W        W11155  10.931  31.741  12.176
46171W        W11156  15.428  37.042  13.438
46172W        W11157  27.237  43.713  14.209
46173W        W11158  10.945  27.293   0.967
46174W        W11159  18.053  33.755  10.796
46175W        W11160  17.310  19.764  14.488
46176W        W11161  16.786  42.192   1.037
46177W        W11162  32.036  22.328  12.236
46178W        W11163  10.944  13.819   0.514
46179W        W11164  18.023  24.438   1.312
46180W        W11165   8.276  14.899   2.147
46181W        W11166  34.027  34.144   1.816
46182W        W11167  13.322  35.341   2.342
46183W        W11168  17.158  29.299   4.164
46184W        W11169  40.840  25.431   4.393
46185W        W11170  21.178   0.941   1.986
46186W        W11171  17.522  36.492  14.829
46187W        W11172  22.537   3.147  14.762
46188W        W11173  21.610  15.157   0.516
46189W        W11174   4.010  11.160  13.990
46190W        W11175   8.264  15.846   4.242
46191W        W11176  11.121   1.041   3.084
46192W        W11177  34.933   4.501  14.498
46193W        W11178  26.516  32.978   3.657
46194W        W11179  27.593  22.284  11.664
46195W        W11180  20.028  27.551   3.732
46196W        W11181   1.305  40.731   0.412
46197W        W11182  39.732  16.622  14.265
46198W        W11183   5.319   3.329   1.621
46199W        W11184  26.395  33.990   1.519
46200W        W11185  27.385  22.428   1.721
46201W        W11186  13.725   8.107  10.759
46202W        W11187  12.906  13.100   3.694
46203W        W11188  44.359  10.245  11.242
46204W        W11189  17.748   4.466   1.325
46205W        W11190  29.079  15.363  12.427
46206W        W11191   7.228  10.342   2.743
46207W        W11192   1.347  28.493  13.806
46208W        W11193  10.191  28.892  11.601
46209W        W11194  12.024  42.561  12.145
46210W        W11195  30.869  18.666   2.407
46211W        W11196  15.739  15.097   0.912
46212W        W11197  19.890  23.106  10.369
46213W        W11198   0.692   6.422   0.336
46214W        W11199  24.610  16.875   0.841
46215W        W11200   7.148  26.578  13.139
46216W        W11201  31.977  24.243   2.926
46217W        W11202  40.566   7.300   2.684
46218W        W11203  27.059  44.946   1.956
46219W        W11204  31.703  12.613   2.091
46220W        W11205   8.102  11.835   1.828
46221W        W11206  15.024  42.061   2.794
46222W        W11207  29.775   2.314  10.592
46223W        W11208   3.864  28.449  10.948
46224W        W11209  10.303  15.214   3.341
46225W        W11210  30.419  18.383   1.400
46226W        W11211   3.492   1.029   3.134
46227W        W11212  12.049  31.027  14.554
46228W        W11213   4.226  44.712   2.155
46229W        W11214  13.757  20.463   0.147
46230W        W11215  10.895  34.063  10.645
46231W        W11216  10.172  19.801   3.184
46232W        W11217  37.894  29.711  11.618
46233W        W11218  32.595   7.579  13.817
46234W        W11219  29.680  43.478  10.644
46235W        W11220  13.673  25.793   2.680
46236W        W11221  14.605  23.788  11.768
46237W        W11222  30.431  23.447   0.778
46238W        W11223  33.957  28.009   2.842
46239W        W11224  39.485  15.646   0.910
46240W        W11225  42.410  19.680   0.280
46241W        W11226   9.464  18.711   4.533
46242W        W11227  32.529  24.586   4.022
46243W        W11228  13.703   7.569   2.728
46244W        W11229  29.562  19.979  14.261
46245W        W11230  14.700  17.390  11.933
46246W        W11231  33.917   6.306   4.282
46247W        W11232  42.240  11.201  13.349
46248W        W11233  37.875  18.065  13.741
46249W        W11234  12.266  17.076  14.424
46250W        W11235  31.305  17.705  10.287
46251W        W11236  35.207  37.594   4.958
46252W        W11237  25.651  12.186  13.189
46253W        W11238  15.542  18.159   2.830
46254W        W11239  14.742  24.893   4.000
46255W        W11240  24.591  11.216   2.178
46256W        W11241  21.101   1.784  13.671
46257W        W11242  12.882  23.627  11.164
46258W        W11243  33.586  42.435   1.026
46259W        W11244  18.104  28.963   3.276
46260W        W11245   3.927  17.747  10.692
46261W        W11246  23.277  31.878  14.093
46262W        W11247  29.414  20.229   4.807
46263W        W11248  41.741   9.719  13.101
46264W        W11249  33.664  14.914   2.132
46265W        W11250  16.603  31.969   5.101
46266W        W11251  44.500  24.303   4.986
46267W        W11252   7.585  21.150   1.926
46268W        W11253  43.888  31.784  13.423
46269W        W11254   4.893   6.287  12.651
46270W        W11255   1.997  20.745   1.734
46271W        W11256  23.420  27.288  10.951
46272W        W11257  19.359  18.978  14.100
46273W        W11258   0.945  39.536   4.521
46274W        W11259  34.458   3.485  12.248
46275W        W11260  33.516  27.106   4.313
46276W        W11261   3.988  41.328   4.107
46277W        W11262  38.613  13.307  11.520
46278W        W11263  27.543  28.522   2.949
46279W        W11264   0.360  10.215   3.646
46280W        W11265  35.390   2.332  12.658
46281W        W11266  15.801  40.071  13.039
46282W        W11267  35.971  41.987  14.406
46283W        W11268  31.184  11.080   0.320
46284W        W11269  24.804  20.718   4.609
46285W        W11270  25.472  42.252   1.367
46286W        W11271  27.467  43.222  14.004
46287W        W11272  35.005  29.117   4.160
46288W        W11273   3.906  19.726   4.568
46289W        W11274   7.922  25.294   2.250
46290W        W11275   7.804  14.076   0.739
46291W        W11276   7.577  42.678   1.834
46292W        W11277  15.456  14.745   3.966
46293W        W11278  33.642  30.638  13.017
46294W        W11279  22.033   6.763  13.597
46295W        W11280  16.296   6.905   1.221
46296W        W11281  26.745  42.767  14.292
46297W        W11282   7.864   0.401  10.764
46298W        W11283   8.639   0.938   5.010
46299W        W11284  27.897   4.144  10.561
46300W        W11285   5.451  21.508  14.017
46301W        W11286   1.670  25.478   0.885
46302W        W11287  31.968  26.155  12.429
46303W        W11288  31.637  34.959  11.277
46304W        W11289  34.796  20.653   0.814
46305W        W11290  15.018  30.581  13.108
46306W        W11291  41.945  35.647  14.288
46307W        W11292  19.176   8.917  12.024
46308W        W11293  40.291  23.210   4.193
46309W        W11294  26.761   0.796  12.022
46310W        W11295  16.241  16.779   4.591
46311W        W11296   5.474  25.179  11.907
46312W        W11297  23.466  11.306   0.955
46313W        W11298  23.518  43.866   0.521
46314W        W11299  17.743  26.885   2.769
46315W        W11300  41.182  22.321   3.780
46316W        W11301   0.447   3.769   4.073
46317W        W11302  30.692   8.818   5.213
46318W        W11303  26.894  11.639   2.683
46319W        W11304  35.278  29.482   5.020
46320W        W11305  16.390   7.882   0.825
46321W        W11306  38.920   1.690  11.055
46322W        W11307   2.490  12.270  12.412
46323W        W11308  43.029  15.564   3.747
46324W        W11309  32.609  43.495   4.501
46325W        W11310  21.006  29.133   2.284
46326W        W11311  43.040  43.441   2.142
46327W        W11312  37.836  26.408   3.664
46328W        W11313  42.904  28.196   1.733
46329W        W11314  26.499  19.276   0.231
46330W        W11315  25.651  28.682  14.331
46331W        W11316  26.403   1.296   2.681
46332W        W11317  18.734  17.504   1.841
46333W        W11318   5.920  13.080   3.208
46334W        W11319  14.268  36.113  11.210
46335W        W11320  38.587  44.422  10.938
46336W        W11321  37.873  40.350  13.845
46337W        W11322  21.654   5.837  13.543
46338W        W11323  14.652  12.780   5.186
46339W        W11324  22.810  42.833   2.981
46340W        W11325  15.589   3.003  14.826
46341W        W11326  26.980  25.797  12.770
46342W        W11327  27.700  39.793  10.375
46343W        W11328   4.312  32.162   4.557
46344W        W11329   6.444  21.676  12.735
46345W        W11330  35.040  17.067   3.194
46346W        W11331   8.310  41.617   3.469
46347W        W11332  35.804  29.337   4.908
46348W        W11333   2.421   0.083  11.921
46349W        W11334  32.620   5.671   0.769
46350W        W11335  21.439  40.001  14.491
46351W        W11336  31.566   1.057  11.395
46352W        W11337   0.073  35.080   0.027
46353W        W11338  32.410  25.078  14.495
46354W        W11339  40.059  21.746  14.044
46355W        W11340  36.121  35.131   4.139
46356W        W11341  19.522  28.101  14.527
46357W        W11342  16.685  22.735   0.188
46358W        W11343  16.499  43.457  13.494
46359W        W11344  35.961  36.944  11.563
46360W        W11345  24.072  18.129   2.361
46361W        W11346  40.276  33.653   2.757
46362W        W11347   6.748  22.178  14.377
46363W        W11348  15.118  21.686  13.123
46364W        W11349  33.953  15.737  13.695
46365W        W11350  26.700   8.010   4.978
46366W        W11351   6.826   3.614  10.721
46367W        W11352  42.241   5.719   2.101
46368W        W11353  26.364  41.313  14.457
46369W        W11354  13.181  17.626  12.136
46370W        W11355  34.064  39.502  13.023
46371W        W11356  20.153  38.002  11.285
46372W        W11357  44.439  22.253  13.833
46373W        W11358  24.639  34.531   4.466
46374W        W11359   2.478  17.242   1.378
46375W        W11360  12.734  11.246  12.084
46376W        W11361  42.734  22.152  11.991
46377W        W11362  14.839  19.442   2.756
46378W        W11363   1.905  44.206   1.176
46379W        W11364  43.797   2.809   3.607
46380W        W11365  17.056  33.046   0.531
46381W        W11366   7.192  33.911   1.219
46382W        W11367  29.920   0.576   1.308
46383W        W11368   0.641   5.556  10.468
46384W        W11369  14.931  36.746   4.018
46385W        W11370  24.188  19.112  11.629
46386W        W11371   4.407  11.577   3.758
46387W        W11372   2.514  33.422   4.592
46388W        W11373  19.542  34.998   1.398
46389W        W11374  41.860  27.997  12.160
46390W        W11375  16.404  44.621  11.427
46391W        W11376  23.650   9.590   1.354
46392W        W11377  17.462  21.118   1.348
46393W        W11378  39.517  44.475   3.268
46394W        W11379  27.698  31.468   1.416
46395W        W11380  11.119  41.451   1.637
46396W        W11381  16.288  33.742   4.343
46397W        W11382  17.818  36.528   2.645
46398W        W11383  19.293   9.409  12.080
46399W        W11384  33.866  21.785   4.267
46400W        W11385  42.535   3.226   0.904
46401W        W11386  31.511  34.029  13.052
46402W        W11387  35.715  16.058  13.307
46403W        W11388  27.527  35.811   1.205
46404W        W11389  16.099  24.287  10.985
46405W        W11390  29.484  38.937  14.562
46406W        W11391  37.043  18.301   1.663
46407W        W11392   8.189   7.481   4.457
46408W        W11393  35.500  42.307  12.871
46409W        W11394   5.311  32.665   0.939
46410W        W11395  34.825  23.687  14.541
46411W        W11396  15.772  16.645   0.903
46412W        W11397  25.051  23.677  11.163
46413W        W11398  42.459  29.378  10.730
46414W        W11399   1.528  11.288  13.901
46415W        W11400  30.110  32.198   1.368
46416W        W11401  17.897  28.086  14.419
46417W        W11402  11.028   5.688   4.529
46418W        W11403  11.215  28.556   1.018
46419W        W11404   6.113  31.590  13.878
46420W        W11405   6.714   6.634  12.830
46421W        W11406  44.449   1.968  11.607
46422W        W11407  10.788  25.230   1.763
46423W        W11408  11.944  33.851  13.505
46424W        W11409   6.897  37.518  10.649
46425W        W11410   2.622  28.618   3.434
46426W        W11411  19.750   4.830   1.561
46427W        W11412  17.542  12.335  13.775
46428W        W11413  33.523  26.520   3.545
46429W        W11414   6.677   1.825   3.302
46430W        W11415  32.517  28.485   0.360
46431W        W11416  42.345  15.959  13.304
46432W        W11417  27.029   0.396   5.439
46433W        W11418  36.812  34.211   0.895
46434W        W11419  40.607   3.005   0.728
46435W        W11420  11.249  16.560   3.037
46436W        W11421  35.773  42.823   1.131
46437W        W11422   1.837  21.003  12.426
46438W        W11423  37.692  41.268  11.613
46439W        W11424   9.273  33.277   3.673
46440W        W11425   1.317  10.450  14.875
46441W        W11426  36.577  20.644  12.025
46442W        W11427   5.193  24.925  12.872
46443W        W11428  18.661  34.584  10.704
46444W        W11429   5.323  21.558  11.423
46445W        W11430   2.521  37.830   4.262
46446W        W11431  38.897  20.700  12.577
46447W        W11432  14.795  11.754   3.059
46448W        W11433  29.942   4.384   1.338
46449W        W11434  19.120  21.546  11.594
46450W        W11435  32.942  17.558  13.061
46451W        W11436  32.579  35.384   0.520
46452W        W11437  11.078   5.426  13.162
46453W        W11438   7.494   3.469  14.354
46454W        W11439  21.536  37.270  14.916
46455W        W11440  17.525  35.457  11.270
46456W        W11441   5.324   3.203   3.329
46457W        W11442  37.697  25.836  12.734
46458W        W11443  42.829  12.890  10.650
46459W        W11444  41.156  27.596   0.425
46460W        W11445  42.025   0.394   2.717
46461W        W11446  40.527  30.840  13.882
46462W        W11447  15.210  39.959   4.425
46463W        W11448  21.426  24.383   1.860
46464W        W11449   2.702   1.787  13.081
46465W        W11450  34.700  42.354   4.685
46466W        W11451  37.452  23.204  14.780
46467W        W11452  15.339  23.944   3.135
46468W        W11453  11.990  38.919   0.405
46469W        W11454  38.004   7.680   0.926
46470W        W11455  38.846  40.089   2.107
46471W        W11456  39.874   3.241   1.786
46472W        W11457  24.213  44.270  13.326
46473W        W11458  19.983   9.288  14.810
46474W        W11459  21.284   0.454  13.579
46475W        W11460  41.458  43.790   0.791
46476W        W11461  40.458  26.570   2.790
46477W        W11462   8.026  18.769   3.898
46478W        W11463  29.455  32.300  11.915
46479W        W11464   7.879   5.511   1.156
46480W        W11465  42.686  28.894   2.513
46481W        W11466  33.549  29.179  14.016
46482W        W11467  12.772  25.542   0.815
46483W        W11468  26.428  25.304   4.471
46484W        W11469  14.226  20.370   0.337
46485W        W11470   3.393  23.268  10.318
46486W        W11471  33.674  29.975   4.869
46487W        W11472   7.039  24.065  12.090
46488W        W11473  18.265  41.950   4.958
46489W        W11474  32.913  15.799   0.793
46490W        W11475  25.472  41.733  13.388
46491W        W11476   3.303  27.163  13.470
46492W        W11477  36.752  39.377  12.142
46493W        W11478  28.029  23.702  12.533
46494W        W11479  25.194  38.010  12.535
46495W        W11480  15.759  11.590  10.813
46496W        W11481  21.547  24.999   0.332
46497W        W11482  17.591  43.804  12.739
46498W        W11483   9.358  23.736  13.391
46499W        W11484  36.729   8.940   2.216
46500W        W11485   2.701  35.565   3.283
46501W        W11486  26.188  17.304  10.663
46502W        W11487  40.546  37.339   1.783
46503W        W11488  14.119   7.521   1.826
46504W        W11489   2.371  31.508  10.804
46505W        W11490  18.706   5.459  14.723
46506W        W11491  16.967  36.843  14.443
46507W        W11492   9.117   7.734   3.535
46508W        W11493  30.354  32.483  13.467
46509W        W11494   7.544  23.788  13.437
46510W        W11495  28.053  12.906   1.189
46511W        W11496  44.779  14.098  12.595
46512W        W11497  39.958  38.830  14.387
46513W        W11498  28.054  19.556  14.355
46514W        W11499  13.658  10.649   0.389
46515W        W11500  10.324   9.122   2.712
46516W        W11501   0.224   6.317  14.255
46517W        W11502  29.044  43.471  11.333
46518W        W11503  18.524  27.681   0.061
46519W        W11504  25.710   8.231  13.879
46520W        W11505  10.244  20.584  12.450
46521W        W11506  37.090  31.392   2.730
46522W        W11507   8.738  24.233  14.007
46523W        W11508  17.061  32.565   2.053
46524W        W11509  11.335  21.615   0.237
46525W        W11510   9.499  22.284   0.361
46526W        W11511   0.090  30.973  12.387
46527W        W11512   4.396  39.684   1.918
46528W        W11513  23.059   0.735   2.262
46529W        W11514  42.002  15.520  14.027
46530W        W11515  30.983  22.332   0.323
46531W        W11516  11.752  21.105  13.950
46532W        W11517  37.352  14.559  11.445
46533W        W11518  32.408  18.826  13.466
46534W        W11519  28.171   6.843  13.385
46535W        W11520  13.332  28.445   4.064
46536W        W11521   2.924  17.612  11.957
46537W        W11522  14.207  31.011  12.115
46538W        W11523   9.364  28.456   3.234
46539W        W11524  16.228  13.583   2.336
46540W        W11525  18.905  14.767  11.305
46541W        W11526  40.443  44.570   3.411
46542W        W11527  14.901   1.181  11.577
46543W        W11528   0.345  37.031  11.039
46544W        W11529  40.446   5.761  14.341
46545W        W11530   9.635  14.169  12.611
46546W        W11531  12.966  26.412   4.019
46547W        W11532  19.048  33.629  11.542
46548W        W11533   5.694  14.399   3.691
46549W        W11534   4.706  27.688   9.966
46550W        W11535  40.821  21.976   3.662
46551W        W11536  15.580  15.062   2.659
46552W        W11537  24.648   0.831   0.394
46553W        W11538  37.313  42.126  11.631
46554W        W11539  20.588  40.823  10.783
46555W        W11540  32.566  30.413  11.579
46556W        W11541   2.624   3.256   0.449
46557W        W11542  26.112  39.104   0.903
46558W        W11543  17.040   4.939  13.911
46559W        W11544  13.597  18.994   1.693
46560W        W11545   5.246  31.880  11.943
46561W        W11546  41.738  37.320  11.695
46562W        W11547  37.446  34.806  13.186
46563W        W11548  11.654  44.273  12.609
46564W        W11549  12.921  19.111   0.934
46565W        W11550   7.367  16.814   2.174
46566W        W11551  29.358   3.607   2.897
46567W        W11552  38.975   0.723   1.481
46568W        W11553   0.407   5.599   3.665
46569W        W11554  25.521  21.538   3.799
46570W        W11555   7.456  37.364   4.062
46571W        W11556  27.128  16.860   3.760
46572W        W11557  11.340  11.042   3.143
46573W        W11558  34.157  10.924   0.088
46574W        W11559  19.459  17.782   4.414
46575W        W11560  31.541  34.530   1.276
46576W        W11561  20.272   0.208   1.339
46577W        W11562   8.198  41.490   4.623
46578W        W11563  22.359   0.511   3.829
46579W        W11564   1.989  23.337  13.803
46580W        W11565  37.442  16.559   1.270
46581W        W11566  35.599  37.960   3.077
46582W        W11567  43.167  40.555  14.884
46583W        W11568  12.686  21.557   0.419
46584W        W11569  17.675  43.772   2.228
46585W        W11570  42.743  39.292   4.105
46586W        W11571  18.290  43.986  14.453
46587W        W11572   8.906  40.916  11.076
46588W        W11573  36.975   0.085  14.058
46589W        W11574  24.516  13.541   0.195
46590W        W11575   4.675   0.409   4.725
46591W        W11576  20.977  39.871   0.926
46592W        W11577  33.959  12.569  13.902
46593W        W11578  13.568  44.908  12.099
46594W        W11579   1.250  18.833  12.080
46595W        W11580  12.069  24.127   3.765
46596W        W11581  38.054  14.572   4.992
46597W        W11582  31.433  16.704   3.030
46598W        W11583  18.624   9.825   2.341
46599W        W11584   6.858  13.956  13.906
46600W        W11585  34.107  35.817  10.687
46601W        W11586   6.439  14.349  14.329
46602W        W11587  13.700  30.474   1.624
46603W        W11588  41.828  30.961  13.550
46604W        W11589  13.274   2.389   2.840
46605W        W11590  20.187  23.616  14.224
46606W        W11591   1.794  44.488  11.691
46607W        W11592  42.075  18.723  12.957
46608W        W11593  13.613   8.257   9.691
46609W        W11594  37.541   9.394   5.076
46610W        W11595  30.518  32.895   0.442
46611W        W11596   6.328   7.369  13.903
46612W        W11597  29.174  27.800   0.086
46613W        W11598  38.052   6.950  13.833
46614W        W11599  17.102  31.575  14.031
46615W        W11600  42.287  42.437   1.163
46616W        W11601   2.966   8.635  10.949
46617W        W11602  37.214  25.605  10.697
46618W        W11603  36.284   5.397  10.773
46619W        W11604  41.488  43.318  13.952
46620W        W11605  37.275  37.311  12.567
46621W        W11606  42.793  33.585  14.777
46622W        W11607  34.139  18.259  12.418
46623W        W11608   6.104  38.073  10.704
46624W        W11609   0.786   9.324   0.289
46625W        W11610  29.956  27.217  12.112
46626W        W11611  21.967  20.722  11.119
46627W        W11612   9.644  35.600  14.455
46628W        W11613  44.464  37.490   2.227
46629W        W11614  17.235  40.530  12.385
46630W        W11615  13.380  31.984  10.188
46631W        W11616  39.958  14.140  14.894
46632W        W11617  42.813  33.900  11.195
46633W        W11618  30.529   0.586  14.433
46634W        W11619  24.133  13.704  11.660
46635W        W11620  18.782  37.332   0.394
46636W        W11621   9.276  25.558   2.370
46637W        W11622  33.539  17.903   2.743
46638W        W11623  39.344  39.997   0.410
46639W        W11624   3.322  25.214   2.257
46640W        W11625  34.140  38.615   0.799
46641W        W11626   9.776  39.392   0.371
46642W        W11627  13.527  41.289  10.133
46643W        W11628  21.089  43.810  10.893
46644W        W11629  21.397   9.809  13.316
46645W        W11630  35.297  42.274  11.671
46646W        W11631  22.643  23.222   3.031
46647W        W11632  24.158   2.287   3.286
46648W        W11633  22.641   1.420  13.410
46649W        W11634  39.908   6.014   3.813
46650W        W11635  19.538  25.551   3.768
46651W        W11636  19.028  24.372  10.080
46652W        W11637   1.822   1.699   0.248
46653W        W11638  17.402  11.875  13.617
46654W        W11639  36.332  35.147   3.389
46655W        W11640  10.287  35.613   1.243
46656W        W11641  41.048  10.764   2.302
46657W        W11642  23.510  23.976   0.970
46658W        W11643  22.182  23.397   2.309
46659W        W11644  37.372  37.951  13.142
46660W        W11645  19.559  33.358   4.679
46661W        W11646  10.641   1.413   0.039
46662W        W11647  35.935  30.112   1.192
46663W        W11648  27.485  43.499  12.615
46664W        W11649  16.133  27.075  12.016
46665W        W11650   5.952  14.425   1.790
46666W        W11651  14.010  42.705  13.954
46667W        W11652  38.513   9.490  13.378
46668W        W11653  39.667   8.670  12.117
46669W        W11654   3.989  30.872   1.762
46670W        W11655   3.224  30.942  14.856
46671W        W11656  18.268   3.332   2.121
46672W        W11657  29.978  42.668  11.548
46673W        W11658  25.881  39.572   0.841
46674W        W11659   2.263  16.073   3.044
46675W        W11660  11.251   4.384  10.315
46676W        W11661  34.124  31.150  11.220
46677W        W11662   3.735  43.113  14.983
46678W        W11663  23.616   4.306   3.843
46679W        W11664  29.531  16.321  11.689
46680W        W11665  36.518   3.846  14.791
46681W        W11666   4.654  18.898  14.337
46682W        W11667  18.156   8.392  12.010
46683W        W11668  29.592  25.454   3.327
46684W        W11669  37.863   9.595   0.744
46685W        W11670  19.279   7.460   3.834
46686W        W11671  44.997  23.019   0.875
46687W        W11672  14.542  24.692  11.662
46688W        W11673   6.560  43.978   4.869
46689W        W11674  10.099   5.234  14.746
46690W        W11675  16.898  26.508  10.678
46691W        W11676   1.930  36.431  12.132
46692W        W11677  23.500  39.012  11.438
46693W        W11678   4.644  22.624   2.736
46694W        W11679  21.124  29.879   4.669
46695W        W11680  43.828  22.471  12.241
46696W        W11681   1.372   3.484  12.899
46697W        W11682  40.397  40.318   2.588
46698W        W11683  28.130  31.527  11.447
46699W        W11684  28.688  12.051   3.622
46700W        W11685   0.752  39.319   0.932
46701W        W11686  30.380  37.418  14.082
46702W        W11687  36.334  10.235   3.602
46703W        W11688   1.007  31.149  10.707
46704W        W11689  16.832  30.249   4.619
46705W        W11690  41.835  41.129   3.663
46706W        W11691   1.244  44.040   0.241
46707W        W11692  11.887   6.378  12.734
46708W        W11693  25.221   1.490   1.487
46709W        W11694   8.575  34.421  12.385
46710W        W11695  27.717  29.706  10.853
46711W        W11696  27.981  20.767   1.856
46712W        W11697  15.285  16.767   4.521
46713W        W11698  21.613  14.376   2.826
46714W        W11699  22.958  15.111   3.056
46715W        W11700  44.376   0.774   0.238
46716W        W11701   8.301  36.810   1.715
46717W        W11702  18.790  15.405   3.809
46718W        W11703  30.293  30.177   5.710
46719W        W11704  34.940   2.554   3.222
46720W        W11705  33.908  26.984  14.182
46721W        W11706  19.242  40.357   2.193
46722W        W11707  40.273   1.828   1.357
46723W        W11708  29.665  11.097  14.395
46724W        W11709  28.557  39.947   2.789
46725W        W11710  34.471  36.554  14.894
46726W        W11711  16.618   0.975   4.456
46727W        W11712  37.519  37.571   3.797
46728W        W11713  27.131  12.931  12.589
46729W        W11714  27.104   5.201   1.862
46730W        W11715  42.855   6.606   2.794
46731W        W11716  29.617  31.832   1.521
46732W        W11717   3.947   1.956   3.640
46733W        W11718  38.770  42.255   3.926
46734W        W11719  11.191  31.100   4.297
46735W        W11720  17.053  29.043  12.984
46736W        W11721   7.927  26.974  11.590
46737W        W11722  15.376  36.347   4.028
46738W        W11723  11.706   0.746  14.930
46739W        W11724  35.512  12.344  12.777
46740W        W11725  27.997  24.894   4.866
46741W        W11726  20.853  32.162   2.778
46742W        W11727   8.832  44.144   0.350
46743W        W11728  40.867  37.495   3.044
46744W        W11729   9.612   5.171   3.031
46745W        W11730  44.441  16.549   4.088
46746W        W11731  12.678  35.504  10.478
46747W        W11732  18.720  12.564   1.261
46748W        W11733  34.420  37.205  13.602
46749W        W11734  34.581   1.096  12.111
46750W        W11735   0.512  14.339  10.432
46751W        W11736  17.595  22.537   3.535
46752W        W11737  27.193  39.787   3.640
46753W        W11738  22.276  23.000   0.383
46754W        W11739   8.159  21.725   3.259
46755W        W11740   4.709   1.171   2.639
46756W        W11741  23.778  32.082  11.104
46757W        W11742  39.500  36.666   4.633
46758W        W11743   2.020  11.798  11.173
46759W        W11744  32.933   6.814   4.670
46760W        W11745  44.294  22.440  10.128
46761W        W11746  19.223  11.395   4.107
46762W        W11747   5.447  15.747   0.882
46763W        W11748  41.886   0.848  14.199
46764W        W11749   4.378  44.969  14.231
46765W        W11750   9.730   3.694   2.216
46766W        W11751   2.656  26.166  12.943
46767W        W11752  16.103  27.198   3.175
46768W        W11753  19.727  15.955   0.867
46769W        W11754  13.212  17.043   4.067
46770W        W11755  31.966  34.730   4.100
46771W        W11756   6.840  36.424   4.759
46772W        W11757  14.179  44.966   2.731
46773W        W11758  40.246  23.500   4.598
46774W        W11759  39.120  11.399   1.683
46775W        W11760   2.915   9.944  13.496
46776W        W11761   7.540   5.243   4.058
46777W        W11762  32.376  34.562  12.105
46778W        W11763  28.190  24.524   4.029
46779W        W11764   7.069  44.736   2.160
46780W        W11765   3.256  11.229   4.074
46781W        W11766  11.190  11.198  12.060
46782W        W11767  35.228  29.488   0.971
46783W        W11768  15.804  43.400   1.550
46784W        W11769  33.386  13.741   3.438
46785W        W11770  10.798  11.131  11.172
46786W        W11771   3.186  15.322  11.531
46787W        W11772  39.823  15.188  14.772
46788W        W11773  42.042   6.383   3.879
46789W        W11774  40.388  21.579   4.576
46790W        W11775  36.320  33.459   0.961
46791W        W11776  43.396  16.777  12.610
46792W        W11777  40.930  30.722  10.721
46793W        W11778   9.417   1.779  11.863
46794W        W11779  24.568  44.576  14.368
46795W        W11780  29.435  14.057   4.569
46796W        W11781  35.182   2.271   4.860
46797W        W11782  43.792  20.644  12.795
46798W        W11783   4.747   8.226   2.096
46799W        W11784   4.866  18.996  11.073
46800W        W11785  10.226   2.214   4.576
46801W        W11786  18.980  26.859   9.961
46802W        W11787  29.089   8.356   0.569
46803W        W11788  10.889  30.657   1.511
46804W        W11789  15.390  15.439   4.185
46805W        W11790  44.615  39.045  10.130
46806W        W11791   6.615  15.807  12.697
46807W        W11792   5.685  16.654   1.350
46808W        W11793  33.559   7.181   0.215
46809W        W11794   8.073  33.826  14.843
46810W        W11795  38.942  18.522  13.444
46811W        W11796  37.343  36.846  10.685
46812W        W11797  14.285   1.908  14.253
46813W        W11798  35.340  18.163   1.722
46814W        W11799  17.118  42.745  12.992
46815W        W11800   1.794   3.766   4.407
46816W        W11801  37.911  41.206   0.354
46817W        W11802  21.676  37.942   1.209
46818W        W11803   6.952  25.777  10.643
46819W        W11804  29.002  39.877  10.807
46820W        W11805   5.591  15.603   2.495
46821W        W11806  40.317  32.321   3.668
46822W        W11807  35.338  11.176   2.258
46823W        W11808  22.377  24.548  14.666
46824W        W11809  35.376  14.071  12.829
46825W        W11810   2.176  35.022   5.009
46826W        W11811  13.051  13.564  11.441
46827W        W11812  35.551   8.320   0.559
46828W        W11813  28.894  15.256   4.466
46829W        W11814  12.756  32.334  10.759
46830W        W11815  27.444   8.626  14.706
46831W        W11816  15.824  32.095   2.769
46832W        W11817  32.552   8.409  11.595
46833W        W11818  24.012  10.753   2.632
46834W        W11819   6.141  33.560  14.900
46835W        W11820  10.969  40.976   1.263
46836W        W11821  35.259  42.682   0.886
46837W        W11822  23.204  35.594  12.757
46838W        W11823  24.506  42.253  14.951
46839W        W11824  31.087   2.644   2.394
46840W        W11825  25.490  27.602   0.399
46841W        W11826  15.308  34.993   4.643
46842W        W11827  27.950   1.748  12.460
46843W        W11828  18.304  16.090  14.991
46844W        W11829  37.387  38.305  12.744
46845W        W11830  32.707  25.896   0.497
46846W        W11831  16.120  17.613  13.959
46847W        W11832  28.570   4.726  11.488
46848W        W11833   8.766  42.110   1.762
46849W        W11834  40.990  12.665   2.717
46850W        W11835  37.791   4.288  12.387
46851W        W11836  25.798  43.884   2.115
46852W        W11837  20.848   6.740  12.887
46853W        W11838  20.917   7.052   2.547
46854W        W11839  20.236  29.172  14.695
46855W        W11840  36.405  13.350  14.371
46856W        W11841   2.638  33.990  10.667
46857W        W11842  36.612   4.688  11.827
46858W        W11843  32.073  38.822  11.427
46859W        W11844  17.771  16.297  14.734
46860W        W11845  20.251  13.241  11.084
46861W        W11846  27.747  37.550   4.785
46862W        W11847  43.767  36.900   2.293
46863W        W11848  13.529   4.186   0.260
46864W        W11849  28.233  40.870  10.512
46865W        W11850  16.632   7.100   3.671
46866W        W11851   7.261  16.589  11.933
46867W        W11852  43.500  43.882   2.204
46868W        W11853   7.407  16.178   3.831
46869W        W11854  34.374   7.962  13.949
46870W        W11855   0.985  10.959  11.063
46871W        W11856  23.376   9.085  12.410
46872W        W11857  33.807  17.622   4.171
46873W        W11858  23.159  23.709   3.226
46874W        W11859  11.790  33.581  14.997
46875W        W11860   5.789  30.089   3.356
46876W        W11861   1.269   8.349   3.275
46877W        W11862  43.273  29.650   3.265
46878W        W11863  32.178   6.983   0.950
46879W        W11864  41.692  13.256  11.138
46880W        W11865  28.575  19.794  13.286
46881W        W11866  29.980  38.347  12.971
46882W        W11867  40.204  37.348  11.046
46883W        W11868  26.649  19.028   3.673
46884W        W11869  41.271  24.501  13.991
46885W        W11870  36.112  24.948   4.667
46886W        W11871  10.125  22.299  11.480
46887W        W11872   8.836  42.427   1.362
46888W        W11873  42.066   7.017  14.786
46889W        W11874  37.812  37.011  13.004
46890W        W11875  42.327  35.933  10.257
46891W        W11876  38.996   6.582  12.443
46892W        W11877  41.274   7.270   1.637
46893W        W11878  12.955  19.384   3.738
46894W        W11879   2.327  18.604   3.921
46895W        W11880  26.519  44.079  11.151
46896W        W11881  39.983  13.268   2.577
46897W        W11882  31.681  26.477   5.102
46898W        W11883  40.134  27.464   4.136
46899W        W11884  38.436  35.194  12.314
46900W        W11885  17.506  34.596   0.615
46901W        W11886  41.923   4.890  13.900
46902W        W11887  24.054  12.192   4.644
46903W        W11888  22.679   1.276  13.901
46904W        W11889  22.757  28.465  12.926
46905W        W11890  21.788  11.026   2.355
46906W        W11891  38.373  37.643  14.305
46907W        W11892  40.082  32.978  13.981
46908W        W11893  32.773  28.938   0.399
46909W        W11894  21.681  22.223   3.560
46910W        W11895  39.810   6.580  14.378
46911W        W11896  22.685  12.636   3.603
46912W        W11897  19.282  12.704   3.838
46913W        W11898  34.401  34.487  10.738
46914W        W11899  40.386  19.577   2.434
46915W        W11900  40.557   8.096  10.657
46916W        W11901   1.783  33.990   1.236
46917W        W11902  18.276  44.589  11.604
46918W        W11903  32.050  10.778   5.972
46919W        W11904   3.396  16.567  11.200
46920W        W11905  38.045  34.957   5.084
46921W        W11906  40.973  21.800  13.868
46922W        W11907  39.611  10.789  13.218
46923W        W11908  35.605  33.441  11.856
46924W        W11909  15.076   3.180  13.090
46925W        W11910  20.779   9.165   2.871
46926W        W11911  40.060  43.866   4.567
46927W        W11912   0.954   7.466   0.337
46928W        W11913  22.986  24.451  11.498
46929W        W11914  35.474   5.244   0.756
46930W        W11915  42.435  36.882  14.543
46931W        W11916  31.450  21.071  13.811
46932W        W11917  15.217  10.381   2.751
46933W        W11918  19.582  27.036  13.090
46934W        W11919  20.358  10.316  11.086
46935W        W11920  16.184  19.108   0.917
46936W        W11921  32.020   6.865   1.844
46937W        W11922  31.610  13.510  13.374
46938W        W11923  20.116  42.568  12.965
46939W        W11924   4.904  39.019  13.019
46940W        W11925   5.495  14.652  14.207
46941W        W11926  10.406  12.657  12.811
46942W        W11927   7.192  14.774  12.114
46943W        W11928  24.183   4.855   2.637
46944W        W11929  43.555   5.898   3.128
46945W        W11930   2.379  23.466  12.520
46946W        W11931  31.006  43.373  14.453
46947W        W11932  29.846   9.942   3.325
46948W        W11933   4.234  27.436  11.693
46949W        W11934   7.165  26.539  10.215
46950W        W11935  27.143  42.209  12.972
46951W        W11936   5.206  31.063  12.178
46952W        W11937  37.458  13.701  14.700
46953W        W11938  22.980  10.774   1.680
46954W        W11939  44.101  33.000  12.455
46955W        W11940  10.929  29.865  11.861
46956W        W11941   0.802  28.325  13.863
46957W        W11942  44.308  23.578  12.083
46958W        W11943   7.511   1.700  11.903
46959W        W11944  24.075   4.775   4.030
46960W        W11945   1.008  11.295  13.979
46961W        W11946  29.779   0.791   4.163
46962W        W11947  17.460   2.764   4.202
46963W        W11948  15.901  34.613  13.543
46964W        W11949  14.092  14.963   4.152
46965W        W11950  12.865  36.341   3.688
46966W        W11951  27.033  36.982   4.419
46967W        W11952  25.025  21.620   3.592
46968W        W11953  10.835  21.224  13.378
46969W        W11954  33.623  38.064  11.136
46970W        W11955   8.242   3.923   2.303
46971W        W11956  23.212  12.313   0.017
46972W        W11957   8.230   0.359   0.051
46973W        W11958  43.497  25.661  14.374
46974W        W11959  33.375  20.772   0.867
46975W        W11960  21.240  39.400   0.633
46976W        W11961  27.162  28.000   3.659
46977W        W11962  35.724  13.457  13.917
46978W        W11963  25.671   2.358  12.450
46979W        W11964  42.932  12.956   2.361
46980W        W11965  16.695   1.418   2.363
46981W        W11966  15.873  25.617   4.092
46982W        W11967  30.001  34.246   4.359
46983W        W11968  12.591  25.509   4.362
46984W        W11969  44.975  44.952   2.108
46985W        W11970   4.332  25.746   1.703
46986W        W11971  44.955  28.401  11.757
46987W        W11972   3.188  38.396  14.007
46988W        W11973  29.576  20.700   2.174
46989W        W11974  10.118  30.946  11.492
46990W        W11975  26.690  25.576  13.738
46991W        W11976  42.470  30.049  14.825
46992W        W11977  41.695  23.728  11.723
46993W        W11978  20.480  28.014   1.798
46994W        W11979  39.438   6.375  14.692
46995W        W11980  25.609  22.826   4.159
46996W        W11981  35.926  19.150   3.421
46997W        W11982  20.698  38.016  10.550
46998W        W11983  27.693  17.595  11.317
46999W        W11984  11.347  14.519   2.049
47000W        W11985  30.911  22.133   3.270
47001W        W11986   2.222  28.374  13.599
47002W        W11987  42.388  38.265   3.787
47003W        W11988  21.612   1.431   3.856
47004W        W11989  26.486   2.324  12.903
47005W        W11990  18.555   0.886  11.672
47006W        W11991  28.581  38.760   2.182
47007W        W11992  27.866  42.435   4.109
47008W        W11993  37.264  20.951   2.124
47009W        W11994  15.324   0.966   1.912
47010W        W11995  23.646  14.396  14.474
47011W        W11996  33.783   2.503   3.744
47012W        W11997  13.838   8.310  12.954
47013W        W11998  22.496   1.846  10.863
47014W        W11999  11.216   8.372  14.280
47015W        W12000  23.916  10.276   2.424
47016W        W12001  15.698  17.184  11.762
47017W        W12002  25.986  34.462  12.732
47018W        W12003  43.383  37.455   4.196
47019W        W12004  23.995  16.151   1.395
47020W        W12005  15.260  17.510   3.498
47021W        W12006  32.182  19.484   1.923
47022W        W12007   0.546  36.800   2.774
47023W        W12008   3.767  41.812   0.647
47024W        W12009  27.229  20.969   3.265
47025W        W12010  28.304  24.782   2.426
47026W        W12011  33.578  25.095   1.883
47027W        W12012   1.281  30.923  13.090
47028W        W12013   2.972  13.104  11.170
47029W        W12014  40.872   5.727  13.940
47030W        W12015  22.485  42.826  12.402
47031W        W12016   5.253  37.282   2.313
47032W        W12017  27.928  10.790   4.351
47033W        W12018  32.994  16.080   2.151
47034W        W12019  18.728  31.410  12.858
47035W        W12020  32.332   9.226  12.732
47036W        W12021  12.298  17.018   0.745
47037W        W12022  26.391  26.575  13.426
47038W        W12023   9.091  13.833   4.347
47039W        W12024  35.133   3.201  11.546
47040W        W12025   6.194   3.986  12.443
47041W        W12026  32.126  44.551  11.854
47042W        W12027   1.069   4.594  11.126
47043W        W12028  27.537  23.879   2.960
47044W        W12029   6.301  40.961  14.320
47045W        W12030  32.903  14.534   3.200
47046W        W12031  44.971  11.229   3.061
47047W        W12032  13.231  36.785  14.893
47048W        W12033  28.695  43.967   2.669
47049W        W12034  30.617  33.285   4.758
47050W        W12035  17.063  35.582   2.265
47051W        W12036  40.090   1.515  13.879
47052W        W12037  12.889   8.224   1.427
47053W        W12038  21.642  36.400   3.140
47054W        W12039   6.700  27.399  14.080
47055W        W12040  43.364  32.239  13.921
47056W        W12041  41.005  20.495  11.189
47057W        W12042  10.921   9.743   4.289
47058W        W12043  31.003  16.334   1.416
47059W        W12044  44.037  10.891  13.024
47060W        W12045  39.962  14.461   1.205
47061W        W12046   9.900  12.666   2.208
47062W        W12047   7.134   2.369   4.286
47063W        W12048  13.400  28.256  12.947
47064W        W12049  29.449  35.874   1.188
47065W        W12050   3.973  26.013   1.988
47066W        W12051  40.255   6.913  12.881
47067W        W12052  13.523   0.822  10.496
47068W        W12053  26.289  21.204  10.718
47069W        W12054   1.718   1.454   2.784
47070W        W12055  14.078  12.801  12.949
47071W        W12056  17.211  28.721  14.090
47072W        W12057  37.806   7.387  14.811
47073W        W12058  39.257  22.136   4.606
47074W        W12059  30.731  36.579   1.804
47075W        W12060   4.312   0.487  12.873
47076W        W12061  43.814  41.345  11.971
47077W        W12062  33.897  12.214   2.422
47078W        W12063   6.824   1.854   0.756
47079W        W12064  34.363  25.916  14.779
47080W        W12065   8.912  32.551  14.186
47081W        W12066   9.421  32.932  14.197
47082W        W12067  42.806  29.918   3.211
47083W        W12068  23.528   1.057   3.611
47084W        W12069   8.344  25.265   3.389
47085W        W12070  27.828  44.271   4.210
47086W        W12071  44.008  13.551  14.355
47087W        W12072  27.745   7.685  14.935
47088W        W12073  23.570  38.160   2.607
47089W        W12074  10.602  18.015   1.317
47090W        W12075  44.923   6.471   3.683
47091W        W12076  22.025  29.606   2.440
47092W        W12077  38.420  44.977  12.583
47093W        W12078  30.084   7.893   2.879
47094W        W12079  28.042   3.914  12.055
47095W        W12080  33.523  22.703   3.126
47096W        W12081  24.156  18.616   0.327
47097W        W12082   8.459  40.690   0.951
47098W        W12083  40.495  31.190   4.073
47099W        W12084  40.897   3.295   2.617
47100W        W12085  10.579  16.205   2.076
47101W        W12086  31.571  24.319  12.364
47102W        W12087   0.720   4.400   3.234
47103W        W12088  28.517  29.655   0.971
47104W        W12089  18.601  26.999   3.233
47105W        W12090  40.114  37.325   0.689
47106W        W12091  43.734   9.245   4.629
47107W        W12092  43.793  13.556  12.672
47108W        W12093   4.177  24.018  13.405
47109W        W12094  18.619  34.566  14.031
47110W        W12095  30.140   8.264   4.795
47111W        W12096   8.608  17.053  12.891
47112W        W12097   8.610  26.697   2.602
47113W        W12098  11.388   0.868  10.778
47114W        W12099  13.304  29.097   0.854
47115W        W12100  23.057   9.364  13.964
47116W        W12101  38.973  31.348   1.663
47117W        W12102   0.628  15.962  10.226
47118W        W12103  38.391  12.176  12.970
47119W        W12104   6.178  44.763   0.846
47120W        W12105  18.286  36.000  12.154
47121W        W12106  34.924  36.971  11.584
47122W        W12107  35.126  32.081   1.795
47123W        W12108   0.018  35.570  12.872
47124W        W12109  10.142  30.439   2.794
47125W        W12110  18.242  35.504  12.432
47126W        W12111  16.106   4.929   1.347
47127W        W12112  29.531   5.413  10.126
47128W        W12113  12.820  26.559  10.187
47129W        W12114  37.472  22.009  11.524
47130W        W12115  30.189  28.547   4.435
47131W        W12116  20.670  37.552  11.613
47132W        W12117  22.457   5.367  14.513
47133W        W12118  26.557  10.554   3.141
47134W        W12119  24.260  31.956  14.202
47135W        W12120  12.661  35.480  11.058
47136W        W12121  39.146  20.201   3.461
47137W        W12122  37.987  35.999  12.313
47138W        W12123  28.653  33.936   1.362
47139W        W12124  42.244  39.123   5.021
47140W        W12125   5.839  21.565   1.379
47141W        W12126  15.622  43.463  14.061
47142W        W12127   7.922  44.222   2.751
47143W        W12128  16.981  30.235  10.554
47144W        W12129  13.283  43.033  12.566
47145W        W12130  17.388  19.484   5.089
47146W        W12131  33.885  27.631   4.629
47147W        W12132  40.769   8.612   0.374
47148W        W12133  12.679  40.404   3.170
47149W        W12134  44.123  13.242   4.229
47150W        W12135   7.144   0.140   3.572
47151W        W12136  37.979   4.627   1.936
47152W        W12137  11.773  41.811  11.016
47153W        W12138  42.897  12.175  11.338
47154W        W12139  35.006   2.546  12.051
47155W        W12140   1.959  40.711   2.273
47156W        W12141   2.923  40.725  12.664
47157W        W12142  44.889  37.866  14.797
47158W        W12143   5.003  28.636   0.264
47159W        W12144  40.494  19.576   1.894
47160W        W12145  20.133  35.669   0.459
47161W        W12146  35.671  29.595   0.699
47162W        W12147  15.625  20.326  11.092
47163W        W12148  28.787  33.103   4.074
47164W        W12149  10.724  34.312   1.219
47165W        W12150  23.141  38.407   2.795
47166W        W12151  12.808  31.241   0.059
47167W        W12152  33.474  31.111   1.347
47168W        W12153  30.447  36.599  13.185
47169W        W12154  32.334  14.637   3.006
47170W        W12155  19.560  11.654   1.582
47171W        W12156  33.370   7.280   2.702
47172W        W12157   8.339  25.472   2.921
47173W        W12158  15.536  37.933  13.394
47174W        W12159   4.993   9.187   2.745
47175W        W12160  16.083   4.044  12.003
47176W        W12161  40.767   7.112  14.918
47177W        W12162  33.637  29.667  14.267
47178W        W12163  38.410  24.330   2.399
47179W        W12164  19.660  37.505  11.748
47180W        W12165  27.752  16.802  14.463
47181W        W12166  18.740  12.677  12.112
47182W        W12167  11.235  13.810  14.811
47183W        W12168   1.228  13.719  10.653
47184W        W12169  26.171  42.931  12.583
47185W        W12170   5.928  28.594   0.044
47186W        W12171  33.288  25.433  13.786
47187W        W12172  19.497  22.041   2.224
47188W        W12173  34.090  29.486  11.638
47189W        W12174  10.197  36.868  13.875
47190W        W12175  26.377  42.221   4.037
47191W        W12176  26.289  28.682  10.675
47192W        W12177   9.521  31.436  12.111
47193W        W12178  43.307  21.459  11.735
47194W        W12179  20.695  24.722  10.614
47195W        W12180   3.291  42.747  12.628
47196W        W12181  43.397  40.787   1.573
47197W        W12182   1.349  17.796  12.048
47198W        W12183  19.348  30.161  13.544
47199W        W12184  22.946  26.047  11.946
47200W        W12185  19.218  18.353  11.656
47201W        W12186  21.284   0.403  14.408
47202W        W12187   8.774  40.178   2.975
47203W        W12188  29.366  27.509  10.619
47204W        W12189  36.653  18.661   3.806
47205W        W12190  20.194   9.101  12.143
47206W        W12191  14.701   9.822  12.581
47207W        W12192  42.453  15.104  12.977
47208W        W12193  37.111  18.261   3.849
47209W        W12194  27.971  44.041  12.016
47210W        W12195  18.722  31.191  14.331
47211W        W12196  15.543  18.956  11.606
47212W        W12197  13.369  23.685  12.547
47213W        W12198  14.034  32.827   1.627
47214W        W12199  39.801  24.130   2.690
47215W        W12200  26.350  10.344  11.047
47216W        W12201  21.288  34.394  11.878
47217W        W12202  12.713  28.509  11.586
47218W        W12203  37.627   8.311   0.241
47219W        W12204  44.700  12.751   3.152
47220W        W12205   1.454  12.953   2.781
47221W        W12206   8.851  34.507   2.171
47222W        W12207  18.603  27.999   0.518
47223W        W12208   8.887  37.825   3.234
47224W        W12209  26.848   8.814   1.757
47225W        W12210  30.106   6.091  10.490
47226W        W12211  12.224  21.497  11.757
47227W        W12212   1.885  16.203  14.757
47228W        W12213  27.208  35.310  12.110
47229W        W12214  41.472  28.973  10.328
47230W        W12215  29.550  29.481   0.948
47231W        W12216  42.234  23.688  13.060
47232W        W12217  44.403  39.012  14.076
47233W        W12218  31.448   0.456   4.148
47234W        W12219   4.663  17.263   2.835
47235W        W12220  24.651  40.042   0.474
47236W        W12221   5.393  30.438   0.906
47237W        W12222  14.716  43.616   3.513
47238W        W12223  28.338   2.996   4.359
47239W        W12224  22.179  29.536  12.383
47240W        W12225  36.124  44.516   1.862
47241W        W12226  40.351  15.653   2.962
47242W        W12227  27.616  19.846  13.420
47243W        W12228  14.627  29.251   4.025
47244W        W12229  29.385   1.995   5.127
47245W        W12230  29.903  26.608   3.182
47246W        W12231  17.071  12.267   2.434
47247W        W12232  28.974   5.735   1.866
47248W        W12233   9.463  39.004  12.838
47249W        W12234  39.980  18.278   4.196
47250W        W12235  28.243   7.804   0.034
47251W        W12236  35.534   2.490  14.054
47252W        W12237  15.290  33.838  11.854
47253W        W12238  25.776   9.250   3.192
47254W        W12239  30.686  28.084  13.568
47255W        W12240   8.807  18.468   3.333
47256W        W12241   7.855  41.115  13.615
47257W        W12242  43.521  30.048   0.319
47258W        W12243  11.783  37.723   3.592
47259W        W12244  36.744  32.120   3.194
47260W        W12245  17.637  31.266  12.589
47261W        W12246  26.364  17.758   1.575
47262W        W12247   4.190  29.354  14.446
47263W        W12248  23.227   0.349   3.997
47264W        W12249  20.130   6.470   1.391
47265W        W12250  35.448  35.170  11.107
47266W        W12251  10.332  24.256   0.367
47267W        W12252   1.258  31.055  11.232
47268W        W12253  26.192  39.913  13.729
47269W        W12254  27.095  20.230  12.760
47270W        W12255  15.269  23.544   2.819
47271W        W12256  10.446  29.976  11.948
47272W        W12257  43.630  18.834  10.830
47273W        W12258  22.464   2.369   4.738
47274W        W12259  27.133  42.537  10.639
47275W        W12260  35.516   3.676   0.407
47276W        W12261   1.972  12.672   3.625
47277W        W12262  10.278  40.552  13.027
47278W        W12263   4.653   7.212  14.467
47279W        W12264   2.323  19.179  12.619
47280W        W12265  38.065   2.866  13.991
47281W        W12266   9.360  36.606  11.603
47282W        W12267  35.116  18.312   3.314
47283W        W12268  22.969  15.733   2.672
47284W        W12269   4.944  26.021  12.044
47285W        W12270   1.821   2.779  14.958
47286W        W12271  14.921  23.118  13.963
47287W        W12272  42.296  35.131  12.599
47288W        W12273  44.303  39.913   3.200
47289W        W12274  32.973   7.103  12.935
47290W        W12275  39.815  37.503  14.286
47291W        W12276  39.801  25.187   2.939
47292W        W12277   3.318   1.729   2.834
47293W        W12278  44.762  19.859  12.841
47294W        W12279  25.077  16.816  12.899
47295W        W12280   6.468  23.630  14.902
47296W        W12281   2.674   2.087  12.683
47297W        W12282  27.647  19.526  11.251
47298W        W12283  23.690  22.538   0.417
47299W        W12284   1.817  31.881  12.573
47300W        W12285  23.155   6.039   3.692
47301W        W12286   8.804  36.408  14.778
47302W        W12287   8.162  26.569  13.412
47303W        W12288  34.929  34.907  13.387
47304W        W12289  40.594   8.991   0.007
47305W        W12290  32.584  15.748  13.194
47306W        W12291   4.975  23.601   0.962
47307W        W12292   5.155  33.075  14.369
47308W        W12293  38.891  29.143   2.334
47309W        W12294   5.038  32.307  12.839
47310W        W12295  14.568  12.807  14.298
47311W        W12296   0.790  25.155  11.369
47312W        W12297   6.072  29.916   0.143
47313W        W12298  44.341  42.746   2.922
47314W        W12299  25.643  16.741  14.316
47315W        W12300  36.414  27.171  13.584
47316W        W12301  14.682  24.373   2.298
47317W        W12302  22.344  13.273   2.789
47318W        W12303  16.631  19.573  12.359
47319W        W12304   4.401   5.706   1.011
47320W        W12305  39.530  37.466   2.671
47321W        W12306   8.862  19.498   0.385
47322W        W12307   8.612  41.967  12.647
47323W        W12308  43.527  19.603   2.171
47324W        W12309  26.570  32.938   4.991
47325W        W12310  42.525  26.279  13.355
47326W        W12311   6.243  24.403   3.192
47327W        W12312  18.019  34.633   0.464
47328W        W12313  20.785  24.406   1.639
47329W        W12314  12.591  20.890  11.044
47330W        W12315  15.487  11.640  12.509
47331W        W12316  43.537  27.585   0.582
47332W        W12317  12.765  29.514  13.572
47333W        W12318  44.461  14.047  13.000
47334W        W12319  29.222  12.876  14.904
47335W        W12320  23.176  41.481   4.589
47336W        W12321  15.657  14.839   2.173
47337W        W12322  18.841  27.533   0.454
47338W        W12323  24.507   6.101   2.656
47339W        W12324   0.110  34.578  12.955
47340W        W12325   4.190  23.546  10.792
47341W        W12326  29.474   3.198   2.607
47342W        W12327  16.269  21.537  14.173
47343W        W12328  21.625   1.035   1.678
47344W        W12329   3.737   2.964  13.916
47345W        W12330  44.516  28.072  14.459
47346W        W12331  28.152   6.909   4.204
47347W        W12332  15.308   1.857  14.266
47348W        W12333   4.732  32.659  13.786
47349W        W12334  15.482  13.484   5.338
47350W        W12335  44.003  15.792   2.869
47351W        W12336  34.429  29.679   0.643
47352W        W12337   7.534  20.826  14.389
47353W        W12338  32.522  41.108  11.186
47354W        W12339  44.950  43.526  13.311
47355W        W12340  19.569  17.745   2.243
47356W        W12341  20.025   3.280  13.293
47357W        W12342  26.599  28.618   2.830
47358W        W12343  10.706  42.932  14.584
47359W        W12344  19.749  13.807   0.791
47360W        W12345  43.831  36.771  14.037
47361W        W12346  39.565  38.246  14.882
47362W        W12347  28.124   9.464   1.294
47363W        W12348  31.213  17.811  11.645
47364W        W12349  13.704   1.661   0.904
47365W        W12350  44.419  39.534   4.503
47366W        W12351   8.622  21.317   0.922
47367W        W12352  11.038   6.971  10.992
47368W        W12353  31.104  40.812   0.480
47369W        W12354  29.141  39.330  10.497
47370W        W12355  13.959  16.798   4.365
47371W        W12356  28.907  26.050   3.837
47372W        W12357   4.451  23.184   3.709
47373W        W12358   8.593  12.071   3.932
47374W        W12359   7.159  29.988  13.935
47375W        W12360  40.145  42.945  10.404
47376W        W12361  26.787  35.986   5.255
47377W        W12362  40.788  11.761   3.611
47378W        W12363   9.624  33.358  13.313
47379W        W12364   5.301  14.746   3.565
47380W        W12365   5.667  33.032   4.343
47381W        W12366  38.222  39.592   3.232
47382W        W12367  23.431  20.747   4.241
47383W        W12368  36.531  39.788  14.848
47384W        W12369   6.324  43.403  12.024
47385W        W12370  42.470  20.912  11.644
47386W        W12371  15.924  31.342   4.980
47387W        W12372  19.857   6.749   5.045
47388W        W12373  44.843  24.044  10.335
47389W        W12374   7.284  14.345  13.948
47390W        W12375  30.116   6.124   1.593
47391W        W12376   7.082  36.676   0.685
47392W        W12377   7.404  35.379  12.655
47393W        W12378  35.907  40.245  13.948
47394W        W12379  44.023  14.800   4.449
47395W        W12380  26.093  40.867   0.795
47396W        W12381   7.953   6.417   1.958
47397W        W12382  37.856  37.367   3.349
47398W        W12383  37.173  17.056   4.744
47399W        W12384  40.000  16.350  12.074
47400W        W12385  19.170  11.605  13.898
47401W        W12386  43.386  35.967   1.894
47402W        W12387  19.148  37.331   4.229
47403W        W12388  20.347  32.126   2.661
47404W        W12389  38.822   8.851  11.746
47405W        W12390  39.860  12.513  13.367
47406W        W12391  38.937   7.707   0.902
47407W        W12392  16.808  30.450   0.724
47408W        W12393  29.043  15.908   2.934
47409W        W12394  43.415  30.468  13.448
47410W        W12395  19.694  44.444   4.564
47411W        W12396  35.871   8.801  12.247
47412W        W12397  44.463   2.439   3.201
47413W        W12398  12.119  15.132   2.247
47414W        W12399  13.021   8.574   4.098
47415W        W12400   1.545  25.865  12.008
47416W        W12401   0.650   7.740  12.601
47417W        W12402   7.173  20.162   0.876
47418W        W12403  17.799  22.109   3.265
47419W        W12404  19.888  34.944  13.836
47420W        W12405  24.021  41.052   4.747
47421W        W12406   6.146   4.736  14.577
47422W        W12407  23.644   9.779  10.618
47423W        W12408  34.079  26.562  13.914
47424W        W12409  18.176  29.351   4.421
47425W        W12410   0.922  25.629  14.111
47426W        W12411   3.229  21.123  13.890
47427W        W12412   3.103  28.958   0.741
47428W        W12413  43.822  14.091   1.373
47429W        W12414  30.555   1.699   2.221
47430W        W12415   5.403  16.323   4.592
47431W        W12416  27.180  13.388  11.577
47432W        W12417  42.517  44.437   0.561
47433W        W12418   0.836  14.690  11.620
47434W        W12419  42.962   8.925  13.789
47435W        W12420  42.527   1.818  12.208
47436W        W12421  40.299   1.078   3.237
47437W        W12422  24.213  36.578   0.685
47438W        W12423  38.336  37.904   1.438
47439W        W12424  40.781  17.153   2.169
47440W        W12425  27.422  26.908  11.153
47441W        W12426  40.622  43.083   0.011
47442W        W12427  41.502  15.709   0.879
47443W        W12428  13.872   7.014  12.582
47444W        W12429  17.572  26.556  11.351
47445W        W12430  16.947  21.752  12.293
47446W        W12431  40.001  10.835  14.859
47447W        W12432  37.953   9.291  10.542
47448W        W12433  22.105   9.748   2.252
47449W        W12434   1.547   8.771  11.153
47450W        W12435  43.468  12.731   0.450
47451W        W12436  40.592  24.395   2.679
47452W        W12437  13.646   6.544  10.153
47453W        W12438  17.102   9.303  10.908
47454W        W12439  25.949  30.816  14.896
47455W        W12440  20.483  32.553   0.259
47456W        W12441  40.375  20.528   0.255
47457W        W12442  38.596   9.212  12.554
47458W        W12443  16.799   0.277  11.304
47459W        W12444  40.521  28.040  10.923
47460W        W12445   2.267  20.498  12.149
47461W        W12446  44.319  19.232   1.955
47462W        W12447  35.456  12.326  10.181
47463W        W12448  38.309  35.081   4.625
47464W        W12449  23.914  18.569   4.785
47465W        W12450  11.489   1.910   1.767
47466W        W12451  23.252  31.090   4.707
47467W        W12452  37.002  44.489   1.672
47468W        W12453  15.666  15.237  14.168
47469W        W12454  38.990   5.232   4.268
47470W        W12455   2.458  30.378  12.842
47471W        W12456  24.347  31.138   1.376
47472W        W12457  10.226  11.262   0.876
47473W        W12458   2.473  24.080   0.714
47474W        W12459   5.385  33.462   4.070
47475W        W12460  17.563  21.164   3.343
47476W        W12461  26.987  34.626   4.633
47477W        W12462  18.429  15.052   4.873
47478W        W12463  31.714   4.517   4.123
47479W        W12464  13.239  44.310   3.368
47480W        W12465  34.522  33.455  10.527
47481W        W12466  39.451  28.435   3.375
47482W        W12467  23.452  14.753   4.524
47483W        W12468  14.114  32.285   2.886
47484W        W12469  28.967  11.682  11.391
47485W        W12470  28.230  28.507   4.444
47486W        W12471  35.808  44.054   3.135
47487W        W12472  31.459   7.432   0.012
47488W        W12473  26.642   1.454   2.244
47489W        W12474  35.590  41.540  10.888
47490W        W12475  36.666  28.024   4.145
47491W        W12476   5.207  17.990   3.549
47492W        W12477  36.966  22.754   3.776
47493W        W12478  33.955  30.121   1.124
47494W        W12479   4.806   1.886  12.488
47495W        W12480  39.585   6.873   3.664
47496W        W12481   9.347  44.991  13.360
47497W        W12482   5.360   8.749   4.042
47498W        W12483  37.882  20.248   3.706
47499W        W12484  17.609   2.403  12.549
47500W        W12485  26.778   7.935  14.917
47501W        W12486  17.268  35.988   4.474
47502W        W12487  22.764   7.985  11.722
47503W        W12488   6.726  36.648  12.738
47504W        W12489  12.364  22.279   1.791
47505W        W12490   6.221  19.149  11.255
47506W        W12491  43.123   3.455   3.810
47507W        W12492  39.986   7.754   2.240
47508W        W12493  41.370  36.021  13.485
47509W        W12494  14.094  31.511  12.008
47510W        W12495  11.918  27.578   1.834
47511W        W12496   9.233   2.935   3.853
47512W        W12497   7.520  15.178  11.932
47513W        W12498  16.929  32.358  12.115
47514W        W12499  21.703   6.087   1.356
47515W        W12500  28.784  40.768  14.241
47516W        W12501  40.919  30.262  12.203
47517W        W12502  44.398  35.874   4.153
47518W        W12503  12.881  14.624   3.807
47519W        W12504  32.225  19.135  12.961
47520W        W12505  36.644  43.378  13.842
47521W        W12506  23.691   4.733  12.555
47522W        W12507  44.691   6.776  11.654
47523W        W12508  38.841   2.656  14.442
47524W        W12509  13.247   1.277   0.150
47525W        W12510  14.134  20.727   3.953
47526W        W12511  19.745  25.091   1.741
47527W        W12512  15.111   6.465   3.355
47528W        W12513  13.337  18.006   0.768
47529W        W12514  44.506  30.935  13.306
47530W        W12515  12.361   8.770   0.901
47531W        W12516   9.929   5.232  13.890
47532W        W12517  37.902   6.008  10.997
47533W        W12518   0.043  15.933  11.648
47534W        W12519  24.391  29.897   4.248
47535W        W12520  20.757  37.892   4.738
47536W        W12521  25.588  22.519   1.668
47537W        W12522  19.831  11.906  14.019
47538W        W12523  40.251  36.269   1.741
47539W        W12524   6.768  18.523   4.877
47540W        W12525  31.035  40.890   2.840
47541W        W12526  29.872  27.404   3.800
47542W        W12527  24.188  37.566   3.684
47543W        W12528  32.345  31.574   3.687
47544W        W12529  43.774  10.813   4.166
47545W        W12530  10.689   6.804   3.176
47546W        W12531   5.595  11.541  11.428
47547W        W12532  29.194   1.369  11.419
47548W        W12533  10.011  23.670   0.904
47549W        W12534  44.989  25.858   3.148
47550W        W12535   7.992  24.780  12.128
47551W        W12536  13.695  40.809  12.859
47552W        W12537  31.101  43.657   4.659
47553W        W12538  22.233  22.024  13.312
47554W        W12539  13.001  29.117   3.349
47555W        W12540  39.271  42.138  14.875
47556W        W12541  40.695  10.198   0.870
47557W        W12542  20.428  27.562   2.018
47558W        W12543   9.602  17.095   0.266
47559W        W12544  29.406  16.088   1.901
47560W        W12545  36.902   6.665   2.452
47561W        W12546  26.443  34.449   1.271
47562W        W12547  29.106  28.466  14.397
47563W        W12548  14.623  18.664   4.084
47564W        W12549  38.182  22.228   4.652
47565W        W12550   6.388   3.774   1.045
47566W        W12551  42.317   4.814   1.882
47567W        W12552   3.853   1.755  14.524
47568W        W12553   0.227   7.278   0.787
47569W        W12554  28.996  39.237  12.705
47570W        W12555  22.774   0.265  11.435
47571W        W12556  22.183  21.424   2.580
47572W        W12557  25.086  23.581  12.072
47573W        W12558   6.117  39.852  13.321
47574W        W12559  27.753  12.099   3.769
47575W        W12560  13.492  25.135  11.089
47576W        W12561   2.743  43.305  11.581
47577W        W12562   4.917  11.416   0.017
47578W        W12563  32.483  22.535  11.981
47579W        W12564  24.037   7.358  13.431
47580W        W12565  21.725   9.292   0.341
47581W        W12566  43.971  26.447   0.984
47582W        W12567  34.546  12.573   0.295
47583W        W12568  15.743  17.763  12.626
47584W        W12569   4.541  32.479   3.455
47585W        W12570  41.986  41.064   1.128
47586W        W12571  21.493  33.101   3.109
47587W        W12572  33.459  12.237   5.007
47588W        W12573  17.062  37.499  12.528
47589W        W12574  37.895  20.893  13.527
47590W        W12575  12.864  37.950   0.915
47591W        W12576  33.319  15.603   3.667
47592W        W12577  24.956   7.754   1.296
47593W        W12578  41.444  34.668  13.440
47594W        W12579  33.774  30.477   0.803
47595W        W12580   2.979  33.007   1.224
47596W        W12581  33.081   5.185  11.650
47597W        W12582  41.972  40.003   4.647
47598W        W12583  36.004   6.995  13.847
47599W        W12584   6.466  12.713  13.044
47600W        W12585  43.214   8.772   1.690
47601W        W12586  16.595  24.879   5.287
47602W        W12587   3.445  43.395   1.267
47603W        W12588  21.993  25.392  10.614
47604W        W12589  18.241  37.073  13.975
47605W        W12590  37.486  26.857   2.892
47606W        W12591   3.198  32.208   0.700
47607W        W12592  33.545  23.771   4.536
47608W        W12593  39.795  28.611  14.807
47609W        W12594  28.670  15.302  11.261
47610W        W12595  15.215  26.611  12.938
47611W        W12596  31.021  32.858   0.292
47612W        W12597  26.678  17.187   4.337
47613W        W12598  28.977  34.845   1.330
47614W        W12599   4.678   4.701  11.678
47615W        W12600  34.378  36.083   0.094
47616W        W12601  19.215  17.193  13.362
47617W        W12602  21.260  28.642  11.196
47618W        W12603  16.290  11.145   2.329
47619W        W12604  14.684  22.940  11.190
47620W        W12605  22.425  36.899  12.470
47621W        W12606  29.833  41.429   0.192
47622W        W12607   4.212   4.285  13.361
47623W        W12608  30.091  33.123  13.482
47624W        W12609  36.099  40.130   0.426
47625W        W12610  15.918  20.052  14.571
47626W        W12611  17.178  15.835  14.579
47627W        W12612  12.444  23.186   3.714
47628W        W12613  42.478   0.956  11.628
47629W        W12614  12.648  35.281   1.330
47630W        W12615   3.316  31.602   4.884
47631W        W12616  30.942  39.311   4.145
47632W        W12617  10.883  39.682  11.401
47633W        W12618   8.101   6.151   0.954
47634W        W12619  30.818  11.156  10.267
47635W        W12620   4.306  43.408   0.730
47636W        W12621  43.764  25.192  14.386
47637W        W12622  38.070  17.288  14.443
47638W        W12623  17.260   8.238  13.977
47639W        W12624  15.343  30.914  12.392
47640W        W12625  41.575  43.200   3.658
47641W        W12626  39.059  16.099  10.616
47642W        W12627  10.162   8.792  12.164
47643W        W12628  31.274  41.319   0.439
47644W        W12629  22.686  33.057  12.532
47645W        W12630  21.042  12.625  14.329
47646W        W12631  43.426  21.066  11.425
47647W        W12632  21.574  30.086   3.891
47648W        W12633  24.591  15.051   0.568
47649W        W12634  37.302  15.734   3.663
47650W        W12635  35.800  27.040   4.380
47651W        W12636  39.806  40.313  14.300
47652W        W12637  13.449  15.141  11.731
47653W        W12638  26.081  44.772   2.248
47654W        W12639  23.476  11.274   3.092
47655W        W12640   3.207   7.693  11.649
47656W        W12641  43.941  32.728   3.946
47657W        W12642  25.300  28.968   4.541
47658W        W12643  17.591   1.001   1.707
47659W        W12644  35.845  17.362  11.090
47660W        W12645  35.080  16.545  11.901
47661W        W12646   1.222  29.508  11.780
47662W        W12647   4.254  28.927   0.886
47663W        W12648  39.291  10.745  11.778
47664W        W12649  29.534  28.673   3.218
47665W        W12650  43.318  39.754  13.225
47666W        W12651  37.065   5.797   2.288
47667W        W12652  10.625   6.203   1.329
47668W        W12653  27.231  39.967   2.740
47669W        W12654   7.969  14.993  12.070
47670W        W12655  13.368  20.107   0.199
47671W        W12656  38.621  26.534   2.293
47672W        W12657  25.274  15.088   2.267
47673W        W12658  18.735   6.233  13.428
47674W        W12659  34.822  11.821   4.267
47675W        W12660  41.884  43.905   3.915
47676W        W12661   7.933  26.128   3.708
47677W        W12662  32.418   9.783   2.236
47678W        W12663  22.860  18.783  12.600
47679W        W12664   9.813  14.263   2.654
47680W        W12665   5.640  15.091  14.484
47681W        W12666   2.326  32.602  13.008
47682W        W12667  30.937   2.101   5.026
47683W        W12668  10.799  41.609   3.119
47684W        W12669  30.624   8.060  12.136
47685W        W12670  14.937   0.358  14.293
47686W        W12671  38.472  25.133   0.873
47687W        W12672  26.271  40.073  10.845
47688W        W12673   5.156   7.281   3.183
47689W        W12674  41.875  21.130  14.394
47690W        W12675  15.344   2.260  13.554
47691W        W12676  11.872  13.907   1.856
47692W        W12677  26.439  44.958   9.737
47693W        W12678  32.847  25.477   0.773
47694W        W12679  12.607  32.444   4.122
47695W        W12680  20.258  10.701  10.753
47696W        W12681  28.003   5.138  10.723
47697W        W12682   9.749   0.462   1.167
47698W        W12683  22.111  30.579   4.228
47699W        W12684  39.984   1.012  13.751
47700W        W12685  23.714  12.619  13.881
47701W        W12686  41.820  10.983  14.076
47702W        W12687  41.487  31.424  11.579
47703W        W12688   7.692   4.922  13.143
47704W        W12689  42.527  36.348  10.007
47705W        W12690  35.772  38.840   3.790
47706W        W12691  30.154   1.505  14.441
47707W        W12692  10.722  22.190   1.440
47708W        W12693  36.822  40.998  10.834
47709W        W12694  26.763   4.952  13.406
47710W        W12695  28.228  10.745  14.996
47711W        W12696  22.735   0.684  10.363
47712W        W12697   3.879  43.855  12.523
47713W        W12698  25.591  36.864  13.382
47714W        W12699  28.473   7.252   0.880
47715W        W12700   7.157  27.937  12.094
47716W        W12701  35.879  23.264  14.851
47717W        W12702  14.822  44.560   1.396
47718W        W12703  44.256  39.106  11.979
47719W        W12704  17.627  27.028   4.598
47720W        W12705  31.396   8.287  12.691
47721W        W12706   9.489  40.465   3.404
47722W        W12707  41.123  38.474  13.860
47723W        W12708  37.739   5.367   1.276
47724W        W12709  18.544  14.277   3.207
47725W        W12710  38.584  35.582   1.202
47726W        W12711  21.504  39.606  12.592
47727W        W12712  18.757  17.278  14.596
47728W        W12713   5.578  31.235  11.892
47729W        W12714  25.987  44.313   3.370
47730W        W12715   7.233   8.932   2.434
47731W        W12716   8.403  10.252   4.993
47732W        W12717   5.419  10.891   0.787
47733W        W12718  26.959  28.016   0.851
47734W        W12719  19.272   7.453  14.538
47735W        W12720  27.949   0.457   1.365
47736W        W12721  11.017  35.526   1.907
47737W        W12722  43.409  13.542   4.870
47738W        W12723   3.226  25.107  10.314
47739W        W12724  36.966  19.085  13.612
47740W        W12725  21.291  14.107  12.373
47741W        W12726  22.254  19.983  10.548
47742W        W12727  13.707   1.960   1.895
47743W        W12728  15.336  11.914   4.711
47744W        W12729  16.346  35.307   1.471
47745W        W12730   1.507  44.534   1.066
47746W        W12731   0.838  31.293   3.297
47747W        W12732  18.093  18.570   4.320
47748W        W12733  38.518  24.606   4.536
47749W        W12734   5.223  29.891  13.096
47750W        W12735  31.452  30.021   1.309
47751W        W12736  16.455  12.728  10.987
47752W        W12737  27.898   6.166   0.244
47753W        W12738  25.643  22.247   0.217
47754W        W12739   2.019   8.758  14.670
47755W        W12740  30.683   4.298  14.324
47756W        W12741  32.978   0.842   0.717
47757W        W12742  12.724  32.860   4.427
47758W        W12743  11.786  37.779   4.530
47759W        W12744  13.549  24.006   3.607
47760W        W12745  30.730  32.667  12.835
47761W        W12746  33.452   7.068  14.708
47762W        W12747  31.596   3.900  14.705
47763W        W12748  21.974  41.759  11.835
47764W        W12749  17.576   1.383   4.258
47765W        W12750  18.564   7.807   0.454
47766W        W12751   8.430   8.024  10.293
47767W        W12752  34.867  34.698  14.751
47768W        W12753  44.337  10.108   0.283
47769W        W12754  35.056  37.188  14.256
47770W        W12755  31.003  28.404  11.157
47771W        W12756  18.111   0.974   1.599
47772W        W12757  26.454  32.473   2.718
47773W        W12758  30.504  36.360   0.884
47774W        W12759   8.923  42.412  12.542
47775W        W12760  21.399   5.981   0.918
47776W        W12761  44.729  17.779  10.246
47777W        W12762   3.801   6.624   3.649
47778W        W12763  35.596  41.348   1.857
47779W        W12764   7.216  35.407  12.186
47780W        W12765   8.868  21.783  11.222
47781W        W12766  28.851   9.025   2.101
47782W        W12767  35.646  24.218  12.414
47783W        W12768  37.777  36.814   1.763
47784W        W12769  26.193   0.389  10.207
47785W        W12770  27.296  42.890  12.527
47786W        W12771  44.435  14.670  13.672
47787W        W12772  38.635   3.800   0.385
47788W        W12773  36.081  23.075   0.401
47789W        W12774  35.870   8.227   1.557
47790W        W12775   9.330   6.465   2.665
47791W        W12776   0.020  30.957   4.406
47792W        W12777  18.001   2.852   3.413
47793W        W12778  30.393   1.979  11.621
47794W        W12779  13.869  41.009  14.947
47795W        W12780  11.888  41.486   0.468
47796W        W12781  37.849  12.515   4.056
47797W        W12782   2.222  28.937   4.178
47798W        W12783  22.061  41.594   1.841
47799W        W12784   2.881  27.630   4.126
47800W        W12785  22.579  35.083   3.422
47801W        W12786  22.890  42.267  13.365
47802W        W12787   8.316   1.366  10.599
47803W        W12788  26.564  43.749   3.258
47804W        W12789  36.878  24.615   3.721
47805W        W12790  36.403  41.533   3.139
47806W        W12791  36.891  43.443   4.221
47807W        W12792  10.218  19.063  11.575
47808W        W12793  15.550  10.592   4.989
47809W        W12794  11.276   1.910   3.200
47810W        W12795  41.064  28.662  12.061
47811W        W12796  30.083  21.291   3.805
47812W        W12797   8.823  27.664  11.183
47813W        W12798  27.997   6.888   5.124
47814W        W12799  18.232  40.359  11.025
47815W        W12800  25.293  33.931   2.370
47816W        W12801  14.315  29.645   4.196
47817W        W12802  31.975  39.443  12.161
47818W        W12803  26.960  16.097   1.422
47819W        W12804  43.547  39.296  13.344
47820W        W12805  35.074  18.141  11.143
47821W        W12806  27.010   1.815   0.281
47822W        W12807   9.296  20.297   4.293
47823W        W12808  20.579   0.831  14.868
47824W        W12809  40.110  39.493   5.114
47825W        W12810  27.851   3.818   2.894
47826W        W12811  43.521  24.982  13.024
47827W        W12812   4.970  20.092   3.241
47828W        W12813  13.302   6.416   4.593
47829W        W12814  23.502   7.615   2.371
47830W        W12815  12.520  29.558  14.018
47831W        W12816   4.382  11.628  13.829
47832W        W12817  19.292  34.390   3.311
47833W        W12818  17.611  31.199  11.460
47834W        W12819  33.737  44.832  14.216
47835W        W12820  19.666  38.107  13.142
47836W        W12821  12.333  16.037   0.576
47837W        W12822  29.879  26.024  11.683
47838W        W12823   9.744  12.682  10.747
47839W        W12824  33.435   6.264  10.391
47840W        W12825  28.733  18.354   4.595
47841W        W12826  44.901  29.870   0.215
47842W        W12827  37.364   9.221   2.762
47843W        W12828  44.800  32.335   0.818
47844W        W12829  40.310  34.359   1.356
47845W        W12830  30.152  11.208   3.718
47846W        W12831  26.061  15.128   3.085
47847W        W12832  41.811  15.501   4.134
47848W        W12833  36.472  23.013   2.844
47849W        W12834  19.546  11.022   3.955
47850W        W12835  13.354   9.207   1.681
47851W        W12836  30.057   5.197  10.418
47852W        W12837  30.918  37.562   4.418
47853W        W12838   8.607  36.090  10.718
47854W        W12839  43.335  37.795  14.493
47855W        W12840  19.570   7.884  13.839
47856W        W12841  24.957  37.536  14.774
47857W        W12842  28.657  28.833  11.153
47858W        W12843   7.355  18.073   2.280
47859W        W12844   0.496  24.229  11.165
47860W        W12845  16.800  10.426  12.085
47861W        W12846  34.244   6.895  11.166
47862W        W12847  32.895   0.333  12.767
47863W        W12848  43.533  41.535  14.047
47864W        W12849  33.413  14.163  10.729
47865W        W12850  19.689  11.420  13.916
47866W        W12851   0.947  15.221  11.087
47867W        W12852  11.426  25.996   1.714
47868W        W12853  29.728  24.398  12.368
47869W        W12854  18.440  30.977   3.157
47870W        W12855   4.876  40.768  12.580
47871W        W12856  39.160  33.639  10.400
47872W        W12857   6.534  13.934   2.695
47873W        W12858  27.680  10.906   1.382
47874W        W12859  19.383  25.330   2.112
47875W        W12860  23.302   4.469   2.068
47876W        W12861  10.808  17.669   3.586
47877W        W12862  44.172  10.165   4.696
47878W        W12863  18.857  20.155  13.794
47879W        W12864   1.471  20.411   3.532
47880W        W12865  19.046  38.469   4.981
47881W        W12866  38.053  23.526   0.351
47882W        W12867  34.851  39.467   4.738
47883W        W12868  41.620   4.109   3.657
47884W        W12869  15.789  34.462   4.139
47885W        W12870  19.371  28.365  10.556
47886W        W12871  16.297  15.914   1.872
47887W        W12872   1.694  29.469  14.443
47888W        W12873  25.109  42.002   1.646
47889W        W12874  28.257  44.315   1.901
47890W        W12875  15.003  32.241   2.319
47891W        W12876  36.130  14.073   2.094
47892W        W12877  31.488  43.510  14.793
47893W        W12878  30.529   4.452  10.927
47894W        W12879  37.073  31.058   0.407
47895W        W12880   8.496  26.585   4.075
47896W        W12881  15.982  12.776  12.293
47897W        W12882  44.589  23.046  12.796
47898W        W12883  14.714  29.278   2.730
47899W        W12884  14.277  27.600   2.334
47900W        W12885  11.154  22.713  13.003
47901W        W12886  31.116  26.638  11.682
47902W        W12887  23.721  15.046  14.084
47903W        W12888   4.436  25.750  10.844
47904W        W12889  44.754   6.938   1.864
47905W        W12890  17.013  41.048  14.415
47906W        W12891  20.099  29.030   0.668
47907W        W12892  27.068  19.645   3.576
47908W        W12893  17.606  17.658  13.420
47909W        W12894   9.613  26.630  13.857
47910W        W12895   3.806  27.664  11.875
47911W        W12896  25.261  10.831  10.946
47912W        W12897  44.263  30.929   1.048
47913W        W12898  43.343  12.314  11.132
47914W        W12899  29.121  37.212  13.675
47915W        W12900  22.658  12.030   2.287
47916W        W12901   6.265   8.375  13.940
47917W        W12902   4.140   1.814   4.132
47918W        W12903  20.178  22.218  12.952
47919W        W12904  27.034  35.290   0.803
47920W        W12905  22.648   8.999  13.982
47921W        W12906   7.266  20.305   3.717
47922W        W12907  27.254  42.293   2.234
47923W        W12908  23.072  24.940  11.629
47924W        W12909   1.523  10.166   1.449
47925W        W12910   2.609  22.948   1.460
47926W        W12911   0.275  27.349   0.943
47927W        W12912   9.257  16.696   4.228
47928W        W12913   8.247  29.205  14.968
47929W        W12914  32.663  12.277   1.766
47930W        W12915   9.815  37.290  11.125
47931W        W12916  30.010   8.134   0.051
47932W        W12917  41.257  26.191   2.051
47933W        W12918   8.189  17.162  14.471
47934W        W12919  36.500   9.556   5.040
47935W        W12920  40.234  21.408   1.843
47936W        W12921   1.831  38.255   3.342
47937W        W12922  18.806  24.703   1.795
47938W        W12923  21.816   3.649  14.959
47939W        W12924  24.157   2.195  14.337
47940W        W12925  13.185  21.251  13.465
47941W        W12926  31.984  43.487  14.978
47942W        W12927  25.005  16.831   2.887
47943W        W12928  17.827  39.187  10.642
47944W        W12929   7.728   6.118   1.578
47945W        W12930   8.080  21.538   2.779
47946W        W12931  34.914  40.244  12.092
47947W        W12932   7.633   1.652   4.126
47948W        W12933  32.898  31.972   1.243
47949W        W12934  30.168  30.631  11.650
47950W        W12935  28.629   0.480  12.864
47951W        W12936   7.750  24.056  11.551
47952W        W12937  17.616   9.623  12.112
47953W        W12938  35.430  25.546   4.066
47954W        W12939   6.616  20.748   4.192
47955W        W12940  12.298  27.760  14.402
47956W        W12941  29.943  10.316   4.109
47957W        W12942   5.613  11.204   4.708
47958W        W12943  25.890  34.894  12.139
47959W        W12944  19.756  21.669   0.486
47960W        W12945  43.951  12.792   2.260
47961W        W12946  17.686  23.986  12.001
47962W        W12947   2.833  21.771   4.513
47963W        W12948  40.195  10.241   0.837
47964W        W12949  28.146  38.912  11.854
47965W        W12950   3.934  39.593  14.737
47966W        W12951  22.564  22.685  14.944
47967W        W12952  17.000  41.330  13.949
47968W        W12953  39.760  44.171  10.708
47969W        W12954  43.868  38.190  13.996
47970W        W12955  40.581  11.294  14.160
47971W        W12956  27.734   2.921  12.073
47972W        W12957  22.343  41.912   0.714
47973W        W12958   8.797  18.027   1.475
47974W        W12959   4.753   5.568  11.956
47975W        W12960  41.885  30.014   3.738
47976W        W12961  26.826   4.635  14.252
47977W        W12962   2.865  34.279  12.661
47978W        W12963  33.427  16.209  12.253
47979W        W12964  12.253   1.230   0.584
47980W        W12965  36.821  19.159   1.813
47981W        W12966  15.883  42.577   0.908
47982W        W12967  19.618  31.553   4.767
47983W        W12968   4.238  43.701  11.159
47984W        W12969   7.924   1.453   3.141
47985W        W12970  39.772  38.412  13.925
47986W        W12971  20.598  42.587   4.671
47987W        W12972  19.194  15.586  13.319
47988W        W12973  42.309   2.708  13.481
47989W        W12974   8.173  42.157  12.930
47990W        W12975  20.521   4.295   3.256
47991W        W12976  31.991  16.387   3.593
47992W        W12977  13.389  12.654  13.968
47993W        W12978  17.388   0.282  11.998
47994W        W12979  39.324  19.137   1.747
47995W        W12980   1.932   0.295   0.109
47996W        W12981  43.194  35.739   3.481
47997W        W12982  35.901  41.439  12.185
47998W        W12983  34.501  40.543   4.740
47999W        W12984  36.242  31.945  10.617
48000W        W12985  32.528  13.056  13.852
48001W        W12986  13.661  18.384  13.361
48002W        W12987  40.830  39.460  13.650
48003W        W12988  26.359  29.244   0.320
48004W        W12989  13.667   6.384  12.888
48005W        W12990   4.346  34.539   2.394
48006W        W12991  35.218  39.719   3.564
48007W        W12992   6.999  12.043  12.974
48008W        W12993  22.115  26.738  10.949
48009W        W12994  30.980  16.822   1.620
48010W        W12995  36.157   7.943   2.688
48011W        W12996  33.140   1.860  14.134
48012W        W12997  28.213  22.318  12.638
48013W        W12998  23.488  37.209   1.525
48014W        W12999   4.981  26.214  14.456
48015W        W13000  32.869  29.421  13.732
48016W        W13001  10.309  31.734   0.833
48017W        W13002  36.660  38.593  13.557
48018W        W13003  23.067   0.855   1.358
48019W        W13004   9.500  15.775   3.635
48020W        W13005  20.709  12.305   2.812
48021W        W13006  30.258  15.747  14.301
48022W        W13007  14.582   1.261   9.909
48023W        W13008  19.662   7.764   4.095
48024W        W13009  11.890  27.378   0.954
48025W        W13010   7.220  31.002  12.474
48026W        W13011  35.071  17.359  14.042
48027W        W13012  32.931   4.536   3.320
48028W        W13013  32.623  32.684  10.470
48029W        W13014  41.386   2.240  13.495
48030W        W13015  35.467  12.808  12.075
48031W        W13016  27.405  11.444   1.369
48032W        W13017   7.029  35.311   4.120
48033W        W13018  18.832  29.976   2.759
48034W        W13019  20.221  23.525   3.642
48035W        W13020  39.817  17.200   0.274
48036W        W13021  10.750  14.262  14.136
48037W        W13022  32.371  27.756   1.967
48038W        W13023  40.499  39.628   0.093
48039W        W13024  12.581  27.017  10.239
48040W        W13025  31.486   7.292  10.378
48041W        W13026  27.186  27.978  11.207
48042W        W13027  17.195   2.014  10.581
48043W        W13028   9.202  26.510   4.856
48044W        W13029  39.659  43.351  14.951
48045W        W13030  41.113  14.816   5.130
48046W        W13031   6.073  11.738   1.909
48047W        W13032  24.068  35.313   0.184
48048W        W13033   5.875  20.832   0.331
48049W        W13034   9.796  30.621  14.261
48050W        W13035  12.396  13.810   1.469
48051W        W13036  23.152  39.583   4.979
48052W        W13037  21.001  23.639   2.278
48053W        W13038   3.047   3.934   3.175
48054W        W13039  26.675   0.996  11.564
48055W        W13040  39.158  17.510   0.282
48056W        W13041  35.822  40.871  10.402
48057W        W13042  29.530  30.697   2.230
48058W        W13043  43.725  40.447   3.561
48059W        W13044  22.773   5.769  10.817
48060W        W13045   1.363  31.649  12.530
48061W        W13046  41.429  15.202   5.115
48062W        W13047  28.612  40.100   3.675
48063W        W13048  26.852  26.866  11.169
48064W        W13049   1.367   8.382  14.011
48065W        W13050  11.084  29.426   0.164
48066W        W13051  35.953   9.908   1.855
48067W        W13052  17.038  27.950  14.356
48068W        W13053  18.564  27.485  13.923
48069W        W13054  21.664  38.388   1.525
48070W        W13055  32.894   7.954   1.350
48071W        W13056  44.750  35.094  11.057
48072W        W13057   7.960  40.312  13.503
48073W        W13058  23.620  18.763   1.172
48074W        W13059  14.536   4.124   3.111
48075W        W13060   7.100  33.150  11.127
48076W        W13061  28.648  29.319  10.981
48077W        W13062  29.903  30.227   2.552
48078W        W13063   5.675  21.091  11.539
48079W        W13064  42.966  42.587   3.148
48080W        W13065  19.524  20.157   4.077
48081W        W13066   7.967   5.882  12.019
48082W        W13067  32.134  39.979   1.148
48083W        W13068  32.981   3.720  10.721
48084W        W13069  44.149  30.481  14.471
48085W        W13070   3.048  24.079   4.498
48086W        W13071  18.957  23.651   4.990
48087W        W13072  32.985  37.358  11.252
48088W        W13073  43.552  35.001   2.841
48089W        W13074   9.363  26.058  12.674
48090W        W13075  43.387  41.998   1.861
48091W        W13076  32.905  27.529   4.592
48092W        W13077  27.536  33.177   4.400
48093W        W13078  13.327   9.053  12.358
48094W        W13079  11.664   0.479   2.651
48095W        W13080  12.297  21.038  13.324
48096W        W13081  41.045  39.459  14.531
48097W        W13082   0.994   2.925  13.362
48098W        W13083  41.600  29.959  14.504
48099W        W13084  15.086   5.303  12.113
48100W        W13085  43.336   7.649  12.438
48101W        W13086  20.381  14.412   2.664
48102W        W13087  39.293  29.511   3.815
48103W        W13088  34.868  14.593   1.275
48104W        W13089   8.210   0.823  14.479
48105W        W13090  14.058  32.479  12.436
48106W        W13091  26.501  39.320   4.115
48107W        W13092  29.333  10.727   3.777
48108W        W13093   5.795   1.172   1.599
48109W        W13094  34.960  33.912  11.093
48110W        W13095  25.021  27.345   0.300
48111W        W13096  24.593  21.054   3.234
48112W        W13097  34.455  33.634   2.582
48113W        W13098  25.780   0.004  14.478
48114W        W13099  42.105   9.247   1.118
48115W        W13100  38.976  15.641   1.808
48116W        W13101   7.878  11.838   2.325
48117W        W13102   6.928  23.594   3.974
48118W        W13103  40.466  41.272  13.501
48119W        W13104  38.916  22.344  10.534
48120W        W13105   5.020  43.883   3.877
48121W        W13106  34.101  37.267   0.927
48122W        W13107  35.296  25.196   2.288
48123W        W13108   5.944  32.517  10.705
48124W        W13109  10.743  34.763  12.051
48125W        W13110  28.646  39.265  13.484
48126W        W13111  17.535   6.403   3.245
48127W        W13112  28.418  10.037   2.720
48128W        W13113   5.915  13.331  13.499
48129W        W13114  34.503  18.674   3.689
48130W        W13115  23.998  39.904   5.125
48131W        W13116  18.160  17.142   4.255
48132W        W13117  39.392  29.055   2.098
48133W        W13118  44.497   5.833   3.122
48134W        W13119  13.257  24.235  13.540
48135W        W13120  35.824  12.162  10.487
48136W        W13121  32.332  25.443   0.803
48137W        W13122   2.892  34.650  11.993
48138W        W13123   1.991  18.287  12.441
48139W        W13124  23.166  25.518  13.898
48140W        W13125  17.805  15.924   0.495
48141W        W13126  25.161  18.497   4.225
48142W        W13127   2.875  24.304  13.751
48143W        W13128   2.426  40.886  13.513
48144W        W13129   5.260   0.996  14.353
48145W        W13130  21.051  29.017  12.884
48146W        W13131  11.008   6.322   5.120
48147W        W13132  23.701  43.282   0.927
48148W        W13133  32.998  12.040   4.293
48149W        W13134  33.473   4.352  11.824
48150W        W13135   3.328  42.971   0.947
48151W        W13136  26.148   8.492   2.343
48152W        W13137  25.278  10.749   3.903
48153W        W13138  39.518   0.821   4.549
48154W        W13139  19.308  25.179   1.487
48155W        W13140  30.010   5.385  14.944
48156W        W13141  36.584  44.278  12.005
48157W        W13142  23.541  20.541   5.076
48158W        W13143  32.457  31.079   3.629
48159W        W13144  33.969  44.322  11.103
48160W        W13145  27.506  17.988  14.106
48161W        W13146   0.707  36.097  14.297
48162W        W13147  40.077  44.503   2.393
48163W        W13148   3.903  18.075   2.944
48164W        W13149  30.557  26.463  12.085
48165W        W13150  23.172  33.120  12.373
48166W        W13151  17.653   0.575   3.783
48167W        W13152  26.588  11.338   3.627
48168W        W13153   6.384  27.224  11.221
48169W        W13154  43.721  14.720  13.014
48170W        W13155   5.803   0.619   3.320
48171W        W13156   0.746  25.268   4.192
48172W        W13157  32.164  38.467  10.090
48173W        W13158  19.752  43.707   1.401
48174W        W13159  18.029  36.592  13.931
48175W        W13160  36.018  42.339   2.283
48176W        W13161   2.725  21.046  12.409
48177W        W13162  18.150  39.929  11.729
48178W        W13163  27.800  35.359  11.136
48179W        W13164  18.148  39.379   0.831
48180W        W13165   5.665  18.221  12.467
48181W        W13166  27.450  37.496   0.501
48182W        W13167  23.709  38.533   4.446
48183W        W13168  26.602  11.979   4.316
48184W        W13169  43.069  36.623   4.036
48185W        W13170  27.506  37.922  10.546
48186W        W13171  22.543   0.323   1.681
48187W        W13172  36.967  17.334   1.525
48188W        W13173  17.598  25.407   3.799
48189W        W13174  38.901  43.366   2.256
48190W        W13175   6.675  34.806   2.640
48191W        W13176  29.420  30.531   1.715
48192W        W13177  23.681  12.301   3.808
48193W        W13178  39.632   1.006   4.064
48194W        W13179   2.140  20.862  10.231
48195W        W13180  38.505  44.768   4.598
48196W        W13181  37.325   0.649   0.997
48197W        W13182  28.447  16.085  10.414
48198W        W13183  40.920  42.390   4.581
48199W        W13184  28.198   4.661   3.126
48200W        W13185  32.617  11.592   3.843
48201W        W13186  12.556  44.295   1.881
48202W        W13187   5.311  15.595  13.983
48203W        W13188  16.272  20.702  12.856
48204W        W13189   4.285  38.427  11.703
48205W        W13190  25.432   8.957  10.809
48206W        W13191  20.767  27.398  11.529
48207W        W13192  27.976  10.318  12.572
48208W        W13193   1.726  32.563  11.465
48209W        W13194  10.685  40.125  11.587
48210W        W13195  28.208  29.097  11.149
48211W        W13196  12.165   1.718   0.682
48212W        W13197  31.531  32.425   4.323
48213W        W13198  39.139  29.494  12.068
48214W        W13199   4.119  26.020   0.807
48215W        W13200   1.737  25.463   3.155
48216W        W13201  34.175   6.368   1.749
48217W        W13202  38.635  29.787  12.857
48218W        W13203  37.430  26.419  14.719
48219W        W13204  28.621  42.500  12.786
48220W        W13205   4.203  17.552  14.585
48221W        W13206   4.443  31.355   2.001
48222W        W13207  31.069  41.742  13.549
48223W        W13208  24.533  32.061   2.317
48224W        W13209  41.852  36.901  14.445
48225W        W13210  37.001   3.625   4.617
48226W        W13211  26.609  11.544   2.281
48227W        W13212   9.281  31.237  12.555
48228W        W13213  18.980  29.799   1.708
48229W        W13214  16.129  30.021   2.268
48230W        W13215   7.204  13.199   2.388
48231W        W13216  19.133  16.654   5.059
48232W        W13217  10.296  41.641   3.242
48233W        W13218  22.481  35.456   2.120
48234W        W13219  19.205  18.191   2.748
48235W        W13220  17.470  32.094  10.979
48236W        W13221  35.898  16.293  13.741
48237W        W13222   0.963  28.490   1.987
48238W        W13223  33.523   1.018   5.439
48239W        W13224  23.558  24.485   4.092
48240W        W13225  16.513  17.527   3.224
48241W        W13226  44.591  27.273  14.822
48242W        W13227  17.722  11.677   4.199
48243W        W13228  19.100   2.317   2.140
48244W        W13229  31.066  19.952   0.057
48245W        W13230  31.443  12.346  10.495
48246W        W13231  43.615  23.428   3.561
48247W        W13232  33.527  28.468   4.407
48248W        W13233  40.785  33.378  13.404
48249W        W13234  18.117  17.953  12.248
48250W        W13235  12.552  27.056  14.278
48251W        W13236   1.938  43.761   0.919
48252W        W13237   1.447  37.202   3.872
48253W        W13238  19.314  18.781  11.938
48254W        W13239  33.432  38.909   2.661
48255W        W13240  21.878  11.082   0.852
48256W        W13241  29.244  28.718  12.579
48257W        W13242  14.332  42.333   2.334
48258W        W13243  36.511  38.447   4.952
48259W        W13244  24.749   6.820  14.847
48260W        W13245   2.268  15.062   0.297
48261W        W13246  18.251  11.815   2.008
48262W        W13247  27.983   6.826  14.354
48263W        W13248  27.630  18.986  11.155
48264W        W13249   2.314   3.020   2.350
48265W        W13250   9.028  12.771   4.899
48266W        W13251  27.858  32.675   1.816
48267W        W13252  28.122   7.170  13.792
48268W        W13253   8.814  29.543   1.229
48269W        W13254  26.979   3.796  14.830
48270W        W13255   9.742  12.451   1.159
48271W        W13256  12.659  10.703  11.979
48272W        W13257  29.082  18.710  14.583
48273W        W13258  28.179  28.459  14.794
48274W        W13259  20.253  34.321   2.286
48275W        W13260  34.942  37.327  11.972
48276W        W13261  32.690  43.838  13.023
48277W        W13262  35.395  10.152   1.170
48278W        W13263  11.678  34.102  13.848
48279W        W13264  32.677  36.908  11.932
48280W        W13265  35.099  40.331  14.333
48281W        W13266   9.948   6.320  10.612
48282W        W13267  40.593  36.601  13.038
48283W        W13268  25.899   4.334  11.057
48284W        W13269  17.530  26.157  13.385
48285W        W13270   4.781  42.397   2.934
48286W        W13271  30.813  30.506   1.752
48287W        W13272  10.087  18.770   0.853
48288W        W13273   3.446  16.159   4.806
48289W        W13274   2.913  22.696  11.044
48290W        W13275  31.336   9.923   0.353
48291W        W13276  15.194  32.500   1.914
48292W        W13277  20.583   8.744   3.683
48293W        W13278  36.843  42.129  10.786
48294W        W13279  30.116  35.996  10.968
48295W        W13280  42.892  44.079  13.421
48296W        W13281  15.886  30.084   0.525
48297W        W13282  44.582  19.137  14.840
48298W        W13283  35.004  12.424   2.741
48299W        W13284  16.851   2.236   3.055
48300W        W13285  39.918  42.455   4.639
48301W        W13286  34.019  18.606   3.875
48302W        W13287  42.456  32.556   4.586
48303W        W13288  43.599   8.798   2.871
48304W        W13289  29.582  10.297  14.741
48305W        W13290  10.135  12.810   1.190
48306W        W13291  22.379  15.750   4.876
48307W        W13292  22.060  19.307   3.938
48308W        W13293   2.708  39.629   0.489
48309W        W13294  11.834   9.855  12.630
48310W        W13295  24.140  32.017   4.622
48311W        W13296  17.791  36.013  13.395
48312W        W13297  19.681  25.975  11.033
48313W        W13298  16.466  26.428  11.601
48314W        W13299  10.960   0.774   4.901
48315W        W13300  30.927   2.959   2.869
48316W        W13301  22.639  24.461   4.178
48317W        W13302  40.369  43.919   0.495
48318W        W13303  36.482  28.707   2.257
48319W        W13304   2.813  44.673   1.359
48320W        W13305  31.549  26.598  11.335
48321W        W13306  21.652  25.451  12.365
48322W        W13307  15.658  10.388  13.764
48323W        W13308  11.003  12.296  14.280
48324W        W13309   2.914  26.761  10.673
48325W        W13310  29.606  13.460  10.623
48326W        W13311  35.494  17.566  14.913
48327W        W13312  16.560  13.641  12.410
48328W        W13313  35.863   6.609  11.378
48329W        W13314  25.669  13.123   4.739
48330W        W13315  15.651  20.452  13.403
48331W        W13316  12.607  42.332  13.826
48332W        W13317  40.537  33.498   4.459
48333W        W13318   7.245  24.026   4.137
48334W        W13319   5.035  21.753   2.951
48335W        W13320  41.570  14.636  14.938
48336W        W13321  29.006  16.338  11.986
48337W        W13322  23.220  24.325   1.279
48338W        W13323  44.405   4.698   2.365
48339W        W13324   8.703  22.802   3.698
48340W        W13325  27.941  32.580   2.816
48341W        W13326   7.177   1.439  11.283
48342W        W13327  39.759  28.287  12.213
48343W        W13328   9.211  12.931  13.422
48344W        W13329  16.859   5.292  12.926
48345W        W13330  40.008  26.955   4.466
48346W        W13331  15.799   1.778   2.506
48347W        W13332   3.132   6.194   0.286
48348W        W13333  12.127  19.114   1.218
48349W        W13334  12.679  33.412  10.646
48350W        W13335  22.438  14.650  14.080
48351W        W13336  11.843  23.320   4.512
48352W        W13337  33.113  26.034  13.066
48353W        W13338  11.702  28.393   0.930
48354W        W13339  43.294  16.535  14.289
48355W        W13340  38.754  38.894   0.889
48356W        W13341  20.866  39.578   0.303
48357W        W13342  36.866  20.675   0.752
48358W        W13343  34.679   6.336  13.329
48359W        W13344  19.279  39.188  12.373
48360W        W13345  20.144  44.663   2.204
48361W        W13346  17.085  10.096  14.087
48362W        W13347   6.963  27.850   2.817
48363W        W13348  27.153  20.551   4.531
48364W        W13349   8.877  44.695   1.294
48365W        W13350  24.478   8.343   0.772
48366W        W13351  16.256  16.768   0.014
48367W        W13352   2.933  24.670   0.885
48368W        W13353  40.886   2.946   0.307
48369W        W13354  44.790  42.057  11.660
48370W        W13355   7.350  33.363  11.653
48371W        W13356   3.793   1.529   1.769
48372W        W13357   8.807  14.760  12.544
48373W        W13358  44.245  20.789   1.409
48374W        W13359  40.850  39.556  12.545
48375W        W13360  20.102   8.999   4.576
48376W        W13361  30.637  11.325  14.479
48377W        W13362  24.203  10.420  11.552
48378W        W13363  31.841  15.059   0.066
48379W        W13364  12.612  32.325   0.755
48380W        W13365   3.863  43.806   3.820
48381W        W13366  44.429  34.265  12.569
48382W        W13367  38.163  25.773  10.223
48383W        W13368   5.332  26.539  10.437
48384W        W13369  19.608  28.101  11.672
48385W        W13370   2.666   1.233   2.618
48386W        W13371  19.101  41.460   3.473
48387W        W13372  30.213   4.249  14.539
48388W        W13373  16.777  41.526   4.909
48389W        W13374  27.056  32.152  14.425
48390W        W13375  39.825  27.165  12.859
48391W        W13376   4.229  39.816  11.950
48392W        W13377  16.485  33.774   1.714
48393W        W13378  16.261   3.339   5.304
48394W        W13379  43.803   9.405   1.911
48395W        W13380   5.309  10.270   4.553
48396W        W13381   7.197  22.524   0.132
48397W        W13382   4.418  25.496   1.257
48398W        W13383  37.837   6.259  10.546
48399W        W13384  10.009  43.249   2.367
48400W        W13385  40.841  18.284   2.671
48401W        W13386  27.948  26.827  12.319
48402W        W13387  16.642  13.345  14.349
48403W        W13388  44.695  24.450  11.086
48404W        W13389  30.645  19.594   0.747
48405W        W13390  39.871   2.269  13.893
48406W        W13391  17.058  14.350   2.839
48407W        W13392  32.132  16.658  12.903
48408W        W13393  20.265   7.398  13.419
48409W        W13394  23.501  13.733  10.842
48410W        W13395   4.246  24.929   3.424
48411W        W13396  42.529  27.162   2.361
48412W        W13397  24.291   6.899  13.635
48413W        W13398   6.101  34.593   3.526
48414W        W13399   3.004   9.150   4.132
48415W        W13400  19.016   7.698  13.020
48416W        W13401  18.248  15.039  10.742
48417W        W13402  43.777  17.519  10.328
48418W        W13403   3.222   8.352   0.287
48419W        W13404  40.639   3.706   2.802
48420W        W13405   3.917  25.638  10.894
48421W        W13406  17.210  26.160  14.820
48422W        W13407  35.602  30.995  12.281
48423W        W13408   1.747   3.847   2.626
48424W        W13409  12.301   7.893   3.114
48425W        W13410   6.193  18.721   3.689
48426W        W13411  33.829  15.496  11.229
48427W        W13412  32.103  18.015  12.857
48428W        W13413  19.543   1.784  12.060
48429W        W13414   5.487  23.038  12.387
48430W        W13415  29.639  41.334  13.865
48431W        W13416  15.742  26.577   3.621
48432W        W13417   2.859  41.952   0.580
48433W        W13418   3.166   0.848  11.288
48434W        W13419  42.371  38.749   4.665
48435W        W13420   6.871   3.584   0.932
48436W        W13421  10.248  39.323  14.795
48437W        W13422  34.547  32.110  13.888
48438W        W13423  38.987  19.352   0.968
48439W        W13424  14.167  44.524   4.084
48440W        W13425  25.130  42.855  14.330
48441W        W13426  21.136  30.987  14.864
48442W        W13427   2.957   1.929   1.021
48443W        W13428  40.918   5.842  12.510
48444W        W13429  10.968  42.096  14.555
48445W        W13430  37.080  35.072   2.771
48446W        W13431   6.877  33.623   4.009
48447W        W13432  15.289   9.128   2.191
48448W        W13433  35.124   9.800   4.381
48449W        W13434  25.969  14.155   2.180
48450W        W13435  40.918  14.451  11.490
48451W        W13436  27.754  42.437   2.367
48452W        W13437  33.854  16.214   4.004
48453W        W13438   1.621  11.130   0.537
48454W        W13439  13.229   2.817   2.079
48455W        W13440  43.505  16.808   2.160
48456W        W13441  29.692  39.268  13.364
48457W        W13442  38.451  38.989  10.595
48458W        W13443  42.670  40.491   0.013
48459W        W13444  15.224   1.512   4.880
48460W        W13445  21.454  43.449  13.115
48461W        W13446  11.097   9.236   3.201
48462W        W13447   7.615  11.221   2.281
48463W        W13448  21.632   3.786   3.975
48464W        W13449  29.174   2.825  12.029
48465W        W13450  18.680  37.893  14.191
48466W        W13451  36.784  25.811  13.684
48467W        W13452   8.725  18.234   1.016
48468W        W13453  22.325  24.574   0.970
48469W        W13454  13.358  37.408  13.757
48470W        W13455   4.157  23.695  12.946
48471W        W13456  19.638   0.024   4.679
48472W        W13457  30.478  12.577   1.033
48473W        W13458  23.372   0.386  10.667
48474W        W13459  34.027  43.286   3.797
48475W        W13460  26.028  29.418  13.729
48476W        W13461   7.901  11.279  12.982
48477W        W13462   2.013  16.589   2.317
48478W        W13463   8.529  43.092   1.870
48479W        W13464  21.975  39.143  13.963
48480W        W13465  38.523   1.794  13.866
48481W        W13466   8.267  17.710  12.999
48482W        W13467   5.873  22.548  13.297
48483W        W13468  40.904  44.374   3.255
48484W        W13469  25.420   4.946  12.077
48485W        W13470  34.901  31.866   3.908
48486W        W13471  44.256  28.278   3.231
48487W        W13472   8.086  29.149   3.530
48488W        W13473  37.453   4.394  11.492
48489W        W13474  15.247  42.719  13.759
48490W        W13475   6.361  27.727   0.733
48491W        W13476  42.007  31.504  14.413
48492W        W13477   3.407   7.988   3.951
48493W        W13478  17.831  38.600  10.625
48494W        W13479   0.759   3.726   3.605
48495W        W13480  21.023  21.586  12.473
48496W        W13481  12.991   4.912   0.728
48497W        W13482  16.249   8.840   4.895
48498W        W13483  37.593  44.702   1.185
48499W        W13484  34.627  40.790   1.647
48500W        W13485  24.215  24.720   2.134
48501W        W13486  37.456  11.558  12.530
48502W        W13487   0.767  16.796  13.549
48503W        W13488  23.723  26.097  12.414
48504W        W13489  43.932  25.995   2.315
48505W        W13490  31.180  38.512   5.294
48506W        W13491   0.041  19.652   2.290
48507W        W13492   1.229  40.194   0.459
48508W        W13493  31.302  33.011   3.242
48509W        W13494  12.833  35.844   3.187
48510W        W13495  26.699   1.953   0.696
48511W        W13496  24.299   1.736   1.438
48512W        W13497  27.397  34.323   1.145
48513W        W13498   1.944  22.567   4.624
48514W        W13499   7.491  22.525   2.191
48515W        W13500  23.775  43.100  12.040
48516W        W13501  29.179   9.329  11.581
48517W        W13502  40.855  25.532  14.884
48518W        W13503  20.688  24.332   4.200
48519W        W13504  33.924  33.121  12.173
48520W        W13505  11.411  31.797   2.044
48521W        W13506  44.452  12.660   3.625
48522W        W13507  44.529  23.149  11.909
48523W        W13508  20.852   2.997  14.840
48524W        W13509  43.937   3.605   3.515
48525W        W13510  26.724  13.746   4.740
48526W        W13511   2.428   7.179  11.933
48527W        W13512   1.818  21.866   3.351
48528W        W13513  37.623  10.291   2.764
48529W        W13514  34.963  20.495   3.822
48530W        W13515  36.118  28.473  10.702
48531W        W13516  41.103  32.231   0.811
48532W        W13517  33.122   3.446   2.326
48533W        W13518  43.543  34.112  14.681
48534W        W13519  21.761  23.989   0.277
48535W        W13520   6.670   3.798  12.569
48536W        W13521   7.013  18.567  14.694
48537W        W13522   8.238   4.224  11.641
48538W        W13523   8.762  42.722   0.438
48539W        W13524   1.013   0.364   4.432
48540W        W13525  33.877  26.882   1.258
48541W        W13526   3.427  25.693  14.868
48542W        W13527  34.946  12.225  10.143
48543W        W13528  25.393   6.565   3.638
48544W        W13529  32.472  30.679   4.560
48545W        W13530   8.491  28.485  14.065
48546W        W13531  29.490  16.566   2.119
48547W        W13532  10.391   6.455  11.153
48548W        W13533   9.490  12.166  10.632
48549W        W13534  26.467  25.187   2.676
48550W        W13535  10.784   7.510   1.722
48551W        W13536  35.826   6.390   0.273
48552W        W13537  42.225  13.138   4.069
48553W        W13538  14.534  18.963  10.690
48554W        W13539  42.324  19.694   4.108
48555W        W13540  23.680  13.656  12.578
48556W        W13541  16.080  17.486   1.446
48557W        W13542  39.759  14.174   3.274
48558W        W13543  27.955  26.409   0.838
48559W        W13544  43.828  38.159  10.721
48560W        W13545  37.648  40.752  10.723
48561W        W13546   6.088  30.937   0.880
48562W        W13547  34.751  39.849  13.440
48563W        W13548  40.220  29.635  12.059
48564W        W13549  39.316  38.112   1.367
48565W        W13550  34.596  33.406  12.893
48566W        W13551  40.920   7.959   2.371
48567W        W13552  10.678  30.578  14.504
48568W        W13553  31.695  10.151   2.261
48569W        W13554   2.222  27.059   1.359
48570W        W13555  10.711  14.052   4.455
48571W        W13556  40.238  20.745  11.623
48572W        W13557  14.097  23.530   1.405
48573W        W13558  22.067  17.257   3.434
48574W        W13559  18.853   6.865   4.461
48575W        W13560   0.684  23.579  12.824
48576W        W13561  11.700  12.008   0.872
48577W        W13562   9.190   9.325   1.875
48578W        W13563   7.017  19.159   0.045
48579W        W13564  13.661  34.541   4.207
48580W        W13565  20.219   4.921   3.682
48581W        W13566  35.639  23.791   1.231
48582W        W13567  26.619  17.123   3.833
48583W        W13568  35.794   3.950   3.428
48584W        W13569  25.582  25.101   0.452
48585W        W13570   7.853  18.204   3.290
48586W        W13571  37.335  22.427   3.601
48587W        W13572  17.991  25.020   4.071
48588W        W13573  15.531  28.513   3.647
48589W        W13574  29.502  29.582  10.269
48590W        W13575  34.464  19.442  13.216
48591W        W13576  40.366   5.072   4.140
48592W        W13577   7.716  26.042   1.477
48593W        W13578  25.459  31.973   0.006
48594W        W13579  38.268  40.402  13.018
48595W        W13580  25.028   7.349  10.582
48596W        W13581  25.681  20.049   3.780
48597W        W13582  27.477  35.795  11.167
48598W        W13583  21.627   3.789   3.463
48599W        W13584  32.177  35.327  11.404
48600W        W13585  21.249  21.105   2.386
48601W        W13586  18.634  28.165  11.989
48602W        W13587  23.869  43.001  14.110
48603W        W13588  10.606  22.750  13.037
48604W        W13589   2.783   3.189   2.221
48605W        W13590   0.186  41.431   1.922
48606W        W13591  31.371  10.820  14.320
48607W        W13592   6.911  18.199  14.353
48608W        W13593  34.446  32.728   1.748
48609W        W13594  37.669   0.411   3.096
48610W        W13595  41.807  38.450  10.601
48611W        W13596   1.816  23.259  11.596
48612W        W13597  41.388  33.119  13.579
48613W        W13598  31.653  14.033  11.151
48614W        W13599   3.790  37.246   1.915
48615W        W13600   5.201  25.412   1.234
48616W        W13601  25.164  10.784  10.443
48617W        W13602  25.694  19.077  14.519
48618W        W13603  20.122  33.588  10.811
48619W        W13604  40.961  11.889  14.757
48620W        W13605  32.175  32.786   2.162
48621W        W13606  17.860  38.381   1.344
48622W        W13607   8.804  29.025  12.617
48623W        W13608   0.060  22.706   1.273
48624W        W13609   5.711   2.350  12.199
48625W        W13610   4.852   1.719   3.377
48626W        W13611   0.341  40.883  11.155
48627W        W13612  12.856  35.797   4.307
48628W        W13613  25.607  14.604   1.900
48629W        W13614  42.983  16.140  13.763
48630W        W13615   1.518  37.845  13.566
48631W        W13616  25.490  26.388  11.108
48632W        W13617  38.381   7.180   3.279
48633W        W13618   6.940  26.972  13.871
48634W        W13619   9.351  24.525   1.164
48635W        W13620  16.060  15.452   4.020
48636W        W13621  23.173  13.046   0.974
48637W        W13622  35.165  33.510   1.756
48638W        W13623   4.900  28.938   2.424
48639W        W13624   0.903  29.793  10.920
48640W        W13625  18.953  15.373   0.547
48641W        W13626  40.959   8.786  12.723
48642W        W13627   6.987   6.205  14.965
48643W        W13628  21.454  19.274   0.343
48644W        W13629  35.913   4.207  11.941
48645W        W13630  35.356  38.353  13.022
48646W        W13631  12.541  31.020   4.043
48647W        W13632   9.352   9.233   4.566
48648W        W13633   9.435  23.166  12.053
48649W        W13634  35.062  26.072  10.693
48650W        W13635  30.337  32.437   5.456
48651W        W13636  25.991  26.110  11.255
48652W        W13637  30.897  12.260  13.153
48653W        W13638  38.531  20.965  10.617
48654W        W13639  44.254  34.108   2.337
48655W        W13640  34.092  10.425   3.675
48656W        W13641  40.512   4.907   4.824
48657W        W13642  33.844   8.730  13.118
48658W        W13643  26.463  38.594   2.741
48659W        W13644  31.439   3.522  14.347
48660W        W13645   1.698  31.540   1.607
48661W        W13646  17.243  43.883  11.927
48662W        W13647  15.141  38.356   1.927
48663W        W13648  35.103  37.772  11.117
48664W        W13649  16.737   3.180   2.721
48665W        W13650   1.367  44.506   0.010
48666W        W13651  15.855  27.013   2.488
48667W        W13652  43.846   2.778  14.777
48668W        W13653  42.957   1.577  14.330
48669W        W13654  34.897  23.864  14.058
48670W        W13655  28.896  23.546   4.528
48671W        W13656  19.618  23.874   0.489
48672W        W13657  34.354  35.440  13.863
48673W        W13658  34.579   1.696   2.682
48674W        W13659  12.928  26.311   2.722
48675W        W13660  27.407  19.530  12.941
48676W        W13661   5.445  32.120  11.485
48677W        W13662  28.405  35.384   2.829
48678W        W13663  38.525  31.871  10.727
48679W        W13664  23.455  22.311  14.501
48680W        W13665  34.501   3.817   1.833
48681W        W13666  18.923  32.366  11.125
48682W        W13667  12.709   9.688  10.694
48683W        W13668  31.858  25.351  14.016
48684W        W13669  32.912  44.690  13.593
48685W        W13670  43.888  43.655   1.488
48686W        W13671  33.013   4.568  14.379
48687W        W13672  43.539  11.331   1.874
48688W        W13673  44.032  32.577   1.835
48689W        W13674  29.759  26.651  10.762
48690W        W13675  26.315   3.386   0.246
48691W        W13676   5.894  35.854   4.191
48692W        W13677  25.742  17.839   0.898
48693W        W13678  14.982  34.486   3.721
48694W        W13679   9.283  42.722   1.425
48695W        W13680   9.596  19.713   1.819
48696W        W13681   1.931  37.581  12.158
48697W        W13682  19.544   4.647   1.118
48698W        W13683  38.122  13.260   2.840
48699W        W13684  33.100  28.966   3.782
48700W        W13685  27.673  38.862  13.849
48701W        W13686  15.826   4.064   5.532
48702W        W13687  38.099  20.764   3.063
48703W        W13688  27.725  36.685   3.782
48704W        W13689   3.038  26.512   1.392
48705W        W13690  24.068  15.363   4.101
48706W        W13691   4.255  41.893  12.372
48707W        W13692  39.321  44.857  11.545
48708W        W13693  17.284  30.565  11.938
48709W        W13694  25.570  42.452  12.917
48710W        W13695  20.138  39.779   0.688
48711W        W13696  17.224  39.523   3.692
48712W        W13697  41.721   9.763   2.002
48713W        W13698  13.240  37.542   2.139
48714W        W13699   3.403   5.645   0.969
48715W        W13700  13.900  29.577  12.895
48716W        W13701  18.348   1.331   3.779
48717W        W13702   6.319  22.451  12.505
48718W        W13703   1.465   8.483   2.818
48719W        W13704  33.621  19.553  14.102
48720W        W13705  25.654  38.111   1.834
48721W        W13706  42.679  29.401   2.448
48722W        W13707  31.738   1.889  12.429
48723W        W13708  41.134  12.160   4.366
48724W        W13709  26.320  28.561   5.254
48725W        W13710  16.823  18.188  14.866
48726W        W13711  41.516  38.275   3.468
48727W        W13712  23.453  26.701  13.458
48728W        W13713  40.772  31.387   0.068
48729W        W13714   5.356  23.986  11.202
48730W        W13715   7.639  40.509  11.277
48731W        W13716  10.273  44.965   0.456
48732W        W13717  29.072   8.304   4.331
48733W        W13718  27.594   0.279  11.593
48734W        W13719  12.159   2.327   4.219
48735W        W13720  34.875  15.853  10.348
48736W        W13721  10.446   7.545  12.262
48737W        W13722  26.479  24.289   2.718
48738W        W13723   6.431   9.324   1.681
48739W        W13724  12.619  16.943   1.539
48740W        W13725  42.615   6.757  10.976
48741W        W13726  19.165  16.188  10.747
48742W        W13727  38.976  36.290  13.399
48743W        W13728  38.246  36.020   4.803
48744W        W13729  38.471   9.873  11.067
48745W        W13730  37.043   8.590  11.972
48746W        W13731  12.691  29.964  11.976
48747W        W13732  27.459  26.723   1.922
48748W        W13733   3.738   1.724  10.810
48749W        W13734  29.125   5.979  14.943
48750W        W13735   4.061  13.003  12.696
48751W        W13736  22.202   9.202  11.219
48752W        W13737  32.373  12.409  14.873
48753W        W13738  12.190  22.058   3.244
48754W        W13739  12.061  44.369   0.331
48755W        W13740  33.599  17.595  14.900
48756W        W13741  35.652  15.854   1.810
48757W        W13742  28.699  10.345   4.529
48758W        W13743   5.373  27.201   2.461
48759W        W13744  19.320   6.767  12.200
48760W        W13745  37.998  31.109  11.449
48761W        W13746  36.948  21.657  11.653
48762W        W13747  19.777  16.806  11.962
48763W        W13748  37.102  17.698   0.152
48764W        W13749  35.891   3.209   1.816
48765W        W13750  22.373  42.430  14.972
48766W        W13751  34.943  34.295  11.436
48767W        W13752  21.133  43.742   1.178
48768W        W13753  26.689  23.249  13.417
48769W        W13754  17.619  24.013   0.008
48770W        W13755  32.889  24.726  12.968
48771W        W13756  26.764  33.417   3.649
48772W        W13757  34.997  42.975   1.774
48773W        W13758   3.852  11.196   2.402
48774W        W13759  25.544  10.622  14.900
48775W        W13760   1.404  12.090  11.588
48776W        W13761  14.719  36.540  12.555
48777W        W13762  14.889  22.734   4.249
48778W        W13763   7.308   7.914   2.269
48779W        W13764  11.107  28.615   1.947
48780W        W13765  37.328  26.120  11.411
48781W        W13766  42.166  23.066  11.593
48782W        W13767  29.597  25.707   3.850
48783W        W13768  19.883  13.402   2.658
48784W        W13769   8.122  20.184  10.683
48785W        W13770  33.139  14.751   4.312
48786W        W13771  39.089   6.146   4.240
48787W        W13772   1.330  29.540   4.581
48788W        W13773  37.993  25.903  13.188
48789W        W13774  13.710   8.689   3.654
48790W        W13775  14.828   0.859  11.979
48791W        W13776  20.731   7.529   1.527
48792W        W13777  18.556  38.913  10.404
48793W        W13778  27.538  42.763  13.742
48794W        W13779   9.215  30.593   3.658
48795W        W13780   1.137  14.855   3.577
48796W        W13781   6.867  44.550   0.421
48797W        W13782  38.912  10.431   4.616
48798W        W13783  40.699  10.128   2.227
48799W        W13784  16.755  37.090  14.830
48800W        W13785  44.923   3.636   0.004
48801W        W13786   7.825  39.120   1.922
48802W        W13787  24.228  42.982  10.531
48803W        W13788   1.468   5.809   4.531
48804W        W13789  10.147  28.470  12.379
48805W        W13790  35.956  25.878  13.401
48806W        W13791  41.947  40.190  13.755
48807W        W13792  18.285  21.233  12.294
48808W        W13793  35.102   7.397   3.261
48809W        W13794  35.872  12.640  12.367
48810W        W13795   2.103  20.849  14.523
48811W        W13796  39.465  39.621   1.000
48812W        W13797  18.344   7.066   3.647
48813W        W13798  13.143  18.851   2.857
48814W        W13799   8.519  20.809   1.035
48815W        W13800  18.930   9.266  14.933
48816W        W13801   4.456  39.615  14.620
48817W        W13802  38.565  30.141  14.562
48818W        W13803  22.385  34.475   1.358
48819W        W13804   7.917  15.260  13.661
48820W        W13805  24.966  42.565  10.713
48821W        W13806   1.199   3.864  14.425
48822W        W13807  10.610  19.206  12.307
48823W        W13808  41.757  41.116  10.864
48824W        W13809  23.522  16.884   4.614
48825W        W13810  43.500  27.745   1.073
48826W        W13811  12.945  42.846   4.872
48827W        W13812  36.746  38.581   1.208
48828W        W13813  13.863  24.136   1.399
48829W        W13814  13.331  31.446  11.334
48830W        W13815  14.780  18.117  13.947
48831W        W13816  26.763  31.914   4.944
48832W        W13817  37.556  25.048   1.719
48833W        W13818  36.352  23.495  10.884
48834W        W13819   1.288  17.888   3.476
48835W        W13820  18.280  16.347  12.166
48836W        W13821  10.185  18.201  14.971
48837W        W13822  37.837  25.876   4.765
48838W        W13823  43.241   5.824  12.471
48839W        W13824  12.183  39.182   1.814
48840W        W13825  33.494  11.379  12.883
48841W        W13826  23.486   4.742  14.848
48842W        W13827  40.477   7.258   0.351
48843W        W13828  23.159  28.104   3.307
48844W        W13829  10.976  17.155  10.708
48845W        W13830  21.856  23.481  11.276
48846W        W13831  31.438   6.217   4.574
48847W        W13832   7.764  35.874   2.315
48848W        W13833  31.982   5.764   1.408
48849W        W13834   7.426   5.502  14.332
48850W        W13835  40.506  16.493  12.956
48851W        W13836  11.677   8.575  14.439
48852W        W13837  42.077  21.115   0.989
48853W        W13838  16.127   0.378  10.712
48854W        W13839  37.819  16.374   4.080
48855W        W13840   6.827  36.305  14.965
48856W        W13841  27.989   7.414  12.902
48857W        W13842   4.247  24.630  12.964
48858W        W13843   3.451  32.117  14.430
48859W        W13844  30.339  25.732   0.756
48860W        W13845  23.740  27.041   3.878
48861W        W13846  30.117  44.172   3.570
48862W        W13847  12.148  35.629   4.103
48863W        W13848  22.991  43.975   0.760
48864W        W13849   2.234  13.651   3.697
48865W        W13850  19.302  28.535   2.691
48866W        W13851  10.230  20.484   4.568
48867W        W13852   3.326  16.782   2.745
48868W        W13853   2.763  26.181  14.539
48869W        W13854  31.700   3.976  11.100
48870W        W13855   7.215  25.515  12.999
48871W        W13856  26.177  28.424   2.472
48872W        W13857  27.036   0.207  13.108
48873W        W13858   1.130  40.550  13.380
48874W        W13859   3.401  44.939   3.686
48875W        W13860  28.539  14.239  10.694
48876W        W13861   7.820  17.184  13.438
48877W        W13862  36.846  17.104  13.883
48878W        W13863  36.317  32.620  11.650
48879W        W13864  16.794  38.897   2.494
48880W        W13865  33.036  30.614   4.188
48881W        W13866   3.086  25.529   3.300
48882W        W13867  31.222  10.551   0.320
48883W        W13868  41.196  10.222   0.833
48884W        W13869  25.547  41.205   3.562
48885W        W13870  12.553  41.483   1.672
48886W        W13871  34.403  33.921  12.052
48887W        W13872  14.875  10.670   0.771
48888W        W13873  17.754  18.679  11.494
48889W        W13874  15.732  35.840   1.901
48890W        W13875  15.102  38.865  11.033
48891W        W13876   0.784  43.458   4.097
48892W        W13877   3.039  18.734  12.462
48893W        W13878  12.244  31.514  14.521
48894W        W13879  20.842  29.407   0.880
48895W        W13880  29.425  16.290   2.918
48896W        W13881  10.804  13.974  11.010
48897W        W13882   0.065   5.803  13.091
48898W        W13883  36.113  19.098  11.639
48899W        W13884  31.980  18.176  14.322
48900W        W13885   6.316  35.518   0.714
48901W        W13886  40.405   2.049   3.237
48902W        W13887  32.085   8.165  11.545
48903W        W13888  29.204  19.003   1.095
48904W        W13889   9.731  32.528   3.694
48905W        W13890  11.609  43.518  12.981
48906W        W13891  18.764   0.495   1.493
48907W        W13892  22.220  25.071   0.873
48908W        W13893  37.513  37.612  11.246
48909W        W13894   6.049   9.834  14.266
48910W        W13895  23.661   8.857  11.296
48911W        W13896  28.741  16.221   0.858
48912W        W13897  42.653  39.347   0.403
48913W        W13898  14.336  33.401  12.467
48914W        W13899   0.534  39.756   3.583
48915W        W13900  40.936  32.870  13.523
48916W        W13901  24.568  15.370  13.536
48917W        W13902   9.115  11.340   3.862
48918W        W13903  41.444  10.947   1.706
48919W        W13904   7.595  32.582  13.540
48920W        W13905  11.260  39.557  12.897
48921W        W13906  43.455  43.370  13.484
48922W        W13907  39.008   6.085   4.749
48923W        W13908   4.359  11.126  14.712
48924W        W13909  11.068  36.750   4.230
48925W        W13910  27.016   8.326   0.974
48926W        W13911  19.530  28.971  14.458
48927W        W13912  16.350   1.326  10.698
48928W        W13913  24.891  28.348   4.037
48929W        W13914  12.667  36.626   0.231
48930W        W13915  42.936   9.878   0.821
48931W        W13916  44.950  18.077   3.021
48932W        W13917   6.255  32.588  11.800
48933W        W13918   3.857  29.177  13.275
48934W        W13919  23.562  40.352  11.533
48935W        W13920  36.980  15.664  13.460
48936W        W13921  40.472   9.569   4.134
48937W        W13922  16.212  41.844  11.962
48938W        W13923  39.111  43.405  14.941
48939W        W13924   0.007  14.114   3.601
48940W        W13925  22.971  43.340   3.163
48941W        W13926  23.150  36.953   3.500
48942W        W13927  27.407  26.214   1.869
48943W        W13928  33.149  19.772  12.511
48944W        W13929  21.684  39.323   2.738
48945W        W13930   8.840  16.239  11.384
48946W        W13931  13.856  18.712   2.331
48947W        W13932   1.479  44.358   3.056
48948W        W13933   3.891   7.168   1.399
48949W        W13934  44.083   4.694   0.954
48950W        W13935  16.103  20.472   4.672
48951W        W13936  11.572  43.239   0.712
48952W        W13937  15.677  19.061   0.774
48953W        W13938  29.281   9.834  14.487
48954W        W13939   1.389  43.337   1.741
48955W        W13940  20.003  25.898   2.276
48956W        W13941  34.339   0.447   3.542
48957W        W13942   0.790  16.344   3.317
48958W        W13943   7.199  19.927   4.043
48959W        W13944  32.456  32.396   3.069
48960W        W13945  21.087  29.871  11.949
48961W        W13946  14.236  21.066  13.959
48962W        W13947  11.323  31.678  10.879
48963W        W13948  18.696  24.868  12.033
48964W        W13949  36.160  39.386   0.949
48965W        W13950  17.867  40.068   4.082
48966W        W13951  29.140  26.635   2.703
48967W        W13952  30.599   4.627   2.259
48968W        W13953  19.344  37.424  11.359
48969W        W13954  35.951  14.011   3.717
48970W        W13955  21.666  12.834   1.831
48971W        W13956  11.540  40.045   2.314
48972W        W13957  21.101   6.192  13.934
48973W        W13958  40.272  19.422  12.430
48974W        W13959   0.950  25.122   3.744
48975W        W13960  30.585  44.087  13.358
48976W        W13961  34.576  30.874  14.924
48977W        W13962  32.040  13.723  13.804
48978W        W13963  10.872  29.064   1.836
48979W        W13964   8.011  36.959  11.813
48980W        W13965  22.492   7.718  10.983
48981W        W13966  44.471  30.128   3.675
48982W        W13967  10.230   3.259  10.681
48983W        W13968  11.546  44.239  11.176
48984W        W13969  29.040  35.283  10.719
48985W        W13970  33.173  35.391   4.069
48986W        W13971   8.416   8.676  14.516
48987W        W13972  26.752   9.731   9.772
48988W        W13973  18.330  14.220   0.550
48989W        W13974  18.998  14.693  14.384
48990W        W13975   1.165   1.423   2.690
48991W        W13976  13.263   1.764   1.200
48992W        W13977  12.038  38.389  14.911
48993W        W13978  32.944   1.267  14.777
48994W        W13979  29.818  22.216   0.974
48995W        W13980   5.366  43.815  10.915
48996W        W13981  20.433  11.163   0.578
48997W        W13982  43.817  43.453  11.412
48998W        W13983  13.720  34.030  12.194
48999W        W13984  21.284  28.115  12.614
49000W        W13985  23.556  42.060   1.333
49001W        W13986  35.074  32.778   5.048
49002W        W13987  39.877  14.564   0.696
49003W        W13988  41.725  29.604  12.957
49004W        W13989  24.925  11.028   2.795
49005W        W13990  19.991   9.993  11.279
49006W        W13991  37.480  23.766   1.236
49007W        W13992  26.924  33.248   9.964
49008W        W13993   9.951   2.968  11.046
49009W        W13994  13.267   0.087  13.338
49010W        W13995  36.969   9.806   2.151
49011W        W13996  14.894  29.404   0.747
49012W        W13997  13.101  26.530  13.393
49013W        W13998  10.386  36.645  11.243
49014W        W13999  40.184  44.886   1.831
49015W        W14000  35.094  44.967   2.017
49016W        W14001  15.757  23.605  14.875
49017W        W14002  42.465  39.773   3.787
49018W        W14003   8.502  41.860   0.128
49019W        W14004  11.726  25.092   1.905
49020W        W14005  32.845  43.684  11.082
49021W        W14006  21.314  24.162   3.259
49022W        W14007  10.111  32.216   0.837
49023W        W14008  38.269  35.440   5.038
49024W        W14009  20.152  24.178   4.875
49025W        W14010   7.983   5.906  10.580
49026W        W14011  13.837  37.125   3.265
49027W        W14012  40.850  30.138   3.282
49028W        W14013   9.394  22.077   2.842
49029W        W14014  10.694  15.348  11.491
49030W        W14015  44.215  16.266   2.755
49031W        W14016  36.863  15.723  12.024
49032W        W14017  44.118  41.595   2.627
49033W        W14018  41.794  34.114  12.879
49034W        W14019   6.238  40.002   1.983
49035W        W14020  41.735  15.222   9.837
49036W        W14021  18.805  38.847  11.232
49037W        W14022  16.586  22.689  10.219
49038W        W14023  43.003  14.788  12.563
49039W        W14024   2.616  41.480  12.145
49040W        W14025  31.369   4.654   2.742
49041W        W14026  38.956  19.109  14.733
49042W        W14027   7.128   6.800   1.641
49043W        W14028  39.765  21.279  13.901
49044W        W14029  19.184  14.496  13.953
49045W        W14030  37.493  26.966  14.695
49046W        W14031   5.747   4.392   3.655
49047W        W14032  15.601  18.329   4.349
49048W        W14033  23.898  43.981  13.630
49049W        W14034  24.701  21.730  13.456
49050W        W14035  21.220  27.469   3.760
49051W        W14036   3.949  34.528   4.218
49052W        W14037  37.375  38.328  14.012
49053W        W14038  24.587  40.105   2.480
49054W        W14039   2.431   1.986  13.499
49055W        W14040   5.207  10.735  11.051
49056W        W14041  18.682  18.622   0.455
49057W        W14042  31.347  34.535  13.781
49058W        W14043  20.618  16.723   3.383
49059W        W14044  40.530  13.692  10.604
49060W        W14045  19.173  32.843   3.306
49061W        W14046   6.920  23.640   1.423
49062W        W14047  22.053   2.505   2.849
49063W        W14048   1.523  37.356  13.253
49064W        W14049  32.468  19.751   0.562
49065W        W14050  36.170  16.707   1.879
49066W        W14051   6.630  12.735   0.434
49067W        W14052   8.212  44.724   2.697
49068W        W14053   2.699  37.311   0.191
49069W        W14054  42.960   2.010  12.443
49070W        W14055  12.425  38.453   1.452
49071W        W14056  44.319  26.404  13.449
49072W        W14057  30.634  27.679  11.845
49073W        W14058   0.963  19.186   0.528
49074W        W14059  42.530  11.154  10.620
49075W        W14060  19.237  22.283   0.593
49076W        W14061  40.034  20.451  12.575
49077W        W14062  20.020  13.970  11.483
49078W        W14063  35.973  22.589   0.245
49079W        W14064  25.391  44.065   0.887
49080W        W14065  24.757  15.423  11.004
49081W        W14066  32.899   9.227  12.978
49082W        W14067  26.912  24.764   0.805
49083W        W14068  27.531   5.307   5.047
49084W        W14069  41.748   9.634   3.381
49085W        W14070  21.216   8.157   0.441
49086W        W14071  22.483  21.843  10.456
49087W        W14072  43.513   1.846  14.958
49088W        W14073  23.667  13.900   1.764
49089W        W14074  12.173  23.455   1.160
49090W        W14075  23.221  44.819   0.664
49091W        W14076  18.210  11.732   2.887
49092W        W14077  11.184  16.608  14.341
49093W        W14078  25.503  21.268   4.792
49094W        W14079  12.197  41.366   4.607
49095W        W14080  15.314  34.125   1.630
49096W        W14081  17.696   0.260   0.543
49097W        W14082  40.748  24.574  11.258
49098W        W14083  18.276   1.896  10.716
49099W        W14084   7.680  25.216  14.784
49100W        W14085   5.887  24.303   1.461
49101W        W14086  11.366   4.767   4.782
49102W        W14087  22.264   9.189   0.360
49103W        W14088   7.926  16.516   4.395
49104W        W14089  22.499   8.742   0.382
49105W        W14090  12.228  20.536  14.213
49106W        W14091  30.047  40.912  11.657
49107W        W14092  26.136   2.817  14.506
49108W        W14093  14.799  31.441  11.665
49109W        W14094   2.231   9.363   4.591
49110W        W14095  27.425   0.807   2.273
49111W        W14096  17.577  23.548   0.919
49112W        W14097   2.211  42.390  10.703
49113W        W14098  28.619  38.781   0.410
49114W        W14099  14.226   6.377   2.900
49115W        W14100  23.472  43.346  11.612
49116W        W14101  40.785  18.804   2.742
49117W        W14102  33.354   0.964  14.824
49118W        W14103  12.313  16.012   2.951
49119W        W14104  36.608  30.731  11.592
49120W        W14105  21.898  15.970   3.243
49121W        W14106  14.200   0.701  14.865
49122W        W14107  38.509  37.858  12.543
49123W        W14108  21.029  29.218  14.935
49124W        W14109  34.852  27.182  13.370
49125W        W14110  20.121   7.028   9.759
49126W        W14111  28.114  35.302   0.927
49127W        W14112  20.615  39.512  13.172
49128W        W14113  20.938  27.050   4.659
49129W        W14114   3.732  43.949  12.047
49130W        W14115  43.066  40.726  11.115
49131W        W14116  24.728  10.863  10.735
49132W        W14117   1.428  41.477  11.930
49133W        W14118  16.792   2.956   1.636
49134W        W14119  19.104   5.211  13.066
49135W        W14120  14.883   9.695  13.039
49136W        W14121  15.802  24.984   1.958
49137W        W14122  38.956   3.357   3.652
49138W        W14123  33.430  29.263   1.182
49139W        W14124  19.715  28.164  10.930
49140W        W14125  11.556  25.116  11.136
49141W        W14126  13.687  10.171  13.786
49142W        W14127   1.873   5.698  10.763
49143W        W14128   1.779  35.075   4.155
49144W        W14129  28.731  26.111  12.262
49145W        W14130  26.737   6.831  11.613
49146W        W14131  33.107  34.549  12.594
49147W        W14132   1.697   5.231   0.927
49148W        W14133  37.534   1.033   4.049
49149W        W14134   3.975  22.503  11.571
49150W        W14135  28.767  17.175   2.792
49151W        W14136  14.013  34.453  14.829
49152W        W14137   2.904  19.596   1.433
49153W        W14138  28.557  19.723  14.826
49154W        W14139   0.678  28.111   0.756
49155W        W14140  20.249  41.230  10.823
49156W        W14141  28.577  13.100   0.908
49157W        W14142  12.892  22.763  12.643
49158W        W14143  24.157  34.409   2.712
49159W        W14144   6.074  37.567   1.380
49160W        W14145  41.744   6.492   2.607
49161W        W14146  20.374  19.644  10.738
49162W        W14147  19.263  22.028  11.485
49163W        W14148  43.473  29.692   0.682
49164W        W14149  22.002  34.618   2.961
49165W        W14150  10.423  21.165   1.055
49166W        W14151  18.546  37.583   4.983
49167W        W14152  35.566   6.644  13.802
49168W        W14153  19.673   3.451  12.939
49169W        W14154  36.394  27.331  11.066
49170W        W14155   4.446   8.821  10.674
49171W        W14156   0.332  18.289  11.338
49172W        W14157   9.765  33.235   4.853
49173W        W14158   6.354  21.679   3.758
49174W        W14159  29.368  44.966  13.136
49175W        W14160  15.798  33.941  14.831
49176W        W14161  12.128  14.043  11.553
49177W        W14162   2.475   0.839   3.955
49178W        W14163  28.949  24.290  13.983
49179W        W14164   7.692  24.233   4.285
49180W        W14165  33.923  32.575   1.674
49181W        W14166  27.312  13.317   1.151
49182W        W14167  24.077  41.456  14.782
49183W        W14168   3.967   9.329  11.079
49184W        W14169   3.467  37.993  11.967
49185W        W14170  35.799  44.612   3.230
49186W        W14171  24.561  15.278   0.062
49187W        W14172  23.276  39.647  12.994
49188W        W14173  19.175   8.215  13.682
49189W        W14174  12.628  41.280  11.537
49190W        W14175   8.822  43.436  14.247
49191W        W14176  17.165   1.426   1.042
49192W        W14177  40.474  21.235  11.482
49193W        W14178  39.743   2.895   2.802
49194W        W14179  16.111  35.587   4.605
49195W        W14180   4.866  34.840   3.272
49196W        W14181   3.327   2.356  13.910
49197W        W14182  30.350  26.279   4.072
49198W        W14183  29.451   6.347  10.304
49199W        W14184  38.115  10.992  12.986
49200W        W14185  20.132  38.916  11.452
49201W        W14186  38.417  21.675   0.819
49202W        W14187  43.535  23.073  12.922
49203W        W14188  26.505  14.377  10.730
49204W        W14189  22.123  42.754   4.059
49205W        W14190  25.553  22.673  11.183
49206W        W14191  40.055  12.605  11.105
49207W        W14192  39.992  31.958  13.424
49208W        W14193  29.171  12.762  12.404
49209W        W14194   6.261  30.906  13.018
49210W        W14195   5.430  18.700  12.518
49211W        W14196  16.353  32.015  12.576
49212W        W14197  27.852  31.945  11.592
49213W        W14198  42.477  26.673  11.680
49214W        W14199  38.846  10.587  12.600
49215W        W14200   0.395  17.981   0.821
49216W        W14201  32.740  41.081  13.059
49217W        W14202  32.068  40.846   4.812
49218W        W14203  12.697   0.348   2.835
49219W        W14204  38.641  12.595  10.687
49220W        W14205  16.794   2.481  12.509
49221W        W14206   4.941  28.464   3.154
49222W        W14207  14.978  41.242   4.685
49223W        W14208  19.694  25.064   3.581
49224W        W14209  14.967  19.233   0.319
49225W        W14210  25.471   9.565  13.042
49226W        W14211  28.891  33.912   0.361
49227W        W14212   1.326  12.563   2.420
49228W        W14213  43.543  39.561  13.801
49229W        W14214  43.245   2.925   4.800
49230W        W14215   6.362  36.394  11.678
49231W        W14216  14.787  29.944  12.068
49232W        W14217  36.489  31.887  12.821
49233W        W14218  26.765  33.248   4.634
49234W        W14219  40.429  22.778   3.319
49235W        W14220  25.614  41.181  14.974
49236W        W14221  18.855  23.511   3.420
49237W        W14222  35.295   0.789   4.154
49238W        W14223   0.323  26.166  14.560
49239W        W14224   3.799  37.568   3.262
49240W        W14225  29.059  44.190   4.648
49241W        W14226  11.681   6.404  12.265
49242W        W14227  37.999  28.252   2.818
49243W        W14228  10.519  43.841   4.400
49244W        W14229  12.433  29.417   3.710
49245W        W14230  28.735  21.145  11.058
49246W        W14231  29.186  39.827  14.040
49247W        W14232   1.806  28.416   0.768
49248W        W14233  19.757  26.336   4.787
49249W        W14234  32.214  17.863  10.920
49250W        W14235  24.010  24.241   4.114
49251W        W14236  37.696  37.589   2.909
49252W        W14237  11.582   6.224   1.803
49253W        W14238  44.044  27.651   0.669
49254W        W14239   6.221   4.902  14.102
49255W        W14240   8.743  37.255  11.554
49256W        W14241  15.968  14.127  14.911
49257W        W14242   0.835  15.878   4.556
49258W        W14243  37.951  11.485  14.424
49259W        W14244  44.430  37.116  12.925
49260W        W14245  36.103  38.572  14.449
49261W        W14246  11.441  27.481   4.035
49262W        W14247  42.761  27.488  14.490
49263W        W14248  11.439   8.927   2.443
49264W        W14249   4.459  25.168   4.243
49265W        W14250  14.446  39.278   3.666
49266W        W14251  36.264  39.621   0.370
49267W        W14252  31.352   2.056   0.741
49268W        W14253  41.898  21.050  12.516
49269W        W14254  44.719   6.268  10.919
49270W        W14255   3.213   4.454  13.472
49271W        W14256   3.139  23.740  12.991
49272W        W14257  21.776  37.577  11.643
49273W        W14258  25.995  11.862   3.129
49274W        W14259  27.908   9.675   4.667
49275W        W14260  19.210  32.467   2.899
49276W        W14261  39.209  37.805  12.052
49277W        W14262   8.922  33.427  13.917
49278W        W14263  23.708   3.389   3.989
49279W        W14264  10.717  19.501  14.774
49280W        W14265   3.853  27.461   1.712
49281W        W14266  27.259  18.282   2.717
49282W        W14267   8.173  16.506  14.229
49283W        W14268  19.245  41.889   3.165
49284W        W14269  10.524  36.372   5.190
49285W        W14270  29.277  43.865   3.205
49286W        W14271   1.985  41.823   1.337
49287W        W14272  12.128  23.785  10.693
49288W        W14273   3.980  19.862   1.911
49289W        W14274  22.963   2.200   1.214
49290W        W14275  32.874  37.852   0.769
49291W        W14276  30.197  29.990  12.664
49292W        W14277  24.737  23.494   4.602
49293W        W14278  28.000  15.610  13.819
49294W        W14279  29.902  16.030  14.918
49295W        W14280  31.379  40.088  13.533
49296W        W14281  16.822  35.375   1.748
49297W        W14282  11.158  14.761   0.833
49298W        W14283   7.083  26.236   3.165
49299W        W14284   7.703  32.953   0.576
49300W        W14285  17.226   9.662  12.471
49301W        W14286  30.904  19.540  12.892
49302W        W14287  23.477  37.471  10.903
49303W        W14288  39.897  17.144  14.215
49304W        W14289  35.479  14.818  13.973
49305W        W14290   3.831  27.736  12.381
49306W        W14291  13.159   7.859   0.427
49307W        W14292  31.218  15.278   2.319
49308W        W14293   3.216   7.306   3.374
49309W        W14294  17.249  35.301   0.983
49310W        W14295  14.077  14.704  14.865
49311W        W14296   3.274   7.836   2.882
49312W        W14297  21.525  40.523  10.651
49313W        W14298  27.713  44.617  11.201
49314W        W14299  21.801  32.099  13.891
49315W        W14300  41.011   9.613   0.403
49316W        W14301  14.574  30.415   1.794
49317W        W14302   7.172  44.582   2.753
49318W        W14303   2.415  33.139  12.991
49319W        W14304  31.195  15.828  14.461
49320W        W14305  30.037  43.900   4.457
49321W        W14306   5.413  41.776   1.813
49322W        W14307  22.144  12.603   1.916
49323W        W14308   4.829  30.954  14.900
49324W        W14309  12.284  22.676  14.890
49325W        W14310  37.104  27.741   4.144
49326W        W14311   5.749  30.092   3.853
49327W        W14312  18.107  18.260   3.624
49328W        W14313   3.258   5.405   3.209
49329W        W14314  20.031  25.576  12.601
49330W        W14315  44.606  30.441  10.046
49331W        W14316  12.296   5.946   3.270
49332W        W14317  25.775  42.128  10.727
49333W        W14318  35.793  18.096   1.451
49334W        W14319  36.177  10.008   4.059
49335W        W14320   4.660  15.181   4.667
49336W        W14321   4.264  41.403  13.547
49337W        W14322  12.736   0.937   0.175
49338W        W14323   6.770  21.134  13.850
49339W        W14324  27.437   1.508   2.736
49340W        W14325  10.774  12.037   2.793
49341W        W14326  26.158  15.986   4.628
49342W        W14327   4.219  38.545  10.585
49343W        W14328   4.103  33.516  13.846
49344W        W14329  15.080  37.886   2.142
49345W        W14330  37.160  19.777  14.999
49346W        W14331   2.458   1.685  12.459
49347W        W14332   7.414  36.137   4.068
49348W        W14333  36.513  40.355   2.312
49349W        W14334  29.877   8.674  11.627
49350W        W14335  14.317   5.197  12.916
49351W        W14336  34.864  23.668   1.880
49352W        W14337  30.992  15.756   0.839
49353W        W14338  41.295  39.342  13.472
49354W        W14339  37.309  31.124  14.909
49355W        W14340  15.394  13.062  12.927
49356W        W14341  14.256  10.883   1.454
49357W        W14342   4.976  26.917   1.636
49358W        W14343  24.215  41.285  12.009
49359W        W14344  19.541   2.810   3.773
49360W        W14345  28.345  40.513  11.442
49361W        W14346  36.552   8.904  13.024
49362W        W14347  18.757  40.363   2.036
49363W        W14348  19.219  38.681  12.451
49364W        W14349  44.291  36.489  10.600
49365W        W14350  18.637   8.615   4.072
49366W        W14351  23.617   1.978  12.878
49367W        W14352   1.683  16.949   3.238
49368W        W14353  22.458  40.243  10.637
49369W        W14354  35.063  11.727  12.414
49370W        W14355   2.443   7.817   3.790
49371W        W14356  15.817  39.938  10.623
49372W        W14357  17.330  36.671   2.819
49373W        W14358  12.215   9.817   3.779
49374W        W14359  38.517  39.930   1.371
49375W        W14360  43.548   9.451   0.627
49376W        W14361   4.587   6.102   3.774
49377W        W14362  37.579  42.739   2.088
49378W        W14363  32.023  21.618  12.961
49379W        W14364  31.212   0.472   1.235
49380W        W14365  44.527  18.768   3.198
49381W        W14366  17.167  37.318  10.209
49382W        W14367  22.265  17.836   0.857
49383W        W14368  20.131   8.586  12.138
49384W        W14369  34.457   6.215  11.001
49385W        W14370  31.912  26.184  11.344
49386W        W14371   0.365   1.728  11.723
49387W        W14372   1.032  26.210   2.796
49388W        W14373  18.643   4.910  13.833
49389W        W14374  12.317  40.377  13.432
49390W        W14375   6.868  30.541   2.695
49391W        W14376   9.281   8.732   4.708
49392W        W14377  18.217   7.149   1.698
49393W        W14378  15.774   5.371   1.201
49394W        W14379  40.667   8.675   2.765
49395W        W14380  21.791   8.415   2.897
49396W        W14381  44.277   8.595   1.677
49397W        W14382   4.324  34.104  13.133
49398W        W14383  37.810  25.535   3.635
49399W        W14384  18.775  18.600   2.796
49400W        W14385   1.996   5.226  11.594
49401W        W14386   3.117  10.391  11.448
49402W        W14387  43.916  35.728  14.281
49403W        W14388  39.563  35.443   2.625
49404W        W14389  15.633  33.544  12.181
49405W        W14390  13.191  36.858   4.736
49406W        W14391  39.325  30.047   4.248
49407W        W14392  13.153   8.428   0.632
49408W        W14393  43.917   3.647   2.657
49409W        W14394  33.327   4.721   2.739
49410W        W14395  23.361  31.124   3.690
49411W        W14396   4.763   5.434   4.090
49412W        W14397   7.816   5.725  11.056
49413W        W14398  31.109  16.676  14.774
49414W        W14399  25.471  13.333  11.299
49415W        W14400  36.920  20.653   4.494
49416W        W14401   1.223  24.050   1.303
49417W        W14402   2.467  17.081   5.019
49418W        W14403   7.394  11.998   4.583
49419W        W14404  42.829  15.934  12.131
49420W        W14405  34.583   2.669   2.874
49421W        W14406  16.526  31.977  13.436
49422W        W14407   2.317  38.142   1.688
49423W        W14408  39.880  11.340   2.763
49424W        W14409  35.306   9.897  14.208
49425W        W14410  17.778   9.240   0.745
49426W        W14411  42.073   2.409   5.256
49427W        W14412  26.531   6.297   2.844
49428W        W14413  44.747  26.534  14.044
49429W        W14414  18.567  34.825   1.339
49430W        W14415  24.080  40.506  10.114
49431W        W14416   2.270  40.496  11.707
49432W        W14417  41.878   4.470   3.388
49433W        W14418  29.686  14.608  11.137
49434W        W14419  32.080  35.114  10.613
49435W        W14420  35.232  19.243  10.627
49436W        W14421  23.945   1.689   5.327
49437W        W14422  44.304  41.543   2.160
49438W        W14423  30.929  35.042   0.873
49439W        W14424  26.695  33.808   2.459
49440W        W14425   7.299  43.854   3.895
49441W        W14426  44.409  26.272   3.679
49442W        W14427  15.880  42.931  12.616
49443W        W14428  24.503  24.486   2.820
49444W        W14429  12.008  34.307   3.777
49445W        W14430  12.571  42.571  12.981
49446W        W14431  39.013  10.999   0.660
49447W        W14432  27.236   6.291   4.875
49448W        W14433  18.796  40.901   3.187
49449W        W14434   0.422  32.771  11.657
49450W        W14435  34.254  23.911  10.805
49451W        W14436  38.932  28.596  12.014
49452W        W14437   7.288  12.649  11.094
49453W        W14438   1.455  33.598   2.316
49454W        W14439  14.836  32.961  10.458
49455W        W14440  44.475   9.149   1.361
49456W        W14441  16.631   7.210   0.866
49457W        W14442  32.142  16.029   1.405
49458W        W14443   5.728  34.459   0.947
49459W        W14444  33.499   9.668  13.589
49460W        W14445  12.769   9.781   0.774
49461W        W14446   4.700  37.261   4.888
49462W        W14447  42.469   3.914   0.238
49463W        W14448   0.665  40.306   3.636
49464W        W14449  16.152  18.863  12.897
49465W        W14450  34.255   6.738  11.861
49466W        W14451  12.431  43.611  13.475
49467W        W14452  31.231  12.383   1.405
49468W        W14453  22.757   0.719  11.208
49469W        W14454  42.710  11.817  13.877
49470W        W14455  34.954  21.623  13.580
49471W        W14456  12.728  11.497   5.079
49472W        W14457   2.670   6.280   4.169
49473W        W14458   2.982  35.772  14.062
49474W        W14459  44.330  28.619  14.453
49475W        W14460  16.974   2.665   3.345
49476W        W14461  37.530  27.626   3.160
49477W        W14462  26.352   8.989   1.755
49478W        W14463  15.337  31.607  11.651
49479W        W14464  17.811  41.022   4.125
49480W        W14465  44.007  23.033   2.763
49481W        W14466   5.263  42.576  13.964
49482W        W14467   3.820   1.815   2.212
49483W        W14468  32.480  23.123  12.696
49484W        W14469  19.779   1.147   2.752
49485W        W14470  11.788  19.003  13.166
49486W        W14471  39.861  15.325  11.935
49487W        W14472  36.343   2.930   5.029
49488W        W14473  29.051  23.737   0.468
49489W        W14474  40.354  44.311   2.835
49490W        W14475  32.718  38.288   0.476
49491W        W14476   9.449  43.567  13.398
49492W        W14477  11.840  10.362  12.588
49493W        W14478  39.387  25.251   0.965
49494W        W14479  28.917  40.348   0.700
49495W        W14480   2.829   7.574   0.294
49496W        W14481  39.446  31.155   1.739
49497W        W14482  11.281  23.312   0.716
49498W        W14483   4.216  40.005  14.867
49499W        W14484  16.293  36.430  10.460
49500W        W14485  32.084  42.808   3.334
49501W        W14486  35.468  15.118   1.716
49502W        W14487   7.978  31.557   3.225
49503W        W14488  25.126   9.887   4.521
49504W        W14489   2.850  21.531   3.650
49505W        W14490   1.513  16.695  12.025
49506W        W14491  33.505  40.870   3.126
49507W        W14492  35.616  15.714  10.969
49508W        W14493   3.746  43.506  11.145
49509W        W14494  35.534   2.926  14.912
49510W        W14495  14.743  20.449   2.769
49511W        W14496  22.086  10.748   3.138
49512W        W14497  31.193  25.396  11.630
49513W        W14498  35.462  14.477  10.853
49514W        W14499  21.303  37.562   1.640
49515W        W14500  15.693   1.534   1.678
49516W        W14501  43.489  27.872   1.920
49517W        W14502  24.536  40.500  13.105
49518W        W14503   8.729  40.987   3.545
49519W        W14504  41.045  29.607   4.122
49520W        W14505  13.069  36.031  11.925
49521W        W14506  37.885  22.003  11.951
49522W        W14507  33.920   6.310  11.143
49523W        W14508  41.984  43.431  11.927
49524W        W14509   1.469  39.877  11.676
49525W        W14510  15.808  42.341  10.726
49526W        W14511  11.867  41.056  13.492
49527W        W14512  36.340  41.868   1.718
49528W        W14513  19.257  17.224  12.313
49529W        W14514  34.389  21.674  12.603
49530W        W14515  17.594  23.529  13.410
49531W        W14516  31.785  12.841   1.198
49532W        W14517  19.125  42.530   1.247
49533W        W14518  37.076  33.964   4.438
49534W        W14519  11.958   6.483  13.300
49535W        W14520   4.706  17.063  12.558
49536W        W14521  43.983  30.326   3.557
49537W        W14522  16.562  11.779  14.348
49538W        W14523  38.889   1.873   3.163
49539W        W14524  25.992  10.109  14.023
49540W        W14525  19.177  25.053  13.937
49541W        W14526  34.969  14.192  11.550
49542W        W14527  31.663  23.791  12.568
49543W        W14528  21.648  28.582   1.835
49544W        W14529  24.094  42.198  11.597
49545W        W14530  37.886  11.735  13.953
49546W        W14531  33.876  26.579  14.756
49547W        W14532   6.331  33.660   0.385
49548W        W14533   8.379   0.915   1.967
49549W        W14534  22.240   6.682   0.017
49550W        W14535   2.716   9.762   3.715
49551W        W14536  27.721  24.892  12.031
49552W        W14537  44.014  44.683  12.078
49553W        W14538  12.688  27.821   9.845
49554W        W14539  33.848  41.383  12.592
49555W        W14540  24.339  36.332  12.659
49556W        W14541  26.281  21.813   2.669
49557W        W14542  22.351  12.683  12.128
49558W        W14543  16.080  24.123   3.793
49559W        W14544  24.203  10.186  13.361
49560W        W14545   5.077   1.205   5.044
49561W        W14546  38.308  28.015   0.336
49562W        W14547  15.211  42.245  14.563
49563W        W14548  20.115  16.283   0.735
49564W        W14549  27.590  30.170   3.309
49565W        W14550  28.534  44.643   0.863
49566W        W14551  27.189  42.234   3.715
49567W        W14552  12.462  30.371  14.090
49568W        W14553  11.139  26.972  14.979
49569W        W14554  29.161  33.345  12.621
49570W        W14555  20.134  12.218  12.116
49571W        W14556   9.454  22.892  13.766
49572W        W14557   3.463  35.409   3.752
49573W        W14558  18.240  29.169   0.404
49574W        W14559  13.667  25.991  12.910
49575W        W14560  32.983  14.618  14.535
49576W        W14561  29.128  12.117  11.167
49577W        W14562  38.414  12.835  11.556
49578W        W14563  41.434  29.503   4.459
49579W        W14564  30.940  22.838   0.362
49580W        W14565   6.487  41.902   2.713
49581W        W14566  27.554   0.385   4.814
49582W        W14567  19.954  41.545   2.875
49583W        W14568  44.364  35.764   4.689
49584W        W14569  37.070  34.084   2.171
49585W        W14570  35.996  17.368  14.858
49586W        W14571  44.243  25.693   5.486
49587W        W14572  14.604  11.034   2.936
49588W        W14573   4.845  15.727   0.832
49589W        W14574  18.902  33.051   2.886
49590W        W14575  23.044  21.664  12.485
49591W        W14576  17.872  12.161  12.074
49592W        W14577  38.910   2.057   1.200
49593W        W14578  25.414   0.691   4.357
49594W        W14579  20.579  43.961   1.870
49595W        W14580  32.072   1.373  11.645
49596W        W14581   1.403  38.396   3.892
49597W        W14582  43.055  31.664   4.551
49598W        W14583  43.962  11.821   1.819
49599W        W14584   6.678  36.920   1.459
49600W        W14585  22.935   2.272   4.564
49601W        W14586  13.731  11.227   3.168
49602W        W14587  38.873  31.093  10.637
49603W        W14588  26.237  26.481  10.577
49604W        W14589  20.739   8.160   0.275
49605W        W14590  13.298  22.117  14.248
49606W        W14591  42.707  33.239  13.421
49607W        W14592   3.815  41.908  13.477
49608W        W14593  23.158  29.147  14.599
49609W        W14594  20.241  38.330   2.921
49610W        W14595  21.793  23.069   0.266
49611W        W14596  42.291  44.549  13.951
49612W        W14597  42.777  10.376   0.003
49613W        W14598   4.424   6.195  13.905
49614W        W14599   3.207  20.231   3.629
49615W        W14600   1.780   9.952  13.442
49616W        W14601  32.541  41.472   1.297
49617W        W14602  14.786   1.496  13.974
49618W        W14603   2.585  24.697  11.000
49619W        W14604   6.720  25.365  12.337
49620W        W14605  30.855   2.921   3.784
49621W        W14606  42.090   2.337  14.824
49622W        W14607   8.969  38.812   3.207
49623W        W14608  32.181  12.151  13.482
49624W        W14609  31.105  41.749   1.732
49625W        W14610  34.878  34.135  11.957
49626W        W14611  21.217  37.237   3.243
49627W        W14612  19.647  13.858  13.425
49628W        W14613  22.059  31.855   0.689
49629W        W14614  41.422  30.590   1.372
49630W        W14615  23.969  36.847   0.312
49631W        W14616   0.741  18.308   0.405
49632W        W14617  16.611  39.256  12.436
49633W        W14618  19.061  39.873   3.554
49634W        W14619   9.037  28.773   4.462
49635W        W14620  14.228  38.448   3.422
49636W        W14621  23.642  19.296  10.854
49637W        W14622  14.579   6.487   3.531
49638W        W14623  13.089  23.153  11.277
49639W        W14624  42.239  42.400  14.334
49640W        W14625  14.121  11.593   5.072
49641W        W14626  35.639  37.099   3.714
49642W        W14627  36.160   1.858  10.956
49643W        W14628  32.453  29.112   2.203
49644W        W14629   9.637  31.064   2.802
49645W        W14630  41.517  33.315   0.261
49646W        W14631  35.555  20.513  13.922
49647W        W14632  42.969  38.827   3.980
49648W        W14633   8.868  36.646  14.310
49649W        W14634  19.706  36.158   3.595
49650W        W14635  26.534   5.909   4.564
49651W        W14636  39.016  26.627   2.632
49652W        W14637  31.302  10.975  10.424
49653W        W14638  25.856  41.970  12.529
49654W        W14639  19.334  42.729  11.196
49655W        W14640  24.509  24.168  10.897
49656W        W14641  25.131  42.558  13.437
49657W        W14642  24.830  16.029   3.670
49658W        W14643  26.160   3.401  13.820
49659W        W14644  15.907   7.007  14.419
49660W        W14645   7.485  24.592   0.705
49661W        W14646  44.926  39.889   0.768
49662W        W14647   0.705  39.950   2.269
49663W        W14648  40.236  39.494   1.455
49664W        W14649  44.388  14.358   0.711
49665W        W14650  36.537   1.499  10.703
49666W        W14651  23.988  32.918   3.278
49667W        W14652   0.759  42.308   0.958
49668W        W14653  31.260   3.374   0.797
49669W        W14654  16.012  23.780  13.108
49670W        W14655  12.432   7.127   2.179
49671W        W14656   8.691  34.311   3.322
49672W        W14657   4.200  37.093  13.768
49673W        W14658   6.372  42.578   3.107
49674W        W14659  43.944  38.919   4.136
49675W        W14660  29.019   3.959   2.166
49676W        W14661  14.809  15.675   1.914
49677W        W14662  41.697  27.654  11.809
49678W        W14663   1.249  13.221  12.434
49679W        W14664   2.223   0.764   0.305
49680W        W14665  38.941   3.721   3.246
49681W        W14666  31.486  36.339  10.783
49682W        W14667  10.695   3.683  10.581
49683W        W14668  17.132  31.038   3.749
49684W        W14669  31.554  13.848  13.771
49685W        W14670   1.008  31.051   0.304
49686W        W14671  34.862  33.987   1.210
49687W        W14672  14.779  12.627   2.867
49688W        W14673   5.383  44.315   4.594
49689W        W14674   1.734  18.170  11.990
49690W        W14675   9.042  11.267  13.782
49691W        W14676  22.993  35.405   1.265
49692W        W14677   4.743  26.734   0.704
49693W        W14678  20.570  32.312  13.994
49694W        W14679  41.081   0.371   1.017
49695W        W14680  33.440  17.327   1.165
49696W        W14681   4.768  12.721  14.463
49697W        W14682  35.952   8.349  12.488
49698W        W14683  42.316  26.562  12.979
49699W        W14684  34.325  23.986   1.236
49700W        W14685  32.257  27.099  12.582
49701W        W14686   8.944  33.043  14.361
49702W        W14687   1.415  18.670  14.206
49703W        W14688  33.863   3.578   0.890
49704W        W14689   7.235  12.919   3.769
49705W        W14690  34.292  23.722   2.713
49706W        W14691   8.426  35.148  11.242
49707W        W14692  42.411   4.979   4.444
49708W        W14693   9.466  36.461  11.121
49709W        W14694  15.199  11.613   3.847
49710W        W14695  14.230  34.825   3.730
49711W        W14696  26.606  32.969   2.617
49712W        W14697  12.347  40.328  11.468
49713W        W14698   5.815   6.717   2.795
49714W        W14699  12.562  29.185   0.356
49715W        W14700  13.787  34.451   2.671
49716W        W14701  35.930  39.058  14.499
49717W        W14702   3.609  30.857   3.800
49718W        W14703   9.286  15.145  11.912
49719W        W14704  11.698  17.603  13.490
49720W        W14705  16.158  22.872   9.923
49721W        W14706  13.255  19.704   3.449
49722W        W14707  21.315  41.447  13.381
49723W        W14708  30.019  43.849   2.083
49724W        W14709  28.410  10.090  13.879
49725W        W14710  13.742  12.859  11.578
49726W        W14711  28.632   9.631  13.982
49727W        W14712   9.226  14.573  14.396
49728W        W14713  40.563   6.653  14.900
49729W        W14714  31.414   8.146   4.105
49730W        W14715  24.469  43.821  14.934
49731W        W14716  11.327   4.747  12.030
49732W        W14717  36.151  29.897  11.168
49733W        W14718   8.878  34.072   3.766
49734W        W14719  21.472  22.114  11.457
49735W        W14720  31.219   6.650  11.115
49736W        W14721  39.062  30.092  11.498
49737W        W14722   4.655  36.145   2.783
49738W        W14723   8.675  31.139   0.286
49739W        W14724   1.278  10.584  11.641
49740W        W14725   9.808  39.783   2.118
49741W        W14726  36.624  10.653  12.512
49742W        W14727   1.815  18.698   2.900
49743W        W14728  24.008  19.492  12.473
49744W        W14729  22.866  17.055  11.278
49745W        W14730  18.793  30.920   0.869
49746W        W14731  42.952  19.975   2.669
49747W        W14732   6.772  37.911  14.940
49748W        W14733  21.652  28.546  14.923
49749W        W14734   9.285  28.863   2.095
49750W        W14735  37.363   7.206  10.618
49751W        W14736  13.497  33.823  13.830
49752W        W14737  14.132  23.418   4.117
49753W        W14738  23.410  31.688  11.036
49754W        W14739  31.207  31.372   2.867
49755W        W14740  28.690  41.955   1.678
49756W        W14741  20.126  22.254   1.497
49757W        W14742  27.016  36.420  12.883
49758W        W14743  29.352  38.198   2.592
49759W        W14744   6.999  22.477   1.369
49760W        W14745  15.857  28.983  12.293
49761W        W14746  11.315  29.681   4.365
49762W        W14747  29.079  27.008   4.132
49763W        W14748  18.548   1.696   2.831
49764W        W14749  26.666  26.962   3.269
49765W        W14750   3.398  44.796  12.124
49766W        W14751   4.478  30.513  12.469
49767W        W14752  37.577  39.937   0.718
49768W        W14753   4.941  27.229  10.036
49769W        W14754  23.603   8.606  13.982
49770W        W14755   7.960  39.675  12.278
49771W        W14756  16.698  19.915  14.924
49772W        W14757  23.928  26.821  12.083
49773W        W14758  41.205   1.833   2.173
49774W        W14759  27.599  36.171  14.893
49775W        W14760   9.811  10.845  11.391
49776W        W14761  27.284  14.849   2.271
49777W        W14762   4.583  10.464  13.856
49778W        W14763  25.048  28.536   4.497
49779W        W14764   6.208  40.873  11.197
49780W        W14765  27.591  38.450  10.537
49781W        W14766  14.728  21.125   1.968
49782W        W14767   9.335   6.945  14.532
49783W        W14768  43.961  17.554   5.081
49784W        W14769   9.455   1.895  12.959
49785W        W14770   8.403  20.086  14.839
49786W        W14771  44.683  35.375   3.377
49787W        W14772  12.049  12.201   2.747
49788W        W14773   9.847  13.845   1.252
49789W        W14774  33.447  13.679   2.949
49790W        W14775  29.089  11.239  11.581
49791W        W14776  11.127  35.059  10.567
49792W        W14777  12.301  10.134  12.607
49793W        W14778  31.411  32.836  14.951
49794W        W14779  37.907  23.544  14.288
49795W        W14780  39.511  22.107  12.939
49796W        W14781  12.262  33.148  10.773
49797W        W14782  41.755  33.044   4.971
49798W        W14783  27.509  21.980   3.292
49799W        W14784  41.214  29.095   4.009
49800W        W14785  38.582  12.133   2.175
49801W        W14786  20.777  35.837   4.464
49802W        W14787  23.291  18.492  14.836
49803W        W14788  32.670  28.131  10.622
49804W        W14789   5.884  26.789  14.404
49805W        W14790   5.806  23.626   4.250
49806W        W14791  24.177  40.292   1.399
49807W        W14792  36.564  31.014  12.037
49808W        W14793  14.634  36.417  14.082
49809W        W14794  39.372   4.919  12.992
49810W        W14795  41.165  21.996   1.413
49811W        W14796  20.166  15.963   1.170
49812W        W14797  42.523   9.579  11.357
49813W        W14798  31.950  43.826  12.416
49814W        W14799  16.088   2.100  11.565
49815W        W14800  40.447  27.711   3.750
49816W        W14801  43.488   5.986   1.844
49817W        W14802   0.238   7.694  13.796
49818W        W14803  24.527  32.884  13.466
49819W        W14804  23.271  15.751  10.294
49820W        W14805  35.325  44.440  12.825
49821W        W14806  22.786  35.279  10.153
49822W        W14807  21.725   9.204   1.235
49823W        W14808  42.246  20.733   3.956
49824W        W14809  31.547   6.967   0.270
49825W        W14810  25.141  19.440  11.227
49826W        W14811   6.379   2.898  13.219
49827W        W14812  38.483  40.990   2.483
49828W        W14813   7.751   1.223   0.023
49829W        W14814  13.642   2.721  12.900
49830W        W14815  38.084  30.639  14.837
49831W        W14816  42.994  26.274   5.404
49832W        W14817  20.538  43.623  12.056
49833W        W14818  19.007  28.942   2.828
49834W        W14819  33.300  28.851  10.754
49835W        W14820  20.640  22.469  14.013
49836W        W14821  18.521  20.297  10.155
49837W        W14822  25.584  26.235   3.166
49838W        W14823  14.532   1.349  11.077
49839W        W14824   9.968  40.440  12.615
49840W        W14825   8.793  10.818   3.931
49841W        W14826   0.912   2.692   2.759
49842W        W14827  20.176  41.436   2.392
49843W        W14828   1.498  19.006  12.517
49844W        W14829  43.035  31.463  13.307
49845W        W14830  26.687  42.525   4.933
49846W        W14831  37.385  13.641   1.715
49847W        W14832  15.203  15.977  12.043
49848W        W14833  29.495  24.576   0.399
49849W        W14834  18.115  43.300   0.569
49850W        W14835   3.751  23.547   1.663
49851W        W14836  44.766  20.351  11.919
49852W        W14837  31.962  14.255  14.956
49853W        W14838   1.273   1.904   1.620
49854W        W14839  23.851  42.021  12.909
49855W        W14840   5.480  28.913  12.043
49856W        W14841  34.031  15.086  14.413
49857W        W14842  29.679   3.284   3.142
49858W        W14843   9.972  20.623  10.758
49859W        W14844  20.711  16.870  10.897
49860W        W14845  30.349   5.618  14.044
49861W        W14846   2.734  16.155  14.281
49862W        W14847  36.075  39.549  10.628
49863W        W14848  43.383   2.572   1.096
49864W        W14849   0.453  40.845   3.620
49865W        W14850  23.807  38.512   0.925
49866W        W14851  22.228   7.834   1.278
49867W        W14852  43.704   9.934   3.630
49868W        W14853  10.656  12.782   3.560
49869W        W14854  39.277  22.022  11.480
49870W        W14855  26.776  32.087   2.773
49871W        W14856  36.117  14.488   3.717
49872W        W14857   1.251  25.613   1.171
49873W        W14858  32.419  39.008   1.271
49874W        W14859  42.262  34.646   0.700
49875W        W14860  36.848   1.807  12.011
49876W        W14861   2.638  18.067  13.089
49877W        W14862  17.756  25.435   0.289
49878W        W14863  11.712   1.272  10.968
49879W        W14864  30.922  27.276  12.353
49880W        W14865   1.510   6.899  14.818
49881W        W14866   3.780  31.600   2.292
49882W        W14867  35.614  34.922   3.196
49883W        W14868  43.313  13.760  14.386
49884W        W14869  16.141  35.045  10.781
49885W        W14870  36.349  12.428   2.644
49886W        W14871   2.493  41.546  13.917
49887W        W14872  25.038  36.978   1.292
49888W        W14873  43.837  35.281  14.024
49889W        W14874  18.726  37.047  13.268
49890W        W14875   6.559   9.312  10.388
49891W        W14876  33.577  39.294  13.040
49892W        W14877  26.234  38.407   3.266
49893W        W14878  40.557  20.692  11.037
49894W        W14879   6.869  17.890   3.305
49895W        W14880  32.009  42.477   3.726
49896W        W14881  32.011  21.677   3.889
49897W        W14882   9.107  30.486   4.177
49898W        W14883  33.690  35.469   1.215
49899W        W14884  21.160  28.512   3.339
49900W        W14885   9.210  32.498   0.534
49901W        W14886  34.488  39.549   2.319
49902W        W14887  23.014  35.078   3.736
49903W        W14888  20.062  21.609  13.317
49904W        W14889  30.791  26.869   3.327
49905W        W14890   0.604  25.540  12.618
49906W        W14891  17.819  37.415  13.363
49907W        W14892  15.959  19.494   1.786
49908W        W14893   7.648  19.703   4.149
49909W        W14894  20.043  44.394   4.134
49910W        W14895  25.143  27.429  12.963
49911W        W14896  31.924  14.274  13.414
49912W        W14897  16.480  14.499   4.073
49913W        W14898  14.467  37.538  11.113
49914W        W14899  32.965  42.380  14.272
49915W        W14900  14.843  43.094  12.075
49916W        W14901  35.852   6.870   3.601
49917W        W14902   8.363  43.116  14.912
49918W        W14903  20.091   1.947  11.182
49919W        W14904  12.691  29.544   3.196
49920W        W14905  31.976  24.946  11.191
49921W        W14906  13.654  32.990  13.751
49922W        W14907  18.270  28.039  14.773
49923W        W14908  27.131  31.467  14.831
49924W        W14909   7.264   3.927   0.111
49925W        W14910  23.056   2.417  13.855
49926W        W14911  32.836   4.791  10.232
49927W        W14912  25.585  37.099  11.527
49928W        W14913   2.141  15.020   0.814
49929W        W14914  26.717  11.139   1.856
49930W        W14915   7.438  38.771  13.908
49931W        W14916  25.347  26.878  11.229
49932W        W14917  16.759  19.717  14.422
49933W        W14918  38.022  36.337   1.725
49934W        W14919  13.614  37.568  10.748
49935W        W14920  37.921   3.171  11.532
49936W        W14921   1.292  42.536  12.214
49937W        W14922  18.281  29.688   0.405
49938W        W14923  40.475   6.287  14.555
49939W        W14924   3.482   5.712  12.513
49940W        W14925  35.300  42.482  11.184
49941W        W14926  11.233  17.534  11.216
49942W        W14927  36.820   5.200   3.324
49943W        W14928  15.236  34.545   4.172
49944W        W14929   5.904  21.686   0.888
49945W        W14930   6.175  27.508   3.005
49946W        W14931  15.552  37.143   0.548
49947W        W14932  31.480  12.131  11.887
49948W        W14933  31.527  34.146   1.657
49949W        W14934  17.025  21.217  13.595
49950W        W14935  22.153  16.657   1.248
49951W        W14936   5.502  16.232  14.930
49952W        W14937  27.358  23.802  10.236
49953W        W14938  43.770  17.645  14.496
49954W        W14939  24.172  36.377   3.068
49955W        W14940  43.448  23.208   4.028
49956W        W14941   1.350  37.966   1.397
49957W        W14942  24.416  43.289  13.760
49958W        W14943   1.338  30.474   2.681
49959W        W14944  13.077  14.228   3.257
49960W        W14945  40.420  20.680   1.042
49961W        W14946   3.613   3.461   1.336
49962W        W14947   1.221   0.422   1.078
49963W        W14948  15.115  32.827  12.161
49964W        W14949  11.102   2.367  12.381
49965W        W14950  19.321  13.439   2.903
49966W        W14951   6.017  37.848   1.871
49967W        W14952  28.522  14.446  12.864
49968W        W14953  26.725  11.937  10.827
49969W        W14954  27.673  11.543   2.172
49970W        W14955  28.521   0.170  12.440
49971W        W14956  28.545  30.895   2.807
49972W        W14957  14.320  32.802  12.096
49973W        W14958  16.587   7.665   3.662
49974W        W14959  19.589   5.726  12.397
49975W        W14960  18.788   3.234  10.805
49976W        W14961   6.294   8.293   0.000
49977W        W14962  20.358   7.697   4.787
49978W        W14963   8.987   0.780  11.145
49979W        W14964  21.185   3.057  11.201
49980W        W14965  12.834   7.388  13.428
49981W        W14966  12.719   5.832   0.169
49982W        W14967   4.234  27.558   4.046
49983W        W14968  20.664   7.255   0.525
49984W        W14969   0.030  12.788   5.057
49985W        W14970  21.411  38.265   1.952
49986W        W14971  28.867  18.504  13.613
49987W        W14972  17.752  39.341   1.275
49988W        W14973  34.943  30.043  11.573
49989W        W14974  11.808   6.864   4.093
49990W        W14975  11.727  28.144   1.397
49991W        W14976  41.650  44.906   1.689
49992W        W14977  35.581  12.892  11.579
49993W        W14978  10.895   4.143   2.287
49994W        W14979  29.927  16.667  12.354
49995W        W14980  22.879  44.261   2.227
49996W        W14981  12.363   4.871   0.094
49997W        W14982  29.266   0.040  11.202
49998W        W14983  19.015   1.024   3.978
49999W        W14984  10.570   5.814  14.363
50000W        W14985  31.071  20.554  11.904
50001W        W14986  21.915  19.005   2.251
50002W        W14987  28.442  39.063  11.481
50003W        W14988   0.674  28.432  12.959
50004W        W14989  13.520  26.829   4.662
50005W        W14990   3.755  44.590   1.931
50006W        W14991  44.409  37.369   3.666
50007W        W14992  23.162  17.483   1.650
50008W        W14993  10.431  10.731  12.994
50009W        W14994  26.815  38.560   1.835
50010W        W14995  44.535  17.978  10.681
50011W        W14996  19.256  14.650  14.846
50012W        W14997   5.625  25.211  12.818
50013W        W14998  37.847   8.295  12.154
50014W        W14999  15.507  40.755  13.488
50015W        W15000  25.975   5.469   4.235
50016W        W15001  31.930  37.592  13.062
50017W        W15002  40.999  22.683   0.289
50018W        W15003  12.307   9.851   4.971
50019W        W15004  26.793  41.250   4.154
50020W        W15005  32.858  44.464   0.911
50021W        W15006  40.401  36.207   0.206
50022W        W15007  44.408  13.870  11.998
50023W        W15008  10.615  29.511  11.205
50024W        W15009  27.640   5.759   1.371
50025W        W15010  36.975  42.960  14.565
50026W        W15011  14.557  38.966   1.854
50027W        W15012  15.285   7.077  10.887
50028W        W15013  21.541  25.100  10.690
50029W        W15014  42.243  28.860  14.990
50030W        W15015   9.118  19.192  12.858
50031W        W15016  15.291  19.333  11.166
50032W        W15017  38.799  18.274  12.408
50033W        W15018   0.782  11.912   1.001
50034W        W15019  12.612  30.556   3.787
50035W        W15020  26.647  37.620  12.975
50036W        W15021  34.222  36.346  13.466
50037W        W15022  21.635   6.269   4.165
50038W        W15023  25.830  19.273   3.223
50039W        W15024  16.770   5.517  12.460
50040W        W15025   9.723  21.152   3.640
50041W        W15026  33.439   7.789   0.900
50042W        W15027  24.553  12.063   0.328
50043W        W15028  10.452  11.140   0.416
50044W        W15029  40.915   5.250   1.348
50045W        W15030  19.814  17.285  12.103
50046W        W15031  23.970  26.744   0.712
50047W        W15032   7.249  34.941  11.989
50048W        W15033  18.175  25.884  10.622
50049W        W15034  21.105  21.652   0.228
50050W        W15035  30.178  14.513  11.215
50051W        W15036  21.059  19.059  12.495
50052W        W15037  34.298  41.679  11.659
50053W        W15038   9.663  43.440  11.635
50054W        W15039   1.008  30.646  11.421
50055W        W15040   6.965  43.057  14.968
50056W        W15041  38.080   5.515  11.021
50057W        W15042   4.643  36.364  13.490
50058W        W15043  44.030  31.991   2.374
50059W        W15044  24.138   1.309  11.757
50060W        W15045   6.471  28.039  11.216
50061W        W15046  27.161  14.961  14.476
50062W        W15047  14.022   0.777  11.591
50063W        W15048   1.857  15.592   3.795
50064W        W15049  12.559  14.328   0.447
50065W        W15050  13.239  41.027  14.088
50066W        W15051  42.263   4.471  10.776
50067W        W15052   2.939  10.271   2.783
50068W        W15053  21.334  10.833   0.582
50069W        W15054   5.664  10.187  12.517
50070W        W15055  41.262  33.784   2.370
50071W        W15056  33.380   3.872   2.419
50072W        W15057   2.183  43.326   2.154
50073W        W15058  24.835  19.157   1.659
50074W        W15059  39.050  34.506   0.007
50075W        W15060  41.894   9.291   2.116
50076W        W15061  35.750  39.975  10.657
50077W        W15062  10.392  31.926   4.537
50078W        W15063  24.646  14.598   0.838
50079W        W15064  25.700  31.384   0.889
50080W        W15065  15.241  42.362   3.679
50081W        W15066   1.727  15.107  14.541
50082W        W15067  23.108  40.786   1.092
50083W        W15068  34.667  11.393  10.707
50084W        W15069  15.474  23.129  13.021
50085W        W15070  44.267  38.986   1.980
50086W        W15071   1.315   1.924   4.564
50087W        W15072  34.344   5.888   5.105
50088W        W15073  31.162   6.949  14.899
50089W        W15074  11.178   4.833  14.282
50090W        W15075  42.001  35.906  14.755
50091W        W15076   8.809  28.475   1.458
50092W        W15077  38.926  37.342   1.719
50093W        W15078   9.726   8.661   3.280
50094W        W15079  28.893  36.341   3.236
50095W        W15080   6.472  22.435   2.183
50096W        W15081  38.072  39.874  13.873
50097W        W15082   8.893  16.261  12.645
50098W        W15083  10.755   4.066   0.869
50099W        W15084  22.567  25.545   2.851
50100W        W15085   9.788  20.787  13.068
50101W        W15086  28.119  38.602   2.367
50102W        W15087  17.783   6.221   2.814
50103W        W15088  41.308   7.484  13.814
50104W        W15089  28.639  22.034   3.707
50105W        W15090  31.498   2.344   2.605
50106W        W15091  33.432  17.151   1.679
50107W        W15092  25.729   9.899   3.777
50108W        W15093  41.418  30.723   4.665
50109W        W15094  21.616  26.632  10.196
50110W        W15095  28.509  43.053  10.557
50111W        W15096  43.539  22.812   0.249
50112W        W15097  30.726   5.073   1.680
50113W        W15098  37.453  23.656  11.223
50114W        W15099   0.672  36.541   0.042
50115W        W15100   6.061   9.390  12.537
50116W        W15101  19.569  21.099   2.734
50117W        W15102   2.839  36.515   1.563
50118W        W15103  31.417  11.361  10.772
50119W        W15104  44.964  40.960   1.883
50120W        W15105  15.384  39.546   1.288
50121W        W15106   8.604  33.296   1.285
50122W        W15107  22.219   5.811   0.361
50123W        W15108  26.387  41.026  14.028
50124W        W15109  22.088  11.009  10.762
50125W        W15110  31.987  33.949  10.810
50126W        W15111   8.317  39.128   2.124
50127W        W15112  18.048  25.995   1.278
50128W        W15113   3.212   0.227   2.897
50129W        W15114  16.847   4.670  14.768
50130W        W15115  22.558  20.431   0.974
50131W        W15116  20.978   7.248  13.875
50132W        W15117  16.007  14.721   3.988
50133W        W15118  23.264  15.673   3.782
50134W        W15119   7.556   5.194   1.431
50135W        W15120  10.648  14.833   4.046
50136W        W15121  39.217  38.511   3.161
50137W        W15122  10.435  38.016   0.230
50138W        W15123  20.238  29.335  12.785
50139W        W15124   9.373  38.497  12.971
50140W        W15125  43.858  38.752  12.494
50141W        W15126   5.819   1.367  14.335
50142W        W15127  22.638   8.106  12.953
50143W        W15128  40.984  17.054   1.107
50144W        W15129   4.793   6.911  13.419
50145W        W15130  22.808  37.320   2.772
50146W        W15131  21.599  38.605   3.245
50147W        W15132   1.260  11.657   3.279
50148W        W15133  18.172   3.096  14.844
50149W        W15134  34.671  35.942  12.132
50150W        W15135  43.902   8.747  12.150
50151W        W15136   8.452  32.817   1.120
50152W        W15137  25.825  29.848   5.277
50153W        W15138  35.114  26.490   2.410
50154W        W15139  22.021  36.417   4.245
50155W        W15140  12.496  41.376  10.716
50156W        W15141  32.693  18.751   0.776
50157W        W15142  29.402  16.055   0.105
50158W        W15143  41.031  21.239  11.629
50159W        W15144  18.726  31.032   2.723
50160W        W15145  23.493  21.139   2.577
50161W        W15146  37.494  10.438   4.200
50162W        W15147  30.553  36.381  11.698
50163W        W15148  23.949  21.598  14.293
50164W        W15149  19.146  41.312   1.866
50165W        W15150  29.201  29.967   1.367
50166W        W15151  27.916  31.078   0.882
50167W        W15152  40.577  27.969   9.941
50168W        W15153  32.560   9.962  11.059
50169W        W15154  41.453  23.610   2.221
50170W        W15155  31.908   7.093  11.595
50171W        W15156  17.126   1.189   2.288
50172W        W15157  11.659  22.770  10.698
50173W        W15158  10.210   0.157   1.033
50174W        W15159  24.442  39.253  14.830
50175W        W15160  31.413  36.923   0.422
50176W        W15161  35.110   4.191   4.872
50177W        W15162  35.712  29.474   0.195
50178W        W15163  31.889  35.360  14.296
50179W        W15164  18.679  20.927   3.081
50180W        W15165  11.883   6.797   5.060
50181W        W15166   2.386  33.963  12.003
50182W        W15167   1.173   0.761   0.692
50183W        W15168  29.000   5.904   3.432
50184W        W15169  22.433  33.339  11.979
50185W        W15170  22.113   2.471   0.421
50186W        W15171  28.875  28.426   1.953
50187W        W15172  40.985   6.789   4.647
50188W        W15173  34.431   8.483  13.937
50189W        W15174  32.014  34.311  12.399
50190W        W15175   3.728  14.862  12.816
50191W        W15176  12.515  10.582  10.872
50192W        W15177   5.317  26.563  11.483
50193W        W15178  33.961  33.036  11.253
50194W        W15179   9.744  20.705   1.020
50195W        W15180  14.333  25.658   1.881
50196W        W15181   3.098  24.990   1.410
50197W        W15182   7.387  35.315   3.649
50198W        W15183  35.467  33.134  14.319
50199W        W15184  19.285  34.374  11.136
50200W        W15185  15.226  40.755  11.976
50201W        W15186  41.470  33.996   1.723
50202W        W15187  36.967   8.889  14.300
50203W        W15188  40.860   8.172   0.051
50204W        W15189  16.781  42.448   4.394
50205W        W15190  21.669   8.373   4.590
50206W        W15191  44.386  38.994   4.467
50207W        W15192  30.899  30.847   0.351
50208W        W15193  29.763   3.692  11.845
50209W        W15194  16.102  44.764  13.021
50210W        W15195  28.712  10.824   0.237
50211W        W15196  44.138  13.734   4.377
50212W        W15197  34.785  17.530   2.264
50213W        W15198  12.903  28.496   2.752
50214W        W15199  29.502  13.203   1.884
50215W        W15200  11.425   5.351  10.078
50216W        W15201  38.980  17.190  11.457
50217W        W15202  17.369  26.055  12.533
50218W        W15203  30.796   6.709   2.229
50219W        W15204  35.287  32.896  13.904
50220W        W15205  43.930  26.146   0.020
50221W        W15206  42.751  41.195  13.341
50222W        W15207  19.675  42.295  14.074
50223W        W15208  18.984  24.648  10.506
50224W        W15209  38.513  29.736   1.010
50225W        W15210  42.543  41.441  11.154
50226W        W15211  39.402   3.986   1.380
50227W        W15212   4.815  21.635  11.518
50228W        W15213  22.206  28.947   3.885
50229W        W15214   3.444   1.769  10.383
50230W        W15215   9.938  36.081   4.468
50231W        W15216  38.390   1.832   3.055
50232W        W15217  35.637  29.766   2.666
50233W        W15218  15.109  44.267  12.467
50234W        W15219  28.263  30.053   5.213
50235W        W15220  28.081  21.718   2.769
50236W        W15221  43.955   6.073   0.652
50237W        W15222   8.412  13.650  12.454
50238W        W15223   0.455  32.305   4.259
50239W        W15224  22.916  26.176  11.165
50240W        W15225  36.787   2.452   1.717
50241W        W15226   3.505  28.048  12.053
50242W        W15227  21.130  31.729   2.639
50243W        W15228  36.505  36.077  13.374
50244W        W15229  11.741  33.392  14.504
50245W        W15230  14.149  39.617   2.685
50246W        W15231  10.147  41.973   1.778
50247W        W15232   4.305  41.840  11.870
50248W        W15233   5.832  44.237   4.355
50249W        W15234   6.708  16.542  11.826
50250W        W15235  17.583  31.444   4.437
50251W        W15236  20.975  35.040  13.927
50252W        W15237  27.972  25.310  10.615
50253W        W15238   6.892   9.467   0.350
50254W        W15239  31.566  33.899  14.957
50255W        W15240  36.876   6.446  14.266
50256W        W15241  23.245  42.430  14.634
50257W        W15242  42.541  11.352  11.997
50258W        W15243   2.031  41.022   1.856
50259W        W15244  40.533   6.906   4.360
50260W        W15245  22.750   8.686  10.858
50261W        W15246   7.276  34.988  13.968
50262W        W15247   7.202  22.337  13.624
50263W        W15248  12.767  20.650   4.572
50264W        W15249  39.486  19.764  11.561
50265W        W15250  17.233  10.205  10.209
50266W        W15251   3.930  30.511   1.360
50267W        W15252   9.861  19.155   0.000
50268W        W15253  34.535  31.920  14.822
50269W        W15254  36.631  37.130  12.300
50270W        W15255  13.373  18.371   0.327
50271W        W15256   0.419   5.672   1.676
50272W        W15257  27.699   5.622   3.893
50273W        W15258  25.709   4.934   1.742
50274W        W15259  36.887  33.455  14.445
50275W        W15260  19.104  37.052   3.054
50276W        W15261  35.529  18.260  13.253
50277W        W15262   3.144   8.219  10.615
50278W        W15263  20.166  39.769  10.520
50279W        W15264  10.274  36.562   2.026
50280W        W15265   2.714   3.748  12.903
50281W        W15266   9.280  17.317  11.595
50282W        W15267  11.614  31.542   2.705
50283W        W15268  35.582  24.944  11.078
50284W        W15269  36.811  20.517  11.590
50285W        W15270  41.150  41.896   0.557
50286W        W15271  28.131  22.607  14.853
50287W        W15272  11.341  23.746   2.110
50288W        W15273  11.662  23.466   2.818
50289W        W15274  20.930  20.077  14.463
50290W        W15275  41.546  27.065   2.243
50291W        W15276  11.986  36.942   2.633
50292W        W15277  40.496  10.237  13.971
50293W        W15278  15.649  26.132  10.846
50294W        W15279  18.752  43.215  14.340
50295W        W15280  27.743  14.818   2.011
50296W        W15281  32.984  24.602   0.807
50297W        W15282  42.566  11.152   4.346
50298W        W15283  37.928  14.278   2.150
50299W        W15284  42.385  21.256  10.724
50300W        W15285  14.529  29.032   0.779
50301W        W15286  41.751  23.169   1.341
50302W        W15287  19.009  16.887  12.607
50303W        W15288  17.680  19.069   4.973
50304W        W15289  35.930  39.766  11.121
50305W        W15290   6.568  23.832  12.098
50306W        W15291  29.607  44.617  12.506
50307W        W15292   7.735   5.840  11.555
50308W        W15293  16.448  17.038   3.555
50309W        W15294  40.439   6.284  10.796
50310W        W15295  23.129  13.046  13.477
50311W        W15296  35.297   0.076  13.034
50312W        W15297  37.532  29.994  10.772
50313W        W15298  26.756   9.752   1.193
50314W        W15299   5.766   6.475   3.615
50315W        W15300  32.863  38.329   0.989
50316W        W15301  36.835  21.742  10.740
50317W        W15302  16.258   3.298   3.420
50318W        W15303  22.079  43.819   4.156
50319W        W15304  15.811  35.089  13.800
50320W        W15305   4.906   8.703   3.415
50321W        W15306   3.020  11.701   3.712
50322W        W15307   3.861   0.026   4.825
50323W        W15308  23.571   2.387   4.933
50324W        W15309  27.102   3.298   0.956
50325W        W15310  13.373  19.249   2.568
50326W        W15311  44.589  24.455  14.587
50327W        W15312  44.434  44.259  12.985
50328W        W15313  30.334  18.276   4.585
50329W        W15314  33.883   3.976  12.969
50330W        W15315  42.327  32.507  11.205
50331W        W15316  22.719  23.270  12.419
50332W        W15317  44.505  26.505  11.620
50333W        W15318  40.339  40.057  12.116
50334W        W15319   4.801  38.757  12.575
50335W        W15320   5.675   6.950   3.763
50336W        W15321   3.909  29.614   1.869
50337W        W15322  44.530  21.448   2.358
50338W        W15323  30.629  26.058  14.492
50339W        W15324  44.237  20.741  13.080
50340W        W15325  29.433  44.780  14.558
50341W        W15326   3.216  22.223   1.018
50342W        W15327  32.089  23.441  14.946
50343W        W15328   5.773  21.777   3.070
50344W        W15329   3.386  29.120   2.199
50345W        W15330  31.951  37.321   4.648
50346W        W15331  18.342  35.312  14.836
50347W        W15332  11.184   3.887  10.500
50348W        W15333  22.757  20.008  10.331
50349W        W15334  13.818  26.014   1.403
50350W        W15335  37.613   7.510   1.801
50351W        W15336   6.661  10.128   9.979
50352W        W15337   3.315  20.996   2.208
50353W        W15338  12.168  42.012  13.731
50354W        W15339  33.532  33.402  12.330
50355W        W15340  16.600  34.829  10.711
50356W        W15341  33.068  12.185  11.526
50357W        W15342  19.226   2.993  10.684
50358W        W15343   0.836  32.700   3.163
50359W        W15344  27.945  43.397  13.984
50360W        W15345  41.285  14.256   4.156
50361W        W15346  36.081  10.479  12.762
50362W        W15347   0.430  15.671  13.766
50363W        W15348  22.403  16.865  11.304
50364W        W15349  10.737   8.335  11.687
50365W        W15350  24.210  27.019  12.477
50366W        W15351  31.454  44.534  12.522
50367W        W15352  35.468   1.938   4.570
50368W        W15353   0.668  17.801   2.256
50369W        W15354  20.064  32.384  12.031
50370W        W15355  30.235  36.929  14.252
50371W        W15356  14.595  13.745   1.578
50372W        W15357  42.936  17.653  11.281
50373W        W15358  27.477   3.906  11.983
50374W        W15359  41.780  16.204   2.163
50375W        W15360   7.023  23.774   5.034
50376W        W15361  35.409  23.976   4.573
50377W        W15362  44.477  15.122  13.928
50378W        W15363  31.791  20.170  14.534
50379W        W15364  34.190   2.530   1.651
50380W        W15365   0.866  10.021   2.221
50381W        W15366  38.855  24.830  14.798
50382W        W15367   5.157  20.081  12.884
50383W        W15368  14.759  25.715   2.381
50384W        W15369   5.157  17.354   1.182
50385W        W15370  35.026  39.802   0.328
50386W        W15371  40.242  13.078  12.943
50387W        W15372  18.706   1.390   4.148
50388W        W15373   9.715  31.936   4.225
50389W        W15374  26.606  39.828   4.101
50390W        W15375  12.573  15.624   3.136
50391W        W15376  34.633  40.115   1.448
50392W        W15377  41.782  11.433  11.052
50393W        W15378  16.324  24.801   1.799
50394W        W15379  29.712  21.180   9.871
50395W        W15380  38.812  37.012   2.721
50396W        W15381   6.754  22.159  13.367
50397W        W15382  29.393   1.239   0.617
50398W        W15383   4.880   8.246   3.665
50399W        W15384  36.377   5.364  13.975
50400W        W15385  34.406   2.338   0.254
50401W        W15386  10.584  14.706   1.701
50402W        W15387  44.528  10.710   2.816
50403W        W15388  18.274   0.955   3.133
50404W        W15389  18.506  16.765   4.104
50405W        W15390  39.240  15.872   0.491
50406W        W15391  24.203  36.125  10.155
50407W        W15392  37.518   3.111  10.795
50408W        W15393  33.811  15.391   4.357
50409W        W15394  36.075  16.075  11.505
50410W        W15395  31.844   3.997   5.086
50411W        W15396  13.763  29.541  12.400
50412W        W15397  17.178  15.538   0.004
50413W        W15398  31.548  24.218  12.866
50414W        W15399  33.125  20.584   0.281
50415W        W15400   2.506  16.575  13.651
50416W        W15401   2.239  11.617   4.536
50417W        W15402   9.311  37.507   1.215
50418W        W15403   3.352   9.641   1.583
50419W        W15404   0.309  29.391   0.942
50420W        W15405  32.626  23.539   0.035
50421W        W15406  44.749  25.896   5.498
50422W        W15407   9.177   2.410   4.083
50423W        W15408  12.628  44.802   1.757
50424W        W15409   4.725  30.262  10.075
50425W        W15410  38.790  13.730   0.424
50426W        W15411  33.401  38.768  11.671
50427W        W15412  40.604  44.892   4.408
50428W        W15413   1.086  11.339   1.796
50429W        W15414   2.467  13.436  12.017
50430W        W15415  19.532   3.285   0.903
50431W        W15416  17.930  18.100  13.516
50432W        W15417  12.834  10.614  13.892
50433W        W15418  24.246  39.928  13.987
50434W        W15419  39.914  22.643  14.111
50435W        W15420   0.411   3.857  14.939
50436W        W15421  27.615  30.261   1.934
50437W        W15422  34.127   4.676  13.411
50438W        W15423  20.944  26.674   2.976
50439W        W15424  42.341  34.989  13.078
50440W        W15425  22.258  16.228  14.469
50441W        W15426  13.330  30.709   4.112
50442W        W15427  37.723  11.855  10.743
50443W        W15428  35.980  35.476   0.922
50444W        W15429  37.152  10.829  11.390
50445W        W15430  39.598  12.640   2.312
50446W        W15431  44.742   5.878  12.451
50447W        W15432  24.970  13.625  14.306
50448W        W15433  27.548   7.214   0.902
50449W        W15434  24.022  19.126   1.264
50450W        W15435  17.044  13.658   1.884
50451W        W15436   1.120  18.247  14.382
50452W        W15437  38.123   0.465   2.832
50453W        W15438  15.142  16.340  12.862
50454W        W15439  37.361  13.677   2.229
50455W        W15440  22.487  13.885  12.651
50456W        W15441  25.059  28.938   0.929
50457W        W15442  43.503  40.997  11.228
50458W        W15443  11.647  26.504  12.376
50459W        W15444   7.136   6.703   4.056
50460W        W15445  16.757  42.393   0.546
50461W        W15446   7.922   6.912   1.306
50462W        W15447   1.055  28.206  14.356
50463W        W15448  36.296   2.716   3.423
50464W        W15449  23.499  19.765   4.106
50465W        W15450  16.297   4.092   9.602
50466W        W15451   3.448  12.179  14.757
50467W        W15452  18.515   3.691  10.826
50468W        W15453  44.009  28.159   9.795
50469W        W15454  32.094  33.052  10.233
50470W        W15455  14.338  21.804  13.369
50471W        W15456  37.119   8.293   1.734
50472W        W15457  21.987  38.839  14.843
50473W        W15458  22.203  26.556  11.428
50474W        W15459  23.164  20.467  11.740
50475W        W15460  18.163  18.844  12.772
50476W        W15461  32.078  28.435  11.680
50477W        W15462  10.852  22.964   2.545
50478W        W15463  36.510  17.902  13.513
50479W        W15464  44.286  41.434   4.830
50480W        W15465  15.056  41.952  13.377
50481W        W15466   9.286  31.582  11.267
50482W        W15467  20.089  38.483  14.191
50483W        W15468  20.283  17.507  12.012
50484W        W15469  40.401  34.447   3.164
50485W        W15470  41.404   1.959  12.596
50486W        W15471  12.766  18.933  12.776
50487W        W15472   7.406  27.916   1.564
50488W        W15473  27.025  12.605   0.349
50489W        W15474  20.182   2.632   0.852
50490W        W15475   4.557  29.056   4.558
50491W        W15476   8.473  31.038   2.126
50492W        W15477  12.539  31.454  12.303
50493W        W15478   9.351  36.467  14.059
50494W        W15479  30.354  41.547   0.417
50495W        W15480  13.080   0.074   2.581
50496W        W15481  18.773  39.251   3.358
50497W        W15482  33.976  42.928   0.218
50498W        W15483  44.546  43.975  13.976
50499W        W15484  18.079  28.459   0.894
50500W        W15485  43.531  23.708  11.582
50501W        W15486  29.041  34.427  14.788
50502W        W15487  40.316  32.078   3.230
50503W        W15488  41.989  43.144  10.475
50504W        W15489  29.958  23.887  13.411
50505W        W15490  33.439   6.686  10.107
50506W        W15491  12.384  26.703  11.098
50507W        W15492  39.541  43.976   2.489
50508W        W15493  21.621  20.213  12.264
50509W        W15494   7.910  40.759  13.248
50510W        W15495  33.647  32.643   0.347
50511W        W15496   5.207  12.616   0.243
50512W        W15497  36.154  10.351   0.688
50513W        W15498  17.644  35.529  10.776
50514W        W15499   6.240   9.670  14.723
50515W        W15500  35.536  26.589   3.176
50516W        W15501  25.875   8.704  10.698
50517W        W15502  41.614  28.858   1.198
50518W        W15503  11.646  13.586   4.058
50519W        W15504  33.391  25.741  10.605
50520W        W15505  31.632  36.017  14.793
50521W        W15506  17.256  40.538  10.483
50522W        W15507  21.508  25.566   1.958
50523W        W15508   6.851  25.527   4.062
50524W        W15509  31.480  27.549   2.963
50525W        W15510  13.037  11.218   1.479
50526W        W15511  28.182   9.322  11.285
50527W        W15512  18.777  42.675   5.088
50528W        W15513  39.049  31.182  14.876
50529W        W15514  15.760  41.621   0.974
50530W        W15515  16.591  24.439  12.936
50531W        W15516  16.449  29.462   0.907
50532W        W15517  26.714   8.174   3.189
50533W        W15518   8.711  22.074   2.464
50534W        W15519   3.273  33.836   0.065
50535W        W15520  15.348  39.506   3.144
50536W        W15521  15.838  31.656   0.930
50537W        W15522  19.040  14.747  12.647
50538W        W15523  26.402  15.062  13.774
50539W        W15524   6.629  35.906  11.662
50540W        W15525   4.492  42.317   3.356
50541W        W15526   8.151  18.200  14.769
50542W        W15527  14.867  23.699  10.319
50543W        W15528  14.752  21.010   0.775
50544W        W15529  12.639  33.100  11.144
50545W        W15530  18.682  23.157  13.727
50546W        W15531  42.573   4.338   4.107
50547W        W15532   6.745  37.948  14.421
50548W        W15533  32.931  34.931   1.630
50549W        W15534  31.394  16.239  14.711
50550W        W15535  33.397  30.914  11.453
50551W        W15536  12.347   4.983  12.049
50552W        W15537  33.403  36.153   3.223
50553W        W15538  31.241  37.944   4.554
50554W        W15539  12.816  43.281  12.579
50555W        W15540   5.279  40.874   0.904
50556W        W15541  41.846  17.594  10.583
50557W        W15542   3.164  33.863  11.619
50558W        W15543  21.036  28.677   0.662
50559W        W15544   8.157   1.369   4.374
50560W        W15545  22.430  31.823   2.811
50561W        W15546   5.517   9.834  12.866
50562W        W15547   6.526  26.530   1.287
50563W        W15548  24.036   4.424  10.918
50564W        W15549  10.642  27.897  12.888
50565W        W15550   7.457  27.039   4.148
50566W        W15551   5.782  11.758   3.857
50567W        W15552   2.109  44.782   1.947
50568W        W15553  32.476  43.431  10.753
50569W        W15554   5.302   2.899   0.391
50570W        W15555  17.494  37.432  13.779
50571W        W15556  25.472  42.696   4.579
50572W        W15557  41.979   1.443   0.384
50573W        W15558  36.635   9.568  13.584
50574W        W15559  31.718  15.174  14.570
50575W        W15560  34.127  31.426   2.880
50576W        W15561   6.675  11.339  12.449
50577W        W15562  12.062  12.743  14.720
50578W        W15563  28.182   8.788  14.542
50579W        W15564  24.662   2.918   2.423
50580W        W15565  17.143  15.985  14.031
50581W        W15566  15.643  26.590   2.293
50582W        W15567  29.491  44.483  14.983
50583W        W15568  13.358  37.923  12.145
50584W        W15569  17.384  24.228  11.659
50585W        W15570  12.550  25.072  10.661
50586W        W15571  30.565  32.099   1.151
50587W        W15572  31.631  39.232   3.545
50588W        W15573  31.566  12.372  14.035
50589W        W15574  27.456  10.683  14.534
50590W        W15575  34.270  26.724  14.450
50591W        W15576  35.494   0.474  13.819
50592W        W15577   8.357  14.540   0.371
50593W        W15578  13.913   1.356   4.526
50594W        W15579  13.272  44.016  12.397
50595W        W15580  25.021  44.420  11.979
50596W        W15581  10.202  19.117   3.565
50597W        W15582  39.393   3.680   3.589
50598W        W15583  22.436  35.642  14.381
50599W        W15584  38.762   4.615  12.026
50600W        W15585  37.344  23.050   2.637
50601W        W15586  29.190  12.553  10.883
50602W        W15587  29.484  26.906  11.372
50603W        W15588  31.453  15.888  10.567
50604W        W15589  37.563  25.765   1.345
50605W        W15590  16.571  31.562   4.294
50606W        W15591  23.032  23.913   4.619
50607W        W15592  37.689  26.593   9.964
50608W        W15593  20.790  43.156   3.983
50609W        W15594  28.913   5.313  12.410
50610W        W15595  14.231  44.459  10.525
50611W        W15596  20.531  10.268   1.554
50612W        W15597  42.312   7.124  11.179
50613W        W15598   1.952   0.812   4.138
50614W        W15599  39.157   7.588  10.708
50615W        W15600   7.940   9.349   4.956
50616W        W15601  14.727  12.037   0.645
50617W        W15602  34.816  44.834   1.560
50618W        W15603  19.662  32.581   1.672
50619W        W15604  18.184  28.882   2.298
50620W        W15605  16.312  34.021   2.592
50621W        W15606   7.148  22.508  14.118
50622W        W15607  19.712  30.244   0.326
50623W        W15608   7.118  17.760   0.413
50624W        W15609  12.246  34.951   0.408
50625W        W15610  39.619  42.358  12.721
50626W        W15611   2.976  23.838   0.590
50627W        W15612  32.452  40.062  12.945
50628W        W15613   1.391  14.361   0.576
50629W        W15614   3.717  38.015  13.002
50630W        W15615  41.975  40.722  14.851
50631W        W15616   3.910  17.628   4.407
50632W        W15617  12.793  17.534   1.771
50633W        W15618   7.385  40.562   2.581
50634W        W15619  12.544   2.238   0.084
50635W        W15620  24.204  20.295   2.266
50636W        W15621  10.139  36.602  14.960
50637W        W15622  38.939  34.612   1.414
50638W        W15623   2.787  17.144  14.295
50639W        W15624  10.112  22.781  13.999
50640W        W15625  32.893  43.870  14.892
50641W        W15626   4.161  41.765   3.250
50642W        W15627   3.346  37.072  13.410
50643W        W15628  31.369  25.903   2.642
50644W        W15629   7.688  15.057   0.654
50645W        W15630  33.350  20.801  13.576
50646W        W15631  16.581   6.733  13.829
50647W        W15632  16.497  17.227  14.863
50648W        W15633   5.722  18.781   3.500
50649W        W15634  36.102  15.001   3.727
50650W        W15635   8.821  41.436   3.266
50651W        W15636  13.570  25.824   0.415
50652W        W15637  11.865  17.789   3.125
50653W        W15638  21.561  30.566  12.568
50654W        W15639  19.675  15.963   1.810
50655W        W15640  20.509  42.518   1.715
50656W        W15641  28.885   9.423   0.750
50657W        W15642  25.603  35.683   3.180
50658W        W15643  32.451   1.749   1.391
50659W        W15644   7.039  23.170   4.354
50660W        W15645   7.236   3.764   5.393
50661W        W15646  35.182  34.923   0.175
50662W        W15647   4.933   1.836   4.908
50663W        W15648  29.992  41.976   4.530
50664W        W15649   3.805  26.732   2.257
50665W        W15650  27.393   1.990  11.838
50666W        W15651   4.539  23.103   3.204
50667W        W15652   1.958  13.849   2.030
50668W        W15653   0.414   2.755   2.634
50669W        W15654  26.972   4.329  13.366
50670W        W15655  23.790   8.618   4.500
50671W        W15656  34.399  14.554   4.239
50672W        W15657  17.896  27.066  10.187
50673W        W15658  29.534  27.131  14.941
50674W        W15659  25.435  39.288  12.745
50675W        W15660  16.581  21.101  14.374
50676W        W15661  41.942  43.925  11.211
50677W        W15662  22.479  32.664  13.988
50678W        W15663  31.970   2.171   0.441
50679W        W15664   2.334  19.708   0.725
50680W        W15665  19.751  21.569   0.997
50681W        W15666  17.589  39.745   4.421
50682W        W15667  27.303  27.334   4.460
50683W        W15668  19.405  14.164  11.636
50684W        W15669  12.589  34.349   1.258
50685W        W15670  25.892   8.183  10.817
50686W        W15671   9.007  33.617   1.236
50687W        W15672  41.788   5.026  12.062
50688W        W15673  12.994  31.344  13.831
50689W        W15674  32.521  43.818   1.634
50690W        W15675  39.453   1.166  12.498
50691W        W15676  14.954  30.595   4.317
50692W        W15677  41.775  15.093   4.518
50693W        W15678  33.882   8.342   0.302
50694W        W15679  27.498   8.175   3.540
50695W        W15680   6.316   3.487  12.363
50696W        W15681  44.194  10.905  14.840
50697W        W15682   8.193  29.050   4.038
50698W        W15683  26.760  21.529   0.854
50699W        W15684  14.394  26.234  12.703
50700W        W15685  12.891  32.041  14.932
50701W        W15686  36.912  31.839  12.510
50702W        W15687  10.036   8.452  10.248
50703W        W15688  38.712  38.768  11.617
50704W        W15689   3.820  29.854   4.543
50705W        W15690  43.917  12.822   4.492
50706W        W15691  27.106  16.167   2.996
50707W        W15692  29.596  14.288  14.848
50708W        W15693  43.799  26.645  11.138
50709W        W15694   0.738   1.827   0.763
50710W        W15695  20.309   8.186   3.740
50711W        W15696   8.863  39.987  12.125
50712W        W15697  24.640  36.086   4.609
50713W        W15698  31.154   4.345  14.101
50714W        W15699  13.763  35.090   2.288
50715W        W15700  26.584  37.660   4.244
50716W        W15701  17.670   5.263   2.428
50717W        W15702  27.818  43.845  13.353
50718W        W15703  16.418  26.972  14.901
50719W        W15704  23.661  23.483   2.220
50720W        W15705  22.334  16.785   2.180
50721W        W15706  39.719  42.674   0.491
50722W        W15707   0.291  32.012   2.926
50723W        W15708  18.740   4.054  11.124
50724W        W15709  35.733   3.944  13.631
50725W        W15710  36.053   7.552   2.314
50726W        W15711   2.408   4.658  10.801
50727W        W15712   4.302  14.246  13.066
50728W        W15713  36.889  12.453   3.742
50729W        W15714   5.986  24.022   2.988
50730W        W15715  31.628  26.586  14.333
50731W        W15716  34.020  13.300   4.238
50732W        W15717  24.056  29.353  12.903
50733W        W15718  12.721  25.969   3.077
50734W        W15719  20.012  30.874  12.965
50735W        W15720  26.995  14.601   4.588
50736W        W15721  28.559  30.709   4.165
50737W        W15722  42.214  15.664  14.466
50738W        W15723  10.297  15.627   4.194
50739W        W15724  24.936  26.601  12.499
50740W        W15725  41.557  38.445  14.643
50741W        W15726   9.335  32.819   2.773
50742W        W15727  10.895  32.317  13.394
50743W        W15728  11.235  24.101  12.925
50744W        W15729   9.354  19.981   1.408
50745W        W15730  42.418  16.348   2.742
50746W        W15731  29.095   2.138  13.985
50747W        W15732  33.367  30.924   3.366
50748W        W15733   8.597  30.987  14.358
50749W        W15734  41.014   9.850   5.078
50750W        W15735  11.882  19.541   0.993
50751W        W15736  13.669  14.492  10.676
50752W        W15737  20.783   1.341   2.641
50753W        W15738  12.564  33.950  14.855
50754W        W15739   9.680  39.604  11.631
50755W        W15740  26.994   4.022   2.673
50756W        W15741   2.947  42.925   4.964
50757W        W15742  25.257  38.448   3.159
50758W        W15743  37.345  42.663   3.289
50759W        W15744   6.707   4.992   1.289
50760W        W15745  44.332  10.270  13.415
50761W        W15746  35.940  13.536   0.121
50762W        W15747  15.144  24.291  14.429
50763W        W15748  32.646   7.814   0.256
50764W        W15749  40.695  15.309  14.036
50765W        W15750  13.082  31.143  12.904
50766W        W15751  41.934   8.736   1.856
50767W        W15752   2.708  11.619   4.277
50768W        W15753  39.071  40.705  14.872
50769W        W15754  29.138  44.444   2.226
50770W        W15755  41.361  25.524   0.046
50771W        W15756   1.105  20.748   3.432
50772W        W15757  19.351  36.827  12.634
50773W        W15758  44.774  36.938  13.813
50774W        W15759  34.343  44.998   1.376
50775W        W15760   0.322  27.200  11.324
50776W        W15761  34.618  40.099  12.470
50777W        W15762  31.411  31.042  11.504
50778W        W15763  15.758  15.844   4.148
50779W        W15764  21.262  44.521  14.870
50780W        W15765  16.640  25.605  11.427
50781W        W15766  10.775  19.757   4.593
50782W        W15767  32.074  17.359  13.477
50783W        W15768  43.870   3.804  11.611
50784W        W15769  28.810  17.328   1.402
50785W        W15770  28.943   7.307   1.584
50786W        W15771  20.633  18.084  11.632
50787W        W15772  18.047  19.287  14.466
50788W        W15773  18.485  27.576   2.203
50789W        W15774  18.993   5.246   1.419
50790W        W15775   0.910  16.014   3.698
50791W        W15776  37.100  15.506  11.190
50792W        W15777  40.338   6.689   1.382
50793W        W15778  39.916  17.108   1.752
50794W        W15779  27.336  38.013   0.216
50795W        W15780  28.142   1.474  12.832
50796W        W15781  36.486  18.516  12.355
50797W        W15782   3.196  10.394  13.504
50798W        W15783  13.764  12.177   1.452
50799W        W15784  24.240  43.248  11.174
50800W        W15785  34.576   1.767   1.936
50801W        W15786  28.043  13.611   2.992
50802W        W15787   0.960  39.822  14.089
50803W        W15788  33.394  26.592   3.054
50804W        W15789   2.793  22.482   0.375
50805W        W15790  36.486  16.069   0.767
50806W        W15791   2.359  35.125  12.019
50807W        W15792  35.410   8.418   1.871
50808W        W15793   8.058  10.523   4.077
50809W        W15794  13.366   8.755  11.110
50810W        W15795  24.729  37.364  12.257
50811W        W15796  43.400   3.896   0.407
50812W        W15797  12.123  12.261  14.981
50813W        W15798   9.517  15.949  14.694
50814W        W15799   6.514  32.652   3.263
50815W        W15800  16.088  31.049   4.064
50816W        W15801  12.783   0.632  12.041
50817W        W15802  31.076   6.885  12.019
50818W        W15803   5.294  28.109  11.644
50819W        W15804   0.698  10.650   1.323
50820W        W15805  15.727  29.122   3.063
50821W        W15806  27.687  11.590   3.338
50822W        W15807   0.243  40.822  13.882
50823W        W15808  29.606  35.379   1.949
50824W        W15809  25.500  43.331   1.430
50825W        W15810  16.581   7.870  12.600
50826W        W15811  27.960  42.424  12.091
50827W        W15812  44.860   3.823   2.241
50828W        W15813  42.774  23.681  13.892
50829W        W15814  12.091  15.296  13.924
50830W        W15815  17.345  25.722   3.359
50831W        W15816  40.488  30.913   3.646
50832W        W15817   1.748  38.040  11.984
50833W        W15818   7.913  27.645  14.870
50834W        W15819  34.572  39.585   3.717
50835W        W15820  37.924  11.664  13.422
50836W        W15821  28.258  22.351   3.751
50837W        W15822  19.831   2.883   1.138
50838W        W15823  12.031  33.386  11.188
50839W        W15824  41.677  27.550   5.026
50840W        W15825  34.601  42.230  14.337
50841W        W15826  16.541  26.089   4.523
50842W        W15827  39.234   9.873  12.884
50843W        W15828   3.248  14.647  12.815
50844W        W15829  10.695  43.491  11.808
50845W        W15830  32.012   4.705  10.333
50846W        W15831   5.956  33.033   1.476
50847W        W15832  26.221  11.487   0.237
50848W        W15833  19.602  19.695   1.879
50849W        W15834  30.483   9.768   2.528
50850W        W15835  11.445  44.349   2.277
50851W        W15836  44.546  18.111  12.459
50852W        W15837  38.463  10.382  12.960
50853W        W15838   4.303  19.307   0.394
50854W        W15839  27.051  22.460   2.556
50855W        W15840   4.709   5.294   0.185
50856W        W15841  25.804  37.713  14.967
50857W        W15842   9.255  37.398  11.975
50858W        W15843  26.172  24.217   4.454
50859W        W15844  13.423  21.075   3.209
50860W        W15845  11.440  24.695   3.579
50861W        W15846  20.127  27.718   4.296
50862W        W15847  38.153  43.427   4.263
50863W        W15848   2.144  40.992   0.769
50864W        W15849  11.677  30.506   4.625
50865W        W15850  18.517  34.998  10.426
50866W        W15851  21.296  22.343   2.709
50867W        W15852   5.714  23.258  11.997
50868W        W15853  28.564  19.026  11.586
50869W        W15854  24.012  13.868   4.066
50870W        W15855  43.197  24.639   4.172
50871W        W15856  43.477  32.665  10.363
50872W        W15857  33.325  41.660   3.727
50873W        W15858  23.970  34.973  14.765
50874W        W15859  36.054  24.912  12.158
50875W        W15860   6.977  14.440   0.701
50876W        W15861  36.475  22.500   2.759
50877W        W15862  13.330  10.335   4.125
50878W        W15863  21.522  21.046  10.795
50879W        W15864  17.615  16.765  12.872
50880W        W15865  23.928  28.641   0.062
50881W        W15866  30.619  33.160  11.191
50882W        W15867   9.152   1.518   3.853
50883W        W15868  17.601  43.723  10.610
50884W        W15869  25.556   3.388   3.324
50885W        W15870  31.064   7.234   2.765
50886W        W15871   9.442  42.055  13.425
50887W        W15872   9.808   0.350   2.570
50888W        W15873  14.475  25.310   2.216
50889W        W15874  15.107  26.771  14.947
50890W        W15875  28.083  20.535  13.667
50891W        W15876  28.653  35.184   2.124
50892W        W15877  27.656  30.398   1.314
50893W        W15878   9.725  14.729  14.414
50894W        W15879  37.000   8.633   3.199
50895W        W15880  25.774  14.958  12.899
50896W        W15881   0.894  14.138   4.144
50897W        W15882  44.848  33.994  11.403
50898W        W15883  41.891  24.294   4.877
50899W        W15884   0.853  24.489   0.944
50900W        W15885  43.741   0.271   3.202
50901W        W15886  19.210   6.222   1.364
50902W        W15887  19.256  38.711   0.373
50903W        W15888  37.445  28.693   4.527
50904W        W15889  20.205   8.329   1.586
50905W        W15890   7.348  41.758  12.483
50906W        W15891  29.654  33.448  12.615
50907W        W15892  25.915  23.073   3.815
50908W        W15893  25.960  23.753  14.723
50909W        W15894  41.337   8.302   2.343
50910W        W15895  37.374   6.531   1.796
50911W        W15896  10.257  14.394   3.666
50912W        W15897  28.077  18.691   3.167
50913W        W15898   5.674  32.684   2.242
50914W        W15899  15.102  26.060   1.731
50915W        W15900   3.457   4.243   3.636
50916W        W15901  41.940  18.846  11.111
50917W        W15902   1.414  26.629  10.862
50918W        W15903  31.404  14.044   4.578
50919W        W15904  21.651   6.306  14.300
50920W        W15905  41.708  22.315  11.907
50921W        W15906  25.432  19.775  14.694
50922W        W15907  10.636  13.135  11.349
50923W        W15908  11.723  36.817  10.841
50924W        W15909  18.195   8.225  13.686
50925W        W15910  32.883  20.640  11.596
50926W        W15911  16.272  32.077   2.350
50927W        W15912  16.677   0.440   0.337
50928W        W15913  23.510  12.746  10.636
50929W        W15914   2.838   5.333   4.106
50930W        W15915  27.503  12.160   0.882
50931W        W15916  34.610  24.070   4.099
50932W        W15917  25.055  35.042   2.115
50933W        W15918  43.503  30.071   1.391
50934W        W15919  12.263  35.157  11.272
50935W        W15920  28.098  42.540   2.752
50936W        W15921  43.213  29.095  13.915
50937W        W15922  29.504  34.638  11.537
50938W        W15923  10.867   1.636   3.379
50939W        W15924  14.871   6.953  12.609
50940W        W15925   0.386  43.530  13.043
50941W        W15926  42.317  11.892   3.613
50942W        W15927  25.900   4.844  11.926
50943W        W15928  23.302   9.660   3.677
50944W        W15929  11.845   3.755  11.121
50945W        W15930  24.907  39.371  13.548
50946W        W15931  43.223   2.792  12.635
50947W        W15932  25.485  30.526  12.530
50948W        W15933  39.523  36.163  14.025
50949W        W15934  38.283  33.862   1.627
50950W        W15935   5.332  14.084  13.052
50951W        W15936  41.967  30.844  12.520
50952W        W15937  43.294  31.256   0.888
50953W        W15938  36.150  38.824   4.164
50954W        W15939  16.634  20.704   1.132
50955W        W15940  41.355  19.841  12.392
50956W        W15941  20.222  17.060   3.291
50957W        W15942  19.233  24.175   4.403
50958W        W15943  30.182   3.852  11.579
50959W        W15944  13.405   9.563  14.917
50960W        W15945  34.638  18.245   4.894
50961W        W15946   6.413  34.281  11.528
50962W        W15947  40.321  38.925   2.076
50963W        W15948  30.102   2.470  14.632
50964W        W15949   1.384   4.412  12.054
50965W        W15950  24.166  34.154  14.465
50966W        W15951   2.465   8.584   0.804
50967W        W15952   4.066  40.922   2.890
50968W        W15953  26.782  38.767  12.041
50969W        W15954   7.884  23.066  14.434
50970W        W15955   8.273  38.542  12.133
50971W        W15956  21.091  24.012   0.917
50972W        W15957  29.404  29.044  13.464
50973W        W15958  25.288   6.260   4.101
50974W        W15959  36.559  43.079  10.929
50975W        W15960   7.957   6.514  14.030
50976W        W15961   4.420  41.858  13.363
50977W        W15962  33.634   3.253  12.541
50978W        W15963  19.368   7.159   1.380
50979W        W15964   3.633  20.579   1.654
50980W        W15965  44.501  30.095  12.315
50981W        W15966   2.697  39.760  12.938
50982W        W15967  44.981   3.874   0.875
50983W        W15968  24.667  18.015  12.938
50984W        W15969  10.557  10.134  12.099
50985W        W15970  38.885   2.729   3.031
50986W        W15971  19.665  12.252  12.891
50987W        W15972  33.801  29.707  10.275
50988W        W15973  14.102  39.997   4.140
50989W        W15974  12.456  10.372   0.194
50990W        W15975  11.315  32.286   1.888
50991W        W15976   6.767  27.032   1.860
50992W        W15977   6.243  13.405  11.194
50993W        W15978  23.100  40.303  14.807
50994W        W15979  16.702  11.874   1.172
50995W        W15980   3.239   8.864   0.358
50996W        W15981  32.881  23.201   2.791
50997W        W15982  14.292  16.775   2.944
50998W        W15983  23.904  31.043   5.066
50999W        W15984   1.000   6.209  14.344
51000W        W15985  19.144   4.648  12.235
51001W        W15986   9.517   2.711  11.033
51002W        W15987   5.131  27.677  12.646
51003W        W15988  13.554   6.732  11.058
51004W        W15989  11.649   2.916   5.254
51005W        W15990  36.000  31.164  12.564
51006W        W15991  14.411  29.147   4.509
51007W        W15992  19.059   0.855   1.759
51008W        W15993  32.715  26.089   3.152
51009W        W15994  17.312  18.392  11.979
51010W        W15995   6.402  12.351  14.453
51011W        W15996   7.263  29.208   3.933
51012W        W15997  40.190  44.959   4.685
51013W        W15998   1.475   0.445  12.776
51014W        W15999  40.336  41.979  10.704
51015W        W16000   1.033  42.498  14.413
51016W        W16001  33.444   3.345  12.071
51017W        W16002  30.706  41.361   1.811
51018W        W16003  11.624  27.865   4.292
51019W        W16004  42.147  41.217  14.887
51020W        W16005  17.253   2.704  14.340
51021W        W16006  20.527  12.217   2.321
51022W        W16007  27.582   1.460   1.456
51023W        W16008  41.037  20.732   2.363
51024W        W16009  22.651  42.698   4.634
51025W        W16010  11.691   6.624   4.556
51026W        W16011  19.128  27.572   1.275
51027W        W16012  34.482  19.780  14.745
51028W        W16013   1.316  10.250   4.538
51029W        W16014  22.706   1.809  14.247
51030W        W16015  42.164  18.219   4.060
51031W        W16016  38.130  26.501  10.235
51032W        W16017   4.222  36.571  13.735
51033W        W16018  37.261  43.570   3.285
51034W        W16019  32.846  38.622   1.933
51035W        W16020  12.170  14.226   2.241
51036W        W16021  29.611   3.309   2.111
51037W        W16022  40.331   1.790  11.161
51038W        W16023  30.375   6.941   4.668
51039W        W16024  33.692  32.835   0.833
51040W        W16025  20.909  43.967  12.718
51041W        W16026  16.739   2.327   4.849
51042W        W16027  19.666  34.650  10.506
51043W        W16028  40.865  23.515  13.874
51044W        W16029  13.734  41.316  11.384
51045W        W16030  33.014  20.849   1.230
51046W        W16031  40.666  38.492   2.001
51047W        W16032  29.116  30.718  13.995
51048W        W16033  40.867  21.596  13.374
51049W        W16034  20.485  44.777   2.966
51050W        W16035  16.236  43.914   0.062
51051W        W16036  19.141  26.443   2.097
51052W        W16037  29.099   3.092  10.753
51053W        W16038  25.499  12.426   0.353
51054W        W16039  31.477  22.855  13.042
51055W        W16040  22.976  39.547  13.418
51056W        W16041  38.434   9.210   4.763
51057W        W16042  27.824  22.334   1.959
51058W        W16043  12.164  38.585   2.706
51059W        W16044  40.539  33.120   4.802
51060W        W16045   9.416  37.537  12.515
51061W        W16046  27.929  28.997  12.979
51062W        W16047  24.748   4.419   1.757
51063W        W16048   2.952  27.049  14.210
51064W        W16049   3.551  42.940  14.519
51065W        W16050  10.172  38.040   2.667
51066W        W16051   1.247  20.398   2.492
51067W        W16052  32.785  10.642  14.287
51068W        W16053   8.286  43.195  13.002
51069W        W16054  21.939  27.067   2.266
51070W        W16055   2.540  13.950   4.141
51071W        W16056  21.093  39.915   4.295
51072W        W16057  15.488   3.007   3.223
51073W        W16058  26.257  38.519   2.231
51074W        W16059   7.517  29.943  12.066
51075W        W16060   7.624   7.243   3.777
51076W        W16061  29.459  22.501  12.909
51077W        W16062   8.087  17.034   3.760
51078W        W16063  12.830  43.188   2.610
51079W        W16064  16.276  38.014   2.178
51080W        W16065  37.068  10.249  14.628
51081W        W16066  13.176   7.068   3.385
51082W        W16067  11.250  32.333  11.655
51083W        W16068  31.407  12.510  11.497
51084W        W16069  29.415  35.417   0.428
51085W        W16070   3.352  23.105  12.203
51086W        W16071  30.078  35.505   1.188
51087W        W16072  18.514  21.866   2.784
51088W        W16073  21.139   4.785  11.363
51089W        W16074  43.325   2.420  13.986
51090W        W16075  34.516  21.002   3.196
51091W        W16076  17.664  28.501  14.187
51092W        W16077  14.350  18.069   2.369
51093W        W16078  11.277  43.276  11.003
51094W        W16079  19.088  32.430   0.390
51095W        W16080  34.369  10.944  10.619
51096W        W16081   3.754  42.414   2.769
51097W        W16082  14.607  38.545   4.715
51098W        W16083   2.427  35.525  14.834
51099W        W16084   2.753   1.433   1.700
51100W        W16085  34.269  42.507  12.663
51101W        W16086  44.501   2.258   3.686
51102W        W16087  18.348  22.721  14.847
51103W        W16088  36.520   1.953  13.346
51104W        W16089  35.015  43.793  12.604
51105W        W16090  12.798  12.722   3.330
51106W        W16091  37.676  30.161   2.771
51107W        W16092   9.098  32.095  11.439
51108W        W16093  11.485  30.084  14.763
51109W        W16094  33.076  35.894  13.874
51110W        W16095   0.193  11.427   4.844
51111W        W16096  27.630  42.693   1.876
51112W        W16097  16.186  21.292  14.615
51113W        W16098  43.985  29.669  13.436
51114W        W16099   8.493   7.647  13.330
51115W        W16100  23.065  43.189   2.646
51116W        W16101   0.073  18.754   2.319
51117W        W16102  29.376   7.245  12.461
51118W        W16103  17.010  24.917  12.119
51119W        W16104   5.940  12.140   0.514
51120W        W16105  32.961  10.184  12.892
51121W        W16106  21.982  23.193   4.186
51122W        W16107  24.404  25.996   1.620
51123W        W16108  21.752   8.944  12.922
51124W        W16109  19.173  38.816  13.833
51125W        W16110  22.961  21.691   0.194
51126W        W16111  16.326   8.532  14.210
51127W        W16112  16.944  22.157  13.297
51128W        W16113  19.733  18.436  12.135
51129W        W16114  15.830  12.180  12.544
51130W        W16115  16.728  13.279  11.574
51131W        W16116  28.651  13.606  14.449
51132W        W16117   4.480   8.848  12.968
51133W        W16118   8.418  30.065  13.357
51134W        W16119  17.172  28.698   9.996
51135W        W16120  38.858  32.509  13.034
51136W        W16121  41.635  40.578  11.947
51137W        W16122   3.056   5.301   0.484
51138W        W16123  35.202  11.471   4.406
51139W        W16124  24.569  35.364   0.363
51140W        W16125  12.933  24.834  13.974
51141W        W16126  44.874  17.108   4.551
51142W        W16127  24.687  20.261   3.928
51143W        W16128  20.353   0.852  14.397
51144W        W16129  14.661  30.125   2.614
51145W        W16130  37.432   6.159  12.247
51146W        W16131  29.760  42.291  13.847
51147W        W16132  12.922  19.772   0.285
51148W        W16133  28.755  11.575  14.932
51149W        W16134  38.044  12.775  13.991
51150W        W16135   5.443  33.632   3.595
51151W        W16136  17.797   0.784  11.171
51152W        W16137  44.793  28.696   2.288
51153W        W16138  10.108  41.569  11.674
51154W        W16139  17.563   2.748  11.207
51155W        W16140  35.108  10.645   2.854
51156W        W16141  29.956   0.206  14.981
51157W        W16142  41.961   9.229   3.165
51158W        W16143  39.359  18.180   5.512
51159W        W16144  10.160  20.012  12.443
51160W        W16145  14.249  38.891   0.752
51161W        W16146  27.974  35.983   2.375
51162W        W16147  37.393   5.779  14.585
51163W        W16148  23.888  16.983   0.492
51164W        W16149  25.405  40.443  10.801
51165W        W16150  33.287  11.879  12.927
51166W        W16151  31.574  44.788  14.031
51167W        W16152  32.321  28.643   3.976
51168W        W16153   1.998  33.534   1.367
51169W        W16154   0.882  41.054   0.398
51170W        W16155  15.244  29.153  12.060
51171W        W16156  31.907  43.034   2.595
51172W        W16157  23.535  16.264   1.215
51173W        W16158  20.252   9.173   3.708
51174W        W16159  28.405  21.817   0.831
51175W        W16160  13.076  16.933   2.312
51176W        W16161   9.834   3.843  14.756
51177W        W16162  25.131  28.477  13.083
51178W        W16163  29.438  39.022  12.469
51179W        W16164   0.385  37.163   1.101
51180W        W16165  17.001  20.668   0.205
51181W        W16166  38.656  35.571   5.377
51182W        W16167   1.766  28.432  12.148
51183W        W16168   6.641  18.165  14.782
51184W        W16169  10.823  18.868   0.393
51185W        W16170  43.956  30.167  11.109
51186W        W16171   4.685   0.272  11.550
51187W        W16172  38.514  22.998   0.922
51188W        W16173  33.304  31.788   9.953
51189W        W16174  43.944  44.518   4.280
51190W        W16175   0.473   9.272  14.436
51191W        W16176   8.307  25.501   1.277
51192W        W16177   6.586   5.523   1.299
51193W        W16178  40.145  15.522  14.495
51194W        W16179  25.311  39.917  14.027
51195W        W16180   8.625  36.021   0.562
51196W        W16181  13.254  26.004   3.882
51197W        W16182  23.093   0.600  14.530
51198W        W16183  10.589  37.606  11.498
51199W        W16184  41.956   1.343   3.111
51200W        W16185  27.268   9.897   2.832
51201W        W16186   0.206  31.899   3.429
51202W        W16187  35.356  16.271   1.704
51203W        W16188  30.786  20.332   3.095
51204W        W16189  12.898   9.359  14.469
51205W        W16190   1.062   5.920  12.086
51206W        W16191   9.197  14.790   3.281
51207W        W16192  24.460  16.305  11.510
51208W        W16193  43.964  16.636   2.413
51209W        W16194  38.391   8.246  10.542
51210W        W16195  19.329   4.198   2.160
51211W        W16196  41.818   4.217   2.930
51212W        W16197  26.741  34.396  13.446
51213W        W16198  36.359   4.860  12.871
51214W        W16199  22.510  17.075   0.411
51215W        W16200  29.378  38.527   0.744
51216W        W16201  27.122   5.726  13.033
51217W        W16202  10.910   3.272   2.167
51218W        W16203  26.563  38.556   3.684
51219W        W16204  33.380   1.772   0.882
51220W        W16205  29.272  16.757  13.481
51221W        W16206  18.191   6.206  13.935
51222W        W16207  34.546  43.920  12.373
51223W        W16208  44.077   8.206  10.486
51224W        W16209  29.510  20.154  14.769
51225W        W16210  24.424  32.031   0.977
51226W        W16211   9.726  34.615  12.585
51227W        W16212  16.508  38.991   2.946
51228W        W16213  44.724  30.449  10.653
51229W        W16214  17.810  14.182   1.830
51230W        W16215  14.663   3.472  13.263
51231W        W16216  14.001   7.195   1.421
51232W        W16217  19.615  29.400   4.953
51233W        W16218  18.338  34.598  13.545
51234W        W16219  44.779  18.137   0.323
51235W        W16220  36.890  15.118   0.773
51236W        W16221   1.926  43.995  11.682
51237W        W16222  39.716  15.778  12.866
51238W        W16223  40.579  37.569   2.603
51239W        W16224  42.261  25.556  13.022
51240W        W16225   4.859  14.616   1.241
51241W        W16226  14.890   8.303  13.917
51242W        W16227  29.960  14.511  13.814
51243W        W16228  12.287  14.957  11.103
51244W        W16229   6.911   3.771   3.397
51245W        W16230   2.462  12.831   0.470
51246W        W16231   8.462  12.702   2.221
51247W        W16232  25.624  27.130  10.666
51248W        W16233  29.257  28.319   0.157
51249W        W16234  37.297  29.627   3.557
51250W        W16235  34.915  17.307  10.315
51251W        W16236  20.025   9.660   3.780
51252W        W16237  13.224  16.092  12.097
51253W        W16238  37.601   1.919  14.058
51254W        W16239  26.149   1.972  13.997
51255W        W16240  20.969   1.391  12.075
51256W        W16241  34.446   0.507   4.492
51257W        W16242  43.951  23.234  11.961
51258W        W16243  34.008   2.640  14.652
51259W        W16244  39.242  24.042   3.037
51260W        W16245   2.277  38.586   2.896
51261W        W16246   0.587   3.955  12.075
51262W        W16247  24.954  23.400   2.378
51263W        W16248  34.457  21.283   1.817
51264W        W16249  20.520  31.496  13.546
51265W        W16250  16.952  33.469  13.859
51266W        W16251   7.468  21.990   4.530
51267W        W16252  30.856   1.860   0.729
51268W        W16253  26.933   6.417   1.152
51269W        W16254  10.623  16.303   0.749
51270W        W16255  39.902   3.440  12.413
51271W        W16256  26.497  26.063   3.226
51272W        W16257  34.812  43.344  13.504
51273W        W16258   5.338  38.488   4.132
51274W        W16259  20.694  35.972   0.964
51275W        W16260  31.651  34.185  11.747
51276W        W16261  11.608   8.712  13.432
51277W        W16262  30.229   9.247  13.522
51278W        W16263  20.086  32.499   2.379
51279W        W16264  25.394  20.246   3.361
51280W        W16265  17.740  21.698  13.440
51281W        W16266  34.829  13.814   3.792
51282W        W16267  39.825   4.518   3.643
51283W        W16268  14.656   1.888   1.807
51284W        W16269  13.609  24.953   0.069
51285W        W16270  36.723  13.743   4.200
51286W        W16271   6.174  15.576  12.870
51287W        W16272  42.860  22.695  10.640
51288W        W16273  20.096  19.042   1.340
51289W        W16274  29.111  17.715   1.608
51290W        W16275  25.611   0.442  11.554
51291W        W16276   3.860   3.215  13.278
51292W        W16277  22.860  23.730  11.247
51293W        W16278  43.054  22.955   0.980
51294W        W16279   2.799  25.880  10.755
51295W        W16280  39.500  36.390  11.729
51296W        W16281  28.573  27.184  12.903
51297W        W16282  23.430  18.714   1.651
51298W        W16283  17.827   9.835  11.200
51299W        W16284  38.051   8.447  13.023
51300W        W16285  31.333  40.290   2.812
51301W        W16286  33.803  16.605  13.492
51302W        W16287  22.664  30.233  11.382
51303W        W16288  17.142  18.135   1.323
51304W        W16289   8.627  21.766  12.157
51305W        W16290  40.790  13.040  11.935
51306W        W16291  42.006  20.081   0.245
51307W        W16292  38.053  40.542  12.182
51308W        W16293  44.800  15.133  11.747
51309W        W16294  12.180  29.533   4.170
51310W        W16295  42.325  43.241   0.302
51311W        W16296   1.259  12.160   0.436
51312W        W16297  35.885  24.030  13.271
51313W        W16298  19.612  39.550  14.980
51314W        W16299  21.461  26.925  11.531
51315W        W16300  44.335  25.711   3.781
51316W        W16301  21.282  31.987  13.838
51317W        W16302  23.000   3.977   3.666
51318W        W16303  39.293  10.343  11.156
51319W        W16304  31.587   0.191   5.064
51320W        W16305  31.688  42.363  14.756
51321W        W16306  39.319  40.766   1.927
51322W        W16307  15.626  38.355   2.281
51323W        W16308  16.512  37.787   0.343
51324W        W16309  26.974  41.407   0.566
51325W        W16310  11.378  40.001   1.829
51326W        W16311  14.350  18.573   2.326
51327W        W16312  19.044  26.694   3.183
51328W        W16313  22.078  16.294   2.882
51329W        W16314   0.228  12.079   2.920
51330W        W16315  33.951  28.560   4.142
51331W        W16316  28.949   0.428   0.912
51332W        W16317   7.528  35.412   2.784
51333W        W16318  15.549  44.266   0.894
51334W        W16319  19.610  11.218  12.483
51335W        W16320  12.357  34.925   4.618
51336W        W16321  24.227  29.655  12.515
51337W        W16322  44.137   7.017  11.055
51338W        W16323  43.480  37.626  13.044
51339W        W16324  39.479  44.770   3.690
51340W        W16325  38.892  10.312  14.929
51341W        W16326  41.882  24.138  14.794
51342W        W16327   9.163  18.583  13.400
51343W        W16328  38.958  16.625   1.688
51344W        W16329  12.719   9.735   3.669
51345W        W16330  43.331  28.472   4.531
51346W        W16331  41.545  22.485  11.140
51347W        W16332  25.975  22.046   0.781
51348W        W16333  24.344  17.727  10.415
51349W        W16334  14.316  23.542   0.523
51350W        W16335  31.919  21.304  13.769
51351W        W16336   5.385   0.294   3.197
51352W        W16337  37.839  41.640   1.210
51353W        W16338  37.397   6.517  12.589
51354W        W16339  19.643  41.556  12.125
51355W        W16340  31.889   5.839   3.820
51356W        W16341  19.724  12.728   4.754
51357W        W16342  16.303  21.607  13.667
51358W        W16343  37.076   3.312   3.317
51359W        W16344  10.177  17.643  14.352
51360W        W16345  44.819  33.898  14.315
51361W        W16346   7.743   5.626   1.770
51362W        W16347  16.277  20.187   4.271
51363W        W16348   2.422   9.922   1.156
51364W        W16349  23.611  37.660   4.586
51365W        W16350  31.420   3.666   2.869
51366W        W16351  27.089   0.213   4.975
51367W        W16352  18.617  10.667   1.741
51368W        W16353   7.369  28.051   2.559
51369W        W16354  23.286  24.959  14.788
51370W        W16355  31.938   8.735  13.873
51371W        W16356  42.796  36.556   3.006
51372W        W16357  35.885   9.848   2.793
51373W        W16358   5.207  24.016  14.801
51374W        W16359   1.952  25.184   2.750
51375W        W16360   3.991  24.463  12.514
51376W        W16361  18.142  23.242  14.028
51377W        W16362   2.498  29.914   4.142
51378W        W16363  22.601  33.563  12.422
51379W        W16364  11.868  17.416  10.430
51380W        W16365  19.637  36.438   1.665
51381W        W16366  38.315  43.246   0.462
51382W        W16367   8.519   4.888   2.246
51383W        W16368  28.182   7.494  10.316
51384W        W16369  25.547  26.286  13.972
51385W        W16370  30.595  16.729   3.194
51386W        W16371  32.569   1.372   4.642
51387W        W16372  38.641  21.607   0.350
51388W        W16373  26.416  12.397   4.591
51389W        W16374  30.267  17.708  13.464
51390W        W16375  36.525   6.909  12.662
51391W        W16376   0.683   8.831   3.811
51392W        W16377  22.107   8.311   2.507
51393W        W16378  24.554   4.955  14.903
51394W        W16379  10.214  25.642   4.499
51395W        W16380  23.647  35.026   4.500
51396W        W16381  28.385  37.998  10.548
51397W        W16382  11.217   4.263  10.850
51398W        W16383  19.849  34.010  13.837
51399W        W16384  17.668   8.656  12.446
51400W        W16385   3.819   8.289  13.264
51401W        W16386  19.729  17.173   1.384
51402W        W16387  44.710  40.472  10.665
51403W        W16388  15.028  34.059   2.508
51404W        W16389  16.330  10.416  12.264
51405W        W16390   6.705  23.783   2.374
51406W        W16391   4.937   9.490  11.043
51407W        W16392   6.444   7.511   0.462
51408W        W16393  41.083  10.804   4.801
51409W        W16394  44.348  14.424  11.184
51410W        W16395  12.201   4.748  13.444
51411W        W16396   5.218  22.780  10.683
51412W        W16397  11.573  39.739  14.096
51413W        W16398  18.588  42.415  13.078
51414W        W16399   1.265  30.167   2.281
51415W        W16400  35.619  22.959  12.383
51416W        W16401  26.171  26.113   1.359
51417W        W16402  39.255  34.317  10.634
51418W        W16403  40.014  14.586   4.156
51419W        W16404  36.932   4.762   1.220
51420W        W16405  19.337  27.315  13.436
51421W        W16406  32.913  28.405  12.919
51422W        W16407  43.020  10.245  13.013
51423W        W16408  11.667  21.077  11.065
51424W        W16409  19.428   7.012   3.617
51425W        W16410  24.566  41.370   2.710
51426W        W16411  29.256  36.579  11.759
51427W        W16412  38.630  19.959  11.608
51428W        W16413  25.634  10.306   3.100
51429W        W16414   4.096  15.239  11.483
51430W        W16415  14.433   2.268   4.481
51431W        W16416   3.543  22.561  14.146
51432W        W16417  24.448  16.832   4.584
51433W        W16418  43.323   5.239  13.375
51434W        W16419  35.513  30.046  12.588
51435W        W16420  34.112  29.437   0.307
51436W        W16421  15.810  15.164   3.122
51437W        W16422  13.896  16.355   4.643
51438W        W16423  22.161  16.391   3.404
51439W        W16424  20.679   8.632  13.338
51440W        W16425  26.957  30.063  12.061
51441W        W16426  37.454  10.125   4.602
51442W        W16427  42.599  13.839   2.443
51443W        W16428  40.879  32.150  11.294
51444W        W16429  22.465  15.998  14.982
51445W        W16430   9.256  20.897   3.093
51446W        W16431  30.084  28.146   2.178
51447W        W16432  37.478  17.084  12.542
51448W        W16433  31.253  26.226  13.906
51449W        W16434  14.976  11.324  13.455
51450W        W16435   2.156  18.194   0.389
51451W        W16436  28.248   2.765   5.346
51452W        W16437  14.848   1.480  12.544
51453W        W16438  29.714  14.063   2.168
51454W        W16439  13.799  16.031   4.225
51455W        W16440  14.691  37.659   3.044
51456W        W16441  37.981  16.059   2.790
51457W        W16442  20.686  21.496   1.340
51458W        W16443  12.076  27.271  14.312
51459W        W16444   1.331   1.294   3.457
51460W        W16445   8.309  43.312  11.925
51461W        W16446  41.903  12.210   0.103
51462W        W16447  19.059   6.706   2.327
51463W        W16448   4.207  28.138  12.514
51464W        W16449  24.978   7.650   4.405
51465W        W16450   0.107  29.853  14.753
51466W        W16451  35.335  43.516  10.814
51467W        W16452  12.192  13.340   3.256
51468W        W16453  42.404  31.428   3.738
51469W        W16454  18.585  43.896  13.962
51470W        W16455   3.745  10.690   4.595
51471W        W16456  44.901  11.202  11.670
51472W        W16457  25.714   1.497  13.479
51473W        W16458   7.213  12.763  10.596
51474W        W16459   8.173   4.470  13.983
51475W        W16460  13.151   1.998   4.141
51476W        W16461   0.974   8.350   0.041
51477W        W16462  33.544  32.160  10.946
51478W        W16463  39.003  10.124   1.800
51479W        W16464  17.959   2.721   4.277
51480W        W16465  43.067  22.770   3.420
51481W        W16466   3.812  13.582  12.545
51482W        W16467  35.401   9.778   0.355
51483W        W16468  25.216  22.529  12.806
51484W        W16469  40.378  32.074   2.736
51485W        W16470  36.067  29.422   0.980
51486W        W16471  23.154  14.781   3.912
51487W        W16472   4.474  35.565   2.638
51488W        W16473   3.243   9.664  14.825
51489W        W16474   9.670  43.493   3.643
51490W        W16475  38.014  36.892   3.466
51491W        W16476   6.410  38.021  12.027
51492W        W16477  29.368  14.215  11.252
51493W        W16478  14.572  44.797  13.043
51494W        W16479   7.120  38.167  13.384
51495W        W16480   5.402  13.399  13.493
51496W        W16481  11.712  32.128  13.109
51497W        W16482   8.918  15.637   5.057
51498W        W16483  26.032  34.946  11.640
51499W        W16484  21.262  13.456  14.565
51500W        W16485  38.482   0.006   4.123
51501W        W16486  23.642  20.788  10.717
51502W        W16487  36.779  37.357   5.134
51503W        W16488  40.339   9.053   1.273
51504W        W16489  14.623  43.514  12.484
51505W        W16490  40.468  39.964   1.392
51506W        W16491  40.090  35.064   1.963
51507W        W16492  42.853  38.832   2.214
51508W        W16493  21.067  17.825   3.455
51509W        W16494  23.693   4.436   2.426
51510W        W16495  19.099  30.547   2.275
51511W        W16496  38.428  15.235  11.214
51512W        W16497  28.079  17.990   4.410
51513W        W16498  23.068  24.943   3.305
51514W        W16499  43.804  10.925  13.911
51515W        W16500  29.955   9.922   1.394
51516W        W16501  14.524   2.388   1.750
51517W        W16502   1.743  14.108  12.316
51518W        W16503   4.929  34.645  12.866
51519W        W16504   5.504  21.779  10.991
51520W        W16505  30.005  23.887  14.443
51521W        W16506   6.881  10.314  11.955
51522W        W16507  23.667  13.134  12.090
51523W        W16508  42.527   4.017  11.412
51524W        W16509  25.630  30.756  12.973
51525W        W16510  28.052  17.651  14.435
51526W        W16511  18.735  34.960   4.306
51527W        W16512  40.059  20.153  13.399
51528W        W16513  22.179   0.634   0.408
51529W        W16514  36.031  19.234   2.418
51530W        W16515  26.653  18.192  14.035
51531W        W16516  28.177  29.502   4.563
51532W        W16517   5.269  26.525  10.963
51533W        W16518  34.342   4.174  10.972
51534W        W16519  15.334  29.619  12.975
51535W        W16520  33.987  44.203   1.722
51536W        W16521  18.730  44.893  10.887
51537W        W16522  15.216   9.442   1.255
51538W        W16523  14.662  34.104  12.106
51539W        W16524   9.391  19.459   1.247
51540W        W16525  37.233  23.671  14.927
51541W        W16526  33.133  30.891  12.932
51542W        W16527   0.368  11.754  11.905
51543W        W16528  35.731  32.367  12.958
51544W        W16529  30.801   0.025  12.873
51545W        W16530  20.344  43.914   2.328
51546W        W16531  27.678  23.654  10.613
51547W        W16532  29.651  28.960   5.022
51548W        W16533  40.228   3.291   4.034
51549W        W16534  35.473  25.145  11.545
51550W        W16535   3.144  37.920  11.560
51551W        W16536  38.902  20.776   2.785
51552W        W16537  19.433   3.982  11.704
51553W        W16538  40.836  18.538   1.392
51554W        W16539   9.777  19.327  11.738
51555W        W16540  27.684  21.876  10.572
51556W        W16541  14.063  33.063  14.924
51557W        W16542  18.260  14.649   4.039
51558W        W16543  15.047  20.575  12.347
51559W        W16544  36.763  40.280   2.850
51560W        W16545  10.268  42.610  14.505
51561W        W16546   0.490   3.695  13.452
51562W        W16547  35.902  32.265   2.137
51563W        W16548   1.759   2.294   2.425
51564W        W16549  12.168   4.662   3.369
51565W        W16550  36.405  34.102   3.327
51566W        W16551  16.373  31.957  13.972
51567W        W16552   2.443  10.459   3.799
51568W        W16553  33.089  35.563   0.478
51569W        W16554  32.212  44.129   9.952
51570W        W16555   4.607  16.047  14.327
51571W        W16556   3.480  31.010   1.711
51572W        W16557  44.447   9.674   1.356
51573W        W16558  24.477  41.775  14.690
51574W        W16559   9.478  17.909   0.937
51575W        W16560   4.435  24.448   2.106
51576W        W16561   9.926  16.862   1.679
51577W        W16562  12.812  29.638  14.489
51578W        W16563  12.716  37.789  11.501
51579W        W16564  15.206   3.436   4.861
51580W        W16565  22.161  36.850   1.256
51581W        W16566   7.714   3.802  13.069
51582W        W16567  29.468  30.465   2.694
51583W        W16568  29.878  17.512   2.217
51584W        W16569   3.361  36.087  12.574
51585W        W16570  42.791  36.671   4.532
51586W        W16571  23.243  25.759   2.964
51587W        W16572  38.388  37.429   2.208
51588W        W16573  26.714   6.329   4.832
51589W        W16574  19.695  10.438   4.446
51590W        W16575   8.347   9.340   3.375
51591W        W16576  16.441  22.749  11.594
51592W        W16577  27.734  16.794   2.780
51593W        W16578   7.460  38.417  14.340
51594W        W16579  36.752  40.906  12.943
51595W        W16580  18.025  19.920  13.763
51596W        W16581  15.970  37.649  11.239
51597W        W16582  25.617  42.286  13.407
51598W        W16583  11.259   2.780   1.595
51599W        W16584  30.806  37.261   0.881
51600W        W16585   9.765  37.322   2.257
51601W        W16586   9.440  11.150   4.219
51602W        W16587   2.984  23.616  10.388
51603W        W16588  19.259  11.738   2.839
51604W        W16589   9.628  39.453  13.096
51605W        W16590   7.189  27.129   2.173
51606W        W16591  40.540  11.619  14.947
51607W        W16592  32.300  41.518  13.901
51608W        W16593  24.045  39.582  14.981
51609W        W16594  13.082  26.186  14.553
51610W        W16595  27.049   0.193  11.526
51611W        W16596  15.787   3.757  13.909
51612W        W16597  35.604  30.150  13.504
51613W        W16598  37.377  15.685  12.103
51614W        W16599   1.814  11.246   0.071
51615W        W16600  32.494   3.959  14.562
51616W        W16601   1.690  35.558  11.268
51617W        W16602  20.219   7.069   4.074
51618W        W16603  11.778  31.908  10.760
51619W        W16604  22.470  37.275   1.273
51620W        W16605   4.630  42.303  10.238
51621W        W16606  32.514  16.172   4.302
51622W        W16607  12.571  16.669  14.518
51623W        W16608   5.282  21.575  12.877
51624W        W16609   6.783   8.666   2.591
51625W        W16610  15.903   5.746  13.557
51626W        W16611  18.115  34.835  14.007
51627W        W16612   1.725  40.116  12.060
51628W        W16613   1.273  23.567  13.642
51629W        W16614  21.719   1.732   3.253
51630W        W16615  38.048   3.074   0.646
51631W        W16616  16.566  23.737   0.821
51632W        W16617  19.016   3.176  13.217
51633W        W16618  41.308  23.348  11.719
51634W        W16619  28.922  22.497   1.216
51635W        W16620  32.120  34.143  11.927
51636W        W16621  28.115  19.678   4.443
51637W        W16622  35.403  39.399  14.111
51638W        W16623  29.567  22.538   3.192
51639W        W16624  43.455  29.285  13.360
51640W        W16625  11.483  31.510  13.750
51641W        W16626   0.383  12.436   0.689
51642W        W16627  38.028  22.468  12.048
51643W        W16628  35.428  36.247   3.079
51644W        W16629  34.669  28.040   2.240
51645W        W16630  37.956  29.272  11.348
51646W        W16631   7.868  29.041   2.192
51647W        W16632   0.365  33.553   1.241
51648W        W16633   0.080  38.350   0.013
51649W        W16634   3.688  25.740   0.870
51650W        W16635  29.993   7.599  14.359
51651W        W16636   2.231  30.154  11.138
51652W        W16637   1.607  44.530  11.216
51653W        W16638  34.955  19.609   4.587
51654W        W16639  15.594  26.476  11.220
51655W        W16640  13.135  38.387  13.500
51656W        W16641  38.904  24.939  10.323
51657W        W16642  28.021  31.694   2.675
51658W        W16643  31.652  21.136   1.196
51659W        W16644  10.689  10.233   1.581
51660W        W16645  23.019  21.704  13.392
51661W        W16646  20.969  21.372   2.735
51662W        W16647  35.091  11.852  13.364
51663W        W16648  42.844  22.979   0.486
51664W        W16649   3.959   1.339  13.184
51665W        W16650  32.423   2.744  13.887
51666W        W16651  38.520  41.238   1.964
51667W        W16652  38.024  12.771   3.130
51668W        W16653   7.228  20.245  11.321
51669W        W16654  18.264  17.226   1.868
51670W        W16655  39.077  19.373   4.457
51671W        W16656  10.199  30.405  14.519
51672W        W16657  11.759  11.836  14.456
51673W        W16658   4.396  19.544  10.785
51674W        W16659   0.398  27.490  14.976
51675W        W16660  16.785  44.331   1.408
51676W        W16661   9.206  16.254  14.266
51677W        W16662  13.992  37.421   1.420
51678W        W16663  20.346   7.299  10.656
51679W        W16664  26.746  37.914   0.086
51680W        W16665  41.635   3.565   0.731
51681W        W16666  23.544  42.447  12.741
51682W        W16667   1.628  27.068  12.539
51683W        W16668  43.813  42.414   1.224
51684W        W16669  37.826  25.623  14.912
51685W        W16670  21.305  11.217   0.207
51686W        W16671  28.290   4.261  10.909
51687W        W16672  34.220   1.439  11.962
51688W        W16673  11.496  27.006  11.107
51689W        W16674  14.134  43.501   4.155
51690W        W16675   6.980  23.473  14.895
51691W        W16676  38.759  18.785   4.505
51692W        W16677   1.147  40.952  14.967
51693W        W16678  41.297  17.865   2.760
51694W        W16679  15.155  43.846  14.517
51695W        W16680  29.720  34.157  11.393
51696W        W16681  14.987  22.231  14.861
51697W        W16682   3.698  32.289  11.052
51698W        W16683  39.352  41.303   4.804
51699W        W16684  44.452  35.274  12.288
51700W        W16685   8.331   7.612  12.499
51701W        W16686   5.138  23.499  11.189
51702W        W16687  19.756  30.625  13.636
51703W        W16688  40.921  40.291  12.960
51704W        W16689   9.225  37.487   3.702
51705W        W16690  19.533   2.496   2.393
51706W        W16691  30.065   4.362  11.634
51707W        W16692  25.559  31.952  13.596
51708W        W16693   9.008   5.037   2.046
51709W        W16694  12.143  11.280   2.153
51710W        W16695  42.412   0.029  11.531
51711W        W16696  19.276  29.021   3.934
51712W        W16697  13.769   9.818   4.528
51713W        W16698  20.119   8.059  12.137
51714W        W16699  20.525  30.500   2.518
51715W        W16700  16.768  27.184  14.599
51716W        W16701  24.091  40.393  12.246
51717W        W16702  13.218  25.555   4.123
51718W        W16703  42.009  26.242  13.526
51719W        W16704  37.339  42.324  10.742
51720W        W16705  43.959  16.618   0.875
51721W        W16706   0.906  10.852   1.757
51722W        W16707   5.170   0.909   1.362
51723W        W16708  41.884  35.143  12.939
51724W        W16709  19.212  19.180  14.965
51725W        W16710   1.311   1.246  14.772
51726W        W16711  42.912  41.189   5.055
51727W        W16712  36.747  33.357  11.999
51728W        W16713  30.491  23.628   2.624
51729W        W16714   4.925  28.162   1.843
51730W        W16715   1.810  41.344  14.589
51731W        W16716   9.220  13.383   4.576
51732W        W16717  39.912  11.536   0.667
51733W        W16718  39.776  13.958  10.722
51734W        W16719  40.003  36.556   4.611
51735W        W16720   3.832  40.598  12.111
51736W        W16721  15.842  15.500  11.565
51737W        W16722   6.231  16.655   3.586
51738W        W16723   0.741  10.771   4.932
51739W        W16724  37.824  33.581  10.678
51740W        W16725  31.490   9.662   0.794
51741W        W16726  24.345  44.560   2.389
51742W        W16727   8.684  12.748  13.369
51743W        W16728  10.482  27.062  12.848
51744W        W16729   0.302  16.978  14.773
51745W        W16730  28.181  28.107  11.212
51746W        W16731  29.675  13.535  12.367
51747W        W16732  43.256   8.706  13.408
51748W        W16733  44.981  21.117   4.280
51749W        W16734  11.431  36.281  14.388
51750W        W16735   5.153   5.436  14.972
51751W        W16736   4.805  13.756  11.983
51752W        W16737  26.373   5.376  11.939
51753W        W16738   7.243  37.665  14.916
51754W        W16739  40.532  19.048   3.732
51755W        W16740  42.852   3.618  11.323
51756W        W16741  41.862  13.364  14.831
51757W        W16742  40.576  16.323   0.848
51758W        W16743  12.201  39.971   3.869
51759W        W16744  32.802  20.500  13.026
51760W        W16745  26.185  11.986  12.674
51761W        W16746  20.944  12.207  11.109
51762W        W16747  27.995  27.887   4.704
51763W        W16748  40.962  44.455  12.982
51764W        W16749   0.830  18.349  10.669
51765W        W16750  26.557  11.807  13.579
51766W        W16751  13.874  13.692  11.660
51767W        W16752  13.427  11.663  10.745
51768W        W16753  21.589  22.506  13.347
51769W        W16754  27.007   2.342   0.854
51770W        W16755   6.752   4.405   2.152
51771W        W16756   5.845  10.327   1.513
51772W        W16757   2.595  12.612  11.213
51773W        W16758  10.632   6.030  14.840
51774W        W16759  43.955  28.847   1.321
51775W        W16760  42.518   5.817   0.698
51776W        W16761  40.538   0.007  14.079
51777W        W16762  14.395  32.190  14.855
51778W        W16763  39.449  12.337   0.640
51779W        W16764  19.136  20.475  12.553
51780W        W16765   6.729  41.816  14.083
51781W        W16766  33.739  33.496   2.202
51782W        W16767  17.860  27.072   1.772
51783W        W16768  42.072  17.669  13.903
51784W        W16769   7.435   4.012  12.123
51785W        W16770  41.930   1.142  13.179
51786W        W16771   7.187  14.910   0.744
51787W        W16772  42.403  12.909   0.374
51788W        W16773  28.574  40.047  11.467
51789W        W16774   7.674  24.966  14.313
51790W        W16775  10.175   6.074  11.401
51791W        W16776   4.743  27.476   4.249
51792W        W16777  12.529  16.969   3.430
51793W        W16778  39.282  35.524  12.950
51794W        W16779   1.136  12.933  11.621
51795W        W16780  31.921  41.363   1.282
51796W        W16781  42.551  15.615   0.939
51797W        W16782  23.298  36.718  12.084
51798W        W16783   8.924   6.165   2.939
51799W        W16784  29.527  22.539  11.539
51800W        W16785  12.619  44.594  11.965
51801W        W16786  30.866  17.161  14.907
51802W        W16787  17.903  44.784   0.275
51803W        W16788  24.303  26.584   4.718
51804W        W16789  24.521  29.468   4.487
51805W        W16790   7.688  26.636  10.303
51806W        W16791  18.449  28.382  11.515
51807W        W16792  41.534  20.343  10.531
51808W        W16793  11.685  40.353   1.129
51809W        W16794  39.620  22.126  11.123
51810W        W16795  33.152  26.541  14.368
51811W        W16796  20.491  16.504   1.864
51812W        W16797  23.778  31.896  12.741
51813W        W16798  39.930  28.452   1.105
51814W        W16799   3.650  34.972   1.401
51815W        W16800   0.712  27.170  12.582
51816W        W16801  16.796  14.660  14.797
51817W        W16802  36.876  19.062  11.152
51818W        W16803   0.455  13.067   4.410
51819W        W16804   4.898  24.397  10.826
51820W        W16805  11.096   1.562   1.730
51821W        W16806  22.302  24.097  13.382
51822W        W16807   5.892  33.475   4.221
51823W        W16808  21.981  43.548  12.047
51824W        W16809  15.570   0.979   2.396
51825W        W16810   8.872   8.099  14.903
51826W        W16811  13.881  12.044   3.461
51827W        W16812  39.923  18.557  14.495
51828W        W16813   6.281  27.465   4.011
51829W        W16814  40.058  20.229   3.780
51830W        W16815  20.120  31.425   3.929
51831W        W16816  21.241  37.860  12.880
51832W        W16817  12.211  23.755   1.631
51833W        W16818  29.991  24.091   3.297
51834W        W16819  38.714   4.928  11.017
51835W        W16820  28.786  44.048   3.186
51836W        W16821  16.342  40.979  12.426
51837W        W16822   4.276  38.500  13.520
51838W        W16823  35.070  32.511  11.802
51839W        W16824  12.811  42.280   2.349
51840W        W16825  28.673  17.235   3.770
51841W        W16826  12.268  16.121  14.259
51842W        W16827  19.624  15.834  14.434
51843W        W16828  38.061  38.937  12.923
51844W        W16829  13.231   2.770  14.717
51845W        W16830  38.567  40.556  13.480
51846W        W16831  38.729  13.106   3.150
51847W        W16832  23.155   9.877  13.822
51848W        W16833  34.026  29.619   1.797
51849W        W16834   7.084   0.277  13.704
51850W        W16835  18.598  18.133  12.154
51851W        W16836  43.269  23.140  12.479
51852W        W16837  18.895   3.474   3.908
51853W        W16838  16.770   4.753   4.053
51854W        W16839  13.181  20.273   0.655
51855W        W16840  33.455  30.802   3.928
51856W        W16841  17.571  32.553   3.676
51857W        W16842  39.446  12.919  11.631
51858W        W16843  19.672   9.271  12.930
51859W        W16844  44.499  17.687  11.996
51860W        W16845  19.123   4.752  14.007
51861W        W16846  15.530  30.580  12.986
51862W        W16847  15.820   9.730  10.702
51863W        W16848  19.773  29.292   4.070
51864W        W16849  40.830  33.520   0.739
51865W        W16850  30.881  19.877  10.729
51866W        W16851  31.619  44.250   2.000
51867W        W16852  12.686  11.934  11.337
51868W        W16853   7.605  11.197  13.892
51869W        W16854   6.684  17.896  13.574
51870W        W16855  26.477   9.114   4.350
51871W        W16856  16.328   1.619  11.556
51872W        W16857   2.797  34.982   1.351
51873W        W16858   6.223  20.496  14.460
51874W        W16859   6.004  23.224  14.077
51875W        W16860   4.834  14.249  10.550
51876W        W16861  15.795   8.360   2.735
51877W        W16862  31.153   6.187   2.700
51878W        W16863  25.146  16.754   0.213
51879W        W16864  44.139   5.467  13.995
51880W        W16865  31.420   4.399  10.414
51881W        W16866  30.435  11.426  10.586
51882W        W16867  19.793   8.252   3.758
51883W        W16868  22.753  44.964   0.484
51884W        W16869   6.474   8.069   1.362
51885W        W16870  41.461  21.948  13.842
51886W        W16871  39.012   6.235  13.301
51887W        W16872   7.408  17.080  11.751
51888W        W16873  34.941  17.114   0.852
51889W        W16874  16.650  17.231  12.910
51890W        W16875  36.298   6.657  13.495
51891W        W16876  14.080  15.027  14.019
51892W        W16877  36.759  44.608   9.807
51893W        W16878  40.716  24.952  14.783
51894W        W16879  16.819   1.846  13.784
51895W        W16880   3.679  38.061   3.328
51896W        W16881  10.998  13.754   3.699
51897W        W16882  16.125  15.518  11.140
51898W        W16883   0.304  39.111  13.388
51899W        W16884  36.275  13.751  10.660
51900W        W16885  38.094  15.598  11.329
51901W        W16886   9.195  18.734  14.272
51902W        W16887  24.475  25.238  14.452
51903W        W16888  36.851  42.372   2.687
51904W        W16889  27.546  16.199   4.276
51905W        W16890   1.463  15.679  10.262
51906W        W16891  42.187  17.854   0.910
51907W        W16892  17.515  32.502  14.000
51908W        W16893   8.154  25.537   0.274
51909W        W16894  13.398  30.836   2.805
51910W        W16895  25.193  30.746  14.314
51911W        W16896   6.325   8.704  12.710
51912W        W16897  23.142  19.389   4.972
51913W        W16898  44.962  29.970  10.680
51914W        W16899  21.059  23.794   4.675
51915W        W16900  15.931  24.139  11.458
51916W        W16901  10.310  11.615  11.620
51917W        W16902  41.582  43.372  12.504
51918W        W16903  38.880  13.335  12.120
51919W        W16904  32.410  34.003  12.322
51920W        W16905  14.567  14.301  12.120
51921W        W16906  40.506  15.293  13.566
51922W        W16907  35.200  21.480   0.457
51923W        W16908  22.145  20.855   3.751
51924W        W16909  33.093   5.443   3.400
51925W        W16910  23.750  15.310   0.853
51926W        W16911  27.563  22.713  11.950
51927W        W16912   0.373  44.297  13.726
51928W        W16913  31.905  31.928  11.632
51929W        W16914  40.613  23.105  10.582
51930W        W16915  29.888  37.660  12.410
51931W        W16916  35.494  28.296   2.361
51932W        W16917   6.802  33.514  13.886
51933W        W16918   2.851   0.966   1.861
51934W        W16919  17.223  36.558   0.359
51935W        W16920   9.186   9.253  10.589
51936W        W16921   2.518  13.708  12.486
51937W        W16922  13.446  14.173   0.620
51938W        W16923   2.809  34.814   3.690
51939W        W16924  36.082   9.476  13.861
51940W        W16925  38.611   0.798  12.333
51941W        W16926  13.338   9.259  13.552
51942W        W16927  44.918  40.835  14.334
51943W        W16928  13.809  24.125   4.553
51944W        W16929  38.076  25.964   3.767
51945W        W16930  11.991  33.186   1.276
51946W        W16931  41.780  19.206   2.279
51947W        W16932   4.272  40.379  14.443
51948W        W16933  15.398  35.561   1.140
51949W        W16934  44.713  38.375   3.973
51950W        W16935  42.176   5.355  10.690
51951W        W16936  38.381  16.213  11.531
51952W        W16937  41.947  12.343  10.007
51953W        W16938  43.275  26.729  12.048
51954W        W16939  38.189   2.862   1.881
51955W        W16940   2.301  39.834  14.289
51956W        W16941  16.664  13.840   2.224
51957W        W16942  41.965  33.582  11.601
51958W        W16943  12.617  43.044  11.137
51959W        W16944   7.122   8.043   3.638
51960W        W16945   8.655  33.963   1.471
51961W        W16946  41.990  36.056   1.960
51962W        W16947  38.331   2.183   3.443
51963W        W16948  23.711   5.418   0.900
51964W        W16949  16.847  39.508   2.115
51965W        W16950  21.139  22.797  10.712
51966W        W16951  29.488   1.210   4.195
51967W        W16952  17.300  40.881  11.820
51968W        W16953  20.971   4.589   3.199
51969W        W16954  11.354  41.986  13.219
51970W        W16955  40.551  15.541   3.814
51971W        W16956   5.197  27.164  12.513
51972W        W16957  41.542   4.854   3.287
51973W        W16958  25.198  23.151  12.680
51974W        W16959  14.813  36.542  10.819
51975W        W16960  39.538  28.630   2.382
51976W        W16961  36.151  17.025  10.734
51977W        W16962  37.004  38.982  14.910
51978W        W16963  16.253  22.957  13.444
51979W        W16964  32.586   6.207   0.766
51980W        W16965  36.903  35.010   4.629
51981W        W16966  21.595  33.444   3.674
51982W        W16967   6.181  28.157  13.333
51983W        W16968   1.112  19.842  11.198
51984W        W16969  27.045  42.987  13.775
51985W        W16970   7.442  14.707   0.316
51986W        W16971  43.872  13.888   2.391
51987W        W16972  12.621  40.759  11.524
51988W        W16973   0.332  13.528  11.660
51989W        W16974  42.901  23.906   4.107
51990W        W16975  22.541   4.226   4.666
51991W        W16976  39.607  44.363  14.366
51992W        W16977  11.207  36.448   4.640
51993W        W16978  11.080  18.543   2.720
51994W        W16979  12.468  15.033   2.631
51995W        W16980  34.466  12.546   1.743
51996W        W16981   7.861  27.952  10.917
51997W        W16982  25.529  19.586   2.864
51998W        W16983   8.436  41.276  13.816
51999W        W16984  21.793  27.052   0.563
52000W        W16985  25.755  38.073  13.124
52001W        W16986  13.192  34.205   0.777
52002W        W16987  33.747  42.294  13.530
52003W        W16988  15.865  36.028   4.764
52004W        W16989   0.146  24.538   2.599
52005W        W16990  43.846   4.926   3.306
52006W        W16991   7.379  42.796   3.888
52007W        W16992  35.773  27.209  14.074
52008W        W16993  13.067   8.368  14.307
52009W        W16994  18.692  12.401  12.905
52010W        W16995  27.181  10.084   2.320
52011W        W16996  20.575  44.345   0.310
52012W        W16997  16.737  42.917   3.566
52013W        W16998  37.958  21.107   4.808
52014W        W16999  36.393   4.720   1.273
52015W        W17000  31.457  29.030   0.372
52016W        W17001  36.548  15.174  12.906
52017W        W17002   0.955  15.117  10.085
52018W        W17003  23.035   2.854   4.427
52019W        W17004  40.424  33.980  14.093
52020W        W17005  12.743  21.642  14.902
52021W        W17006  23.625   0.394   0.090
52022W        W17007  35.029   2.674  14.933
52023W        W17008  11.977  36.200   3.189
52024W        W17009  13.830  29.937  10.323
52025W        W17010   0.776  36.874   4.099
52026W        W17011  35.889  12.178   1.461
52027W        W17012  23.736  33.443   1.718
52028W        W17013  31.418   6.920  11.555
52029W        W17014  37.465   2.309   4.986
52030W        W17015  18.332  16.002   0.561
52031W        W17016  39.512  38.624  12.220
52032W        W17017  28.461  19.242   2.135
52033W        W17018  20.270  19.833  13.278
52034W        W17019  40.341  14.442   4.533
52035W        W17020   6.230  41.746   0.467
52036W        W17021  20.002   2.746   3.465
52037W        W17022  18.835   8.910  13.861
52038W        W17023  34.468   3.136  10.991
52039W        W17024   5.838  39.164   0.355
52040W        W17025  26.022  44.993  13.547
52041W        W17026  31.659  28.459  13.402
52042W        W17027  33.772  39.008   4.004
52043W        W17028  12.101  43.430  12.133
52044W        W17029  35.619   1.715   3.790
52045W        W17030  40.434  23.513  10.237
52046W        W17031  29.824   4.190  14.229
52047W        W17032  25.192  28.126   3.222
52048W        W17033   2.771  22.901   4.986
52049W        W17034  38.971  40.953   4.295
52050W        W17035  44.349  44.211   3.479
52051W        W17036  24.676  27.184  10.648
52052W        W17037  26.913  11.169  13.345
52053W        W17038  14.010   1.037  12.422
52054W        W17039  38.346  25.094   3.285
52055W        W17040   7.445  28.127  14.412
52056W        W17041   6.591  33.452  12.969
52057W        W17042  20.661  23.167   0.684
52058W        W17043  20.561  39.263  12.166
52059W        W17044   9.187  35.116  13.442
52060W        W17045  35.408  34.630  14.060
52061W        W17046  44.781   8.429  11.184
52062W        W17047  11.717   8.210   0.786
52063W        W17048  32.344  13.390  12.900
52064W        W17049  41.895  31.835   4.767
52065W        W17050  41.927  22.082   3.254
52066W        W17051  36.461  38.375  12.508
52067W        W17052  39.331  44.894   1.241
52068W        W17053  42.051  26.258  14.967
52069W        W17054  40.896  24.795   3.359
52070W        W17055  31.188  13.714  11.363
52071W        W17056  16.756  14.108  12.556
52072W        W17057   6.700  13.553   0.870
52073W        W17058  12.279  19.034  12.238
52074W        W17059  35.483  33.983   3.454
52075W        W17060  11.641  40.124  13.756
52076W        W17061  34.411  41.409   0.483
52077W        W17062  28.186   5.180  14.122
52078W        W17063  36.951  14.302  10.779
52079W        W17064  19.310  43.295  13.826
52080W        W17065  13.723  26.643  11.668
52081W        W17066  43.444  23.351  12.003
52082W        W17067  22.620  11.521   2.348
52083W        W17068  19.865   6.735  13.000
52084W        W17069  35.314  36.386  12.350
52085W        W17070  28.168  20.502  14.670
52086W        W17071  23.674  24.446   0.864
52087W        W17072  24.196  12.735  14.094
52088W        W17073  35.131   4.460  10.704
52089W        W17074  11.287  11.573   0.580
52090W        W17075  25.471  22.567  11.677
52091W        W17076  38.484  38.780  12.518
52092W        W17077  39.381  18.347  13.126
52093W        W17078  41.332   2.798  11.063
52094W        W17079  11.628  13.259   2.720
52095W        W17080  38.420  30.510  10.969
52096W        W17081   8.101   6.922   2.267
52097W        W17082  32.936  19.917  12.967
52098W        W17083  34.006  15.180  12.022
52099W        W17084  14.813  19.239  10.327
52100W        W17085  15.682  18.403   2.173
52101W        W17086  19.788  27.647  14.384
52102W        W17087  26.163  41.775   0.117
52103W        W17088  29.949  37.450   3.109
52104W        W17089  10.651   5.979  11.149
52105W        W17090  32.485  30.895   3.147
52106W        W17091  19.058   0.146  14.321
52107W        W17092  26.005  10.216   1.260
52108W        W17093  32.837  13.344  12.138
52109W        W17094  31.497   6.740  14.278
52110W        W17095  42.335  41.553   4.299
52111W        W17096  29.478  37.559   3.674
52112W        W17097  12.412  20.006   0.248
52113W        W17098  44.207   9.360  10.943
52114W        W17099  40.559  23.784   1.118
52115W        W17100  41.513   2.485  11.409
52116W        W17101  14.539   0.951   4.263
52117W        W17102  18.887  11.000   3.072
52118W        W17103  15.317   1.024  11.348
52119W        W17104  26.872  44.729  12.543
52120W        W17105  27.386  23.178   0.003
52121W        W17106  34.189  43.800   0.062
52122W        W17107  23.013  37.329  13.818
52123W        W17108  25.725  28.397  11.110
52124W        W17109  16.156  13.295   4.711
52125W        W17110  40.892  41.822   2.453
52126W        W17111  23.984  23.865  14.108
52127W        W17112   1.333  21.115   2.868
52128W        W17113  43.075  31.228   0.379
52129W        W17114  31.418   7.624   4.176
52130W        W17115  32.704  15.118  14.473
52131W        W17116  33.119  22.588   1.853
52132W        W17117   4.736  42.023   5.049
52133W        W17118  33.145   8.878  12.599
52134W        W17119   4.693  17.725   0.482
52135W        W17120  36.424  34.891  14.493
52136W        W17121  15.132  39.157  13.838
52137W        W17122  15.339  38.940   4.747
52138W        W17123   9.609   2.060  14.938
52139W        W17124  34.594  42.283  12.969
52140W        W17125   4.971  21.139   4.965
52141W        W17126  13.199  39.278   0.787
52142W        W17127  30.430   9.469   4.579
52143W        W17128  14.672  23.559  13.707
52144W        W17129  23.088  22.894  11.189
52145W        W17130  35.287  38.363  11.658
52146W        W17131  38.732  24.048  10.850
52147W        W17132   9.180   6.326  12.458
52148W        W17133  34.961  35.677   3.343
52149W        W17134  15.967  17.042   3.747
52150W        W17135  28.019  21.942   4.135
52151W        W17136  18.058  35.445   4.519
52152W        W17137  29.628   1.253  13.971
52153W        W17138   1.185  25.612   0.067
52154W        W17139   3.983  37.541  13.014
52155W        W17140  15.897  25.168  14.747
52156W        W17141  37.020  19.694   0.878
52157W        W17142  33.699   4.261   1.549
52158W        W17143  25.620  18.325   0.057
52159W        W17144   7.679  41.444   2.316
52160W        W17145  29.536  17.761   4.619
52161W        W17146  43.898  22.496   3.702
52162W        W17147  42.455  32.507  13.897
52163W        W17148  41.664   6.368   1.490
52164W        W17149  24.882  35.775   0.293
52165W        W17150   8.832  43.466  11.959
52166W        W17151  23.232  35.495  14.725
52167W        W17152  15.675  27.014  13.306
52168W        W17153  14.644  44.320   0.955
52169W        W17154   2.734  19.517  12.649
52170W        W17155  35.564  20.858   4.996
52171W        W17156  35.505  37.880   4.616
52172W        W17157  35.890   3.940   1.141
52173W        W17158   8.005  24.711  13.409
52174W        W17159  11.082  19.805   0.024
52175W        W17160  20.116  12.282  11.185
52176W        W17161   2.948  35.277  13.893
52177W        W17162  44.316  31.995  11.214
52178W        W17163  26.212  13.196   4.880
52179W        W17164  32.984   3.198   9.866
52180W        W17165  13.261  22.656  11.403
52181W        W17166  37.532   4.175   2.839
52182W        W17167   2.876   9.811  11.673
52183W        W17168  35.898  33.303  14.563
52184W        W17169  18.698  23.754  11.392
52185W        W17170  30.280  22.754  12.037
52186W        W17171   5.526   0.547   1.476
52187W        W17172   5.851  28.406  10.657
52188W        W17173  17.443   7.389   0.049
52189W        W17174  23.167  29.605  14.339
52190W        W17175  22.212   8.320   0.388
52191W        W17176  33.280  31.424   0.830
52192W        W17177   4.875  38.371   0.256
52193W        W17178  42.064  32.702  11.633
52194W        W17179  17.804  29.128   0.681
52195W        W17180  27.152   8.340  13.052
52196W        W17181  38.313   7.179   1.455
52197W        W17182  17.178  18.164  11.513
52198W        W17183  10.694  37.730   0.887
52199W        W17184  42.886   7.157   3.286
52200W        W17185  11.733   4.929  10.686
52201W        W17186   3.450  16.619   0.426
52202W        W17187  21.013  44.643   2.199
52203W        W17188  17.523  44.081  13.162
52204W        W17189  19.135   1.626   2.296
52205W        W17190  30.018   3.108   5.030
52206W        W17191  23.243  34.105  10.232
52207W        W17192  44.315  10.959  13.930
52208W        W17193  38.596  33.938  14.225
52209W        W17194  12.743  32.124  13.365
52210W        W17195  13.700   0.022   3.686
52211W        W17196  35.943  33.535   1.372
52212W        W17197  37.793  38.268  12.384
52213W        W17198  41.002   7.458   2.419
52214W        W17199  13.317  11.918   0.302
52215W        W17200  16.187  41.851  14.404
52216W        W17201  35.595  41.119   4.723
52217W        W17202  36.116  21.116   4.554
52218W        W17203  20.071  22.543  11.610
52219W        W17204  37.189   7.678  12.189
52220W        W17205  36.986  20.964  12.026
52221W        W17206  33.167  36.734   4.216
52222W        W17207  19.673  27.317   4.885
52223W        W17208   9.737   1.265   2.407
52224W        W17209  28.564  11.762  13.046
52225W        W17210  41.005  24.571   1.842
52226W        W17211  15.302  26.603  14.434
52227W        W17212   0.704  25.210  14.348
52228W        W17213  37.540  24.667  13.617
52229W        W17214  15.908  16.748  12.422
52230W        W17215  16.645  13.085  14.810
52231W        W17216  15.765   8.098  13.626
52232W        W17217   0.448  18.268  10.301
52233W        W17218  34.189  24.412   3.806
52234W        W17219  37.917  29.625   2.781
52235W        W17220  41.449  40.778  14.830
52236W        W17221   1.189  27.469  13.115
52237W        W17222  40.994   9.094  14.482
52238W        W17223  10.095  35.878  12.572
52239W        W17224  18.000  18.289   2.727
52240W        W17225  36.278  41.967  11.600
52241W        W17226  22.934  30.981   0.264
52242W        W17227  31.611   6.180  14.925
52243W        W17228   4.673  32.897   5.154
52244W        W17229  35.521  30.048   0.397
52245W        W17230  12.128  13.428   1.749
52246W        W17231  29.247  18.710  13.047
52247W        W17232  29.271   9.194  13.145
52248W        W17233  28.989   7.196  10.983
52249W        W17234  26.813  13.069  11.433
52250W        W17235  34.483  38.564   0.397
52251W        W17236   4.060  34.036   0.392
52252W        W17237  15.573  21.432   5.036
52253W        W17238  22.621  39.232  13.964
52254W        W17239  30.016  20.141  11.713
52255W        W17240  32.874  31.057   1.276
52256W        W17241  13.236  19.716   4.683
52257W        W17242  39.084  41.210  14.719
52258W        W17243  23.237  29.378  13.329
52259W        W17244  18.576  25.958  14.959
52260W        W17245   9.427  20.042  14.859
52261W        W17246   8.854  25.917   0.464
52262W        W17247  24.910  35.641   1.452
52263W        W17248   6.938  13.452  13.775
52264W        W17249  39.585  17.802   2.190
52265W        W17250  33.913  11.315  11.963
52266W        W17251   4.631   2.210   5.034
52267W        W17252   2.354  29.661  11.102
52268W        W17253   2.091  26.696   3.687
52269W        W17254  26.704  32.385  14.765
52270W        W17255  34.989  24.696   0.714
52271W        W17256   6.255  20.267  10.655
52272W        W17257  23.049  44.828   3.832
52273W        W17258  35.069   4.797  13.566
52274W        W17259  22.316   8.947  11.694
52275W        W17260  41.236  11.475   1.779
52276W        W17261  19.804  12.484   0.040
52277W        W17262  12.972  31.110   0.561
52278W        W17263  23.513  26.603   3.671
52279W        W17264   7.061  15.079   4.428
52280W        W17265  21.079   7.644  12.091
52281W        W17266  24.471   3.784   2.359
52282W        W17267  17.967   4.651  11.236
52283W        W17268  21.741  23.494   3.544
52284W        W17269  35.407   0.833  10.776
52285W        W17270   0.044  22.066  11.768
52286W        W17271  44.452  18.519   0.943
52287W        W17272   2.346  41.095   0.282
52288W        W17273  19.697  23.687  14.306
52289W        W17274   5.953  44.445  12.029
52290W        W17275  26.506  13.764  14.327
52291W        W17276  15.306  36.999   3.230
52292W        W17277  41.482  11.661  14.716
52293W        W17278  24.209  33.002  13.874
52294W        W17279  42.339  12.860  10.761
52295W        W17280   1.961  13.685   2.758
52296W        W17281  15.853  12.195   3.338
52297W        W17282  44.765  17.876   2.461
52298W        W17283  27.674  33.391   2.214
52299W        W17284   1.709  27.041  14.471
52300W        W17285  31.555  11.202  13.033
52301W        W17286  30.038  30.320  11.251
52302W        W17287  16.603  40.104  14.124
52303W        W17288  11.157  36.045   0.102
52304W        W17289   4.979   4.793   2.071
52305W        W17290  22.488  14.807  13.575
52306W        W17291  30.573  39.083   1.031
52307W        W17292  38.050  40.848  14.728
52308W        W17293  12.419   3.056  14.743
52309W        W17294  11.297  35.767   4.009
52310W        W17295   9.981   5.832   9.971
52311W        W17296  37.494  36.268   1.786
52312W        W17297   0.508   8.653   1.445
52313W        W17298  13.374  44.597  10.733
52314W        W17299  32.841  30.456  12.929
52315W        W17300  14.936  33.095  13.849
52316W        W17301   2.484  17.375   2.977
52317W        W17302  42.535  40.084  14.512
52318W        W17303  17.101  33.995  14.503
52319W        W17304  40.738  26.726  12.824
52320W        W17305  20.198   2.704  11.868
52321W        W17306   1.473   8.917   3.196
52322W        W17307  11.648  14.674  14.984
52323W        W17308   6.549  32.691   0.741
52324W        W17309  13.141   3.234  11.203
52325W        W17310  34.389  38.100  14.580
52326W        W17311   8.147  12.835  14.380
52327W        W17312   5.964  12.402   2.943
52328W        W17313  32.653  14.581  10.677
52329W        W17314  26.585  12.247  12.480
52330W        W17315   1.191  12.129   1.298
52331W        W17316  14.531   6.279   2.498
52332W        W17317  15.334   8.832   3.550
52333W        W17318  11.044  22.810   4.083
52334W        W17319  21.007  11.592   2.664
52335W        W17320  41.473   6.922  12.839
52336W        W17321  13.139  41.386   2.417
52337W        W17322  40.984  33.994  10.654
52338W        W17323  25.446   2.255   1.759
52339W        W17324  10.977  25.722   1.582
52340W        W17325   0.284  17.200  14.313
52341W        W17326  21.161  32.190  13.346
52342W        W17327  25.741   9.820  14.424
52343W        W17328  34.164  24.439  10.733
52344W        W17329  29.001  32.890   2.426
52345W        W17330   3.761  10.676  14.107
52346W        W17331  12.692   9.740  11.927
52347W        W17332  43.230   6.203   2.773
52348W        W17333   8.641  19.791  11.306
52349W        W17334  24.450  28.885  12.611
52350W        W17335  31.853  39.569   3.164
52351W        W17336  21.257  23.574   3.407
52352W        W17337  15.066  14.130  14.758
52353W        W17338  10.320  17.336  10.368
52354W        W17339  21.045  33.362  12.594
52355W        W17340  24.701  30.663   2.228
52356W        W17341  43.981  26.179   5.078
52357W        W17342  33.018  32.162  12.552
52358W        W17343  31.042  16.040  12.830
52359W        W17344   5.260  37.807  14.083
52360W        W17345   5.201   7.822   3.599
52361W        W17346  19.549  27.645   4.239
52362W        W17347  12.385  21.249   2.407
52363W        W17348  10.235   1.288  14.088
52364W        W17349  17.296  44.827   3.579
52365W        W17350  18.705  18.252  11.660
52366W        W17351  16.970   0.957  13.323
52367W        W17352  33.981  44.447   0.349
52368W        W17353  41.521  22.717  12.155
52369W        W17354   5.032  10.647   2.249
52370W        W17355   0.553  12.153   4.999
52371W        W17356  38.232  24.469   0.331
52372W        W17357  36.209   5.405   0.251
52373W        W17358  40.087  39.426   4.618
52374W        W17359   8.736  36.522   1.678
52375W        W17360  39.922   5.058   3.623
52376W        W17361  43.195  26.575   5.003
52377W        W17362  31.087  39.995   3.754
52378W        W17363  22.910  33.323   2.293
52379W        W17364  24.933  38.063  14.737
52380W        W17365  43.862   2.547  14.314
52381W        W17366  39.362  17.062   0.486
52382W        W17367  19.966  42.322  11.637
52383W        W17368   2.631   5.546  14.852
52384W        W17369  40.176  20.434   1.967
52385W        W17370  21.538  23.727  13.895
52386W        W17371   9.397   8.646   3.702
52387W        W17372  25.272  19.183   0.752
52388W        W17373  19.492  25.425   1.069
52389W        W17374  37.292  44.311   3.390
52390W        W17375  11.143   6.233  11.766
52391W        W17376   3.715   8.376  11.459
52392W        W17377  22.690  31.471   1.793
52393W        W17378  25.471  31.538  12.455
52394W        W17379  26.751   9.339   2.488
52395W        W17380  34.307  29.046  14.494
52396W        W17381  26.480  22.024   0.949
52397W        W17382  14.943  42.816   3.778
52398W        W17383  27.638   1.450  13.304
52399W        W17384  41.097  36.347  10.464
52400W        W17385   8.630  13.213   1.003
52401W        W17386  28.763  30.758  12.954
52402W        W17387  21.167  30.100   5.148
52403W        W17388   4.190  37.927   3.256
52404W        W17389  23.204  17.547   0.739
52405W        W17390  19.025  22.585  13.837
52406W        W17391   3.518  22.764  10.320
52407W        W17392   5.726  26.530  13.054
52408W        W17393  27.002   3.518   2.787
52409W        W17394  10.342   6.772  13.890
52410W        W17395  31.390  41.176  12.057
52411W        W17396  28.859  22.162  14.944
52412W        W17397  43.984   9.575   2.378
52413W        W17398   9.203  25.067   2.489
52414W        W17399   5.035  15.135   0.133
52415W        W17400  33.359   6.136   1.309
52416W        W17401  17.526  18.864   2.250
52417W        W17402  10.593  17.133  11.654
52418W        W17403  43.262  39.062  10.164
52419W        W17404  21.929  35.466  14.283
52420W        W17405  43.435  21.643   9.708
52421W        W17406  42.011  39.780  14.882
52422W        W17407  28.577  16.130  12.140
52423W        W17408  11.807  13.862   0.466
52424W        W17409   9.329  14.047   2.603
52425W        W17410  41.620  16.127  11.655
52426W        W17411  30.018   7.634  13.006
52427W        W17412  40.822  19.322   4.140
52428W        W17413  25.479  41.919  12.136
52429W        W17414   6.742   1.584  10.293
52430W        W17415  19.285   5.420   0.790
52431W        W17416  31.830  38.380   2.546
52432W        W17417  33.054  30.071   2.768
52433W        W17418   1.748  37.971   3.756
52434W        W17419   6.152  40.638   3.689
52435W        W17420  14.762  33.228   3.194
52436W        W17421  14.457  24.016  14.896
52437W        W17422  36.503  42.351  10.446
52438W        W17423  14.802  23.075   3.779
52439W        W17424   9.827  42.531  11.591
52440W        W17425  10.310  20.305   2.248
52441W        W17426  21.942  25.823  14.301
52442W        W17427  20.737  11.268   4.316
52443W        W17428  16.154  14.593  10.380
52444W        W17429  42.376   7.166   0.464
52445W        W17430   2.193  24.685   1.449
52446W        W17431  36.437   7.861   0.718
52447W        W17432  13.512   7.421  14.743
52448W        W17433   6.654  15.139  14.334
52449W        W17434  22.660  12.821   0.778
52450W        W17435  41.480   2.820   1.686
52451W        W17436  34.172  41.195  11.682
52452W        W17437  41.551  23.830  11.137
52453W        W17438  21.211   6.841  14.966
52454W        W17439  19.339  16.707   4.592
52455W        W17440   4.216  23.936   3.142
52456W        W17441   1.076  12.104   5.067
52457W        W17442  36.426  40.968  11.190
52458W        W17443  32.976  36.273   0.797
52459W        W17444  27.972  11.308  11.215
52460W        W17445   9.066  30.188  11.447
52461W        W17446  27.742  29.196  13.451
52462W        W17447  42.988   8.757   4.595
52463W        W17448   5.584  18.725   2.274
52464W        W17449  25.217  21.267  11.489
52465W        W17450  12.851  25.668   2.404
52466W        W17451  34.815  32.640   3.220
52467W        W17452  34.898  37.493   2.715
52468W        W17453  34.899  19.665  10.616
52469W        W17454   9.346  27.818  12.451
52470W        W17455  17.120  35.977  14.771
52471W        W17456   4.347   8.484   4.291
52472W        W17457  34.107  32.668   2.946
52473W        W17458   8.830   9.108   9.785
52474W        W17459  19.260   3.936  12.201
52475W        W17460  37.576  30.471   5.074
52476W        W17461  15.286   0.744   3.328
52477W        W17462  23.206   8.515   3.111
52478W        W17463   4.502   2.058   2.334
52479W        W17464  19.500  40.906  11.277
52480W        W17465  44.815  17.512   4.888
52481W        W17466  12.984  22.042  10.658
52482W        W17467   0.971  26.093  13.460
52483W        W17468  38.944  13.641   1.778
52484W        W17469  20.950   5.723  10.733
52485W        W17470  32.256   5.448   3.280
52486W        W17471   8.298  22.742   1.913
52487W        W17472  43.996  11.646   1.302
52488W        W17473  10.168  38.246  12.633
52489W        W17474  31.122  17.807   2.407
52490W        W17475  40.537   7.555   1.807
52491W        W17476   5.393   8.429   2.472
52492W        W17477  28.533   8.750  13.125
52493W        W17478  39.538  33.817  13.671
52494W        W17479   9.748   7.363  13.387
52495W        W17480  43.401  29.347   2.851
52496W        W17481  19.153  11.695   3.672
52497W        W17482  19.115  42.334   0.221
52498W        W17483   8.729   0.291   3.995
52499W        W17484  29.085  30.531   1.249
52500W        W17485  16.827  18.726   0.965
52501W        W17486  14.393  15.783   3.699
52502W        W17487  31.498  24.189   1.748
52503W        W17488  22.911  26.338   2.275
52504W        W17489  18.827   9.968   0.719
52505W        W17490   5.607   7.331  13.193
52506W        W17491  34.487  36.405  11.992
52507W        W17492  43.923  32.421   0.961
52508W        W17493  35.623  18.068   2.161
52509W        W17494   6.215   8.446   3.400
52510W        W17495  36.583  28.339   3.676
52511W        W17496  20.204   9.903   0.712
52512W        W17497  31.201   5.387   3.211
52513W        W17498   6.881  30.874   4.579
52514W        W17499  14.021  39.813  14.798
52515W        W17500  15.389  29.585  12.444
52516W        W17501  32.002  30.531  13.587
52517W        W17502  28.970   3.661   2.575
52518W        W17503  17.435  41.590  10.397
52519W        W17504  30.186  21.178  10.711
52520W        W17505  12.850   0.465   0.425
52521W        W17506  31.105  15.109   1.544
52522W        W17507  11.017   7.259   4.794
52523W        W17508  44.454  40.927   4.575
52524W        W17509  25.283  11.063   1.934
52525W        W17510  32.405   5.138  11.036
52526W        W17511  28.353  40.100   4.132
52527W        W17512  11.844  20.741  10.705
52528W        W17513   6.275  24.612  13.951
52529W        W17514  33.267  38.552   1.672
52530W        W17515  28.078  20.324   3.212
52531W        W17516  41.064  44.688   4.559
52532W        W17517  26.746  40.448  14.907
52533W        W17518  21.225  12.350  12.212
52534W        W17519  19.996  29.114   4.531
52535W        W17520   6.490   2.994  12.335
52536W        W17521  14.128  23.243   2.722
52537W        W17522  34.005  42.750   1.015
52538W        W17523  41.980  11.892   1.158
52539W        W17524  11.905  10.265  10.962
52540W        W17525  33.590  40.242   3.665
52541W        W17526  32.152  33.833  13.618
52542W        W17527  32.811  33.875  12.037
52543W        W17528   2.802  14.648   3.099
52544W        W17529  29.519  36.161  11.657
52545W        W17530  40.148  28.797   0.145
52546W        W17531  37.377   0.469  10.252
52547W        W17532  39.326  22.491  11.690
52548W        W17533  28.879  28.526   1.454
52549W        W17534  19.226  25.037   4.403
52550W        W17535  41.992  10.745  12.175
52551W        W17536  39.891  39.827  12.046
52552W        W17537  17.865   4.488  12.665
52553W        W17538  43.755  42.883   4.130
52554W        W17539  41.567  35.772   1.764
52555W        W17540  12.089  10.035   0.334
52556W        W17541  20.192  39.251  10.199
52557W        W17542  41.381  13.258   1.256
52558W        W17543  28.649  13.326   4.706
52559W        W17544  39.146   2.318   4.985
52560W        W17545  24.134  21.314   1.213
52561W        W17546  25.195   8.854   2.357
52562W        W17547  38.113  17.795   0.336
52563W        W17548  43.700  29.143   3.239
52564W        W17549   2.625  20.148   4.332
52565W        W17550   9.467  22.435  12.408
52566W        W17551  16.497  23.918  11.032
52567W        W17552  19.602  20.656  13.332
52568W        W17553   3.644  21.662   0.982
52569W        W17554  23.092  15.015  11.103
52570W        W17555  39.832  32.627   4.981
52571W        W17556  12.777  33.305   4.155
52572W        W17557  37.570  18.263  12.860
52573W        W17558  26.264   5.892   4.123
52574W        W17559  38.499  12.379  13.466
52575W        W17560   3.151  18.571  14.368
52576W        W17561  31.988  40.015   3.817
52577W        W17562  39.798   3.997   3.630
52578W        W17563  20.564  14.416  14.633
52579W        W17564  23.031  16.576  14.062
52580W        W17565  37.994  15.559   2.765
52581W        W17566  33.960  10.657   5.402
52582W        W17567  38.400  37.129  14.424
52583W        W17568  19.014  42.139  14.256
52584W        W17569  17.056  30.109  12.997
52585W        W17570  28.704   8.880  12.645
52586W        W17571  37.134   1.815   2.442
52587W        W17572  44.907  36.281   2.677
52588W        W17573  31.041  27.740   1.168
52589W        W17574  38.815   2.172  12.210
52590W        W17575   8.164  36.076   0.827
52591W        W17576   3.902  17.263  13.652
52592W        W17577   2.199  19.268   0.472
52593W        W17578  13.062  17.733  13.561
52594W        W17579   8.129  43.501  14.616
52595W        W17580  11.846   6.258   0.430
52596W        W17581   1.940  16.163   1.745
52597W        W17582  18.876  33.076   3.679
52598W        W17583   1.315  21.258  10.735
52599W        W17584   3.664  14.184  10.708
52600W        W17585  38.169  31.674   0.904
52601W        W17586  38.098   0.783  13.901
52602W        W17587  37.447  24.631  12.613
52603W        W17588  33.892   0.203   2.732
52604W        W17589  41.761   9.774  11.663
52605W        W17590  31.056  32.368   3.731
52606W        W17591  10.566  18.030   2.158
52607W        W17592   1.919  10.329   3.087
52608W        W17593  18.331  24.090   2.552
52609W        W17594   4.906  24.906  10.112
52610W        W17595  43.239  27.014  12.986
52611W        W17596  15.309  36.139   1.835
52612W        W17597  16.765  27.682  11.990
52613W        W17598  42.025   4.152   4.841
52614W        W17599  33.151  16.696  13.006
52615W        W17600  38.328  22.070   0.484
52616W        W17601  40.835  31.435   1.448
52617W        W17602   7.681   6.301  10.386
52618W        W17603  29.510  12.441  14.980
52619W        W17604  28.947  28.479   0.934
52620W        W17605  19.733  29.160  10.595
52621W        W17606  13.088   2.845  13.202
52622W        W17607  42.405   2.516  11.701
52623W        W17608  34.517  13.575  11.179
52624W        W17609  31.890  16.877   2.851
52625W        W17610  43.116  19.234  11.713
52626W        W17611  26.726  12.035   2.386
52627W        W17612  17.112   3.187  14.247
52628W        W17613  17.619   7.419   0.548
52629W        W17614  14.086  23.611  10.739
52630W        W17615  18.704   8.780  14.825
52631W        W17616   9.890   2.061  12.059
52632W        W17617   4.710   2.888   4.586
52633W        W17618  20.801  11.656   0.381
52634W        W17619  42.361   0.458   0.333
52635W        W17620  23.464  42.709  13.989
52636W        W17621  15.940  38.284   2.676
52637W        W17622  11.217  39.888   1.282
52638W        W17623  17.363  19.801   0.925
52639W        W17624  25.608  29.040   4.090
52640W        W17625  33.761  34.403   3.724
52641W        W17626  36.971   2.720   4.014
52642W        W17627   0.181   6.506   0.343
52643W        W17628  32.364  14.583   0.894
52644W        W17629  42.389  44.255  13.534
52645W        W17630   7.800  16.530  11.983
52646W        W17631  27.699  16.762  13.396
52647W        W17632  26.435  14.149   1.962
52648W        W17633  16.686  40.775   0.845
52649W        W17634  23.520  40.437   3.078
52650W        W17635  21.260  40.497   1.493
52651W        W17636  12.140   8.723  14.785
52652W        W17637  16.920  18.437   3.148
52653W        W17638  30.015  44.834   0.816
52654W        W17639   5.383  18.332   2.769
52655W        W17640  21.761  10.674  12.455
52656W        W17641   0.256  13.421   1.464
52657W        W17642  13.983  22.465   4.520
52658W        W17643   6.360  24.589  12.572
52659W        W17644   0.062   4.667  10.871
52660W        W17645  30.708  15.430  14.460
52661W        W17646   1.793  24.484   1.727
52662W        W17647  36.845  26.162  12.526
52663W        W17648  22.249  25.446  14.487
52664W        W17649  42.393   2.814   0.649
52665W        W17650  19.891  41.750  12.855
52666W        W17651   2.689  20.795  11.955
52667W        W17652   2.230  37.194   2.626
52668W        W17653  16.478  20.037   1.027
52669W        W17654  40.431   9.211   4.485
52670W        W17655  33.519  38.562  11.197
52671W        W17656  12.745  41.668   3.013
52672W        W17657   3.449  42.887  10.830
52673W        W17658  10.162  31.459  12.905
52674W        W17659  38.482  40.778   1.108
52675W        W17660  22.115   2.897  14.027
52676W        W17661   3.212  25.152   3.671
52677W        W17662  36.972  33.022  13.110
52678W        W17663  39.369  27.244  13.891
52679W        W17664  16.703   6.714   1.774
52680W        W17665  40.606  27.425   2.805
52681W        W17666  33.115  24.742   2.671
52682W        W17667   2.596   3.661  14.197
52683W        W17668   9.672  31.423  11.607
52684W        W17669  37.316   7.431  13.583
52685W        W17670   5.456  18.309  12.982
52686W        W17671  33.095  10.622   1.261
52687W        W17672  14.533  15.190   1.864
52688W        W17673   4.023  19.973  12.214
52689W        W17674   1.963  19.049  14.776
52690W        W17675  44.727   1.285  12.703
52691W        W17676  18.605  12.215   4.070
52692W        W17677   3.062  41.970  14.746
52693W        W17678  44.029  38.712  13.872
52694W        W17679  44.765  12.713  14.934
52695W        W17680   3.426  28.248   2.172
52696W        W17681  15.139   0.779   1.403
52697W        W17682  36.860  24.120   2.344
52698W        W17683  26.808  26.605   2.627
52699W        W17684  29.297  44.991  12.636
52700W        W17685   6.461  41.704   3.196
52701W        W17686  41.592  10.931  11.884
52702W        W17687   6.857  35.325   2.001
52703W        W17688   6.733  33.850   3.239
52704W        W17689  27.688  41.924   4.136
52705W        W17690  44.716  11.120  14.336
52706W        W17691   1.282  22.506  12.290
52707W        W17692  26.296   4.539   4.532
52708W        W17693   6.286  34.101  12.990
52709W        W17694  37.359   2.680  13.503
52710W        W17695  13.765   9.952   3.126
52711W        W17696  31.540  28.477  11.941
52712W        W17697  19.680  38.777   2.368
52713W        W17698  41.024   6.923   0.781
52714W        W17699  18.823  17.612  14.202
52715W        W17700   3.823   9.211  14.423
52716W        W17701  39.791  22.219  11.608
52717W        W17702   5.532  16.949   3.057
52718W        W17703  29.027  20.140  11.230
52719W        W17704  28.456  40.274   0.462
52720W        W17705  34.075  37.147  12.470
52721W        W17706  44.486   9.334  13.721
52722W        W17707  29.801  38.687  12.635
52723W        W17708  36.597  12.588  13.149
52724W        W17709  18.006  17.649   4.308
52725W        W17710   4.277   1.451  11.389
52726W        W17711  18.924  19.517   2.670
52727W        W17712  21.903  22.735   2.867
52728W        W17713  44.002  13.719   3.387
52729W        W17714  18.612  25.547  11.534
52730W        W17715  34.948   5.270   1.804
52731W        W17716  41.682   7.884   3.735
52732W        W17717  16.263   5.681   0.422
52733W        W17718   7.331  33.892  11.631
52734W        W17719  26.490  32.565   4.066
52735W        W17720  12.820  29.565   1.299
52736W        W17721  21.930   1.025   2.897
52737W        W17722  23.568  28.155  11.066
52738W        W17723  20.008  36.866   1.746
52739W        W17724  17.558  28.537  11.275
52740W        W17725   9.707  30.448  14.850
52741W        W17726  16.242  12.175  12.202
52742W        W17727  29.805  32.624   2.271
52743W        W17728  26.477  20.041   4.096
52744W        W17729  15.047  17.092   3.250
52745W        W17730  35.569  20.785   1.253
52746W        W17731  13.391  37.495  14.285
52747W        W17732  44.741   4.854  14.813
52748W        W17733  29.790  23.151  10.775
52749W        W17734  28.987  33.953  13.007
52750W        W17735  29.915  23.279  11.606
52751W        W17736   9.969   1.521  14.465
52752W        W17737  26.803   5.317   1.430
52753W        W17738   8.146  27.274   3.138
52754W        W17739  19.342  15.413   3.294
52755W        W17740  27.384  27.222   1.988
52756W        W17741  18.165  11.135  12.485
52757W        W17742  40.915   6.054  10.908
52758W        W17743  22.324  40.558   0.032
52759W        W17744  39.494  12.232   0.137
52760W        W17745   9.905  24.175   4.230
52761W        W17746  26.534  22.472   2.670
52762W        W17747   5.428  22.245   3.745
52763W        W17748  28.992  37.159  10.557
52764W        W17749  39.138   6.775  14.914
52765W        W17750  43.022  30.128  11.017
52766W        W17751  33.911  23.065  10.927
52767W        W17752  26.693  41.955   4.344
52768W        W17753  28.652   8.774  14.163
52769W        W17754  20.204  44.375  12.590
52770W        W17755  41.128   5.056   1.791
52771W        W17756  10.733  27.167  11.316
52772W        W17757  43.414  19.133   1.828
52773W        W17758  17.217  30.600   4.594
52774W        W17759  15.390   3.470   3.405
52775W        W17760   5.862  43.743   4.235
52776W        W17761  29.052  10.860   0.935
52777W        W17762   7.334  34.276   3.649
52778W        W17763  18.190  35.339   0.934
52779W        W17764  44.716  12.601   4.078
52780W        W17765  22.825  41.376   0.432
52781W        W17766  43.359  30.958   1.322
52782W        W17767  39.529  13.892  12.563
52783W        W17768  39.084   1.806  14.008
52784W        W17769  35.905  15.370  12.057
52785W        W17770  21.350  40.824   2.770
52786W        W17771  15.834  24.952   4.760
52787W        W17772  17.128   6.758   5.090
52788W        W17773  40.235  28.566   5.458
52789W        W17774  36.020  10.274  11.738
52790W        W17775  28.682  33.982  12.572
52791W        W17776  19.833  27.383  14.988
52792W        W17777   9.683   6.862   0.325
52793W        W17778  30.031  24.956  14.600
52794W        W17779  33.656   5.417   4.667
52795W        W17780  22.079   7.638   2.807
52796W        W17781  27.613   0.164  13.752
52797W        W17782  35.552  40.500  10.688
52798W        W17783   4.568  27.912  13.409
52799W        W17784  27.132  33.589   4.554
52800W        W17785   3.233  19.735  12.460
52801W        W17786  26.022  24.197  10.771
52802W        W17787  10.474  40.712  10.686
52803W        W17788   8.893   0.850   2.653
52804W        W17789  21.774  22.790  13.811
52805W        W17790  35.616   7.803   2.211
52806W        W17791  36.550  29.451  12.857
52807W        W17792  41.471  44.223   5.374
52808W        W17793  23.146  29.545  13.811
52809W        W17794  11.480   5.211  12.130
52810W        W17795  31.575  15.615  11.007
52811W        W17796  23.749  23.416  12.951
52812W        W17797   6.651  25.675  13.849
52813W        W17798  36.205  23.538   0.160
52814W        W17799   7.731  28.617  11.065
52815W        W17800  16.674   9.320  10.629
52816W        W17801  28.024  34.377   3.209
52817W        W17802  37.982  37.117   2.117
52818W        W17803   4.813  14.161   0.245
52819W        W17804  16.688  19.531  13.896
52820W        W17805  31.965  41.380  14.281
52821W        W17806   2.589  39.240   2.254
52822W        W17807  44.272  30.091   1.560
52823W        W17808   1.282  43.467   4.265
52824W        W17809   4.795  37.524  10.301
52825W        W17810  33.255  24.678  11.072
52826W        W17811  30.691  36.047  12.174
52827W        W17812   4.974  12.203  14.421
52828W        W17813   5.715   9.073  13.403
52829W        W17814   4.734  25.941   3.577
52830W        W17815  22.123  23.229  11.664
52831W        W17816  16.347  19.667   2.744
52832W        W17817  25.975   5.655   1.225
52833W        W17818  40.159  15.321  11.508
52834W        W17819  43.549  23.619  13.495
52835W        W17820   0.006  19.855  11.965
52836W        W17821  33.994  20.251   2.421
52837W        W17822  23.710  21.270  14.953
52838W        W17823  39.629   5.480   3.804
52839W        W17824  44.868  27.789   2.746
52840W        W17825  12.270  28.007   0.743
52841W        W17826  37.103   7.067   3.990
52842W        W17827  23.015  39.803  12.519
52843W        W17828   9.225  20.828   1.200
52844W        W17829  17.558   0.951   2.206
52845W        W17830  20.986  29.880   3.235
52846W        W17831   2.776   0.438  14.831
52847W        W17832  20.984   1.693  14.168
52848W        W17833  44.146   8.738  12.605
52849W        W17834  30.296  25.167   1.907
52850W        W17835  40.000  27.346  12.411
52851W        W17836   7.428  20.643  11.042
52852W        W17837  11.765   0.286  12.806
52853W        W17838  37.523  27.585   0.706
52854W        W17839   1.500  44.028  11.156
52855W        W17840  16.709  32.159  12.950
52856W        W17841  40.927  15.795  13.914
52857W        W17842   7.649   0.876  10.760
52858W        W17843   9.717   8.424   1.943
52859W        W17844  11.436  33.399  12.400
52860W        W17845  12.251  36.124   4.256
52861W        W17846  38.902  11.275  13.100
52862W        W17847  21.757  38.795  11.224
52863W        W17848  21.508  34.554   3.309
52864W        W17849  19.099  28.158  11.740
52865W        W17850  32.646   1.408   5.140
52866W        W17851  39.962   7.816   0.852
52867W        W17852  36.321  23.288  13.039
52868W        W17853  14.126  17.068  13.488
52869W        W17854  36.333  31.099   2.662
52870W        W17855  17.803  36.051   4.596
52871W        W17856  43.412  21.450   3.067
52872W        W17857   4.425   6.099  13.390
52873W        W17858  34.866  38.849   3.649
52874W        W17859   6.222  12.149  14.886
52875W        W17860  25.971  12.032  12.207
52876W        W17861   1.422  25.939   0.809
52877W        W17862  13.871  15.135   3.280
52878W        W17863  21.126   2.792  13.834
52879W        W17864  18.999   2.488  11.605
52880W        W17865  22.031  28.190  11.211
52881W        W17866  28.027  27.975  14.899
52882W        W17867  28.815  40.822  11.135
52883W        W17868  29.580  39.164   4.004
52884W        W17869  20.604  17.916  10.731
52885W        W17870  24.424  33.396   4.133
52886W        W17871  19.634  35.201  10.499
52887W        W17872  36.367  28.542  12.052
52888W        W17873  36.486  44.012   2.361
52889W        W17874  44.441  11.907   1.139
52890W        W17875  23.239  11.657  13.932
52891W        W17876  35.620   4.890   5.218
52892W        W17877   2.862  13.146   0.477
52893W        W17878  15.926  25.480   1.617
52894W        W17879  43.307  11.659   2.338
52895W        W17880   5.521  30.939  11.035
52896W        W17881  18.794  32.547  14.974
52897W        W17882   4.246   2.793  13.984
52898W        W17883  25.410  30.386   0.959
52899W        W17884  29.377  17.345   1.847
52900W        W17885  30.923   4.718   3.905
52901W        W17886  44.312  13.610   2.274
52902W        W17887  38.586   2.697  13.963
52903W        W17888  10.040   6.330  13.894
52904W        W17889  29.013   4.416  12.586
52905W        W17890  23.419  34.514   3.196
52906W        W17891  35.283  13.812  13.949
52907W        W17892   6.847  29.635   2.817
52908W        W17893  33.421   9.733  10.802
52909W        W17894  41.343  14.797  13.988
52910W        W17895  28.011   7.157   2.132
52911W        W17896  44.844   5.960   3.651
52912W        W17897  42.460  24.467   3.633
52913W        W17898  17.871  10.853   4.408
52914W        W17899  44.203  17.231   1.979
52915W        W17900  33.826   5.737   3.761
52916W        W17901  39.129  12.226   4.613
52917W        W17902  14.885  12.418  12.552
52918W        W17903  18.044  27.661   2.857
52919W        W17904   2.172  19.020  13.947
52920W        W17905  44.255   0.696  14.333
52921W        W17906  19.030  39.966  11.847
52922W        W17907  15.145  22.175   2.915
52923W        W17908  21.244  30.241  12.281
52924W        W17909   5.748  37.856  14.744
52925W        W17910  24.131  17.078   0.942
52926W        W17911  42.768  14.405  14.727
52927W        W17912  24.197  38.242   2.218
52928W        W17913   0.942  20.580   1.707
52929W        W17914  42.501  36.520  13.381
52930W        W17915  28.691  21.782   2.164
52931W        W17916   0.780  26.919  10.335
52932W        W17917  35.633  17.231  12.473
52933W        W17918  38.358  36.222   3.011
52934W        W17919  10.685  22.501  12.076
52935W        W17920  11.106  17.224  11.620
52936W        W17921  33.779  31.946  14.269
52937W        W17922  10.584  25.117   3.778
52938W        W17923  24.722  17.554  14.096
52939W        W17924   9.375  27.606   0.275
52940W        W17925  30.084  23.940   2.404
52941W        W17926  22.050  32.393   9.811
52942W        W17927  31.144  29.514   1.145
52943W        W17928  30.935   3.571  12.155
52944W        W17929  34.010   9.868   2.801
52945W        W17930  18.499   3.747  13.838
52946W        W17931  14.289  23.203  12.505
52947W        W17932  44.251  29.150   3.237
52948W        W17933  31.388  27.135  12.097
52949W        W17934  44.689  24.736   3.762
52950W        W17935   4.352   7.898   2.079
52951W        W17936   2.323  33.521  10.735
52952W        W17937   7.303  15.708  14.822
52953W        W17938  16.992  24.775   3.379
52954W        W17939   1.823  26.124  12.541
52955W        W17940  41.966   7.473  11.983
52956W        W17941  15.951  17.177  14.943
52957W        W17942  17.274  35.100   2.344
52958W        W17943  12.865   8.836  14.411
52959W        W17944  15.758   2.180   2.810
52960W        W17945  30.101   0.449  10.197
52961W        W17946  14.378  28.630  14.288
52962W        W17947   5.723  39.925   0.872
52963W        W17948  33.348  21.214   2.757
52964W        W17949  22.568  23.001  11.442
52965W        W17950  39.320  42.341  10.420
52966W        W17951  42.848   7.981   4.606
52967W        W17952  18.363  36.043  14.353
52968W        W17953  30.717  12.261   0.516
52969W        W17954  39.445  39.650  12.183
52970W        W17955  41.505  38.005  12.504
52971W        W17956  14.614  18.974   2.674
52972W        W17957  18.422  24.168  11.501
52973W        W17958   9.680  20.236   0.784
52974W        W17959  19.881  19.381  10.735
52975W        W17960  36.921  40.210   1.936
52976W        W17961  26.077  23.138  11.716
52977W        W17962  22.115   6.788   4.087
52978W        W17963   1.562   4.620  13.504
52979W        W17964   7.420  34.382  10.724
52980W        W17965   4.688   8.060  11.405
52981W        W17966   7.890  32.672  13.965
52982W        W17967   5.215  38.482  10.649
52983W        W17968  34.013   3.159  14.601
52984W        W17969   9.891  16.117   3.338
52985W        W17970  15.386  24.673   1.835
52986W        W17971  43.764  26.965  12.874
52987W        W17972  25.808  21.425   4.363
52988W        W17973   2.549  21.768  11.152
52989W        W17974  23.017   8.316  11.203
52990W        W17975  30.893  31.320   3.702
52991W        W17976  33.656  30.633   1.315
52992W        W17977  10.068  40.511   5.101
52993W        W17978  30.135  39.946   1.419
52994W        W17979  17.531   6.413  12.177
52995W        W17980   4.933  34.646  11.494
52996W        W17981  27.974  20.166   2.226
52997W        W17982  18.867  25.094  11.595
52998W        W17983  19.178  43.356  14.740
52999W        W17984  10.403  13.083  13.108
53000W        W17985  24.507  26.675   4.264
53001W        W17986  20.533  16.371   0.120
53002W        W17987  23.946  36.119  13.391
53003W        W17988   6.443   7.478   4.537
53004W        W17989   5.909  30.556   3.134
53005W        W17990  38.404  10.058  14.558
53006W        W17991   2.754  14.577  12.962
53007W        W17992  13.622   7.301   3.262
53008W        W17993  17.767  29.020  12.456
53009W        W17994   8.421   3.455   2.503
53010W        W17995   1.265   7.082   3.871
53011W        W17996  34.878  43.324  14.881
53012W        W17997   8.947  21.092  10.174
53013W        W17998  12.522  31.708   0.103
53014W        W17999   4.263  11.867  11.859
53015W        W18000  43.140  11.803   5.050
53016W        W18001  39.156  23.235   3.161
53017W        W18002  11.747  40.280   0.603
53018W        W18003  28.076  26.659   0.389
53019W        W18004  13.863  32.853   0.366
53020W        W18005  12.793  15.205   2.279
53021W        W18006  35.901  17.782   0.172
53022W        W18007  38.781  34.851  13.375
53023W        W18008  16.083  29.195   2.683
53024W        W18009  23.553  20.093   2.311
53025W        W18010   1.308  15.630  11.109
53026W        W18011   7.998   4.255   3.663
53027W        W18012   6.152   7.075  10.996
53028W        W18013  15.264  13.300   0.910
53029W        W18014  11.841  12.437  13.159
53030W        W18015  18.229   9.255   1.942
53031W        W18016  10.213  29.882  14.528
53032W        W18017   8.807  28.008  13.067
53033W        W18018  35.270   9.386   1.990
53034W        W18019  26.074  19.162   4.547
53035W        W18020   5.906   3.924   3.186
53036W        W18021  24.600  42.306   2.764
53037W        W18022   4.361   4.216   3.708
53038W        W18023  34.504  26.663  11.727
53039W        W18024  12.374  16.104   2.462
53040W        W18025  12.869  18.060  12.885
53041W        W18026  11.297  19.589  12.388
53042W        W18027  21.009  20.077  13.464
53043W        W18028  16.499   2.056   1.785
53044W        W18029   1.460  11.075  10.838
53045W        W18030  31.501  40.756  14.959
53046W        W18031   8.681  24.023  13.535
53047W        W18032  29.141  12.613   0.617
53048W        W18033   7.163  43.527  10.662
53049W        W18034  14.344  38.318  13.017
53050W        W18035  14.328  32.978  11.576
53051W        W18036  44.915   7.489  14.978
53052W        W18037   1.498  43.108   3.699
53053W        W18038  21.554  35.864   0.489
53054W        W18039   1.199   7.861  12.137
53055W        W18040  11.675  12.041  12.337
53056W        W18041  35.377  11.255  14.858
53057W        W18042  42.326  22.986   0.394
53058W        W18043   2.236  22.601  12.201
53059W        W18044  29.019  29.474   0.988
53060W        W18045   6.321  13.542   4.658
53061W        W18046  19.497   6.088  14.476
53062W        W18047  23.926   6.770   4.544
53063W        W18048  26.217   4.235   2.325
53064W        W18049  36.332  26.117  11.642
53065W        W18050   5.412  34.036   0.870
53066W        W18051  42.932  42.755   1.733
53067W        W18052   1.856   5.619  13.477
53068W        W18053  14.298   2.390  13.339
53069W        W18054  36.409   5.292   1.075
53070W        W18055  11.748  36.235  11.636
53071W        W18056   2.876  27.133  11.986
53072W        W18057   7.124  19.067  13.386
53073W        W18058   9.153  17.397  12.437
53074W        W18059  17.725  29.174  14.791
53075W        W18060  39.421  21.933   3.568
53076W        W18061  20.099   4.170  13.589
53077W        W18062  36.002  16.718  13.421
53078W        W18063  27.067   8.722   3.124
53079W        W18064  26.086  27.464  12.797
53080W        W18065  18.653   9.379  12.962
53081W        W18066   6.918  15.779  10.770
53082W        W18067  44.821  19.723   1.375
53083W        W18068  35.537  35.081  14.263
53084W        W18069   7.804  40.526   4.618
53085W        W18070  32.438  26.234  13.590
53086W        W18071  28.958  18.120   0.287
53087W        W18072  40.012   5.199  12.027
53088W        W18073  44.311  35.409   3.866
53089W        W18074  12.534  21.214  11.442
53090W        W18075  27.166  34.943  11.755
53091W        W18076   4.673  13.023  14.874
53092W        W18077  32.004  15.913   3.757
53093W        W18078  38.154  44.579  11.163
53094W        W18079  34.988  22.953  13.545
53095W        W18080  38.364  41.871   0.718
53096W        W18081  13.435  17.149   3.595
53097W        W18082  36.108  35.384  14.431
53098W        W18083  16.284   3.851   4.011
53099W        W18084   6.823   0.720  13.578
53100W        W18085  34.066   6.754  12.853
53101W        W18086  15.276  33.946  14.840
53102W        W18087  29.519  29.919   2.739
53103W        W18088   6.509   3.293  13.542
53104W        W18089  15.800  27.612   0.955
53105W        W18090  29.689  11.963  14.067
53106W        W18091  11.120  44.319  11.461
53107W        W18092   8.754  44.322   4.338
53108W        W18093  43.234  17.148  13.507
53109W        W18094  27.414  23.831   1.972
53110W        W18095  42.410  28.524   4.225
53111W        W18096  16.140  26.544  14.869
53112W        W18097  42.700  28.733  14.754
53113W        W18098  37.163  21.478   4.900
53114W        W18099   1.737  39.881  12.874
53115W        W18100  41.937   6.252  10.685
53116W        W18101  15.616  23.243   1.462
53117W        W18102  35.348   5.604   0.350
53118W        W18103  10.230  23.256  11.233
53119W        W18104  10.798  34.815  12.958
53120W        W18105  33.078  34.027   0.579
53121W        W18106  16.201  24.801  13.048
53122W        W18107  40.407  32.613  14.305
53123W        W18108   6.623  21.438   0.523
53124W        W18109  38.866  33.098  13.854
53125W        W18110  14.304  33.091   2.344
53126W        W18111  35.508  35.257   0.888
53127W        W18112   7.521   1.053  11.240
53128W        W18113  43.000  38.728  12.442
53129W        W18114   7.734  43.827   1.820
53130W        W18115  24.433  26.623   2.313
53131W        W18116  44.488  33.563  11.874
53132W        W18117  11.323  35.544   2.895
53133W        W18118  31.307  43.490   1.384
53134W        W18119  14.247  32.506  14.026
53135W        W18120  32.274  31.170  11.117
53136W        W18121  11.401   4.297   0.428
53137W        W18122  12.635  25.245  13.985
53138W        W18123  30.871  19.238   1.860
53139W        W18124  23.719  22.346  12.386
53140W        W18125  30.369  10.786   2.925
53141W        W18126  39.386  34.208   4.810
53142W        W18127  12.267   5.993  10.373
53143W        W18128  24.700   1.783   2.938
53144W        W18129  11.171  21.959   1.264
53145W        W18130  38.427   4.661  14.000
53146W        W18131  31.405  21.520   0.940
53147W        W18132   0.967   6.220  13.537
53148W        W18133  40.861  43.765   2.366
53149W        W18134  30.223  22.541  14.838
53150W        W18135  16.154  22.319  11.547
53151W        W18136  19.758   3.598   4.266
53152W        W18137  22.207   3.528  14.635
53153W        W18138  31.498  38.777  14.470
53154W        W18139  18.793  24.155   0.192
53155W        W18140   6.267   3.781  12.894
53156W        W18141  29.115  43.698  14.952
53157W        W18142  14.628  33.441   4.095
53158W        W18143  36.294  41.049   0.241
53159W        W18144  34.284  16.843  13.123
53160W        W18145   9.630   4.946   0.499
53161W        W18146   4.782  19.068   3.163
53162W        W18147  22.230  31.956  12.587
53163W        W18148  42.043  12.357  11.923
53164W        W18149  17.098  22.602  14.251
53165W        W18150  30.312  38.145   3.705
53166W        W18151  28.182  42.463  14.609
53167W        W18152  29.060  42.208   0.069
53168W        W18153  16.103  38.994   0.395
53169W        W18154  25.857  23.815   4.949
53170W        W18155   1.022  30.995  13.526
53171W        W18156  19.855  18.870   4.467
53172W        W18157  41.227   4.562   1.839
53173W        W18158  12.163  37.617   4.227
53174W        W18159  35.924  23.906   4.633
53175W        W18160  39.038  36.292  14.737
53176W        W18161  26.421  27.390   4.208
53177W        W18162   9.169  26.703  14.249
53178W        W18163  22.098   8.833  10.882
53179W        W18164  41.012  42.272  14.227
53180W        W18165  44.066  15.907  10.633
53181W        W18166   6.790  38.859   4.744
53182W        W18167  12.728  22.234   0.647
53183W        W18168   4.688  39.758  11.153
53184W        W18169   4.855  14.546  10.985
53185W        W18170  33.786  13.207  12.167
53186W        W18171  30.094  37.180   1.210
53187W        W18172  24.164   5.750  10.802
53188W        W18173  13.864  29.034  14.966
53189W        W18174   9.536   4.849   9.648
53190W        W18175   3.796  43.714  14.490
53191W        W18176  14.751  15.341   2.310
53192W        W18177  43.306  30.946  14.434
53193W        W18178   2.284  31.471  14.343
53194W        W18179  27.433  38.034   4.566
53195W        W18180   5.213   2.364  14.310
53196W        W18181  22.768  11.772   4.243
53197W        W18182  28.479  37.956  14.356
53198W        W18183   6.957  32.059   1.388
53199W        W18184   9.148  29.654  11.150
53200W        W18185  33.379  18.771   2.283
53201W        W18186  37.102  13.319   2.502
53202W        W18187  24.569  40.560   2.212
53203W        W18188  16.358  25.633   0.706
53204W        W18189  10.848  26.008   4.641
53205W        W18190  29.886  26.460  13.886
53206W        W18191  44.982  29.089   3.654
53207W        W18192  37.296  17.629   4.064
53208W        W18193  31.554  25.912  14.515
53209W        W18194   3.018   4.788  11.921
53210W        W18195  35.939  13.696  11.363
53211W        W18196  29.924  28.788   4.032
53212W        W18197  26.364   8.815  12.012
53213W        W18198  39.931  41.910  11.904
53214W        W18199  30.453  16.288  14.084
53215W        W18200  19.647   1.447   2.287
53216W        W18201  42.586  42.418   2.133
53217W        W18202  21.971  15.584   4.573
53218W        W18203  25.288  12.535  13.364
53219W        W18204  40.505  36.354  13.459
53220W        W18205  44.783  37.455   4.909
53221W        W18206  27.140  44.876   3.169
53222W        W18207  22.652  29.406   0.062
53223W        W18208  29.027   4.466   3.159
53224W        W18209  17.052   4.628   2.240
53225W        W18210  25.904   2.856   1.410
53226W        W18211   6.581  35.443   0.261
53227W        W18212   7.880   6.457   0.060
53228W        W18213  12.387  44.258  10.704
53229W        W18214   4.744  29.023  13.138
53230W        W18215  18.633  13.178  10.565
53231W        W18216  17.766   6.382  10.089
53232W        W18217  41.312  20.816  10.425
53233W        W18218  30.381  16.213   1.832
53234W        W18219  14.030   0.563  12.675
53235W        W18220   4.165  17.275   3.006
53236W        W18221  32.108  11.937  14.444
53237W        W18222  21.753  22.199   0.047
53238W        W18223   0.043  21.955  14.865
53239W        W18224  32.240  43.426   1.848
53240W        W18225  16.839  10.697   1.222
53241W        W18226  16.088  31.103  14.401
53242W        W18227  31.041  42.384  11.019
53243W        W18228  43.337  33.462  12.535
53244W        W18229  26.277  32.636  10.387
53245W        W18230  23.640  19.781  10.667
53246W        W18231  44.734   8.246   2.349
53247W        W18232  34.611  44.738  10.693
53248W        W18233  26.057  43.790   1.667
53249W        W18234  16.188  33.915  12.206
53250W        W18235  28.743  29.115  13.285
53251W        W18236   8.486   2.897   3.172
53252W        W18237  31.651  34.483  11.079
53253W        W18238  12.348  17.903  14.793
53254W        W18239  30.120  21.765   1.871
53255W        W18240  15.180  44.859  14.325
53256W        W18241  17.837  32.515   4.108
53257W        W18242  27.053  31.379   1.824
53258W        W18243  35.995   7.181   4.495
53259W        W18244  23.089  32.537  12.868
53260W        W18245  23.059  31.739  11.399
53261W        W18246   7.055  35.596  14.493
53262W        W18247  16.948  10.499   5.076
53263W        W18248  11.035  32.802  13.538
53264W        W18249   4.620  10.156  12.917
53265W        W18250  44.221  37.169   1.494
53266W        W18251   3.316  21.824   1.346
53267W        W18252   5.676   4.881   0.426
53268W        W18253  27.205  13.514  14.378
53269W        W18254  19.331  27.268   9.655
53270W        W18255   4.130  37.390   4.164
53271W        W18256  30.937  10.321   1.777
53272W        W18257  38.601  40.501   2.341
53273W        W18258  39.682  10.728  12.173
53274W        W18259  31.888  10.695  14.127
53275W        W18260   5.260  17.702  11.534
53276W        W18261  42.783   9.920  11.666
53277W        W18262  22.797   7.734   4.926
53278W        W18263  19.581   0.710  14.798
53279W        W18264  28.611  40.579  12.374
53280W        W18265  40.870  38.834  12.865
53281W        W18266  32.574  44.663   2.280
53282W        W18267  13.413  25.703  13.630
53283W        W18268   0.926   8.933  12.107
53284W        W18269   7.409  27.888  13.946
53285W        W18270   5.814   2.289  11.184
53286W        W18271  25.109  15.531  13.378
53287W        W18272  37.527  41.884  13.664
53288W        W18273   5.864  33.000  11.629
53289W        W18274  14.761  21.765   3.011
53290W        W18275  16.989  17.018  13.915
53291W        W18276   9.758  33.899   4.091
53292W        W18277   5.908  16.189   1.292
53293W        W18278  10.848  17.241   3.219
53294W        W18279   3.373   4.214   2.741
53295W        W18280  39.193   2.889   2.218
53296W        W18281   5.734   9.378  12.959
53297W        W18282   7.776   5.975   0.194
53298W        W18283  36.638  42.999   4.318
53299W        W18284  13.344  30.439   3.173
53300W        W18285  37.693  14.009  14.363
53301W        W18286  23.719  30.399  12.469
53302W        W18287   6.733  43.955   3.177
53303W        W18288  10.221   8.534   4.990
53304W        W18289   1.468  36.735   3.637
53305W        W18290   5.223  28.386  13.551
53306W        W18291  37.407   6.244  14.335
53307W        W18292  20.452  44.378  13.463
53308W        W18293  14.778  43.842   2.300
53309W        W18294  23.464  42.057   0.436
53310W        W18295   3.361  34.597   0.598
53311W        W18296  40.406  36.350  14.386
53312W        W18297  21.085  43.536  13.487
53313W        W18298  10.600  28.019   1.848
53314W        W18299   7.644   3.957  11.635
53315W        W18300  29.123  43.894  13.596
53316W        W18301  38.295   5.447  12.900
53317W        W18302  25.868  16.515  12.443
53318W        W18303   4.187  16.249   0.965
53319W        W18304  15.547  29.165   2.166
53320W        W18305  23.201  25.822   4.163
53321W        W18306  11.517  18.667   1.000
53322W        W18307  14.450   7.917  10.717
53323W        W18308  29.046  30.586   2.132
53324W        W18309  36.483  39.428   2.450
53325W        W18310  23.657  20.167   5.435
53326W        W18311  39.519  21.155   1.109
53327W        W18312  43.413  29.678   4.194
53328W        W18313  28.487   4.855  11.996
53329W        W18314  21.875  30.563  10.355
53330W        W18315   7.118  37.976   0.302
53331W        W18316  34.270  27.993   4.637
53332W        W18317  21.659  43.311  11.034
53333W        W18318  26.477  20.036   0.774
53334W        W18319  16.226   0.476  12.513
53335W        W18320  30.135   1.369   9.742
53336W        W18321  23.111   8.998  10.642
53337W        W18322  17.551  44.062   0.032
53338W        W18323  14.299  38.339  10.752
53339W        W18324  16.427  15.257  11.989
53340W        W18325  28.863  28.020  14.190
53341W        W18326  23.999  14.672   4.520
53342W        W18327  19.193  11.515   0.807
53343W        W18328  14.699  37.420  13.710
53344W        W18329  21.850  17.820  11.992
53345W        W18330   5.273  10.258   1.594
53346W        W18331  26.753  35.460  14.315
53347W        W18332  30.510   0.759   2.825
53348W        W18333  13.678  30.028   0.642
53349W        W18334  19.655  12.277  11.887
53350W        W18335  34.064  37.139  11.946
53351W        W18336   7.104  39.497   1.809
53352W        W18337   9.672  17.873  12.944
53353W        W18338  22.563  36.783  12.987
53354W        W18339   9.304   9.913   2.402
53355W        W18340  21.436  20.190  14.362
53356W        W18341   6.638  44.923  10.814
53357W        W18342  43.422  27.357   1.959
53358W        W18343  21.564  41.293  14.880
53359W        W18344  31.913   0.262  12.570
53360W        W18345   9.404   8.834  14.329
53361W        W18346   9.654  28.026   1.919
53362W        W18347  37.599  10.321  14.005
53363W        W18348  20.621  42.446  12.847
53364W        W18349  29.198  16.863   3.146
53365W        W18350  32.440   4.623   4.871
53366W        W18351  29.892   5.692  10.739
53367W        W18352   0.954   0.222  10.068
53368W        W18353  11.085  44.391  10.955
53369W        W18354  34.959  34.166   0.714
53370W        W18355  24.667  12.946   1.750
53371W        W18356  27.948   7.667  10.755
53372W        W18357  29.069  20.948  13.441
53373W        W18358  38.388  24.792   2.150
53374W        W18359  33.225   5.643   1.931
53375W        W18360  20.646  14.203   3.915
53376W        W18361  35.102  25.147  12.964
53377W        W18362  21.071  43.266  14.232
53378W        W18363   2.738  21.438   0.139
53379W        W18364  33.526   5.373  12.820
53380W        W18365  39.449  32.089   2.773
53381W        W18366  43.782  35.708  11.962
53382W        W18367  30.949  40.386   1.436
53383W        W18368  24.679  27.697  10.767
53384W        W18369  13.075  21.081   0.350
53385W        W18370   4.279  29.998  13.418
53386W        W18371  44.296  25.739  13.950
53387W        W18372  11.866  18.603  10.595
53388W        W18373   2.528  14.651   1.163
53389W        W18374  22.751  35.933   4.474
53390W        W18375  18.074   7.642   0.460
53391W        W18376   1.245  15.175  13.573
53392W        W18377   5.793  28.574   3.550
53393W        W18378  15.292  10.203   3.947
53394W        W18379  42.055  26.752  13.397
53395W        W18380  22.489  34.081  13.978
53396W        W18381  44.952  28.514   3.335
53397W        W18382  22.014  30.001  14.017
53398W        W18383  17.665  42.058  11.191
53399W        W18384  38.430  15.287  12.241
53400W        W18385  17.199  20.021  14.931
53401W        W18386  38.964  25.209   2.682
53402W        W18387  27.072  18.622   1.759
53403W        W18388  27.630  30.481  14.353
53404W        W18389   6.659  16.860  14.912
53405W        W18390   8.398  13.782  10.750
53406W        W18391  14.181  14.991  13.498
53407W        W18392   0.611  44.386  11.954
53408W        W18393  15.790  18.904  11.103
53409W        W18394  34.398  30.721  11.324
53410W        W18395  28.552  11.694   2.135
53411W        W18396  36.157  17.114   4.424
53412W        W18397  23.275  42.869   4.074
53413W        W18398  10.035  42.024  14.903
53414W        W18399   7.736  39.255  14.346
53415W        W18400  36.885  32.149   2.088
53416W        W18401  18.366   0.870  12.857
53417W        W18402   6.302   1.549  14.362
53418W        W18403  24.661   4.277   2.263
53419W        W18404   6.745  38.932   3.650
53420W        W18405  38.283   7.119  11.075
53421W        W18406  39.960   1.400  13.385
53422W        W18407  26.765   2.507   3.344
53423W        W18408  29.257  35.307  12.005
53424W        W18409  31.898   5.859   4.357
53425W        W18410  37.270  31.540   0.326
53426W        W18411   7.733  33.354   3.577
53427W        W18412   9.893  16.844   3.932
53428W        W18413  26.035  33.429   3.201
53429W        W18414  25.668  11.770  13.499
53430W        W18415  23.488   8.872   2.670
53431W        W18416  24.972  23.956  13.953
53432W        W18417  44.536   4.387  14.877
53433W        W18418   6.063  10.002   3.328
53434W        W18419  43.578   5.277  11.662
53435W        W18420  44.959   9.573   2.361
53436W        W18421   0.709  41.715   2.321
53437W        W18422   2.033  21.729  11.216
53438W        W18423   6.278   6.457  12.352
53439W        W18424  32.040  31.628   2.746
53440W        W18425  27.389  10.561   2.195
53441W        W18426   8.988  19.889   4.191
53442W        W18427   8.287  37.381  11.749
53443W        W18428  38.387  34.581   4.469
53444W        W18429  22.293  28.066   3.807
53445W        W18430  29.108  21.629   0.887
53446W        W18431   7.636  44.117  10.265
53447W        W18432  36.820  17.965   4.198
53448W        W18433  32.363  25.593  12.887
53449W        W18434  27.518  17.262  13.540
53450W        W18435  44.801  18.177   4.870
53451W        W18436  33.904  26.045  13.533
53452W        W18437  23.433  19.191   0.504
53453W        W18438   4.951  23.453  11.703
53454W        W18439  41.519  43.724   3.605
53455W        W18440  10.289  25.245   0.479
53456W        W18441  28.554  13.162   4.221
53457W        W18442  16.703  36.555   3.682
53458W        W18443  31.956  11.181   1.401
53459W        W18444  38.639  43.492   4.776
53460W        W18445  22.936   5.175   0.349
53461W        W18446  15.545  12.001  13.434
53462W        W18447  42.457  22.375  13.943
53463W        W18448  19.689  11.824  12.129
53464W        W18449  40.201  33.835   1.418
53465W        W18450  42.147  44.920   1.904
53466W        W18451  18.628   1.354  11.938
53467W        W18452  21.520   8.717  12.504
53468W        W18453  20.940  38.513  13.317
53469W        W18454  32.038  28.943   4.311
53470W        W18455  11.521  42.254  11.045
53471W        W18456  21.092  22.029   0.737
53472W        W18457   5.397  28.100   2.122
53473W        W18458   9.893  21.809  13.001
53474W        W18459  10.758  10.535  13.774
53475W        W18460  27.920  17.717   3.600
53476W        W18461  34.033  31.080  10.705
53477W        W18462  29.803  43.820   0.545
53478W        W18463  39.456  16.260   3.680
53479W        W18464  13.705  24.288   0.752
53480W        W18465   9.368  18.977  11.009
53481W        W18466  16.537   9.854   4.110
53482W        W18467  14.877  25.978  11.167
53483W        W18468  34.127  16.211  13.549
53484W        W18469  41.024  39.009  13.861
53485W        W18470   6.432  44.479  11.093
53486W        W18471  18.779   2.395  14.909
53487W        W18472  39.003  18.551   4.122
53488W        W18473  30.472  14.595   2.943
53489W        W18474  23.613  19.789   4.598
53490W        W18475   7.779  40.847   1.477
53491W        W18476  30.032  35.026   0.462
53492W        W18477  33.357  36.599   4.673
53493W        W18478  24.715   5.240   3.255
53494W        W18479  26.994  39.256   4.280
53495W        W18480  27.812  16.785   2.230
53496W        W18481  32.393   9.122   0.774
53497W        W18482  28.204  36.258   4.179
53498W        W18483   0.448  25.280   2.044
53499W        W18484  41.809  34.129  12.033
53500W        W18485   9.625  11.376   3.784
53501W        W18486  22.169  43.429   1.910
53502W        W18487   2.753  19.673  13.147
53503W        W18488  44.930   9.048   2.203
53504W        W18489  40.452  44.815   3.919
53505W        W18490   9.541   4.718  11.477
53506W        W18491  34.593  17.353  14.919
53507W        W18492  11.068  18.606  14.500
53508W        W18493  28.812  29.900   4.682
53509W        W18494  25.642   8.603   2.274
53510W        W18495  14.021  23.065  10.840
53511W        W18496  24.059  30.613  14.279
53512W        W18497  32.737  11.286  11.152
53513W        W18498  20.087  11.954   3.313
53514W        W18499  44.385  11.643   2.623
53515W        W18500   5.904  30.133  13.250
53516W        W18501   6.412  43.225   1.616
53517W        W18502  24.477  11.325  13.379
53518W        W18503  22.681  41.871   3.883
53519W        W18504  35.658  15.649  14.534
53520W        W18505  28.573  18.202  14.923
53521W        W18506  15.868   1.183   1.272
53522W        W18507  25.712   1.310  14.429
53523W        W18508   2.197   2.409  14.780
53524W        W18509  40.013   5.614  12.305
53525W        W18510  40.365  12.126   3.874
53526W        W18511  31.869   8.291  13.565
53527W        W18512  24.027  34.932   4.965
53528W        W18513  10.768  11.527   2.892
53529W        W18514  36.347  11.469  14.928
53530W        W18515  41.251  30.706  11.134
53531W        W18516  40.211  33.971   3.184
53532W        W18517  30.282  15.068   2.105
53533W        W18518  25.060  15.978  12.461
53534W        W18519   4.461   6.320  11.856
53535W        W18520  22.000  18.559   4.529
53536W        W18521   3.342  24.092  13.839
53537W        W18522  42.902   0.375   4.884
53538W        W18523   4.048  32.098   5.014
53539W        W18524  35.789  26.159   3.389
53540W        W18525  32.345  25.491   4.136
53541W        W18526  16.657  34.858   1.528
53542W        W18527  14.358  43.744  10.705
53543W        W18528   3.781  41.454   2.733
53544W        W18529  24.304  32.111   1.475
53545W        W18530  12.861  14.074   2.793
53546W        W18531  11.678  37.577   2.276
53547W        W18532   3.738  39.410   2.072
53548W        W18533  39.752   8.372   3.036
53549W        W18534  29.568  18.641   4.798
53550W        W18535  27.128  22.103  11.590
53551W        W18536   3.722  38.944  13.092
53552W        W18537  25.802   5.228  10.688
53553W        W18538  19.183  30.877  11.174
53554W        W18539  38.192  34.568   9.714
53555W        W18540  42.339  35.494   3.211
53556W        W18541  23.922  30.495   5.172
53557W        W18542   3.716  41.281   4.566
53558W        W18543  21.350  12.397   9.642
53559W        W18544   1.271   0.846  13.621
53560W        W18545   0.706  21.076  12.036
53561W        W18546  17.952  11.830  13.599
53562W        W18547  22.634   5.847  11.798
53563W        W18548  26.105  41.827   0.639
53564W        W18549  22.823  11.817  13.033
53565W        W18550  41.958  17.009  14.446
53566W        W18551   7.194  18.462  11.565
53567W        W18552  29.124  33.271  10.436
53568W        W18553  44.376   6.886  14.488
53569W        W18554  12.249  14.703   0.926
53570W        W18555  25.399  22.044  14.255
53571W        W18556  14.955  35.050  12.703
53572W        W18557   5.353  26.093  11.257
53573W        W18558   5.200  37.501   4.630
53574W        W18559  25.002   0.629   3.730
53575W        W18560   0.620   4.422   4.168
53576W        W18561   7.145  26.256  11.066
53577W        W18562  15.230   6.198   0.794
53578W        W18563  42.557  18.029  12.600
53579W        W18564  38.593  18.261  10.510
53580W        W18565  12.369  38.898   3.120
53581W        W18566   5.711   1.794   3.350
53582W        W18567  15.725  13.375  10.524
53583W        W18568  11.653  19.923  12.556
53584W        W18569  11.236  28.853   2.598
53585W        W18570  27.652   0.134   2.555
53586W        W18571  39.434  37.413  11.484
53587W        W18572  11.257  17.672   0.437
53588W        W18573   1.478  34.589  12.606
53589W        W18574  42.016  40.929  13.053
53590W        W18575  14.028  32.297  13.594
53591W        W18576  29.988  25.574   0.407
53592W        W18577   9.685   3.821   3.198
53593W        W18578  11.800   3.259  12.874
53594W        W18579  42.092  22.394   2.827
53595W        W18580  36.456  17.529  13.909
53596W        W18581   1.931  30.852  12.547
53597W        W18582  23.585   6.278  12.822
53598W        W18583   2.990  37.416   3.609
53599W        W18584  44.851  18.799   2.805
53600W        W18585  26.646  19.229  11.568
53601W        W18586  40.476  39.867   2.297
53602W        W18587  34.100   4.832  11.940
53603W        W18588  40.345  23.992   0.513
53604W        W18589  16.146  25.685  10.259
53605W        W18590  16.768  27.465   1.694
53606W        W18591  20.223  15.769   5.208
53607W        W18592  40.745   6.451   0.787
53608W        W18593  24.645   7.263   3.659
53609W        W18594  23.444  33.340  10.905
53610W        W18595  17.667  26.386  14.969
53611W        W18596  36.403  26.192  14.887
53612W        W18597  37.625   6.165   4.611
53613W        W18598  23.932   9.402   1.853
53614W        W18599  22.918  37.431   4.084
53615W        W18600  10.388  40.924   3.281
53616W        W18601  18.190  43.802   4.750
53617W        W18602  10.260   2.584   0.541
53618W        W18603  13.694   9.805  11.641
53619W        W18604  34.751  18.988  13.006
53620W        W18605  27.139  30.066   1.975
53621W        W18606  18.697   4.399  12.869
53622W        W18607  17.644  41.000   0.772
53623W        W18608   7.640  26.620   3.834
53624W        W18609  22.475  36.318  11.094
53625W        W18610   5.805  27.297  14.404
53626W        W18611  15.853   8.263   0.076
53627W        W18612  21.672  23.808   3.158
53628W        W18613  38.540  17.173   1.028
53629W        W18614  44.428  15.521  13.070
53630W        W18615  28.988  30.673   2.633
53631W        W18616  36.226  36.446  10.380
53632W        W18617   4.384  17.280  11.205
53633W        W18618   3.647   4.982   2.194
53634W        W18619  32.333  43.953   2.563
53635W        W18620  43.758  17.250  13.447
53636W        W18621  39.267  24.867  13.868
53637W        W18622  42.366  41.785   4.760
53638W        W18623   9.778  37.579  12.926
53639W        W18624  43.383  21.082  14.996
53640W        W18625  35.444  10.129   4.058
53641W        W18626  40.776  13.078  11.429
53642W        W18627  23.408  36.428  14.780
53643W        W18628  20.483  41.583   0.714
53644W        W18629   3.018  39.930   1.879
53645W        W18630  23.521  13.613   2.197
53646W        W18631  35.423  40.445  11.190
53647W        W18632   7.038   6.998  12.668
53648W        W18633  32.148   3.375  10.938
53649W        W18634  21.165  33.063   4.715
53650W        W18635  19.689  41.410  11.299
53651W        W18636  31.643  44.450   3.808
53652W        W18637  18.609  40.217  11.644
53653W        W18638  27.859  23.472   2.813
53654W        W18639  37.337  44.991  11.125
53655W        W18640  26.597  38.662   0.532
53656W        W18641  18.246  37.261  10.694
53657W        W18642  32.667  19.979  12.493
53658W        W18643  36.569  29.733  13.814
53659W        W18644  24.975  19.641  13.603
53660W        W18645  36.113  21.501   1.259
53661W        W18646  11.311   4.858   4.265
53662W        W18647   1.838  28.862  11.432
53663W        W18648  24.540  18.354  11.481
53664W        W18649  17.810  29.619  14.331
53665W        W18650  36.364  36.398   3.642
53666W        W18651  17.106  18.219   2.732
53667W        W18652  13.314  29.542  14.420
53668W        W18653  25.279  14.297   4.575
53669W        W18654  20.169  25.247   0.603
53670W        W18655  32.704   5.226  12.022
53671W        W18656   8.778   5.364  12.037
53672W        W18657   8.744  21.612   3.281
53673W        W18658  42.924  41.247  12.009
53674W        W18659  38.966   9.943   4.742
53675W        W18660   3.250  44.676  12.603
53676W        W18661   1.192  26.517  13.668
53677W        W18662  13.058  25.505  13.920
53678W        W18663   9.767  42.853  14.833
53679W        W18664  24.289  20.086   3.609
53680W        W18665  21.510   9.065   2.184
53681W        W18666  16.648   9.713   3.640
53682W        W18667   8.748   5.142   3.012
53683W        W18668  10.709  27.942   2.387
53684W        W18669   9.259  15.575   0.905
53685W        W18670  37.127  18.626  13.951
53686W        W18671  15.938  30.496  11.683
53687W        W18672  32.369  32.849   1.308
53688W        W18673  42.227  44.435   2.518
53689W        W18674  21.663  15.208  14.077
53690W        W18675   8.410  10.007  12.159
53691W        W18676  33.482   1.639   4.684
53692W        W18677   1.282  37.590   0.414
53693W        W18678  36.507  11.132  10.865
53694W        W18679   1.243  22.111   4.632
53695W        W18680  34.012   3.873   1.744
53696W        W18681  20.746  19.498   2.895
53697W        W18682   2.865  16.540   2.738
53698W        W18683   2.916   2.626  11.310
53699W        W18684  13.233  26.856   1.861
53700W        W18685  17.224  12.549   4.311
53701W        W18686  17.184   8.747   4.072
53702W        W18687  10.451  12.387  11.543
53703W        W18688  40.344  38.255  10.694
53704W        W18689   1.393  31.486  10.611
53705W        W18690  18.695  28.695   2.332
53706W        W18691  36.438   2.121   0.780
53707W        W18692   9.530  18.556  12.063
53708W        W18693  39.804  13.266  13.826
53709W        W18694  38.229  32.356  11.093
53710W        W18695  20.644  31.461  11.140
53711W        W18696  11.884  28.477  12.648
53712W        W18697  44.436   3.441   4.082
53713W        W18698  20.197   9.138  13.973
53714W        W18699  16.287  32.570  10.959
53715W        W18700  17.350   5.212  13.081
53716W        W18701   4.723  28.356   3.613
53717W        W18702   3.100  14.152   2.065
53718W        W18703  18.281  32.001  13.498
53719W        W18704   3.653   9.633   3.337
53720W        W18705   6.936   3.245   4.310
53721W        W18706  22.492   1.532   0.286
53722W        W18707  22.007  43.258   2.772
53723W        W18708  15.619  39.570  12.951
53724W        W18709  27.981  10.484   1.343
53725W        W18710   4.990   2.403   0.061
53726W        W18711  21.782  16.403  12.450
53727W        W18712   0.394  15.643  12.296
53728W        W18713  35.659  31.860   0.753
53729W        W18714  32.465  26.555   3.147
53730W        W18715   8.310  18.367   2.616
53731W        W18716  15.490  40.369   2.649
53732W        W18717  29.642  39.404   1.848
53733W        W18718  25.800  26.118  10.765
53734W        W18719  30.072  22.279   3.678
53735W        W18720  43.284  36.971   1.248
53736W        W18721  31.556   8.152  12.213
53737W        W18722  42.968  22.059   4.132
53738W        W18723   3.803   6.331  14.797
53739W        W18724  36.610  14.732   0.985
53740W        W18725  10.655  30.905   3.559
53741W        W18726   6.300  22.645   3.506
53742W        W18727  31.176   2.194  13.986
53743W        W18728  28.931  17.975  11.696
53744W        W18729  42.534   6.289   2.188
53745W        W18730  27.425  38.455   0.489
53746W        W18731   3.967  39.293   4.561
53747W        W18732   9.900  17.692  11.231
53748W        W18733  15.487  12.393  13.752
53749W        W18734  34.165  33.977  10.767
53750W        W18735  22.602  27.064   1.487
53751W        W18736   9.929  23.071   0.732
53752W        W18737  17.632  17.687  12.360
53753W        W18738   3.507   4.621  13.869
53754W        W18739   8.441   3.177  14.030
53755W        W18740  32.560  41.027  12.571
53756W        W18741  44.987  34.636  11.152
53757W        W18742   4.783  37.082   1.547
53758W        W18743  24.561   7.708  13.471
53759W        W18744  36.832   1.886  14.284
53760W        W18745  33.625   1.965   1.830
53761W        W18746   3.264  36.122  11.369
53762W        W18747   4.956   3.265   2.442
53763W        W18748  19.794  31.809   3.904
53764W        W18749  27.970   9.414  11.750
53765W        W18750  38.292  21.697  13.927
53766W        W18751  27.460  12.697   4.420
53767W        W18752  39.107  17.759  14.786
53768W        W18753  27.855  15.610  12.014
53769W        W18754   5.589   5.191   3.641
53770W        W18755   6.341  20.604   0.497
53771W        W18756  24.623  38.879   2.479
53772W        W18757  36.364  10.935  12.168
53773W        W18758  33.680  17.585   1.622
53774W        W18759   0.924  12.291   2.631
53775W        W18760  23.551   3.204   2.668
53776W        W18761  13.573  33.151  11.000
53777W        W18762   2.854  43.382   2.613
53778W        W18763  13.444  22.247  10.284
53779W        W18764  22.191  26.614  14.962
53780W        W18765  44.317  30.602   3.827
53781W        W18766  30.881   8.873   2.665
53782W        W18767  11.711  21.428  11.476
53783W        W18768  34.157   2.110   3.636
53784W        W18769  27.194  39.040  12.207
53785W        W18770  12.134   0.950   1.433
53786W        W18771  38.931   7.161  12.557
53787W        W18772  18.967  38.933   4.747
53788W        W18773  30.682  18.189  13.906
53789W        W18774  32.364  33.063   4.646
53790W        W18775  26.756  44.886  10.588
53791W        W18776  30.711  18.123  14.817
53792W        W18777  28.991  39.437   0.849
53793W        W18778  25.423  25.392  14.438
53794W        W18779  20.017  37.473   2.535
53795W        W18780  44.523  15.772  10.828
53796W        W18781   6.414  14.648   1.961
53797W        W18782  15.546  39.865   4.857
53798W        W18783  42.651   7.847   1.676
53799W        W18784   6.174  37.334   2.916
53800W        W18785  20.462  33.378  13.462
53801W        W18786  20.376  29.646  12.420
53802W        W18787   0.906  31.547   1.582
53803W        W18788   8.296  26.178  14.941
53804W        W18789   1.374   0.981   2.425
53805W        W18790  41.578  33.349   2.383
53806W        W18791  21.761  32.106   1.690
53807W        W18792  17.850  17.683  13.884
53808W        W18793  37.150  21.362  14.054
53809W        W18794  29.928   3.252  14.442
53810W        W18795  23.026  19.256   2.216
53811W        W18796   8.659  24.548  11.430
53812W        W18797  22.700  40.206  11.085
53813W        W18798  15.066   8.768   0.712
53814W        W18799  11.699   9.675  12.142
53815W        W18800  39.132  34.444   0.904
53816W        W18801  40.536  15.790  13.552
53817W        W18802  40.809  25.431   1.860
53818W        W18803  22.539  24.582  13.256
53819W        W18804   0.783   0.565  11.522
53820W        W18805  19.594  25.279   2.622
53821W        W18806  11.145  38.831  13.526
53822W        W18807  23.347  43.441   0.224
53823W        W18808   8.304  44.291  13.591
53824W        W18809  43.083  40.531   0.779
53825W        W18810  24.025   6.734  11.748
53826W        W18811  42.086  42.730  10.143
53827W        W18812  31.470  29.787   0.840
53828W        W18813  39.941   8.881  10.920
53829W        W18814  44.384  38.159   9.818
53830W        W18815   4.324  17.343   2.400
53831W        W18816   0.368  15.418   3.070
53832W        W18817   8.623   0.098   9.887
53833W        W18818   1.013  11.245   3.087
53834W        W18819  17.742  25.043   4.599
53835W        W18820   1.329  16.670  14.273
53836W        W18821  24.446  19.073  10.760
53837W        W18822  38.874  10.097   0.403
53838W        W18823  27.231  34.935   1.807
53839W        W18824  37.521  39.939  14.987
53840W        W18825  19.834  27.978   3.939
53841W        W18826  27.001  18.702  14.832
53842W        W18827  24.515  27.651   2.250
53843W        W18828  38.295  20.532  11.553
53844W        W18829  10.789  12.392   4.531
53845W        W18830  41.244   6.606   3.371
53846W        W18831   2.266   6.354   1.349
53847W        W18832  13.745  35.586   1.605
53848W        W18833  27.901  11.357   1.264
53849W        W18834  36.347  19.522  10.547
53850W        W18835  31.176  39.907   1.234
53851W        W18836  34.069  36.624   4.136
53852W        W18837  23.337  19.717   0.359
53853W        W18838  20.450   2.118   2.399
53854W        W18839  42.111  42.022   1.422
53855W        W18840  11.676  19.273   3.883
53856W        W18841   6.450   1.468   0.433
53857W        W18842  15.345  14.075  12.850
53858W        W18843   7.330  40.835  14.335
53859W        W18844  39.148  27.721   4.028
53860W        W18845   2.505  36.656  10.635
53861W        W18846  15.063  24.262  11.144
53862W        W18847  37.008  11.362   0.960
53863W        W18848  34.160   6.332  13.179
53864W        W18849  24.046   6.784   0.334
53865W        W18850  13.915   5.488   2.812
53866W        W18851  22.477  27.721  11.113
53867W        W18852   5.306  10.662  14.880
53868W        W18853   8.798  36.846  10.658
53869W        W18854  17.177  41.337   2.155
53870W        W18855   4.797  18.069   0.090
53871W        W18856  36.755  42.243   4.664
53872W        W18857  13.761   1.908   2.418
53873W        W18858  38.759   9.959   2.307
53874W        W18859  38.288  34.061   0.685
53875W        W18860  26.613  29.911   2.361
53876W        W18861  41.039  26.609  12.430
53877W        W18862  42.496  29.827   9.861
53878W        W18863  26.160  11.085   4.754
53879W        W18864  20.242  20.265   2.752
53880W        W18865  27.222  38.833   4.064
53881W        W18866  25.976  13.772  12.102
53882W        W18867  39.537  11.546   3.626
53883W        W18868   3.903  26.678  10.798
53884W        W18869   5.519  32.504  12.464
53885W        W18870  10.556  28.866   0.394
53886W        W18871   4.616  43.280   4.579
53887W        W18872  19.634  24.755   2.702
53888W        W18873   3.962  33.964  14.065
53889W        W18874   7.913  30.939   4.830
53890W        W18875  13.390  17.982   5.083
53891W        W18876  36.321  12.774   2.213
53892W        W18877  18.498  40.122  13.977
53893W        W18878  12.249  32.928   4.650
53894W        W18879  39.637  20.115  12.460
53895W        W18880  35.293  23.579   2.720
53896W        W18881   0.324  11.867   4.628
53897W        W18882  35.446  44.613   1.406
53898W        W18883   1.353  14.585  11.657
53899W        W18884  43.193  44.047   1.798
53900W        W18885  22.064  19.340  13.029
53901W        W18886  39.474  41.747   3.808
53902W        W18887   7.184  15.558  14.298
53903W        W18888   2.021   7.374  13.662
53904W        W18889   1.067  23.630   2.122
53905W        W18890  12.681  15.679  11.959
53906W        W18891   4.539  29.352   4.129
53907W        W18892  21.772   5.762  11.110
53908W        W18893  10.716  29.334  12.855
53909W        W18894  35.057  33.177  14.938
53910W        W18895  12.213  41.025  13.932
53911W        W18896  11.302  32.164   2.393
53912W        W18897   2.279  18.427  12.897
53913W        W18898   8.677  27.735   0.948
53914W        W18899  29.802  33.537   3.822
53915W        W18900  32.155  16.563  11.359
53916W        W18901  38.559  11.785   0.348
53917W        W18902  28.953   0.779  12.145
53918W        W18903  22.031  19.325   3.402
53919W        W18904  23.489  30.478   3.790
53920W        W18905  30.468  14.790  11.596
53921W        W18906  37.214  34.849   1.772
53922W        W18907  19.769  18.630  12.612
53923W        W18908  44.803  20.997   2.332
53924W        W18909  26.464  39.798   3.177
53925W        W18910   8.456  25.426  14.437
53926W        W18911  38.427  19.744  14.348
53927W        W18912  29.338  10.393   4.957
53928W        W18913  18.835   9.657  12.090
53929W        W18914  13.178   8.321   0.137
53930W        W18915   4.192  39.252   3.716
53931W        W18916  32.763  44.924   3.796
53932W        W18917  28.444  29.477  11.455
53933W        W18918  33.439  35.352   2.770
53934W        W18919  39.548  16.112  11.147
53935W        W18920  38.825  26.510  14.051
53936W        W18921   4.295  29.867  14.456
53937W        W18922  31.646  20.609  14.026
53938W        W18923  11.357  15.123  11.181
53939W        W18924  24.094  35.910  13.828
53940W        W18925  42.544   3.269   3.660
53941W        W18926  36.663  21.711   2.275
53942W        W18927  33.856   8.791  13.875
53943W        W18928  28.063  44.347   3.745
53944W        W18929  10.865  25.506  11.171
53945W        W18930  16.878  25.196  11.658
53946W        W18931   1.469  33.042   4.087
53947W        W18932  23.159  14.363  14.291
53948W        W18933  36.124   3.254  12.886
53949W        W18934  28.155  23.646   1.415
53950W        W18935  35.039  12.303  11.054
53951W        W18936  42.897   1.876  12.932
53952W        W18937   8.402   8.975   4.313
53953W        W18938  16.143   0.898   4.655
53954W        W18939  18.210   1.808   1.393
53955W        W18940  21.654  13.209  13.335
53956W        W18941  25.495  38.412  13.437
53957W        W18942  18.362  11.885  12.034
53958W        W18943  20.134  19.275   1.812
53959W        W18944  39.265  21.696  11.018
53960W        W18945  25.894  20.636  13.428
53961W        W18946   0.917  15.369   4.593
53962W        W18947  15.766  42.496   2.694
53963W        W18948  40.533   6.683  13.622
53964W        W18949  34.546   0.329   1.950
53965W        W18950  28.967  17.979  11.172
53966W        W18951   2.281   8.863   0.367
53967W        W18952  39.799   0.023   2.135
53968W        W18953  21.076  39.990   3.781
53969W        W18954  22.947  26.669   0.405
53970W        W18955  34.488  42.348   3.692
53971W        W18956  30.059  13.408   4.564
53972W        W18957   7.902   9.669  14.886
53973W        W18958   8.831  18.540   1.428
53974W        W18959  14.818   4.765   2.351
53975W        W18960  44.275  18.202  13.314
53976W        W18961  42.796   1.376   3.409
53977W        W18962  10.128   7.908  12.101
53978W        W18963  36.153  20.832  10.484
53979W        W18964  35.380   0.561   1.942
53980W        W18965  18.943  38.636  12.921
53981W        W18966  19.234  33.893   0.728
53982W        W18967   4.451   9.973  13.688
53983W        W18968   8.891  20.102   1.602
53984W        W18969  19.645  36.795   2.498
53985W        W18970  11.651  44.023  14.448
53986W        W18971  25.506  24.650   2.111
53987W        W18972  21.651  42.890   2.683
53988W        W18973  44.864  16.762   0.950
53989W        W18974  39.627  14.860  11.992
53990W        W18975  39.308  12.338   4.142
53991W        W18976  38.122   1.981  11.113
53992W        W18977  35.392  14.162  11.835
53993W        W18978  34.347  38.406   2.864
53994W        W18979  34.342  36.490  13.951
53995W        W18980   8.769  32.805   0.679
53996W        W18981  16.339  16.068   2.366
53997W        W18982   2.449  36.867   0.304
53998W        W18983  31.954   4.386  13.533
53999W        W18984  21.467   9.393  10.756
54000W        W18985  12.444  35.543  12.502
54001W        W18986  24.116  40.594  14.991
54002W        W18987  42.256  37.847  12.977
54003W        W18988   5.394  26.161  12.285
54004W        W18989   3.465  41.718  14.440
54005W        W18990  17.256  41.372   3.526
54006W        W18991  43.450   4.733  14.196
54007W        W18992  27.898   7.792   0.427
54008W        W18993  41.022   4.024   2.940
54009W        W18994   3.063   7.814   4.335
54010W        W18995  13.566  14.338  12.062
54011W        W18996  35.886  40.305  14.804
54012W        W18997  28.956  26.359  11.230
54013W        W18998   4.650  34.673   3.711
54014W        W18999  34.155   3.463  11.255
54015W        W19000   6.216   2.002  13.473
54016W        W19001   1.419  40.086   1.872
54017W        W19002  36.009  17.724   2.153
54018W        W19003  28.012  27.665   2.854
54019W        W19004  44.247   8.158   3.480
54020W        W19005   7.414  41.058   3.316
54021W        W19006   1.764  15.615  10.719
54022W        W19007  22.664  19.597   2.904
54023W        W19008   3.819   6.642   4.562
54024W        W19009  33.508  44.382   9.954
54025W        W19010  18.590   4.648  14.324
54026W        W19011  20.347  10.065   3.756
54027W        W19012  34.297   1.882  13.426
54028W        W19013  30.136  32.180   4.116
54029W        W19014  27.198  19.598   2.164
54030W        W19015   0.905  17.567   0.253
54031W        W19016  32.414  36.028   1.185
54032W        W19017   2.360   8.852  14.281
54033W        W19018   5.425  12.890   3.294
54034W        W19019  39.616  17.646  10.219
54035W        W19020  23.379  13.580  12.118
54036W        W19021  30.809  10.208   0.300
54037W        W19022  14.648  15.330  14.689
54038W        W19023   2.419   5.892   1.476
54039W        W19024  30.057  10.619   0.860
54040W        W19025  12.154  32.523   4.980
54041W        W19026   3.682  43.009   4.243
54042W        W19027   4.083   6.766   1.680
54043W        W19028  24.203  21.223   0.193
54044W        W19029   8.636  31.214  12.879
54045W        W19030   1.517  21.288   1.775
54046W        W19031  24.310  29.998  14.931
54047W        W19032  34.442   6.866   4.481
54048W        W19033  40.601  25.094  12.055
54049W        W19034  12.903  34.382  14.493
54050W        W19035   2.342   8.858   1.238
54051W        W19036  31.515  26.052   4.084
54052W        W19037  19.216  32.595   0.863
54053W        W19038  42.532  10.694   3.646
54054W        W19039  37.502  36.025  11.025
54055W        W19040  25.395   4.114  13.109
54056W        W19041   4.666   7.264   0.796
54057W        W19042  42.066  23.704   2.172
54058W        W19043  44.861  11.897   4.869
54059W        W19044  39.341   5.286  13.399
54060W        W19045  32.462   1.208  13.438
54061W        W19046   6.262  37.607   0.890
54062W        W19047  29.513  35.177   3.671
54063W        W19048  12.156  34.513   0.871
54064W        W19049  19.346  21.130  13.439
54065W        W19050  28.020  44.436  13.514
54066W        W19051  41.004  44.206   4.693
54067W        W19052  34.053  35.115  12.106
54068W        W19053  41.334   3.272  11.219
54069W        W19054  27.540  41.458  11.968
54070W        W19055  43.903  38.502   1.350
54071W        W19056  37.430  18.847  13.594
54072W        W19057  29.295  10.273  11.864
54073W        W19058  22.170   1.985   3.395
54074W        W19059   3.357  28.675   0.305
54075W        W19060  25.021  26.384  12.022
54076W        W19061  28.823  40.592   3.605
54077W        W19062  19.198  39.814   4.269
54078W        W19063  30.585  35.856   0.786
54079W        W19064  16.231  18.827   3.695
54080W        W19065  18.703  20.747  12.364
54081W        W19066  36.993  23.788   2.778
54082W        W19067   2.709  18.248   0.469
54083W        W19068  30.021   0.842   0.691
54084W        W19069  21.163  26.031   1.212
54085W        W19070  23.492  41.057  14.344
54086W        W19071  11.363  16.522   1.045
54087W        W19072  39.295  24.933  12.406
54088W        W19073  29.826  31.669   2.208
54089W        W19074  32.162  42.583  14.779
54090W        W19075   1.998  34.551  12.399
54091W        W19076  41.559  12.381  13.976
54092W        W19077  41.883   2.727   4.270
54093W        W19078   2.777  25.093  12.475
54094W        W19079   4.959   3.972  11.096
54095W        W19080  35.793  37.100   1.921
54096W        W19081  19.800  42.783   3.124
54097W        W19082  29.184  35.089  13.668
54098W        W19083  25.350  14.326  13.237
54099W        W19084  43.302  35.200   1.205
54100W        W19085  17.556  28.522  12.552
54101W        W19086  28.213  35.527  14.543
54102W        W19087   7.341  21.537  14.911
54103W        W19088   3.084  14.808   1.614
54104W        W19089  35.144  28.979   1.793
54105W        W19090  36.067  36.619  12.832
54106W        W19091   2.748   0.397   3.099
54107W        W19092  16.821  35.942  14.346
54108W        W19093   8.953  29.717   3.161
54109W        W19094  24.395   0.367  12.663
54110W        W19095  15.822   4.224   5.040
54111W        W19096  22.071  23.725  14.068
54112W        W19097  32.531  11.747  11.114
54113W        W19098  36.529  19.070  10.698
54114W        W19099  10.258  13.778   4.436
54115W        W19100  41.855  28.223  12.610
54116W        W19101  38.839  22.563   0.749
54117W        W19102  24.064  41.670  11.668
54118W        W19103  44.938  44.916  11.971
54119W        W19104   5.336  30.486   4.339
54120W        W19105  40.597  32.302  12.463
54121W        W19106  42.060  21.783   2.357
54122W        W19107  40.187   7.788   4.717
54123W        W19108  39.297  20.054   1.690
54124W        W19109   8.738  17.532  13.068
54125W        W19110  20.898  20.498  12.230
54126W        W19111  22.504  18.079  10.672
54127W        W19112  23.621  36.840   1.155
54128W        W19113  30.369   3.494   5.020
54129W        W19114  41.284  27.281   1.842
54130W        W19115  21.165  24.633   3.074
54131W        W19116  36.488  42.837  14.486
54132W        W19117  34.522  20.640   1.280
54133W        W19118  22.311  15.740  13.082
54134W        W19119  37.454  25.074   0.365
54135W        W19120   6.981  19.515   0.583
54136W        W19121  31.452  19.648   3.527
54137W        W19122  36.317  27.152   3.106
54138W        W19123   8.985  11.391  11.089
54139W        W19124   5.675  28.509  12.464
54140W        W19125  18.672  11.335   0.834
54141W        W19126  42.930   3.273  14.978
54142W        W19127   3.459  37.062   4.841
54143W        W19128  32.313  37.975   3.538
54144W        W19129   8.646  31.383   4.403
54145W        W19130  43.164  20.699   5.140
54146W        W19131  39.343   5.930   0.823
54147W        W19132  18.168   4.146   3.503
54148W        W19133  35.532  43.512  12.655
54149W        W19134  35.433  18.064   0.043
54150W        W19135  15.014   9.901  11.763
54151W        W19136  15.227  26.589   3.758
54152W        W19137  43.082  19.650   1.914
54153W        W19138  20.825  37.628   0.361
54154W        W19139   5.542  35.161  14.459
54155W        W19140  19.916  20.213  10.192
54156W        W19141  27.225  35.374   3.461
54157W        W19142   6.328  30.468   0.796
54158W        W19143  24.786  30.248   1.310
54159W        W19144  13.841  23.794   0.899
54160W        W19145  36.827  26.393   3.551
54161W        W19146  11.222  31.939  13.919
54162W        W19147  33.450  17.801   3.287
54163W        W19148  13.655  41.221   3.672
54164W        W19149   6.260  19.025   1.264
54165W        W19150  40.335   4.244  14.391
54166W        W19151   0.894  11.313  12.629
54167W        W19152  44.237  22.553   0.916
54168W        W19153   4.922   0.184   4.145
54169W        W19154  19.758   4.265   0.846
54170W        W19155  24.584  43.388   3.796
54171W        W19156  22.224  12.170   1.201
54172W        W19157  31.558  39.487  12.882
54173W        W19158  42.444  20.866   2.616
54174W        W19159  25.645   8.880  14.255
54175W        W19160  17.320  13.190   2.679
54176W        W19161  20.570  36.599  13.999
54177W        W19162   8.888  10.784  14.862
54178W        W19163  39.087  36.120   2.232
54179W        W19164  21.678  42.963  12.996
54180W        W19165  43.388   8.508   4.135
54181W        W19166  28.224  25.992   1.743
54182W        W19167  28.599  37.426   0.493
54183W        W19168  39.426  17.827   3.667
54184W        W19169   4.889  23.109   2.795
54185W        W19170  12.198  10.331   1.167
54186W        W19171  10.287   3.242   1.678
54187W        W19172   5.861  43.512  12.957
54188W        W19173  16.056   4.622  13.051
54189W        W19174  28.427  24.479  10.668
54190W        W19175  39.063  18.608   5.411
54191W        W19176   1.575  38.558  12.017
54192W        W19177  14.414   0.429   1.812
54193W        W19178  34.809   3.384   5.092
54194W        W19179   6.142  44.239  10.730
54195W        W19180  14.256   3.669   3.062
54196W        W19181  17.259  39.151   1.251
54197W        W19182  35.467  24.409  14.345
54198W        W19183  37.955   7.229   2.956
54199W        W19184   0.952   0.677   3.633
54200W        W19185  21.148   0.513   3.356
54201W        W19186  33.012  29.673  10.723
54202W        W19187  17.067  43.378  14.688
54203W        W19188  14.908  16.809  11.087
54204W        W19189   0.940  25.984   1.875
54205W        W19190   3.518  17.354   0.799
54206W        W19191  14.694   1.711  13.513
54207W        W19192  31.387   8.296  14.914
54208W        W19193  28.009  20.009   4.080
54209W        W19194   8.061   9.932  11.774
54210W        W19195  18.974   2.392  12.580
54211W        W19196   1.202  39.650  13.433
54212W        W19197  22.122  14.482   4.210
54213W        W19198  16.905   8.975   1.352
54214W        W19199   4.531  20.752  14.314
54215W        W19200  20.721  10.600   2.465
54216W        W19201   1.515  10.880  13.060
54217W        W19202   1.794  21.166  10.987
54218W        W19203  12.674  28.649   4.915
54219W        W19204  44.860   5.454   3.652
54220W        W19205  17.333  37.916  13.773
54221W        W19206  16.498   0.538  12.057
54222W        W19207  41.988   3.213  10.298
54223W        W19208   3.799  42.582  14.833
54224W        W19209  21.706  23.010  11.437
54225W        W19210  44.827  26.371   3.182
54226W        W19211  35.801  39.414  12.456
54227W        W19212   0.826  32.850   2.261
54228W        W19213  40.151  44.583   1.211
54229W        W19214  20.367  10.761   1.540
54230W        W19215  10.698  44.663   0.461
54231W        W19216  40.510  27.359  14.029
54232W        W19217   4.086  23.295  11.220
54233W        W19218  34.447   8.562   1.276
54234W        W19219  42.437  27.192   0.467
54235W        W19220  33.113  13.646  14.753
54236W        W19221  18.590  36.208   9.944
54237W        W19222  22.726  23.446  12.938
54238W        W19223  16.842  26.625  13.010
54239W        W19224  16.011  32.659   0.800
54240W        W19225  41.778  28.968  13.207
54241W        W19226  36.038  16.442   2.962
54242W        W19227  35.662   2.220   3.627
54243W        W19228  27.541  25.449  11.929
54244W        W19229  11.193  10.277   1.429
54245W        W19230  23.939  32.488  12.022
54246W        W19231  37.387  36.846  12.021
54247W        W19232  10.153  34.320  10.813
54248W        W19233  34.604  31.402  14.974
54249W        W19234  24.110  15.074  11.196
54250W        W19235  16.281  33.547   2.349
54251W        W19236  10.421  11.986  12.007
54252W        W19237  16.189  10.858  11.440
54253W        W19238  32.524  19.298   0.135
54254W        W19239  38.985   4.827   3.864
54255W        W19240  34.758  10.345   0.704
54256W        W19241  29.930  28.838   1.407
54257W        W19242  19.877  28.199  10.450
54258W        W19243  33.086  22.693  11.068
54259W        W19244  29.677   6.809  12.584
54260W        W19245  14.161  23.608   0.029
54261W        W19246  12.047   9.732  13.459
54262W        W19247  28.069  38.386  10.340
54263W        W19248  35.522  43.437   4.571
54264W        W19249  43.313   7.774   4.656
54265W        W19250   0.583   9.231  12.868
54266W        W19251  26.661  19.711  12.197
54267W        W19252  12.541  24.563  12.219
54268W        W19253  35.055   2.726   1.712
54269W        W19254  41.405  43.847  12.473
54270W        W19255  30.158   1.949  12.109
54271W        W19256   7.775  17.158   2.005
54272W        W19257  13.760   5.747   2.350
54273W        W19258  23.129   2.655   4.899
54274W        W19259   1.027   4.646   2.839
54275W        W19260  15.183  23.580  12.443
54276W        W19261  37.802  44.325   3.456
54277W        W19262  10.310  27.169  13.870
54278W        W19263  13.359   4.187   2.387
54279W        W19264  27.271   9.696  14.346
54280W        W19265  41.012  39.980  10.291
54281W        W19266  36.946  29.121   1.925
54282W        W19267  35.201  15.358  13.886
54283W        W19268   0.399   8.905   1.895
54284W        W19269  34.111  37.882  11.131
54285W        W19270  24.798  21.216   4.159
54286W        W19271   9.491  15.840   0.337
54287W        W19272  18.167  18.821  14.309
54288W        W19273  21.129  36.439  10.953
54289W        W19274  36.392  27.953   0.458
54290W        W19275  26.273   7.710   4.087
54291W        W19276  39.919   5.706  10.657
54292W        W19277   6.471  38.832  10.571
54293W        W19278  10.084  27.170  12.537
54294W        W19279  36.170  17.754   0.640
54295W        W19280  35.608  36.049  10.794
54296W        W19281  16.517  42.949   4.992
54297W        W19282  32.061  34.157   2.438
54298W        W19283  14.927  18.974  13.537
54299W        W19284  38.178  37.678   3.090
54300W        W19285  15.757   6.991  10.653
54301W        W19286   0.589  29.052  12.698
54302W        W19287  30.540   7.112   4.207
54303W        W19288  14.738   2.152  11.556
54304W        W19289  24.450   2.968  14.165
54305W        W19290  18.934  25.020   3.520
54306W        W19291   8.326  25.973   2.764
54307W        W19292   9.889  22.492  11.079
54308W        W19293  26.713  43.588  12.036
54309W        W19294   7.539  44.897   2.294
54310W        W19295   3.209  12.057   0.743
54311W        W19296  41.615  33.102  12.404
54312W        W19297  38.781  36.811  12.025
54313W        W19298   5.870  35.353   0.926
54314W        W19299   6.366  24.550   0.797
54315W        W19300   9.725   4.543   1.738
54316W        W19301   7.401  13.883  12.610
54317W        W19302  35.092  23.598   0.899
54318W        W19303   9.293   0.009   0.417
54319W        W19304  44.982   3.266   3.564
54320W        W19305  39.815  34.894  12.021
54321W        W19306  40.994  12.863   0.032
54322W        W19307  41.539  44.284   1.387
54323W        W19308   2.209  28.697   0.945
54324W        W19309  16.694  12.595  12.794
54325W        W19310  33.261  11.328  11.142
54326W        W19311  33.615  13.149   0.241
54327W        W19312  34.390  32.910  11.513
54328W        W19313  14.750  37.875  13.948
54329W        W19314  25.113  20.813  13.107
54330W        W19315   2.801  17.482   3.544
54331W        W19316  37.911  16.368  11.332
54332W        W19317  10.110  29.937  11.560
54333W        W19318  17.556  21.087  12.453
54334W        W19319   1.261  19.327  11.196
54335W        W19320  15.594  37.677   0.490
54336W        W19321  24.060  21.531   3.681
54337W        W19322   5.102   7.388  13.255
54338W        W19323  20.932  36.637  14.398
54339W        W19324  35.181  34.017  10.571
54340W        W19325   5.384  30.667  12.465
54341W        W19326  25.957  13.230  12.056
54342W        W19327  35.401   2.711  12.313
54343W        W19328  33.622   2.026   2.719
54344W        W19329  33.894  20.587   1.524
54345W        W19330  43.945   0.642  12.996
54346W        W19331   9.821  38.513  14.309
54347W        W19332  41.342  33.801  10.994
54348W        W19333  14.697   1.737  12.109
54349W        W19334  32.468  23.207   3.306
54350W        W19335  35.363  34.756   0.946
54351W        W19336  44.778   9.669   3.257
54352W        W19337  30.144  41.384  11.455
54353W        W19338  30.215  14.812  10.785
54354W        W19339  23.000  29.884  12.775
54355W        W19340  33.355  21.939  13.236
54356W        W19341  40.995  41.042  11.245
54357W        W19342  21.453  20.940  12.347
54358W        W19343  21.329  15.148   1.776
54359W        W19344  17.192  14.090   0.448
54360W        W19345   7.524   1.136  14.084
54361W        W19346  29.957  10.864   2.575
54362W        W19347  38.368  10.571  14.532
54363W        W19348  24.382  24.517   4.554
54364W        W19349  30.537  12.347  14.033
54365W        W19350  19.105  18.534  14.343
54366W        W19351  16.558  41.594  11.082
54367W        W19352  33.571  23.237  10.318
54368W        W19353   9.848   0.899  12.804
54369W        W19354  44.324  20.412  14.073
54370W        W19355  35.344  11.700  13.968
54371W        W19356   9.945   1.700   4.618
54372W        W19357  13.847  39.508   1.362
54373W        W19358  25.766   9.444   2.289
54374W        W19359  40.509  15.116  14.486
54375W        W19360  32.569  40.470   0.486
54376W        W19361  23.629  18.798   0.210
54377W        W19362  36.784  15.999   2.725
54378W        W19363  29.966  25.466   2.203
54379W        W19364  23.829   1.900   3.175
54380W        W19365  25.977  43.504   0.720
54381W        W19366   6.124   6.854  12.065
54382W        W19367  39.314  24.039  13.321
54383W        W19368  40.580  21.897  13.035
54384W        W19369  20.726  21.254   2.304
54385W        W19370  22.737  37.094  13.395
54386W        W19371  30.885  34.410  11.541
54387W        W19372  41.976   3.621  11.038
54388W        W19373  24.494  32.333  12.571
54389W        W19374  16.602  31.560  12.459
54390W        W19375  16.303  29.020  13.499
54391W        W19376  32.948  31.945   0.323
54392W        W19377  43.625   9.852   2.711
54393W        W19378  35.135  16.227  14.692
54394W        W19379  12.284  15.743  10.503
54395W        W19380  39.923  40.252  11.698
54396W        W19381   8.691   2.666   5.025
54397W        W19382  18.649  23.153   2.284
54398W        W19383  20.051  43.907   0.998
54399W        W19384   4.635  12.314   0.684
54400W        W19385  29.443  20.574  12.077
54401W        W19386  32.002  41.959   3.569
54402W        W19387  18.442  28.620  13.830
54403W        W19388   6.424   3.037   4.526
54404W        W19389  40.302  13.121   2.194
54405W        W19390   2.757   0.182   1.251
54406W        W19391  40.447  43.542  14.532
54407W        W19392  21.813  26.606  11.750
54408W        W19393  20.068  11.759  10.301
54409W        W19394  11.281  23.037  12.557
54410W        W19395  21.487  10.887  14.025
54411W        W19396  28.613  30.940   0.140
54412W        W19397   0.273   5.630   2.730
54413W        W19398  43.792  23.221   1.390
54414W        W19399  26.524  36.842  13.389
54415W        W19400  12.173   6.247   3.671
54416W        W19401  33.669  13.607  11.439
54417W        W19402  38.516  18.632   3.221
54418W        W19403  10.508   6.789   9.591
54419W        W19404  34.525   9.372  13.731
54420W        W19405  43.480  11.263   4.295
54421W        W19406  28.000  25.898  12.840
54422W        W19407  29.831  40.545   5.100
54423W        W19408  37.400   0.162   1.260
54424W        W19409  32.614   2.458   4.016
54425W        W19410  15.005  38.437  11.879
54426W        W19411  16.723  13.873  11.986
54427W        W19412   3.803   7.831   2.742
54428W        W19413  44.880  29.072  12.897
54429W        W19414   3.694  17.333  12.657
54430W        W19415  30.023  38.355  13.851
54431W        W19416   0.607  20.620   3.375
54432W        W19417  33.776   9.384  12.645
54433W        W19418   6.331   8.693   4.053
54434W        W19419  12.688  42.005  14.972
54435W        W19420  38.817  33.803   4.108
54436W        W19421  27.536   2.370  11.218
54437W        W19422  16.024  40.584   0.291
54438W        W19423   9.869  21.029  11.043
54439W        W19424   6.887  39.535  13.788
54440W        W19425   4.590  33.683  10.312
54441W        W19426  15.535   5.706   2.396
54442W        W19427  24.269  14.151  10.333
54443W        W19428  14.405   0.304   1.263
54444W        W19429  34.110  41.406   1.877
54445W        W19430  44.016  13.088  13.399
54446W        W19431  34.729  44.289   3.746
54447W        W19432  14.748  18.705   1.194
54448W        W19433   7.163  10.185  10.648
54449W        W19434  21.435  12.782  10.586
54450W        W19435  35.787   2.479   4.182
54451W        W19436   2.042  13.889   4.139
54452W        W19437  23.537   9.821  11.130
54453W        W19438  42.645  41.417  14.926
54454W        W19439  19.146  18.023  14.274
54455W        W19440  18.679  29.175   1.148
54456W        W19441  22.705  25.729   2.149
54457W        W19442  30.931  27.669   2.160
54458W        W19443   2.499  22.437   1.643
54459W        W19444   1.312  35.410  14.409
54460W        W19445  13.291   3.942  12.702
54461W        W19446  13.257  12.737   0.662
54462W        W19447  41.262   0.993   4.538
54463W        W19448  44.208   3.900  13.250
54464W        W19449  28.840  41.383  12.816
54465W        W19450   4.744  35.489  13.814
54466W        W19451   9.271   3.915   2.889
54467W        W19452  19.404  36.696  11.262
54468W        W19453  38.349  41.067  13.408
54469W        W19454  40.465  41.560  13.047
54470W        W19455  40.358  33.019  13.060
54471W        W19456  39.511   6.655  10.644
54472W        W19457  28.191  15.611  10.492
54473W        W19458  44.467   8.883  13.985
54474W        W19459  42.420  11.885  14.353
54475W        W19460   6.910  42.499   4.172
54476W        W19461  24.928  32.458   3.206
54477W        W19462  41.124  24.166  10.397
54478W        W19463  34.456  43.951   2.683
54479W        W19464   2.258  25.492   3.899
54480W        W19465  13.316  10.590  14.900
54481W        W19466  37.015  19.257  12.148
54482W        W19467  39.038  42.744  13.802
54483W        W19468  23.970   8.904   2.872
54484W        W19469   4.148  43.301   2.892
54485W        W19470  26.601  10.771  12.031
54486W        W19471  36.875  37.747  13.413
54487W        W19472  12.020  43.139   0.976
54488W        W19473  16.317  15.740   3.666
54489W        W19474  10.395  39.959   0.703
54490W        W19475  14.309   0.813  12.026
54491W        W19476  18.047   0.364  10.963
54492W        W19477  39.829  43.449   3.537
54493W        W19478   1.271  30.468   0.900
54494W        W19479  17.419  35.463   3.295
54495W        W19480  32.149  24.066   3.365
54496W        W19481  36.844  12.111  14.385
54497W        W19482  14.700  24.028  13.406
54498W        W19483  39.335  20.191  14.003
54499W        W19484  25.469  27.658   2.195
54500W        W19485   7.392  32.142  11.814
54501W        W19486  12.613  20.716  14.507
54502W        W19487  29.487   8.456   3.142
54503W        W19488  28.329  17.956   1.255
54504W        W19489   9.717  34.595  10.886
54505W        W19490  21.753  39.118   0.421
54506W        W19491  31.574  32.986  13.561
54507W        W19492  32.350  30.919  13.485
54508W        W19493  30.437  40.615  11.490
54509W        W19494  32.246  41.390   0.879
54510W        W19495  32.677   9.452  11.554
54511W        W19496  21.640  27.087  11.024
54512W        W19497  31.734  38.050  14.068
54513W        W19498  23.936  34.609   3.171
54514W        W19499  30.946  13.350   0.695
54515W        W19500  22.341  36.002  11.462
54516W        W19501  21.478  15.708   0.377
54517W        W19502   5.705  17.229   4.310
54518W        W19503   9.876  35.527   2.826
54519W        W19504  41.402   5.140   0.939
54520W        W19505  15.737  43.645   2.802
54521W        W19506   9.656  38.684  12.029
54522W        W19507  12.314  41.782   2.212
54523W        W19508  28.093  43.848   4.023
54524W        W19509  40.249  13.655   3.966
54525W        W19510  43.357  18.600  14.753
54526W        W19511  22.613  11.409  11.386
54527W        W19512  33.829  10.656  10.620
54528W        W19513   8.079   8.749   2.740
54529W        W19514  38.329  16.045   2.413
54530W        W19515  14.287   6.302  13.783
54531W        W19516  38.634   5.351   1.034
54532W        W19517  26.474  31.174  13.366
54533W        W19518  38.510  24.075   1.409
54534W        W19519  38.227  41.310   3.397
54535W        W19520  30.496   3.030   1.226
54536W        W19521  10.862  17.244   1.814
54537W        W19522  27.141  13.765   1.972
54538W        W19523  24.544  30.447  14.994
54539W        W19524  38.075  34.962  10.516
54540W        W19525  32.733   3.776  14.985
54541W        W19526   9.234   1.217  14.961
54542W        W19527  31.691   9.417   1.673
54543W        W19528  20.530   8.344   3.311
54544W        W19529   8.494  36.241  14.346
54545W        W19530  40.625  29.002  12.594
54546W        W19531  35.080  35.143  12.935
54547W        W19532   1.973  26.489  14.327
54548W        W19533  16.882  24.563  10.454
54549W        W19534  11.808  32.560  11.914
54550W        W19535   5.661  39.025  11.867
54551W        W19536  32.079  42.405  10.465
54552W        W19537  23.108   3.332  11.835
54553W        W19538  21.480  28.091   1.695
54554W        W19539  20.819  38.729  10.842
54555W        W19540  30.986  16.126  11.662
54556W        W19541   3.122  14.642  13.328
54557W        W19542  20.898  27.435   1.836
54558W        W19543   9.272  22.712   4.567
54559W        W19544  44.761   7.469   3.733
54560W        W19545  31.530  31.167  13.845
54561W        W19546   3.744  27.258   2.192
54562W        W19547  31.464  16.851  12.346
54563W        W19548  26.433   3.904  11.994
54564W        W19549  10.196  42.348   4.370
54565W        W19550  19.292  41.414   2.370
54566W        W19551  39.268  13.605   0.273
54567W        W19552   4.721  17.130   1.908
54568W        W19553  30.120  16.076   1.403
54569W        W19554  28.564   2.491  10.439
54570W        W19555  41.152  42.546   1.923
54571W        W19556  16.619  39.019   2.022
54572W        W19557  42.893  41.322   0.377
54573W        W19558  31.242  38.622  11.050
54574W        W19559  38.975  21.205   0.379
54575W        W19560   7.495   6.632  14.358
54576W        W19561   2.853  38.914   3.829
54577W        W19562  30.776  16.490  12.879
54578W        W19563  13.354   8.932   5.188
54579W        W19564  39.431  32.565  12.954
54580W        W19565  11.879  40.519  11.250
54581W        W19566  35.088   0.211  14.041
54582W        W19567  32.519   1.987  10.828
54583W        W19568  37.017  11.299   0.455
54584W        W19569  26.155  35.316  12.278
54585W        W19570   5.467  27.187   3.728
54586W        W19571   9.271  21.095  13.848
54587W        W19572  42.738  33.648  13.740
54588W        W19573  42.335  41.408   0.336
54589W        W19574  12.505  32.011  11.395
54590W        W19575  29.193  16.146   4.374
54591W        W19576  13.981   7.853   4.540
54592W        W19577  12.679  36.815   3.878
54593W        W19578   0.680   8.898  14.170
54594W        W19579  10.925  19.517  13.009
54595W        W19580   6.778  35.090  10.583
54596W        W19581  21.388  20.729   4.629
54597W        W19582  23.299  41.462  10.731
54598W        W19583  10.761  37.849   3.193
54599W        W19584  38.596  32.532  13.488
54600W        W19585  31.206   8.082   3.630
54601W        W19586  43.273  20.197   1.903
54602W        W19587  42.825  44.476   5.043
54603W        W19588  32.482   9.742   4.547
54604W        W19589  30.433  18.183  12.498
54605W        W19590  17.667  41.043  12.142
54606W        W19591  18.678  40.757   4.607
54607W        W19592  39.514  42.850  11.694
54608W        W19593  31.187  14.024   3.709
54609W        W19594  27.123  10.404   2.728
54610W        W19595   3.915   4.448   0.962
54611W        W19596  20.947  44.766   4.619
54612W        W19597  27.162  31.007  13.451
54613W        W19598   3.330  16.053  11.141
54614W        W19599  43.844  24.429  13.995
54615W        W19600  26.143  11.714  11.427
54616W        W19601   6.698  28.538   1.481
54617W        W19602  18.767  24.351  12.017
54618W        W19603  40.847  12.145  12.333
54619W        W19604  22.308  25.604  13.477
54620W        W19605   2.787  15.017  13.249
54621W        W19606  32.818  15.934   2.608
54622W        W19607  38.004  39.380   2.823
54623W        W19608  41.808  35.986  12.190
54624W        W19609   1.984  34.738  13.952
54625W        W19610  31.454  28.735  10.658
54626W        W19611  44.781  39.663  12.446
54627W        W19612  34.829   4.349  11.091
54628W        W19613   7.292  31.913  13.228
54629W        W19614  12.326  36.300  12.003
54630W        W19615   0.794  10.468   3.699
54631W        W19616   5.145  20.713  13.430
54632W        W19617  10.801  22.637   0.503
54633W        W19618  44.995   7.220  13.869
54634W        W19619   1.905   8.108   4.997
54635W        W19620  27.648  30.944   1.312
54636W        W19621  16.114  38.568   4.699
54637W        W19622   7.801  27.677   1.826
54638W        W19623  14.643  11.448  14.762
54639W        W19624  29.472  22.027   4.586
54640W        W19625  25.279  39.613   4.129
54641W        W19626  25.139  19.129  11.645
54642W        W19627  28.822  17.186   3.289
54643W        W19628  37.636  23.130  10.895
54644W        W19629  12.604  41.508  14.763
54645W        W19630  18.947   5.956   3.646
54646W        W19631  17.560  13.495  11.131
54647W        W19632   0.769   1.650   3.916
54648W        W19633   3.245   2.286   0.750
54649W        W19634  41.844  40.434  11.043
54650W        W19635  25.295   1.441  14.746
54651W        W19636  16.433   3.008  11.740
54652W        W19637  40.594   6.737   3.361
54653W        W19638   2.492   9.688   1.620
54654W        W19639   9.798  22.760  14.431
54655W        W19640  37.914   1.987  12.645
54656W        W19641  22.070  22.596   0.147
54657W        W19642   8.279   1.244   3.830
54658W        W19643  17.977  29.859   0.845
54659W        W19644  16.996  30.891   0.944
54660W        W19645  25.161  22.277  14.956
54661W        W19646  15.073  38.004   3.147
54662W        W19647   5.645  21.429   1.963
54663W        W19648   2.900  13.651   2.879
54664W        W19649  24.038  11.788   0.460
54665W        W19650  26.245   4.763   3.600
54666W        W19651  35.931  34.478  10.560
54667W        W19652  24.057  29.665  12.023
54668W        W19653  33.181  31.542   1.340
54669W        W19654  30.497  27.113   0.939
54670W        W19655  12.378  12.687  13.778
54671W        W19656   4.277  21.207   0.249
54672W        W19657  29.673   4.848   1.340
54673W        W19658  32.634  13.310  11.454
54674W        W19659   1.033  32.384   0.798
54675W        W19660  10.884  23.910   2.471
54676W        W19661   1.261   6.275   1.448
54677W        W19662  40.740  44.930  13.035
54678W        W19663  12.900   2.007  14.517
54679W        W19664  16.180  44.398  14.799
54680W        W19665  15.308   9.126   3.128
54681W        W19666   5.430  16.174   3.100
54682W        W19667   4.708  40.284  12.628
54683W        W19668  29.153   9.712  10.689
54684W        W19669  10.732  31.903   4.150
54685W        W19670  34.162  23.527   0.439
54686W        W19671  14.554  41.121   2.658
54687W        W19672  36.087  44.020   1.955
54688W        W19673  38.657  10.795  14.914
54689W        W19674   6.821  24.996   4.815
54690W        W19675  15.581  26.179  14.510
54691W        W19676   0.397  39.182   0.184
54692W        W19677  26.220  20.387  13.113
54693W        W19678  19.434  38.468  12.865
54694W        W19679  24.624  38.078   4.700
54695W        W19680  17.446  41.418   4.140
54696W        W19681   1.450  13.266  13.841
54697W        W19682   2.021  16.348  13.774
54698W        W19683   6.286  10.800   0.376
54699W        W19684   9.627  34.803   1.674
54700W        W19685   2.527  40.989   2.808
54701W        W19686  38.314  36.292  14.070
54702W        W19687  41.509   6.382  14.573
54703W        W19688   3.018  11.887  14.840
54704W        W19689  16.310  27.702   0.998
54705W        W19690   6.183  13.512   0.178
54706W        W19691  30.658  42.047   3.243
54707W        W19692   0.635  18.701  13.732
54708W        W19693  10.770  41.791  10.959
54709W        W19694  10.789   9.373   0.343
54710W        W19695   8.696  18.839  14.390
54711W        W19696  22.667  35.430  13.971
54712W        W19697  30.300  29.338  13.107
54713W        W19698   6.214  40.146   0.969
54714W        W19699  28.883  36.968   3.696
54715W        W19700   4.853  13.409   5.083
54716W        W19701   0.424  15.171   4.617
54717W        W19702  12.835   6.405   0.302
54718W        W19703  18.657   2.869  14.696
54719W        W19704  21.517  10.181  12.489
54720W        W19705  15.078  15.759   2.335
54721W        W19706   3.262  27.600   3.744
54722W        W19707   4.349  18.815  13.933
54723W        W19708   8.251  25.698   3.719
54724W        W19709  18.288  34.870   2.192
54725W        W19710  26.631  38.811  13.539
54726W        W19711  16.944   9.426  14.722
54727W        W19712   8.370  16.062  12.737
54728W        W19713  11.645  34.608   1.168
54729W        W19714  14.976   2.275  11.074
54730W        W19715  19.006  10.626   2.115
54731W        W19716  42.589  11.580   1.845
54732W        W19717  39.882  23.612   3.500
54733W        W19718   8.129  21.180   1.025
54734W        W19719  10.882  43.838  12.899
54735W        W19720  41.265  10.412  11.146
54736W        W19721  39.821  32.628   4.155
54737W        W19722  21.909  32.381   2.124
54738W        W19723  27.697  34.903  12.693
54739W        W19724  21.104  40.387   2.366
54740W        W19725   4.374  12.409   3.579
54741W        W19726  19.831  14.860  13.171
54742W        W19727  17.516  23.134  14.876
54743W        W19728  26.496  12.521   0.329
54744W        W19729  25.669  40.934   3.999
54745W        W19730  12.288  27.087  13.832
54746W        W19731  41.816  41.603  10.638
54747W        W19732   4.216  32.177  14.816
54748W        W19733  26.586   0.292   5.107
54749W        W19734  30.899  43.277   3.126
54750W        W19735  17.050   2.734  13.408
54751W        W19736   7.315  33.486   1.744
54752W        W19737   0.408  18.979  14.084
54753W        W19738   1.321  31.648   1.244
54754W        W19739   3.444  28.894   2.681
54755W        W19740  24.726  38.166  12.091
54756W        W19741  41.749   9.209   4.734
54757W        W19742  38.133   9.354  14.422
54758W        W19743  14.671  33.250   4.579
54759W        W19744  37.513  40.462   2.265
54760W        W19745   9.441  27.052   1.033
54761W        W19746  14.617  11.207  11.052
54762W        W19747   2.867  20.072   0.348
54763W        W19748  33.143  18.662   0.541
54764W        W19749   0.246  36.776  14.872
54765W        W19750   0.309  35.571  11.406
54766W        W19751  36.127  34.913   2.581
54767W        W19752   5.180   5.292  12.014
54768W        W19753  18.564   0.676   2.718
54769W        W19754   4.197  42.002   1.470
54770W        W19755  16.400   5.389   3.978
54771W        W19756  10.682  33.527   1.745
54772W        W19757  34.978  25.227  13.477
54773W        W19758  12.137  36.452   2.760
54774W        W19759  15.613   7.735   3.922
54775W        W19760   3.825  43.761   0.926
54776W        W19761  10.571  35.653  12.430
54777W        W19762   4.169  11.951   3.412
54778W        W19763  14.061   1.764   3.965
54779W        W19764  39.274   6.608   2.709
54780W        W19765   2.325  30.525  10.491
54781W        W19766  41.066  13.435  11.722
54782W        W19767  11.805  35.076  14.673
54783W        W19768  24.122  41.066   1.938
54784W        W19769  27.910  13.197   0.369
54785W        W19770  41.408  24.667  11.949
54786W        W19771  35.052  33.782   4.726
54787W        W19772   0.818  32.794  10.896
54788W        W19773  36.012  18.053  10.580
54789W        W19774   9.415  38.957  14.194
54790W        W19775  12.363   3.920   1.327
54791W        W19776  10.070  14.697   1.852
54792W        W19777  13.610  14.819   4.658
54793W        W19778   6.654  42.702   3.718
54794W        W19779  10.006   9.687   4.285
54795W        W19780  26.034  44.874   4.612
54796W        W19781  22.900  31.491   0.433
54797W        W19782   0.179   9.416   1.893
54798W        W19783  27.613  23.653   4.943
54799W        W19784   8.657  20.658  10.189
54800W        W19785   1.724  27.495  14.732
54801W        W19786   5.298   2.364   1.265
54802W        W19787   1.996  12.387   0.775
54803W        W19788   9.115  16.101  11.990
54804W        W19789  21.697  16.705  12.008
54805W        W19790  34.608   6.753  14.118
54806W        W19791  29.472  41.326  14.791
54807W        W19792   4.061   7.001  11.412
54808W        W19793  28.642  10.173   1.240
54809W        W19794  38.903   5.631  10.545
54810W        W19795  12.552   6.146   1.643
54811W        W19796  30.589  12.643   4.718
54812W        W19797  31.431  24.473   1.290
54813W        W19798   0.783   5.191   4.586
54814W        W19799  26.963   1.902  13.479
54815W        W19800  43.054  39.072  13.961
54816W        W19801  17.936   8.658   5.486
54817W        W19802  34.998  20.103   4.752
54818W        W19803  34.509  16.840   4.164
54819W        W19804  43.777  37.641  14.274
54820W        W19805  36.030  12.289   3.841
54821W        W19806  12.343  24.946  11.503
54822W        W19807  40.326  12.694  13.618
54823W        W19808  19.231   7.868   3.178
54824W        W19809  10.658  41.796   3.595
54825W        W19810  13.117  35.544  11.729
54826W        W19811   2.915  12.230  10.483
54827W        W19812  38.620  16.732   1.302
54828W        W19813  34.311  38.486  10.702
54829W        W19814  43.982  38.350  13.504
54830W        W19815  41.389  44.758  13.835
54831W        W19816  14.841  31.752   0.961
54832W        W19817  43.357  22.070  14.615
54833W        W19818  37.810  41.828   4.208
54834W        W19819  38.087  26.540   2.307
54835W        W19820  22.630   7.680   0.853
54836W        W19821  24.505  31.445  12.352
54837W        W19822   6.170  19.979   2.690
54838W        W19823  16.047  20.091   2.847
54839W        W19824  32.628   6.193  13.966
54840W        W19825   4.716   1.487  12.128
54841W        W19826  44.197  24.402  11.152
54842W        W19827   0.369  39.519   2.325
54843W        W19828   6.712  37.995  12.448
54844W        W19829  37.316  21.061   0.671
54845W        W19830  30.861  25.176   4.718
54846W        W19831  21.289  14.439  12.884
54847W        W19832  22.503   3.259   2.642
54848W        W19833  25.845  31.980  11.603
54849W        W19834  21.262  44.093  14.593
54850W        W19835  25.574  19.344  14.911
54851W        W19836  43.739  39.526   4.107
54852W        W19837  38.291  19.146   2.007
54853W        W19838  13.495  31.721  12.054
54854W        W19839   0.154  36.270   0.943
54855W        W19840   8.216  36.669   2.739
54856W        W19841  30.858  41.254  13.060
54857W        W19842  37.727  37.608   4.270
54858W        W19843  25.869  24.344   4.955
54859W        W19844  43.357   1.336   4.132
54860W        W19845   0.803   7.202  11.753
54861W        W19846  34.990  34.752   3.264
54862W        W19847   6.777   4.271   9.947
54863W        W19848   5.012  37.285   0.203
54864W        W19849  26.757  37.626   2.645
54865W        W19850  38.806   9.647   1.869
54866W        W19851  44.713  31.836   0.899
54867W        W19852  27.195   3.760  11.547
54868W        W19853  19.631  43.216   3.329
54869W        W19854   3.942  26.476   4.507
54870W        W19855  17.187  35.087  13.995
54871W        W19856  28.951  31.290   1.726
54872W        W19857  24.178  11.338  12.397
54873W        W19858  19.733  31.033   4.051
54874W        W19859  23.362  21.657   0.585
54875W        W19860   8.384  42.554  14.224
54876W        W19861   2.184   3.119  12.665
54877W        W19862  17.878   2.230  14.760
54878W        W19863  33.664   8.253  13.453
54879W        W19864   8.964  24.845   1.369
54880W        W19865   7.131  25.259  10.802
54881W        W19866  22.749  19.328  13.471
54882W        W19867  25.848  27.961  13.450
54883W        W19868   1.875  19.922  14.034
54884W        W19869  23.901  17.468   0.243
54885W        W19870  19.766  33.657   2.830
54886W        W19871  35.572  32.430   2.951
54887W        W19872  30.099  12.782   0.305
54888W        W19873  37.521  14.393   4.182
54889W        W19874  21.177   7.871  13.558
54890W        W19875  23.953   1.784  12.513
54891W        W19876   8.723   0.758   3.785
54892W        W19877   3.004  34.003  14.162
54893W        W19878   9.222   3.340  11.454
54894W        W19879  14.773  39.982  14.397
54895W        W19880  19.313  14.179   0.964
54896W        W19881  41.046   7.625   4.159
54897W        W19882  44.939  44.802  10.890
54898W        W19883  31.424  12.902   3.124
54899W        W19884  44.532  28.451  13.551
54900W        W19885  33.740  17.013   4.750
54901W        W19886  20.071  25.988   4.535
54902W        W19887  18.549   5.410   1.166
54903W        W19888  25.953   2.337  12.896
54904W        W19889  13.734   5.154  14.002
54905W        W19890  35.035  29.928  12.398
54906W        W19891  33.149  34.664  13.487
54907W        W19892   7.797  40.189   0.413
54908W        W19893  41.329  30.692   0.039
54909W        W19894   4.842  25.234  14.565
54910W        W19895  25.720  12.373   3.808
54911W        W19896  17.393  18.650   5.502
54912W        W19897   5.797  15.630  14.163
54913W        W19898  29.368  34.500   1.458
54914W        W19899   4.418  42.308  13.616
54915W        W19900  29.883  35.623   2.796
54916W        W19901  26.972  21.471   1.665
54917W        W19902  14.660  33.517  14.471
54918W        W19903  17.816  30.728   0.887
54919W        W19904  42.883  21.469   3.702
54920W        W19905  35.470   6.401   1.990
54921W        W19906  12.625   8.867  13.340
54922W        W19907   4.306  16.909   2.141
54923W        W19908   8.632  26.775   2.095
54924W        W19909  31.639  39.751  12.442
54925W        W19910   7.858  28.526  13.359
54926W        W19911  29.754  40.450   3.913
54927W        W19912  13.094  23.214   0.292
54928W        W19913  36.058  44.879  11.785
54929W        W19914   3.418   8.651   4.544
54930W        W19915  11.254  42.961  10.572
54931W        W19916  10.802  17.622  11.555
54932W        W19917  37.842  20.720   3.913
54933W        W19918  24.619   6.982   0.963
54934W        W19919  31.731  17.806  10.771
54935W        W19920   1.710  18.656   0.049
54936W        W19921   6.485  34.377  10.673
54937W        W19922  24.185   4.535  11.827
54938W        W19923  33.392  35.989  11.782
54939W        W19924  41.538  24.031   0.226
54940W        W19925  30.475  10.058  10.289
54941W        W19926  30.114  24.697  12.179
54942W        W19927  41.641   6.908   3.477
54943W        W19928   7.185   2.304   2.694
54944W        W19929  28.158   7.567   1.172
54945W        W19930  22.083  17.255   2.915
54946W        W19931  13.130  12.854  13.430
54947W        W19932  29.913  43.541  11.661
54948W        W19933  17.138  16.368  11.885
54949W        W19934   1.633   6.426  13.951
54950W        W19935  16.920  19.864  12.721
54951W        W19936  36.519  41.095   2.906
54952W        W19937  31.639  10.419   1.290
54953W        W19938   3.181  10.677   3.604
54954W        W19939  18.307  34.535  10.339
54955W        W19940   5.309   7.829   1.754
54956W        W19941   5.066   8.677  13.766
54957W        W19942  35.935  44.923  14.360
54958W        W19943   7.808  25.513   3.122
54959W        W19944   7.701  40.696   0.438
54960W        W19945  30.982  12.080  14.060
54961W        W19946  13.586   2.374   2.205
54962W        W19947  23.339   9.677  12.519
54963W        W19948  41.996  14.691  11.578
54964W        W19949   0.518   3.868   3.153
54965W        W19950   1.392   9.252  10.911
54966W        W19951  31.492  33.042  14.494
54967W        W19952  30.644  34.677   3.715
54968W        W19953  21.667   2.199  13.047
54969W        W19954  38.975  17.519  13.016
54970W        W19955  14.540  19.790   2.255
54971W        W19956   2.994  12.756   3.553
54972W        W19957   4.264  25.733   3.597
54973W        W19958   4.448  30.386   4.133
54974W        W19959  10.288  22.585   4.525
54975W        W19960  32.058  37.081  13.179
54976W        W19961  40.047  23.895  10.245
54977W        W19962  37.416  21.987   2.692
54978W        W19963  28.958  10.721   2.841
54979W        W19964  15.802  17.775  10.520
54980W        W19965  40.687  32.632  14.922
54981W        W19966  39.840  42.425  11.036
54982W        W19967  26.218  34.561  11.339
54983W        W19968  32.584  13.304   2.314
54984W        W19969  40.549  43.431   0.408
54985W        W19970  24.659  25.953   3.279
54986W        W19971  34.094  15.612  14.478
54987W        W19972   5.007  43.290  11.657
54988W        W19973   8.464  24.698  10.756
54989W        W19974   2.724  43.347  10.842
54990W        W19975  16.877  13.019  13.009
54991W        W19976  18.409   9.271   0.035
54992W        W19977   7.338  43.408  12.120
54993W        W19978   2.419  14.760   2.362
54994W        W19979  27.172  13.927   1.494
54995W        W19980  43.372  28.974  12.404
54996W        W19981  26.004  31.130   2.669
54997W        W19982  23.877   6.412   3.192
54998W        W19983  43.378   6.572   4.563
54999W        W19984  29.602  18.148   4.974
55000W        W19985  40.041  10.183  12.940
55001W        W19986  28.939  33.356  12.167
55002W        W19987  21.227  13.681   3.637
55003W        W19988   8.934  36.374   3.338
55004W        W19989  41.334  32.977  10.227
55005W        W19990  40.781  43.027   1.911
55006W        W19991  41.575  28.875  13.921
55007W        W19992  26.211  14.622  13.531
55008W        W19993  17.071  35.519  12.074
55009W        W19994   8.208  35.585   3.292
55010W        W19995  33.806  29.221  14.485
55011W        W19996  36.524  19.520   3.904
55012W        W19997  42.929   3.248  11.668
55013W        W19998  17.697  19.365   1.434
55014W        W19999   9.816  25.058   3.307
55015W        W20000  20.063   2.337  14.404
55016W        W20001  14.111   7.069  13.553
55017W        W20002  43.417   6.016   0.920
55018W        W20003   2.501  12.399   0.760
55019W        W20004  32.234  31.275   4.093
55020W        W20005  28.077  35.086   0.448
55021W        W20006  19.780   3.745   0.105
55022W        W20007  31.945  14.706  14.703
55023W        W20008  34.094   5.794  12.412
55024W        W20009  25.756  42.723  11.584
55025W        W20010  40.985   9.166   4.013
55026W        W20011  17.274  10.564  13.945
55027W        W20012  27.466  18.474  12.416
55028W        W20013  16.256  11.450  12.573
55029W        W20014  36.556   2.001   3.844
55030W        W20015  14.144  18.226   5.122
55031W        W20016  28.146  10.288   0.235
55032W        W20017   7.174  31.564   3.885
55033W        W20018  22.090   4.898   0.305
55034W        W20019  21.542  14.398   1.133
55035W        W20020  18.304  20.333   0.145
55036W        W20021  40.569   6.521  14.118
55037W        W20022  21.988  22.293   1.502
55038W        W20023  34.914   8.784  10.409
55039W        W20024  35.997   3.867   4.585
55040W        W20025  40.117  14.813  11.126
55041W        W20026   5.759  38.918  12.804
55042W        W20027  26.411  16.607   1.803
55043W        W20028  33.911  12.049  14.826
55044W        W20029  24.928  40.875   4.341
55045W        W20030  10.317  13.846  10.844
55046W        W20031  27.116  23.769   3.265
55047W        W20032  21.549   8.534  14.022
55048W        W20033  36.369  28.620  11.126
55049W        W20034  20.545  38.928  11.747
55050W        W20035  16.134  18.947   4.286
55051W        W20036  44.303  28.072   4.130
55052W        W20037  19.430   4.248   3.622
55053W        W20038  30.195  26.798  10.965
55054W        W20039  31.377  30.049  13.014
55055W        W20040  42.093  30.438   2.830
55056W        W20041  19.716  18.938  12.223
55057W        W20042  10.067  37.468  13.350
55058W        W20043  16.780  14.850   2.311
55059W        W20044   3.365  26.489  10.686
55060W        W20045  31.077   2.906  10.693
55061W        W20046   9.208  17.722   3.952
55062W        W20047  27.740  19.658   0.496
55063W        W20048  21.468   0.324  13.112
55064W        W20049  38.586  36.062   3.473
55065W        W20050  19.585   2.957  12.990
55066W        W20051  26.646  37.536  14.322
55067W        W20052  10.605   7.235  13.845
55068W        W20053  25.268  17.577  11.542
55069W        W20054  21.004  20.066  12.574
55070W        W20055   9.269  26.972   4.629
55071W        W20056  16.847  30.526  14.407
55072W        W20057  27.763  37.250  12.401
55073W        W20058  16.497  33.720   0.292
55074W        W20059  19.575   2.514  14.417
55075W        W20060  32.084  44.293  13.748
55076W        W20061  24.516  10.852  14.402
55077W        W20062   8.894  19.582  12.110
55078W        W20063  17.336  26.416   1.949
55079W        W20064   9.599  17.365  14.810
55080W        W20065   9.898   2.415   1.769
55081W        W20066  44.932  27.457   3.151
55082W        W20067  40.900  14.253  14.762
55083W        W20068   2.918  28.368   3.780
55084W        W20069  18.040  40.013   2.740
55085W        W20070  24.691  33.638   3.182
55086W        W20071  32.814  23.920   2.346
55087W        W20072   8.091  33.591   2.802
55088W        W20073  41.296   6.826  14.385
55089W        W20074  38.017  33.099  10.550
55090W        W20075  34.886  41.336   2.328
55091W        W20076  10.108  18.902  13.455
55092W        W20077   8.084  25.222   3.846
55093W        W20078  39.104  25.404  13.689
55094W        W20079   8.424  13.619   0.260
55095W        W20080  21.955  17.082   1.488
55096W        W20081   4.669   6.965   3.449
55097W        W20082   0.240   9.757   3.486
55098W        W20083  14.154  40.793  13.096
55099W        W20084  10.853   5.870   3.225
55100W        W20085  22.959   7.931   4.457
55101W        W20086  39.429  27.669  11.661
55102W        W20087  25.003   6.640   0.255
55103W        W20088  36.903  34.264   4.052
55104W        W20089  43.061  24.092   0.279
55105W        W20090  43.745  37.735  13.775
55106W        W20091   1.234  22.528  11.410
55107W        W20092  41.446  11.040   4.484
55108W        W20093   6.421  10.616   1.804
55109W        W20094  26.369  18.359  13.424
55110W        W20095  29.934  39.087   2.649
55111W        W20096  27.457   4.187  12.440
55112W        W20097  42.474  42.495   1.641
55113W        W20098  12.868  26.933   9.798
55114W        W20099  22.223  15.689   1.670
55115W        W20100  36.720   4.890   2.239
55116W        W20101  28.271  26.435   4.189
55117W        W20102   5.729   2.729   2.824
55118W        W20103  44.806  36.530   3.157
55119W        W20104  28.863  18.109  12.455
55120W        W20105  30.553   0.887   3.754
55121W        W20106  34.939  29.449   2.424
55122W        W20107  43.440  34.508  14.258
55123W        W20108   3.287   2.561   3.112
55124W        W20109   2.295  43.439   0.727
55125W        W20110  36.055  11.280   3.817
55126W        W20111   0.726  30.285  10.076
55127W        W20112  26.628  18.314   0.366
55128W        W20113   6.687  13.608  11.545
55129W        W20114  12.134  14.265  13.838
55130W        W20115  35.584  26.166  12.922
55131W        W20116  21.832   6.837  13.064
55132W        W20117  22.667  18.956  13.810
55133W        W20118  13.659   3.045  11.226
55134W        W20119  16.734  16.395   2.377
55135W        W20120  16.110  40.836   2.847
55136W        W20121  11.660  29.694   3.507
55137W        W20122  41.539  11.445  12.042
55138W        W20123  35.587  17.951  13.676
55139W        W20124  17.706  15.257  12.448
55140W        W20125  12.080  24.263  14.854
55141W        W20126  27.022   1.686  11.658
55142W        W20127   5.610  40.238  14.045
55143W        W20128  19.581  42.175   2.357
55144W        W20129  12.483  11.529   1.852
55145W        W20130   4.378  16.520  14.394
55146W        W20131  15.737  27.292   0.552
55147W        W20132  43.082  22.909   5.024
55148W        W20133  29.499   8.950   4.496
55149W        W20134  10.205   1.275  11.155
55150W        W20135  19.694  41.030   3.142
55151W        W20136  20.633  21.690  14.957
55152W        W20137   4.832   9.172  13.820
55153W        W20138  38.447  13.631  14.005
55154W        W20139  21.952  13.119   3.735
55155W        W20140  29.411   7.732   0.928
55156W        W20141  22.580  10.833   2.878
55157W        W20142  29.118  43.539   3.574
55158W        W20143  30.069  28.211  12.444
55159W        W20144  25.598  17.812  13.480
55160W        W20145  11.942   4.561  11.600
55161W        W20146   1.234  13.760  14.921
55162W        W20147  12.158  21.890  10.892
55163W        W20148  37.294  26.223   3.303
55164W        W20149  13.653  23.218   4.179
55165W        W20150  21.769   4.473   0.477
55166W        W20151  24.151   6.160  14.185
55167W        W20152  28.325  40.948   1.647
55168W        W20153  22.662   6.810  11.458
55169W        W20154  17.641  25.316  13.051
55170W        W20155   9.294  39.839  14.299
55171W        W20156  30.247  12.157   2.227
55172W        W20157   4.355  43.643  14.407
55173W        W20158  33.557   1.694  11.104
55174W        W20159  15.169   7.166  13.984
55175W        W20160  36.850  44.453   0.278
55176W        W20161  31.827   4.872   2.786
55177W        W20162  25.091  29.626  14.048
55178W        W20163   1.492  26.387  14.506
55179W        W20164  28.410  17.717  13.322
55180W        W20165  24.500  17.713   1.611
55181W        W20166  30.976   9.733  11.496
55182W        W20167  21.151  42.853  11.340
55183W        W20168  28.564  22.111  10.985
55184W        W20169  30.529  42.515  14.189
55185W        W20170  31.389  35.389  12.528
55186W        W20171  33.107   4.227   0.726
55187W        W20172  19.814  24.597   3.403
55188W        W20173   3.415   7.458   4.708
55189W        W20174  41.354  20.669  12.880
55190W        W20175  27.940  14.860   2.474
55191W        W20176  34.733  20.631  12.285
55192W        W20177  12.123  14.176   0.205
55193W        W20178   2.302  27.724   1.719
55194W        W20179  33.682  10.728  14.489
55195W        W20180  14.517  20.910  11.114
55196W        W20181  15.046  38.641   3.927
55197W        W20182  30.009  30.494   1.492
55198W        W20183  40.863  23.443  12.376
55199W        W20184  31.216  42.333  11.512
55200W        W20185  41.565  24.803  14.922
55201W        W20186  19.727  43.208   1.249
55202W        W20187  10.874  15.500   2.799
55203W        W20188  33.497  19.815  13.318
55204W        W20189  38.870   6.200  12.823
55205W        W20190   6.361  28.539  10.685
55206W        W20191   1.444   5.532   4.029
55207W        W20192  38.528  35.915   4.375
55208W        W20193  27.103  12.975  14.473
55209W        W20194  31.142  21.053  11.643
55210W        W20195  31.599  16.202   4.388
55211W        W20196  29.532  12.824   0.929
55212W        W20197  39.873  39.886   0.221
55213W        W20198  41.814   9.345  14.862
55214W        W20199   9.958  15.900   3.817
55215W        W20200  13.215  38.292   4.527
55216W        W20201   5.353  22.968   3.140
55217W        W20202  20.251   0.704  12.057
55218W        W20203   5.060  43.381  10.856
55219W        W20204   8.944  30.803   0.627
55220W        W20205   5.684  14.505   4.799
55221W        W20206   9.160  35.815   1.848
55222W        W20207  32.707  23.482  12.424
55223W        W20208  21.112  29.157   0.477
55224W        W20209   7.426   4.571  11.463
55225W        W20210   4.305   1.298  13.952
55226W        W20211   7.210  30.994   2.832
55227W        W20212  43.221  31.166   4.102
55228W        W20213  28.449  26.936  11.056
55229W        W20214  19.387  24.047  14.058
55230W        W20215   0.298  30.485  12.384
55231W        W20216   0.070  39.110   4.050
55232W        W20217  37.011  23.673   4.835
55233W        W20218  44.904   3.170   1.373
55234W        W20219   4.712  38.435  10.742
55235W        W20220  33.242   8.282  14.265
55236W        W20221  31.360   0.017   2.686
55237W        W20222  30.466   0.986   0.403
55238W        W20223  23.489   3.850   3.649
55239W        W20224  11.809  26.467   0.326
55240W        W20225  30.074   7.431   2.414
55241W        W20226   7.153   6.344   3.632
55242W        W20227  11.713  41.950   0.004
55243W        W20228  29.229  25.454  11.176
55244W        W20229  27.740  17.533  14.022
55245W        W20230  41.768  13.829   3.727
55246W        W20231  44.519   7.703   3.349
55247W        W20232  17.451  13.213   0.931
55248W        W20233  13.397  38.385  13.942
55249W        W20234  32.160  42.872  11.151
55250W        W20235  43.847  13.323   4.683
55251W        W20236  31.558  13.002  13.402
55252W        W20237   9.585  40.381  11.173
55253W        W20238  31.244  38.367   0.363
55254W        W20239  42.202   0.944   3.348
55255W        W20240  23.786  11.323   3.500
55256W        W20241  30.340  23.125   1.172
55257W        W20242   6.509  13.086   4.842
55258W        W20243  29.390  31.636  10.699
55259W        W20244   4.582  32.226  14.035
55260W        W20245  43.245  38.396   0.373
55261W        W20246  19.543  11.810  13.608
55262W        W20247  30.889  18.030   1.359
55263W        W20248   5.320  14.000   0.252
55264W        W20249  15.315  12.360   3.346
55265W        W20250  40.493  15.191  11.142
55266W        W20251  11.676  31.287  12.725
55267W        W20252  36.002  41.914   2.577
55268W        W20253  20.030  27.339  13.901
55269W        W20254  20.784   0.723  12.632
55270W        W20255  44.531  34.510   0.682
55271W        W20256  32.174  22.790  10.749
55272W        W20257  28.664  14.454   0.790
55273W        W20258  21.822  25.695  13.766
55274W        W20259   9.510   5.987   3.503
55275W        W20260   2.431  10.956  14.349
55276W        W20261   6.812   8.214   2.827
55277W        W20262  32.076  32.487   3.420
55278W        W20263  42.316  17.286  13.664
55279W        W20264  36.394  34.092   4.195
55280W        W20265  13.218  10.457  14.390
55281W        W20266  32.547  39.356   0.314
55282W        W20267   8.650  31.900  11.238
55283W        W20268   2.822  22.246  13.900
55284W        W20269  44.559   2.499   4.148
55285W        W20270  15.809   4.163   9.811
55286W        W20271  29.331  40.054   1.902
55287W        W20272  24.774   4.988  12.928
55288W        W20273  37.977  30.642  11.734
55289W        W20274  29.081  10.399   2.343
55290W        W20275  22.668  28.068   4.575
55291W        W20276   6.217   4.588  10.073
55292W        W20277  36.259  15.185   0.189
55293W        W20278  27.780   6.059  10.177
55294W        W20279  14.514  14.564  10.276
55295W        W20280  17.358  17.645   0.595
55296W        W20281  28.250  18.997   3.573
55297W        W20282  41.078  26.143   3.093
55298W        W20283  32.577  28.968   0.867
55299W        W20284   9.276  40.939  11.461
55300W        W20285  28.725   2.185  12.470
55301W        W20286  44.019  27.110  11.116
55302W        W20287  32.885   4.006   3.304
55303W        W20288  41.485  27.485  13.625
55304W        W20289  24.532  24.773   0.941
55305W        W20290  27.438  35.831   4.102
55306W        W20291  24.764  22.580  13.060
55307W        W20292  30.984   2.533  12.137
55308W        W20293  27.100  13.164  10.419
55309W        W20294  39.615   8.351  12.936
55310W        W20295   4.300  15.701  12.517
55311W        W20296  13.062   8.070   5.004
55312W        W20297  38.347  38.683  14.263
55313W        W20298  14.186  43.003   4.178
55314W        W20299  20.139   6.429   2.767
55315W        W20300  16.436  28.536  10.291
55316W        W20301  15.200  16.659  10.698
55317W        W20302  26.629   0.198   4.173
55318W        W20303  29.691  19.371  14.042
55319W        W20304  37.155  24.241  11.463
55320W        W20305  30.893  42.819  10.229
55321W        W20306  10.623  25.622   0.345
55322W        W20307  43.811   6.916   1.858
55323W        W20308   1.802   1.799   3.167
55324W        W20309   7.370  15.902   2.224
55325W        W20310  21.013  23.122  13.621
55326W        W20311  31.002  34.202   1.457
55327W        W20312  19.246  37.048  14.861
55328W        W20313  35.062  14.073   0.653
55329W        W20314   9.459  28.819  14.376
55330W        W20315   1.671  11.689   2.376
55331W        W20316   7.878  37.464   4.996
55332W        W20317   1.230  11.954  14.556
55333W        W20318   6.748  33.646   4.512
55334W        W20319   4.246  42.338  12.111
55335W        W20320   2.243  36.769  14.424
55336W        W20321  22.576  15.561   2.935
55337W        W20322  44.155   6.708   2.737
55338W        W20323  39.152   5.771  13.477
55339W        W20324  43.491  20.497   3.226
55340W        W20325  25.878   6.743   3.556
55341W        W20326  44.442  44.819  11.145
55342W        W20327  13.885  28.232   0.889
55343W        W20328   2.728  24.784  13.787
55344W        W20329  15.479   9.911  11.056
55345W        W20330  31.489   6.404  11.504
55346W        W20331   0.940  38.559  14.464
55347W        W20332  41.241   9.076  14.980
55348W        W20333   5.852   0.361  11.123
55349W        W20334  14.347  19.330  11.158
55350W        W20335  12.782   3.778   2.661
55351W        W20336  23.947   5.195   3.721
55352W        W20337  43.281   0.485  12.917
55353W        W20338  34.256  31.122  13.939
55354W        W20339  23.771  34.896   0.360
55355W        W20340  38.041   7.140   4.212
55356W        W20341  35.612  29.002  11.184
55357W        W20342  25.204  42.458  12.018
55358W        W20343  34.398  10.863   2.359
55359W        W20344  37.434  13.173  10.642
55360W        W20345  28.675  20.894   0.580
55361W        W20346  16.234  34.799  13.920
55362W        W20347  11.570  22.918  11.543
55363W        W20348  19.719  28.726  13.451
55364W        W20349  33.446  12.255   0.722
55365W        W20350   4.125  38.369   1.367
55366W        W20351  44.475  27.742   3.194
55367W        W20352   5.838  30.613  13.000
55368W        W20353  23.748  26.110  11.534
55369W        W20354  16.792  27.135   2.086
55370W        W20355   9.241  22.795   1.444
55371W        W20356   2.150  40.375  11.224
55372W        W20357  37.121  38.090  11.187
55373W        W20358  23.543   1.660  13.821
55374W        W20359   1.904  33.169  12.095
55375W        W20360   8.334   7.976   2.240
55376W        W20361  43.492  11.390  13.963
55377W        W20362   1.053   8.614   2.475
55378W        W20363  37.116  25.532  14.069
55379W        W20364  23.626  29.071   0.009
55380W        W20365  16.882  25.081   4.914
55381W        W20366  37.422  44.375   0.367
55382W        W20367  31.153  28.599  13.915
55383W        W20368  13.362   1.178  13.992
55384W        W20369  30.591  37.704   5.074
55385W        W20370  19.205  17.746   1.837
55386W        W20371  31.519  22.159   4.411
55387W        W20372  18.636   6.889  11.632
55388W        W20373  20.112  23.876   0.684
55389W        W20374  32.075  24.580  12.596
55390W        W20375  44.061  14.566   1.859
55391W        W20376  13.015   2.581  12.771
55392W        W20377  41.042  11.222   3.389
55393W        W20378  42.938   1.043   1.571
55394W        W20379  26.564  36.372  13.112
55395W        W20380   2.629   3.677  12.068
55396W        W20381   2.362  26.596   3.132
55397W        W20382  41.854  11.830   4.493
55398W        W20383  36.135  17.699   4.764
55399W        W20384   6.764  19.207   4.155
55400W        W20385  14.835  22.604   2.866
55401W        W20386  25.264  23.161  13.574
55402W        W20387   7.750   3.657   1.445
55403W        W20388  29.920   4.734  12.920
55404W        W20389  14.611   2.799  13.494
55405W        W20390   7.051  17.251   2.491
55406W        W20391  20.109  23.530  10.553
55407W        W20392  21.771   6.563   3.767
55408W        W20393  44.047   1.886   3.957
55409W        W20394  38.895  41.800  14.856
55410W        W20395  42.781  17.218   2.136
55411W        W20396   2.654   8.771   2.834
55412W        W20397   1.839   5.274  14.433
55413W        W20398  16.783   9.423   4.275
55414W        W20399   2.691  32.530  14.990
55415W        W20400  36.351  39.104  12.000
55416W        W20401   0.923   2.577  14.426
55417W        W20402  14.137  23.761   1.887
55418W        W20403  42.273  16.959  11.018
55419W        W20404  20.040   9.394   3.297
55420W        W20405  32.362  43.472   0.351
55421W        W20406  28.406  33.864   0.152
55422W        W20407   5.187   7.358   4.021
55423W        W20408  12.238  25.023  13.353
55424W        W20409  41.252  41.809   4.053
55425W        W20410  18.793  41.878   3.993
55426W        W20411  21.220   5.385   2.879
55427W        W20412  26.944  36.083  12.454
55428W        W20413  17.698  27.329   0.427
55429W        W20414  24.436  29.439   3.543
55430W        W20415  34.056  19.539  10.928
55431W        W20416  29.285   2.052   9.993
55432W        W20417  39.929  18.602   0.400
55433W        W20418  44.020  12.345  10.617
55434W        W20419  38.872  23.683   3.227
55435W        W20420   3.651  22.363  12.896
55436W        W20421  11.779  23.781   4.744
55437W        W20422  39.794  19.871  12.002
55438W        W20423  14.186   9.659  13.468
55439W        W20424  35.526  14.984  12.083
55440W        W20425  15.804  41.859  12.851
55441W        W20426  23.208   6.480   1.490
55442W        W20427  42.402  44.246   4.528
55443W        W20428  18.143   5.097   0.261
55444W        W20429   0.804  34.523   3.360
55445W        W20430   8.781  39.190   2.526
55446W        W20431  32.457   5.405  14.304
55447W        W20432  27.524  27.536   2.925
55448W        W20433   9.267  17.021  11.176
55449W        W20434  10.672   1.142  12.369
55450W        W20435  31.059  15.407  10.899
55451W        W20436  40.955  13.628  13.506
55452W        W20437  25.093  18.202   2.192
55453W        W20438   7.155   2.797  12.898
55454W        W20439  22.003  36.511   2.234
55455W        W20440  17.887  13.079  11.061
55456W        W20441  36.546   4.821  13.365
55457W        W20442  33.993   6.405   2.777
55458W        W20443  20.057  36.476   1.371
55459W        W20444  31.412  31.995   3.533
55460W        W20445  20.604   0.720  13.943
55461W        W20446   0.428  31.347   1.758
55462W        W20447  21.294   7.185   3.277
55463W        W20448  36.533  12.309   4.524
55464W        W20449  32.479  30.396   4.135
55465W        W20450  39.439  40.885   2.927
55466W        W20451  42.818  10.268   2.154
55467W        W20452   2.926  37.378   3.092
55468W        W20453  18.988  19.832   0.441
55469W        W20454  36.125   2.382   5.038
55470W        W20455   6.342  24.974  10.249
55471W        W20456  21.641  41.928   4.168
55472W        W20457  18.936  11.139  12.057
55473W        W20458  12.379  19.699   1.187
55474W        W20459  32.970  16.613   0.376
55475W        W20460  43.300  12.964   0.894
55476W        W20461  20.550  36.870  13.526
55477W        W20462  42.545  22.474   4.930
55478W        W20463  32.931  17.476  11.064
55479W        W20464  31.134   7.911  12.918
55480W        W20465  34.911  20.370  11.103
55481W        W20466  16.645  27.151  12.084
55482W        W20467  38.011  37.791  12.369
55483W        W20468   6.953  28.923  13.442
55484W        W20469  18.878  30.392   4.010
55485W        W20470  18.359  26.910   4.893
55486W        W20471  35.709  26.005   0.385
55487W        W20472  38.868  40.985   0.823
55488W        W20473   8.944  14.270  10.854
55489W        W20474  40.352  17.765   0.928
55490W        W20475  30.749  34.913   4.177
55491W        W20476  42.557  42.385  13.056
55492W        W20477   6.765   4.827  12.102
55493W        W20478  28.035  23.031  13.341
55494W        W20479  43.393   8.729  12.050
55495W        W20480  34.896   3.445  14.472
55496W        W20481  31.920  38.262  12.521
55497W        W20482  15.326  31.297   1.310
55498W        W20483  10.618  14.233   1.419
55499W        W20484   7.164   8.176   1.846
55500W        W20485  38.135  32.111  10.517
55501W        W20486   9.218   1.950   1.181
55502W        W20487  24.903  16.534   3.818
55503W        W20488  13.021  43.089  13.771
55504W        W20489  31.978  40.955   3.372
55505W        W20490  12.497  21.686   3.003
55506W        W20491  21.683  34.877   2.331
55507W        W20492  21.958  32.006  11.295
55508W        W20493   2.662  22.026  14.368
55509W        W20494   6.104   1.312  11.997
55510W        W20495  42.888  24.715  12.981
55511W        W20496  11.838  15.323  14.443
55512W        W20497  32.325  35.750   4.047
55513W        W20498  18.221  24.712   3.177
55514W        W20499   6.137  17.680   4.638
55515W        W20500  28.956  27.363  13.669
55516W        W20501   0.292  34.043   3.634
55517W        W20502  43.914   9.350   4.145
55518W        W20503  30.415  43.988  14.843
55519W        W20504  33.285  10.784  14.148
55520W        W20505  11.465   5.528   3.635
55521W        W20506  24.547   5.422  10.248
55522W        W20507   0.293  27.699   3.449
55523W        W20508   0.856   7.258  10.730
55524W        W20509  16.798  34.604   2.559
55525W        W20510  37.371  32.424  14.832
55526W        W20511  25.295  41.304   4.134
55527W        W20512  35.976  14.554   2.183
55528W        W20513  21.001  40.758   4.911
55529W        W20514  30.357   5.966   2.030
55530W        W20515  31.486  19.711  12.885
55531W        W20516  24.971  30.230  12.920
55532W        W20517  12.223   6.761   3.787
55533W        W20518   2.436  29.895  14.575
55534W        W20519  14.828  15.735  14.403
55535W        W20520  25.106  25.988  13.924
55536W        W20521  33.847  20.804   5.062
55537W        W20522   4.027  32.060   2.316
55538W        W20523  35.044  30.660   0.260
55539W        W20524   0.716  26.845  11.384
55540W        W20525  37.293  26.923  11.259
55541W        W20526   7.496  33.511   0.878
55542W        W20527  29.504   7.064   3.628
55543W        W20528  41.653  22.513   3.058
55544W        W20529  14.570  26.076   0.746
55545W        W20530  41.293  33.423   9.954
55546W        W20531  24.166  25.179  10.779
55547W        W20532  29.790  15.126   2.271
55548W        W20533   0.017  13.147  11.744
55549W        W20534   4.374  29.616   0.388
55550W        W20535  38.875  29.698  10.736
55551W        W20536  29.619   2.334  12.979
55552W        W20537  33.406   6.624   1.454
55553W        W20538  10.620  18.849  13.477
55554W        W20539  34.314  44.371   0.856
55555W        W20540  11.054   0.034  12.912
55556W        W20541  35.488  28.130  12.546
55557W        W20542  30.429  11.634   3.743
55558W        W20543  42.718  24.564  14.055
55559W        W20544  16.656  17.033  11.185
55560W        W20545   2.451   6.354   3.706
55561W        W20546  30.879  43.615   4.186
55562W        W20547  21.242  10.139  12.924
55563W        W20548  12.658  25.073   0.664
55564W        W20549  28.184  25.506   0.742
55565W        W20550   2.936   9.958   1.745
55566W        W20551  11.329  15.032  14.359
55567W        W20552   1.284  19.504   0.248
55568W        W20553  19.532  31.219  11.839
55569W        W20554   4.227  24.589   4.279
55570W        W20555  10.161  17.212   1.313
55571W        W20556   1.520  32.147   5.182
55572W        W20557  30.115  35.692   3.258
55573W        W20558  36.225   1.391  11.656
55574W        W20559  41.928  11.108   2.262
55575W        W20560  23.280  31.562   2.942
55576W        W20561  40.457  14.800  13.512
55577W        W20562  39.275  20.537  11.849
55578W        W20563  42.616  42.928  13.876
55579W        W20564   2.161   6.183   4.103
55580W        W20565   4.993   1.920   4.411
55581W        W20566  33.426  12.958   0.699
55582W        W20567  22.926  42.006  12.024
55583W        W20568  12.278  34.326  12.099
55584W        W20569  43.281  19.327   0.322
55585W        W20570   2.845   8.741   4.385
55586W        W20571  33.373  30.075  13.554
55587W        W20572  27.693  38.782  12.887
55588W        W20573   8.434  19.261  12.156
55589W        W20574  32.400   1.245   0.484
55590W        W20575  31.956  15.913  10.742
55591W        W20576  27.765  21.249  11.663
55592W        W20577  13.552   7.086   2.587
55593W        W20578  35.097   4.374   4.399
55594W        W20579  20.103  11.369  14.283
55595W        W20580   8.832  40.203  11.603
55596W        W20581  37.053   8.321   1.129
55597W        W20582  27.861  35.422  12.993
55598W        W20583  23.194  25.778  11.002
55599W        W20584  34.173  17.658   0.750
55600W        W20585   7.937  41.624  11.159
55601W        W20586   3.263  34.416   0.074
55602W        W20587  40.370  30.972  12.497
55603W        W20588  28.368  36.903   3.792
55604W        W20589   3.921  12.418  14.652
55605W        W20590  35.345   1.293   2.628
55606W        W20591  17.885  10.225   3.693
55607W        W20592  10.418   2.839   2.385
55608W        W20593   8.286  35.873   2.241
55609W        W20594  21.752  21.174  11.237
55610W        W20595  34.969  40.026  11.262
55611W        W20596  29.121  18.725   2.632
55612W        W20597   4.325   4.787   4.433
55613W        W20598   6.731  19.866   0.894
55614W        W20599  44.693  44.412  14.296
55615W        W20600   0.883  24.675  10.737
55616W        W20601   8.131  14.822   0.803
55617W        W20602  33.884  35.982   0.244
55618W        W20603  20.252  28.953   1.561
55619W        W20604  33.089   8.807   0.052
55620W        W20605   7.350  14.082   3.080
55621W        W20606  23.676  38.922  10.964
55622W        W20607  25.423  10.783   2.363
55623W        W20608  33.889  29.512  12.987
55624W        W20609  16.223   6.923   0.680
55625W        W20610  30.352  39.442  12.364
55626W        W20611   6.236  44.982  11.609
55627W        W20612  28.055  20.603  11.978
55628W        W20613  35.552  24.739   2.318
55629W        W20614  36.747   2.299   4.261
55630W        W20615  17.059  44.887  12.044
55631W        W20616  33.549  25.529   2.187
55632W        W20617  28.635  30.346   4.508
55633W        W20618  18.035  22.363   4.206
55634W        W20619  44.479  12.199  10.830
55635W        W20620  39.663  18.198   4.632
55636W        W20621  27.027  20.726   4.070
55637W        W20622   4.493  35.901   0.996
55638W        W20623  22.445  42.461  10.661
55639W        W20624  22.767  32.860  11.240
55640W        W20625  14.118   4.716  10.696
55641W        W20626   8.956  41.958  14.314
55642W        W20627  19.559  32.983   0.770
55643W        W20628  34.139  44.940   3.710
55644W        W20629  25.706  18.182   1.987
55645W        W20630  22.497   6.787  11.948
55646W        W20631   7.649   6.813   4.072
55647W        W20632   5.199  13.133   3.766
55648W        W20633  26.504  28.348  13.818
55649W        W20634  36.819  32.866  10.739
55650W        W20635   8.765   5.716   2.652
55651W        W20636  25.477   9.331   1.863
55652W        W20637   6.427   8.746  14.264
55653W        W20638  26.668   2.099   1.186
55654W        W20639  21.222  31.051  10.711
55655W        W20640  30.940   5.826  11.646
55656W        W20641  40.741  26.171  11.267
55657W        W20642  22.984  14.919   4.403
55658W        W20643  27.068  43.861   0.840
55659W        W20644   4.954   4.856  12.533
55660W        W20645  43.760   1.639  12.954
55661W        W20646  24.930  10.189   1.496
55662W        W20647  34.089   8.463  12.612
55663W        W20648  10.095  44.669   0.848
55664W        W20649  40.050  14.969   1.287
55665W        W20650  35.396   7.664  12.257
55666W        W20651  24.515  28.604   3.310
55667W        W20652   4.978  24.054  12.930
55668W        W20653  11.791   2.559  13.527
55669W        W20654   4.940  38.112   2.891
55670W        W20655   5.351  16.538  13.552
55671W        W20656   4.020  32.017   0.991
55672W        W20657  40.533   6.037  11.252
55673W        W20658  13.016  24.962  11.206
55674W        W20659  16.839   1.062   1.857
55675W        W20660  39.698  25.271   1.900
55676W        W20661   7.392  14.400   2.635
55677W        W20662   5.138  15.250  11.525
55678W        W20663  10.071  24.230  11.571
55679W        W20664  38.205   4.344  12.768
55680W        W20665  23.166  23.077   2.767
55681W        W20666   1.722  41.324  14.081
55682W        W20667  21.057  35.930   5.244
55683W        W20668   4.839  25.012  13.632
55684W        W20669  20.713   3.937  14.035
55685W        W20670  20.165  18.978  12.541
55686W        W20671   0.750  11.441  10.965
55687W        W20672  12.596  30.259  12.427
55688W        W20673   8.223  24.618  12.866
55689W        W20674  12.647  37.795  14.327
55690W        W20675   5.317  39.269  13.241
55691W        W20676  18.186   6.203  14.876
55692W        W20677  41.262   6.467   0.875
55693W        W20678   7.285  25.470   4.912
55694W        W20679  38.037  14.096  11.233
55695W        W20680   5.811  20.975   3.412
55696W        W20681  29.520  17.215  13.530
55697W        W20682  33.050   3.238  13.805
55698W        W20683  36.824  25.084   2.436
55699W        W20684   1.080  43.820  14.727
55700W        W20685   2.103  39.852   2.775
55701W        W20686  36.928  33.501   0.380
55702W        W20687  14.052  25.697  14.005
55703W        W20688   0.862  16.424  14.315
55704W        W20689  38.390   6.383   2.465
55705W        W20690  19.555  33.056  14.808
55706W        W20691  11.673  18.266  10.935
55707W        W20692  34.445  42.550   1.275
55708W        W20693  31.684  29.151   1.818
55709W        W20694   5.444  13.510   0.387
55710W        W20695   6.394  42.500   4.284
55711W        W20696  28.978  33.602   1.639
55712W        W20697  15.131  34.292  12.092
55713W        W20698   5.205  22.239  13.027
55714W        W20699  42.026   7.858   0.793
55715W        W20700  33.392  44.452  12.495
55716W        W20701  19.166   6.946  14.497
55717W        W20702  34.657  31.559   1.282
55718W        W20703  25.022  11.389   0.844
55719W        W20704  30.438   7.948   0.242
55720W        W20705   8.098  18.633   0.961
55721W        W20706  14.346  23.742   0.997
55722W        W20707  12.324  12.950   1.688
55723W        W20708  44.417  35.908   0.023
55724W        W20709  21.178  36.831   0.751
55725W        W20710  17.315   9.100  13.862
55726W        W20711  21.283   2.483  11.092
55727W        W20712  24.507  40.040  12.884
55728W        W20713  16.385  12.858  13.096
55729W        W20714   4.921  37.339   3.156
55730W        W20715  28.566  12.592   0.886
55731W        W20716  36.928  27.584   3.491
55732W        W20717  13.119  23.937   4.239
55733W        W20718  19.308   0.946   4.657
55734W        W20719  39.791  13.072   1.311
55735W        W20720  26.950  44.037  12.061
55736W        W20721  17.311  27.513   0.161
55737W        W20722  39.777  21.094   4.100
55738W        W20723  28.452  36.910  12.028
55739W        W20724  22.716   8.707   3.178
55740W        W20725   3.323  13.384  14.203
55741W        W20726  36.810  15.176  12.480
55742W        W20727   5.477   9.398   2.881
55743W        W20728  19.491  11.574   2.368
55744W        W20729  29.149  34.620   0.830
55745W        W20730  26.734  26.141  12.426
55746W        W20731   3.677   0.281   1.176
55747W        W20732  11.034   4.143  11.908
55748W        W20733  30.049  25.003   4.522
55749W        W20734  40.771  14.746   3.283
55750W        W20735   7.439   7.817  12.149
55751W        W20736  40.664  43.737  14.986
55752W        W20737   7.802   6.340   0.576
55753W        W20738   2.434  30.668  12.396
55754W        W20739   3.015  40.061   3.889
55755W        W20740  31.122  30.778   4.897
55756W        W20741  35.608  35.383  12.818
55757W        W20742   0.199  18.082   2.142
55758W        W20743  25.056  25.634   4.788
55759W        W20744  23.182  10.240   3.744
55760W        W20745  36.088  19.132  14.977
55761W        W20746  17.350  17.155   0.390
55762W        W20747  21.658  36.518  11.696
55763W        W20748   2.430  18.052  13.948
55764W        W20749  39.225  10.642  14.159
55765W        W20750  27.979  12.524  10.585
55766W        W20751  18.571  37.625   1.802
55767W        W20752  19.840   7.380  10.638
55768W        W20753  42.070  32.740  14.838
55769W        W20754   3.197  35.712   4.463
55770W        W20755  12.499   8.429  11.049
55771W        W20756  15.165  34.828   2.298
55772W        W20757  37.098  28.606  12.808
55773W        W20758   1.462   7.264   4.803
55774W        W20759  40.761   9.796  13.846
55775W        W20760  26.694   2.120  11.743
55776W        W20761  44.643  28.624  13.063
55777W        W20762   3.267  23.053  11.623
55778W        W20763  12.850   5.196  10.588
55779W        W20764   9.178   3.812  12.971
55780W        W20765  19.838  34.442  14.545
55781W        W20766  19.004  16.545   3.723
55782W        W20767  31.525  40.257   3.685
55783W        W20768   4.446  28.208  14.874
55784W        W20769  20.535  17.533   1.862
55785W        W20770  17.070   1.539   1.894
55786W        W20771  29.667  40.851  14.835
55787W        W20772  31.623  22.608   3.575
55788W        W20773  17.541  20.555  13.133
55789W        W20774  18.021  17.563   1.568
55790W        W20775  26.670  32.060  12.183
55791W        W20776   6.062  42.456  11.324
55792W        W20777   3.585  15.021   3.576
55793W        W20778  40.465  34.399  14.537
55794W        W20779  13.334  18.758   2.347
55795W        W20780  35.656  40.983  12.191
55796W        W20781  12.712  37.935   0.380
55797W        W20782  35.915   3.634   1.542
55798W        W20783  43.797  42.483   3.558
55799W        W20784  25.303   5.049   1.364
55800W        W20785  13.625   9.725   4.030
55801W        W20786  17.629  23.997  10.709
55802W        W20787   6.002  26.084  13.007
55803W        W20788   7.039  15.279  11.043
55804W        W20789   3.005  28.869   4.658
55805W        W20790  15.139  37.070  12.178
55806W        W20791  44.848  41.804   2.139
55807W        W20792   2.978  28.532  10.897
55808W        W20793   9.397  31.141   2.227
55809W        W20794   9.878  34.581   2.098
55810W        W20795   8.934   5.405  13.117
55811W        W20796  41.752  19.464  10.287
55812W        W20797  23.761  33.002  11.158
55813W        W20798  12.540  18.217   1.288
55814W        W20799  32.138  39.036  10.966
55815W        W20800  40.612  36.549  10.970
55816W        W20801  26.461  33.160  11.255
55817W        W20802   5.795  13.539  11.392
55818W        W20803  11.240  25.281   0.793
55819W        W20804  33.929  33.351  11.720
55820W        W20805  23.825  13.168   3.929
55821W        W20806  11.887  24.537  13.940
55822W        W20807  23.049   6.588  13.381
55823W        W20808  21.187  26.763  12.592
55824W        W20809  42.337  42.347  10.948
55825W        W20810  26.442  16.660   4.507
55826W        W20811   6.477  31.858   4.560
55827W        W20812   9.195   4.354   3.664
55828W        W20813   0.410  27.683  12.118
55829W        W20814  31.035  10.644  11.502
55830W        W20815  24.641  10.705  12.994
55831W        W20816  11.678  27.432   2.289
55832W        W20817  13.875  11.528   3.573
55833W        W20818  17.092  17.885  13.043
55834W        W20819  34.059  21.820   0.497
55835W        W20820  28.344   8.654   3.859
55836W        W20821  31.992  32.236   4.105
55837W        W20822  39.859   8.714  12.637
55838W        W20823   4.480  10.344   4.983
55839W        W20824   7.242  11.375  11.610
55840W        W20825  42.433  22.104  13.038
55841W        W20826   0.460  15.170  12.482
55842W        W20827  18.256   5.978  13.461
55843W        W20828  26.279  25.705  13.455
55844W        W20829   7.334  32.651   0.410
55845W        W20830  35.601   9.687   4.627
55846W        W20831  21.713   0.713  14.453
55847W        W20832   6.257   8.339  12.354
55848W        W20833  23.654   7.786  10.695
55849W        W20834  15.041   6.438   1.519
55850W        W20835   0.864  17.991   2.715
55851W        W20836  20.966  35.115   1.142
55852W        W20837  26.021  35.526   2.173
55853W        W20838  38.604  31.870  10.195
55854W        W20839  27.931   1.616   2.789
55855W        W20840   5.159   8.693   0.599
55856W        W20841   9.384   2.384   4.554
55857W        W20842  11.679  26.581   2.036
55858W        W20843   1.541  15.804  14.801
55859W        W20844  28.197  14.774   3.821
55860W        W20845  26.010  37.328  11.048
55861W        W20846  32.969  43.338  14.185
55862W        W20847  29.165   8.167   2.815
55863W        W20848  20.052   3.466  12.352
55864W        W20849  35.448  26.052   2.414
55865W        W20850  32.312  29.672  12.901
55866W        W20851  14.027  39.541   0.866
55867W        W20852  19.077   6.935   0.480
55868W        W20853   2.120   3.939  11.920
55869W        W20854   8.288  12.433  12.096
55870W        W20855  15.370   7.340   1.376
55871W        W20856  27.447   4.322   1.447
55872W        W20857  11.777  21.738  13.213
55873W        W20858  11.925  14.665   1.403
55874W        W20859   2.877   2.381   4.460
55875W        W20860   9.096   4.294  13.097
55876W        W20861  43.029   9.015  10.765
55877W        W20862  35.668  36.101   1.333
55878W        W20863  31.684  11.060   2.365
55879W        W20864  19.694  26.048   3.141
55880W        W20865  23.330  20.504  11.037
55881W        W20866  25.979  13.689  10.788
55882W        W20867  23.061  43.514  13.780
55883W        W20868  39.836  41.869  14.596
55884W        W20869  16.251  15.787   4.629
55885W        W20870  11.398  32.028  11.249
55886W        W20871  21.760  32.237  10.583
55887W        W20872  14.910  19.502   1.792
55888W        W20873  17.300  28.689  10.822
55889W        W20874   2.109  44.537  13.483
55890W        W20875  15.002  22.698  11.949
55891W        W20876  32.968   3.994  11.151
55892W        W20877  13.170  20.117   3.142
55893W        W20878  13.409  22.847   0.495
55894W        W20879  10.168  10.217  10.679
55895W        W20880  26.781  14.973   2.429
55896W        W20881   0.404   9.125  11.137
55897W        W20882  35.087  40.961   4.622
55898W        W20883  23.083  27.925  13.119
55899W        W20884  39.459  42.878   3.590
55900W        W20885  19.611  20.470  13.829
55901W        W20886   1.930   3.307  14.878
55902W        W20887  12.435  32.022   5.003
55903W        W20888  43.507  12.138  11.998
55904W        W20889   5.787  15.216  12.917
55905W        W20890  38.471   1.196   4.661
55906W        W20891  26.522  33.629   4.073
55907W        W20892  34.929  10.291   5.313
55908W        W20893  16.637   1.493   4.494
55909W        W20894  19.588  35.983   3.052
55910W        W20895  35.616  21.128  14.710
55911W        W20896  31.892  19.720  14.845
55912W        W20897  22.315  13.264   1.487
55913W        W20898   3.470  32.869   1.304
55914W        W20899   9.448  41.842  14.431
55915W        W20900  30.792  30.992   2.811
55916W        W20901  42.906  35.878   2.171
55917W        W20902   3.955   4.454   1.492
55918W        W20903  33.038   6.480   3.742
55919W        W20904  11.101  22.571  13.979
55920W        W20905  41.463   5.984   1.139
55921W        W20906   0.258   9.398  12.473
55922W        W20907  44.722  38.860  12.136
55923W        W20908  39.998  15.857   4.475
55924W        W20909  37.972  14.186   4.024
55925W        W20910  44.921   3.472  12.011
55926W        W20911  27.523  40.034   1.351
55927W        W20912  41.819   1.504   2.221
55928W        W20913  23.930  11.887  12.197
55929W        W20914  25.313  12.656  12.520
55930W        W20915  29.092   5.394  14.927
55931W        W20916  15.822  28.446  12.278
55932W        W20917   4.748   5.180   9.898
55933W        W20918   5.719   7.271   3.158
55934W        W20919   0.574   7.373   1.764
55935W        W20920  21.856  40.004  12.894
55936W        W20921  40.887   6.595   4.181
55937W        W20922  42.635  31.658   2.265
55938W        W20923   5.350  38.288   2.389
55939W        W20924   4.794  21.974   0.056
55940W        W20925  21.300  12.502   2.374
55941W        W20926  26.063  44.844  14.053
55942W        W20927  38.161  37.540  11.931
55943W        W20928  16.539  13.605  14.779
55944W        W20929  26.466   8.448  11.645
55945W        W20930  38.992  12.621  13.299
55946W        W20931  27.651  41.235  11.525
55947W        W20932  27.599  29.570  13.083
55948W        W20933   5.694  10.356   3.204
55949W        W20934  23.903  13.331  10.819
55950W        W20935  38.143  11.691  14.951
55951W        W20936  19.214  34.957  11.688
55952W        W20937  36.354  12.851  13.518
55953W        W20938  26.551  34.457   1.764
55954W        W20939  42.018   5.070  13.416
55955W        W20940   2.000  33.412   2.279
55956W        W20941   2.290  39.486   1.822
55957W        W20942  28.951  25.823  11.398
55958W        W20943  34.232  33.302   2.236
55959W        W20944  23.576   7.716   1.115
55960W        W20945  14.618   0.446  12.855
55961W        W20946   2.030  26.218   2.621
55962W        W20947  27.775  20.798  14.469
55963W        W20948  26.474  35.080   0.317
55964W        W20949  44.787  27.226   1.083
55965W        W20950  13.795  34.605  10.737
55966W        W20951  28.930  13.331  14.097
55967W        W20952  24.202  30.180  12.520
55968W        W20953  13.958  32.089  12.760
55969W        W20954  30.568  33.088   2.741
55970W        W20955  37.969   5.989  13.824
55971W        W20956  26.081   5.421   0.765
55972W        W20957  36.836   3.545  12.457
55973W        W20958  18.600  42.664   4.216
55974W        W20959  43.416  28.896   3.669
55975W        W20960  18.238  13.572  11.729
55976W        W20961   0.980  37.045  14.458
55977W        W20962  42.381  30.167   1.303
55978W        W20963  40.419  32.957  12.007
55979W        W20964   2.502  34.073   0.474
55980W        W20965  37.544  23.444   3.733
55981W        W20966  30.197  35.173  11.137
55982W        W20967  41.280   8.295   0.988
55983W        W20968  25.653  39.529   1.715
55984W        W20969  20.163  31.213   0.465
55985W        W20970  42.506   8.843   3.122
55986W        W20971  11.908  41.082   3.306
55987W        W20972  39.081  28.070  11.644
55988W        W20973  15.870  16.589  14.722
55989W        W20974  36.574  29.552  11.928
55990W        W20975  14.776  22.049   2.118
55991W        W20976  14.793   4.408   2.751
55992W        W20977   8.188  43.457  12.567
55993W        W20978  29.919  28.822  13.838
55994W        W20979   0.351  10.106   2.706
55995W        W20980   6.379  40.504  12.437
55996W        W20981  25.178  21.082  10.650
55997W        W20982  40.603  33.133  14.877
55998W        W20983  31.890  39.202  12.607
55999W        W20984  42.949   4.534   0.529
56000W        W20985  37.923  25.981   0.388
56001W        W20986  31.663  24.538   3.714
56002W        W20987  43.281  20.441   3.717
56003W        W20988  25.884  17.032  12.500
56004W        W20989  38.311  28.981   3.205
56005W        W20990  42.538   4.748  14.738
56006W        W20991  14.701   1.645  11.597
56007W        W20992  44.789   1.724  13.581
56008W        W20993  25.264   6.877  13.362
56009W        W20994  44.203  35.384  10.393
56010W        W20995   9.561  36.129  11.531
56011W        W20996   7.630   0.246  11.225
56012W        W20997   9.766   6.425   2.391
56013W        W20998  19.686   9.865  12.935
56014W        W20999   1.916   2.114   0.528
56015W        W21000  26.482  12.772   1.196
56016W        W21001  35.526  11.427  11.060
56017W        W21002   9.855   4.962  11.143
56018W        W21003  36.706  15.609   0.899
56019W        W21004   5.481  43.905  12.877
56020W        W21005   2.761  26.215   3.164
56021W        W21006   1.299  33.405  13.407
56022W        W21007   8.236  23.064   4.389
56023W        W21008  26.597   4.939  12.912
56024W        W21009  42.846  16.140   2.572
56025W        W21010  27.266  26.459   2.758
56026W        W21011   0.171  29.806  13.024
56027W        W21012  32.820  38.725   1.424
56028W        W21013  16.268  22.921  11.141
56029W        W21014  30.983   5.320  10.865
56030W        W21015   0.414   9.674  13.462
56031W        W21016  12.120  17.106   2.121
56032W        W21017  31.256  21.385   4.610
56033W        W21018   8.643  10.389  11.830
56034W        W21019  22.024  36.515  10.472
56035W        W21020   1.826  36.062  13.443
56036W        W21021  35.459  42.513  10.708
56037W        W21022  29.604  41.461  11.148
56038W        W21023   6.915  26.560   1.634
56039W        W21024  23.757  14.784  11.742
56040W        W21025  40.570  20.059   3.660
56041W        W21026   3.355   9.174  14.955
56042W        W21027  38.007  34.117   9.913
56043W        W21028  17.358   2.968   1.605
56044W        W21029  44.310  30.322   2.027
56045W        W21030  23.461  26.776  10.982
56046W        W21031  28.621   7.045  12.456
56047W        W21032  37.494  40.918   4.390
56048W        W21033  22.735  19.824   3.844
56049W        W21034  11.650  24.628  10.496
56050W        W21035  44.848  11.995   3.337
56051W        W21036  13.924   3.149   3.194
56052W        W21037  44.632  36.027  11.085
56053W        W21038  20.621  27.173  11.099
56054W        W21039  16.630  30.373  14.844
56055W        W21040   1.863  25.189   4.104
56056W        W21041  28.431   0.828   2.149
56057W        W21042  36.309  14.805   1.408
56058W        W21043  13.760   0.083   4.491
56059W        W21044   8.974  20.761   4.547
56060W        W21045   9.260  35.294  10.602
56061W        W21046  35.826   6.814  13.384
56062W        W21047  35.064  41.584  12.009
56063W        W21048   0.808  23.939   5.023
56064W        W21049  37.515   7.278  12.144
56065W        W21050  26.239   6.889  11.489
56066W        W21051  19.130  31.884  12.002
56067W        W21052   5.374   7.832   0.858
56068W        W21053  12.636  23.212   0.578
56069W        W21054   3.388  29.380  12.501
56070W        W21055  17.276  44.535  13.049
56071W        W21056  31.134  23.533   2.908
56072W        W21057  37.282  34.936   3.654
56073W        W21058  19.792  28.761   9.778
56074W        W21059  28.718   1.745   1.737
56075W        W21060  44.897  32.360   4.916
56076W        W21061  31.656  16.553  13.336
56077W        W21062  37.577  32.145   0.555
56078W        W21063  28.144  35.491  12.086
56079W        W21064  25.367  19.579   1.870
56080W        W21065  42.384  21.226   4.499
56081W        W21066  37.840  16.851  14.547
56082W        W21067  31.493  20.481   3.259
56083W        W21068  37.984  13.532   2.354
56084W        W21069   2.811  32.694  11.980
56085W        W21070  17.291   9.645  13.874
56086W        W21071  38.432  18.778   0.309
56087W        W21072  14.571  38.086  14.385
56088W        W21073   5.724   8.257  13.199
56089W        W21074  32.310  23.656   0.911
56090W        W21075   4.789  40.047   2.899
56091W        W21076  36.908  39.167   4.870
56092W        W21077  41.217  38.051  12.933
56093W        W21078  39.045  22.183  11.037
56094W        W21079  37.005  35.899   3.305
56095W        W21080  28.600  18.828  14.379
56096W        W21081   8.488  43.956   3.222
56097W        W21082  33.904  30.631   4.851
56098W        W21083  25.682  35.881   1.398
56099W        W21084  22.312  18.931  11.604
56100W        W21085  31.894   8.357  12.580
56101W        W21086   3.794   7.812   3.590
56102W        W21087  13.954  21.279   0.059
56103W        W21088  25.048  36.748  14.371
56104W        W21089  10.210  37.873  13.018
56105W        W21090   9.179  21.322   0.408
56106W        W21091   7.907  29.018  13.643
56107W        W21092  36.328  38.891  10.742
56108W        W21093  19.986  15.560  13.577
56109W        W21094  10.530  23.965  12.336
56110W        W21095   9.642   8.735   1.177
56111W        W21096  35.609  43.313   3.621
56112W        W21097  42.781   5.372  13.946
56113W        W21098  19.658  36.267  14.430
56114W        W21099  11.709  32.550  12.420
56115W        W21100  30.569   6.548   0.373
56116W        W21101   2.306  10.226   4.535
56117W        W21102   6.808   1.903  11.290
56118W        W21103  44.108  18.078  14.497
56119W        W21104   5.689  13.562   2.258
56120W        W21105  19.103  31.377  12.071
56121W        W21106  40.048  41.377   1.359
56122W        W21107  42.456  29.429   0.326
56123W        W21108  26.458  41.460   0.400
56124W        W21109  32.895  37.029  10.571
56125W        W21110  24.229  20.375   4.101
56126W        W21111   2.792  23.020  14.326
56127W        W21112  29.210   8.344  12.151
56128W        W21113  39.030  29.905   1.762
56129W        W21114  25.553  42.879  11.138
56130W        W21115   4.899   7.451  12.233
56131W        W21116  22.755  28.521   3.287
56132W        W21117  13.898  33.643   3.154
56133W        W21118   1.885  15.005   2.392
56134W        W21119   2.510   8.348   4.510
56135W        W21120  37.642   9.865   3.354
56136W        W21121  23.164  36.470   2.660
56137W        W21122  40.420  38.980  14.248
56138W        W21123  28.323  36.471   1.681
56139W        W21124  33.071   8.918  14.514
56140W        W21125  14.096  29.912   4.583
56141W        W21126  17.382  44.880   0.371
56142W        W21127  11.204  11.268   2.701
56143W        W21128   0.199  27.446  13.124
56144W        W21129  43.954  17.737   0.863
56145W        W21130  23.457  41.817  11.085
56146W        W21131  31.216   4.903  11.017
56147W        W21132   3.931  25.206  13.092
56148W        W21133   8.632  10.724   4.475
56149W        W21134  33.380   3.477   1.773
56150W        W21135  42.265  13.945  10.676
56151W        W21136  30.583  32.221  14.771
56152W        W21137  13.356  21.727  13.429
56153W        W21138  35.825  18.160   4.374
56154W        W21139  39.824   1.127   3.035
56155W        W21140   1.108   3.982  12.063
56156W        W21141   0.899  20.018   2.659
56157W        W21142  10.441   0.046  14.386
56158W        W21143  21.799  40.934  10.825
56159W        W21144   3.147  14.172  12.934
56160W        W21145  10.203  19.587  14.995
56161W        W21146  42.550  21.342   1.007
56162W        W21147  41.033  24.785  13.649
56163W        W21148  33.056   3.827   1.970
56164W        W21149  11.692  25.334  14.324
56165W        W21150   3.002  17.257  13.841
56166W        W21151  18.152   4.765   1.194
56167W        W21152  34.927  30.388   2.776
56168W        W21153  30.136  31.207   2.236
56169W        W21154  14.250   6.729  12.085
56170W        W21155   9.892   9.185   1.267
56171W        W21156  27.014  34.586   1.402
56172W        W21157  20.664  15.067  12.031
56173W        W21158  22.796  35.547   1.721
56174W        W21159  23.601  15.566   4.188
56175W        W21160  29.633  25.702  14.059
56176W        W21161  31.344  16.077   1.727
56177W        W21162  10.315  17.355  13.492
56178W        W21163  15.354  25.239   3.229
56179W        W21164  21.182  31.424   0.766
56180W        W21165  23.639   7.301   0.765
56181W        W21166  11.334  28.807   0.068
56182W        W21167  25.412  23.998   2.802
56183W        W21168  37.533   5.677  10.875
56184W        W21169  21.611   5.374   2.535
56185W        W21170  42.676  29.604  10.284
56186W        W21171  11.574  10.332   4.171
56187W        W21172  43.803  27.897  12.973
56188W        W21173   0.313  19.144   1.684
56189W        W21174  38.895  16.163  14.280
56190W        W21175   7.417   9.796  14.129
56191W        W21176  21.844  25.233  12.801
56192W        W21177  29.295  11.066   1.372
56193W        W21178  15.304   0.181  13.927
56194W        W21179   9.536  44.900   1.929
56195W        W21180  40.231   7.367   0.821
56196W        W21181  36.825  27.133  14.168
56197W        W21182   6.182  42.295  13.574
56198W        W21183  28.949   0.993   3.288
56199W        W21184  31.022  31.177   4.571
56200W        W21185  43.384  39.417   1.105
56201W        W21186  34.512  13.549   4.134
56202W        W21187  16.164  40.841   1.953
56203W        W21188  44.371  43.431  13.910
56204W        W21189  20.805   9.820   0.675
56205W        W21190  29.989  21.507  10.377
56206W        W21191   0.400  21.203  12.827
56207W        W21192  28.500   2.229   0.839
56208W        W21193  39.503  22.983  12.565
56209W        W21194  39.777   5.278  14.881
56210W        W21195  11.174  29.166  13.041
56211W        W21196  13.399  14.523   3.880
56212W        W21197  12.564  33.794   0.370
56213W        W21198  21.907   7.518  11.554
56214W        W21199  11.336  18.200   4.662
56215W        W21200  10.865  22.073  14.531
56216W        W21201  13.784   4.332  12.821
56217W        W21202  43.453  17.768  11.373
56218W        W21203  22.423  19.496  11.354
56219W        W21204  36.419  16.544   0.529
56220W        W21205   7.397  23.728   3.732
56221W        W21206   4.351   9.468  13.585
56222W        W21207  32.902   3.473  11.837
56223W        W21208   5.623  41.006  11.976
56224W        W21209  33.207  43.888   0.308
56225W        W21210  14.349  43.775  12.889
56226W        W21211  23.489  41.453   4.177
56227W        W21212  35.859  31.262  11.486
56228W        W21213  20.134  37.066  11.189
56229W        W21214  41.750   3.700   4.888
56230W        W21215  27.494  36.866   1.334
56231W        W21216   9.238   9.424   0.038
56232W        W21217   5.694  38.406  14.850
56233W        W21218  20.692  17.515   4.019
56234W        W21219  40.561  37.452   4.044
56235W        W21220  42.811  40.514  14.508
56236W        W21221   0.997  42.503  11.182
56237W        W21222   4.050  20.073  12.751
56238W        W21223   5.620  13.168  12.231
56239W        W21224  29.709   7.522   3.721
56240W        W21225  13.212   8.395   2.880
56241W        W21226  12.669  18.684   2.743
56242W        W21227  37.588  10.561  12.412
56243W        W21228  15.894   2.896  10.292
56244W        W21229  10.089   6.929  11.218
56245W        W21230  18.655  44.726   3.128
56246W        W21231  17.355   7.184  14.578
56247W        W21232  12.771  27.251   1.135
56248W        W21233  39.456   5.501  14.394
56249W        W21234   5.287  16.089  10.532
56250W        W21235  25.036  33.669  13.456
56251W        W21236  29.426  23.070   3.282
56252W        W21237  35.624  26.906  14.474
56253W        W21238  10.752  22.718  14.437
56254W        W21239  35.293  24.265   0.829
56255W        W21240  21.187  33.254   0.293
56256W        W21241  28.909  13.067  12.957
56257W        W21242  13.903   7.425   0.126
56258W        W21243  34.495  38.582  13.611
56259W        W21244  43.396  30.192  13.023
56260W        W21245  25.504  16.168   1.394
56261W        W21246   1.296  11.226  14.391
56262W        W21247  24.299  26.101   0.261
56263W        W21248  21.607  39.008   2.323
56264W        W21249  23.556  29.629   0.115
56265W        W21250   5.565  43.361  10.733
56266W        W21251   0.381  16.323  10.646
56267W        W21252   0.784   5.130   2.290
56268W        W21253  33.504   0.251  13.996
56269W        W21254  25.505  40.910   2.568
56270W        W21255  13.866   9.132  14.419
56271W        W21256  29.685   7.422  12.054
56272W        W21257  33.516  41.249  10.728
56273W        W21258  11.229  32.472   2.816
56274W        W21259  16.228   3.691  12.764
56275W        W21260  26.012  27.447  14.820
56276W        W21261  39.002  29.377   2.790
56277W        W21262   2.255  18.926   3.545
56278W        W21263   7.387  42.987   4.789
56279W        W21264  38.473  15.424  13.575
56280W        W21265  24.284  29.914  11.647
56281W        W21266   2.009  30.637  13.948
56282W        W21267  42.357  37.565   4.309
56283W        W21268   8.880  29.235   3.005
56284W        W21269  42.715  38.177   5.363
56285W        W21270  37.597  13.743   3.248
56286W        W21271  36.288  38.323  11.648
56287W        W21272  39.219  25.480   0.517
56288W        W21273   5.442  16.163   3.636
56289W        W21274  18.817  43.440   1.528
56290W        W21275   4.835  43.503   4.162
56291W        W21276  25.170  20.861   4.231
56292W        W21277  23.307  29.823   1.193
56293W        W21278  37.073   1.293   4.094
56294W        W21279   3.330  41.829  13.214
56295W        W21280  36.520  21.970  11.708
56296W        W21281  27.264   6.280  14.459
56297W        W21282  29.266  42.351  13.791
56298W        W21283  20.560  44.347   1.161
56299W        W21284   0.442   9.257   2.845
56300W        W21285  18.127  10.954  13.690
56301W        W21286  24.527   3.538  10.649
56302W        W21287   5.885  28.750   2.837
56303W        W21288   7.841  14.248   3.196
56304W        W21289   4.376  43.178  13.775
56305W        W21290  31.662  11.667  14.416
56306W        W21291  11.555  28.643   1.396
56307W        W21292  10.815  42.376  11.570
56308W        W21293   9.163  34.113   1.218
56309W        W21294  13.576  18.595  12.887
56310W        W21295  34.391  21.705  13.145
56311W        W21296  38.602   6.295   0.052
56312W        W21297  36.946  25.544   4.319
56313W        W21298   8.842   9.885   1.741
56314W        W21299   8.358  16.305   1.895
56315W        W21300  17.309  32.099   3.774
56316W        W21301  17.005  24.008  11.956
56317W        W21302  22.114   3.888   4.242
56318W        W21303  37.609   9.131  12.401
56319W        W21304   5.008   1.620  13.891
56320W        W21305  30.927  11.613  10.554
56321W        W21306  16.447  23.635   1.822
56322W        W21307  44.448  42.846   4.785
56323W        W21308   0.264  43.739   4.879
56324W        W21309  21.139  36.585   4.632
56325W        W21310   8.574  12.664   4.628
56326W        W21311  37.987  33.091  12.899
56327W        W21312  38.110  35.819  10.368
56328W        W21313  42.530   4.022   0.736
56329W        W21314  26.562  27.095   2.783
56330W        W21315  23.941  13.773  14.291
56331W        W21316  37.914  20.717   2.585
56332W        W21317  17.335  36.593   1.416
56333W        W21318  22.543  29.167   2.213
56334W        W21319   8.192  14.571  14.862
56335W        W21320   7.126  39.607  12.949
56336W        W21321  10.492  39.538   3.826
56337W        W21322  40.025  27.100   2.129
56338W        W21323  34.604  42.864  13.592
56339W        W21324   9.999  25.674   1.854
56340W        W21325  17.037  32.929  10.595
56341W        W21326  20.318  28.124  14.991
56342W        W21327  22.522  22.191  11.670
56343W        W21328  42.281  15.451  13.390
56344W        W21329  18.539  24.996  14.775
56345W        W21330  40.870  14.593  11.976
56346W        W21331   2.786  12.303   4.445
56347W        W21332  15.725  22.667  13.059
56348W        W21333   8.425  33.536  14.002
56349W        W21334  14.602  18.004  10.301
56350W        W21335  11.778  38.960  10.894
56351W        W21336   4.900  41.591  10.794
56352W        W21337   5.991   6.905  11.552
56353W        W21338  28.172  31.411  10.279
56354W        W21339  34.605   7.575   3.064
56355W        W21340  10.139  33.159   3.747
56356W        W21341  11.395  28.622   0.546
56357W        W21342  25.757  29.028  10.318
56358W        W21343  12.604  22.576  13.941
56359W        W21344   7.885  24.755  14.755
56360W        W21345  39.888   8.930   1.482
56361W        W21346  24.537  12.315   2.599
56362W        W21347  34.158  39.129   4.960
56363W        W21348  38.694  11.574  14.899
56364W        W21349  27.122   4.523  13.821
56365W        W21350   5.205  22.701   3.621
56366W        W21351  31.990  36.401  12.930
56367W        W21352  26.571  29.388  10.091
56368W        W21353  27.735  39.764  11.414
56369W        W21354  36.005  30.360   3.306
56370W        W21355  36.321   1.896   1.318
56371W        W21356  37.464  25.909  13.234
56372W        W21357  30.541  32.533  12.331
56373W        W21358  14.598  14.617  13.020
56374W        W21359  44.358  44.285   1.295
56375W        W21360   4.977  12.063  11.941
56376W        W21361  16.247  23.632   2.306
56377W        W21362  24.523  15.431   1.853
56378W        W21363  32.083  35.883  12.941
56379W        W21364  17.079  21.178   0.367
56380W        W21365  32.254   1.458  13.000
56381W        W21366  10.910   9.345   4.618
56382W        W21367  24.237   1.229  13.311
56383W        W21368  30.517  35.149   0.296
56384W        W21369  17.200  25.056   2.942
56385W        W21370  15.864  37.802  13.985
56386W        W21371  31.159  29.197   1.862
56387W        W21372  17.086   7.394   2.363
56388W        W21373  18.439  38.045   0.133
56389W        W21374   6.639  42.786  13.107
56390W        W21375  38.025   2.895  13.093
56391W        W21376  25.919  12.425  14.116
56392W        W21377  29.261  29.460   1.447
56393W        W21378   7.952   2.982  11.083
56394W        W21379  32.360  17.125   2.789
56395W        W21380  14.827  26.471  12.624
56396W        W21381   9.227  12.472  10.304
56397W        W21382  42.453  12.859  12.557
56398W        W21383  19.721  43.551  12.420
56399W        W21384  27.510  34.540   3.852
56400W        W21385  31.076  19.976   2.847
56401W        W21386  24.026   3.420   1.427
56402W        W21387   4.206  22.040   4.325
56403W        W21388  28.188  44.424  11.453
56404W        W21389  41.443  25.048   1.294
56405W        W21390  19.633   1.945  14.319
56406W        W21391   9.213  27.524   4.543
56407W        W21392  10.880   5.905  13.893
56408W        W21393  40.371  34.223  12.617
56409W        W21394   3.833  42.131   0.252
56410W        W21395  29.522  25.378  12.567
56411W        W21396  40.690  19.547   3.705
56412W        W21397  34.308  11.701  12.908
56413W        W21398  37.286  16.796   0.820
56414W        W21399  15.276  33.068  13.413
56415W        W21400  15.406  42.755  12.761
56416W        W21401  15.554  11.916  12.021
56417W        W21402  16.604   9.199   1.735
56418W        W21403   1.976  26.035  13.453
56419W        W21404  35.933   7.715   0.687
56420W        W21405  24.452  43.817  12.048
56421W        W21406   1.005   4.291   0.305
56422W        W21407  23.966   4.988  11.782
56423W        W21408   6.252   0.911   1.788
56424W        W21409  18.778   0.982   4.473
56425W        W21410   2.391  41.785  11.801
56426W        W21411  25.266  26.084   4.491
56427W        W21412  21.830  14.740  11.918
56428W        W21413  21.504  28.074   3.046
56429W        W21414  36.623   1.932   2.730
56430W        W21415  15.251  44.550   4.889
56431W        W21416   4.011  40.851   3.777
56432W        W21417  17.368  22.848   4.994
56433W        W21418  42.531  34.099  13.940
56434W        W21419   0.381  16.298   0.336
56435W        W21420   6.711  34.058   1.341
56436W        W21421   2.897  21.613   1.129
56437W        W21422  35.841  29.898  10.740
56438W        W21423  43.278  32.973  11.308
56439W        W21424  32.077  25.773  11.615
56440W        W21425  32.611  29.203   2.683
56441W        W21426  18.466  23.626  13.957
56442W        W21427  20.216   3.557  10.940
56443W        W21428  10.381  34.264   2.906
56444W        W21429  31.169  32.622  13.719
56445W        W21430  37.902  39.834  12.986
56446W        W21431  29.690  34.831  11.996
56447W        W21432  40.927  14.953  11.583
56448W        W21433  11.571  14.584  13.120
56449W        W21434   0.685  33.073   1.308
56450W        W21435  16.349  19.318  13.433
56451W        W21436  10.233  21.068  10.699
56452W        W21437  44.891  38.792  13.380
56453W        W21438  36.864   9.456   3.675
56454W        W21439  42.492  32.026  13.703
56455W        W21440  18.727  10.782   3.512
56456W        W21441  34.383  30.639   4.030
56457W        W21442   0.367   5.796   0.749
56458W        W21443   9.854  28.444   0.964
56459W        W21444   7.693  43.289  12.502
56460W        W21445  35.192  44.713  13.920
56461W        W21446  39.863  15.254  12.826
56462W        W21447  36.776   8.694  13.856
56463W        W21448   9.379  34.320   0.796
56464W        W21449  42.019   0.695  10.446
56465W        W21450  28.459  20.750  12.245
56466W        W21451  38.413   5.530  13.391
56467W        W21452  20.370  40.035  14.492
56468W        W21453  28.973  15.711   3.698
56469W        W21454  39.845  12.358  12.038
56470W        W21455   5.880  44.501  11.095
56471W        W21456  29.622  17.060   2.205
56472W        W21457  13.075  41.097   4.234
56473W        W21458   6.324  12.155  11.654
56474W        W21459   4.123  15.469   2.713
56475W        W21460  38.960  15.364   4.034
56476W        W21461  38.331  43.787  13.330
56477W        W21462  44.632  27.594  11.841
56478W        W21463  16.888   1.811  10.014
56479W        W21464  29.593  20.498   1.689
56480W        W21465  25.566   9.388  14.141
56481W        W21466   2.458  41.981   2.594
56482W        W21467  11.321  32.532   1.410
56483W        W21468  43.396  40.728  10.670
56484W        W21469  16.047   3.302  13.932
56485W        W21470  25.947  33.606   3.714
56486W        W21471  13.808  16.353  13.790
56487W        W21472  27.991  36.884   1.790
56488W        W21473  26.796  40.811  12.140
56489W        W21474  16.945  29.964  14.320
56490W        W21475  26.648   5.179   0.280
56491W        W21476  29.655  12.251   2.882
56492W        W21477  20.118  43.109   2.900
56493W        W21478  41.947  35.545  11.039
56494W        W21479  19.846  43.771   2.408
56495W        W21480  41.754  35.616  13.010
56496W        W21481  16.864  11.709   4.490
56497W        W21482   8.244   3.948  14.036
56498W        W21483   5.756  24.511   4.139
56499W        W21484   6.474  26.384  11.804
56500W        W21485  42.871  24.149   4.556
56501W        W21486  41.787  11.155   0.457
56502W        W21487   1.754   3.858  12.809
56503W        W21488  25.777  41.496  11.958
56504W        W21489  17.487  24.661  12.727
56505W        W21490  21.204  15.712  14.838
56506W        W21491  31.194   5.795   0.031
56507W        W21492  37.062  38.209  13.494
56508W        W21493   6.538  42.833   2.689
56509W        W21494   6.271  27.188   2.571
56510W        W21495  43.312  33.425  14.725
56511W        W21496  36.037  25.610  12.946
56512W        W21497  25.617  12.556  10.734
56513W        W21498  27.091  30.871   3.120
56514W        W21499  19.301  18.189  10.890
56515W        W21500  24.693  12.705   0.737
56516W        W21501  20.032   3.902   0.544
56517W        W21502  39.340  14.036  13.886
56518W        W21503  27.447  16.379  14.420
56519W        W21504  43.946  36.782   3.302
56520W        W21505  18.726  33.030  14.328
56521W        W21506  36.429  11.149  12.621
56522W        W21507  38.439   0.053   2.714
56523W        W21508  32.744  10.242   4.490
56524W        W21509   4.405  40.024  13.361
56525W        W21510  19.312  32.195   1.721
56526W        W21511  19.671   1.767  13.813
56527W        W21512  27.301  40.926  12.058
56528W        W21513  20.797  12.165   1.891
56529W        W21514  18.790  36.562   4.595
56530W        W21515   6.129  18.254  14.765
56531W        W21516  10.604  22.032  13.899
56532W        W21517  14.018   4.303   1.534
56533W        W21518   2.272  14.659   3.238
56534W        W21519  16.917  20.458  12.351
56535W        W21520  37.814  14.239  12.146
56536W        W21521  35.008  10.345   0.231
56537W        W21522   6.166  37.515  11.446
56538W        W21523   8.654  42.838  12.696
56539W        W21524  43.320   9.421  12.431
56540W        W21525   8.851  17.134  13.360
56541W        W21526   4.373  13.863   3.634
56542W        W21527  25.996  23.359  14.330
56543W        W21528  33.628  32.590  13.797
56544W        W21529   5.175  32.118  12.384
56545W        W21530  32.558   3.368  12.241
56546W        W21531  43.767  34.032  10.961
56547W        W21532  21.542  23.008  12.445
56548W        W21533  34.450  26.662   3.262
56549W        W21534  21.012  18.562  12.721
56550W        W21535  13.247   9.852   4.365
56551W        W21536   4.966  27.951   4.305
56552W        W21537  22.700  33.708  13.293
56553W        W21538  23.693   2.058   4.550
56554W        W21539  31.394   4.723   3.687
56555W        W21540  38.245  39.128  11.094
56556W        W21541  36.128  35.088  14.848
56557W        W21542   3.238  19.175  10.695
56558W        W21543  30.578  42.461  10.466
56559W        W21544  29.942   2.695  11.035
56560W        W21545  38.231  26.441  13.045
56561W        W21546  17.725  41.330   2.737
56562W        W21547  13.784  12.692   4.336
56563W        W21548  26.683  15.656  11.489
56564W        W21549  28.394  22.750  14.428
56565W        W21550  20.198  21.343   3.273
56566W        W21551  28.601  22.112   1.506
56567W        W21552  16.779  41.277   1.773
56568W        W21553  30.156  37.807  14.822
56569W        W21554  22.070  14.555  13.728
56570W        W21555  43.333  10.458  10.699
56571W        W21556  25.450   6.202  10.713
56572W        W21557  44.276  31.385   1.326
56573W        W21558   5.250  39.808   1.649
56574W        W21559  43.683   1.184   3.264
56575W        W21560  26.762  10.065  12.570
56576W        W21561  12.775  42.828   1.831
56577W        W21562   2.465  23.731   4.059
56578W        W21563   7.271  16.012   3.377
56579W        W21564   6.939  21.151  13.359
56580W        W21565  13.878  38.674   1.058
56581W        W21566  43.206  34.258  11.643
56582W        W21567   4.920  26.009  11.003
56583W        W21568   3.894   6.239   1.387
56584W        W21569  37.755  12.304  11.282
56585W        W21570   2.363  26.751  12.945
56586W        W21571  13.013   1.452   2.145
56587W        W21572  33.235  40.062  11.070
56588W        W21573  13.562  17.808  10.741
56589W        W21574   4.343  18.790   0.403
56590W        W21575   6.348   1.060   5.203
56591W        W21576   8.510  13.214  14.342
56592W        W21577   2.109  31.422  11.226
56593W        W21578  35.569  14.318   3.634
56594W        W21579  35.032   5.302  14.937
56595W        W21580  23.619  33.992   2.338
56596W        W21581  23.464   7.752  12.051
56597W        W21582  33.660  32.592   2.628
56598W        W21583   6.014  23.751   1.874
56599W        W21584   4.374   2.862  11.635
56600W        W21585  34.941  29.200  14.876
56601W        W21586  10.365  11.803   2.119
56602W        W21587  12.397  34.096   1.672
56603W        W21588  22.040  12.939  14.989
56604W        W21589  33.837   6.331   0.416
56605W        W21590   9.942   4.711  13.364
56606W        W21591  36.967  13.416  13.318
56607W        W21592  16.734  40.747  14.740
56608W        W21593   3.751  36.408  12.505
56609W        W21594  28.898  29.080   0.201
56610W        W21595  15.722  13.079   0.793
56611W        W21596   7.464  21.663   1.633
56612W        W21597  20.136  33.685   1.656
56613W        W21598  42.373  44.433   1.997
56614W        W21599  22.489   2.290   4.209
56615W        W21600   7.385   5.652   4.549
56616W        W21601  19.384  39.911   1.013
56617W        W21602  12.578   0.057   2.257
56618W        W21603  12.724  37.462   2.135
56619W        W21604   1.354   8.254   0.432
56620W        W21605  10.403   7.392  11.150
56621W        W21606   3.381  21.560  11.712
56622W        W21607  17.045  10.835  14.831
56623W        W21608  13.321  12.667   4.089
56624W        W21609  28.948  13.809   2.800
56625W        W21610  31.006  39.823   0.324
56626W        W21611   6.971  16.269   4.627
56627W        W21612  24.675  14.093  14.371
56628W        W21613   6.222  20.294   4.511
56629W        W21614  40.906  22.641  13.514
56630W        W21615  14.649  25.190   1.028
56631W        W21616  44.911  20.512   0.721
56632W        W21617  43.333   2.764   4.314
56633W        W21618  17.028  31.703   4.960
56634W        W21619  14.658  19.765   3.318
56635W        W21620   2.427  38.189   4.725
56636W        W21621  15.213   4.236   0.881
56637W        W21622  31.959  19.217  12.527
56638W        W21623  20.539  30.177  11.579
56639W        W21624  43.481  35.284   0.357
56640W        W21625  37.828  23.997   3.017
56641W        W21626  21.190  41.471   3.089
56642W        W21627  38.377  33.104   3.373
56643W        W21628  16.991  13.397   3.023
56644W        W21629  20.468  39.258  14.091
56645W        W21630  32.008  18.255  10.642
56646W        W21631   4.418  11.336  10.345
56647W        W21632  18.709   8.304   0.466
56648W        W21633  10.020  13.161   2.309
56649W        W21634  18.744  29.097   4.810
56650W        W21635  33.353  14.536   2.327
56651W        W21636  23.786  37.341   0.353
56652W        W21637  41.409  28.185  14.260
56653W        W21638   7.439   1.393   3.299
56654W        W21639  35.427   2.178   0.392
56655W        W21640  43.655  38.027  14.825
56656W        W21641   5.265  10.888   2.703
56657W        W21642   9.370   3.362  13.163
56658W        W21643  21.576  10.706  11.525
56659W        W21644  22.529  42.477   2.119
56660W        W21645  20.087   6.406   4.688
56661W        W21646  31.726   8.890  12.615
56662W        W21647  18.602  35.274   2.235
56663W        W21648  21.093  17.985  11.415
56664W        W21649  10.801  11.032   2.985
56665W        W21650   6.924  26.824   3.439
56666W        W21651  30.558  44.210   0.970
56667W        W21652  27.057  16.774  12.104
56668W        W21653  41.096   1.914   1.684
56669W        W21654  43.693   9.024  12.521
56670W        W21655  41.594   0.271  14.776
56671W        W21656   0.824  28.044   2.865
56672W        W21657  20.066  34.867   3.580
56673W        W21658  18.569  34.996  13.769
56674W        W21659   6.268  20.163  12.999
56675W        W21660  12.816  26.228  13.084
56676W        W21661   2.466  31.044  10.590
56677W        W21662  15.558  35.667  11.941
56678W        W21663  29.137  18.862  10.583
56679W        W21664   0.793   8.776  11.137
56680W        W21665   0.449  20.132   3.362
56681W        W21666  37.797  42.950  14.924
56682W        W21667  28.868  12.642  10.497
56683W        W21668   9.191  40.737  13.394
56684W        W21669   8.828   2.997  11.519
56685W        W21670  29.206   4.414  14.955
56686W        W21671  42.787   7.613   2.791
56687W        W21672   7.781  38.753  11.169
56688W        W21673  44.232  25.742  14.818
56689W        W21674  10.930  25.606  14.943
56690W        W21675  29.655  31.844  11.094
56691W        W21676   9.384  38.451  14.020
56692W        W21677  44.731  26.153  12.071
56693W        W21678  33.050  22.547   3.307
56694W        W21679  19.295  42.819   3.290
56695W        W21680  26.554  16.859   2.701
56696W        W21681  18.505   1.676  11.128
56697W        W21682   6.129  31.987  13.532
56698W        W21683   4.703  36.320   0.338
56699W        W21684  10.826  36.802  11.067
56700W        W21685   2.777  34.683  11.193
56701W        W21686  22.280  25.378  13.014
56702W        W21687   4.235  19.318  13.019
56703W        W21688  13.575   1.799   0.391
56704W        W21689  26.076  23.323  12.176
56705W        W21690  28.463  41.999   4.652
56706W        W21691  41.297  11.908  12.124
56707W        W21692  28.209  13.545  12.462
56708W        W21693  13.119   5.176  14.731
56709W        W21694  25.665  39.799   1.291
56710W        W21695  30.252  36.413   1.891
56711W        W21696  30.475  40.293  13.114
56712W        W21697  31.412  34.394  12.136
56713W        W21698  33.486  17.404  10.345
56714W        W21699  17.080  22.046   0.565
56715W        W21700  40.043  23.625   0.238
56716W        W21701  14.553  40.555  12.861
56717W        W21702   5.297  19.249  11.249
56718W        W21703  21.765  23.947  11.601
56719W        W21704   0.006  41.802   0.732
56720W        W21705  34.840   4.905   3.021
56721W        W21706  12.186   0.520   2.790
56722W        W21707  44.934   8.893   4.990
56723W        W21708  11.410   6.237  10.852
56724W        W21709   3.849   3.491  12.341
56725W        W21710  11.437  21.693   3.293
56726W        W21711   3.326  36.539  13.564
56727W        W21712  25.993  12.523   1.082
56728W        W21713  43.168  16.394  12.873
56729W        W21714  17.847  23.460  11.065
56730W        W21715  36.165  24.029  11.570
56731W        W21716  37.773   6.146  10.043
56732W        W21717  20.246   5.606  14.061
56733W        W21718  32.043  44.354  12.332
56734W        W21719  16.937  28.135  13.564
56735W        W21720   3.922  37.328   3.696
56736W        W21721  21.603  31.130   2.070
56737W        W21722  36.594  44.313  10.650
56738W        W21723   3.175  24.971   0.472
56739W        W21724  20.234  18.569  11.729
56740W        W21725   0.834  22.000  13.990
56741W        W21726  25.899  41.329   3.179
56742W        W21727  37.783  43.860   2.631
56743W        W21728  44.271  14.099   1.704
56744W        W21729   0.629   2.261  11.144
56745W        W21730  28.683  12.671  12.146
56746W        W21731   1.375  34.802   3.986
56747W        W21732  27.029  19.715  13.841
56748W        W21733  30.484   4.568  11.425
56749W        W21734  38.408  32.985  14.085
56750W        W21735  22.195   2.359   1.716
56751W        W21736   1.256  40.331   2.681
56752W        W21737  19.303  38.321  11.689
56753W        W21738  12.500   0.978   1.793
56754W        W21739  21.300  20.497  12.541
56755W        W21740  11.810  40.999   1.797
56756W        W21741  30.657  44.478   4.167
56757W        W21742   3.966  38.468  11.294
56758W        W21743  20.112  39.458  12.397
56759W        W21744  35.424  14.704  11.689
56760W        W21745   6.192  17.021   4.317
56761W        W21746  42.812  30.683  12.703
56762W        W21747  11.394   2.872  13.877
56763W        W21748  41.986  20.261  14.772
56764W        W21749   5.560  39.376   3.892
56765W        W21750  33.636  23.351  12.130
56766W        W21751  21.102  40.410   4.072
56767W        W21752  33.563  24.740   1.118
56768W        W21753  32.023  32.700  11.969
56769W        W21754   1.235  25.706   2.191
56770W        W21755  39.848  39.561  10.674
56771W        W21756   1.075  12.920  12.951
56772W        W21757  34.852  23.593   4.025
56773W        W21758  30.916  13.221   1.636
56774W        W21759  39.822  12.427   0.995
56775W        W21760   7.890   7.240   0.549
56776W        W21761  43.577  20.606   0.007
56777W        W21762  37.557  12.730   2.916
56778W        W21763   4.748   4.222  11.497
56779W        W21764   6.298  11.345  11.253
56780W        W21765  34.628   8.707  13.489
56781W        W21766   1.676  30.450  11.720
56782W        W21767  43.665  41.557  13.546
56783W        W21768  44.876  44.025   4.667
56784W        W21769  36.084   2.002  14.676
56785W        W21770  13.226  12.917  12.082
56786W        W21771  28.850  35.574  11.106
56787W        W21772  36.850   3.168   4.321
56788W        W21773  12.411  31.074  11.196
56789W        W21774  13.728  25.144   0.959
56790W        W21775  19.816   3.636  11.639
56791W        W21776  29.025  12.737  14.427
56792W        W21777   2.801   2.967   3.714
56793W        W21778   0.710  40.357  11.678
56794W        W21779   8.837  39.323  11.385
56795W        W21780  12.418  30.960  12.157
56796W        W21781   8.789  12.433  11.076
56797W        W21782   0.432   1.689   4.700
56798W        W21783  20.740  23.513  12.152
56799W        W21784  18.630  26.494   3.392
56800W        W21785  41.090  30.192  12.685
56801W        W21786  29.153   9.615  13.953
56802W        W21787   3.725  34.402  11.034
56803W        W21788  34.228  39.771  12.519
56804W        W21789   3.263   5.887   1.986
56805W        W21790  29.148   6.848  11.610
56806W        W21791  13.680  43.281   3.153
56807W        W21792  44.398  39.441  14.356
56808W        W21793  30.743   4.280   1.837
56809W        W21794  25.465   9.360  11.139
56810W        W21795  29.027  14.407  10.452
56811W        W21796   0.445  16.807   0.252
56812W        W21797  28.965  35.900   1.353
56813W        W21798  30.444  19.814  12.974
56814W        W21799  44.861  43.615  13.800
56815W        W21800  27.559  24.416   1.422
56816W        W21801   9.111  38.663  12.550
56817W        W21802  41.811  42.844  11.945
56818W        W21803  38.540   8.464   0.221
56819W        W21804  11.388  33.900  12.513
56820W        W21805   6.786  36.835  14.970
56821W        W21806  20.354  35.060  12.602
56822W        W21807  36.294  13.639   3.640
56823W        W21808   7.337  13.822  13.116
56824W        W21809  17.437   4.080   0.858
56825W        W21810  42.097  26.775   3.384
56826W        W21811  40.570  11.129  14.648
56827W        W21812  14.471   9.288  10.707
56828W        W21813  30.516  26.481   3.151
56829W        W21814  23.285   2.401  13.390
56830W        W21815   3.728   2.290  14.470
56831W        W21816   9.251   4.186   0.367
56832W        W21817   1.949   1.830  12.398
56833W        W21818   0.841   2.402  11.588
56834W        W21819  43.558   4.239   1.929
56835W        W21820  39.350  43.364   3.739
56836W        W21821  25.221  35.412   2.862
56837W        W21822  26.171  34.205  12.300
56838W        W21823   0.737   5.837   2.865
56839W        W21824  14.945  43.805   1.810
56840W        W21825  24.941   9.004   1.910
56841W        W21826  28.037   2.483   1.860
56842W        W21827  10.121  15.840   4.650
56843W        W21828  32.965  15.984  12.278
56844W        W21829   1.760  41.187   2.283
56845W        W21830  30.191   2.609   5.081
56846W        W21831  29.514  18.838   3.823
56847W        W21832   3.067  36.943  10.844
56848W        W21833  18.772  12.689  10.671
56849W        W21834  44.336  43.019   1.962
56850W        W21835  20.524  22.141  11.098
56851W        W21836  16.304  26.069  14.985
56852W        W21837  41.531   8.348   2.880
56853W        W21838  20.746  17.700  12.616
56854W        W21839   2.730  32.713  11.134
56855W        W21840   9.710  34.093   2.232
56856W        W21841  41.070  28.553   4.737
56857W        W21842  15.107   3.904   2.147
56858W        W21843  17.203  32.685   1.169
56859W        W21844  17.728  20.600   2.585
56860W        W21845   7.234   2.350  13.161
56861W        W21846  27.575  30.733   3.380
56862W        W21847  43.283  40.674  11.586
56863W        W21848  38.905  24.953  13.519
56864W        W21849  27.119   0.949   4.017
56865W        W21850  20.845  39.060  12.997
56866W        W21851  29.989  17.212  10.774
56867W        W21852  22.590  38.799   4.485
56868W        W21853  23.575  30.477  11.625
56869W        W21854  15.629  11.972   2.113
56870W        W21855  21.804  17.585   0.946
56871W        W21856  31.381   4.680  11.461
56872W        W21857  25.673  38.499   3.586
56873W        W21858  18.656   5.190  13.372
56874W        W21859  22.569  42.289   3.579
56875W        W21860  19.163  13.140  14.976
56876W        W21861  38.693   9.928   1.374
56877W        W21862  25.134  12.600  14.461
56878W        W21863  21.276  30.541  14.020
56879W        W21864  15.969   8.644  13.825
56880W        W21865   9.740  25.899  13.031
56881W        W21866  25.699  34.419  12.299
56882W        W21867   2.348   5.918  14.047
56883W        W21868  31.786  32.178   5.096
56884W        W21869   7.236   7.730  13.527
56885W        W21870  26.144  14.029   4.534
56886W        W21871   3.958  35.941   3.225
56887W        W21872   7.937   8.696  11.933
56888W        W21873  34.334  16.149   4.684
56889W        W21874  27.237  20.579   0.395
56890W        W21875  38.952  15.190  10.478
56891W        W21876  43.415  43.852  10.418
56892W        W21877  21.360   4.086   2.240
56893W        W21878   5.324  24.781   4.133
56894W        W21879  41.733  20.210  13.904
56895W        W21880  15.250  13.717  14.488
56896W        W21881  31.260  23.746  13.081
56897W        W21882   7.658  18.465   3.693
56898W        W21883  36.459  35.314  14.034
56899W        W21884  15.538   9.248  14.357
56900W        W21885  33.877   3.816  10.368
56901W        W21886  28.960  26.562  13.417
56902W        W21887  41.321  14.793  11.152
56903W        W21888  32.012  13.124  11.240
56904W        W21889  15.660  24.977  12.415
56905W        W21890  29.704  21.612   3.653
56906W        W21891  39.453  44.505  10.437
56907W        W21892  39.785  11.628   2.333
56908W        W21893   5.698  10.271  10.731
56909W        W21894  39.439   9.757   4.842
56910W        W21895  37.693  39.311  14.900
56911W        W21896  40.311  43.017  14.543
56912W        W21897  35.089   7.322   4.636
56913W        W21898   5.192   0.369   0.507
56914W        W21899  38.819  16.909   5.039
56915W        W21900  18.242  40.426   0.736
56916W        W21901  10.113  17.001  11.635
56917W        W21902  35.271  30.830   3.604
56918W        W21903  18.067  42.226   3.599
56919W        W21904  37.650  17.530  12.806
56920W        W21905  12.399   9.280   3.151
56921W        W21906  43.834   8.423  14.970
56922W        W21907  33.474  21.734   1.254
56923W        W21908  26.147  30.440  12.215
56924W        W21909   9.629  28.334  13.280
56925W        W21910  20.120  34.485   1.006
56926W        W21911  21.759  38.605  13.872
56927W        W21912  26.095  20.551   2.403
56928W        W21913  40.802  44.011   1.895
56929W        W21914  10.983   5.133  11.976
56930W        W21915  36.041   1.392  10.793
56931W        W21916  11.326  41.640   2.816
56932W        W21917  33.522  17.955   4.873
56933W        W21918  34.366  20.216   3.599
56934W        W21919  35.641  41.837  13.072
56935W        W21920  13.900  14.650  14.373
56936W        W21921  16.062  17.253   3.251
56937W        W21922  35.838   8.503   0.182
56938W        W21923  20.194  28.640   4.810
56939W        W21924   1.233  15.611  12.880
56940W        W21925  10.169   9.458   3.113
56941W        W21926  22.218   2.873   1.243
56942W        W21927   4.834  43.617   1.812
56943W        W21928  25.754  10.775   2.899
56944W        W21929   3.837  23.253  12.892
56945W        W21930   3.048  30.486   3.180
56946W        W21931  43.207  12.248   1.662
56947W        W21932  30.422  19.294  12.979
56948W        W21933  18.759   1.708  11.580
56949W        W21934   6.093  30.450  10.657
56950W        W21935  42.005  27.576   0.933
56951W        W21936  10.300   9.635   2.610
56952W        W21937  43.167  19.111  14.825
56953W        W21938   1.796  40.376  12.980
56954W        W21939   7.968   2.448   0.251
56955W        W21940  22.449  35.016   4.475
56956W        W21941  34.400  26.509   4.064
56957W        W21942   1.806  43.864  13.992
56958W        W21943  37.164  28.970   2.817
56959W        W21944  20.701  15.059   3.268
56960W        W21945  27.610  43.379  11.585
56961W        W21946  21.944  43.382  10.581
56962W        W21947  17.584  10.831  14.927
56963W        W21948  34.424   2.349   1.172
56964W        W21949  15.417  16.528  13.280
56965W        W21950  15.597   1.535  13.012
56966W        W21951  39.430  27.619   2.748
56967W        W21952  18.106  36.338  11.536
56968W        W21953   5.335   5.068  11.582
56969W        W21954  36.923  43.686   2.312
56970W        W21955  39.381  12.482  13.850
56971W        W21956  37.387  39.822  13.024
56972W        W21957  31.061  10.425  12.855
56973W        W21958  15.230   0.311  11.187
56974W        W21959  30.908   7.673   3.381
56975W        W21960  30.980   4.464  11.159
56976W        W21961  39.397  10.739   4.852
56977W        W21962  40.523  43.078   0.791
56978W        W21963   1.064  34.255   1.866
56979W        W21964  16.378   5.549  11.196
56980W        W21965   5.389   2.802   0.940
56981W        W21966  36.569   3.378  11.379
56982W        W21967  14.726   2.510  13.088
56983W        W21968  16.026   7.695  12.993
56984W        W21969  29.630   2.590  11.976
56985W        W21970  37.949  24.804  12.533
56986W        W21971  31.092  43.579  10.689
56987W        W21972  36.076  22.777  12.484
56988W        W21973  33.420  24.714   3.151
56989W        W21974  10.308   2.915  12.745
56990W        W21975  40.501   7.169  13.254
56991W        W21976  16.636  42.845   2.148
56992W        W21977  31.575  37.060   2.893
56993W        W21978  35.776  28.051  13.019
56994W        W21979  23.739  14.819  12.238
56995W        W21980  11.827  38.573  11.233
56996W        W21981   5.688  44.400   3.550
56997W        W21982   1.900  40.010   4.308
56998W        W21983  44.861   4.340   0.695
56999W        W21984  25.868   0.730   9.974
57000W        W21985  17.176   8.796  14.807
57001W        W21986  43.463  29.014   1.424
57002W        W21987  15.195  40.971   4.263
57003W        W21988  28.940  30.788   1.674
57004W        W21989  39.046  11.163  13.994
57005W        W21990   8.419  19.786  12.109
57006W        W21991   3.569   8.283   1.963
57007W        W21992  13.384   3.717  12.254
57008W        W21993  34.959  17.089   5.004
57009W        W21994  39.297  11.244   0.295
57010W        W21995  10.413   2.735  14.982
57011W        W21996   2.667  20.000  12.411
57012W        W21997  17.763  32.171  14.273
57013W        W21998  44.878  29.440   0.524
57014W        W21999   7.374  43.154   3.102
57015W        W22000  20.156  31.854   3.065
57016W        W22001  19.099   6.248   3.225
57017W        W22002   6.557  35.339  14.347
57018W        W22003   6.634  30.103  13.957
57019W        W22004  15.120   8.675   4.009
57020W        W22005  25.181   4.342   0.782
57021W        W22006  30.671   3.162   3.341
57022W        W22007   9.301  35.351   0.902
57023W        W22008   6.468  42.360  10.657
57024W        W22009  22.058  42.503   3.617
57025W        W22010  19.068  26.729   2.613
57026W        W22011   7.135   2.391  14.123
57027W        W22012   6.212  33.962   4.167
57028W        W22013   5.909  24.224  14.777
57029W        W22014  29.085  26.511   4.005
57030W        W22015  29.425  43.917  14.580
57031W        W22016  36.912  16.344   0.562
57032W        W22017  42.458  44.660   1.517
57033W        W22018  17.230  15.442  12.415
57034W        W22019  11.633   4.207   2.779
57035W        W22020  15.317  19.052  13.888
57036W        W22021  40.538  25.057   1.578
57037W        W22022  10.859   8.163   3.352
57038W        W22023  40.326   8.880   0.421
57039W        W22024  33.980   5.943   2.337
57040W        W22025  24.508  12.274  11.496
57041W        W22026  22.407  12.242  14.393
57042W        W22027  39.896   6.500   2.157
57043W        W22028   5.982   8.672  11.540
57044W        W22029  19.991   0.715   4.084
57045W        W22030  17.480  14.241  13.744
57046W        W22031  27.734  15.602  10.103
57047W        W22032  29.260  18.222  13.381
57048W        W22033  44.283  33.916  10.953
57049W        W22034  40.252   1.925  11.641
57050W        W22035  35.663  14.025  11.008
57051W        W22036  21.560  12.741   0.016
57052W        W22037   2.242  36.838  11.035
57053W        W22038   6.195  25.400   2.149
57054W        W22039  11.623  41.349  12.230
57055W        W22040  37.734  10.949   9.839
57056W        W22041  17.211  35.823   0.977
57057W        W22042  10.571  29.383   0.301
57058W        W22043  34.552  33.243   1.802
57059W        W22044  42.327  20.248  10.441
57060W        W22045  34.526   0.890   3.691
57061W        W22046   1.433  39.872   3.622
57062W        W22047   5.311   8.894  10.927
57063W        W22048  40.483   9.436  12.658
57064W        W22049   3.671  16.135   0.211
57065W        W22050  16.362  18.654   0.732
57066W        W22051  15.404   6.948  14.387
57067W        W22052  22.550  31.634  13.495
57068W        W22053  19.122  24.564   4.704
57069W        W22054  34.922  20.281   1.367
57070W        W22055  10.149   3.714   1.926
57071W        W22056   4.905  27.207   2.241
57072W        W22057  32.299  32.123   4.965
57073W        W22058  39.535  17.487  13.989
57074W        W22059   5.210  15.345   1.508
57075W        W22060  15.743   2.194   5.130
57076W        W22061  21.056  33.257  11.008
57077W        W22062   4.861  28.516  11.899
57078W        W22063  15.318   7.190  10.380
57079W        W22064  39.521  30.048   0.062
57080W        W22065  10.161  38.205   4.440
57081W        W22066  28.517  11.360   4.567
57082W        W22067  37.490   8.734  10.555
57083W        W22068   2.783  23.446   1.423
57084W        W22069  37.292  42.519  14.725
57085W        W22070  18.048  21.311  13.608
57086W        W22071  19.359  26.936  14.948
57087W        W22072  34.731  12.297   4.030
57088W        W22073  13.085   5.802  13.547
57089W        W22074  13.418  28.540   2.645
57090W        W22075  34.608  25.492  14.979
57091W        W22076  24.911   8.792  12.715
57092W        W22077  40.618  21.240   0.963
57093W        W22078   4.482   6.842  11.705
57094W        W22079   4.712  31.811   4.542
57095W        W22080  44.799  28.020   4.019
57096W        W22081  11.283  36.772  14.292
57097W        W22082   8.152  34.974   0.244
57098W        W22083  39.496   9.415  11.609
57099W        W22084  29.077  13.743   0.961
57100W        W22085  27.910  43.445   3.351
57101W        W22086   7.866   9.989   4.629
57102W        W22087  15.260  19.516  14.709
57103W        W22088  18.073  14.051   1.406
57104W        W22089  14.591  14.218   3.038
57105W        W22090   6.839  20.774  12.487
57106W        W22091  40.186  41.950   4.156
57107W        W22092  38.866  18.497   2.722
57108W        W22093  17.081  27.071  13.011
57109W        W22094  38.698  23.033   3.390
57110W        W22095  23.087  31.760   0.944
57111W        W22096  38.444  37.901   2.438
57112W        W22097  16.566   5.282   1.811
57113W        W22098  43.846  12.691  12.664
57114W        W22099  11.395  37.781  14.310
57115W        W22100  38.838  16.561  10.727
57116W        W22101  36.584  16.567   0.036
57117W        W22102  18.180  27.012   2.214
57118W        W22103  44.482  15.792   3.655
57119W        W22104  14.707  30.648   3.337
57120W        W22105   7.373  32.658  14.055
57121W        W22106   6.547  39.360   0.015
57122W        W22107  24.316  33.543   4.919
57123W        W22108  29.125  42.749   3.094
57124W        W22109  21.985   4.415  14.544
57125W        W22110   6.163   8.121  13.464
57126W        W22111  11.722  42.819  13.523
57127W        W22112   7.841  25.405   0.680
57128W        W22113  30.353   2.449   4.353
57129W        W22114  14.414  32.732   4.574
57130W        W22115  12.404  43.939  13.891
57131W        W22116  14.539  21.735   4.140
57132W        W22117  44.548   2.388  11.891
57133W        W22118  36.151  29.916   2.688
57134W        W22119   6.954  29.098  12.398
57135W        W22120  43.551   9.155   0.205
57136W        W22121   4.833  31.398  12.314
57137W        W22122  41.500  39.694  12.126
57138W        W22123  18.190  21.287  11.801
57139W        W22124   1.247  27.568  14.964
57140W        W22125  44.411   1.053  10.720
57141W        W22126   7.956   7.669  11.109
57142W        W22127   7.737  31.669  10.782
57143W        W22128  17.690  30.035   3.665
57144W        W22129  33.599  24.536   2.666
57145W        W22130  32.894  11.409  11.971
57146W        W22131  23.015   1.387   1.402
57147W        W22132   8.161  29.040   2.627
57148W        W22133   6.803  40.057  13.906
57149W        W22134   9.177   9.631   3.713
57150W        W22135  14.620  29.077  13.084
57151W        W22136   9.008  22.014  10.778
57152W        W22137  33.199   0.856  12.449
57153W        W22138   0.045  42.988   0.432
57154W        W22139   2.071   6.297  14.277
57155W        W22140  28.592  26.150  12.769
57156W        W22141   2.248  38.011   2.188
57157W        W22142   8.827   5.659   3.166
57158W        W22143  42.386  39.085  14.469
57159W        W22144  34.866  12.903   2.868
57160W        W22145  26.134  19.701   4.588
57161W        W22146  30.123  35.115  14.947
57162W        W22147  16.069  14.300  14.405
57163W        W22148  41.952   7.664  12.836
57164W        W22149  42.113  41.153  11.235
57165W        W22150  15.961   9.153  14.903
57166W        W22151  11.259  17.321   0.030
57167W        W22152  34.092  28.483   3.222
57168W        W22153  20.001  30.344   0.741
57169W        W22154   7.693  44.767   1.807
57170W        W22155  23.199  18.922  13.981
57171W        W22156  11.663   3.943  13.416
57172W        W22157  13.133  35.098  14.690
57173W        W22158  21.577   8.163  13.646
57174W        W22159  14.022  24.579   4.783
57175W        W22160  31.592  18.630  13.611
57176W        W22161  32.473  43.241  11.936
57177W        W22162  12.036  38.838   4.639
57178W        W22163   9.086  34.845  13.928
57179W        W22164   9.724  26.427  12.952
57180W        W22165  15.352   8.866   4.895
57181W        W22166   4.124   6.635   9.701
57182W        W22167  40.185  26.644   0.340
57183W        W22168  33.594  26.635   2.155
57184W        W22169   4.887   6.696  12.955
57185W        W22170  32.001   4.212   1.325
57186W        W22171   6.840  43.683   3.709
57187W        W22172  30.703  44.216   1.479
57188W        W22173  25.448  13.781   0.212
57189W        W22174  23.584   5.345   2.428
57190W        W22175  43.240  31.735   1.072
57191W        W22176  17.063   3.225   0.971
57192W        W22177  14.554   9.837   2.247
57193W        W22178  12.085   1.007  13.359
57194W        W22179   5.182  19.779   3.595
57195W        W22180  10.036  34.864  13.893
57196W        W22181  25.668   8.078  11.275
57197W        W22182   9.139  42.635  11.954
57198W        W22183  33.123  11.258  12.420
57199W        W22184   3.907   6.174  13.494
57200W        W22185  38.998   9.650  13.302
57201W        W22186  27.465  39.482   0.347
57202W        W22187  34.362  41.976  10.638
57203W        W22188  33.172  38.947   3.110
57204W        W22189  11.244  41.994  12.729
57205W        W22190  29.908  15.105  14.963
57206W        W22191  30.439  21.290  13.953
57207W        W22192  32.710  43.319   1.625
57208W        W22193  28.433  33.759  12.984
57209W        W22194  24.572  42.838   4.047
57210W        W22195  13.989  42.689   3.789
57211W        W22196  40.559  38.993   4.186
57212W        W22197  31.344   2.196  12.353
57213W        W22198  41.930  19.402   4.972
57214W        W22199  14.458  42.449   3.709
57215W        W22200  11.991  13.553   3.668
57216W        W22201   4.318  24.430   0.756
57217W        W22202  16.302  13.377  13.087
57218W        W22203  29.551  43.939   0.094
57219W        W22204  32.202  31.693  11.994
57220W        W22205  14.330  19.701  12.568
57221W        W22206  23.450  35.054  13.527
57222W        W22207  30.619  19.134   2.314
57223W        W22208  38.583  10.445  11.621
57224W        W22209  44.978   9.354  14.590
57225W        W22210  24.762  38.853   0.860
57226W        W22211  16.203   7.325   2.573
57227W        W22212  43.697  13.698  13.948
57228W        W22213  21.601  24.947  14.393
57229W        W22214  34.878   2.944  14.529
57230W        W22215   6.372  43.646  10.707
57231W        W22216   4.664  35.365  14.315
57232W        W22217  23.179  22.053  14.852
57233W        W22218  35.861  40.497   2.971
57234W        W22219  30.633  27.484  14.546
57235W        W22220   2.211  17.087   2.244
57236W        W22221  35.857  31.839   0.250
57237W        W22222  38.393  29.485  10.721
57238W        W22223  28.402   1.878  14.229
57239W        W22224  35.073  42.359   3.199
57240W        W22225   9.757   6.524   1.349
57241W        W22226   6.457   7.837   4.168
57242W        W22227  20.759  29.725   2.782
57243W        W22228   9.406   0.437   2.230
57244W        W22229  21.649  27.598  10.692
57245W        W22230  25.259  41.729   0.709
57246W        W22231   3.707   7.963  12.412
57247W        W22232  40.469  37.757  11.478
57248W        W22233  23.710   4.332   1.736
57249W        W22234  10.821  29.467  10.728
57250W        W22235  11.280   5.061  10.473
57251W        W22236  28.877  34.313  11.776
57252W        W22237  14.635  36.842  13.037
57253W        W22238   4.838  34.601   1.781
57254W        W22239   4.145  22.459   2.843
57255W        W22240  38.537  23.492   1.501
57256W        W22241  21.019  43.985   4.273
57257W        W22242  28.065  35.899  14.891
57258W        W22243   7.873  28.093  14.129
57259W        W22244  11.371   1.271  10.444
57260W        W22245  37.357  38.127  12.210
57261W        W22246   2.374  37.289  13.376
57262W        W22247  44.537  34.960  13.363
57263W        W22248   7.527  37.147  11.722
57264W        W22249  25.163   0.277   3.384
57265W        W22250  18.787   4.868   3.574
57266W        W22251  24.274  39.756   2.294
57267W        W22252  24.721  26.598  12.966
57268W        W22253  40.184   7.954   1.806
57269W        W22254   3.919  42.110   1.888
57270W        W22255  14.221  39.860  13.482
57271W        W22256  11.091   6.750   2.237
57272W        W22257  36.169  34.840  13.625
57273W        W22258  39.616   9.860   3.697
57274W        W22259  39.577  39.331  14.406
57275W        W22260   2.717  30.978   4.837
57276W        W22261  11.800  30.476  10.591
57277W        W22262   1.065  20.370   3.858
57278W        W22263   1.427  16.237   0.073
57279W        W22264  23.459  36.483   4.196
57280W        W22265  24.024  29.018   2.350
57281W        W22266  44.281  23.078  12.340
57282W        W22267  28.057  41.273  13.043
57283W        W22268   8.988   1.116  13.422
57284W        W22269  42.807  29.406   3.338
57285W        W22270  22.948  20.213  12.470
57286W        W22271  43.467  36.386  12.431
57287W        W22272   5.992  33.992  12.578
57288W        W22273  33.632  18.753   3.181
57289W        W22274  19.194  42.837   0.349
57290W        W22275  36.161  18.138  12.457
57291W        W22276  18.160  34.508   4.464
57292W        W22277  32.736  17.455  14.962
57293W        W22278  42.516  37.848  12.521
57294W        W22279  43.903  42.276   4.553
57295W        W22280  42.651  25.538  12.669
57296W        W22281   7.770  18.843  14.277
57297W        W22282  21.722  17.168  14.874
57298W        W22283  43.522  42.061   4.267
57299W        W22284  44.994  27.909   2.267
57300W        W22285  33.751  41.053   1.798
57301W        W22286   9.246   8.718  13.810
57302W        W22287  22.855  18.325   3.762
57303W        W22288  31.956   2.237   4.862
57304W        W22289   6.332  13.457   2.868
57305W        W22290   1.400  14.953   1.391
57306W        W22291  43.832  27.507  11.373
57307W        W22292  26.673  36.305  14.620
57308W        W22293   0.890  29.705  13.772
57309W        W22294  15.800  38.506  14.325
57310W        W22295  18.139  26.208  14.907
57311W        W22296  19.028  44.706  12.079
57312W        W22297  19.555   0.762   5.077
57313W        W22298  37.429  37.888   1.499
57314W        W22299  39.616  41.731   2.874
57315W        W22300   8.737  14.595   3.074
57316W        W22301  29.652   8.847  14.458
57317W        W22302   4.891  19.831   0.839
57318W        W22303   3.268  14.885   2.296
57319W        W22304   5.254  22.514  13.982
57320W        W22305  10.780  32.620   1.308
57321W        W22306  32.538  23.135  14.713
57322W        W22307   5.214  20.164  11.444
57323W        W22308  38.445  18.466  11.730
57324W        W22309  44.391  30.354  11.892
57325W        W22310  32.866  42.448   4.225
57326W        W22311  20.505  13.583   2.586
57327W        W22312  37.041  43.991   3.069
57328W        W22313  28.962  19.892   0.428
57329W        W22314  13.819  33.036  14.467
57330W        W22315  17.720  38.141   1.916
57331W        W22316  26.630  43.748  12.525
57332W        W22317   1.260  17.220   4.096
57333W        W22318  10.317  29.311   3.556
57334W        W22319  24.793  39.936  10.379
57335W        W22320  42.693  10.382  11.967
57336W        W22321  19.140   0.369   0.370
57337W        W22322  25.938  25.550  13.096
57338W        W22323  25.016  21.894  13.965
57339W        W22324  29.941  36.434  10.774
57340W        W22325  32.978  27.215   1.696
57341W        W22326  40.777  13.804  13.001
57342W        W22327  32.378  15.645   1.662
57343W        W22328  31.323  39.921  13.046
57344W        W22329  33.071  23.054   3.261
57345W        W22330   2.840  28.658   0.281
57346W        W22331  22.315  44.774   0.730
57347W        W22332   3.978  30.861  13.563
57348W        W22333  13.669  19.740  12.138
57349W        W22334   5.603  35.689  14.586
57350W        W22335  17.927  20.272   2.947
57351W        W22336   1.656  30.614   1.787
57352W        W22337  19.319  44.410  12.392
57353W        W22338  32.223   9.915   2.787
57354W        W22339  33.576  33.412   1.199
57355W        W22340  36.391  40.228  14.062
57356W        W22341  31.660  28.601   3.220
57357W        W22342  34.357  16.175   4.149
57358W        W22343  37.448  31.833  11.184
57359W        W22344  40.495  12.298  12.825
57360W        W22345  22.742   7.284  11.232
57361W        W22346  33.383   3.925  10.470
57362W        W22347   9.186  41.375   2.364
57363W        W22348  13.930  36.497  11.214
57364W        W22349  14.677  23.663  12.278
57365W        W22350  25.126  32.891  13.039
57366W        W22351  38.003   1.373  13.490
57367W        W22352  12.658   2.420   2.715
57368W        W22353   0.529  26.587   3.628
57369W        W22354  42.541  10.362   2.607
57370W        W22355  22.544  36.017   1.197
57371W        W22356   8.188  43.074   3.502
57372W        W22357  12.731  14.216  13.352
57373W        W22358  44.555  11.173   1.763
57374W        W22359   6.758  18.447  11.227
57375W        W22360  38.294  32.789   4.935
57376W        W22361  14.706  27.439  13.003
57377W        W22362  25.506  26.509   0.694
57378W        W22363   0.582  42.334   1.887
57379W        W22364  11.448  14.141   9.937
57380W        W22365  39.969  11.146  12.854
57381W        W22366  18.742  16.383   0.932
57382W        W22367   7.247  13.423   3.868
57383W        W22368   8.925  38.250  13.874
57384W        W22369  34.029  16.203  10.718
57385W        W22370  22.634   2.443   0.285
57386W        W22371  38.268  35.755   0.057
57387W        W22372  29.860  11.154   4.134
57388W        W22373  24.151  12.587   2.812
57389W        W22374  38.304   4.072   4.495
57390W        W22375   5.535  23.629   1.812
57391W        W22376  17.904   8.385   9.601
57392W        W22377  18.634  12.481   5.032
57393W        W22378  39.547  13.554   2.356
57394W        W22379  42.378   7.897  13.426
57395W        W22380  13.217  25.708  11.919
57396W        W22381  32.478  11.571  12.573
57397W        W22382  18.714   9.528   4.981
57398W        W22383   9.370  17.016  13.323
57399W        W22384  27.932  38.103  10.759
57400W        W22385  36.044  20.532   0.421
57401W        W22386  42.560  13.326   2.252
57402W        W22387  44.387   3.303   0.667
57403W        W22388  32.973  35.661  14.953
57404W        W22389  10.181   9.327   1.694
57405W        W22390  40.349  20.984   0.563
57406W        W22391  39.141  40.773  12.957
57407W        W22392  35.471  27.090   1.371
57408W        W22393  19.873  28.419   0.794
57409W        W22394  39.254  36.874   2.424
57410W        W22395   8.407  38.304  13.906
57411W        W22396  28.101  28.162  12.415
57412W        W22397   5.207  42.759   1.717
57413W        W22398   0.799  21.985   3.353
57414W        W22399  20.570   3.451  11.668
57415W        W22400  27.659  11.095  13.826
57416W        W22401  15.280   0.311   1.210
57417W        W22402  14.805  33.166   2.276
57418W        W22403  28.915  32.590   3.233
57419W        W22404   2.372  11.320   2.698
57420W        W22405  43.196  15.585   1.689
57421W        W22406   9.771  24.008  11.958
57422W        W22407  13.588   4.687   4.098
57423W        W22408  33.151   8.225   2.744
57424W        W22409  13.072  43.300  10.925
57425W        W22410   5.197  19.602   0.196
57426W        W22411  35.193  20.191  14.972
57427W        W22412  40.364  16.516   1.292
57428W        W22413  32.067  17.274   1.165
57429W        W22414  34.457  23.358  13.564
57430W        W22415  37.486   0.487  12.863
57431W        W22416   4.368  11.186  10.852
57432W        W22417  38.546  39.995  10.940
57433W        W22418  39.602  31.203  11.137
57434W        W22419  17.358  27.239  12.582
57435W        W22420  33.885   2.652   0.500
57436W        W22421  36.024  37.460   3.622
57437W        W22422  17.360  12.404   3.825
57438W        W22423  28.415  19.777  13.773
57439W        W22424  37.432  14.665   3.277
57440W        W22425  10.730   9.893   2.467
57441W        W22426   7.453  42.517  12.115
57442W        W22427  36.023   7.260  10.559
57443W        W22428  41.233  24.561   1.331
57444W        W22429  31.117  34.569   2.415
57445W        W22430  34.891  28.206  13.385
57446W        W22431  33.409  43.311  11.702
57447W        W22432  27.087  10.337  10.239
57448W        W22433  28.003  37.938  12.007
57449W        W22434   6.477  16.022  13.968
57450W        W22435  33.729  44.794  11.218
57451W        W22436  35.498   9.589   5.530
57452W        W22437  17.532  29.596  13.423
57453W        W22438  28.146  28.546   0.771
57454W        W22439  43.969  26.483   4.657
57455W        W22440  26.166  32.896  12.363
57456W        W22441  35.014  13.325   0.385
57457W        W22442  21.859  34.937  11.153
57458W        W22443  24.923   5.247   2.748
57459W        W22444   9.926  32.159  10.968
57460W        W22445  30.557  41.872   1.785
57461W        W22446  36.546   5.793   2.327
57462W        W22447  16.297  35.276   2.861
57463W        W22448  34.602  42.483   2.320
57464W        W22449   6.874   7.831   1.587
57465W        W22450  35.789  37.084  12.034
57466W        W22451  39.311   7.243  14.738
57467W        W22452  40.099   2.386  14.436
57468W        W22453  38.554  36.161   2.241
57469W        W22454  38.515  13.366  10.958
57470W        W22455  18.972   9.990   0.228
57471W        W22456  34.886  23.160   3.406
57472W        W22457   7.858  19.041  12.981
57473W        W22458   8.147   6.830   0.344
57474W        W22459   0.759  30.408   0.851
57475W        W22460  40.107  27.736  11.115
57476W        W22461   1.028  35.041  11.547
57477W        W22462  32.992  34.069  14.565
57478W        W22463  42.226  12.255   3.264
57479W        W22464  35.368  10.660   1.387
57480W        W22465  25.980  34.153  10.576
57481W        W22466  12.312  12.098  10.729
57482W        W22467   6.530  34.507  13.756
57483W        W22468   8.130  34.322  12.597
57484W        W22469  21.159  41.952  14.720
57485W        W22470  15.350  17.557   2.148
57486W        W22471  18.456  25.094   1.702
57487W        W22472  10.878  40.451   0.020
57488W        W22473  29.620   8.457   3.643
57489W        W22474   3.488  18.604  13.391
57490W        W22475  24.263   3.287  11.206
57491W        W22476   5.412  13.867  11.286
57492W        W22477   5.834  41.034  12.429
57493W        W22478  11.625  11.599  12.603
57494W        W22479  33.956  32.328   3.298
57495W        W22480  35.548  16.075   3.943
57496W        W22481  19.229  34.389   0.883
57497W        W22482   3.770  41.708   4.859
57498W        W22483   1.837  13.573  12.973
57499W        W22484   5.273  11.192  14.243
57500W        W22485  35.752  20.334   0.816
57501W        W22486  41.179  34.554   1.038
57502W        W22487  24.045  12.086  10.935
57503W        W22488  11.545  34.372  12.573
57504W        W22489  17.094  15.001  12.651
57505W        W22490  40.269  18.827   2.692
57506W        W22491  28.090   9.855   9.993
57507W        W22492  11.251  28.765  13.839
57508W        W22493  18.953  13.259  14.288
57509W        W22494  35.741  22.204  11.687
57510W        W22495   1.718  42.786  11.166
57511W        W22496  25.144  20.629  11.615
57512W        W22497  14.113  38.551   4.965
57513W        W22498  39.619  12.664  14.784
57514W        W22499  12.569  16.323  11.160
57515W        W22500  27.399  32.876   0.203
57516W        W22501  42.038   1.725  11.987
57517W        W22502   0.258  12.257  12.048
57518W        W22503  20.119  27.121   5.619
57519W        W22504   0.880  15.063  14.885
57520W        W22505  20.768  15.041   0.850
57521W        W22506  38.367   3.748  14.436
57522W        W22507  43.674  28.177  10.216
57523W        W22508  35.382  34.448   0.026
57524W        W22509  22.723  12.416  10.703
57525W        W22510  44.745  38.839   3.132
57526W        W22511  16.345  22.043  13.943
57527W        W22512  27.314  12.884  14.953
57528W        W22513  41.404  18.344  10.684
57529W        W22514  26.208  18.894  13.471
57530W        W22515  37.816  31.948  12.422
57531W        W22516  41.628  37.886   4.697
57532W        W22517  12.775  35.518   3.604
57533W        W22518   7.087  30.055  14.887
57534W        W22519  18.104  18.054   0.355
57535W        W22520  27.923   3.030  13.063
57536W        W22521   6.630  14.474   1.082
57537W        W22522  18.737  11.945   2.777
57538W        W22523  44.764  29.447  14.783
57539W        W22524  38.354  34.192  11.173
57540W        W22525  40.862  32.099   3.230
57541W        W22526  29.448   6.823  13.964
57542W        W22527  13.302  25.058   4.306
57543W        W22528   7.722  12.348   3.435
57544W        W22529  14.353  34.079   0.017
57545W        W22530  44.410  28.567   9.726
57546W        W22531  28.871  20.660  11.252
57547W        W22532   8.808   1.100   2.178
57548W        W22533  37.300  37.403   5.068
57549W        W22534  42.971  30.988   4.515
57550W        W22535  41.800  30.877  14.553
57551W        W22536  32.136  19.778  14.328
57552W        W22537  38.600  14.319   1.788
57553W        W22538  10.303  27.125   4.424
57554W        W22539  44.821   1.069   0.130
57555W        W22540  18.792  12.174  11.918
57556W        W22541   6.289  39.122   0.832
57557W        W22542  18.795   1.247  10.458
57558W        W22543  24.679  29.087   4.175
57559W        W22544  43.666  22.689  13.748
57560W        W22545   2.387   7.349   1.428
57561W        W22546  30.259  15.865  13.350
57562W        W22547   4.331  40.255   2.747
57563W        W22548  41.397   4.351  11.999
57564W        W22549  32.735  23.582   1.940
57565W        W22550  12.072  39.523  13.997
57566W        W22551  37.021  39.950  13.358
57567W        W22552  29.246  38.854  12.960
57568W        W22553  15.911  28.222   0.195
57569W        W22554   7.419  17.865   1.759
57570W        W22555  14.722   1.438   2.061
57571W        W22556  26.094  15.824  12.923
57572W        W22557  34.479  13.504   9.617
57573W        W22558   4.715  10.971   4.536
57574W        W22559   1.677  40.425   0.231
57575W        W22560  37.798  13.341  12.066
57576W        W22561  10.360   2.753  10.822
57577W        W22562   4.825  40.830   0.295
57578W        W22563  38.008  21.995   3.566
57579W        W22564  12.627  15.862  13.803
57580W        W22565  17.290   5.787   1.741
57581W        W22566  21.872   8.375   3.410
57582W        W22567  11.236   9.389   1.640
57583W        W22568  34.547  34.942   2.980
57584W        W22569   7.341   6.843   4.527
57585W        W22570  15.094  29.118   1.923
57586W        W22571   5.216  37.879  10.463
57587W        W22572  11.689   7.605   1.509
57588W        W22573  18.133   8.159  13.194
57589W        W22574  29.049   3.338  12.049
57590W        W22575   6.768  44.431  10.700
57591W        W22576  43.146  34.457  13.365
57592W        W22577  25.203   6.879  10.727
57593W        W22578  37.690  18.846   0.889
57594W        W22579  30.896  27.166  11.855
57595W        W22580  41.907  23.990  10.739
57596W        W22581  15.612  41.478   0.496
57597W        W22582   2.868  17.577  14.567
57598W        W22583   5.973  42.322   1.616
57599W        W22584  16.264  11.345  13.589
57600W        W22585  42.517  42.865   3.892
57601W        W22586   2.554   8.097  12.184
57602W        W22587  38.384  39.074   1.243
57603W        W22588  35.908  30.763  10.726
57604W        W22589  26.037  43.181   5.567
57605W        W22590   6.457   6.008  12.520
57606W        W22591  13.278  43.257   2.339
57607W        W22592  44.749  21.669   1.593
57608W        W22593  42.957  13.177  14.193
57609W        W22594  20.132  27.174  12.348
57610W        W22595  21.756  23.162   2.500
57611W        W22596  44.904  35.603  11.113
57612W        W22597  40.001  40.273  12.976
57613W        W22598   0.942   5.406   4.139
57614W        W22599   3.994  34.066   1.076
57615W        W22600  30.277  26.932   3.285
57616W        W22601   3.912   8.428  12.309
57617W        W22602   7.799  15.112   2.162
57618W        W22603  27.366   4.786  14.353
57619W        W22604  14.898   2.958   4.129
57620W        W22605   3.988  32.564  10.699
57621W        W22606   2.306  38.118  12.569
57622W        W22607  10.176  34.893  11.673
57623W        W22608  32.678  11.905   0.341
57624W        W22609  27.897  25.532   3.159
57625W        W22610  16.142  36.524  12.437
57626W        W22611   2.195   1.525  12.037
57627W        W22612   7.446  21.634  12.455
57628W        W22613  17.908  35.138   1.829
57629W        W22614  29.537   5.946   4.069
57630W        W22615   3.716  27.512  13.369
57631W        W22616  12.204  29.928  12.467
57632W        W22617  26.086  28.192   3.563
57633W        W22618   1.809  25.058  10.658
57634W        W22619  10.261   0.836  14.821
57635W        W22620  41.566  26.307  10.292
57636W        W22621  20.767  29.522   1.808
57637W        W22622  32.809  32.376   2.676
57638W        W22623  38.004  36.331   5.123
57639W        W22624  31.433   0.801  13.985
57640W        W22625  32.954  25.067  10.954
57641W        W22626  26.008  16.037  11.098
57642W        W22627  28.964  35.110  14.443
57643W        W22628  17.639  44.773   4.224
57644W        W22629  25.136  29.700  14.562
57645W        W22630   1.480  36.014  11.073
57646W        W22631  12.141   1.936   4.586
57647W        W22632  43.593  28.170  13.424
57648W        W22633   9.908   3.230   4.163
57649W        W22634   9.808  25.715   4.170
57650W        W22635  16.671  33.476  11.071
57651W        W22636   3.023  20.600   0.332
57652W        W22637  12.134  37.287  14.904
57653W        W22638  30.685   8.049   2.674
57654W        W22639  14.664   3.388   0.346
57655W        W22640  31.687  41.449   0.802
57656W        W22641  23.150  44.971  13.316
57657W        W22642  34.054  43.459  12.876
57658W        W22643  13.656  21.535   0.389
57659W        W22644  27.909   8.423  12.530
57660W        W22645   9.680  13.963   4.608
57661W        W22646  26.533  10.320   3.616
57662W        W22647  25.007  25.182   3.664
57663W        W22648   9.596  17.149   1.395
57664W        W22649   9.115  38.564   2.217
57665W        W22650  15.149   8.343  11.091
57666W        W22651  35.432  33.124  10.737
57667W        W22652  44.995  21.112  11.259
57668W        W22653  43.426  17.707   2.251
57669W        W22654   5.451  18.343   1.433
57670W        W22655  20.495  31.359  12.581
57671W        W22656  27.983   4.872  10.268
57672W        W22657  41.318  26.888   2.661
57673W        W22658  10.364  40.464   3.058
57674W        W22659  27.526  31.975   1.433
57675W        W22660   0.880  19.416  11.980
57676W        W22661  20.275  36.025  13.274
57677W        W22662  34.620  44.774  11.730
57678W        W22663  30.536  40.734  14.070
57679W        W22664   5.739  20.528   4.736
57680W        W22665  27.707  27.147   1.224
57681W        W22666  32.319  41.821  10.890
57682W        W22667  29.648  40.004   3.657
57683W        W22668  42.483  10.581  13.850
57684W        W22669   6.207  10.860  12.075
57685W        W22670  29.975  11.374   0.269
57686W        W22671  29.019   7.467   4.481
57687W        W22672  11.624  15.058  13.561
57688W        W22673  43.955   1.932  11.781
57689W        W22674  32.565  32.654   0.522
57690W        W22675  28.156  28.593  11.064
57691W        W22676  40.269  11.278   3.616
57692W        W22677  28.224  24.955   1.916
57693W        W22678  27.227  10.212   1.806
57694W        W22679  21.583  40.758  12.003
57695W        W22680  33.743  40.826   4.528
57696W        W22681  44.216  40.562  13.436
57697W        W22682  36.670  21.021  11.038
57698W        W22683  43.201  17.462  13.093
57699W        W22684  19.610  38.487   3.731
57700W        W22685  13.233  41.682   0.362
57701W        W22686  25.037   8.697  11.697
57702W        W22687   9.190  40.629   4.193
57703W        W22688  41.261  19.341   2.168
57704W        W22689   0.919  33.976  12.021
57705W        W22690  36.369  10.910   0.795
57706W        W22691   3.784  31.919  13.469
57707W        W22692   8.371  37.334   1.747
57708W        W22693  30.984  37.607  13.520
57709W        W22694  40.702   7.709   4.556
57710W        W22695   6.807  42.233  14.405
57711W        W22696  22.333  41.016  12.884
57712W        W22697  25.205  21.779  13.488
57713W        W22698  41.429  32.992  14.498
57714W        W22699  40.284   9.270   0.819
57715W        W22700   5.233  23.109  12.836
57716W        W22701  38.075  40.953   3.753
57717W        W22702   4.188  28.400   2.853
57718W        W22703  21.520  35.150   4.944
57719W        W22704  38.968  39.769  11.164
57720W        W22705  21.982  35.594  13.466
57721W        W22706  26.652  42.358  11.679
57722W        W22707  29.240   0.867  11.177
57723W        W22708   6.675   5.346  12.164
57724W        W22709  15.558  30.975  10.700
57725W        W22710  28.608   3.497  13.490
57726W        W22711  35.918  10.110   4.673
57727W        W22712  33.896  14.187  10.489
57728W        W22713  15.587   8.783   2.467
57729W        W22714  32.434  25.150  11.555
57730W        W22715  32.204  20.042  11.148
57731W        W22716   9.695  26.396   4.730
57732W        W22717  24.165  25.467   4.665
57733W        W22718   9.185   1.243  14.057
57734W        W22719  12.846   3.460   1.812
57735W        W22720  13.758  38.535  10.696
57736W        W22721   1.994  36.554  10.688
57737W        W22722  28.636  23.747   4.098
57738W        W22723  30.881  41.371   2.734
57739W        W22724  12.049  35.288   9.990
57740W        W22725  12.078  18.046   3.655
57741W        W22726  22.257   3.778   0.737
57742W        W22727  21.662  22.487   1.852
57743W        W22728   1.846  20.544  13.442
57744W        W22729  37.086  10.622   1.781
57745W        W22730  15.697  29.868  12.083
57746W        W22731  13.886  28.507  12.912
57747W        W22732  24.048  39.440   2.793
57748W        W22733   6.872  14.390  13.049
57749W        W22734   0.298   1.378   3.234
57750W        W22735   6.109   1.916   1.842
57751W        W22736  29.134  12.848   3.619
57752W        W22737  44.450  23.182   5.074
57753W        W22738  29.417  32.779  14.366
57754W        W22739   2.568  31.820   0.152
57755W        W22740  13.149  34.582  13.935
57756W        W22741  36.979  35.154   0.427
57757W        W22742  13.535  16.824  13.777
57758W        W22743  33.681  40.367  10.768
57759W        W22744  29.076   2.772   5.010
57760W        W22745  18.498  27.632  11.038
57761W        W22746  17.115  18.779   3.889
57762W        W22747  12.442   9.942  14.807
57763W        W22748  36.456  19.021  13.468
57764W        W22749  16.534  35.390   3.675
57765W        W22750  15.487  27.035  12.801
57766W        W22751  34.835  26.736   4.375
57767W        W22752  17.171  36.580  11.475
57768W        W22753   4.509  35.519   3.826
57769W        W22754  38.828  34.334   2.404
57770W        W22755  38.763  38.318   3.893
57771W        W22756  42.010  44.222  12.881
57772W        W22757  29.415  19.503  14.444
57773W        W22758  19.672  35.770   4.898
57774W        W22759  19.427  28.102   5.329
57775W        W22760  32.414  18.476   2.297
57776W        W22761  14.326   5.199   1.186
57777W        W22762  24.511  18.599  13.482
57778W        W22763  26.597  28.652  12.905
57779W        W22764  39.237  19.721  12.454
57780W        W22765  22.739   3.084  12.054
57781W        W22766  23.361  18.325  10.946
57782W        W22767   2.848  23.143   1.882
57783W        W22768  17.676  17.158   4.469
57784W        W22769   5.617   0.959  12.157
57785W        W22770  17.360  16.724   4.509
57786W        W22771  27.446  32.496  14.413
57787W        W22772   2.994  22.215  12.480
57788W        W22773  21.494  25.757  11.213
57789W        W22774   4.078   3.242  14.224
57790W        W22775  16.337   2.328  12.319
57791W        W22776  25.531  39.571  11.753
57792W        W22777  16.251  42.980  13.499
57793W        W22778  42.913   6.792  12.325
57794W        W22779   0.465   8.236   0.313
57795W        W22780  26.070  38.854   3.063
57796W        W22781  15.144   3.422  10.718
57797W        W22782  41.467  20.255   1.527
57798W        W22783  43.459  16.270   4.080
57799W        W22784  37.014  43.937   3.615
57800W        W22785  40.911   8.117   4.294
57801W        W22786  10.734  24.199   3.887
57802W        W22787  36.509   7.597  11.206
57803W        W22788  44.582  26.790   5.403
57804W        W22789  18.013  14.256   3.298
57805W        W22790   3.179  10.345   4.261
57806W        W22791  44.451  18.499  10.694
57807W        W22792   2.241  22.573  13.348
57808W        W22793  17.485  36.305   4.143
57809W        W22794  24.047  32.428  13.214
57810W        W22795  16.312  23.499   3.579
57811W        W22796  28.331  36.369   3.166
57812W        W22797  14.766  10.271  11.470
57813W        W22798  32.406  35.322  10.956
57814W        W22799  14.524  38.742   3.778
57815W        W22800  33.361  10.403  12.030
57816W        W22801  10.876   7.130   0.488
57817W        W22802   8.934  15.565  12.038
57818W        W22803  33.928   8.251  13.901
57819W        W22804  12.563  18.319  12.091
57820W        W22805  36.021  22.833   3.693
57821W        W22806  16.215  18.799  14.309
57822W        W22807  36.154   5.628  11.210
57823W        W22808  26.707  14.797   4.183
57824W        W22809  40.344  36.427  12.628
57825W        W22810  39.785   3.558  10.665
57826W        W22811  24.023  14.078  13.843
57827W        W22812  17.046  19.526  14.895
57828W        W22813  41.491  11.171  14.892
57829W        W22814  31.969  26.319  10.314
57830W        W22815  24.270  24.175  12.449
57831W        W22816  29.127   8.909  14.320
57832W        W22817   4.190  18.076  12.657
57833W        W22818  40.994   7.844   0.892
57834W        W22819  30.689  28.968   3.778
57835W        W22820   8.243  36.930   3.698
57836W        W22821  34.397  10.159   1.047
57837W        W22822  23.052  13.361  11.127
57838W        W22823   6.967   7.131  11.988
57839W        W22824  21.284  16.243  10.497
57840W        W22825  36.907  17.277   0.419
57841W        W22826  42.321  42.864  13.038
57842W        W22827  30.369  17.023   1.261
57843W        W22828  43.227  24.383  12.048
57844W        W22829  24.014  24.868   2.852
57845W        W22830   5.657  35.431  13.069
57846W        W22831  17.679  39.943  14.437
57847W        W22832  21.191  15.975   0.725
57848W        W22833  18.562  31.610  14.632
57849W        W22834   4.208   4.083   1.882
57850W        W22835  15.007   1.827  10.750
57851W        W22836  38.839  13.835   9.651
57852W        W22837  15.104  43.523  11.959
57853W        W22838  11.710  27.882  10.782
57854W        W22839  17.334   4.745   3.995
57855W        W22840  28.050   8.417   4.225
57856W        W22841  26.148  37.813  12.859
57857W        W22842   1.090  21.576   3.220
57858W        W22843  37.073  40.781  13.973
57859W        W22844   0.362  16.923   4.637
57860W        W22845  33.215  20.108  10.798
57861W        W22846  43.727   1.880   1.254
57862W        W22847  37.481  42.841   2.594
57863W        W22848   7.261  25.795  11.998
57864W        W22849   7.888  42.040  13.508
57865W        W22850  17.096  43.001  10.578
57866W        W22851  37.558  11.788   2.808
57867W        W22852   7.676  14.657  14.840
57868W        W22853  26.138   9.724  11.992
57869W        W22854  29.542  12.080   3.919
57870W        W22855  36.717   2.815  10.681
57871W        W22856   3.332  13.621   0.928
57872W        W22857  24.244   5.026   4.835
57873W        W22858  34.152  30.548   1.335
57874W        W22859   5.924   7.779  12.986
57875W        W22860  37.024  37.916   2.882
57876W        W22861  24.352  13.230  10.558
57877W        W22862  14.151   8.730  13.007
57878W        W22863  22.281   2.004   0.263
57879W        W22864  24.339  44.028   2.319
57880W        W22865  24.481  32.024   4.203
57881W        W22866  30.940  38.285   2.524
57882W        W22867  20.974  16.083  14.425
57883W        W22868  37.823   2.406  13.983
57884W        W22869  18.071  16.493  12.733
57885W        W22870  44.746   4.622  13.951
57886W        W22871  13.208   4.741   4.474
57887W        W22872  30.075   0.627  14.709
57888W        W22873  25.214  36.826  11.196
57889W        W22874  42.929  37.459   1.759
57890W        W22875  22.737  23.570   3.831
57891W        W22876  11.882  14.638  13.561
57892W        W22877   9.421  26.655  13.355
57893W        W22878  41.996  15.011  11.180
57894W        W22879  27.442  38.454  14.049
57895W        W22880  41.856  26.908   2.637
57896W        W22881   4.362  20.327  13.088
57897W        W22882  26.508   9.404   3.709
57898W        W22883  31.762  33.887  12.186
57899W        W22884   5.708  41.032   0.045
57900W        W22885  13.365  16.585  12.304
57901W        W22886  39.219  24.183  10.720
57902W        W22887  25.621  21.239   1.428
57903W        W22888  43.331   7.092   4.522
57904W        W22889  10.788  42.901  12.938
57905W        W22890  11.086  18.045   2.147
57906W        W22891  24.430  21.740  13.898
57907W        W22892  17.158  31.104   4.264
57908W        W22893  23.480   3.388   0.169
57909W        W22894  14.644  40.196  11.203
57910W        W22895  11.411   9.547   4.551
57911W        W22896  40.483   7.696   2.376
57912W        W22897   8.545  24.358   3.086
57913W        W22898  38.045  21.228  13.924
57914W        W22899   0.909   0.006   2.320
57915W        W22900  15.090  12.697   2.287
57916W        W22901  18.629   1.504   2.358
57917W        W22902  23.031  25.664   0.771
57918W        W22903  31.694  18.080   3.021
57919W        W22904  32.319  28.525   0.822
57920W        W22905   8.676  11.805  10.470
57921W        W22906  31.868  22.833   2.590
57922W        W22907  14.683  15.808  11.955
57923W        W22908  15.842  19.373  10.311
57924W        W22909  42.513  36.966   1.762
57925W        W22910  31.656  15.266  12.395
57926W        W22911  41.837  28.403  14.017
57927W        W22912  42.945  16.049   3.589
57928W        W22913   7.723  12.746  10.743
57929W        W22914  18.280  41.558   0.158
57930W        W22915  40.842   7.322  10.707
57931W        W22916   1.374   5.867   1.170
57932W        W22917  33.409  32.439   1.744
57933W        W22918  19.189  10.649  12.930
57934W        W22919   0.943  14.102   3.206
57935W        W22920  15.629   0.574   2.081
57936W        W22921  20.129  13.570   4.931
57937W        W22922  37.370   8.307  14.772
57938W        W22923   2.228   9.136   1.683
57939W        W22924  38.030  44.403  12.122
57940W        W22925   2.252  32.875  13.979
57941W        W22926  25.235  33.159  13.983
57942W        W22927  36.929  32.109  12.049
57943W        W22928   0.685  44.223  11.239
57944W        W22929  21.144  18.772   1.643
57945W        W22930  21.545  29.538   4.563
57946W        W22931  38.249  37.990  12.976
57947W        W22932  43.449  26.994  12.475
57948W        W22933  13.296   4.471  11.585
57949W        W22934  42.330   7.436   1.794
57950W        W22935  35.256  34.018   4.294
57951W        W22936  30.143  15.024  11.237
57952W        W22937  18.458   1.390  13.749
57953W        W22938  36.061  23.888   0.907
57954W        W22939  20.819  25.123   0.912
57955W        W22940   4.985  35.645   3.983
57956W        W22941  38.695  31.158   4.950
57957W        W22942  40.425   3.643  12.508
57958W        W22943  20.580  21.018   1.880
57959W        W22944  36.978  25.084  14.535
57960W        W22945  14.010  10.060  11.006
57961W        W22946  43.946  32.999  12.949
57962W        W22947  17.204  12.705   2.630
57963W        W22948  37.468  17.286   0.885
57964W        W22949   2.217  12.385   5.033
57965W        W22950   0.805  16.214  11.234
57966W        W22951  13.515  24.546   4.539
57967W        W22952  15.709  32.117   1.313
57968W        W22953  38.625  32.142   2.385
57969W        W22954   5.311  38.659  12.606
57970W        W22955   7.015  36.121  14.522
57971W        W22956  10.252  15.612  10.674
57972W        W22957  27.584   9.216  10.639
57973W        W22958  44.433   4.414   1.902
57974W        W22959  10.537   7.444  14.906
57975W        W22960  38.917  23.189  11.067
57976W        W22961  15.527   9.634   2.291
57977W        W22962  42.472  17.890   2.700
57978W        W22963  16.388   1.164   1.235
57979W        W22964  15.977  37.289  13.260
57980W        W22965  31.089  42.239   2.706
57981W        W22966   2.856  33.815   2.220
57982W        W22967  21.257  31.382   3.355
57983W        W22968  32.889  12.202   0.750
57984W        W22969  44.209   8.238   2.396
57985W        W22970  35.567  24.770  10.582
57986W        W22971  27.087  12.897   3.611
57987W        W22972   1.676  20.614  14.286
57988W        W22973  18.601  12.348  14.029
57989W        W22974   1.008  34.339  13.866
57990W        W22975  10.802  28.975  11.990
57991W        W22976  23.342  15.891  12.994
57992W        W22977  17.719  44.403   1.545
57993W        W22978  10.619  33.341   3.735
57994W        W22979   6.215   4.615   3.725
57995W        W22980  21.140  13.775   1.268
57996W        W22981   2.818  27.681   0.235
57997W        W22982   1.183  34.941   2.592
57998W        W22983  10.454  33.119   4.201
57999W        W22984   9.416   7.538   1.808
58000W        W22985   9.061  15.791  11.575
58001W        W22986   5.195  44.335   3.701
58002W        W22987  38.964  39.081   2.291
58003W        W22988  38.998  15.401  14.914
58004W        W22989   6.616   6.712  11.885
58005W        W22990  34.717  42.526   1.711
58006W        W22991  34.736  15.924  12.925
58007W        W22992   0.796  37.781  12.942
58008W        W22993  22.919  38.769  13.873
58009W        W22994  36.897  35.983  14.143
58010W        W22995   6.770  16.994  11.459
58011W        W22996  31.616  25.725   4.769
58012W        W22997   7.190  36.629  14.690
58013W        W22998  31.090  21.694  12.397
58014W        W22999  14.810  10.301   4.099
58015W        W23000  33.286  30.419   0.941
58016W        W23001  42.331  11.419   3.428
58017W        W23002   6.187  29.981   0.688
58018W        W23003  44.353  31.623  13.583
58019W        W23004   7.380  11.244  12.951
58020W        W23005  22.292  38.281   2.779
58021W        W23006  40.895  43.849   0.450
58022W        W23007  21.547  44.013   1.496
58023W        W23008  42.250   6.266   0.780
58024W        W23009  36.400   1.793   3.187
58025W        W23010  44.260  44.740  11.631
58026W        W23011  42.517  43.442  13.946
58027W        W23012  40.320   2.350   1.235
58028W        W23013  25.973  39.451   0.327
58029W        W23014  21.132  15.825   4.359
58030W        W23015  33.816   1.775  14.523
58031W        W23016  39.302  15.042  14.074
58032W        W23017   4.203  37.098  13.237
58033W        W23018   4.081   0.054   3.381
58034W        W23019  20.142  22.719   3.228
58035W        W23020  19.091  15.122  13.552
58036W        W23021  10.448  38.558   2.234
58037W        W23022   3.332   2.247   2.703
58038W        W23023  34.304   5.810  14.442
58039W        W23024  26.929  21.045   3.683
58040W        W23025  23.281   3.809  10.637
58041W        W23026  43.898  36.521  11.322
58042W        W23027  41.387  44.807  12.505
58043W        W23028  11.791  16.107  14.892
58044W        W23029   9.775  41.467   1.145
58045W        W23030  29.894  20.945   4.193
58046W        W23031  41.809   1.974  13.502
58047W        W23032   3.949  36.028  14.891
58048W        W23033  40.525  20.351  11.449
58049W        W23034   0.431  36.877   1.513
58050W        W23035  17.232  19.854  13.259
58051W        W23036   3.232  23.915   4.992
58052W        W23037  16.214  43.263   0.296
58053W        W23038  34.064  10.374   2.824
58054W        W23039   2.834  42.188   2.315
58055W        W23040   5.515  12.692  11.854
58056W        W23041  11.683  35.363  11.192
58057W        W23042   0.248  17.611  12.957
58058W        W23043  23.982  34.032  14.920
58059W        W23044  20.300  25.499   1.467
58060W        W23045  28.525  18.444   1.363
58061W        W23046  33.463  21.754   2.656
58062W        W23047  36.978  31.573   0.736
58063W        W23048  25.200  42.097  13.637
58064W        W23049  15.642   7.774   1.481
58065W        W23050   7.256  13.364  13.373
58066W        W23051  43.863   1.510   4.831
58067W        W23052   8.623  12.795   1.753
58068W        W23053  41.147   6.856   3.799
58069W        W23054  33.871  44.758   1.742
58070W        W23055  19.286  19.435  12.693
58071W        W23056  16.901   5.991  13.371
58072W        W23057  28.052  31.357   3.192
58073W        W23058   1.166   7.184  12.861
58074W        W23059   7.093  41.336   0.568
58075W        W23060  19.328  44.796   1.552
58076W        W23061  24.627   2.002  12.910
58077W        W23062  14.287  13.702   5.063
58078W        W23063   1.682  30.030  12.952
58079W        W23064  38.367  41.807   1.267
58080W        W23065  10.148  35.380  12.515
58081W        W23066   9.741  37.129   0.776
58082W        W23067  22.378  40.659  12.462
58083W        W23068  14.889  21.515  14.349
58084W        W23069  16.109  30.506   1.442
58085W        W23070  26.223  13.172   3.788
58086W        W23071  21.011   5.796  14.549
58087W        W23072  10.403  23.914   1.160
58088W        W23073  14.653  30.656   0.283
58089W        W23074  14.676  10.911  14.829
58090W        W23075  29.947  31.239   5.510
58091W        W23076  21.218   4.408  10.026
58092W        W23077  30.465  13.272   3.337
58093W        W23078   0.718  29.176   1.741
58094W        W23079  15.117  19.717  13.231
58095W        W23080  40.764   8.295  11.073
58096W        W23081  27.068   7.488   1.385
58097W        W23082  37.990  13.029   2.391
58098W        W23083   4.055  14.663  14.339
58099W        W23084   7.156  41.546   1.449
58100W        W23085   1.274   3.002   4.878
58101W        W23086  24.908  44.752   3.774
58102W        W23087  34.911  25.929  14.869
58103W        W23088  19.957  36.660   0.872
58104W        W23089  23.827  24.702  14.055
58105W        W23090  23.028  22.591   0.211
58106W        W23091  37.108   6.895  13.375
58107W        W23092   2.893   8.892  11.823
58108W        W23093   0.949   8.334   3.723
58109W        W23094  25.956   4.284   4.198
58110W        W23095   7.177  11.641   4.219
58111W        W23096  44.947  16.698  13.052
58112W        W23097  21.966  33.094   2.827
58113W        W23098  16.296  30.638  11.055
58114W        W23099  34.107  43.401   4.817
58115W        W23100  19.164  23.110   2.339
58116W        W23101  16.243  40.529   3.636
58117W        W23102  20.157  42.315   4.535
58118W        W23103   1.201   9.936   0.814
58119W        W23104  18.288   2.486   4.601
58120W        W23105   6.617  28.929  13.904
58121W        W23106   1.249   3.462  10.691
58122W        W23107  38.503  38.145  13.431
58123W        W23108  13.718   9.648   2.692
58124W        W23109  41.933   7.300   0.763
58125W        W23110  27.098   8.986   1.328
58126W        W23111  42.440  41.923  12.810
58127W        W23112  17.539   1.695  14.478
58128W        W23113  28.707   2.190   2.420
58129W        W23114   4.266  14.066   0.886
58130W        W23115   7.291  13.567  14.524
58131W        W23116  12.847  11.763  12.938
58132W        W23117  26.685  44.208   0.030
58133W        W23118  36.868  40.485   4.562
58134W        W23119   0.338  25.077  11.000
58135W        W23120  19.493  12.149   1.715
58136W        W23121  10.147  34.353  13.953
58137W        W23122   0.852  27.331  11.259
58138W        W23123   0.944   6.983   1.853
58139W        W23124  41.816  33.796   0.893
58140W        W23125  10.600  32.035   0.254
58141W        W23126  42.976  39.567   2.716
58142W        W23127  35.947   5.207  14.835
58143W        W23128  24.060   0.965   4.493
58144W        W23129   3.984   1.903  11.212
58145W        W23130  37.346  32.013  10.696
58146W        W23131   6.219  17.742  13.386
58147W        W23132  37.386   1.915   1.247
58148W        W23133  34.888  38.092  14.732
58149W        W23134   2.017   3.294   4.297
58150W        W23135  17.781  44.798   3.363
58151W        W23136  32.037   5.104  12.359
58152W        W23137  30.930  43.388  11.142
58153W        W23138  30.586  43.324   4.904
58154W        W23139  20.249  42.253  12.058
58155W        W23140  16.690  29.769   4.677
58156W        W23141   7.354  19.964   2.171
58157W        W23142   2.881  38.817   2.041
58158W        W23143   9.766  35.084  10.670
58159W        W23144   0.793   8.808  10.237
58160W        W23145  43.109  22.151  10.659
58161W        W23146  22.865  29.686  10.158
58162W        W23147  22.486   6.017  14.117
58163W        W23148  23.007  14.377   2.312
58164W        W23149  34.390  27.985  11.128
58165W        W23150  32.978   6.344  12.463
58166W        W23151   0.331  28.143  11.068
58167W        W23152  23.056  34.908   3.256
58168W        W23153   3.834  19.082   1.287
58169W        W23154  14.444  42.907  10.178
58170W        W23155  31.012  15.266   1.054
58171W        W23156  17.326  21.742   3.206
58172W        W23157  25.260  12.844  14.878
58173W        W23158  32.116  21.934   0.560
58174W        W23159   2.020  11.683   1.421
58175W        W23160  10.732   7.815   2.613
58176W        W23161  42.396  44.762  12.180
58177W        W23162   9.333  31.995  13.717
58178W        W23163  22.451   4.983  11.209
58179W        W23164   6.704  18.289  10.749
58180W        W23165  18.507  42.987   2.825
58181W        W23166   1.165   5.620  10.385
58182W        W23167  42.092  22.168  10.663
58183W        W23168  41.873  17.289   3.567
58184W        W23169  37.399  26.008   0.573
58185W        W23170  41.106  35.580   3.592
58186W        W23171  29.692  36.092   4.672
58187W        W23172  14.316  38.963   4.646
58188W        W23173  27.594  21.162  12.521
58189W        W23174  18.331   4.640   3.581
58190W        W23175  26.952  39.568   0.431
58191W        W23176  19.369   2.746   1.923
58192W        W23177  16.812  31.714  11.014
58193W        W23178  38.424  10.867  11.389
58194W        W23179  36.160   6.026   3.348
58195W        W23180  19.097  23.178  14.435
58196W        W23181  26.414  16.244  14.482
58197W        W23182  12.081   3.709   0.332
58198W        W23183  12.380  31.630  12.765
58199W        W23184   4.218   4.951  11.519
58200W        W23185  23.506  14.772  10.760
58201W        W23186   6.155  22.664   1.849
58202W        W23187  18.826  20.140   0.849
58203W        W23188  21.574  33.757   4.608
58204W        W23189  12.052  26.453   2.390
58205W        W23190  21.233  42.252   4.222
58206W        W23191  33.807  23.695  13.859
58207W        W23192  44.008   7.103  13.711
58208W        W23193   1.813  27.986   1.082
58209W        W23194   0.059  14.182  10.651
58210W        W23195  10.964   8.932   1.720
58211W        W23196  20.476  34.972   4.958
58212W        W23197  16.727  21.680   3.262
58213W        W23198  15.414   6.636   2.482
58214W        W23199  39.835   8.091   0.300
58215W        W23200  15.524  15.233  14.657
58216W        W23201  11.772   9.411   1.631
58217W        W23202  16.744   6.567   5.380
58218W        W23203  43.490  34.139  12.061
58219W        W23204  23.178  17.876  11.097
58220W        W23205  12.657   4.029  13.325
58221W        W23206  32.985  31.683  10.462
58222W        W23207  16.893  36.859  11.926
58223W        W23208  23.269   4.248  14.593
58224W        W23209  35.412  44.442  12.315
58225W        W23210  42.105  22.594   3.319
58226W        W23211  24.538  33.529  13.365
58227W        W23212  37.319  15.276  12.511
58228W        W23213  12.636  42.537   3.557
58229W        W23214  23.458  41.992   4.925
58230W        W23215  20.916   7.157  10.752
58231W        W23216  16.086  23.458  14.310
58232W        W23217  17.327   8.108  12.935
58233W        W23218   0.763  27.019   3.779
58234W        W23219  13.267  33.927   2.066
58235W        W23220  41.477  22.675   1.251
58236W        W23221   3.744   6.402   0.914
58237W        W23222  15.275  24.501  14.920
58238W        W23223  28.807  11.412  12.300
58239W        W23224  14.874  38.323  13.191
58240W        W23225  15.366  15.146   1.282
58241W        W23226  31.629  32.209  14.081
58242W        W23227  11.120  26.876  11.428
58243W        W23228  25.189  14.252   0.268
58244W        W23229  38.132  29.556  12.022
58245W        W23230  44.928  36.735  10.030
58246W        W23231  11.228   1.450  10.991
58247W        W23232  44.791  33.940   4.378
58248W        W23233  25.660   4.988  13.603
58249W        W23234  27.980  14.276   1.341
58250W        W23235   4.229   2.234   2.790
58251W        W23236   9.687  22.294  13.037
58252W        W23237   7.854  21.690  13.844
58253W        W23238  37.388   6.856  11.605
58254W        W23239   5.679  20.628   2.417
58255W        W23240  13.733  24.026  13.362
58256W        W23241  24.615   5.865  10.595
58257W        W23242  44.276  25.621   0.657
58258W        W23243  43.254  33.462   0.730
58259W        W23244  10.123  28.667   2.262
58260W        W23245  21.044   9.371   3.468
58261W        W23246  42.108  26.521   2.930
58262W        W23247  34.196  14.449   2.125
58263W        W23248  23.475  32.199  10.211
58264W        W23249  33.486  40.361   4.563
58265W        W23250  39.348  42.707  14.212
58266W        W23251  24.066  43.978   0.547
58267W        W23252  36.105   0.464   1.515
58268W        W23253  10.814  41.294  13.952
58269W        W23254  35.818  27.505   1.744
58270W        W23255  10.163  32.627   4.529
58271W        W23256  34.435   1.043  11.620
58272W        W23257  34.028  22.002   3.196
58273W        W23258  33.333   3.326   0.826
58274W        W23259  12.860  26.152   3.589
58275W        W23260  23.143   4.788  11.925
58276W        W23261   8.151  42.864   0.906
58277W        W23262  30.510  37.355   1.564
58278W        W23263  29.950  27.344  14.326
58279W        W23264  16.428  21.127   1.349
58280W        W23265  11.274  28.439  11.514
58281W        W23266   2.957  28.754  12.866
58282W        W23267  15.411   0.321  14.441
58283W        W23268  16.000  23.612  11.919
58284W        W23269  40.518  30.595  12.143
58285W        W23270  31.609   7.619  12.188
58286W        W23271   7.250  36.910  12.497
58287W        W23272  42.391  43.253  11.209
58288W        W23273  35.494   4.550   4.769
58289W        W23274   2.266   5.257   2.840
58290W        W23275  38.684   8.820   2.697
58291W        W23276  31.569   1.138  10.721
58292W        W23277  11.802  43.008   0.304
58293W        W23278  34.728  31.273   1.694
58294W        W23279  22.209  34.218  11.957
58295W        W23280   3.661  24.011  14.854
58296W        W23281  38.637  38.956   2.695
58297W        W23282  15.410  16.058  12.528
58298W        W23283  34.578   5.465  11.512
58299W        W23284  25.636  17.163  13.983
58300W        W23285  24.665   6.324  12.838
58301W        W23286  25.312  38.313  12.954
58302W        W23287  36.490   7.448   4.572
58303W        W23288  17.851  13.621  14.996
58304W        W23289  35.085  35.999  10.814
58305W        W23290   6.423  35.529  13.863
58306W        W23291  18.854   1.810   4.480
58307W        W23292  34.302  25.016  14.748
58308W        W23293  36.981  38.581  13.149
58309W        W23294  10.209  14.258   4.602
58310W        W23295  18.239  41.047   4.423
58311W        W23296  22.746  14.610  11.137
58312W        W23297  16.729   7.741  14.388
58313W        W23298  12.687   6.039   0.632
58314W        W23299  23.368   7.633  13.955
58315W        W23300   1.503  14.569  12.530
58316W        W23301  29.500  29.977   1.796
58317W        W23302  35.912  21.542   4.353
58318W        W23303  27.668  24.681   3.243
58319W        W23304  36.826  37.125  12.798
58320W        W23305  35.507  38.495   0.393
58321W        W23306   7.634  36.906   2.277
58322W        W23307  39.378  25.690   1.871
58323W        W23308  39.580  19.353   4.528
58324W        W23309  12.132  35.297   1.333
58325W        W23310  36.089   7.478   1.134
58326W        W23311  12.912  34.016   1.696
58327W        W23312  37.938   1.711   4.135
58328W        W23313  40.978   8.697   1.819
58329W        W23314  43.034  30.654  11.092
58330W        W23315  34.961   6.189  14.055
58331W        W23316  24.309  34.329   1.817
58332W        W23317  20.991  16.650   0.260
58333W        W23318  36.133  34.960  10.526
58334W        W23319  13.221  15.607  11.874
58335W        W23320   7.640   8.277  14.297
58336W        W23321  22.190  11.043   1.250
58337W        W23322  40.451  24.168  13.485
58338W        W23323  21.505  24.593   4.405
58339W        W23324  25.402   6.724  14.314
58340W        W23325   0.694  39.509  13.429
58341W        W23326  29.117  15.524  13.844
58342W        W23327   9.207   8.400   2.147
58343W        W23328  22.244   9.459  13.090
58344W        W23329  37.030  25.487   2.173
58345W        W23330   3.832  22.772  13.778
58346W        W23331  33.436  20.317  13.432
58347W        W23332   5.908  31.857   3.854
58348W        W23333  10.380   0.784  11.911
58349W        W23334  31.534  37.757  14.457
58350W        W23335  21.076  37.728   3.305
58351W        W23336  14.089  21.577   1.367
58352W        W23337   0.168  40.882   0.756
58353W        W23338  17.524  44.573  14.990
58354W        W23339  23.671   2.767  13.439
58355W        W23340  36.516  32.124  11.476
58356W        W23341  20.270  33.750   2.680
58357W        W23342  39.932   6.521   3.783
58358W        W23343   3.701  26.868   0.321
58359W        W23344  20.745   9.196   3.849
58360W        W23345  36.505  30.145   3.710
58361W        W23346  14.826  35.924   4.617
58362W        W23347   8.653  13.690  12.006
58363W        W23348  26.607  30.440   2.388
58364W        W23349   0.485  33.538  13.777
58365W        W23350  15.676  14.238   4.678
58366W        W23351  33.507  10.831   2.302
58367W        W23352  24.673  28.166  12.977
58368W        W23353  10.742  44.376  10.569
58369W        W23354   7.156  33.129  14.052
58370W        W23355  38.492  17.709  11.676
58371W        W23356   4.761  24.049   2.363
58372W        W23357  21.100  32.396   0.905
58373W        W23358   0.982  33.345   2.391
58374W        W23359  17.201   8.552   1.369
58375W        W23360  43.589  35.010  14.843
58376W        W23361  22.180  35.783  13.918
58377W        W23362  27.913  12.352  14.325
58378W        W23363   2.896  40.290  11.842
58379W        W23364  38.348  37.001   2.490
58380W        W23365   2.401  16.151   1.531
58381W        W23366  24.249  32.978   2.814
58382W        W23367   6.655   6.220  12.070
58383W        W23368  40.117  31.600  12.976
58384W        W23369  27.087  35.074   1.289
58385W        W23370  25.559  18.386  10.810
58386W        W23371  32.169  12.363   1.971
58387W        W23372  41.029  28.638  11.505
58388W        W23373  23.930  31.037   1.659
58389W        W23374  26.194  19.560  10.460
58390W        W23375  31.944  28.880  14.397
58391W        W23376   8.758  43.547   2.193
58392W        W23377  33.689  15.600  10.750
58393W        W23378  13.311   5.141  12.164
58394W        W23379  12.668  42.247  11.615
58395W        W23380  24.543   0.791   4.966
58396W        W23381  31.548   8.595  10.656
58397W        W23382  42.567  18.969  12.900
58398W        W23383  41.831  18.229  12.933
58399W        W23384  15.664  33.458   4.683
58400W        W23385  33.098   2.541  14.576
58401W        W23386  43.080  34.323  10.363
58402W        W23387  29.666   2.825   2.920
58403W        W23388   8.942  16.676  12.995
58404W        W23389   1.932  38.364   1.959
58405W        W23390  11.315  40.323   4.668
58406W        W23391  29.103  32.909  14.792
58407W        W23392  31.111  31.602   3.322
58408W        W23393   5.892  11.905  12.225
58409W        W23394  15.671  13.942  14.297
58410W        W23395   2.317   7.472   4.574
58411W        W23396  16.231   9.953   2.793
58412W        W23397  18.550   6.560   2.429
58413W        W23398   4.008  40.747  11.135
58414W        W23399  28.696  22.608   0.745
58415W        W23400  23.557  35.182  14.992
58416W        W23401  30.115  18.053   3.296
58417W        W23402  32.346  34.474  13.067
58418W        W23403   3.868  26.452   3.798
58419W        W23404  32.536   8.906  13.165
58420W        W23405  38.267  24.793  11.187
58421W        W23406  44.447  36.854   3.747
58422W        W23407  13.587   4.892   2.733
58423W        W23408  10.036  34.521  13.491
58424W        W23409   9.204  26.569  12.884
58425W        W23410  39.562   5.333  10.250
58426W        W23411  31.684  41.697   3.887
58427W        W23412   0.134   2.219  11.083
58428W        W23413  23.496  37.933  14.011
58429W        W23414  28.526  21.063  14.010
58430W        W23415  23.067   6.183  10.963
58431W        W23416  42.484  33.620   2.269
58432W        W23417   6.153   4.695  12.914
58433W        W23418  12.871  38.593  11.136
58434W        W23419  32.042  17.369  10.797
58435W        W23420  16.570  29.198  13.094
58436W        W23421  43.966  35.468   2.458
58437W        W23422  27.649  25.416   3.598
58438W        W23423  14.286  21.268  11.406
58439W        W23424   4.468  11.757  10.675
58440W        W23425  32.451   4.933   1.918
58441W        W23426   8.625   1.054  14.240
58442W        W23427  33.082   5.151   0.779
58443W        W23428  30.534  30.357  12.929
58444W        W23429  33.051  37.036   0.242
58445W        W23430  40.442  12.596  10.583
58446W        W23431   2.279   4.358  11.664
58447W        W23432  27.537  41.285  12.953
58448W        W23433  25.539  32.474   0.323
58449W        W23434  43.334   3.664   2.039
58450W        W23435  37.111  18.994  13.125
58451W        W23436   7.803   1.843  13.143
58452W        W23437  33.242  18.931  12.921
58453W        W23438  38.353   2.035   3.965
58454W        W23439  22.002  25.465   3.701
58455W        W23440  39.340  33.584   2.406
58456W        W23441  11.190   4.095  11.369
58457W        W23442  40.122  38.338  14.443
58458W        W23443  29.688  38.233  11.139
58459W        W23444  23.716  20.701  12.460
58460W        W23445   3.235  18.235  11.601
58461W        W23446   8.898  11.856  12.118
58462W        W23447  18.180  39.275   2.161
58463W        W23448  32.614  27.622   0.898
58464W        W23449  27.103  22.005   1.608
58465W        W23450  41.019  19.557   1.688
58466W        W23451  19.331  14.777  12.221
58467W        W23452  40.784   3.481  14.067
58468W        W23453  39.410  41.662   4.341
58469W        W23454   7.389  23.812  11.824
58470W        W23455  44.493  27.119   1.845
58471W        W23456  24.121  11.732   2.267
58472W        W23457  21.661  36.527   4.631
58473W        W23458  43.841  29.956  13.036
58474W        W23459  23.923  14.040  14.771
58475W        W23460  13.738  28.942  10.749
58476W        W23461  19.440  34.919  10.870
58477W        W23462  19.373   6.040  12.739
58478W        W23463  20.596  21.991  13.170
58479W        W23464  17.657  36.478  13.544
58480W        W23465  14.784  23.302   5.168
58481W        W23466   6.270  12.132   1.582
58482W        W23467  16.093   8.357   3.208
58483W        W23468   5.235  42.493   4.944
58484W        W23469  31.975  13.256   4.255
58485W        W23470   6.448  15.197   5.005
58486W        W23471  41.479  12.886   1.751
58487W        W23472   9.747  44.708   1.467
58488W        W23473  11.784  29.103   1.342
58489W        W23474   6.815  32.615   2.604
58490W        W23475  35.987   9.878  12.077
58491W        W23476  35.622  38.427  14.318
58492W        W23477   7.895   4.710  14.821
58493W        W23478  32.337  28.522  10.408
58494W        W23479  29.736  13.073   5.032
58495W        W23480  26.058  18.300  12.828
58496W        W23481   0.460  16.021  11.961
58497W        W23482  35.395  15.660  13.505
58498W        W23483  36.548  36.266  13.864
58499W        W23484   0.301  36.062   0.490
58500W        W23485  13.265  19.780   1.430
58501W        W23486  10.581  34.050   4.738
58502W        W23487  15.321  36.577   0.895
58503W        W23488  35.763  44.109   4.165
58504W        W23489  10.842   1.648   4.522
58505W        W23490  18.758  17.090  13.579
58506W        W23491  17.360  28.286   3.736
58507W        W23492  35.322  37.616  10.567
58508W        W23493   7.368  28.860  12.177
58509W        W23494   1.996   2.458   4.978
58510W        W23495  21.443  37.846   4.059
58511W        W23496  19.654  13.018   1.784
58512W        W23497   2.135   9.722   2.850
58513W        W23498  43.037   8.356  14.432
58514W        W23499  32.386  24.591  13.038
58515W        W23500   0.954  23.486  14.437
58516W        W23501  33.965  41.558   0.000
58517W        W23502  33.967   4.905   4.215
58518W        W23503  38.057  37.335  11.396
58519W        W23504  20.551  32.681  11.194
58520W        W23505  22.751  20.563  12.104
58521W        W23506  44.523  15.134   5.037
58522W        W23507  40.470  10.619  10.847
58523W        W23508  40.530  20.862  10.162
58524W        W23509  10.057  18.686  14.845
58525W        W23510  10.677  19.724   3.287
58526W        W23511  33.965  33.899  13.786
58527W        W23512  13.551  29.613  13.909
58528W        W23513  23.876   7.854   2.108
58529W        W23514  32.357  15.718   4.512
58530W        W23515  41.226   1.803   4.946
58531W        W23516  16.295  20.165  12.033
58532W        W23517   8.198  15.024   1.592
58533W        W23518   2.782   8.639  14.458
58534W        W23519  43.575  32.873   5.034
58535W        W23520  21.080   0.563  14.893
58536W        W23521  44.486  30.049  10.383
58537W        W23522  38.122  19.852  11.109
58538W        W23523  15.124  15.148   3.818
58539W        W23524  19.241  36.962  10.768
58540W        W23525  20.647  10.809  14.801
58541W        W23526   7.719  23.983   3.135
58542W        W23527  40.130  26.620  11.259
58543W        W23528  41.255  20.519  14.351
58544W        W23529  13.957  34.556  12.473
58545W        W23530   1.520  14.264   2.856
58546W        W23531  10.098   7.126   4.166
58547W        W23532  35.760  34.478   2.910
58548W        W23533  20.508  44.878  10.751
58549W        W23534  32.502  12.567  12.400
58550W        W23535  30.753  38.490  11.036
58551W        W23536  38.788  33.415  13.413
58552W        W23537  36.956  23.087  11.628
58553W        W23538  38.053  25.096   1.505
58554W        W23539   3.746   7.690  14.405
58555W        W23540  42.252  28.290   9.943
58556W        W23541  36.989  21.477  12.139
58557W        W23542  25.780   6.659  11.544
58558W        W23543   8.842  21.103  13.417
58559W        W23544  25.713  10.905  11.152
58560W        W23545  21.035  16.579  11.711
58561W        W23546  21.503  30.155  11.597
58562W        W23547  18.667   2.256  13.915
58563W        W23548  18.341   9.881   1.815
58564W        W23549  37.262  43.042  12.123
58565W        W23550  23.277  34.207  12.298
58566W        W23551  26.901  21.689  13.699
58567W        W23552  11.810   4.898   1.736
58568W        W23553   6.525  17.318   2.750
58569W        W23554   7.749   0.392   2.158
58570W        W23555  19.005  10.641  11.981
58571W        W23556   9.624  36.476   4.630
58572W        W23557  11.158  22.232  12.646
58573W        W23558  42.511  25.524  12.150
58574W        W23559   0.805  44.946  13.415
58575W        W23560  39.435  11.223  13.004
58576W        W23561  12.707  25.516  12.588
58577W        W23562  35.327  31.955   0.347
58578W        W23563  20.077  24.126  11.105
58579W        W23564  22.539   8.426  12.566
58580W        W23565  21.036  13.124  10.664
58581W        W23566  13.792  32.690  13.347
58582W        W23567  15.068  39.097  10.579
58583W        W23568  44.321  42.659  12.929
58584W        W23569  27.443  29.988  12.274
58585W        W23570  12.098  23.748  14.858
58586W        W23571  44.009  42.923   1.249
58587W        W23572  39.276   5.942   1.902
58588W        W23573   1.777  44.724   0.300
58589W        W23574   4.399  26.095   0.359
58590W        W23575  33.296   6.622   2.305
58591W        W23576   8.458  42.942   4.798
58592W        W23577  35.588  25.627   4.576
58593W        W23578  19.596  43.945   3.682
58594W        W23579  24.457   2.594   2.921
58595W        W23580  31.588   8.669  12.160
58596W        W23581   2.883   0.991  12.569
58597W        W23582   9.117  31.820   2.838
58598W        W23583  19.606  11.166   1.848
58599W        W23584  24.883  23.010   1.823
58600W        W23585  18.857   8.401  11.578
58601W        W23586  16.559  19.168   0.226
58602W        W23587  40.174  15.256  14.017
58603W        W23588  40.837  19.791  11.677
58604W        W23589   8.040  16.496   1.526
58605W        W23590   4.358  29.598   3.717
58606W        W23591  15.568  17.101  12.246
58607W        W23592  20.719  41.324  12.570
58608W        W23593  44.903  16.556  10.661
58609W        W23594   0.577  28.654   4.475
58610W        W23595  31.719  12.073  11.424
58611W        W23596  28.991   6.836  10.598
58612W        W23597  13.707   4.440  11.907
58613W        W23598  20.780  22.568  14.838
58614W        W23599  23.391  36.066  11.183
58615W        W23600   0.733  29.062   0.868
58616W        W23601  21.636  18.771  12.225
58617W        W23602  25.220  19.068  12.488
58618W        W23603  24.992   9.526   1.909
58619W        W23604   5.415   2.996  10.716
58620W        W23605  13.804  11.663  13.880
58621W        W23606  31.145  20.529   4.468
58622W        W23607  42.034   1.515   1.761
58623W        W23608  39.576  29.935   4.674
58624W        W23609  16.271  24.181   3.143
58625W        W23610   8.211   3.393  14.427
58626W        W23611   6.493   8.802   0.770
58627W        W23612   8.618  39.457  10.453
58628W        W23613  11.206  11.928  12.554
58629W        W23614   2.974  20.877  14.884
58630W        W23615  25.022  34.177  14.776
58631W        W23616  15.982   1.304   2.605
58632W        W23617  11.252   1.220  13.602
58633W        W23618   3.855   1.901   4.633
58634W        W23619  22.071  12.338  12.848
58635W        W23620  14.179  37.619   1.872
58636W        W23621   2.923   6.828  11.548
58637W        W23622   1.879  25.191   3.585
58638W        W23623   7.376  19.651  14.078
58639W        W23624  17.878  22.066  13.035
58640W        W23625   6.916  19.181   1.856
58641W        W23626  39.244   7.323   1.087
58642W        W23627  10.761  43.821   2.614
58643W        W23628  42.272   2.301  13.858
58644W        W23629  37.382  27.444   2.166
58645W        W23630   6.159   8.387  14.490
58646W        W23631  36.515   5.477  14.481
58647W        W23632  25.973  25.487  12.586
58648W        W23633   4.700  10.216   2.199
58649W        W23634  32.290  22.006  10.923
58650W        W23635  32.933  41.856  12.566
58651W        W23636  35.815  16.203   2.471
58652W        W23637  32.015  30.199   2.826
58653W        W23638  10.209  10.482  14.320
58654W        W23639  24.955  39.368  12.510
58655W        W23640  41.958  39.781   2.296
58656W        W23641  19.718  34.397   2.319
58657W        W23642  36.346  40.897  10.659
58658W        W23643  16.195  19.552   0.266
58659W        W23644  43.704  41.450  14.930
58660W        W23645  15.637  22.417   3.795
58661W        W23646  37.302  42.680  10.038
58662W        W23647  43.362  24.316  14.258
58663W        W23648  13.271  43.528  13.897
58664W        W23649  23.921  33.972   3.622
58665W        W23650  24.476  27.572  11.664
58666W        W23651  37.798  20.549   0.317
58667W        W23652  37.135  26.592  12.524
58668W        W23653  34.488   7.071  12.344
58669W        W23654  30.258  38.541  14.280
58670W        W23655  36.399  24.778   1.829
58671W        W23656  20.672  34.143  14.257
58672W        W23657  41.253  23.575  13.101
58673W        W23658  38.394  40.778   4.539
58674W        W23659  19.645   4.739   4.509
58675W        W23660  29.266  14.323   0.265
58676W        W23661  25.069  26.537   1.630
58677W        W23662   9.632  35.382  11.260
58678W        W23663  25.969   4.603  13.744
58679W        W23664  21.266  25.239  14.960
58680W        W23665  36.489  32.222  10.965
58681W        W23666   2.202  22.019  10.813
58682W        W23667  10.055  12.958   4.614
58683W        W23668  40.402  14.791  14.018
58684W        W23669   1.894  25.950   1.720
58685W        W23670  14.307  38.326   0.214
58686W        W23671   4.003  25.470   0.582
58687W        W23672  16.594  23.240  11.439
58688W        W23673  24.133  44.870  12.095
58689W        W23674  23.523  29.903  10.813
58690W        W23675  28.403  37.411  14.978
58691W        W23676  43.001  23.151  12.935
58692W        W23677  16.589  22.698   1.570
58693W        W23678  24.147   7.668  10.792
58694W        W23679  37.717  28.934   1.512
58695W        W23680  26.888   7.322   5.053
58696W        W23681  29.870  16.209   3.178
58697W        W23682  23.545  12.687   0.844
58698W        W23683   8.740   3.455   0.405
58699W        W23684  39.842   7.366   4.672
58700W        W23685  19.348  21.805  11.969
58701W        W23686  25.621  33.803  10.422
58702W        W23687  42.251  42.048  11.714
58703W        W23688  26.597  42.561  11.205
58704W        W23689  44.940  38.059  11.468
58705W        W23690  14.249  44.420   3.176
58706W        W23691  23.864  20.579  10.284
58707W        W23692   3.766  32.926  13.023
58708W        W23693   3.505  15.519   4.139
58709W        W23694   6.784  10.666  13.474
58710W        W23695  22.055  33.821  11.163
58711W        W23696   5.359  43.074   9.345
58712W        W23697   0.970  23.293  12.521
58713W        W23698  15.471   6.393  14.779
58714W        W23699   9.201   4.706   0.370
58715W        W23700   3.152  19.998  14.487
58716W        W23701  11.140  34.148   3.928
58717W        W23702  43.840  30.494  13.105
58718W        W23703  23.562  20.125  13.604
58719W        W23704   5.971  22.190   0.759
58720W        W23705  13.435  22.133  13.742
58721W        W23706  32.165  28.708   3.095
58722W        W23707  30.771  14.063   0.218
58723W        W23708  28.468   3.137  14.772
58724W        W23709   7.652  18.935   2.858
58725W        W23710  18.652  17.202   4.422
58726W        W23711  14.289   3.294   2.072
58727W        W23712   1.450  43.757  12.414
58728W        W23713   0.090  28.973  12.450
58729W        W23714  33.697  23.294   1.372
58730W        W23715  15.656   1.857   0.082
58731W        W23716  20.061  22.995   1.860
58732W        W23717  23.928  20.792   0.018
58733W        W23718  19.039  32.970  13.889
58734W        W23719  41.877  18.330   4.596
58735W        W23720   6.842   3.442   1.508
58736W        W23721  10.659  13.585   0.888
58737W        W23722  30.862  32.497  13.311
58738W        W23723  29.878  17.302   1.728
58739W        W23724  20.616  43.028  14.075
58740W        W23725   7.279   1.689  10.465
58741W        W23726  41.920  12.816  11.036
58742W        W23727  17.130  41.811   3.815
58743W        W23728  35.118   7.239   0.931
58744W        W23729   5.758   5.410  14.226
58745W        W23730  34.223  34.894  11.664
58746W        W23731  16.149   6.272   3.446
58747W        W23732  14.022  30.552  13.897
58748W        W23733   2.260  24.202   4.044
58749W        W23734  13.705  42.252   1.942
58750W        W23735  13.236  16.615  12.948
58751W        W23736  17.996  32.964  11.154
58752W        W23737   9.355  32.502  13.889
58753W        W23738  43.331   3.104   2.180
58754W        W23739  12.714  18.107  13.400
58755W        W23740  18.745  14.733   3.355
58756W        W23741  44.824  32.909   0.839
58757W        W23742  43.326  24.527  12.765
58758W        W23743   6.376   4.952  12.504
58759W        W23744  29.018  10.911   2.354
58760W        W23745  21.466  14.867  10.705
58761W        W23746   1.313  20.654  13.511
58762W        W23747  27.932  15.107   2.937
58763W        W23748  32.906  30.242  13.416
58764W        W23749  38.743  15.659  10.527
58765W        W23750   4.997  28.043  10.453
58766W        W23751  16.774  24.123   3.060
58767W        W23752  43.267   8.298   4.627
58768W        W23753   5.287  36.600  10.366
58769W        W23754  24.243  28.606  13.658
58770W        W23755   8.724  35.859  14.601
58771W        W23756  18.601  19.920  12.630
58772W        W23757  19.269  34.175   2.213
58773W        W23758  17.495  20.240  11.113
58774W        W23759  37.057  20.193  14.722
58775W        W23760  32.227  15.260  11.570
58776W        W23761  14.229  37.258   0.974
58777W        W23762  14.125  31.996  11.506
58778W        W23763  19.059  41.450   4.009
58779W        W23764   5.475  11.690  10.922
58780W        W23765  20.301  42.078  13.011
58781W        W23766  27.554   9.801  13.896
58782W        W23767   1.246  32.196   1.223
58783W        W23768  44.191  28.780  12.791
58784W        W23769   8.647  14.831   1.754
58785W        W23770  26.388  22.621  12.535
58786W        W23771  19.662  39.610   3.199
58787W        W23772  43.812  28.830  10.677
58788W        W23773  23.658   5.650  14.351
58789W        W23774  40.933  21.554  12.852
58790W        W23775  44.613  38.622  14.929
58791W        W23776  17.359  32.013  12.339
58792W        W23777  37.120  39.335   0.515
58793W        W23778   2.465  44.213   3.289
58794W        W23779  23.793  10.226   2.921
58795W        W23780  12.606  26.405   4.399
58796W        W23781  38.736  20.492   4.269
58797W        W23782  32.653  30.574   1.303
58798W        W23783  32.266   7.427   4.733
58799W        W23784  23.472  21.205  11.716
58800W        W23785  38.793  17.061   3.157
58801W        W23786   0.441  14.069  12.866
58802W        W23787  38.945  42.704  10.590
58803W        W23788   3.797  31.567  14.375
58804W        W23789  24.708  14.738   2.335
58805W        W23790  20.748  18.562  14.090
58806W        W23791  38.377  38.271   4.225
58807W        W23792  13.368  34.314   2.400
58808W        W23793  42.772  17.410  13.431
58809W        W23794  33.942  16.122  12.267
58810W        W23795  35.640  42.333   0.915
58811W        W23796   6.429  38.486  11.854
58812W        W23797   4.675  12.816   1.948
58813W        W23798  10.567  15.642  11.882
58814W        W23799  31.595  26.637   0.236
58815W        W23800  11.970  28.954  11.243
58816W        W23801  36.064  25.652  11.563
58817W        W23802  11.124  20.198  14.051
58818W        W23803   6.996  22.149   0.793
58819W        W23804  42.074   5.262   1.890
58820W        W23805  30.539  34.432  13.339
58821W        W23806   2.841  38.336   1.729
58822W        W23807  33.999  37.910  14.002
58823W        W23808  10.921   5.801   1.209
58824W        W23809  29.279  21.338  10.857
58825W        W23810  39.795  42.643  12.332
58826W        W23811  37.829   0.315   5.241
58827W        W23812   4.917  32.466  13.320
58828W        W23813  38.506  14.792   1.533
58829W        W23814  35.790   9.311   3.079
58830W        W23815  23.158   0.247   0.301
58831W        W23816  36.162   5.187  11.461
58832W        W23817  18.098  23.666   0.203
58833W        W23818  34.853  37.826   1.883
58834W        W23819   3.459  27.988   3.122
58835W        W23820   6.270  39.374   2.809
58836W        W23821  28.088  39.168   9.973
58837W        W23822  19.781  43.418   4.299
58838W        W23823  33.838  26.159   3.385
58839W        W23824  25.749  13.741  13.863
58840W        W23825  33.315  44.440   3.347
58841W        W23826  28.376  36.989   4.530
58842W        W23827  14.396  13.298   0.874
58843W        W23828  14.900  25.549   1.895
58844W        W23829   0.273   8.457  14.865
58845W        W23830   5.627  43.235  13.574
58846W        W23831  32.452   8.940  11.610
58847W        W23832  24.877   3.968  12.926
58848W        W23833  15.953   4.563   5.395
58849W        W23834  38.513  33.236   5.046
58850W        W23835  26.457  42.374  14.988
58851W        W23836  44.472  28.373   5.481
58852W        W23837  29.187  42.756   0.831
58853W        W23838  35.637  43.770   3.812
58854W        W23839  43.289  14.288  14.489
58855W        W23840  14.699  27.409  14.430
58856W        W23841   6.696  41.905  10.709
58857W        W23842  29.928  36.015   0.309
58858W        W23843  44.393  26.284   5.401
58859W        W23844  15.256  17.156   1.412
58860W        W23845  42.541   8.278   3.823
58861W        W23846  13.624  28.512   1.230
58862W        W23847  14.711  41.018   0.310
58863W        W23848  17.484  33.053  11.308
58864W        W23849  20.130  34.421  14.985
58865W        W23850  14.529   9.319   4.563
58866W        W23851  27.149   7.449  11.093
58867W        W23852   6.705   0.783  13.075
58868W        W23853   6.817  40.565   0.262
58869W        W23854   0.451  33.406  13.259
58870W        W23855  19.792  15.440   0.907
58871W        W23856  38.774  34.427  14.389
58872W        W23857  35.560  43.941   4.734
58873W        W23858  20.827  31.054  12.844
58874W        W23859  22.134   3.383   1.374
58875W        W23860   5.187  34.749  14.231
58876W        W23861  27.439  33.807   4.903
58877W        W23862   2.623  43.520  12.988
58878W        W23863  24.634  25.623  10.787
58879W        W23864  31.865  42.602   0.191
58880W        W23865  36.262   2.660  14.486
58881W        W23866   2.743  42.963  13.918
58882W        W23867  26.763  41.934   3.817
58883W        W23868  12.841  30.628   0.413
58884W        W23869  14.539  17.922   4.978
58885W        W23870  30.191   8.050   1.870
58886W        W23871   9.791   2.835  12.818
58887W        W23872  44.207  30.511  12.403
58888W        W23873  36.393  17.755  12.669
58889W        W23874  20.264  44.317   0.738
58890W        W23875   0.773  23.846   4.213
58891W        W23876  33.964  29.803  11.271
58892W        W23877  23.950  42.996  14.627
58893W        W23878  37.289  33.077  10.679
58894W        W23879  20.163  11.618  10.798
58895W        W23880  28.711  13.647  12.556
58896W        W23881  34.529  15.231  12.099
58897W        W23882  25.497  36.169   3.315
58898W        W23883  44.035   8.808   4.612
58899W        W23884  34.303   6.842  13.702
58900W        W23885  23.134  41.283  12.514
58901W        W23886   6.313  30.395  13.026
58902W        W23887  14.096  36.447  12.495
58903W        W23888  17.667  25.383  14.792
58904W        W23889  22.688  44.616   4.397
58905W        W23890   2.806  19.231  14.076
58906W        W23891  31.111  12.550   2.809
58907W        W23892  28.654  37.391   2.691
58908W        W23893  26.058  20.528  11.385
58909W        W23894  36.234   9.111   2.165
58910W        W23895  24.527  35.850  14.511
58911W        W23896  39.541  22.878   3.193
58912W        W23897  25.877   5.972   9.790
58913W        W23898   4.789  16.588   0.949
58914W        W23899  27.522  26.411  11.128
58915W        W23900   7.909  19.492   0.468
58916W        W23901  20.322  23.052   0.303
58917W        W23902  23.662  31.468  13.190
58918W        W23903  30.980  11.814  11.031
58919W        W23904  29.486   0.014   0.003
58920W        W23905  40.303  10.710   1.013
58921W        W23906  38.836  23.199  13.588
58922W        W23907  19.026   0.932   2.624
58923W        W23908   1.505  35.327   3.787
58924W        W23909   0.930  21.569  14.251
58925W        W23910  17.048   2.734  11.275
58926W        W23911   9.945  12.804  12.671
58927W        W23912  33.916  28.130   3.852
58928W        W23913   4.398  34.690   1.505
58929W        W23914  17.794  18.227  11.768
58930W        W23915  33.543  24.103  14.862
58931W        W23916   4.872   5.842  11.240
58932W        W23917  10.547  36.969   3.674
58933W        W23918  30.384  30.319   2.375
58934W        W23919  32.605   5.886  10.517
58935W        W23920  41.483  12.410  11.581
58936W        W23921  17.347  35.312   1.873
58937W        W23922  28.092  16.509   1.809
58938W        W23923  11.346  10.291   2.790
58939W        W23924  37.033   6.150  11.152
58940W        W23925  10.819  21.025  13.862
58941W        W23926   8.675  44.030  13.864
58942W        W23927  22.780  31.432   2.872
58943W        W23928  26.514  29.440  13.939
58944W        W23929  28.642  35.452   3.772
58945W        W23930  30.246  36.995  11.097
58946W        W23931  27.057  26.962   4.714
58947W        W23932  20.204  39.577  13.470
58948W        W23933  10.843   0.240   4.171
58949W        W23934  38.076  29.117   4.127
58950W        W23935  20.649  41.141  12.081
58951W        W23936  10.695   0.157   2.278
58952W        W23937  16.627   1.646  12.847
58953W        W23938  41.290  23.298  14.045
58954W        W23939  35.362  25.222  10.698
58955W        W23940  16.596  30.117   5.065
58956W        W23941  19.463  15.703   1.264
58957W        W23942   7.231  20.293   2.599
58958W        W23943  17.496  41.737   4.580
58959W        W23944  37.283  39.557  10.928
58960W        W23945  23.249  12.776   1.420
58961W        W23946  14.730   4.742   0.260
58962W        W23947  26.783  27.474   4.579
58963W        W23948  18.118  25.248  14.609
58964W        W23949   8.278  39.048  10.385
58965W        W23950  32.667  22.910  10.616
58966W        W23951  30.281  37.108   2.477
58967W        W23952  42.297   7.906   1.246
58968W        W23953  16.644  14.795   0.254
58969W        W23954  27.435  12.155  14.480
58970W        W23955  25.974  16.183  14.852
58971W        W23956  18.206  28.673  13.337
58972W        W23957  37.790  21.790  12.555
58973W        W23958  37.861  21.125  11.737
58974W        W23959  27.863   6.755   2.436
58975W        W23960  28.457  39.020   3.680
58976W        W23961  42.409  12.298  11.514
58977W        W23962  23.366  13.198  14.839
58978W        W23963  27.538  34.583  11.780
58979W        W23964  27.413  30.015  14.440
58980W        W23965  15.951  23.037   2.348
58981W        W23966  11.051  27.120  14.491
58982W        W23967  32.343  21.612  12.476
58983W        W23968  35.817  15.707   2.661
58984W        W23969  27.407   6.690   0.985
58985W        W23970  32.206  32.628   4.899
58986W        W23971  26.415  31.986  11.566
58987W        W23972  29.418  15.257   0.104
58988W        W23973  41.421  13.959   5.061
58989W        W23974  39.358   5.726  13.942
58990W        W23975  25.971  32.162   4.618
58991W        W23976  25.595  19.668   2.354
58992W        W23977  13.606   4.791  10.726
58993W        W23978   4.616   1.648   2.861
58994W        W23979  10.611  19.314   0.239
58995W        W23980  34.362  33.383  11.987
58996W        W23981   7.002  33.409  14.441
58997W        W23982  18.223   9.811   3.162
58998W        W23983  22.180  16.209   0.387
58999W        W23984  31.829  41.438  12.121
59000W        W23985  35.472  42.683   3.153
59001W        W23986  15.568  18.603  13.769
59002W        W23987  42.980   2.107  14.234
59003W        W23988  17.767  39.015  12.035
59004W        W23989  34.052  32.367  14.079
59005W        W23990  38.281  43.951  10.429
59006W        W23991  43.948  32.532  10.581
59007W        W23992  17.113  34.894   0.010
59008W        W23993   6.949  30.518  13.915
59009W        W23994  16.176   9.322   3.432
59010W        W23995   0.782  28.226  12.484
59011W        W23996   8.855  38.423  12.968
59012W        W23997  18.043  35.434  14.440
59013W        W23998  10.127  27.915   1.609
59014W        W23999  30.026  42.917   0.277
59015W        W24000  15.386  30.379  13.446
59016W        W24001  40.069  23.798   1.340
59017W        W24002  44.708  39.371  12.022
59018W        W24003  12.324  15.184   3.079
59019W        W24004  13.723   7.387  11.784
59020W        W24005  31.097   8.701  14.966
59021W        W24006  16.676   1.012  11.933
59022W        W24007  35.451  27.526   0.441
59023W        W24008   4.870  12.446  14.873
59024W        W24009  42.246   5.988   4.162
59025W        W24010  19.759  41.345  12.581
59026W        W24011   5.773   9.344  11.016
59027W        W24012  14.043  38.085   4.754
59028W        W24013  27.876  39.488  13.964
59029W        W24014   7.653  10.506  12.538
59030W        W24015   5.338   8.220   3.310
59031W        W24016   4.382  37.772   1.231
59032W        W24017  36.097  44.784  12.590
59033W        W24018   5.312  41.846  13.277
59034W        W24019  26.732  26.092  14.562
59035W        W24020  34.708  23.891  12.450
59036W        W24021  29.937  39.370   3.564
59037W        W24022  40.856  22.139  14.359
59038W        W24023  44.995  15.323   1.359
59039W        W24024  18.053  38.530   1.796
59040W        W24025  18.605  20.252  14.220
59041W        W24026  40.597   7.235  10.066
59042W        W24027  38.552  43.072  14.465
59043W        W24028  44.627   8.613  12.510
59044W        W24029  41.690  38.046   1.158
59045W        W24030  23.058  41.224  13.900
59046W        W24031  29.424   8.766  13.402
59047W        W24032  30.648   1.196  11.899
59048W        W24033   7.705  22.571   3.680
59049W        W24034  35.110  37.845  12.008
59050W        W24035  34.606   8.755  14.357
59051W        W24036  30.077  29.043  10.498
59052W        W24037  39.496  36.871  11.543
59053W        W24038   4.699  19.270   4.030
59054W        W24039  42.750  34.366   1.919
59055W        W24040  24.965  39.277   1.817
59056W        W24041   5.313   0.970  13.397
59057W        W24042  25.335  44.904  13.131
59058W        W24043   3.445  42.081  10.814
59059W        W24044   5.745  37.140  11.440
59060W        W24045  42.837  31.881   4.127
59061W        W24046  20.109  17.031  10.218
59062W        W24047  40.390  19.781  13.263
59063W        W24048  23.537   8.357  11.229
59064W        W24049  21.429  37.600   2.182
59065W        W24050   1.295  15.835   1.598
59066W        W24051   5.300  14.892   1.225
59067W        W24052  26.289  18.048   4.074
59068W        W24053   6.657  17.753  11.647
59069W        W24054  35.079   0.820   0.441
59070W        W24055  43.434  24.139   2.964
59071W        W24056  30.589   2.673   2.597
59072W        W24057  17.204  37.080  14.045
59073W        W24058  11.008   6.783  12.338
59074W        W24059   9.304  39.416   0.024
59075W        W24060   3.389  40.849  12.385
59076W        W24061  14.928  10.314   3.588
59077W        W24062  14.770  37.171   3.215
59078W        W24063  25.078   7.260  12.484
59079W        W24064   8.458  41.868   4.888
59080W        W24065  18.758  36.804   2.251
59081W        W24066  41.127  31.482   0.454
59082W        W24067  23.864   4.344  10.253
59083W        W24068   6.902  31.680  11.168
59084W        W24069  13.243  26.265  12.816
59085W        W24070  27.726  14.686   4.058
59086W        W24071  12.812  31.314   1.002
59087W        W24072  12.086  27.474  10.721
59088W        W24073  34.288   3.523  11.756
59089W        W24074  19.811  24.984  13.338
59090W        W24075   5.131  40.599   3.115
59091W        W24076  39.422  40.772  10.628
59092W        W24077  29.407  11.675   2.560
59093W        W24078  13.695   3.448  11.964
59094W        W24079  15.294  11.132  12.369
59095W        W24080   4.397  18.098   3.873
59096W        W24081  31.354  23.491   1.998
59097W        W24082  30.885  30.465   2.813
59098W        W24083  38.486  23.075  13.237
59099W        W24084  34.938  31.085   1.260
59100W        W24085  17.850  35.991  10.912
59101W        W24086  34.884   5.663   3.753
59102W        W24087  10.297  29.069  14.977
59103W        W24088  18.832  41.204   2.356
59104W        W24089  36.621  14.847  12.080
59105W        W24090   1.219  18.139   3.931
59106W        W24091  19.119   4.452  13.447
59107W        W24092  33.898  39.950  12.861
59108W        W24093  27.790  21.429   5.073
59109W        W24094   4.186  22.693  14.924
59110W        W24095   6.960  28.540  14.881
59111W        W24096   0.952   9.734  10.644
59112W        W24097  21.649  30.764  10.784
59113W        W24098   1.447  39.560  13.893
59114W        W24099  18.575  31.879  10.411
59115W        W24100   8.393  40.041  13.372
59116W        W24101  18.105  23.464  13.262
59117W        W24102  39.678  43.514  11.216
59118W        W24103  18.731  28.256  12.560
59119W        W24104  42.175  38.950   1.183
59120W        W24105  34.481  41.571   3.133
59121W        W24106  33.843  39.268   2.766
59122W        W24107  28.658   5.266   0.785
59123W        W24108  13.587  13.248  11.917
59124W        W24109  18.826   2.384   4.587
59125W        W24110  42.278  33.621  14.008
59126W        W24111  17.076  10.257   4.134
59127W        W24112  18.500  14.584  14.465
59128W        W24113  28.780   2.527   1.157
59129W        W24114  28.103  42.717  10.665
59130W        W24115  18.891  13.299  12.886
59131W        W24116  24.678  28.383  13.462
59132W        W24117   6.122  25.947   0.111
59133W        W24118  36.674   3.840  11.599
59134W        W24119  26.116   4.467   1.822
59135W        W24120  31.540   7.155  11.998
59136W        W24121  38.854  20.982   4.288
59137W        W24122  34.436  14.665  13.446
59138W        W24123  35.611  35.569  14.384
59139W        W24124  23.760  15.578   2.840
59140W        W24125  31.617  34.338   3.840
59141W        W24126  23.199   4.403  10.777
59142W        W24127  15.577  22.292  11.142
59143W        W24128  26.025  37.341   0.273
59144W        W24129  42.285  18.081  14.969
59145W        W24130  35.648  18.150  12.418
59146W        W24131  41.701  15.725   2.401
59147W        W24132   7.452  36.389  14.291
59148W        W24133  18.714  26.742  12.021
59149W        W24134  26.938   6.542  14.173
59150W        W24135  35.787  25.083   3.216
59151W        W24136  44.836  24.553  11.564
59152W        W24137  25.478  18.038   3.479
59153W        W24138  43.094  12.149  12.286
59154W        W24139  38.424  35.353  10.373
59155W        W24140   7.267  11.509  14.654
59156W        W24141  28.241  33.883   2.666
59157W        W24142  13.558  10.788  11.658
59158W        W24143   9.348  25.762   0.404
59159W        W24144  24.055  26.230  13.229
59160W        W24145  10.209   0.354   5.011
59161W        W24146   6.795  11.821  10.979
59162W        W24147  24.351   9.877  14.402
59163W        W24148  18.360  13.368   2.156
59164W        W24149  39.245  16.876   4.102
59165W        W24150  30.893   3.741   0.719
59166W        W24151  39.442   2.070  10.591
59167W        W24152  33.875  36.526  11.153
59168W        W24153   3.868  20.696  13.972
59169W        W24154   2.493  13.302  14.685
59170W        W24155  44.287  40.668   4.986
59171W        W24156  21.570  28.967   4.587
59172W        W24157  11.168  18.709  11.724
59173W        W24158  44.099  38.435   3.310
59174W        W24159  22.698  16.627   1.279
59175W        W24160  17.141  43.257  11.287
59176W        W24161  25.188  23.709  13.499
59177W        W24162   8.667  24.623   1.776
59178W        W24163  13.406  43.366   1.247
59179W        W24164  13.760  40.027   4.537
59180W        W24165  31.457   9.908  13.436
59181W        W24166  34.109  13.561  12.337
59182W        W24167  19.764  21.057   3.243
59183W        W24168  19.045  41.951   0.554
59184W        W24169  16.765  40.913   4.249
59185W        W24170   6.947   0.873   2.340
59186W        W24171  14.571  38.470   0.696
59187W        W24172  22.748   1.864   4.103
59188W        W24173  42.546  14.745   1.428
59189W        W24174  42.028   2.758  10.555
59190W        W24175  12.178  33.673  10.727
59191W        W24176  31.741  44.571  14.482
59192W        W24177  31.525  27.450  13.431
59193W        W24178  31.459  22.126   0.233
59194W        W24179  34.631  44.945   2.311
59195W        W24180  13.860  34.994  11.672
59196W        W24181  33.058  40.324   1.536
59197W        W24182  21.551  35.142   4.430
59198W        W24183  17.713  14.228   0.870
59199W        W24184  38.561   2.230  14.204
59200W        W24185  21.527  16.533  11.541
59201W        W24186  43.470  13.569   2.232
59202W        W24187  32.598  12.656   3.747
59203W        W24188  13.386   9.737  13.921
59204W        W24189  33.680   9.346  13.957
59205W        W24190  26.894  31.601   2.705
59206W        W24191   9.431  15.047  11.066
59207W        W24192  39.827  19.132   1.700
59208W        W24193  35.969   3.096  11.215
59209W        W24194   0.146  41.373  10.685
59210W        W24195  41.649  34.967  12.006
59211W        W24196  31.303  20.189  12.815
59212W        W24197  21.993  34.998  10.642
59213W        W24198   3.190  21.644  13.850
59214W        W24199   4.197  31.651   3.818
59215W        W24200  18.299  21.931   3.263
59216W        W24201  37.589  29.605   4.553
59217W        W24202  12.243  41.356   0.094
59218W        W24203  34.469  17.212   3.242
59219W        W24204  27.030  15.824   2.155
59220W        W24205  33.995  19.686  13.479
59221W        W24206   2.878  41.065   0.340
59222W        W24207  27.039  29.683  12.386
59223W        W24208  41.382   9.749   1.221
59224W        W24209   4.774  16.838  10.606
59225W        W24210  22.991  32.346   2.425
59226W        W24211  12.312  37.782  13.579
59227W        W24212   8.718  41.743  13.855
59228W        W24213  37.980  27.148  14.834
59229W        W24214  32.631  11.655  14.435
59230W        W24215   7.707  37.242  13.937
59231W        W24216  34.519  13.864  14.857
59232W        W24217  10.599  24.580   3.207
59233W        W24218  29.349   6.857   0.923
59234W        W24219   6.710   9.001  11.867
59235W        W24220   6.887  36.595   3.834
59236W        W24221  37.274  32.038   4.972
59237W        W24222  25.627  22.205  10.977
59238W        W24223   5.880   9.280   1.437
59239W        W24224  38.667   1.720   2.201
59240W        W24225   5.289  29.935   0.848
59241W        W24226  15.013   9.582   2.219
59242W        W24227  27.165   3.005   4.458
59243W        W24228  26.913   1.382   2.702
59244W        W24229  36.001  24.891  13.568
59245W        W24230  12.643  22.118  14.739
59246W        W24231  13.139   0.873   1.407
59247W        W24232  35.164  29.593   0.266
59248W        W24233  40.538  18.045   3.342
59249W        W24234  40.904  36.544  14.410
59250W        W24235   4.593  44.350  10.708
59251W        W24236  23.555  41.047   4.503
59252W        W24237  13.170  20.929   4.903
59253W        W24238  22.664  15.307   0.711
59254W        W24239  34.702   2.250  11.679
59255W        W24240   7.360  31.641  11.695
59256W        W24241   5.730  37.736   3.676
59257W        W24242   2.702  36.084   2.826
59258W        W24243  13.263  42.038   1.745
59259W        W24244   4.850   2.410   1.521
59260W        W24245  12.872  17.957   2.203
59261W        W24246   0.718  10.132   4.077
59262W        W24247  27.501  31.269  14.153
59263W        W24248  15.585   1.898   2.049
59264W        W24249  14.179  13.916  11.265
59265W        W24250  22.939  28.050   1.855
59266W        W24251  41.433  20.622   4.599
59267W        W24252  41.367   4.561   1.028
59268W        W24253  10.470  31.089   2.340
59269W        W24254   9.799   5.459  12.120
59270W        W24255  11.138   1.946  12.701
59271W        W24256  22.109  39.988   1.622
59272W        W24257  38.475  10.612   2.421
59273W        W24258  11.924  41.425  13.123
59274W        W24259  37.520  21.094  12.737
59275W        W24260   4.364   6.620   3.768
59276W        W24261  14.379  10.962   2.462
59277W        W24262  39.129  31.697  14.859
59278W        W24263  17.483  12.871  12.525
59279W        W24264  24.887   1.735  13.961
59280W        W24265  34.763  38.846  12.192
59281W        W24266   3.253  18.291   0.498
59282W        W24267  37.837   8.835  13.900
59283W        W24268  44.785  30.838   0.959
59284W        W24269   0.560   2.854  11.640
59285W        W24270  29.464  40.430   4.769
59286W        W24271  13.718  31.520   0.744
59287W        W24272  32.624  22.647   1.056
59288W        W24273   5.822   4.725  14.973
59289W        W24274  10.925  11.165   0.705
59290W        W24275  32.023  10.354   0.927
59291W        W24276  35.112  13.728   3.309
59292W        W24277  42.673  37.813   1.335
59293W        W24278   8.202  25.665  14.017
59294W        W24279  42.099  12.373   4.313
59295W        W24280  17.321   9.573  14.382
59296W        W24281   4.283  19.820  13.135
59297W        W24282  26.006  29.863  14.473
59298W        W24283  12.732  41.587  13.471
59299W        W24284   0.967  43.120   0.533
59300W        W24285  32.252  14.609  12.759
59301W        W24286  13.048  12.273   0.738
59302W        W24287   5.629  34.624   3.696
59303W        W24288   8.276  35.009   1.636
59304W        W24289  41.703  41.173  14.552
59305W        W24290  19.514  22.747   4.147
59306W        W24291  31.159  44.010  12.064
59307W        W24292  19.971   2.917   0.102
59308W        W24293  14.841  15.657  10.767
59309W        W24294  38.195  12.787  10.455
59310W        W24295  35.415   7.868  14.805
59311W        W24296  34.379  25.706   1.864
59312W        W24297  23.332  11.804  12.913
59313W        W24298  15.250   6.852   1.289
59314W        W24299  19.847  19.755   2.861
59315W        W24300  19.403  33.085   3.744
59316W        W24301  18.068  29.042   1.387
59317W        W24302  21.799  12.820   3.326
59318W        W24303   3.422  22.357  14.611
59319W        W24304   1.775   8.033  13.973
59320W        W24305   1.961  43.118  13.488
59321W        W24306  29.709   6.463  11.170
59322W        W24307  12.218  42.271   0.184
59323W        W24308  13.281  17.201   4.567
59324W        W24309  26.923   2.678   9.633
59325W        W24310  10.839  13.205  13.336
59326W        W24311  15.232  19.357  12.855
59327W        W24312  37.459  39.368  11.374
59328W        W24313  21.634  34.019  14.436
59329W        W24314  29.296   0.445  11.926
59330W        W24315  26.506  28.610  14.316
59331W        W24316  15.969  29.787   2.714
59332W        W24317  32.614  30.632  14.445
59333W        W24318  10.864   7.471  11.869
59334W        W24319  19.296   4.287  14.760
59335W        W24320  33.972   1.867   4.971
59336W        W24321  26.319   1.444  12.844
59337W        W24322  20.099   3.763   4.666
59338W        W24323  34.912  36.108  12.609
59339W        W24324  18.303  30.024   1.275
59340W        W24325  22.614  40.460   2.522
59341W        W24326  37.507  31.412  10.430
59342W        W24327  44.537  39.791   2.751
59343W        W24328  33.650  10.315   1.753
59344W        W24329  39.130  19.632  13.843
59345W        W24330  23.462  15.754   2.440
59346W        W24331  36.418  10.182   4.491
59347W        W24332  17.264  34.581   2.292
59348W        W24333  23.580  40.317   0.562
59349W        W24334  29.168   8.201   1.870
59350W        W24335  32.290  40.879  10.776
59351W        W24336  25.920  25.171  11.168
59352W        W24337  19.351  22.308   1.792
59353W        W24338  28.303   7.055  11.638
59354W        W24339  16.718  13.677  13.297
59355W        W24340  29.018   1.439  11.885
59356W        W24341  33.030  16.250  10.956
59357W        W24342   2.071  28.562   2.747
59358W        W24343  16.137  19.574  12.504
59359W        W24344  11.494   2.440  10.722
59360W        W24345   4.096  14.220  12.175
59361W        W24346  21.667  10.066  13.779
59362W        W24347  16.951  21.285  13.071
59363W        W24348  42.734  13.759  12.951
59364W        W24349  32.272   0.384  10.675
59365W        W24350  32.889  17.528   2.245
59366W        W24351  21.249  38.327   4.119
59367W        W24352  16.268  21.977   0.368
59368W        W24353  21.400   1.149  12.842
59369W        W24354  35.463  14.336  11.364
59370W        W24355   8.914  35.026  11.184
59371W        W24356  28.309  41.990  14.895
59372W        W24357   3.385   9.889   0.282
59373W        W24358  11.733  11.175  11.298
59374W        W24359   5.833  40.976   0.526
59375W        W24360   1.607   6.751   4.948
59376W        W24361  29.528  36.418  13.072
59377W        W24362  33.677  43.645   3.764
59378W        W24363   3.348  13.143  12.120
59379W        W24364  44.874   8.438  12.087
59380W        W24365   3.292  19.552  12.941
59381W        W24366   0.390  10.611   2.585
59382W        W24367  14.611  24.490   3.220
59383W        W24368  31.728  19.652   2.185
59384W        W24369   1.445  25.758  11.059
59385W        W24370  28.479   6.421   1.847
59386W        W24371   0.837  10.851   3.367
59387W        W24372  16.843  44.989  12.838
59388W        W24373  12.377   5.177   3.663
59389W        W24374  28.603   3.430   4.493
59390W        W24375  38.388   4.922   1.786
59391W        W24376  42.123  42.542  11.662
59392W        W24377  11.681  30.965   0.917
59393W        W24378   2.221  13.684  14.883
59394W        W24379  13.432  36.412   3.687
59395W        W24380  14.278  20.600  14.879
59396W        W24381  26.084   1.840   2.398
59397W        W24382  43.215  25.490  14.789
59398W        W24383   0.232  31.177  13.979
59399W        W24384   5.300   6.574   3.876
59400W        W24385  10.614   5.964  13.441
59401W        W24386  32.239   6.175  13.043
59402W        W24387  44.426  31.426  13.104
59403W        W24388  40.482  35.217   2.727
59404W        W24389   9.364  12.822  14.492
59405W        W24390  19.513  39.202  11.585
59406W        W24391  23.582  29.458  10.559
59407W        W24392  32.412   0.204  13.380
59408W        W24393  20.533   9.767  11.633
59409W        W24394  23.718  16.740   0.950
59410W        W24395  43.463   6.474  11.087
59411W        W24396  31.424   0.292   3.124
59412W        W24397   7.461  19.354  11.654
59413W        W24398  42.352  40.074   0.415
59414W        W24399   2.586  19.190  11.311
59415W        W24400   1.483   0.347   0.601
59416W        W24401   2.481  14.201  14.858
59417W        W24402   5.162  36.284   0.036
59418W        W24403  14.104   9.766  11.954
59419W        W24404  32.607  34.626  14.415
59420W        W24405  41.762  13.191   3.186
59421W        W24406   9.499  27.129   3.266
59422W        W24407   5.362   1.966  14.030
59423W        W24408  32.953  20.449   1.580
59424W        W24409  15.080  36.899  14.291
59425W        W24410  27.899  40.292  12.982
59426W        W24411   1.645  24.916  11.157
59427W        W24412   6.844  20.618  13.072
59428W        W24413  38.011  38.924  13.949
59429W        W24414  20.271  18.123  11.997
59430W        W24415  40.961  34.317   4.210
59431W        W24416  37.569  36.095  14.340
59432W        W24417   2.839  34.819   0.850
59433W        W24418  31.149  18.236  11.992
59434W        W24419   0.103  12.337   4.770
59435W        W24420  18.482  33.100  12.382
59436W        W24421  10.276   1.296   4.664
59437W        W24422  15.090   3.817   3.624
59438W        W24423  11.743  43.723  12.540
59439W        W24424  10.233  27.799  10.930
59440W        W24425  12.900  12.276   1.855
59441W        W24426  24.938  14.678   3.689
59442W        W24427   0.699   3.212   2.352
59443W        W24428  10.236   7.707  13.927
59444W        W24429   5.759  12.327   0.956
59445W        W24430   8.762  24.922   2.266
59446W        W24431  17.161  32.540  12.545
59447W        W24432   4.694  32.072  13.572
59448W        W24433  16.350  12.223  14.557
59449W        W24434  23.937  10.398   3.835
59450W        W24435  35.568   6.088  12.219
59451W        W24436  15.309  17.470  12.017
59452W        W24437  27.573  16.544   1.786
59453W        W24438  16.159  42.911  10.417
59454W        W24439  19.630  13.556  12.186
59455W        W24440  36.944   9.992   0.693
59456W        W24441  34.898   3.043   3.045
59457W        W24442   3.007   6.312  11.131
59458W        W24443  30.583  11.771   2.346
59459W        W24444  40.382   3.863  14.046
59460W        W24445  34.077  35.920   3.774
59461W        W24446   0.821  41.366   1.001
59462W        W24447   1.017  32.547  12.190
59463W        W24448  21.219  21.150   3.261
59464W        W24449  38.427  42.276   3.257
59465W        W24450   0.786  21.701   3.824
59466W        W24451  39.157   3.285   1.379
59467W        W24452  42.484  23.964   1.246
59468W        W24453  11.194  30.197  10.709
59469W        W24454   8.207  44.486  12.441
59470W        W24455   1.137  15.940   4.154
59471W        W24456  22.149  35.371  11.126
59472W        W24457   1.892  26.363   2.113
59473W        W24458  40.594  27.702   5.007
59474W        W24459  10.074   8.360   2.385
59475W        W24460  30.487   3.993  10.703
59476W        W24461  33.854  12.671  10.749
59477W        W24462  30.557  38.819  13.645
59478W        W24463  14.699   0.481  11.150
59479W        W24464   8.341  21.104  13.335
59480W        W24465  26.954  10.175   3.184
59481W        W24466  20.841  17.182  13.818
59482W        W24467  22.944  15.337   1.171
59483W        W24468   1.550  28.667   2.725
59484W        W24469  25.812  25.416   3.409
59485W        W24470  29.902   4.262   3.254
59486W        W24471  19.611  29.540  11.215
59487W        W24472  41.593   1.888   0.432
59488W        W24473  26.125   6.362   4.309
59489W        W24474  43.268   2.124  12.030
59490W        W24475  33.189   6.083  11.623
59491W        W24476  24.938   5.993   1.402
59492W        W24477  17.080  11.745   0.067
59493W        W24478  37.309  25.135  12.561
59494W        W24479  37.825  37.421   5.184
59495W        W24480   2.979  22.759  12.326
59496W        W24481  10.229   7.796   4.501
59497W        W24482  10.695   0.439  11.491
59498W        W24483  36.460   0.644  14.970
59499W        W24484  33.507  29.433   3.126
59500W        W24485   4.898  35.487  11.519
59501W        W24486  16.757  15.179   1.016
59502W        W24487  15.993  19.315  11.368
59503W        W24488  15.567  11.526   0.988
59504W        W24489   0.361  40.935  13.387
59505W        W24490   0.572  31.273   1.171
59506W        W24491  16.072  16.337  10.725
59507W        W24492   8.707  23.536   4.441
59508W        W24493  12.607  21.436  11.005
59509W        W24494   3.993  31.926   0.496
59510W        W24495  31.838  21.846  10.736
59511W        W24496  42.382   8.882   4.521
59512W        W24497   1.991   7.922   1.891
59513W        W24498   7.586  29.484  11.082
59514W        W24499  29.586  38.025   0.752
59515W        W24500  34.903  36.036   1.870
59516W        W24501  33.144   5.887  12.202
59517W        W24502   5.068  29.434  11.886
59518W        W24503  25.611  10.887   0.358
59519W        W24504   8.745   5.919   1.355
59520W        W24505   8.662  30.869   3.009
59521W        W24506  33.485  15.596  13.496
59522W        W24507  29.742  30.809  14.914
59523W        W24508   5.955  36.789   1.771
59524W        W24509  10.561  41.298   3.568
59525W        W24510  33.321  35.054   2.338
59526W        W24511  11.283  33.081   2.349
59527W        W24512  16.609  39.147   3.603
59528W        W24513  44.348  39.025   1.401
59529W        W24514  40.914  28.109  12.189
59530W        W24515   8.385  31.441  11.123
59531W        W24516  31.067  21.582  11.875
59532W        W24517  16.984  16.837  11.796
59533W        W24518  32.629  25.570   1.774
59534W        W24519  21.559  14.670  13.305
59535W        W24520   0.756  21.312   1.465
59536W        W24521  20.046  33.686  11.753
59537W        W24522  26.656  20.247   3.123
59538W        W24523   5.566  23.256  13.802
59539W        W24524   2.339   9.442   0.381
59540W        W24525  10.346   1.341  12.031
59541W        W24526  22.234  44.156  14.837
59542W        W24527  22.403  39.331  10.736
59543W        W24528  21.522  20.121   1.303
59544W        W24529  40.347  40.899  11.014
59545W        W24530   8.425  15.164  11.354
59546W        W24531  19.835  20.406  10.666
59547W        W24532  24.670   5.704   2.938
59548W        W24533  42.012  26.875   0.593
59549W        W24534   0.176  15.033  11.156
59550W        W24535  33.251  17.060  11.162
59551W        W24536  41.061  37.850  11.940
59552W        W24537   2.398  33.429   1.038
59553W        W24538  26.206   5.590  13.817
59554W        W24539   0.269  20.204  11.681
59555W        W24540   0.733  24.438   1.853
59556W        W24541  25.595  44.043  11.405
59557W        W24542  37.993  30.337   2.190
59558W        W24543   6.336  24.640   4.864
59559W        W24544  24.327  24.285  10.428
59560W        W24545   6.473  27.852  12.793
59561W        W24546   9.681  22.776   0.365
59562W        W24547  36.988  37.191  13.368
59563W        W24548  20.468   2.550   4.482
59564W        W24549  42.087  28.864  14.020
59565W        W24550   7.774  34.777   3.278
59566W        W24551  12.937  24.896  12.086
59567W        W24552  36.330  40.569   2.777
59568W        W24553  26.910  13.204  12.990
59569W        W24554  36.518  38.517   2.350
59570W        W24555  34.967  40.778   4.145
59571W        W24556  24.460  34.548   3.112
59572W        W24557  17.628  23.067   0.381
59573W        W24558  12.548   3.456  12.653
59574W        W24559  13.736  26.927  13.064
59575W        W24560  26.427  26.606   2.972
59576W        W24561  14.012  34.925   4.178
59577W        W24562  31.831  43.915  11.093
59578W        W24563  37.267  18.180   0.289
59579W        W24564  27.268  25.149   1.360
59580W        W24565  23.087   2.680  12.585
59581W        W24566  10.430  37.848   3.624
59582W        W24567   8.860  35.000  14.539
59583W        W24568   4.347  12.686   2.687
59584W        W24569  18.088  35.656  13.604
59585W        W24570  27.627   7.746  11.201
59586W        W24571  33.122   7.278   4.531
59587W        W24572  34.112  43.188   2.817
59588W        W24573  37.979   2.166  11.709
59589W        W24574  35.846  14.301  12.590
59590W        W24575  44.476  19.638  14.902
59591W        W24576  30.657   1.729  10.610
59592W        W24577  38.478  17.590   3.902
59593W        W24578   0.302  44.437  10.982
59594W        W24579  22.660  38.414  12.621
59595W        W24580   9.803   3.527  10.728
59596W        W24581  44.976  17.335  11.094
59597W        W24582  37.347   3.058   4.166
59598W        W24583  23.686   8.800   1.745
59599W        W24584   0.955  22.142   1.433
59600W        W24585  16.721  44.893   4.694
59601W        W24586   5.367   4.603  13.728
59602W        W24587  28.638  10.916   1.698
59603W        W24588  25.285  14.205  10.478
59604W        W24589  33.698  41.296   2.689
59605W        W24590  26.075  29.382   3.105
59606W        W24591  35.357   3.676  10.704
59607W        W24592  37.105  10.113   4.000
59608W        W24593   7.481   4.019  12.648
59609W        W24594  14.162   2.954   3.631
59610W        W24595  25.189  42.579   3.808
59611W        W24596  36.328  33.013  14.491
59612W        W24597  18.304  37.385  12.973
59613W        W24598  18.654  21.516   2.426
59614W        W24599  15.700  25.226  10.590
59615W        W24600  30.757  33.794   0.199
59616W        W24601  27.511   6.933   0.323
59617W        W24602  10.576  25.021  14.855
59618W        W24603  28.931   1.935  14.438
59619W        W24604  30.960   2.411  13.537
59620W        W24605  38.354  44.414  13.868
59621W        W24606  32.712   7.805  13.357
59622W        W24607  44.057  32.591  13.477
59623W        W24608  14.425  25.131  13.449
59624W        W24609  14.052  27.842   9.865
59625W        W24610  44.280  23.632   4.565
59626W        W24611  19.250  22.313   4.347
59627W        W24612  23.990   2.856  11.070
59628W        W24613   3.275  10.732   2.735
59629W        W24614  14.215  34.403   1.644
59630W        W24615   6.860   4.896   2.193
59631W        W24616  16.155  26.491  11.149
59632W        W24617  35.110  18.302  11.636
59633W        W24618  38.068   9.188  13.473
59634W        W24619  19.036  41.019  11.489
59635W        W24620  35.114  27.990   2.521
59636W        W24621  15.269   3.733  13.978
59637W        W24622  18.690   4.718   0.253
59638W        W24623  15.456   0.875  12.379
59639W        W24624  12.839  36.544   2.191
59640W        W24625  34.585  39.332  14.363
59641W        W24626  35.017  10.479   3.696
59642W        W24627  32.161  30.566   1.415
59643W        W24628  31.870  10.282   2.740
59644W        W24629  20.653  26.125   1.419
59645W        W24630   0.281   1.194   1.643
59646W        W24631   9.332  26.003   4.075
59647W        W24632  13.731  21.945   3.763
59648W        W24633  13.694  31.932  14.341
59649W        W24634  35.421  11.100  12.904
59650W        W24635  34.683  22.512  13.558
59651W        W24636  35.516  14.165   4.143
59652W        W24637   1.900  35.605  13.135
59653W        W24638  36.924  19.691   2.459
59654W        W24639  39.038   4.465   2.045
59655W        W24640  39.414   8.134  13.429
59656W        W24641   0.108  28.213  10.141
59657W        W24642   2.422  37.347   2.115
59658W        W24643  30.931   4.874   4.397
59659W        W24644  10.600  17.485   1.415
59660W        W24645  32.403   4.686  13.617
59661W        W24646  23.135  21.433  12.033
59662W        W24647  21.099  42.714  12.839
59663W        W24648  42.640  28.983   4.154
59664W        W24649  15.048  21.763   4.003
59665W        W24650  13.745   9.270   1.327
59666W        W24651  21.164  33.039   4.158
59667W        W24652   2.940  42.839   2.648
59668W        W24653  25.936   4.038  13.026
59669W        W24654  28.185  33.853  14.261
59670W        W24655  33.849   3.752   4.598
59671W        W24656  15.994  23.902   1.849
59672W        W24657  43.956  22.933  14.909
59673W        W24658  16.150   6.472  12.577
59674W        W24659  20.534  28.961  12.938
59675W        W24660  39.756  24.080  11.916
59676W        W24661  40.872  28.500   1.281
59677W        W24662   8.194  23.758  11.624
59678W        W24663   3.032   1.878  12.152
59679W        W24664  34.776   5.946   1.206
59680W        W24665  14.409  23.152  13.941
59681W        W24666  16.529   0.339   3.122
59682W        W24667  37.934  44.966   2.910
59683W        W24668  23.226  10.239   1.807
59684W        W24669  39.088  12.352   1.501
59685W        W24670   6.489  16.381  14.807
59686W        W24671  28.820  12.380   3.238
59687W        W24672  15.185  19.809   0.841
59688W        W24673  27.062  41.348   4.597
59689W        W24674  41.270   7.667   1.286
59690W        W24675  44.268  41.327   0.891
59691W        W24676   2.708  34.600  13.496
59692W        W24677  29.454   0.921   3.314
59693W        W24678  36.377  27.822  10.911
59694W        W24679  41.919  38.765  11.568
59695W        W24680  44.662   7.983   3.768
59696W        W24681  28.689  14.832   1.693
59697W        W24682   3.862  10.517  10.280
59698W        W24683  36.858  36.408  12.357
59699W        W24684  31.281  25.134   0.613
59700W        W24685   7.951  29.397  14.067
59701W        W24686   6.413  24.147  14.863
59702W        W24687  33.122  12.577  11.924
59703W        W24688  17.625  25.208   1.516
59704W        W24689  43.881   0.353  13.454
59705W        W24690  35.433   3.171   0.356
59706W        W24691  10.589  15.399   2.363
59707W        W24692  25.572  15.826  11.253
59708W        W24693  33.844  28.639   3.646
59709W        W24694  14.275  30.071  13.936
59710W        W24695  37.804   0.374   0.124
59711W        W24696   7.119  22.141   4.166
59712W        W24697  30.249   4.114   4.283
59713W        W24698  27.061  24.668   1.362
59714W        W24699   9.087  12.147   3.888
59715W        W24700  15.917  36.686  11.986
59716W        W24701  14.543  22.535   2.343
59717W        W24702  32.985   3.883   4.269
59718W        W24703  40.405  41.065   3.224
59719W        W24704   3.167  20.771  12.462
59720W        W24705  38.557  28.975  12.078
59721W        W24706   3.758  34.821  13.580
59722W        W24707  11.648  32.836  11.197
59723W        W24708  20.567  37.841   1.673
59724W        W24709  15.488  20.373  12.549
59725W        W24710  30.664  28.956  12.169
59726W        W24711   4.263   4.418  11.482
59727W        W24712  40.325   5.441   4.481
59728W        W24713  23.489  10.706   3.855
59729W        W24714  25.112  28.639  13.584
59730W        W24715  22.257  14.053  14.040
59731W        W24716  10.142  12.437  11.998
59732W        W24717  38.067  28.382  11.658
59733W        W24718  32.677  37.002  11.038
59734W        W24719   4.724  25.965   1.975
59735W        W24720  23.737  19.777  11.578
59736W        W24721  42.708   6.129   4.005
59737W        W24722  31.008  40.978  14.037
59738W        W24723  33.891   0.320  14.340
59739W        W24724  20.709  32.299   4.824
59740W        W24725  17.628  19.200  12.142
59741W        W24726  18.596   5.956  14.725
59742W        W24727  13.107  12.238   3.782
59743W        W24728  44.233  32.887  11.191
59744W        W24729   1.950   1.201   0.411
59745W        W24730   4.832  31.628   2.413
59746W        W24731  30.201   5.749   1.246
59747W        W24732  42.750  37.188   4.695
59748W        W24733  35.436  21.622  14.927
59749W        W24734   0.484   9.952  14.770
59750W        W24735  20.452   5.162  14.335
59751W        W24736   2.478  12.331  14.263
59752W        W24737  27.153   6.893  12.818
59753W        W24738  18.517  34.446   4.108
59754W        W24739  24.204  37.940  12.449
59755W        W24740   1.190  26.197  11.050
59756W        W24741  34.846  38.443  13.124
59757W        W24742  38.416   2.479  12.415
59758W        W24743  19.065  16.547  11.116
59759W        W24744  29.145  41.807   1.903
59760W        W24745  34.810  25.136   3.381
59761W        W24746  26.423  32.640  13.577
59762W        W24747  32.930   6.722  12.092
59763W        W24748  16.220  29.063   1.685
59764W        W24749  44.647  42.973   3.684
59765W        W24750  34.133  41.832   1.098
59766W        W24751  31.569  23.235   0.786
59767W        W24752  33.711  18.284  14.505
59768W        W24753  34.764  21.781   4.270
59769W        W24754   1.053   4.429  12.472
59770W        W24755  27.554  42.391   1.435
59771W        W24756  27.125  15.740   2.677
59772W        W24757  44.319  19.615  12.573
59773W        W24758  31.829   4.128  11.575
59774W        W24759  20.055  26.948   3.264
59775W        W24760  42.268  29.578   2.017
59776W        W24761  16.179  14.756  11.914
59777W        W24762   4.263  31.265   1.531
59778W        W24763   3.488  14.914   4.136
59779W        W24764  44.405  24.711  14.138
59780W        W24765  26.954  36.520   2.320
59781W        W24766  34.772  28.354   2.731
59782W        W24767  13.410   5.408   2.807
59783W        W24768   5.158  15.136   4.600
59784W        W24769   6.762  27.649   4.581
59785W        W24770  30.111  40.323  10.709
59786W        W24771  16.757  19.312   1.644
59787W        W24772   2.676  30.478   1.868
59788W        W24773  32.616  29.008   3.635
59789W        W24774  23.765  21.601   4.485
59790W        W24775  34.345  12.862   0.736
59791W        W24776  16.662  25.594  11.942
59792W        W24777   7.707  25.032   1.008
59793W        W24778   8.822  22.067  11.647
59794W        W24779  27.036  29.355   3.570
59795W        W24780  32.389  38.594   0.759
59796W        W24781  25.536   0.736  13.719
59797W        W24782   5.114  25.944  13.037
59798W        W24783   3.702   8.793   2.770
59799W        W24784   6.823  13.696  13.328
59800W        W24785  11.559  34.880  12.533
59801W        W24786  15.550   8.730   0.918
59802W        W24787  39.537  12.520  10.702
59803W        W24788  23.621   6.177  14.267
59804W        W24789  12.913   7.174  11.057
59805W        W24790  15.545  39.531   1.783
59806W        W24791   1.395  38.394   0.186
59807W        W24792  36.013  36.857  13.403
59808W        W24793  41.978  21.121   4.170
59809W        W24794   2.463   3.574   2.267
59810W        W24795  23.550   2.303   1.193
59811W        W24796   5.741   8.884  11.929
59812W        W24797  12.335   8.897   1.921
59813W        W24798  25.641  12.558  11.672
59814W        W24799   7.712  35.660  10.759
59815W        W24800  36.819   7.254   1.824
59816W        W24801  44.492   9.976   4.157
59817W        W24802  10.410  26.026  10.624
59818W        W24803  41.541   9.291  11.482
59819W        W24804  34.488  12.060  14.320
59820W        W24805  38.962  39.324  10.901
59821W        W24806  28.899  39.299  13.939
59822W        W24807  16.542   2.529   1.009
59823W        W24808   4.342   4.438   2.582
59824W        W24809  17.564  29.828   3.201
59825W        W24810  24.952   4.870  11.555
59826W        W24811  42.468   9.471   3.959
59827W        W24812   0.300  19.088  13.560
59828W        W24813  29.028  19.205   2.387
59829W        W24814   3.141  30.218   2.166
59830W        W24815  32.735  17.427  11.546
59831W        W24816  41.288  39.346   1.302
59832W        W24817  29.490  40.893   3.795
59833W        W24818  31.672  14.618   1.861
59834W        W24819  22.673   0.825  12.561
59835W        W24820  10.337   8.307   0.966
59836W        W24821  34.981  40.586   4.972
59837W        W24822  33.398  15.466   1.705
59838W        W24823  18.969  15.415   4.293
59839W        W24824  19.076  25.874   4.200
59840W        W24825  34.724  39.620  12.630
59841W        W24826  21.787   0.403  13.511
59842W        W24827   3.944  15.681   0.312
59843W        W24828  30.708  39.522   1.746
59844W        W24829  43.369   3.692   4.210
59845W        W24830  44.783  41.942  12.440
59846W        W24831   0.529   8.887  10.697
59847W        W24832  41.458  14.780   2.853
59848W        W24833  21.246   1.073   4.134
59849W        W24834  21.043  29.935   1.972
59850W        W24835   6.480  39.880   3.470
59851W        W24836  28.888  24.481  14.871
59852W        W24837   2.776  11.751  10.784
59853W        W24838   9.804  38.737  13.806
59854W        W24839  27.147  24.788   3.121
59855W        W24840   4.292  21.304  12.096
59856W        W24841  38.324  41.281   4.920
59857W        W24842   1.995  15.490   0.990
59858W        W24843  26.794  22.296   1.269
59859W        W24844  44.923  30.316  14.918
59860W        W24845  43.556  31.391  13.431
59861W        W24846  37.787  31.838   4.116
59862W        W24847  32.155  38.455  10.618
59863W        W24848  37.555   2.376  11.942
59864W        W24849  37.336  34.300   0.951
59865W        W24850  28.640  19.162   3.878
59866W        W24851   4.924  44.336  13.290
59867W        W24852  27.304  12.419   3.654
59868W        W24853  43.755  32.129   1.906
59869W        W24854   8.865  36.534  13.355
59870W        W24855  20.136  19.490  12.414
59871W        W24856  10.376  24.418   4.182
59872W        W24857   1.899   1.356  13.121
59873W        W24858  14.757   8.798  13.423
59874W        W24859  44.488  36.714   1.379
59875W        W24860  30.569   5.751  13.582
59876W        W24861  10.861  39.363  14.528
59877W        W24862  42.890  43.261   3.962
59878W        W24863   1.020  21.578  13.745
59879W        W24864  26.406  25.562   3.333
59880W        W24865  42.021   6.381   2.166
59881W        W24866  20.531  17.258  12.926
59882W        W24867  30.117   6.043   4.375
59883W        W24868  13.044  25.058  12.558
59884W        W24869  30.544  12.125  13.514
59885W        W24870   3.712   5.391   1.848
59886W        W24871  13.131  14.745   4.272
59887W        W24872  42.569  30.734  11.897
59888W        W24873   0.658  18.301   2.335
59889W        W24874  38.477  31.670   4.941
59890W        W24875  14.829  32.543  12.923
59891W        W24876  23.998  10.329   5.062
59892W        W24877   1.269  14.109  12.550
59893W        W24878  12.854  30.998   3.608
59894W        W24879  29.585   3.142   0.689
59895W        W24880   1.046  42.801  13.459
59896W        W24881  39.292  44.146   2.922
59897W        W24882   1.772  32.002   0.801
59898W        W24883  36.051  12.634  10.550
59899W        W24884  35.060  36.668   3.135
59900W        W24885  36.147  29.396  13.915
59901W        W24886   4.128  10.274  12.918
59902W        W24887  34.318  44.879  12.149
59903W        W24888  22.069   9.685   3.119
59904W        W24889  18.250  13.022   2.546
59905W        W24890   6.694  37.362   3.160
59906W        W24891  42.876   0.112  13.106
59907W        W24892  16.242  29.108   3.176
59908W        W24893   5.828  36.062  14.289
59909W        W24894   9.049  16.743  13.623
59910W        W24895  40.450  42.813  11.194
59911W        W24896   7.173   3.655  12.424
59912W        W24897   7.881  15.503   3.494
59913W        W24898  27.274  41.812   1.966
59914W        W24899   5.756  19.372   4.098
59915W        W24900  13.328   0.254   4.213
59916W        W24901  23.656   0.976   2.243
59917W        W24902  44.301  36.275  12.580
59918W        W24903  42.371  28.377  14.879
59919W        W24904  18.556  44.572   1.084
59920W        W24905   6.264  44.696  13.413
59921W        W24906  41.259  41.503  11.665
59922W        W24907   3.178   2.862  13.907
59923W        W24908   2.860   4.789   3.369
59924W        W24909  31.954  23.047  13.443
59925W        W24910   2.144  35.980   3.734
59926W        W24911  44.004   7.959  11.935
59927W        W24912   2.150  38.628   1.593
59928W        W24913  36.548  36.450  14.358
59929W        W24914  11.401   7.189  13.539
59930W        W24915  31.319   4.153   2.770
59931W        W24916   2.320  30.235   4.532
59932W        W24917  13.351  20.733  11.194
59933W        W24918   3.920  39.858   1.809
59934W        W24919  17.527  11.644   3.428
59935W        W24920   7.736   4.392  11.874
59936W        W24921  21.591   5.872  12.587
59937W        W24922  13.555  24.710   1.307
59938W        W24923  44.257  12.565  14.380
59939W        W24924   9.851  29.083   3.734
59940W        W24925  19.242  34.923  14.619
59941W        W24926   5.292  18.087  14.326
59942W        W24927  21.226  20.799   1.559
59943W        W24928  29.421  32.994   2.164
59944W        W24929  33.359  35.453  13.967
59945W        W24930   3.011  13.764  12.641
59946W        W24931  41.462  42.010  13.659
59947W        W24932  38.792  23.819  12.970
59948W        W24933  12.098  22.014   1.361
59949W        W24934  10.804  34.268   2.270
59950W        W24935  12.824   3.933  11.038
59951W        W24936  11.085  29.167  14.137
59952W        W24937  17.227  22.968  13.696
59953W        W24938  17.002  20.636   4.254
59954W        W24939  17.864  23.088   2.851
59955W        W24940  13.817  14.248   3.741
59956W        W24941  21.023  32.742  11.902
59957W        W24942  34.916  35.511  11.921
59958W        W24943  30.854   5.674  14.039
59959W        W24944  30.496  24.155  10.924
59960W        W24945  10.305  10.125   0.314
59961W        W24946  18.167  24.494  11.197
59962W        W24947  15.849   1.017   1.910
59963W        W24948   5.100   3.427  14.857
59964W        W24949   5.831  37.022  14.325
59965W        W24950  20.288  42.065   0.801
59966W        W24951  24.754  36.900  12.058
59967W        W24952   0.785  42.381   2.807
59968W        W24953  29.656   5.287  14.547
59969W        W24954  17.902   7.846  14.339
59970W        W24955  13.530  39.047   3.591
59971W        W24956  40.247  31.651   4.067
59972W        W24957  34.972  23.149  12.908
59973W        W24958  17.168   6.398  11.217
59974W        W24959   5.867  11.800  10.575
59975W        W24960  14.180  17.641   4.550
59976W        W24961  37.617  37.464  14.915
59977W        W24962  42.739  34.343   0.887
59978W        W24963  33.788  25.580  13.772
59979W        W24964  32.485   0.697   1.355
59980W        W24965   2.766  31.592  14.591
59981W        W24966  23.593  24.217  14.135
59982W        W24967   2.237  21.038   4.753
59983W        W24968  14.229  42.709  12.567
59984W        W24969  37.232  42.236   4.951
59985W        W24970  19.780  37.294  14.481
59986W        W24971  44.741  30.221   1.741
59987W        W24972  15.490  18.566  14.277
59988W        W24973  24.745  28.135   4.535
59989W        W24974  16.402  12.601  14.930
59990W        W24975   7.269  28.712   0.251
59991W        W24976  28.696  29.631  11.895
59992W        W24977   6.431  39.366  12.304
59993W        W24978  14.755  16.312  11.158
59994W        W24979  15.864  30.792   0.623
59995W        W24980  30.511  12.069   0.965
59996W        W24981  21.330  18.312   5.042
59997W        W24982  13.685  14.290  14.660
59998W        W24983  15.337  24.061  12.596
59999W        W24984  31.549  34.167  12.566
60000W        W24985  24.924  18.035  11.608
60001W        W24986  39.009  39.317   3.598
60002W        W24987  41.346  40.014   4.100
60003W        W24988  33.578   3.201   2.168
60004W        W24989  35.432  21.083   0.738
60005W        W24990  14.826  32.159   3.759
60006W        W24991  12.855  44.060   2.233
60007W        W24992   1.571   7.832   4.141
60008W        W24993   0.896  29.950  11.717
60009W        W24994  13.369   9.866   4.879
60010W        W24995   4.611   9.636   2.558
60011W        W24996  29.105  29.069  10.934
60012W        W24997  43.797  22.453  13.311
60013W        W24998   3.244   0.309   4.920
60014W        W24999   9.431  28.464  12.032
60015W        W25000  14.703  44.690  14.832
60016W        W25001   7.326   8.489  13.007
60017W        W25002  16.664  24.995  12.823
60018W        W25003  11.843   2.785   4.737
60019W        W25004  15.866  32.462  13.127
60020W        W25005  40.828  19.252   3.297
60021W        W25006   2.907   7.786   0.800
60022W        W25007   0.460  25.168  13.883
60023W        W25008  16.882  24.277  11.552
60024W        W25009   7.794  43.430  11.863
60025W        W25010  44.668  31.328   0.994
60026W        W25011  34.394  29.191   4.570
60027W        W25012  25.953  26.492  11.964
60028W        W25013  13.321   4.632   0.428
60029W        W25014  22.016  22.716  12.561
60030W        W25015  13.656  21.516   4.403
60031W        W25016  12.689  15.662   3.646
60032W        W25017  40.007  38.171   4.146
60033W        W25018  19.084  33.396  13.510
60034W        W25019  21.336  30.096   2.907
60035W        W25020  39.029  29.413  10.343
60036W        W25021  12.698  44.996   3.740
60037W        W25022  34.111  16.689   0.814
60038W        W25023  37.045  21.183   3.607
60039W        W25024  29.185   5.055   5.209
60040W        W25025   7.911  24.135  13.933
60041W        W25026   9.733  39.273   2.196
60042W        W25027  35.532   0.177   2.268
60043W        W25028   2.933  41.567  11.084
60044W        W25029  31.152  20.062   3.350
60045W        W25030  40.088  25.050  12.009
60046W        W25031   4.193   3.003   4.601
60047W        W25032  13.660   1.499  14.947
60048W        W25033   0.915  26.010   0.966
60049W        W25034  12.698  16.736  12.061
60050W        W25035  33.869  33.480   2.742
60051W        W25036  18.730  16.194   0.280
60052W        W25037  40.815  39.496   4.205
60053W        W25038  24.486  17.264  12.534
60054W        W25039  28.445  10.327   3.151
60055W        W25040  25.595   5.463   0.271
60056W        W25041  41.894  42.639  10.623
60057W        W25042  15.697  20.512  14.557
60058W        W25043  42.796  31.923  13.242
60059W        W25044  40.312   0.309   3.729
60060W        W25045  32.996  16.909  14.941
60061W        W25046  36.531  18.832   0.701
60062W        W25047  28.015  11.599   4.565
60063W        W25048  34.752  19.640  11.487
60064W        W25049  23.980  40.637   0.512
60065W        W25050   2.891   9.771  10.845
60066W        W25051   2.378  38.905   1.227
60067W        W25052   0.227  21.124  11.798
60068W        W25053  24.945  37.358   4.376
60069W        W25054   7.840  16.178   1.156
60070W        W25055  19.050  19.936  13.400
60071W        W25056  38.616   6.865  14.951
60072W        W25057  39.856  31.507  13.920
60073W        W25058  41.732  27.247   4.185
60074W        W25059  40.598  10.255   2.729
60075W        W25060  39.727  14.954   2.777
60076W        W25061  25.851  21.323  12.848
60077W        W25062   4.469  27.927   0.750
60078W        W25063  14.237  20.813   0.797
60079W        W25064  35.280  20.199  13.196
60080W        W25065  15.335  15.011  11.983
60081W        W25066  35.538   8.154  13.485
60082W        W25067   7.804  44.940  11.621
60083W        W25068  23.850  25.799  13.442
60084W        W25069  41.807  33.858  11.212
60085W        W25070  20.542  19.081   2.072
60086W        W25071  25.179  12.311  12.904
60087W        W25072  21.031  24.486  14.807
60088W        W25073  44.887  27.578   0.707
60089W        W25074  13.167   6.609   1.283
60090W        W25075  31.051  38.107  13.366
60091W        W25076  37.462  43.987   4.620
60092W        W25077  15.886  36.939  13.652
60093W        W25078  16.747  35.670  13.907
60094W        W25079  37.915  26.149  10.697
60095W        W25080  17.906  39.494  11.921
60096W        W25081  28.407  23.281   3.289
60097W        W25082  19.653  14.701   1.136
60098W        W25083  35.567  41.435   0.560
60099W        W25084   1.382  44.862  12.591
60100W        W25085  26.620  19.975  14.004
60101W        W25086  23.766  32.044   1.520
60102W        W25087  29.874  40.318  12.508
60103W        W25088  34.268   4.755   3.823
60104W        W25089  33.581  33.916  11.446
60105W        W25090  39.221  31.569  12.924
60106W        W25091  39.109  33.573  13.783
60107W        W25092  38.349  25.960  13.550
60108W        W25093  39.351  24.590   4.200
60109W        W25094  27.721   2.929   0.298
60110W        W25095  22.586  35.516   3.131
60111W        W25096   0.856  17.979  13.043
60112W        W25097  28.417  15.636  12.092
60113W        W25098  34.645   5.006   0.231
60114W        W25099  20.712   7.622  10.786
60115W        W25100  33.029   5.946   0.561
60116W        W25101  27.594  31.383   0.501
60117W        W25102   4.372  19.117  12.530
60118W        W25103  40.510  43.944  10.675
60119W        W25104  41.690  19.082  11.835
60120W        W25105  16.280  28.592   2.322
60121W        W25106  25.181  43.566  12.057
60122W        W25107  16.194   8.738   0.617
60123W        W25108  19.076  33.552   1.144
60124W        W25109  14.684  34.564  11.890
60125W        W25110  22.939  10.729  11.115
60126W        W25111  33.364   2.016   3.180
60127W        W25112  35.364  15.708   3.612
60128W        W25113  27.524  29.650  13.605
60129W        W25114  44.648  35.719   5.133
60130W        W25115   7.141   8.169  14.332
60131W        W25116  35.910  22.103   4.110
60132W        W25117  27.508  32.092  14.759
60133W        W25118  32.510  15.660  11.431
60134W        W25119  43.859  21.332   0.926
60135W        W25120   3.671  25.962  14.340
60136W        W25121  32.892  23.188  10.996
60137W        W25122   6.735  22.944  12.698
60138W        W25123  15.148  39.980   0.309
60139W        W25124   2.966  29.875  10.672
60140W        W25125  18.123   8.708  13.858
60141W        W25126  12.194  14.682   1.997
60142W        W25127  21.790  11.219  12.420
60143W        W25128   2.414  17.137   0.264
60144W        W25129  42.871  43.330  12.386
60145W        W25130  41.488  24.761   1.735
60146W        W25131  10.431  25.491  14.781
60147W        W25132   6.845  27.805   1.923
60148W        W25133  10.735  33.982   4.250
60149W        W25134  39.914  34.865  12.944
60150W        W25135   2.498   7.417  14.049
60151W        W25136   5.853  21.093   1.165
60152W        W25137   4.207   2.676   0.957
60153W        W25138  39.807   5.326  13.611
60154W        W25139  38.777  35.579  10.005
60155W        W25140  34.027  30.471   0.307
60156W        W25141  34.585  41.558   0.986
60157W        W25142  37.596  21.409   0.396
60158W        W25143  39.375  30.904   3.153
60159W        W25144  39.041   9.415  14.385
60160W        W25145  25.629  18.536  11.861
60161W        W25146   0.422  25.696   4.202
60162W        W25147  14.704  10.657  13.084
60163W        W25148  36.522   9.679  10.732
60164W        W25149  28.874   6.208  12.827
60165W        W25150  26.651   3.258  13.942
60166W        W25151  33.360  25.160  11.787
60167W        W25152  21.685  15.133  13.022
60168W        W25153  29.360  22.069  11.406
60169W        W25154  23.998  12.739  12.014
60170W        W25155   6.910  24.680   3.598
60171W        W25156  11.221  43.744   0.404
60172W        W25157  38.255   7.364   3.775
60173W        W25158   8.388  21.275   4.075
60174W        W25159   7.742  18.508   4.713
60175W        W25160  18.766  20.752  10.238
60176W        W25161   4.412  38.848  12.955
60177W        W25162  39.976   2.678  10.845
60178W        W25163  33.152  14.392  13.714
60179W        W25164  22.206  37.933  13.417
60180W        W25165  19.639  27.089  12.564
60181W        W25166  24.163   3.231   0.294
60182W        W25167   5.437  43.755   2.320
60183W        W25168  25.789  36.008   0.040
60184W        W25169   6.590   6.884  12.369
60185W        W25170   2.932  17.726   3.118
60186W        W25171  24.087   0.803  11.599
60187W        W25172  17.238  11.077  13.944
60188W        W25173   8.624  21.576  11.674
60189W        W25174  20.248  21.710  11.991
60190W        W25175   1.191  22.584   2.188
60191W        W25176  25.447   0.652   4.904
60192W        W25177  38.702  15.752  14.060
60193W        W25178  33.186  23.381   3.667
60194W        W25179  30.952  35.137   1.858
60195W        W25180   3.371  40.375  12.104
60196W        W25181  39.034  21.747   1.204
60197W        W25182  10.285  15.123  12.998
60198W        W25183  43.047   1.515   2.619
60199W        W25184   6.337  24.362   0.328
60200W        W25185  10.792  18.693   3.209
60201W        W25186   6.345  15.353  12.390
60202W        W25187  13.620  35.910  12.057
60203W        W25188  25.039  39.826   2.418
60204W        W25189  25.974  11.607  11.899
60205W        W25190  25.248   3.336  13.375
60206W        W25191  24.452   7.281  10.627
60207W        W25192   7.348  29.590  14.876
60208W        W25193  27.568  35.435   2.582
60209W        W25194  32.816  38.888   0.918
60210W        W25195  19.474  17.930   5.276
60211W        W25196  21.700  35.565   4.185
60212W        W25197  24.415  22.699  12.675
60213W        W25198  22.758  14.858   1.583
60214W        W25199  14.314  18.243  11.584
60215W        W25200  28.978  21.777  14.384
60216W        W25201  23.581   1.900  14.263
60217W        W25202   9.698  19.425   4.221
60218W        W25203   4.375  30.150   0.825
60219W        W25204  37.460  35.301   1.753
60220W        W25205  25.469  23.882   1.893
60221W        W25206  31.194  11.889  14.484
60222W        W25207  37.728   1.805   0.859
60223W        W25208  21.498  11.713   2.812
60224W        W25209  18.787  16.769  14.469
60225W        W25210  20.750  25.035  11.994
60226W        W25211   8.173  32.911  14.324
60227W        W25212  40.251  41.342  14.480
60228W        W25213  38.259  35.393   0.779
60229W        W25214  39.122  15.294   3.554
60230W        W25215  41.445  19.055  13.426
60231W        W25216  31.541  37.180   4.920
60232W        W25217   5.854  33.508  11.514
60233W        W25218  42.510  21.967  12.534
60234W        W25219  11.924  11.984  13.449
60235W        W25220  30.901  31.170  14.385
60236W        W25221  35.366  42.889  12.907
60237W        W25222  44.534   7.840  11.113
60238W        W25223  31.454  10.277   1.768
60239W        W25224  44.519  38.269  11.012
60240W        W25225  26.590   4.370   1.992
60241W        W25226  37.563  27.120   9.776
60242W        W25227   2.109  38.448   2.434
60243W        W25228  19.645   7.279   2.791
60244W        W25229  32.344  25.904   2.793
60245W        W25230  36.974  18.603  13.444
60246W        W25231  20.215  42.911   1.942
60247W        W25232   4.261  11.079   2.704
60248W        W25233  31.395   1.494  12.353
60249W        W25234  24.180   3.016  12.988
60250W        W25235  26.675   7.765   2.254
60251W        W25236  18.883   6.133  12.674
60252W        W25237  22.145  31.931  14.800
60253W        W25238   0.699  17.821   1.255
60254W        W25239   8.905  25.683   4.207
60255W        W25240   7.652   6.808   1.714
60256W        W25241  16.562  33.359  10.562
60257W        W25242  28.663  21.697  14.953
60258W        W25243  40.540  33.464  12.124
60259W        W25244  15.725  11.708   3.167
60260W        W25245  10.201  35.349  10.807
60261W        W25246  38.601  34.922  14.579
60262W        W25247   3.312  37.963   0.316
60263W        W25248  16.305  14.074   1.874
60264W        W25249  16.869   7.226  11.566
60265W        W25250  21.992  13.699  12.019
60266W        W25251   0.240  19.496   0.783
60267W        W25252  33.659  16.809  14.408
60268W        W25253  12.525  42.854  13.854
60269W        W25254  44.903  42.299  10.765
60270W        W25255   2.221  19.614  10.211
60271W        W25256  14.135  41.064  12.043
60272W        W25257  12.169  22.234   4.162
60273W        W25258  44.469   6.750   3.682
60274W        W25259  44.697  41.326  12.136
60275W        W25260  12.769  29.904  14.983
60276W        W25261  20.682   3.497   3.968
60277W        W25262  25.426  13.779   3.785
60278W        W25263  29.425  31.059   1.764
60279W        W25264  17.567  20.636  11.658
60280W        W25265  43.546  41.518  11.189
60281W        W25266  36.606  36.102  12.048
60282W        W25267  17.276  42.370  14.794
60283W        W25268  17.739  16.148   3.807
60284W        W25269   4.560  17.188   3.343
60285W        W25270  28.476  10.673  12.857
60286W        W25271  10.169   7.169  13.584
60287W        W25272  13.825  43.863  10.725
60288W        W25273   7.343  27.610   3.359
60289W        W25274  32.995   6.344  11.166
60290W        W25275  34.297  15.646   4.520
60291W        W25276  30.850  42.841  10.748
60292W        W25277  17.055  11.189  14.423
60293W        W25278  29.474  21.485   3.205
60294W        W25279  32.148  13.328   3.161
60295W        W25280  12.909  22.281   1.565
60296W        W25281   1.896   6.128   4.552
60297W        W25282  24.628  21.661  10.986
60298W        W25283  19.092  10.155   2.348
60299W        W25284  22.736   4.851   1.136
60300W        W25285  37.104  32.658   4.093
60301W        W25286   3.252  36.101  11.934
60302W        W25287  23.210  21.523   2.837
60303W        W25288  41.844  24.419  12.121
60304W        W25289  43.913  29.558  12.078
60305W        W25290   8.267  28.021  10.566
60306W        W25291  41.334  42.814  11.378
60307W        W25292  43.413  44.050  12.593
60308W        W25293  37.630   3.784   3.645
60309W        W25294  16.565  37.036  13.062
60310W        W25295   9.305  33.229   1.424
60311W        W25296  34.633  12.471  12.387
60312W        W25297  43.388  36.341  10.178
60313W        W25298  10.841  28.532   4.257
60314W        W25299   2.983  18.710  13.419
60315W        W25300   8.481   4.018  13.540
60316W        W25301   9.964  27.578  13.836
60317W        W25302  44.439   5.139   4.902
60318W        W25303  23.752  44.264   4.452
60319W        W25304  36.408  21.213   3.162
60320W        W25305  33.640   5.292  14.062
60321W        W25306  21.975  13.714  14.343
60322W        W25307  11.578  16.631   0.558
60323W        W25308   9.639  10.190   3.227
60324W        W25309  33.190   1.245  12.827
60325W        W25310  18.557  31.800  11.253
60326W        W25311  24.972  27.135  13.927
60327W        W25312  26.601   0.059  13.384
60328W        W25313  37.858  36.930   0.299
60329W        W25314  28.507   4.426  13.177
60330W        W25315   6.210  24.600   4.359
60331W        W25316  44.788  23.156   2.414
60332W        W25317  43.816  34.198   4.120
60333W        W25318  25.671  39.048   0.244
60334W        W25319  41.086  30.028  14.444
60335W        W25320  44.593  35.007   0.862
60336W        W25321  23.305  39.861   0.709
60337W        W25322  34.838  14.781   4.078
60338W        W25323  44.401   9.243   3.682
60339W        W25324   3.808  27.164  11.557
60340W        W25325   1.486  18.589   4.093
60341W        W25326  34.608   0.561   1.456
60342W        W25327  28.228  21.553  11.872
60343W        W25328   8.173   6.826   1.749
60344W        W25329   0.721  30.382  12.656
60345W        W25330   9.954  43.864  11.572
60346W        W25331  36.469  27.478  12.921
60347W        W25332  20.206  13.381   3.087
60348W        W25333  20.182  33.987   1.211
60349W        W25334   1.114  10.490   4.103
60350W        W25335  15.386  34.681  13.503
60351W        W25336  12.110  28.533  14.825
60352W        W25337  41.970  34.618  12.861
60353W        W25338   6.486  16.312  12.694
60354W        W25339  23.992  27.975  12.990
60355W        W25340  33.827  17.065  11.245
60356W        W25341  32.878  36.510  12.518
60357W        W25342   0.402  21.047  13.847
60358W        W25343  42.052  36.534  13.653
60359W        W25344  37.949  34.061   2.751
60360W        W25345   1.705   3.281  12.527
60361W        W25346  11.355  37.620   1.864
60362W        W25347  23.468  24.657  12.451
60363W        W25348   5.411  29.013   2.287
60364W        W25349   6.227  37.315   3.421
60365W        W25350   5.814  12.351  12.479
60366W        W25351   5.265  28.447   3.556
60367W        W25352  36.589   7.276  11.654
60368W        W25353  43.846  34.500   1.419
60369W        W25354  33.884  10.740   1.917
60370W        W25355  14.659  19.768  12.984
60371W        W25356  22.247  15.577  11.239
60372W        W25357  35.682  43.726  13.399
60373W        W25358  17.121  10.784  11.886
60374W        W25359   0.970  31.777  10.650
60375W        W25360  33.099  31.661   4.025
60376W        W25361  10.109  43.400  13.033
60377W        W25362  43.389  28.694   2.245
60378W        W25363  34.911  15.773  14.810
60379W        W25364  22.497  25.007   2.796
60380W        W25365  25.930  15.828   3.055
60381W        W25366  27.178   5.672   1.663
60382W        W25367   7.414  31.037   4.994
60383W        W25368   0.476   2.207   1.793
60384W        W25369   1.741  42.278   1.051
60385W        W25370  11.177  11.081  11.563
60386W        W25371   1.404   4.214  14.007
60387W        W25372   6.400  33.031  11.535
60388W        W25373  26.192  41.936   1.135
60389W        W25374  41.419   9.767   0.711
60390W        W25375  28.592  14.304  14.665
60391W        W25376  24.166   4.164  11.380
60392W        W25377  38.913  19.811   1.346
60393W        W25378  24.458  33.400  11.878
60394W        W25379  32.517  27.374   2.869
60395W        W25380  16.714   8.362   2.186
60396W        W25381  34.649  36.802   4.835
60397W        W25382  14.836   2.987   0.969
60398W        W25383  13.859   6.204   9.823
60399W        W25384  42.419  38.628   5.156
60400W        W25385  32.122  36.525   2.219
60401W        W25386  11.229   3.821  12.420
60402W        W25387  28.211  23.456   0.180
60403W        W25388   5.758  41.870  13.044
60404W        W25389  15.883  29.456  14.196
60405W        W25390  17.026  21.455  10.661
60406W        W25391   9.425   8.111   2.627
60407W        W25392   2.014  42.426   3.248
60408W        W25393  37.099  13.466   3.963
60409W        W25394  11.584   4.404  11.217
60410W        W25395  23.481  22.602   2.135
60411W        W25396  26.201  27.610   0.974
60412W        W25397  25.596  25.683  14.820
60413W        W25398  22.179  12.692  11.167
60414W        W25399  40.648  30.357  13.664
60415W        W25400  34.833  23.266  10.940
60416W        W25401  42.936  22.172   2.582
60417W        W25402  34.259  26.076  13.894
60418W        W25403   6.154   8.953  12.272
60419W        W25404  20.781  40.879  14.918
60420W        W25405   0.052  22.812  13.834
60421W        W25406  20.734  43.084  11.190
60422W        W25407  23.275  10.372  13.520
60423W        W25408   0.545  11.653  11.401
60424W        W25409  42.606   8.419   4.559
60425W        W25410  13.741  11.068  12.074
60426W        W25411  13.682  33.359   3.602
60427W        W25412   7.613  23.454   0.478
60428W        W25413  44.905  10.577   0.776
60429W        W25414   7.751  13.210   0.816
60430W        W25415  12.610  39.757  12.643
60431W        W25416  12.548  14.750   3.369
60432W        W25417  27.090  26.928  14.450
60433W        W25418  24.815  42.467   0.348
60434W        W25419  42.000  43.538  13.904
60435W        W25420  14.359  20.179   4.546
60436W        W25421  13.647  44.738   4.128
60437W        W25422  42.949  36.416  11.364
60438W        W25423  18.144  14.688   3.050
60439W        W25424  42.108   7.171  13.487
60440W        W25425  39.768  26.547  12.061
60441W        W25426  27.034   6.743   0.237
60442W        W25427  38.051  20.063   1.257
60443W        W25428  25.390  28.202  13.522
60444W        W25429   7.199  17.708  12.978
60445W        W25430   1.749  24.851   1.280
60446W        W25431  27.475  43.264   3.106
60447W        W25432   6.399  29.023   2.227
60448W        W25433  30.907  25.149  14.790
60449W        W25434   7.897  29.619   1.839
60450W        W25435  32.180  43.966   0.342
60451W        W25436  31.178  28.019  11.641
60452W        W25437   5.315  37.469   3.785
60453W        W25438   9.390  14.580   2.615
60454W        W25439   5.390  40.286  13.208
60455W        W25440   8.281  28.961   0.879
60456W        W25441  40.592  22.564   2.364
60457W        W25442  12.365  24.803  13.972
60458W        W25443  36.888  28.381  13.601
60459W        W25444  11.658  20.574  11.184
60460W        W25445   0.266  28.985   3.203
60461W        W25446   9.938  19.704  12.889
60462W        W25447   0.788  21.816   2.390
60463W        W25448  34.800  21.049  10.755
60464W        W25449   3.382  27.703  14.354
60465W        W25450  15.537  37.535  14.989
60466W        W25451  34.887   9.706   2.880
60467W        W25452   8.934   6.965   1.221
60468W        W25453   5.344   0.189   1.872
60469W        W25454  31.596  35.056  12.151
60470W        W25455   0.825   7.586   4.586
60471W        W25456  27.755   4.598   2.256
60472W        W25457  40.729   4.024   3.722
60473W        W25458  23.196  33.508   1.627
60474W        W25459  37.398  41.080   0.284
60475W        W25460  44.010  38.540   5.091
60476W        W25461   3.268   2.937  11.997
60477W        W25462  27.162  27.052   3.380
60478W        W25463  35.366  14.271  13.293
60479W        W25464   9.224   7.036  14.018
60480W        W25465  42.320  33.465  14.960
60481W        W25466  40.239   5.855   4.170
60482W        W25467  39.782  31.629  10.579
60483W        W25468   1.786  43.282   0.786
60484W        W25469  37.556  40.462   4.119
60485W        W25470  25.164   0.333   0.759
60486W        W25471  14.509  12.489  14.785
60487W        W25472  17.794  24.062  14.515
60488W        W25473   5.285  25.706  12.599
60489W        W25474  32.054  16.769   4.864
60490W        W25475   8.301  22.628   4.712
60491W        W25476  24.677  14.392  11.081
60492W        W25477  23.623  34.390  14.070
60493W        W25478  34.376  15.852  13.983
60494W        W25479  39.567  42.975  14.599
60495W        W25480   3.208  18.716   0.818
60496W        W25481   0.426  10.216   1.459
60497W        W25482  37.906  41.551  11.258
60498W        W25483   4.839  32.876   0.530
60499W        W25484  41.418   0.188  11.575
60500W        W25485  15.506  41.454  12.993
60501W        W25486  38.760  28.301  10.882
60502W        W25487  25.128  18.098   0.237
60503W        W25488   6.426  30.061  11.656
60504W        W25489  42.995  37.937   0.304
60505W        W25490  37.062   9.296  12.608
60506W        W25491  33.169  27.047   3.091
60507W        W25492  33.066  44.308   1.868
60508W        W25493  22.360   1.667  13.855
60509W        W25494   5.877  26.278  14.345
60510W        W25495  27.871  38.037   0.283
60511W        W25496  24.242  41.669  13.390
60512W        W25497  36.381  10.675   1.279
60513W        W25498  15.305  29.876  13.442
60514W        W25499  22.499  28.648  10.678
60515W        W25500  10.730  28.126   2.882
60516W        W25501  15.855  44.514   1.848
60517W        W25502   9.662  44.327   4.114
60518W        W25503  39.954  39.517   2.663
60519W        W25504   9.528  20.127  11.282
60520W        W25505  28.031   9.321  14.741
60521W        W25506  27.602  44.721  14.068
60522W        W25507  11.668  26.724  13.438
60523W        W25508  18.130  32.413  14.725
60524W        W25509  22.246  41.518   4.679
60525W        W25510  32.035  39.954   1.794
60526W        W25511  15.395   5.447  14.961
60527W        W25512   3.675  36.976  14.578
60528W        W25513  44.007   1.162  13.838
60529W        W25514  28.649  43.737  11.137
60530W        W25515   1.306  43.542   0.826
60531W        W25516  27.000   2.796   0.609
60532W        W25517  17.096  21.057   3.725
60533W        W25518   3.357  33.756   2.357
60534W        W25519  27.234  26.142   3.201
60535W        W25520  12.144  41.297   2.272
60536W        W25521  18.958   3.876  11.563
60537W        W25522   4.888   0.732  11.677
60538W        W25523  40.172   4.614   2.822
60539W        W25524  30.379  14.365   3.402
60540W        W25525  32.511  37.493  14.025
60541W        W25526  34.481  30.066   0.972
60542W        W25527  30.705  42.399  11.432
60543W        W25528  42.257  31.011  14.354
60544W        W25529   4.847   2.805  12.945
60545W        W25530  24.041   0.692  14.945
60546W        W25531  35.979   2.771  12.994
60547W        W25532  19.324   4.536   0.655
60548W        W25533  26.796   2.911  10.344
60549W        W25534  43.725  44.386  12.368
60550W        W25535  31.180   8.437  13.160
60551W        W25536  28.061  33.930  11.989
60552W        W25537  24.567   7.351   2.024
60553W        W25538  26.613   7.486   2.688
60554W        W25539  25.058  21.137  12.359
60555W        W25540  36.475   9.168  10.748
60556W        W25541   0.211  27.166   2.807
60557W        W25542  25.199  35.038  13.419
60558W        W25543  33.072   7.615  13.022
60559W        W25544   2.814  18.809  11.560
60560W        W25545   6.367  27.329   1.093
60561W        W25546   5.384   5.165  12.494
60562W        W25547  14.288  24.456   0.084
60563W        W25548  42.755   2.202  11.970
60564W        W25549  21.586   2.012  13.575
60565W        W25550   1.162   8.397  11.150
60566W        W25551  14.109  20.213  11.297
60567W        W25552  24.107  29.452  11.530
60568W        W25553   1.667  34.986   4.889
60569W        W25554  24.232  18.239  12.661
60570W        W25555  10.450   4.318   4.136
60571W        W25556  39.866  29.187   4.268
60572W        W25557  42.792  25.394  13.789
60573W        W25558  28.992   9.092  14.809
60574W        W25559  25.526  29.623   3.217
60575W        W25560  16.295  23.048   1.912
60576W        W25561   3.180  31.050  11.983
60577W        W25562  37.401  42.614  11.522
60578W        W25563  34.140  39.977   4.545
60579W        W25564  35.559  23.467   4.603
60580W        W25565  33.087  29.179  11.102
60581W        W25566  35.964   4.419   1.318
60582W        W25567  36.982  33.462  12.450
60583W        W25568  43.362  11.377  12.555
60584W        W25569   6.712   3.697   1.949
60585W        W25570  16.184   7.334   3.644
60586W        W25571   4.147  11.811  11.345
60587W        W25572  40.403  10.568   3.126
60588W        W25573  43.800   6.777   2.364
60589W        W25574  24.188  15.864  11.578
60590W        W25575   8.340   8.820   3.299
60591W        W25576   7.109  36.675  11.163
60592W        W25577  39.562  35.003   0.330
60593W        W25578  37.480  17.861   0.985
60594W        W25579   2.880  20.718   3.386
60595W        W25580  13.912  15.582  14.266
60596W        W25581  22.735   5.192  10.666
60597W        W25582  32.400   9.451   5.415
60598W        W25583  34.092  42.057  11.970
60599W        W25584  30.118  39.370   3.048
60600W        W25585   3.287  39.951   4.319
60601W        W25586   7.801  22.207  13.995
60602W        W25587   3.128  19.712   2.846
60603W        W25588  37.881  11.129  10.691
60604W        W25589  32.862  40.434  11.158
60605W        W25590  36.669  17.119   4.592
60606W        W25591  37.814   8.228  13.439
60607W        W25592  14.104  14.117   1.255
60608W        W25593  14.006   2.390   1.885
60609W        W25594  27.135  27.491  10.386
60610W        W25595  35.820  13.159  12.098
60611W        W25596  35.889   2.685   3.718
60612W        W25597   1.499   3.048   0.815
60613W        W25598  26.167  16.039   2.656
60614W        W25599  16.168  30.047   9.927
60615W        W25600  38.055  19.551  14.037
60616W        W25601  32.634  42.095  11.220
60617W        W25602   0.449  29.977  12.493
60618W        W25603  26.759   5.938  11.068
60619W        W25604  17.721  19.575  13.256
60620W        W25605   6.023  18.001   2.404
60621W        W25606   0.807  16.781   2.180
60622W        W25607  21.145  40.913  14.314
60623W        W25608  28.232   1.743   1.890
60624W        W25609   6.843   7.729   2.081
60625W        W25610  31.190  44.086  10.652
60626W        W25611   1.949  31.615   4.644
60627W        W25612  28.703  43.861   4.485
60628W        W25613  13.982  38.154   3.036
60629W        W25614   6.407  15.379  14.713
60630W        W25615  24.344  31.580   2.149
60631W        W25616  39.587  38.681  10.831
60632W        W25617  18.178  12.671  11.311
60633W        W25618  22.623  36.568  13.460
60634W        W25619   7.665   5.177   3.237
60635W        W25620  14.713  12.897  12.547
60636W        W25621  28.414  36.767   0.058
60637W        W25622  19.764  40.815   3.738
60638W        W25623   7.322  37.871   4.215
60639W        W25624  41.048  39.050  12.444
60640W        W25625  17.991  15.222  14.918
60641W        W25626   3.446  41.411   0.712
60642W        W25627  30.505  14.731  14.854
60643W        W25628  26.596  10.854  13.062
60644W        W25629  26.418  41.302   3.220
60645W        W25630   5.261   0.846   3.152
60646W        W25631  29.928  31.884   2.759
60647W        W25632  15.751  23.561   2.437
60648W        W25633  17.425  18.623   4.979
60649W        W25634  44.034  10.361   2.938
60650W        W25635  24.530  36.940   0.446
60651W        W25636   5.851   2.167  13.157
60652W        W25637  26.979  23.516  11.652
60653W        W25638  13.020  41.183   0.321
60654W        W25639   2.330   6.666   4.146
60655W        W25640   5.463   0.627  12.543
60656W        W25641   4.002   4.955   1.691
60657W        W25642  24.663  34.865  10.641
60658W        W25643  31.937   7.686   1.460
60659W        W25644   6.241  25.010  11.467
60660W        W25645  36.138  31.331   4.547
60661W        W25646  37.662   1.468   1.270
60662W        W25647  12.841  26.150   2.230
60663W        W25648   0.800  32.932   4.845
60664W        W25649  34.286  11.307  13.333
60665W        W25650  27.536   4.223   1.954
60666W        W25651  38.464  29.208   3.647
60667W        W25652  18.836   5.288  10.602
60668W        W25653  17.033  31.972  13.301
60669W        W25654  32.442  35.420   0.031
60670W        W25655  25.064  12.317   1.153
60671W        W25656  17.896   8.646  14.309
60672W        W25657  39.100  40.045  12.379
60673W        W25658  39.347  13.327   1.923
60674W        W25659  12.750   3.961   1.725
60675W        W25660  29.992  26.888  13.593
60676W        W25661  12.342  31.662   3.549
60677W        W25662  31.373   0.350  14.886
60678W        W25663  30.394  17.831  12.917
60679W        W25664  25.084  24.909  12.894
60680W        W25665  41.516   8.573  14.829
60681W        W25666  14.845   7.113   2.740
60682W        W25667  36.035  36.506   0.851
60683W        W25668  43.638  34.913  12.812
60684W        W25669  34.097   2.958   0.086
60685W        W25670  31.951  12.764  13.988
60686W        W25671  31.823  33.434  13.603
60687W        W25672  12.566  43.711   0.632
60688W        W25673  44.000  24.364  10.669
60689W        W25674  18.266  30.648  10.964
60690W        W25675  40.332  23.521   0.698
60691W        W25676   9.760   3.774   4.120
60692W        W25677  37.496  31.378  10.935
60693W        W25678   9.222  21.241   2.698
60694W        W25679  17.759  28.038  14.926
60695W        W25680  12.473  40.988  14.790
60696W        W25681  18.552   7.872  10.610
60697W        W25682   7.458  41.943   0.821
60698W        W25683  38.775  29.335  14.503
60699W        W25684  37.143  32.688  13.966
60700W        W25685  14.197  22.075   3.942
60701W        W25686  42.716  19.962  10.231
60702W        W25687  38.304  14.781  10.540
60703W        W25688  36.891   9.770  12.453
60704W        W25689  13.546  27.266  14.383
60705W        W25690   0.507   8.176  12.845
60706W        W25691   5.410  17.695  12.522
60707W        W25692  22.570   9.781   3.090
60708W        W25693   1.717  19.819   4.361
60709W        W25694  28.544  39.787  11.938
60710W        W25695  37.934   1.465  11.148
60711W        W25696  13.243  27.526  13.506
60712W        W25697  44.543  32.674  13.608
60713W        W25698  26.702  32.132  13.509
60714W        W25699  42.331  21.387   2.754
60715W        W25700  16.410   8.835   1.464
60716W        W25701  21.914   7.835   0.322
60717W        W25702  40.924  28.127  11.692
60718W        W25703   0.042  25.696  11.804
60719W        W25704  19.249  44.858   2.056
60720W        W25705   4.368  13.395   3.345
60721W        W25706   9.968  33.731  14.936
60722W        W25707  32.207  11.885   3.698
60723W        W25708   2.373  17.524   2.482
60724W        W25709  19.674  28.137  13.525
60725W        W25710  37.883   3.427  13.369
60726W        W25711  41.521   2.864  13.760
60727W        W25712  28.858  15.794   4.560
60728W        W25713   5.306  40.033  14.932
60729W        W25714  37.365  16.570   3.186
60730W        W25715   7.863  33.011  12.802
60731W        W25716  41.217  43.390   3.338
60732W        W25717  36.427   8.113  13.360
60733W        W25718   8.103  11.370   2.391
60734W        W25719  11.696  17.029   4.146
60735W        W25720  31.041   2.917   1.232
60736W        W25721  15.166  39.047   4.280
60737W        W25722  28.575  11.591   2.646
60738W        W25723  17.208  37.335   0.879
60739W        W25724  13.554  14.720   2.150
60740W        W25725  30.956  42.471   0.996
60741W        W25726  36.373   5.313  12.596
60742W        W25727  20.521   0.622   0.869
60743W        W25728   7.262  11.881   3.744
60744W        W25729  31.093  12.593  12.668
60745W        W25730  21.970  41.811   0.334
60746W        W25731  30.440  36.857  11.555
60747W        W25732  42.007   3.931   0.791
60748W        W25733   8.318  36.560  13.074
60749W        W25734  23.553  21.684  12.489
60750W        W25735  40.306  42.259   1.248
60751W        W25736  17.291  34.779  13.590
60752W        W25737  20.155   2.440   2.652
60753W        W25738  26.912  38.470   1.296
60754W        W25739  27.112  32.260   5.185
60755W        W25740   7.041  15.740   2.994
60756W        W25741   6.817  40.517  13.555
60757W        W25742  14.150  25.013  11.637
60758W        W25743  40.158  40.450   3.300
60759W        W25744  42.453  27.767  13.397
60760W        W25745  41.479  37.477   0.294
60761W        W25746  42.680   3.560   4.059
60762W        W25747  34.005  19.755   2.210
60763W        W25748  15.082  36.527   0.049
60764W        W25749   3.350  36.547   0.704
60765W        W25750  39.871  15.587   1.856
60766W        W25751  14.370  42.110  12.093
60767W        W25752  44.142   6.019  10.222
60768W        W25753   3.976  25.234   3.089
60769W        W25754  20.338  15.460   1.078
60770W        W25755  21.380  31.177  12.557
60771W        W25756   1.642  37.794   3.178
60772W        W25757  31.456   5.310  10.618
60773W        W25758  23.624  16.171  14.704
60774W        W25759   9.787  25.991   3.736
60775W        W25760  41.568  36.418  12.954
60776W        W25761  33.320   5.673   3.833
60777W        W25762  12.163  23.475   2.605
60778W        W25763   9.870   7.828   1.362
60779W        W25764  24.947  21.272  10.195
60780W        W25765   4.825  32.279   4.365
60781W        W25766  13.659  30.684   2.381
60782W        W25767  44.565  14.995  10.317
60783W        W25768   3.278  41.397   2.583
60784W        W25769  32.871  33.607   3.659
60785W        W25770  27.226  29.257   2.819
60786W        W25771   5.734  33.579   0.232
60787W        W25772  13.703  38.343   4.194
60788W        W25773   9.682   4.640  12.396
60789W        W25774   1.024  22.982  12.973
60790W        W25775  41.280  19.862  11.416
60791W        W25776  21.454  30.824  14.464
60792W        W25777  34.168  35.851   2.345
60793W        W25778   8.723   8.939  12.454
60794W        W25779   4.710  30.494  10.556
60795W        W25780  18.658  20.484  12.804
60796W        W25781  18.088  40.864   0.499
60797W        W25782  14.998  34.531   0.768
60798W        W25783  30.643  22.616   3.178
60799W        W25784  32.259  10.596   2.710
60800W        W25785  29.480  30.274  13.862
60801W        W25786   6.669  29.912   1.894
60802W        W25787  21.720  28.525  10.966
60803W        W25788  17.255  41.403   0.775
60804W        W25789  15.877  30.419  14.308
60805W        W25790  36.421  29.474   3.101
60806W        W25791  14.725  33.948   3.993
60807W        W25792  41.197   7.288  11.651
60808W        W25793   5.360  40.332   4.298
60809W        W25794  10.573   5.485   1.867
60810W        W25795   3.490  36.560   2.649
60811W        W25796  21.735   6.241  11.352
60812W        W25797   3.431   7.477   3.820
60813W        W25798   0.056  39.527   3.682
60814W        W25799  21.694  13.925   1.892
60815W        W25800  26.886   5.391  14.833
60816W        W25801  11.344  16.746  10.743
60817W        W25802  28.425   3.261  13.911
60818W        W25803  43.557   7.204  12.560
60819W        W25804  38.879   3.563  11.698
60820W        W25805  15.306  20.213  10.661
60821W        W25806  18.620  32.050  11.975
60822W        W25807  12.833   6.715  14.769
60823W        W25808  37.487  27.118   1.225
60824W        W25809  15.608  21.857   4.715
60825W        W25810   8.988  44.089   3.103
60826W        W25811  10.816  42.740   0.437
60827W        W25812  25.008   7.519   4.915
60828W        W25813  29.375   5.488   2.741
60829W        W25814  29.769  23.588  12.952
60830W        W25815  31.681  37.786   3.156
60831W        W25816  27.608   4.521  10.314
60832W        W25817  25.954  16.457   4.552
60833W        W25818   7.312  35.116   1.880
60834W        W25819   5.139   5.583  11.589
60835W        W25820   0.743   4.799  14.653
60836W        W25821  31.662  42.703   4.035
60837W        W25822  35.876  27.936   1.441
60838W        W25823  25.193  10.788   4.781
60839W        W25824  22.308  21.116   0.716
60840W        W25825  17.290   3.828  10.723
60841W        W25826  18.754  44.913  14.697
60842W        W25827  31.151  41.059   4.496
60843W        W25828  19.529  28.175  12.167
60844W        W25829  21.572  41.459   3.907
60845W        W25830   7.079  29.091  10.542
60846W        W25831  33.343  20.013   1.622
60847W        W25832  23.230   1.580  11.185
60848W        W25833  44.309  34.532   2.782
60849W        W25834   4.684  33.001  13.404
60850W        W25835  37.985  14.828  12.934
60851W        W25836  26.617  43.437   2.313
60852W        W25837  27.164  32.888  11.833
60853W        W25838  26.988  13.452   1.557
60854W        W25839  24.971  32.876   0.127
60855W        W25840   5.711   4.572  10.834
60856W        W25841  28.647  34.777  13.029
60857W        W25842  19.607   7.373  13.667
60858W        W25843  42.075  42.817   1.495
60859W        W25844   6.493   8.105  11.962
60860W        W25845  30.244  14.751   1.720
60861W        W25846  37.426  23.532   2.903
60862W        W25847   4.391  25.226  12.818
60863W        W25848  30.481  15.867   0.777
60864W        W25849  36.376  24.980  12.744
60865W        W25850   1.979  23.738  11.593
60866W        W25851   3.167  22.594   0.042
60867W        W25852   7.498  19.089   1.865
60868W        W25853   7.689  39.848   4.164
60869W        W25854  31.128  38.430   4.748
60870W        W25855  21.674  13.285  14.863
60871W        W25856   5.644  19.737   1.383
60872W        W25857  17.478  18.157  13.270
60873W        W25858  21.570  33.610   3.186
60874W        W25859  28.473  35.319  11.677
60875W        W25860  16.258  38.334   3.676
60876W        W25861  20.384  18.581   2.281
60877W        W25862   3.923   3.990   1.210
60878W        W25863  33.097   7.344  14.466
60879W        W25864  35.084  43.945  11.591
60880W        W25865  14.017  40.432  14.310
60881W        W25866  43.694  24.236  11.921
60882W        W25867  31.925  19.046   1.803
60883W        W25868  38.612   0.809  13.894
60884W        W25869   6.090  33.360   2.882
60885W        W25870   3.052  36.896  11.554
60886W        W25871   7.446   6.263  14.727
60887W        W25872  14.168  33.974  11.239
60888W        W25873  43.377  27.172   2.440
60889W        W25874  13.635  34.162  12.712
60890W        W25875  27.096  35.837   2.398
60891W        W25876   4.395   9.516   1.193
60892W        W25877   1.229  12.701   4.132
60893W        W25878  25.623  44.542  11.189
60894W        W25879  15.454   7.311  14.773
60895W        W25880  39.993   9.717  11.127
60896W        W25881  12.560  35.053  12.419
60897W        W25882  23.971  22.255   0.870
60898W        W25883   2.897  17.521   2.658
60899W        W25884  18.167   3.854   0.778
60900W        W25885   2.199   4.032   1.356
60901W        W25886  23.275  20.236   0.272
60902W        W25887   2.844  17.307  12.444
60903W        W25888  44.217  44.072   1.754
60904W        W25889  11.336  36.398   2.322
60905W        W25890  37.666   2.381   1.169
60906W        W25891  11.719   6.787  12.959
60907W        W25892  26.915  10.719   4.101
60908W        W25893  38.577  19.544   1.813
60909W        W25894   4.315  15.761  14.023
60910W        W25895  10.688  29.537  14.818
60911W        W25896  33.626  20.482  13.899
60912W        W25897   5.363  28.410   1.682
60913W        W25898   1.962  18.884   4.216
60914W        W25899  37.847   4.458  11.899
60915W        W25900  26.043  22.992   0.275
60916W        W25901  39.479  44.260  12.929
60917W        W25902   8.088  34.122   4.053
60918W        W25903   2.733  22.740   3.280
60919W        W25904  26.452   5.939  11.491
60920W        W25905  11.098   8.793  14.875
60921W        W25906  18.153   3.978   0.179
60922W        W25907  31.576  12.243  14.545
60923W        W25908   1.989  31.942   5.090
60924W        W25909   8.460  34.166   2.863
60925W        W25910   2.224  40.074  12.086
60926W        W25911   8.441  29.429   3.782
60927W        W25912  42.331  44.723   4.091
60928W        W25913  37.160  37.138  14.997
60929W        W25914  28.247  21.139  10.741
60930W        W25915  42.444   9.189  13.824
60931W        W25916  22.642  33.209   1.866
60932W        W25917  26.727   1.900   1.651
60933W        W25918  33.140  26.866  12.803
60934W        W25919  36.525   0.227   0.850
60935W        W25920  24.191  36.003  12.132
60936W        W25921   5.460   3.368   0.208
60937W        W25922  21.734  16.027   2.571
60938W        W25923  34.654  15.613   1.805
60939W        W25924   4.654  34.991   4.566
60940W        W25925   9.557  37.362   2.755
60941W        W25926  41.803  14.630   4.750
60942W        W25927  23.050   3.136   0.958
60943W        W25928  36.390   6.162  10.356
60944W        W25929  42.095  38.097  10.336
60945W        W25930  16.348  33.900  13.966
60946W        W25931  19.616  43.716  13.534
60947W        W25932  38.287  23.996  13.596
60948W        W25933  40.471  20.571   1.561
60949W        W25934  17.818   1.882  14.042
60950W        W25935  16.769  27.991  10.955
60951W        W25936  18.377  20.711   4.498
60952W        W25937  23.579   3.290   1.658
60953W        W25938  14.190   0.399   3.134
60954W        W25939  11.326  29.958  12.555
60955W        W25940  28.959  16.572   2.168
60956W        W25941  15.976  30.480  10.646
60957W        W25942  31.192  27.003  10.962
60958W        W25943  15.135  30.624   0.475
60959W        W25944  19.802  32.431  14.928
60960W        W25945  33.726  18.838  14.776
60961W        W25946   6.231   9.092  11.743
60962W        W25947   9.608  26.559  11.595
60963W        W25948  17.516  23.070   4.210
60964W        W25949  29.466   2.892   3.466
60965W        W25950  22.996  23.594   1.876
60966W        W25951  28.098  38.150   1.442
60967W        W25952  43.824  19.350  11.933
60968W        W25953  14.074  19.566   2.216
60969W        W25954  14.137   9.529   0.924
60970W        W25955  20.574  23.624  10.344
60971W        W25956   8.810  30.851   3.891
60972W        W25957  17.934  23.644  14.265
60973W        W25958  32.117  12.626   0.284
60974W        W25959   4.227  40.506  11.514
60975W        W25960  18.343  32.226   2.498
60976W        W25961  30.461  36.563  12.648
60977W        W25962   6.303  16.253  13.551
60978W        W25963   2.459  14.091   0.878
60979W        W25964  12.592  23.702   1.253
60980W        W25965  33.018   6.184   2.370
60981W        W25966   5.136  26.639  12.448
60982W        W25967   9.896  12.920  14.435
60983W        W25968  28.617  31.186   3.258
60984W        W25969  32.463  31.412   3.194
60985W        W25970  42.133  30.712  11.634
60986W        W25971  39.284  26.238  14.036
60987W        W25972   9.474  44.238   3.094
60988W        W25973  31.411  41.349   1.302
60989W        W25974  38.446   5.373  14.291
60990W        W25975  40.162  30.955  12.012
60991W        W25976  11.843   8.728   2.158
60992W        W25977  37.286  37.382   4.444
60993W        W25978  21.523  30.022  14.922
60994W        W25979   7.208  31.810  12.738
60995W        W25980  36.096  33.161   2.092
60996W        W25981  22.482  21.286  11.615
60997W        W25982  15.723  41.017   0.278
60998W        W25983  13.886   0.947   1.842
60999W        W25984   3.609  13.418   0.548
61000W        W25985  19.825  42.947  11.170
61001W        W25986  25.965  17.018   2.664
61002W        W25987  35.401   6.177   4.041
61003W        W25988  20.453  30.470   0.533
61004W        W25989   2.431   9.242  12.509
61005W        W25990  11.179  35.445   0.810
61006W        W25991  29.555   7.424   3.202
61007W        W25992  13.701  23.115   2.445
61008W        W25993   5.361   0.581   4.109
61009W        W25994  30.727   8.968   2.175
61010W        W25995   2.313  34.501   0.271
61011W        W25996   7.720  12.565  14.803
61012W        W25997  26.099  30.970  13.062
61013W        W25998  19.650   5.458  10.122
61014W        W25999  15.269  34.497   2.701
61015W        W26000   3.019  15.588  12.536
61016W        W26001   4.659  43.508  11.991
61017W        W26002  36.902  44.242  11.058
61018W        W26003  16.528  34.379  13.891
61019W        W26004  20.127  16.540   3.273
61020W        W26005   2.744  22.787  14.799
61021W        W26006  41.884  30.340   1.350
61022W        W26007  20.040  24.132   1.993
61023W        W26008  20.329  41.831  13.967
61024W        W26009   6.865  41.315  14.198
61025W        W26010   1.853  28.095  13.019
61026W        W26011   5.158  43.839   3.228
61027W        W26012  20.625  24.299  13.455
61028W        W26013  10.793  28.340  13.125
61029W        W26014  34.578  24.751  10.793
61030W        W26015  29.535  30.341   0.292
61031W        W26016  15.652  41.936  11.656
61032W        W26017  43.390  42.007  11.051
61033W        W26018   4.069  18.182  11.944
61034W        W26019  26.475  24.804  12.517
61035W        W26020  27.545   0.829  14.597
61036W        W26021   1.241  39.789  11.221
61037W        W26022  11.418  43.968  12.222
61038W        W26023  36.990  20.300  10.702
61039W        W26024  18.747  41.007  12.961
61040W        W26025  20.061  12.195   4.167
61041W        W26026  33.821  42.767   2.667
61042W        W26027  30.902  15.409   4.062
61043W        W26028  17.797  42.396  14.774
61044W        W26029  15.008   4.266  12.478
61045W        W26030  35.832  37.331   4.156
61046W        W26031  39.057  30.025  12.409
61047W        W26032  41.833  26.194  14.503
61048W        W26033   5.792  38.957   4.592
61049W        W26034  31.628   6.585   1.666
61050W        W26035  24.180  32.942  11.909
61051W        W26036  17.393  30.411   2.725
61052W        W26037  35.203  14.622   4.798
61053W        W26038  17.696  26.945   1.274
61054W        W26039  18.800  29.468  14.329
61055W        W26040   0.783  22.542  13.518
61056W        W26041  25.975  18.763  14.236
61057W        W26042  16.934  26.290  12.380
61058W        W26043  31.644  29.830  14.971
61059W        W26044   6.644   5.777   2.659
61060W        W26045  16.756  12.197   2.047
61061W        W26046  16.332  42.964  14.461
61062W        W26047  20.275  30.433   3.042
61063W        W26048  16.572  39.460   0.790
61064W        W26049  39.419  43.602  10.767
61065W        W26050  25.847  37.114   1.929
61066W        W26051  13.535  19.486   1.784
61067W        W26052  27.809  20.081   4.569
61068W        W26053  16.644  22.477  14.029
61069W        W26054  42.707   5.203  14.453
61070W        W26055  12.560  35.391  11.614
61071W        W26056  24.499  19.034   0.379
61072W        W26057  12.686  35.533   4.754
61073W        W26058  31.956  13.118  12.145
61074W        W26059  23.119   4.765   1.609
61075W        W26060   8.752   2.809   1.294
61076W        W26061  34.711   1.426   0.615
61077W        W26062  13.612  23.227  14.331
61078W        W26063  38.532  37.104   1.368
61079W        W26064  27.511  26.897  12.011
61080W        W26065  17.164  14.742  13.605
61081W        W26066   4.594  38.184   1.476
61082W        W26067   1.329  42.258  12.635
61083W        W26068  37.620   6.721   0.796
61084W        W26069  21.209  39.616  13.828
61085W        W26070   9.702  15.374   2.691
61086W        W26071   7.692  44.920   0.803
61087W        W26072  20.616   2.483  10.735
61088W        W26073  12.128  18.794   1.822
61089W        W26074  25.089   2.754   4.110
61090W        W26075  22.642   7.698   2.737
61091W        W26076  34.597   4.618  13.145
61092W        W26077  10.586   3.321  13.965
61093W        W26078  28.903  14.050  14.346
61094W        W26079   7.948  34.584  10.710
61095W        W26080   1.025  23.178  11.736
61096W        W26081  39.372   2.667  12.695
61097W        W26082  31.635  11.368  12.539
61098W        W26083  13.664   7.009   3.739
61099W        W26084  16.216  24.583   4.030
61100W        W26085  20.160   2.133   0.016
61101W        W26086  29.892  18.505  14.953
61102W        W26087  28.910   9.722   3.748
61103W        W26088  23.276  24.812  13.048
61104W        W26089   4.729  12.815  13.586
61105W        W26090   3.091  34.790  13.773
61106W        W26091  19.886  20.561   3.363
61107W        W26092  33.199  15.054   2.411
61108W        W26093  21.115   7.865   0.028
61109W        W26094   7.391  30.119  10.642
61110W        W26095   1.442  37.739  12.270
61111W        W26096  33.337  31.378  11.258
61112W        W26097  17.171  28.039   0.942
61113W        W26098  15.138  37.583   3.825
61114W        W26099   2.642  26.257  12.057
61115W        W26100  10.274  41.278   4.136
61116W        W26101  21.522  21.461  12.530
61117W        W26102   3.882  36.334   3.557
61118W        W26103  13.808  38.060   2.572
61119W        W26104   6.625  26.503   3.172
61120W        W26105  35.400  40.387   4.256
61121W        W26106  37.868  34.467   1.628
61122W        W26107  32.455  27.134   0.773
61123W        W26108  44.844  11.080   0.674
61124W        W26109  31.868  26.806  13.925
61125W        W26110  43.539  35.497  13.675
61126W        W26111  14.746  17.456   4.459
61127W        W26112   4.224   5.180  10.976
61128W        W26113  37.620  12.485   1.037
61129W        W26114  30.990  40.557  10.705
61130W        W26115   8.399  29.186  13.560
61131W        W26116  17.678   4.267  12.234
61132W        W26117  24.112  37.088   0.757
61133W        W26118  31.468  16.877  11.467
61134W        W26119  14.854  18.067   0.966
61135W        W26120  35.050  23.975  14.919
61136W        W26121   0.793  19.268   2.361
61137W        W26122   1.432  10.101  11.847
61138W        W26123   3.879  43.290   3.874
61139W        W26124   1.430  39.748   0.265
61140W        W26125  29.013  36.546  13.125
61141W        W26126  26.654  35.648   2.196
61142W        W26127  37.962   0.320  11.851
61143W        W26128  37.958  10.218   4.289
61144W        W26129  13.928   2.876  14.203
61145W        W26130  27.560  15.777  12.923
61146W        W26131  42.274  36.936   2.295
61147W        W26132  20.487  25.512   4.471
61148W        W26133   3.400   4.908   3.305
61149W        W26134  17.599  24.754   1.257
61150W        W26135  25.159   7.412   3.580
61151W        W26136  12.858  32.918  11.571
61152W        W26137  25.514  41.042  12.431
61153W        W26138  11.717  39.768   3.679
61154W        W26139  36.302  33.750  11.140
61155W        W26140  30.383  12.352  14.537
61156W        W26141  12.582  12.422   0.920
61157W        W26142   7.433  19.329  13.077
61158W        W26143   2.488  37.431  12.902
61159W        W26144  22.286   6.087   0.839
61160W        W26145   0.072   9.802   0.039
61161W        W26146  30.370   8.710  11.702
61162W        W26147  16.518  18.775   4.578
61163W        W26148  30.093  21.821   3.943
61164W        W26149  39.536  38.979  12.606
61165W        W26150   9.864  43.378  14.785
61166W        W26151  32.031  26.677   2.361
61167W        W26152   4.025  38.470  13.042
61168W        W26153   8.319  34.192  10.749
61169W        W26154   6.944  16.998  11.967
61170W        W26155   0.519  32.140  11.514
61171W        W26156  13.620  31.753   4.563
61172W        W26157  41.637  13.705  13.050
61173W        W26158   1.062  34.986   3.117
61174W        W26159  44.891  42.585   4.749
61175W        W26160  16.725  10.713   3.010
61176W        W26161  22.236  36.993  10.569
61177W        W26162  18.221  34.632   4.966
61178W        W26163  43.805  30.541  14.867
61179W        W26164   8.126  17.985   3.711
61180W        W26165  42.996  10.947   0.881
61181W        W26166  27.349  14.611   0.840
61182W        W26167  34.040  42.890  14.685
61183W        W26168   1.692  26.924   4.259
61184W        W26169   2.906  36.640  11.971
61185W        W26170  20.574  31.991   0.338
61186W        W26171  12.883  27.217  12.925
61187W        W26172   8.619  28.429   3.718
61188W        W26173  14.574  31.446   2.815
61189W        W26174  11.995  36.022  13.458
61190W        W26175  43.041   4.778  10.722
61191W        W26176   0.710  34.180  12.450
61192W        W26177  38.130  43.613   2.940
61193W        W26178  40.939   0.893  14.364
61194W        W26179  37.417  40.907   4.904
61195W        W26180  16.283  17.342  10.630
61196W        W26181  32.452  29.479   3.796
61197W        W26182  28.898  44.317   4.113
61198W        W26183  44.504  22.132   1.698
61199W        W26184  17.135  39.318  14.896
61200W        W26185  36.076   8.843   3.872
61201W        W26186  42.836  20.395  13.402
61202W        W26187  35.390  13.947   4.974
61203W        W26188  23.043   1.494   3.156
61204W        W26189  10.877  33.494   4.158
61205W        W26190  29.387  28.792  11.246
61206W        W26191  26.244  26.823   0.292
61207W        W26192  30.107  19.640  11.934
61208W        W26193  15.889  25.209  12.889
61209W        W26194  24.130  11.368  11.417
61210W        W26195  42.433  40.149   2.319
61211W        W26196  21.130  16.227  13.953
61212W        W26197  11.128  24.800   4.433
61213W        W26198  41.663  10.609  11.452
61214W        W26199  36.973  19.983   0.440
61215W        W26200  23.090  11.700  11.464
61216W        W26201  38.109   6.741   3.125
61217W        W26202  25.212  32.868   3.067
61218W        W26203  10.642   5.295   4.913
61219W        W26204  16.636  39.079  12.936
61220W        W26205  34.013  36.602  11.989
61221W        W26206  33.057  27.450  11.200
61222W        W26207  14.423  26.656  12.353
61223W        W26208  42.727  22.412  12.775
61224W        W26209  27.501  42.356  12.354
61225W        W26210  36.507  40.553  11.505
61226W        W26211  19.274  13.650   0.975
61227W        W26212  34.217  42.339   0.835
61228W        W26213   1.152  30.986  12.144
61229W        W26214   4.952  15.757  11.611
61230W        W26215  18.608   0.302   0.549
61231W        W26216  10.474  15.113  14.509
61232W        W26217  22.631  19.494   0.940
61233W        W26218  23.690  12.159   2.189
61234W        W26219  12.768  13.027   1.407
61235W        W26220  36.530   8.623   3.798
61236W        W26221  22.951  11.643  14.390
61237W        W26222  38.405   5.678  13.885
61238W        W26223  29.991  31.839  10.320
61239W        W26224  17.473  10.745   0.800
61240W        W26225  37.911  16.591  13.329
61241W        W26226  24.176  22.260   0.388
61242W        W26227  33.989  36.973   1.332
61243W        W26228  35.440   3.856   0.902
61244W        W26229  32.104  19.478   0.818
61245W        W26230  28.111   3.899   3.881
61246W        W26231   3.182   0.959  13.192
61247W        W26232  25.307   2.508   0.306
61248W        W26233  37.445   7.566  14.486
61249W        W26234  44.966   5.420  13.434
61250W        W26235  23.579  25.614  11.609
61251W        W26236  18.367   4.455   2.229
61252W        W26237  35.071  14.799  10.696
61253W        W26238   8.049  18.794   1.949
61254W        W26239  24.970   9.022  14.456
61255W        W26240  38.397  23.585  11.576
61256W        W26241  31.885  26.207  11.867
61257W        W26242  12.226   3.829   3.410
61258W        W26243  23.194   4.774  14.413
61259W        W26244  38.963   8.168   0.126
61260W        W26245  22.946  19.143   3.713
61261W        W26246  33.599  13.563   1.955
61262W        W26247  37.331  23.247   0.285
61263W        W26248  21.826  23.692   4.018
61264W        W26249  29.639  30.809  11.894
61265W        W26250  24.147  14.374   4.108
61266W        W26251   7.621   8.858  12.279
61267W        W26252  28.682  27.278   3.282
61268W        W26253  42.811  28.903  12.945
61269W        W26254  30.576  13.770  11.638
61270W        W26255  32.483  34.381   3.562
61271W        W26256  18.115  27.021   0.339
61272W        W26257  35.951  42.702  13.541
61273W        W26258  42.372  20.739   1.827
61274W        W26259  24.583  34.503  13.835
61275W        W26260  39.000  29.979   4.643
61276W        W26261   8.439   4.982  12.112
61277W        W26262  24.969   5.965  13.072
61278W        W26263  31.639  33.824   3.664
61279W        W26264  14.070  17.764   0.590
61280W        W26265  15.803  34.657   3.238
61281W        W26266  29.939  22.335  13.201
61282W        W26267   3.124  10.057  10.487
61283W        W26268  26.665  11.330  13.809
61284W        W26269  44.248  28.384  12.452
61285W        W26270  33.375  40.486  14.817
61286W        W26271   6.965  42.071  14.994
61287W        W26272  34.529  30.196  13.872
61288W        W26273   6.835  41.138   1.579
61289W        W26274  11.544  18.280   1.371
61290W        W26275   0.772   9.349  12.410
61291W        W26276  23.565  17.138  13.552
61292W        W26277   8.319  18.369   2.104
61293W        W26278  36.344   0.735  14.014
61294W        W26279  13.098  24.165  14.545
61295W        W26280   1.211  43.130  13.828
61296W        W26281  35.438  44.183   0.595
61297W        W26282  24.167  23.977   3.697
61298W        W26283   8.852  33.109  14.883
61299W        W26284  36.931  40.368   1.400
61300W        W26285   8.864  31.062  14.812
61301W        W26286  32.317   2.456  12.217
61302W        W26287   3.959  30.583   0.237
61303W        W26288  10.592  14.794   3.526
61304W        W26289   6.863  28.897   4.054
61305W        W26290   0.515  36.309   3.765
61306W        W26291  42.515   8.732   3.621
61307W        W26292  32.146  40.201  12.516
61308W        W26293  24.695  17.087  14.397
61309W        W26294  26.970  25.463  11.080
61310W        W26295  33.672  41.762  11.957
61311W        W26296  29.056  25.724  12.932
61312W        W26297  23.670   1.375  14.258
61313W        W26298  32.417  23.646  14.573
61314W        W26299  14.575  35.482   4.785
61315W        W26300  23.147  15.162  14.045
61316W        W26301  41.118  37.918  10.691
61317W        W26302  11.908  37.997   3.173
61318W        W26303  44.803  31.735  11.083
61319W        W26304  40.999  42.879   3.297
61320W        W26305  29.675  13.582   1.371
61321W        W26306  19.581  43.359   2.217
61322W        W26307  33.101  31.071   1.732
61323W        W26308  38.541   7.281  11.839
61324W        W26309  35.648   1.736  13.438
61325W        W26310  32.961  24.456   2.201
61326W        W26311  13.849  32.689  12.840
61327W        W26312   0.224  32.042  13.338
61328W        W26313  25.426   5.441  14.771
61329W        W26314   7.240  34.398  14.789
61330W        W26315  11.450  16.041  10.637
61331W        W26316  22.668  18.644   2.470
61332W        W26317  18.342   2.800   1.905
61333W        W26318   7.085  36.754  14.088
61334W        W26319  42.913  35.820  14.916
61335W        W26320  25.793  17.811   2.845
61336W        W26321  20.005  11.216  11.519
61337W        W26322  21.210   7.700   3.393
61338W        W26323  42.050   4.900   3.143
61339W        W26324  24.997  37.388   4.925
61340W        W26325  38.511   4.453   2.694
61341W        W26326  30.525  11.474   1.902
61342W        W26327  28.002  19.467   3.982
61343W        W26328  40.345  19.546  14.514
61344W        W26329   0.951  15.798  13.580
61345W        W26330   0.201  12.896   3.080
61346W        W26331  38.745  39.567   3.227
61347W        W26332   1.563  23.597   2.016
61348W        W26333   1.083  26.162  11.938
61349W        W26334  39.712  33.970   3.257
61350W        W26335  18.968   8.312   3.298
61351W        W26336  39.339   6.864  14.409
61352W        W26337  14.744  24.155  12.436
61353W        W26338   0.462  44.065   2.209
61354W        W26339  44.455  13.606   3.149
61355W        W26340  29.465  18.614  11.703
61356W        W26341  27.690  22.850   1.972
61357W        W26342  38.899  35.158   2.354
61358W        W26343   6.172   4.764   2.821
61359W        W26344  25.003   7.297   2.293
61360W        W26345  27.625  29.017   4.069
61361W        W26346  11.372  41.924   0.391
61362W        W26347  32.117  44.271  10.864
61363W        W26348  28.714   8.336  13.895
61364W        W26349  13.160   6.846   3.836
61365W        W26350  10.608  16.706  10.503
61366W        W26351  28.957  30.606  13.505
61367W        W26352  22.228  20.799  11.544
61368W        W26353   5.947   1.805  11.797
61369W        W26354  14.750  24.675  11.183
61370W        W26355   0.554  22.465  12.243
61371W        W26356  33.047  27.896   2.371
61372W        W26357  24.220  35.925  13.012
61373W        W26358  29.823   3.252  10.877
61374W        W26359  37.119  23.035  12.102
61375W        W26360   1.166  36.745  12.943
61376W        W26361  41.777  13.829   2.776
61377W        W26362  43.836  25.671  12.328
61378W        W26363  34.832   8.514   2.081
61379W        W26364  15.871   8.258  14.120
61380W        W26365  37.586   6.847  14.095
61381W        W26366  34.850  26.866  12.688
61382W        W26367  39.479  30.155   1.536
61383W        W26368  37.918  43.398  13.456
61384W        W26369  26.091   6.070  13.953
61385W        W26370  35.631  30.963   0.827
61386W        W26371   3.591  18.241  12.861
61387W        W26372  10.900  16.127   3.124
61388W        W26373  23.257  20.992  14.801
61389W        W26374   3.400  11.424   4.536
61390W        W26375  36.777  42.923  14.071
61391W        W26376  25.982  12.774   2.120
61392W        W26377  42.340  40.917   2.892
61393W        W26378  26.762   8.021  11.831
61394W        W26379  42.043  34.078  14.128
61395W        W26380  18.326  38.022   2.573
61396W        W26381  30.607  25.608  14.236
61397W        W26382  42.073  31.097   1.638
61398W        W26383  32.536  34.928  12.909
61399W        W26384  24.686  24.080   4.589
61400W        W26385   8.855   0.933  14.691
61401W        W26386  28.551  40.988   2.719
61402W        W26387  17.072  39.358  13.072
61403W        W26388  16.173  26.950   4.520
61404W        W26389   9.471  39.338  13.571
61405W        W26390  39.542  18.690   3.336
61406W        W26391  27.717  21.755  13.358
61407W        W26392  33.316  43.941  12.423
61408W        W26393  31.265  37.003   2.179
61409W        W26394  10.492   5.881   9.864
61410W        W26395   4.790  30.684  13.552
61411W        W26396  25.543  33.863   0.713
61412W        W26397  28.152  10.329  10.342
61413W        W26398  18.059  10.259  10.575
61414W        W26399  33.561  12.292  12.739
61415W        W26400   1.604  30.833  13.499
61416W        W26401  43.022   0.572   2.820
61417W        W26402   7.324   1.907  12.927
61418W        W26403   7.315  41.033   2.354
61419W        W26404  21.526   3.707  10.713
61420W        W26405  13.740  19.119  13.865
61421W        W26406  21.088  16.719  13.824
61422W        W26407   3.342  26.500   4.756
61423W        W26408   2.263   2.927  14.691
61424W        W26409  24.675  44.991  13.385
61425W        W26410   5.691   8.255  11.445
61426W        W26411  14.737  39.739   4.515
61427W        W26412  10.057  12.065  11.603
61428W        W26413  13.668  33.862   2.386
61429W        W26414   3.844  16.733  10.748
61430W        W26415  20.591   7.704  13.015
61431W        W26416  37.820   7.413  10.640
61432W        W26417  20.674  34.244  11.064
61433W        W26418  30.532   1.217   3.237
61434W        W26419  31.882   9.240  14.041
61435W        W26420   0.452  25.759   1.828
61436W        W26421  42.380  11.088  14.742
61437W        W26422  24.840  13.561   0.728
61438W        W26423  15.230  42.338  12.061
61439W        W26424   0.763  15.646  13.110
61440W        W26425  18.662  15.487   1.578
61441W        W26426  24.265  37.732   2.219
61442W        W26427  21.226   1.693  11.670
61443W        W26428  34.928   2.655   4.066
61444W        W26429  22.524   6.462  13.834
61445W        W26430  35.835  38.447   1.224
61446W        W26431  39.828  43.848   1.683
61447W        W26432  44.514  37.808  11.224
61448W        W26433   6.420   3.805   4.990
61449W        W26434  16.782  23.155  13.521
61450W        W26435  37.800  14.720  10.624
61451W        W26436  13.265   0.130  10.706
61452W        W26437  33.427  35.878   1.431
61453W        W26438  20.377   5.719  12.883
61454W        W26439  12.464  13.349   0.789
61455W        W26440   6.198  10.059   4.105
61456W        W26441   3.177  20.399  11.164
61457W        W26442  44.841  16.367  13.566
61458W        W26443  39.419  18.280   2.013
61459W        W26444  40.345  43.394  12.033
61460W        W26445  22.652  22.268  10.761
61461W        W26446  14.418   9.768   1.331
61462W        W26447  25.174  12.173  12.367
61463W        W26448  32.453  27.729   4.482
61464W        W26449  19.855   6.843   4.535
61465W        W26450  38.631  32.055   5.283
61466W        W26451   0.345   6.135   4.416
61467W        W26452   3.781  37.777   2.006
61468W        W26453  41.308  34.552   3.629
61469W        W26454  32.137  24.851  11.852
61470W        W26455  41.778  18.202   0.108
61471W        W26456  20.975  37.731   2.424
61472W        W26457  19.198   1.684  14.440
61473W        W26458  21.591  28.132  10.475
61474W        W26459  14.891  10.591   3.137
61475W        W26460  18.015  20.693  10.708
61476W        W26461  36.900  24.627  14.277
61477W        W26462   0.961  10.560   0.463
61478W        W26463  35.088  10.690  12.506
61479W        W26464  30.571  27.912  14.054
61480W        W26465   5.474  40.794  13.298
61481W        W26466  25.607  12.762   4.152
61482W        W26467  14.866  14.168  13.093
61483W        W26468  38.172  35.835   1.504
61484W        W26469  14.770   2.285   2.602
61485W        W26470  24.890   2.467  12.036
61486W        W26471  24.698  43.368   0.825
61487W        W26472  38.924  19.147  10.683
61488W        W26473   7.331  22.959  14.380
61489W        W26474  17.284   1.899   1.264
61490W        W26475  19.527  40.156  10.737
61491W        W26476  43.321   4.025   2.404
61492W        W26477  21.530  39.625  13.168
61493W        W26478  29.184  40.957  13.963
61494W        W26479  40.677  22.022   0.488
61495W        W26480  42.764  23.709  13.043
61496W        W26481  10.750   6.330   2.418
61497W        W26482  31.594  24.716  12.687
61498W        W26483  42.306  41.488   2.552
61499W        W26484   3.016  37.938  13.779
61500W        W26485  24.503  11.805  14.512
61501W        W26486  27.702  32.674  14.814
61502W        W26487   2.335  28.444  12.242
61503W        W26488  44.652  40.518  12.591
61504W        W26489   0.110  29.456   2.848
61505W        W26490  19.259  21.707   1.152
61506W        W26491  22.318  15.557  13.837
61507W        W26492  17.519   7.582   3.660
61508W        W26493   4.401   9.830   4.851
61509W        W26494  12.807  34.173   2.698
61510W        W26495  30.869  11.119  11.592
61511W        W26496  26.630  39.140   0.307
61512W        W26497  33.542  28.252  11.458
61513W        W26498   5.332  35.002   0.942
61514W        W26499  23.769  42.563   0.404
61515W        W26500  42.953  32.259  13.600
61516W        W26501  30.561  37.010  13.835
61517W        W26502  37.581  35.585  13.506
61518W        W26503   3.161  44.971   4.154
61519W        W26504  37.798  32.082   1.817
61520W        W26505  32.149  42.307   3.229
61521W        W26506  19.653  12.876  10.650
61522W        W26507  39.743  19.823   4.685
61523W        W26508  35.101  44.457   2.747
61524W        W26509   5.024  32.270  11.184
61525W        W26510   5.389  28.991   2.819
61526W        W26511  20.626   5.763  11.137
61527W        W26512  43.978  34.111   2.747
61528W        W26513   4.919  20.571   4.325
61529W        W26514  25.441  24.939   2.599
61530W        W26515  28.237  23.521  14.459
61531W        W26516  19.789  17.068  11.515
61532W        W26517  34.672  15.160   3.782
61533W        W26518  43.383   1.704  13.501
61534W        W26519  41.919   5.182   4.524
61535W        W26520  41.182  41.190   3.265
61536W        W26521  28.211  32.984  14.225
61537W        W26522  17.068  33.159  11.045
61538W        W26523  18.127  29.215  14.478
61539W        W26524   3.376  29.882  12.433
61540W        W26525  32.970   8.922   3.261
61541W        W26526  24.840  27.639   4.768
61542W        W26527  21.222  42.604   2.745
61543W        W26528  39.742  31.690   4.056
61544W        W26529   9.645  23.990  14.545
61545W        W26530  15.205   4.159  13.021
61546W        W26531  32.857  19.704  14.753
61547W        W26532  25.220  22.498   4.965
61548W        W26533  17.657  28.938  10.521
61549W        W26534  23.383  10.331   3.235
61550W        W26535  35.428  20.363   4.117
61551W        W26536   4.869  34.051   2.507
61552W        W26537  41.349   8.320   4.560
61553W        W26538   7.356  23.032   4.763
61554W        W26539  29.953  15.345   1.817
61555W        W26540  22.633  30.331   9.858
61556W        W26541  29.146  10.160   1.446
61557W        W26542  16.016  10.911   2.748
61558W        W26543   5.398   7.649  12.408
61559W        W26544  11.711  40.936   2.842
61560W        W26545  39.830  19.545   3.152
61561W        W26546  36.710   9.750   4.619
61562W        W26547  11.486  40.105  12.081
61563W        W26548  35.519  41.878   3.822
61564W        W26549  37.513   6.690  13.084
61565W        W26550  27.206  25.465  14.468
61566W        W26551   5.852   1.661  13.363
61567W        W26552  38.148  33.491  14.843
61568W        W26553  29.614  28.981   0.790
61569W        W26554  43.412  17.215  14.812
61570W        W26555   2.854  35.774   2.440
61571W        W26556  31.475  14.842   3.360
61572W        W26557   4.321  19.578   4.198
61573W        W26558  18.750  31.687  12.349
61574W        W26559  30.312  17.375   4.929
61575W        W26560  13.107  27.638   4.604
61576W        W26561  22.377  15.187  12.407
61577W        W26562  17.594  18.990   0.354
61578W        W26563  15.742  18.107   4.822
61579W        W26564  22.944  34.886  14.994
61580W        W26565  28.331   0.823  13.955
61581W        W26566  28.014  15.304   1.186
61582W        W26567  18.823  20.253   0.203
61583W        W26568  22.153  38.502  11.410
61584W        W26569  20.048  28.180   4.504
61585W        W26570  28.267  38.390   0.326
61586W        W26571  30.048  26.895  14.101
61587W        W26572  32.579  43.045   3.342
61588W        W26573  17.577  28.098  12.956
61589W        W26574  16.520  42.111  11.615
61590W        W26575  43.362  37.127  14.935
61591W        W26576  11.070  30.757  12.843
61592W        W26577  38.050  23.020   4.010
61593W        W26578  35.894  27.248  13.449
61594W        W26579   6.047   6.968  10.473
61595W        W26580  12.527   3.345   2.826
61596W        W26581  30.263  34.832   3.385
61597W        W26582  16.737  43.392  10.499
61598W        W26583   1.357   9.679  13.106
61599W        W26584  15.043  12.700   1.725
61600W        W26585  38.917  34.390   1.889
61601W        W26586  35.844  25.166   2.378
61602W        W26587  23.568  33.527   2.598
61603W        W26588  32.687  27.120   3.760
61604W        W26589   3.800  23.581   4.467
61605W        W26590  25.116  18.277  12.866
61606W        W26591  37.697   9.059  10.117
61607W        W26592  19.648  22.334  11.351
61608W        W26593  41.595   4.463   1.513
61609W        W26594  39.895   0.616   3.822
61610W        W26595  32.652  42.704   0.769
61611W        W26596  42.045  23.889   3.139
61612W        W26597  23.232  18.255   4.567
61613W        W26598  38.727   8.096   1.156
61614W        W26599  23.745  11.351   0.528
61615W        W26600   0.441  20.737  10.482
61616W        W26601  10.258  25.148   1.878
61617W        W26602  42.268  24.237  14.424
61618W        W26603  35.026  35.372   3.763
61619W        W26604  19.334  34.511   1.369
61620W        W26605  43.124  13.456   4.422
61621W        W26606  20.535  29.156  14.260
61622W        W26607  18.311  26.702  10.854
61623W        W26608   7.829  22.592   0.829
61624W        W26609  23.261  26.133   2.601
61625W        W26610  31.633  21.230   0.252
61626W        W26611   6.188  34.822   1.522
61627W        W26612  44.926  10.402   2.705
61628W        W26613  41.803   9.950  14.025
61629W        W26614   6.836  36.470   1.650
61630W        W26615  43.568  20.516   2.186
61631W        W26616  37.940  35.038  13.924
61632W        W26617  41.471  41.280  11.245
61633W        W26618  17.645  29.524  12.504
61634W        W26619  34.048  39.413  12.183
61635W        W26620   7.919   8.798   0.450
61636W        W26621   0.790  19.906  10.699
61637W        W26622  10.629  36.771  11.977
61638W        W26623   4.357  19.076  10.992
61639W        W26624   6.952   2.708  14.491
61640W        W26625   4.758   2.647  13.932
61641W        W26626  23.638   4.335   4.665
61642W        W26627  39.112  20.577  13.705
61643W        W26628  27.621  40.829   0.785
61644W        W26629  43.849  31.196   1.954
61645W        W26630  26.044  42.909   2.090
61646W        W26631  12.134  28.622  10.863
61647W        W26632  40.508  27.929  11.411
61648W        W26633  25.196  44.314   2.178
61649W        W26634  22.338  37.397  12.455
61650W        W26635  33.457   4.665  12.350
61651W        W26636  36.876  40.291  14.043
61652W        W26637  28.278  41.207   0.311
61653W        W26638  28.955   3.910  13.473
61654W        W26639  27.338  15.565  11.948
61655W        W26640  43.953   1.576   1.606
61656W        W26641  42.550  34.861   1.828
61657W        W26642  15.577  25.738   4.550
61658W        W26643   0.732  13.219  12.500
61659W        W26644  13.097   6.124  12.051
61660W        W26645   3.790  19.637   0.037
61661W        W26646  30.447  16.178   0.110
61662W        W26647   2.909  30.987  11.513
61663W        W26648  32.154  41.348   3.082
61664W        W26649   5.845  16.961   4.728
61665W        W26650  44.170  38.082   1.485
61666W        W26651  16.559  37.823   4.105
61667W        W26652  20.966  36.290   4.248
61668W        W26653  37.129  25.709  12.662
61669W        W26654  41.816  21.762  14.763
61670W        W26655  42.761  15.701  13.551
61671W        W26656  10.286  14.211   1.045
61672W        W26657  32.840   5.670   4.084
61673W        W26658  16.498  11.309   1.814
61674W        W26659  37.998  18.754   4.088
61675W        W26660  12.690  24.128   1.017
61676W        W26661  14.046  29.773  10.784
61677W        W26662   0.993  21.743   4.323
61678W        W26663   3.402   6.014   4.260
61679W        W26664  18.369  34.323   0.807
61680W        W26665  39.537  17.776  11.770
61681W        W26666  25.059  39.459  14.045
61682W        W26667  33.861  14.647   1.309
61683W        W26668  38.292  35.973   3.901
61684W        W26669  23.552   7.116   4.584
61685W        W26670  20.822  14.092   0.795
61686W        W26671  31.020  16.302  13.413
61687W        W26672   7.691   0.229  12.098
61688W        W26673  17.213  11.912   1.020
61689W        W26674  18.706  39.389  12.088
61690W        W26675  44.981   4.000   1.732
61691W        W26676  30.483  15.773  14.786
61692W        W26677   7.321   7.990   1.384
61693W        W26678  36.666  10.869  11.274
61694W        W26679   0.853  33.845   5.044
61695W        W26680  26.959  27.454  14.422
61696W        W26681  28.078  30.063  13.941
61697W        W26682   6.353  40.748   0.380
61698W        W26683  31.615  11.930  12.578
61699W        W26684  36.892  37.071   0.467
61700W        W26685   8.617  40.084   2.487
61701W        W26686  36.419  23.148   3.338
61702W        W26687  23.286  44.453  11.114
61703W        W26688  16.599   8.493  11.123
61704W        W26689  42.402  27.527  12.950
61705W        W26690  23.897  19.662  11.100
61706W        W26691  19.188  11.805   1.258
61707W        W26692  32.215  12.900   4.514
61708W        W26693  38.763  39.633  11.682
61709W        W26694  32.868  20.603  14.796
61710W        W26695  19.062   3.415   0.228
61711W        W26696  14.812  13.129  13.963
61712W        W26697  40.994  33.492   3.207
61713W        W26698   6.510  34.508   2.233
61714W        W26699  14.105  29.615  14.759
61715W        W26700   5.783  10.354   4.284
61716W        W26701  29.618  15.875   2.684
61717W        W26702   5.792   2.987   0.171
61718W        W26703  40.824  43.487   3.677
61719W        W26704  41.518  42.893  10.375
61720W        W26705  32.816   6.452  14.374
61721W        W26706  26.259  23.140   1.508
61722W        W26707  30.587   1.770   3.320
61723W        W26708   2.383  13.074  11.237
61724W        W26709  33.757   7.282   9.825
61725W        W26710  31.329  19.041   4.468
61726W        W26711  32.632  20.720   0.234
61727W        W26712  23.293  41.230  13.245
61728W        W26713  17.361  22.801  11.886
61729W        W26714  36.787  28.541   4.423
61730W        W26715  38.515   1.855  11.404
61731W        W26716  22.643  21.560   4.599
61732W        W26717  36.231  19.927   5.183
61733W        W26718   0.957   8.136  13.593
61734W        W26719  30.054  44.320   0.804
61735W        W26720  29.351  31.480   2.876
61736W        W26721  14.452  24.902  14.875
61737W        W26722  31.059  18.180   0.243
61738W        W26723  18.637  32.914   1.354
61739W        W26724   7.151  25.251   1.839
61740W        W26725   3.012  18.114  14.555
61741W        W26726  12.129   3.312  13.779
61742W        W26727  26.881   9.902   4.947
61743W        W26728  43.384  43.889  13.525
61744W        W26729  27.849  27.666   0.520
61745W        W26730  37.964  18.159   1.821
61746W        W26731  11.099  34.911  13.373
61747W        W26732   1.451  10.725  14.448
61748W        W26733  12.362  26.203  13.955
61749W        W26734  25.341  34.937   4.140
61750W        W26735  37.667  39.778   4.589
61751W        W26736  30.703  15.194   2.390
61752W        W26737   7.488  13.933   0.063
61753W        W26738  31.516   3.191   1.911
61754W        W26739  26.097  17.106   3.871
61755W        W26740   3.018  33.407  12.423
61756W        W26741   5.650  12.685   1.953
61757W        W26742  15.677  12.831  11.157
61758W        W26743   6.237  29.894   3.539
61759W        W26744   7.361   9.782  13.636
61760W        W26745  29.009   5.409  11.465
61761W        W26746  18.476  32.494  13.506
61762W        W26747  12.180  25.446  10.740
61763W        W26748  12.763   2.850   2.418
61764W        W26749  24.002  38.458   2.650
61765W        W26750   1.365   1.975   2.171
61766W        W26751  38.200   9.983   5.100
61767W        W26752  34.532  20.512   0.378
61768W        W26753  37.634   7.721  11.891
61769W        W26754  23.922   1.012  14.561
61770W        W26755  11.323  37.137   0.240
61771W        W26756  11.624  24.190   2.196
61772W        W26757  44.659  14.535   9.943
61773W        W26758   4.351  26.971   1.000
61774W        W26759  36.022  26.847  13.745
61775W        W26760  27.623  16.427   3.129
61776W        W26761  17.259   3.704  13.369
61777W        W26762  36.095  16.871   2.696
61778W        W26763  24.968  10.903  14.112
61779W        W26764   7.291  18.982   3.308
61780W        W26765  40.385  16.059   0.369
61781W        W26766  40.488   9.979  12.766
61782W        W26767  38.198  25.992  12.723
61783W        W26768  44.758   0.879  14.245
61784W        W26769   9.347   9.742   4.750
61785W        W26770   5.911  15.261   3.292
61786W        W26771  11.365   3.878   4.654
61787W        W26772  17.575  31.601  14.892
61788W        W26773   7.861  34.510   3.751
61789W        W26774  39.614  10.661  10.828
61790W        W26775  31.204  19.630  13.323
61791W        W26776  32.360   2.871  10.942
61792W        W26777  18.059   5.341   0.922
61793W        W26778  43.517  34.084  13.964
61794W        W26779  38.263  44.555   0.826
61795W        W26780  31.659  43.296  12.907
61796W        W26781  29.122   3.327   3.824
61797W        W26782   1.927  24.488  14.907
61798W        W26783  21.883  38.149   3.320
61799W        W26784   9.185   9.277   4.084
61800W        W26785  17.339  13.872  14.471
61801W        W26786  36.066  27.456   1.290
61802W        W26787  16.994   1.230   4.950
61803W        W26788  13.673   1.886   4.869
61804W        W26789  15.934   3.837  10.184
61805W        W26790   6.039  10.323   1.016
61806W        W26791   5.874  20.130  14.344
61807W        W26792  11.075  36.015  14.102
61808W        W26793  35.567  16.636  14.524
61809W        W26794   2.797   7.060   0.201
61810W        W26795  16.679  23.244   4.549
61811W        W26796  24.593  30.480  12.656
61812W        W26797  11.623  14.277  14.025
61813W        W26798  19.292  21.599   0.261
61814W        W26799  42.408  36.961  12.634
61815W        W26800  15.384   1.755   3.661
61816W        W26801   2.379  22.549  13.838
61817W        W26802  34.028  13.342  13.528
61818W        W26803   1.894   6.363   2.277
61819W        W26804  12.151   5.274  11.664
61820W        W26805   2.540  13.824  10.768
61821W        W26806  15.316   4.302   1.393
61822W        W26807  43.436  26.477  14.835
61823W        W26808  17.079  13.313  10.708
61824W        W26809  23.435  26.671   4.184
61825W        W26810  20.710   4.723   1.399
61826W        W26811   7.413  14.901   2.471
61827W        W26812   9.584  10.583   0.861
61828W        W26813  43.569  10.257   1.635
61829W        W26814  34.405  10.910   3.218
61830W        W26815  11.532  11.348  14.378
61831W        W26816  10.018   1.103   3.801
61832W        W26817  24.961  15.884   3.184
61833W        W26818  42.337   3.670   1.611
61834W        W26819  24.902  31.618   2.170
61835W        W26820   0.500  25.071   4.599
61836W        W26821  29.149  39.101   2.817
61837W        W26822  30.914  27.446  11.002
61838W        W26823  25.067  41.117  14.989
61839W        W26824  14.105  44.011   4.104
61840W        W26825  37.961  31.329  14.295
61841W        W26826   4.653   1.050  11.219
61842W        W26827  37.531   8.588  13.019
61843W        W26828   9.636  35.566   3.645
61844W        W26829  39.424  30.317  10.689
61845W        W26830  32.142  22.469   1.381
61846W        W26831  17.985  42.438  10.431
61847W        W26832  21.555  23.285   0.679
61848W        W26833   0.701  10.392   1.855
61849W        W26834   8.621  12.677  11.490
61850W        W26835   6.725  30.584   3.709
61851W        W26836  40.535  21.144   2.779
61852W        W26837  33.982  19.178  13.363
61853W        W26838  13.316   5.860   2.121
61854W        W26839  40.836  27.272   4.836
61855W        W26840  22.496  10.365   4.126
61856W        W26841   3.211  27.863   1.781
61857W        W26842  16.569  38.313  12.576
61858W        W26843  33.848  39.063   0.601
61859W        W26844  29.533  19.155  10.391
61860W        W26845  12.979   4.706  10.366
61861W        W26846  37.386  33.690   1.164
61862W        W26847  35.029  34.396  14.323
61863W        W26848  11.707  31.940  14.439
61864W        W26849  11.073  26.582   0.319
61865W        W26850  30.489  43.934   4.215
61866W        W26851   4.578  35.028  11.488
61867W        W26852  25.944  35.000  14.453
61868W        W26853  30.649  30.635  14.445
61869W        W26854   3.248  43.832   3.222
61870W        W26855  19.013  44.071   4.062
61871W        W26856  21.010  21.097  14.372
61872W        W26857   3.748  44.443   2.783
61873W        W26858  31.751  15.782   1.629
61874W        W26859  35.305  17.829   3.247
61875W        W26860  25.614  28.186  13.058
61876W        W26861  12.828  14.933   1.417
61877W        W26862  12.599  14.406   4.188
61878W        W26863  40.284   6.776   0.417
61879W        W26864  12.103  12.588   4.508
61880W        W26865  18.322  23.445  11.261
61881W        W26866  21.885   9.723   3.603
61882W        W26867  23.120  37.419   4.806
61883W        W26868  10.146  30.945  13.024
61884W        W26869  28.677  15.341   0.824
61885W        W26870   4.336  41.799   4.708
61886W        W26871  10.370  14.917   2.464
61887W        W26872  31.461  35.815  13.358
61888W        W26873   8.244  31.543  12.979
61889W        W26874  44.994   3.650  13.689
61890W        W26875  38.001  19.303  12.110
61891W        W26876  12.246  37.582   1.826
61892W        W26877  37.654  26.473   2.007
61893W        W26878  28.565  24.015  12.452
61894W        W26879  30.445  19.236   4.069
61895W        W26880  30.182  13.327  10.644
61896W        W26881  40.291   5.200  12.509
61897W        W26882  31.158  44.324   3.996
61898W        W26883  33.997  10.147   4.084
61899W        W26884  21.608  10.670   0.986
61900W        W26885  38.507   8.694   1.642
61901W        W26886  18.073  42.004   0.758
61902W        W26887  43.274  19.567  14.291
61903W        W26888  26.104  14.698   1.256
61904W        W26889  13.330  40.125  11.634
61905W        W26890  38.736   1.201  10.988
61906W        W26891  25.315  31.195  14.091
61907W        W26892   5.006  36.095   3.177
61908W        W26893  36.951  35.435   1.790
61909W        W26894  24.620  40.461   3.292
61910W        W26895  30.837  26.285   2.242
61911W        W26896  35.315  24.972  14.794
61912W        W26897  36.021   6.669   2.650
61913W        W26898  39.688  21.607   4.093
61914W        W26899  27.693  30.011   2.832
61915W        W26900  31.601  36.878   3.413
61916W        W26901  27.887  24.454   4.524
61917W        W26902  24.191  40.769   3.283
61918W        W26903   4.004  28.116  12.054
61919W        W26904  41.264  32.059   1.693
61920W        W26905  30.669  24.034   5.095
61921W        W26906  24.249  18.562  10.823
61922W        W26907  37.891   2.020   3.714
61923W        W26908  17.891   0.215  12.040
61924W        W26909   8.873  19.325  11.256
61925W        W26910  37.749  25.956  13.673
61926W        W26911  36.333  21.569  13.788
61927W        W26912  44.763  10.404   1.301
61928W        W26913  35.656   8.428   3.377
61929W        W26914  19.989  39.629   3.946
61930W        W26915   4.729  20.161  11.523
61931W        W26916   7.789  30.805  10.784
61932W        W26917  19.688  41.287   4.687
61933W        W26918   3.578  28.900   4.447
61934W        W26919   3.888  32.068  10.633
61935W        W26920  41.665  40.213  14.177
61936W        W26921   2.920  40.806  11.622
61937W        W26922  15.823   0.408  11.148
61938W        W26923  17.062  42.863  13.986
61939W        W26924  24.545  29.651   3.083
61940W        W26925  29.152  17.823  10.687
61941W        W26926  27.089  21.537   4.569
61942W        W26927   5.647  10.213  11.602
61943W        W26928  22.265  11.179   1.736
61944W        W26929  14.464  43.095  10.656
61945W        W26930  19.396  18.106  14.910
61946W        W26931  40.477  20.518  10.566
61947W        W26932  34.666  16.686  14.119
61948W        W26933  20.992  23.642  13.470
61949W        W26934  10.888   3.294   5.326
61950W        W26935  22.182  16.790   4.201
61951W        W26936  13.812  31.939   3.807
61952W        W26937   7.326  13.385   4.826
61953W        W26938  14.672   5.439   0.654
61954W        W26939  39.678  25.506   1.303
61955W        W26940  20.165  23.489  10.047
61956W        W26941  39.398  10.245   1.144
61957W        W26942  33.198   5.209   4.739
61958W        W26943  36.530  40.907   4.376
61959W        W26944   8.381   9.524  11.941
61960W        W26945  33.881  23.999   0.469
61961W        W26946  31.850  13.608  12.929
61962W        W26947  37.615   2.855  11.240
61963W        W26948  12.371  25.081   4.119
61964W        W26949  19.534  44.457   1.215
61965W        W26950   9.722  17.544  12.118
61966W        W26951  32.673  44.030   1.173
61967W        W26952   8.760   0.738  12.487
61968W        W26953  26.034  33.131   5.005
61969W        W26954  41.037  42.101   2.862
61970W        W26955  42.204  41.492  14.461
61971W        W26956  34.652  39.937   4.882
61972W        W26957  10.769  31.595   2.836
61973W        W26958  24.922   4.338  13.308
61974W        W26959  29.068  33.911  10.614
61975W        W26960  31.845   4.191  12.469
61976W        W26961  26.004  18.359   2.369
61977W        W26962  26.668  41.958  14.800
61978W        W26963   9.956   4.988   4.569
61979W        W26964   9.601  37.091   1.773
61980W        W26965  38.334  12.634   1.638
61981W        W26966  44.867  22.559   2.625
61982W        W26967  24.224  25.011   3.749
61983W        W26968  29.980  22.687   0.305
61984W        W26969  43.861  31.235   2.851
61985W        W26970  15.081   8.642   3.139
61986W        W26971  15.666   2.186   3.586
61987W        W26972  39.883  18.895   1.254
61988W        W26973  37.884  21.008  14.348
61989W        W26974   6.970   6.177   2.762
61990W        W26975  11.106  12.780  13.533
61991W        W26976  38.836  40.964   0.278
61992W        W26977  11.861  38.358  14.415
61993W        W26978  35.824  32.368   4.485
61994W        W26979   5.279  12.421   1.720
61995W        W26980  19.536  20.097   2.207
61996W        W26981   9.390  30.666  13.921
61997W        W26982  20.373  35.555   0.916
61998W        W26983  35.045  44.380  13.554
61999W        W26984   5.918   2.020  10.758
62000W        W26985  43.572  38.473   3.313
62001W        W26986  11.669  20.318   3.700
62002W        W26987  17.566   0.951   3.410
62003W        W26988   0.733  21.275   5.048
62004W        W26989  10.643   7.125  11.518
62005W        W26990  12.117   3.213  14.318
62006W        W26991  15.595  28.641   0.254
62007W        W26992  28.811  10.354  13.632
62008W        W26993  36.982  41.223   1.963
62009W        W26994  18.347  20.150   1.448
62010W        W26995   0.734  37.262   2.552
62011W        W26996  39.233   5.722  12.143
62012W        W26997  41.924   0.384   1.680
62013W        W26998   2.985  24.564  14.380
62014W        W26999  18.615  17.762  14.679
62015W        W27000  31.918   1.299   4.507
62016W        W27001  35.907   0.450   1.997
62017W        W27002  33.421  16.633  10.930
62018W        W27003   7.337  24.956   5.033
62019W        W27004  14.330   0.887   3.059
62020W        W27005  32.402  37.749  11.877
62021W        W27006  29.238  26.113  14.092
62022W        W27007   9.818  41.434  13.949
62023W        W27008  15.282  33.820   1.209
62024W        W27009  36.506  32.932   3.631
62025W        W27010  13.117  28.245  12.143
62026W        W27011   2.909  42.693   1.200
62027W        W27012   6.145  31.402   3.873
62028W        W27013  18.639  29.634  13.436
62029W        W27014   8.256  30.546  13.491
62030W        W27015  33.312  39.090  13.499
62031W        W27016   6.800  39.594  14.293
62032W        W27017  41.343  41.353   4.287
62033W        W27018  20.667   2.794   0.794
62034W        W27019  19.191  35.405   3.754
62035W        W27020   1.938   4.448  12.072
62036W        W27021  14.027  30.341  13.395
62037W        W27022  15.930  40.766  12.203
62038W        W27023  34.847  17.531  14.507
62039W        W27024   3.945  42.674  14.309
62040W        W27025   6.367  11.378   3.724
62041W        W27026  42.210  30.472   1.821
62042W        W27027  21.118  11.664   4.971
62043W        W27028   3.259   8.590   1.130
62044W        W27029  18.386   2.930  10.973
62045W        W27030  31.944  14.619   4.137
62046W        W27031  12.391  27.191   4.049
62047W        W27032  37.863  16.793   3.172
62048W        W27033   7.312  26.653   1.951
62049W        W27034   4.360  11.937  13.404
62050W        W27035  24.993  16.104   4.165
62051W        W27036  32.384  39.804  14.363
62052W        W27037   9.353  20.476   4.768
62053W        W27038   7.817  33.152   1.833
62054W        W27039   9.295   6.765   4.232
62055W        W27040  30.559  38.379  11.522
62056W        W27041   2.638   8.200   2.255
62057W        W27042  17.281   7.941   2.288
62058W        W27043   0.893   0.927   2.167
62059W        W27044   7.866  31.792   4.496
62060W        W27045   0.516  14.698   1.851
62061W        W27046  37.376  36.983   4.790
62062W        W27047  19.555  19.116   1.217
62063W        W27048   2.509   8.318   3.671
62064W        W27049  18.172   7.518  10.571
62065W        W27050  21.120  29.979  14.309
62066W        W27051  34.978  40.493   3.414
62067W        W27052   1.287  44.450   4.473
62068W        W27053  39.773  24.355  11.482
62069W        W27054   6.084  35.194   1.885
62070W        W27055   5.968  37.325   0.585
62071W        W27056  28.728   9.275  12.182
62072W        W27057  39.249  10.861   3.171
62073W        W27058   7.275  12.175   3.213
62074W        W27059  32.059   2.867   0.375
62075W        W27060  33.667   3.260   1.288
62076W        W27061  38.254  18.100  11.436
62077W        W27062  22.134  29.634  14.405
62078W        W27063  10.875  21.182  14.608
62079W        W27064   0.479  21.653   4.787
62080W        W27065  29.613  36.684   4.055
62081W        W27066  41.221  13.450  13.941
62082W        W27067  28.111   3.377   0.790
62083W        W27068  38.877  14.789  11.818
62084W        W27069  29.197  29.040   3.554
62085W        W27070  40.861   1.274   2.950
62086W        W27071  21.646  35.891  14.940
62087W        W27072  12.962  35.661   2.132
62088W        W27073   3.378  24.455  10.702
62089W        W27074   0.808  38.548   4.665
62090W        W27075  32.111   4.378  14.032
62091W        W27076  40.458  18.890   3.213
62092W        W27077  37.409   4.007   2.337
62093W        W27078  13.645  39.120   4.551
62094W        W27079  41.964  10.183   1.213
62095W        W27080  12.004   6.339   4.152
62096W        W27081  14.614  11.294   4.306
62097W        W27082  29.621  34.517   0.469
62098W        W27083   7.463  31.461  12.483
62099W        W27084  10.507  40.947  13.389
62100W        W27085   7.348  27.035   1.086
62101W        W27086   1.375  22.172  11.745
62102W        W27087  29.148  20.445  11.636
62103W        W27088   5.550   2.011  11.530
62104W        W27089  37.342  28.732   1.828
62105W        W27090  28.418  29.203   4.206
62106W        W27091  40.602  12.092   4.816
62107W        W27092  43.055  13.626  13.362
62108W        W27093  31.192   0.061  12.088
62109W        W27094  23.678  41.030   1.273
62110W        W27095  40.516  26.579  12.380
62111W        W27096  26.011  30.799  13.529
62112W        W27097  39.574  22.297  12.103
62113W        W27098  42.542  26.690   4.089
62114W        W27099  20.790  35.468   3.664
62115W        W27100   4.818  34.370  14.235
62116W        W27101  16.516  23.222   3.141
62117W        W27102  18.116  43.266   4.783
62118W        W27103  16.547   7.010  12.473
62119W        W27104  27.125  30.672  14.337
62120W        W27105  30.960  32.212   2.288
62121W        W27106  26.986  26.594  12.440
62122W        W27107   0.253   5.714  14.896
62123W        W27108  16.206  44.197  11.627
62124W        W27109   4.322  22.111  10.950
62125W        W27110  17.570  29.913  13.942
62126W        W27111  21.622   8.163   2.247
62127W        W27112  34.932   8.394   1.169
62128W        W27113   2.787  36.913   2.371
62129W        W27114   4.237  31.183   4.564
62130W        W27115  12.317  15.183   3.583
62131W        W27116  27.248  10.210  13.427
62132W        W27117  10.776  17.866   4.326
62133W        W27118  43.845  31.752   2.811
62134W        W27119  16.777  11.814  13.872
62135W        W27120  13.401   4.824  14.967
62136W        W27121  42.261  40.632   2.463
62137W        W27122  24.240   5.309  11.114
62138W        W27123   8.826  31.346   2.952
62139W        W27124  19.637   9.049  10.310
62140W        W27125  10.584  42.504  12.008
62141W        W27126  11.930  10.393  11.471
62142W        W27127  22.861   4.185  12.196
62143W        W27128   7.598  30.051  14.756
62144W        W27129  34.401  32.632  11.052
62145W        W27130  19.125  10.599  13.793
62146W        W27131  34.857   3.446  10.541
62147W        W27132  19.838   1.745   4.165
62148W        W27133  43.273  12.072  12.894
62149W        W27134   2.163  12.690   3.107
62150W        W27135  44.829  34.932  12.510
62151W        W27136  36.804  12.389  12.507
62152W        W27137  44.174   3.397   3.089
62153W        W27138  25.074  17.071  11.513
62154W        W27139   8.650  41.307   4.839
62155W        W27140  32.933   8.286   0.230
62156W        W27141  35.803  22.187   1.694
62157W        W27142  23.228  16.187  14.349
62158W        W27143  25.255  27.165  12.525
62159W        W27144  17.721   2.992  13.163
62160W        W27145  39.918  37.646   4.287
62161W        W27146   9.730  37.943  14.293
62162W        W27147  35.624  30.588   0.331
62163W        W27148  43.053  27.446  14.063
62164W        W27149  12.866  23.721   2.264
62165W        W27150  35.059  25.586   4.600
62166W        W27151  14.820   2.454   3.609
62167W        W27152  29.518  10.567   0.867
62168W        W27153  12.520  31.398  11.797
62169W        W27154  23.068  25.387   2.023
62170W        W27155  19.054  37.407  10.945
62171W        W27156  24.453   5.885  13.019
62172W        W27157  22.997   5.540   3.693
62173W        W27158  31.626   5.449   2.305
62174W        W27159   1.712  43.330  13.082
62175W        W27160  19.771  19.614   2.373
62176W        W27161  29.908  12.115   4.305
62177W        W27162  33.047  22.544  10.583
62178W        W27163  32.089   9.184   2.337
62179W        W27164  27.115   4.851   3.347
62180W        W27165  40.585  21.082   3.663
62181W        W27166  32.585  31.496   2.701
62182W        W27167   4.808  26.736  11.599
62183W        W27168  17.558  15.573  14.059
62184W        W27169   2.428  37.495   3.030
62185W        W27170   5.891  36.929   3.095
62186W        W27171  28.467   4.870  14.466
62187W        W27172  12.242  26.959  14.693
62188W        W27173  41.419  14.816   3.799
62189W        W27174  43.274  20.963  11.907
62190W        W27175  25.606   3.890  12.664
62191W        W27176  35.598  26.487  13.872
62192W        W27177  16.737  20.397  11.839
62193W        W27178  38.427  10.203   4.642
62194W        W27179   6.577  22.251  11.532
62195W        W27180  40.043  42.467  14.527
62196W        W27181  19.978  31.172   4.627
62197W        W27182  12.401  36.881   2.930
62198W        W27183  25.670  15.263   4.760
62199W        W27184  10.439   9.595   4.007
62200W        W27185  44.453  16.009  11.279
62201W        W27186  35.035  33.354  13.522
62202W        W27187  31.888  12.290  12.163
62203W        W27188  18.072  27.939   3.282
62204W        W27189  15.742   0.660  12.009
62205W        W27190  44.590  41.781   2.575
62206W        W27191  31.054  41.793  14.448
62207W        W27192  19.443   9.263   1.209
62208W        W27193  11.555   0.394   3.607
62209W        W27194  39.775   0.432   1.275
62210W        W27195  19.975  38.733  14.886
62211W        W27196  25.888   2.280   2.668
62212W        W27197  34.578  25.183  11.104
62213W        W27198  29.899  11.605   4.356
62214W        W27199  33.990  28.481   4.662
62215W        W27200   7.385  22.169   0.458
62216W        W27201   4.195  14.202  14.566
62217W        W27202  24.524  23.148  13.867
62218W        W27203  29.048  12.571  13.044
62219W        W27204  35.261   1.635   4.203
62220W        W27205  11.487  14.520  14.496
62221W        W27206   8.727  41.928   3.114
62222W        W27207   2.091  25.722  14.947
62223W        W27208  18.924  31.856   1.921
62224W        W27209  43.749  25.511  14.809
62225W        W27210  28.702  10.536   0.674
62226W        W27211  28.684  33.639   4.100
62227W        W27212   7.933  30.886   3.784
62228W        W27213  35.563  18.128   2.699
62229W        W27214  43.492   2.231   3.356
62230W        W27215  25.550  33.877  14.754
62231W        W27216   1.703   4.245   3.252
62232W        W27217  40.326  35.351   3.207
62233W        W27218  10.256  13.387   0.011
62234W        W27219   4.379  24.746   1.694
62235W        W27220  34.068  41.385  13.474
62236W        W27221   4.930  34.132   2.014
62237W        W27222   0.641  28.106   3.737
62238W        W27223  44.550  39.456  11.430
62239W        W27224   4.899  41.352  10.325
62240W        W27225   8.890  41.612   2.728
62241W        W27226  21.393  42.031  12.547
62242W        W27227  38.526   4.894  14.473
62243W        W27228  39.607  18.685   0.852
62244W        W27229   7.812  15.576   0.777
62245W        W27230  29.021  39.838  12.683
62246W        W27231  39.893  28.900   2.761
62247W        W27232   9.796   9.585   0.880
62248W        W27233  31.080  35.542  10.339
62249W        W27234  34.521  41.780  11.170
62250W        W27235   5.850   8.586   2.724
62251W        W27236  15.329  42.110  10.625
62252W        W27237   4.854  27.681   4.736
62253W        W27238  43.846  28.985   4.444
62254W        W27239   5.986  35.550   3.717
62255W        W27240  34.061   1.244   2.740
62256W        W27241  34.487  35.851  13.537
62257W        W27242   6.174  42.895   4.018
62258W        W27243  34.117  32.444  11.479
62259W        W27244  28.487  22.652   2.658
62260W        W27245   2.740   5.594  10.675
62261W        W27246  23.855  20.516  11.145
62262W        W27247  26.164  19.197   3.686
62263W        W27248  29.576   6.121  13.854
62264W        W27249  41.846  10.907   2.736
62265W        W27250  43.846  21.925  13.348
62266W        W27251  32.143  26.697  14.413
62267W        W27252  27.707  18.272   4.680
62268W        W27253  34.835  39.029   5.011
62269W        W27254  17.390  18.003  13.773
62270W        W27255   9.262  12.202  11.107
62271W        W27256  31.673  18.211   2.194
62272W        W27257   8.430  17.833  14.985
62273W        W27258   3.852  29.206  12.421
62274W        W27259  15.189  27.960   2.526
62275W        W27260  32.204  15.305  14.426
62276W        W27261  36.513  33.912   2.740
62277W        W27262  40.948  41.315  12.932
62278W        W27263  15.111  21.007  14.503
62279W        W27264  12.293  38.167   4.186
62280W        W27265   4.294   9.868  13.213
62281W        W27266  43.408  26.108  10.523
62282W        W27267  31.786  20.744   4.071
62283W        W27268  14.809  18.147  14.949
62284W        W27269  27.535  28.167  13.127
62285W        W27270  38.501  39.446   3.678
62286W        W27271  10.199  41.952   4.722
62287W        W27272  29.029  38.435  11.582
62288W        W27273   6.198  22.985   1.164
62289W        W27274  26.181   7.236  13.849
62290W        W27275  23.099  28.465  12.207
62291W        W27276  26.922  28.542  12.034
62292W        W27277   6.470  17.346  14.921
62293W        W27278  39.546  36.409   1.142
62294W        W27279   3.388   2.379  13.389
62295W        W27280  33.039  20.152   0.019
62296W        W27281  35.117  31.406   4.671
62297W        W27282  22.438  33.100   1.239
62298W        W27283  39.911  39.114   4.253
62299W        W27284  39.935  22.556   3.266
62300W        W27285  22.097  18.659   9.581
62301W        W27286  21.133   1.334   3.701
62302W        W27287   2.172  38.412  13.894
62303W        W27288  39.794   7.695  12.540
62304W        W27289  24.160  12.617   4.959
62305W        W27290  32.414  31.899  11.567
62306W        W27291   8.694  33.156  13.518
62307W        W27292   9.245  35.317  11.587
62308W        W27293  16.740  39.804  11.510
62309W        W27294   3.582  44.941  11.239
62310W        W27295  38.815   6.789  14.487
62311W        W27296  31.496  44.223   1.499
62312W        W27297  15.856  24.472  13.493
62313W        W27298  37.303   9.763   0.368
62314W        W27299   8.367  23.552  12.202
62315W        W27300  42.075  36.431  14.556
62316W        W27301   8.233  38.355   2.171
62317W        W27302  29.064  23.296  11.477
62318W        W27303  11.328  34.809   1.779
62319W        W27304   9.299  10.251  12.535
62320W        W27305  18.725  12.191  10.537
62321W        W27306   4.260  26.130   2.815
62322W        W27307  40.992   6.038   2.316
62323W        W27308  30.418  20.767  14.820
62324W        W27309   5.527  40.524   0.023
62325W        W27310  22.569   6.295  10.689
62326W        W27311  44.070  21.403  14.487
62327W        W27312  31.048  11.083  13.996
62328W        W27313  18.243  44.368   4.665
62329W        W27314  11.769  41.924  14.037
62330W        W27315   8.391  42.733   2.275
62331W        W27316  11.480  37.529   0.546
62332W        W27317   4.200  44.101   3.591
62333W        W27318  18.780  42.567  10.892
62334W        W27319  23.164  31.496  13.375
62335W        W27320  39.615  12.035  13.800
62336W        W27321  27.083  39.927  11.892
62337W        W27322  23.080   7.080  11.621
62338W        W27323  15.816   4.402   1.356
62339W        W27324  29.307   9.376   3.729
62340W        W27325  17.556  41.297   1.787
62341W        W27326  20.346   7.665  11.127
62342W        W27327  34.551  27.659   0.447
62343W        W27328  17.071  18.720   1.417
62344W        W27329  15.554  27.064   1.623
62345W        W27330   5.672   1.649   1.765
62346W        W27331   9.183  44.441   4.007
62347W        W27332  14.220  39.589   4.441
62348W        W27333  11.903   9.228  12.083
62349W        W27334   8.320   7.291   3.613
62350W        W27335  39.048   9.190   0.414
62351W        W27336  16.052   0.773   2.348
62352W        W27337  38.985  32.458   1.496
62353W        W27338  17.232  19.289  11.222
62354W        W27339   6.771  40.943   0.701
62355W        W27340  43.910  14.617   3.578
62356W        W27341  22.381   4.531   2.755
62357W        W27342   1.516  11.751   3.729
62358W        W27343   1.887  10.356   3.607
62359W        W27344   5.516  32.367   3.237
62360W        W27345  10.902  31.045  11.101
62361W        W27346  38.542  41.425   0.426
62362W        W27347  39.427  29.020  11.551
62363W        W27348  20.335  40.620  11.173
62364W        W27349  10.851   4.342   0.450
62365W        W27350  29.871  10.261  13.874
62366W        W27351   3.455  15.157  10.766
62367W        W27352  37.929   1.177   2.148
62368W        W27353  32.571  34.131  14.294
62369W        W27354   0.742  39.275  14.307
62370W        W27355   8.263  23.453   2.720
62371W        W27356   2.497  16.295  12.851
62372W        W27357  12.451  42.423   3.079
62373W        W27358  25.924  25.660  11.026
62374W        W27359  44.716  26.030  13.958
62375W        W27360  18.286  10.901   3.224
62376W        W27361  15.855  14.975  10.188
62377W        W27362  14.253  10.648   0.004
62378W        W27363  38.875  11.086  12.633
62379W        W27364   6.392   2.382   0.345
62380W        W27365  40.383  21.270   9.852
62381W        W27366  44.386   3.768  14.185
62382W        W27367  38.741  32.025  12.859
62383W        W27368   6.630  33.577   2.121
62384W        W27369  24.451  20.599   3.625
62385W        W27370  36.907  12.152  12.972
62386W        W27371  43.330  19.294   1.177
62387W        W27372  15.794  27.459  12.077
62388W        W27373   0.077  23.397  13.448
62389W        W27374  29.855  22.103  13.692
62390W        W27375  21.033  12.501   4.183
62391W        W27376  19.232   3.920  11.124
62392W        W27377  37.895  40.063  12.004
62393W        W27378  21.668  43.323  12.487
62394W        W27379   0.867   9.019  13.684
62395W        W27380   0.306  43.031  12.971
62396W        W27381   3.540  40.516   2.293
62397W        W27382  18.673   8.543   1.279
62398W        W27383  13.622   3.283  12.446
62399W        W27384  31.689   7.900  11.259
62400W        W27385  18.510   4.973   2.223
62401W        W27386  43.998  30.619  11.381
62402W        W27387  34.544   8.788   1.729
62403W        W27388  20.765   2.736  11.162
62404W        W27389  30.097  36.966   0.239
62405W        W27390   0.209  36.875  10.560
62406W        W27391  39.162   4.781  13.503
62407W        W27392   2.819  42.001  13.877
62408W        W27393  14.160   6.773   3.732
62409W        W27394   5.472  17.333  13.857
62410W        W27395  35.712   5.247   0.296
62411W        W27396  28.968   5.205   2.606
62412W        W27397  35.931  42.278  14.837
62413W        W27398   2.631  42.741   0.262
62414W        W27399   0.908   0.264  14.847
62415W        W27400  15.517  19.068  14.485
62416W        W27401  41.558   0.363   4.269
62417W        W27402  43.270   0.704  14.255
62418W        W27403   7.369  39.724  11.139
62419W        W27404  18.499  18.195   2.625
62420W        W27405  38.956  26.678  11.066
62421W        W27406   6.768  22.537   3.774
62422W        W27407  23.343  37.273   4.348
62423W        W27408  18.606   2.443  14.400
62424W        W27409  25.783   5.025   0.501
62425W        W27410   0.232   7.051   3.300
62426W        W27411  31.967   9.225  13.113
62427W        W27412  28.572   4.931   2.819
62428W        W27413   0.465  15.109   9.874
62429W        W27414  11.222  42.405  10.631
62430W        W27415  43.034  40.272   0.311
62431W        W27416  32.389   9.393  14.936
62432W        W27417  34.090  43.895  12.606
62433W        W27418  29.571  29.092  10.453
62434W        W27419   6.197  21.595  13.243
62435W        W27420  18.660  44.949  12.372
62436W        W27421   5.042  38.544  12.150
62437W        W27422  30.932  28.679  10.719
62438W        W27423  22.838  30.200   3.755
62439W        W27424   8.887  16.796  12.053
62440W        W27425  19.237  35.276  12.586
62441W        W27426  24.936   1.722  11.672
62442W        W27427  28.672  13.074   3.724
62443W        W27428   1.851   4.747   3.247
62444W        W27429   4.977   0.903   3.890
62445W        W27430  12.366  13.868  13.550
62446W        W27431  32.461  42.769   3.750
62447W        W27432  19.110  21.259   2.583
62448W        W27433  33.339   5.136   1.344
62449W        W27434  29.763  37.907  13.724
62450W        W27435  27.166  44.379  14.811
62451W        W27436  40.885  42.789   4.210
62452W        W27437  40.857  23.530   2.981
62453W        W27438   5.169   4.247  13.387
62454W        W27439  26.436  35.514   3.829
62455W        W27440  28.543  44.054  11.589
62456W        W27441  28.158  26.921  13.842
62457W        W27442  24.068  20.686  13.074
62458W        W27443  32.766  39.396   0.783
62459W        W27444  15.669   8.708   1.433
62460W        W27445   6.376   3.374  10.767
62461W        W27446   3.374  24.963  10.819
62462W        W27447  25.956  10.638  14.115
62463W        W27448  23.950  28.992  12.541
62464W        W27449   9.659   2.422   2.217
62465W        W27450  21.481  11.645   1.687
62466W        W27451  23.610  24.131   1.527
62467W        W27452  37.370  42.344   2.383
62468W        W27453  33.965  36.262   0.723
62469W        W27454  18.245  42.844  13.388
62470W        W27455  35.337  11.788   3.312
62471W        W27456  44.368   6.704  12.068
62472W        W27457  31.186  31.590  14.530
62473W        W27458  25.017   6.912   3.674
62474W        W27459   0.452  43.018  14.354
62475W        W27460  41.248  22.830  11.738
62476W        W27461   1.437  43.636   3.802
62477W        W27462  44.798  13.191  12.195
62478W        W27463  19.726  39.378  13.607
62479W        W27464  15.865   5.472   0.679
62480W        W27465  11.786  40.218  12.533
62481W        W27466   7.299  21.469   1.191
62482W        W27467  17.287  30.011   4.643
62483W        W27468  37.566  33.512   1.642
62484W        W27469  40.184  11.115  13.311
62485W        W27470  44.236  17.179  13.948
62486W        W27471   8.910  43.389   1.710
62487W        W27472   2.192  42.475   0.199
62488W        W27473  17.016  33.970   0.997
62489W        W27474  38.216  13.516  11.820
62490W        W27475  16.514  37.074   4.572
62491W        W27476  44.021  10.290   3.455
62492W        W27477  29.219  10.377  13.266
62493W        W27478  12.150   7.923   1.176
62494W        W27479  24.741  27.006   3.948
62495W        W27480  14.667   5.010  12.079
62496W        W27481  29.013  44.904  10.768
62497W        W27482   8.240  27.957   1.863
62498W        W27483  26.415  34.989  12.924
62499W        W27484  12.895  28.214   3.933
62500W        W27485   6.456  10.741  14.192
62501W        W27486  22.984   6.090  11.464
62502W        W27487  17.632  16.283  11.980
62503W        W27488  12.273  29.257  10.124
62504W        W27489   2.753  19.714   3.257
62505W        W27490   2.314  12.149   4.581
62506W        W27491  12.062  40.072   2.891
62507W        W27492  42.638  25.085  14.211
62508W        W27493   1.910  30.468  10.880
62509W        W27494  39.528  17.878  10.689
62510W        W27495   5.952  16.073  13.931
62511W        W27496  37.802  20.057   4.566
62512W        W27497  20.116   7.287  14.295
62513W        W27498  16.834  32.044   2.868
62514W        W27499  22.271  39.554  14.239
62515W        W27500  39.909  26.256   1.480
62516W        W27501  20.809  14.306  14.187
62517W        W27502  24.141  20.724  13.922
62518W        W27503  16.515   4.796  10.775
62519W        W27504   2.864  38.941   2.903
62520W        W27505  19.749   0.787  12.207
62521W        W27506   3.270  27.562   0.480
62522W        W27507  42.696  42.905  11.497
62523W        W27508  27.729  35.878  13.898
62524W        W27509   9.252  38.492  11.593
62525W        W27510   9.626  32.873  11.844
62526W        W27511  43.898  14.736  11.987
62527W        W27512  40.091  30.024  12.415
62528W        W27513  12.503   8.941   0.432
62529W        W27514  29.912  23.199  13.275
62530W        W27515   7.172  18.024  10.721
62531W        W27516  17.281  20.296   3.337
62532W        W27517  30.332  28.577   3.766
62533W        W27518  41.005  10.222  14.042
62534W        W27519  40.388   5.241  10.835
62535W        W27520   2.408  28.380  14.369
62536W        W27521  10.670  15.132   1.437
62537W        W27522   3.993  35.183  10.714
62538W        W27523   7.615  16.917  10.678
62539W        W27524  35.268  42.471   2.729
62540W        W27525  21.669  44.842  14.948
62541W        W27526  19.181  27.132   2.941
62542W        W27527  41.884   8.963   4.285
62543W        W27528   5.915  27.691   3.741
62544W        W27529   6.778   4.021   5.361
62545W        W27530  30.129  23.115  11.184
62546W        W27531  19.490  38.998   0.794
62547W        W27532  18.015  32.599  12.386
62548W        W27533  32.843  43.285  12.298
62549W        W27534  30.601  12.923   1.931
62550W        W27535  11.316  24.681  11.358
62551W        W27536   1.052  24.520   2.265
62552W        W27537  15.718  26.915   2.969
62553W        W27538  38.510   1.461   2.689
62554W        W27539  13.368  26.269  13.742
62555W        W27540  38.408   4.915  11.400
62556W        W27541  11.719  19.169   2.732
62557W        W27542  21.494  33.902   3.907
62558W        W27543  40.909  42.140  13.426
62559W        W27544   6.400  34.117   4.620
62560W        W27545  36.050  16.547  12.432
62561W        W27546  11.478  19.629   5.123
62562W        W27547  11.088  28.109   2.081
62563W        W27548  39.313   6.168  12.549
62564W        W27549  28.109  17.767   3.111
62565W        W27550  13.786   6.874  14.489
62566W        W27551   2.779  28.642   1.687
62567W        W27552  20.746  11.192   0.154
62568W        W27553  33.677   0.219   0.010
62569W        W27554  43.646   8.144  11.607
62570W        W27555  23.706   7.372   2.793
62571W        W27556  25.726  34.572   1.978
62572W        W27557  24.815  12.534  12.572
62573W        W27558  13.349  12.554  10.485
62574W        W27559  10.767  38.828  12.995
62575W        W27560  18.605  15.611  12.566
62576W        W27561  43.423  33.722  14.332
62577W        W27562   4.942  40.423   5.109
62578W        W27563  35.154  13.239  11.548
62579W        W27564  10.259   3.384  11.620
62580W        W27565   0.503  22.094   1.783
62581W        W27566  12.687  19.212  11.908
62582W        W27567  35.381  30.356  14.927
62583W        W27568  12.333  41.044   1.857
62584W        W27569  17.156   8.220   0.471
62585W        W27570  36.939  16.652  14.246
62586W        W27571  40.508  20.043  14.479
62587W        W27572  11.099   8.618  13.537
62588W        W27573   9.944  37.796  14.846
62589W        W27574  40.332  32.564  12.822
62590W        W27575  22.576  43.809   0.023
62591W        W27576  24.720  22.298  11.193
62592W        W27577  37.084   7.898  12.642
62593W        W27578  37.158  39.986  10.552
62594W        W27579  28.922  34.347   1.222
62595W        W27580  11.734   2.221   4.778
62596W        W27581  41.377  34.119  13.490
62597W        W27582  36.488  35.294   0.970
62598W        W27583  21.816  37.432  12.387
62599W        W27584  12.883  27.746  13.105
62600W        W27585  24.303  15.118   4.543
62601W        W27586  22.636  19.715   4.327
62602W        W27587  33.531  22.359  10.638
62603W        W27588  27.262  33.548   3.629
62604W        W27589  28.262   8.500   0.841
62605W        W27590  32.384   6.089   3.050
62606W        W27591  13.209  23.984  14.038
62607W        W27592   5.987   3.718  11.135
62608W        W27593  20.820   0.394   2.617
62609W        W27594  19.492   0.348  12.252
62610W        W27595   9.604  17.276   3.764
62611W        W27596  11.109  23.606  10.490
62612W        W27597   6.099  17.260   2.376
62613W        W27598  36.377  36.032   4.163
62614W        W27599   3.521   5.286   0.260
62615W        W27600  40.875  14.672   9.821
62616W        W27601   0.472  41.011   1.759
62617W        W27602  25.502   4.998   0.053
62618W        W27603  25.722  27.938  10.199
62619W        W27604  29.961  15.576   1.354
62620W        W27605   9.173  17.187   4.050
62621W        W27606   3.461   0.777   4.142
62622W        W27607   3.274  27.381  13.960
62623W        W27608  28.673  23.212   3.749
62624W        W27609  18.875  13.579   1.318
62625W        W27610  33.873  23.955   2.543
62626W        W27611  12.188  42.834   3.274
62627W        W27612  20.889  25.457   2.909
62628W        W27613  15.557  40.556   4.039
62629W        W27614   7.712  44.415  10.721
62630W        W27615  39.332  13.870   2.787
62631W        W27616  40.544   2.032   0.081
62632W        W27617  15.692   0.688  10.698
62633W        W27618  15.607  39.613   4.335
62634W        W27619  11.452  38.355   4.160
62635W        W27620   0.210  39.508  12.653
62636W        W27621  38.928   1.983  10.599
62637W        W27622  10.485  35.020   1.862
62638W        W27623  25.952  34.632   1.211
62639W        W27624  30.880  36.373  14.501
62640W        W27625  30.652  20.125   0.870
62641W        W27626  33.440  26.227  10.369
62642W        W27627  29.951  38.915   0.242
62643W        W27628  25.466  29.030  10.775
62644W        W27629  29.628  44.024  13.585
62645W        W27630  33.095   4.263   2.239
62646W        W27631   7.279  28.944   1.915
62647W        W27632  23.208  35.357   4.350
62648W        W27633  27.249   9.046  14.966
62649W        W27634  41.384  28.534  10.029
62650W        W27635  22.995  27.712   3.041
62651W        W27636  36.786  38.879  13.973
62652W        W27637  25.203  10.239  11.564
62653W        W27638  31.533  21.560  14.515
62654W        W27639  39.840   0.578  12.066
62655W        W27640  44.956  19.169  13.973
62656W        W27641  18.718  31.172  14.859
62657W        W27642  15.074  22.352   2.419
62658W        W27643  14.215  29.763   3.308
62659W        W27644   5.238   8.328   1.986
62660W        W27645   3.509   6.930   2.398
62661W        W27646  33.192  33.447   4.626
62662W        W27647  31.523  23.229  11.105
62663W        W27648   0.919  33.461  11.981
62664W        W27649   6.625  10.331   4.130
62665W        W27650  41.372  20.510   3.602
62666W        W27651  16.662  25.637  13.914
62667W        W27652  10.429  25.565  10.906
62668W        W27653  14.503   7.672   1.432
62669W        W27654  43.246  13.137   4.051
62670W        W27655  33.117  37.672   4.109
62671W        W27656  21.857  32.459   1.283
62672W        W27657  13.019  37.507   1.199
62673W        W27658  33.711   7.081  10.297
62674W        W27659  39.985   8.915   0.042
62675W        W27660   8.105   4.354   3.105
62676W        W27661  24.651   0.695  11.135
62677W        W27662  40.587  40.337   3.070
62678W        W27663  16.149   1.053   0.364
62679W        W27664  22.103  23.899   4.629
62680W        W27665  19.229  32.529   4.324
62681W        W27666   8.817  14.859  14.499
62682W        W27667  11.720  33.136  14.039
62683W        W27668   1.448  36.830  13.373
62684W        W27669   1.184  15.803   0.189
62685W        W27670  25.626   1.259   0.098
62686W        W27671  39.883   9.654  12.033
62687W        W27672  23.920  32.082   4.153
62688W        W27673   9.172   0.322   0.027
62689W        W27674  39.904   4.611  11.496
62690W        W27675  20.794  44.812  12.975
62691W        W27676  32.834   4.815  13.903
62692W        W27677   6.151   6.893  13.751
62693W        W27678   2.925  16.250  13.794
62694W        W27679  26.032   0.059  12.086
62695W        W27680  11.976  18.290  12.747
62696W        W27681   2.293  30.598   2.720
62697W        W27682  33.288  15.293   4.155
62698W        W27683  26.763  37.486   4.700
62699W        W27684  35.092  39.874   4.530
62700W        W27685   9.746  21.250  14.744
62701W        W27686  21.567  19.241   3.158
62702W        W27687  11.351  43.480  11.655
62703W        W27688  12.580   9.858   0.294
62704W        W27689  21.199  20.348   2.917
62705W        W27690  23.623  26.887   1.437
62706W        W27691  23.768  44.928  14.434
62707W        W27692  21.655   7.345  12.428
62708W        W27693  40.776   9.662  13.026
62709W        W27694  40.900  11.153   0.597
62710W        W27695  20.339  18.008   3.200
62711W        W27696  21.466  30.941   3.129
62712W        W27697  11.296   9.965   2.330
62713W        W27698  30.916  10.225  10.740
62714W        W27699   9.866  14.886   2.629
62715W        W27700  11.520  19.170   4.885
62716W        W27701  16.881  30.765  13.089
62717W        W27702  13.763  43.557  14.069
62718W        W27703   4.968  40.020  10.737
62719W        W27704  13.755  16.675   3.639
62720W        W27705  44.980  30.060   3.653
62721W        W27706  22.424  36.380  14.935
62722W        W27707  39.965  31.573  11.071
62723W        W27708   0.785  35.583  14.446
62724W        W27709  11.954  11.721   1.909
62725W        W27710  32.417   2.171   2.285
62726W        W27711  29.017  33.900  14.806
62727W        W27712  23.177  44.914  11.973
62728W        W27713  33.071  16.902   4.206
62729W        W27714  12.284  33.687  11.533
62730W        W27715  22.625  20.317  10.725
62731W        W27716   3.165   8.437  13.480
62732W        W27717   8.790   1.011  12.934
62733W        W27718  13.261   8.863  12.846
62734W        W27719  28.252  20.026   0.994
62735W        W27720   7.331  19.569  12.617
62736W        W27721  12.604  21.769   2.472
62737W        W27722  42.741  29.568  11.145
62738W        W27723  28.408   8.158   3.626
62739W        W27724  29.397  16.715   0.409
62740W        W27725  41.716  44.286  12.460
62741W        W27726  28.277  13.384   3.855
62742W        W27727  28.413   3.410   1.779
62743W        W27728  17.043  17.025   3.325
62744W        W27729  29.259  16.197   2.416
62745W        W27730   5.025  22.198   1.768
62746W        W27731  40.591  41.845   2.917
62747W        W27732   6.638   9.054   4.797
62748W        W27733   6.259  19.035  14.431
62749W        W27734   5.117  44.306  12.826
62750W        W27735   2.781  18.782   4.636
62751W        W27736   2.947  44.020   4.526
62752W        W27737  34.485  22.471  13.052
62753W        W27738  25.058  35.847   4.415
62754W        W27739   0.336  43.964  11.950
62755W        W27740  17.425  11.201  10.697
62756W        W27741  12.816  42.639  13.430
62757W        W27742   3.662  43.505   3.040
62758W        W27743  23.060  32.984   0.226
62759W        W27744   6.394   3.363   2.793
62760W        W27745  28.847  36.581   0.855
62761W        W27746  16.656  20.841  12.078
62762W        W27747  10.184  24.910  11.994
62763W        W27748   2.477   3.001  13.387
62764W        W27749   5.810  22.621   4.836
62765W        W27750  16.683   2.163  10.647
62766W        W27751  40.206  20.314  14.804
62767W        W27752  39.127   9.724   3.854
62768W        W27753  42.794  25.208   3.568
62769W        W27754  40.104  11.824  10.788
62770W        W27755   6.349  28.702   0.428
62771W        W27756  22.716  11.838  14.827
62772W        W27757  36.699  43.381  14.371
62773W        W27758   5.944   9.532  13.406
62774W        W27759  11.561  38.356   3.260
62775W        W27760  15.354   2.847  10.249
62776W        W27761   3.189  23.565  12.074
62777W        W27762  13.647  29.474  10.615
62778W        W27763  30.614  25.920   1.441
62779W        W27764   3.679   9.608   2.328
62780W        W27765  39.389  35.023  13.048
62781W        W27766   2.584  22.525  12.574
62782W        W27767  41.100  43.062   3.798
62783W        W27768  14.252  10.473   0.487
62784W        W27769  44.861  27.005   3.401
62785W        W27770  20.162  19.782   1.818
62786W        W27771  13.878  27.173  13.982
62787W        W27772  25.266  42.161  10.631
62788W        W27773  43.222  38.511   4.329
62789W        W27774  35.040   0.849   3.708
62790W        W27775  41.235  20.432  13.328
62791W        W27776  38.582  29.486  13.260
62792W        W27777   7.248   0.088   2.788
62793W        W27778   8.017  31.647  14.916
62794W        W27779  26.240  43.032  10.657
62795W        W27780  28.597  31.220  12.044
62796W        W27781  26.513  24.747  10.688
62797W        W27782   0.337  23.603   1.464
62798W        W27783  29.077  20.061   1.317
62799W        W27784  34.629  35.554  14.268
62800W        W27785  19.223  32.670   1.925
62801W        W27786  43.936  39.813  10.810
62802W        W27787  14.767  33.111  12.430
62803W        W27788  36.643  38.908   4.050
62804W        W27789   5.809  19.394  11.997
62805W        W27790  29.002   9.480  11.118
62806W        W27791  31.685   2.512   4.084
62807W        W27792  32.590  32.570   4.561
62808W        W27793  16.892  14.529  11.907
62809W        W27794   2.173   3.863  14.430
62810W        W27795  17.710   9.272   2.103
62811W        W27796  42.448  28.539   2.268
62812W        W27797  24.091  19.849   1.674
62813W        W27798   2.765   1.158  13.427
62814W        W27799  31.334   7.381   3.246
62815W        W27800  16.136  30.374  14.736
62816W        W27801  17.606  37.406   0.241
62817W        W27802  21.741  19.317  14.896
62818W        W27803  39.051  29.549  13.526
62819W        W27804  43.490  41.336   3.071
62820W        W27805  18.901  40.994   4.216
62821W        W27806  26.369   9.802  11.255
62822W        W27807  44.639  24.083   1.475
62823W        W27808  18.474   1.431   3.284
62824W        W27809  39.643  17.579   5.166
62825W        W27810  26.394  24.829   0.703
62826W        W27811   1.097  35.835  14.089
62827W        W27812   2.076  25.555  14.453
62828W        W27813  23.227  19.152  11.179
62829W        W27814   2.172  26.504  13.391
62830W        W27815   9.396  11.717  11.160
62831W        W27816  40.070  21.074  12.916
62832W        W27817  38.406  37.621  11.129
62833W        W27818   5.385  39.643  12.590
62834W        W27819   4.913  36.949  11.146
62835W        W27820  17.643  35.965  14.851
62836W        W27821  10.333  14.759  11.062
62837W        W27822   6.621  17.827   3.769
62838W        W27823  19.221  22.286  12.810
62839W        W27824  27.638  34.870  14.089
62840W        W27825  37.489   5.921  11.308
62841W        W27826  32.403  42.431   1.202
62842W        W27827  13.032  39.934  14.005
62843W        W27828  14.136  41.037  13.539
62844W        W27829  22.932   0.242   1.336
62845W        W27830  30.934  23.162  12.466
62846W        W27831  27.735   0.950   1.390
62847W        W27832  33.484  12.084   4.515
62848W        W27833  12.382  19.234  14.879
62849W        W27834  14.809   3.998   0.713
62850W        W27835  16.231  27.517   0.527
62851W        W27836  12.942  15.818  12.834
62852W        W27837   0.741  17.591  11.346
62853W        W27838  33.305  16.380  14.506
62854W        W27839  14.586   9.877  12.079
62855W        W27840  29.291  32.936   4.796
62856W        W27841  29.621  24.891   1.396
62857W        W27842  16.048   8.829   1.103
62858W        W27843  35.061  14.135   2.178
62859W        W27844  43.871  25.440  13.925
62860W        W27845  11.853  15.998   4.198
62861W        W27846  25.689  39.009   3.376
62862W        W27847  15.704   2.502  13.291
62863W        W27848  35.059  13.609  12.833
62864W        W27849  11.395  18.735   4.624
62865W        W27850  32.334  33.697  10.488
62866W        W27851   1.367  15.980   1.098
62867W        W27852  15.509  24.026  11.732
62868W        W27853  20.308  13.196  13.678
62869W        W27854  29.705  42.658   0.701
62870W        W27855  34.301   7.644   4.116
62871W        W27856  11.108   7.912  12.931
62872W        W27857  14.332  10.725  14.032
62873W        W27858  43.426  25.204   2.152
62874W        W27859   5.853  18.111   1.898
62875W        W27860   5.275  19.438  13.725
62876W        W27861  13.179  40.412  10.713
62877W        W27862  42.531  41.049   4.268
62878W        W27863  19.079  20.646  10.661
62879W        W27864   1.021   7.336   3.149
62880W        W27865  37.027  15.227  12.038
62881W        W27866  13.065  12.612  14.794
62882W        W27867  44.260  43.540   4.211
62883W        W27868  12.283  18.330  10.688
62884W        W27869  31.496  37.554   2.751
62885W        W27870  35.542   9.185  14.442
62886W        W27871  40.329   5.964  12.082
62887W        W27872  27.245  23.120  11.837
62888W        W27873  14.811  38.159   0.364
62889W        W27874  24.271   1.414   1.883
62890W        W27875   8.219  25.249  12.074
62891W        W27876   3.744  36.896   2.330
62892W        W27877  22.815   7.636  12.786
62893W        W27878  20.237  10.388   3.296
62894W        W27879  38.760   6.134  10.614
62895W        W27880  40.014  12.131   2.306
62896W        W27881  43.804  22.249   0.948
62897W        W27882  44.905  19.020  13.200
62898W        W27883  39.545  31.185   4.019
62899W        W27884  25.476   2.024   0.396
62900W        W27885  40.404  13.128   3.807
62901W        W27886   2.332   2.780  10.669
62902W        W27887   5.680   3.346  11.879
62903W        W27888  32.522  20.957  13.004
62904W        W27889  42.854  17.808   3.361
62905W        W27890  12.798  26.859   4.176
62906W        W27891  43.895  36.047   1.265
62907W        W27892  19.433   8.403   0.025
62908W        W27893  22.936  22.506   4.611
62909W        W27894  27.581  41.160   3.432
62910W        W27895  30.888  29.602   0.701
62911W        W27896   1.352   4.958  14.718
62912W        W27897   1.167  23.574  12.059
62913W        W27898  21.678   3.852  12.583
62914W        W27899  32.437  35.044   4.824
62915W        W27900   3.202  10.189  14.839
62916W        W27901  39.357   8.394   2.110
62917W        W27902  40.570  18.445   4.094
62918W        W27903  42.852  36.069   1.183
62919W        W27904  29.740  12.035   0.555
62920W        W27905  28.921  43.935  14.420
62921W        W27906  31.314  41.121  13.488
62922W        W27907   1.257  22.715  13.359
62923W        W27908   3.655  33.985  11.551
62924W        W27909  25.953  43.956  14.717
62925W        W27910  38.422  26.385  11.687
62926W        W27911   8.046  32.852   0.177
62927W        W27912  16.555   4.855  11.703
62928W        W27913  28.159   9.800  12.530
62929W        W27914  39.415  29.505  14.951
62930W        W27915  35.002  17.826   1.906
62931W        W27916  37.374  18.755   4.610
62932W        W27917   2.199  33.812   4.483
62933W        W27918  37.993  24.232   1.538
62934W        W27919  24.564  19.715  13.299
62935W        W27920   3.014  29.377  13.894
62936W        W27921   0.192  40.051  12.054
62937W        W27922   8.309  14.556   3.856
62938W        W27923  16.704  37.790   1.420
62939W        W27924  41.224   6.410  11.134
62940W        W27925  24.775  24.515  10.622
62941W        W27926  16.062  41.106   3.665
62942W        W27927  33.655  42.943   4.111
62943W        W27928  31.971  17.702   0.254
62944W        W27929  17.189  33.465   2.206
62945W        W27930   7.400   1.436  13.185
62946W        W27931   9.384  19.857   2.375
62947W        W27932   1.442  32.262  12.537
62948W        W27933  13.212  26.753   0.355
62949W        W27934   9.301  34.887  11.979
62950W        W27935  42.010  31.563   3.378
62951W        W27936  27.682  12.569  11.398
62952W        W27937  24.359  12.272  14.338
62953W        W27938  11.710  37.165  12.906
62954W        W27939  28.033   0.750  10.389
62955W        W27940  14.706  36.951   1.847
62956W        W27941   3.785  40.386  13.545
62957W        W27942   7.692   5.676  13.902
62958W        W27943  33.938   1.155  11.606
62959W        W27944  29.617  26.142  10.727
62960W        W27945  31.685   4.244   4.608
62961W        W27946  39.983  14.325   3.715
62962W        W27947  36.018  19.131   0.471
62963W        W27948  13.788  27.493   4.913
62964W        W27949   3.971  39.317   2.662
62965W        W27950  42.363  30.466  12.527
62966W        W27951   4.013  38.322   3.620
62967W        W27952   3.471  21.127   4.540
62968W        W27953   2.519  27.258  14.958
62969W        W27954  14.558  32.317   2.579
62970W        W27955  40.913   8.230  11.988
62971W        W27956  27.861  12.145  13.416
62972W        W27957  18.728   3.413  11.653
62973W        W27958   1.161  20.035   0.261
62974W        W27959   7.856  20.574   1.881
62975W        W27960  26.800  42.821   4.491
62976W        W27961  44.272  13.751   1.326
62977W        W27962  23.925  28.137  10.681
62978W        W27963  16.382  42.490   0.918
62979W        W27964  39.762  21.724   1.831
62980W        W27965  37.098  12.801   0.934
62981W        W27966  13.132  13.661  14.799
62982W        W27967   5.282  35.020  10.353
62983W        W27968   3.487  43.342  13.798
62984W        W27969  40.009  36.736   4.126
62985W        W27970  32.849  37.523   4.526
62986W        W27971  11.469  10.098  12.299
62987W        W27972  41.199  36.101   3.575
62988W        W27973   3.107  23.318   2.286
62989W        W27974  21.501  43.382   2.817
62990W        W27975  26.369  10.729  14.975
62991W        W27976  20.781  44.434   2.691
62992W        W27977   3.343  23.934  10.690
62993W        W27978   9.638  17.111   4.284
62994W        W27979  27.642   6.119  14.801
62995W        W27980   0.507   6.723  14.975
62996W        W27981  10.854  11.551  13.833
62997W        W27982  42.561  13.256   1.320
62998W        W27983  13.717   2.682   4.725
62999W        W27984  27.869  16.198  12.689
63000W        W27985  36.056  24.387   1.872
63001W        W27986   7.706  20.102  14.031
63002W        W27987   9.853   0.636  13.486
63003W        W27988  44.855  31.958   0.413
63004W        W27989  32.411  26.858   2.718
63005W        W27990  33.652  35.785   2.971
63006W        W27991  40.037   7.840  12.126
63007W        W27992   5.657   5.172  14.679
63008W        W27993  10.811  10.803   0.290
63009W        W27994  21.528  28.125  13.607
63010W        W27995  25.912  13.559  11.625
63011W        W27996  36.118  35.645   3.253
63012W        W27997  44.075  22.929  10.255
63013W        W27998  15.852   4.985   0.836
63014W        W27999  13.137  13.074  12.895
63015W        W28000  34.095  33.388   4.532
63016W        W28001  21.721   4.142  14.896
63017W        W28002   0.018  39.988  13.772
63018W        W28003  28.466  10.022   3.574
63019W        W28004   4.447   0.401   4.242
63020W        W28005   9.379   2.354   0.854
63021W        W28006  19.003  33.658   0.308
63022W        W28007  20.016  26.644  12.442
63023W        W28008  30.388  19.197  11.992
63024W        W28009  44.781  36.037   4.602
63025W        W28010  10.295  35.638  11.999
63026W        W28011   6.125  44.161   5.085
63027W        W28012  25.499  40.484   2.269
63028W        W28013   9.779  23.774  10.651
63029W        W28014  12.763  21.740   3.849
63030W        W28015   3.050  32.526   4.761
63031W        W28016  10.405  25.681  11.397
63032W        W28017  25.830  30.210   1.318
63033W        W28018  39.180  22.899   3.556
63034W        W28019  17.340  30.893   2.500
63035W        W28020  18.434  11.691  13.394
63036W        W28021   6.627  24.068  14.278
63037W        W28022   5.664   5.457  12.058
63038W        W28023  21.188  17.605   3.895
63039W        W28024  10.707  14.434   3.161
63040W        W28025  40.932  27.658  11.382
63041W        W28026  25.802  23.543  11.542
63042W        W28027  24.786  22.737  14.424
63043W        W28028  25.213  13.705  14.754
63044W        W28029  31.661  40.967  12.450
63045W        W28030  42.497   3.037   3.198
63046W        W28031  31.876  14.750   2.687
63047W        W28032  30.470  40.775  12.018
63048W        W28033  12.834  40.814  10.616
63049W        W28034  12.348  33.664   1.948
63050W        W28035  41.918  26.753   2.048
63051W        W28036  29.180  30.662  11.681
63052W        W28037  23.340  16.871   2.364
63053W        W28038  20.153  22.565   0.854
63054W        W28039  24.487   3.014  13.658
63055W        W28040  28.934   7.916  11.518
63056W        W28041  27.998  12.385   2.141
63057W        W28042  23.716  32.151  13.526
63058W        W28043  31.033  37.451   2.215
63059W        W28044  22.576  38.915  11.361
63060W        W28045  17.142  31.552  12.056
63061W        W28046  20.456  21.636  11.120
63062W        W28047  21.848  19.714   1.236
63063W        W28048  18.637  42.054   0.233
63064W        W28049  34.075  44.890  12.910
63065W        W28050  10.723  15.159  13.608
63066W        W28051  18.586  34.891  11.901
63067W        W28052  26.598  20.523   4.268
63068W        W28053  12.580  14.704   4.670
63069W        W28054   3.730  37.588  10.756
63070W        W28055  13.912   2.258   4.544
63071W        W28056   7.812  39.456   0.794
63072W        W28057  27.818   2.355  11.656
63073W        W28058  29.537  39.766  13.496
63074W        W28059  19.976   2.829  14.590
63075W        W28060   2.775  20.382  14.925
63076W        W28061  44.990  36.909   0.322
63077W        W28062   9.957  38.482   2.460
63078W        W28063  38.788  12.765   3.855
63079W        W28064  21.562  44.680  12.546
63080W        W28065  15.291  32.979  11.720
63081W        W28066  29.429  24.965  11.157
63082W        W28067  24.667   0.147   4.523
63083W        W28068  16.723  35.617   3.109
63084W        W28069  12.144  12.193  12.176
63085W        W28070  39.825  11.187   0.270
63086W        W28071  19.296  40.356  11.149
63087W        W28072  23.769  14.214   4.432
63088W        W28073  18.470   3.277  14.468
63089W        W28074  32.051   4.458   3.317
63090W        W28075  33.381  32.209   0.354
63091W        W28076  38.465  23.582   2.004
63092W        W28077  34.163  18.614  14.960
63093W        W28078  29.571  39.892  12.577
63094W        W28079  40.304  27.054   0.005
63095W        W28080  21.491  18.642  10.116
63096W        W28081  40.571   1.484  12.572
63097W        W28082   0.184  40.643   1.523
63098W        W28083  43.452  44.855   1.340
63099W        W28084  13.863  28.604  13.408
63100W        W28085  41.430  39.337  14.894
63101W        W28086  13.697  15.128  14.364
63102W        W28087  28.979   5.714   2.415
63103W        W28088  36.917  38.875   2.970
63104W        W28089  42.375  41.881   0.997
63105W        W28090  40.351  38.272   3.770
63106W        W28091  38.613  40.810  13.001
63107W        W28092  39.086  43.711   0.397
63108W        W28093  10.734  43.610   0.252
63109W        W28094   2.397  17.812   3.261
63110W        W28095  11.643  29.157  13.408
63111W        W28096  11.235  39.043   3.709
63112W        W28097   2.840  34.501   0.440
63113W        W28098  27.079  13.338   2.378
63114W        W28099  30.711  24.154  14.674
63115W        W28100  15.573  29.208   1.105
63116W        W28101   4.215  36.451  11.117
63117W        W28102  18.170   5.412  12.479
63118W        W28103   7.144  26.174   4.647
63119W        W28104  11.908  38.006  12.380
63120W        W28105  34.397   2.343  14.314
63121W        W28106  25.775  11.929  14.008
63122W        W28107  43.992  26.602  14.790
63123W        W28108   0.781  35.019   2.273
63124W        W28109   3.384  24.031   1.170
63125W        W28110  43.269  11.045  14.910
63126W        W28111   2.380  25.255   3.397
63127W        W28112  11.693  42.728   0.764
63128W        W28113  10.283  19.214   4.097
63129W        W28114  39.421  21.438  12.365
63130W        W28115   2.919  26.923  14.999
63131W        W28116   7.673   2.859  12.917
63132W        W28117  26.226   9.747   1.206
63133W        W28118  12.829  36.929   4.363
63134W        W28119  28.677  16.025  13.101
63135W        W28120   8.402  44.896   1.290
63136W        W28121  18.417  37.540   1.281
63137W        W28122   1.396  20.635   4.593
63138W        W28123  35.181  15.646   0.456
63139W        W28124  18.043  18.549   1.257
63140W        W28125  12.631  28.656  13.884
63141W        W28126  18.668  16.917   1.835
63142W        W28127  17.038  21.722  12.802
63143W        W28128  26.680  26.963   2.302
63144W        W28129  17.950   1.395   2.376
63145W        W28130  16.259  14.141   0.962
63146W        W28131  17.114  43.200   3.776
63147W        W28132  24.213  39.918   4.625
63148W        W28133  17.147  30.010   2.026
63149W        W28134  38.934  42.859  12.886
63150W        W28135  16.739  11.259  12.544
63151W        W28136  15.248  23.134   1.799
63152W        W28137  17.147  42.466   3.111
63153W        W28138  22.232  44.902   2.192
63154W        W28139   2.090   5.853  12.149
63155W        W28140  16.955  33.507   4.547
63156W        W28141  20.091  12.541  11.712
63157W        W28142  32.792  19.013   1.267
63158W        W28143   5.320  12.584  14.368
63159W        W28144  26.925   3.286  14.991
63160W        W28145  26.679  36.377   1.001
63161W        W28146  18.040   8.659   0.523
63162W        W28147  12.913  27.895   1.601
63163W        W28148  27.667  31.302   3.534
63164W        W28149  27.488  32.083  13.829
63165W        W28150   4.830   9.975   0.756
63166W        W28151   4.468  36.884  10.904
63167W        W28152   0.466  42.742   0.224
63168W        W28153   0.882  32.144  13.376
63169W        W28154  30.354  24.074  11.442
63170W        W28155  15.954  36.823   1.442
63171W        W28156  26.644  44.160  10.295
63172W        W28157  27.010  27.238  13.104
63173W        W28158  28.406   2.882  12.876
63174W        W28159  30.315  44.898  12.905
63175W        W28160  20.729  19.826  10.347
63176W        W28161  40.922  15.737  11.103
63177W        W28162   0.265   7.442  12.453
63178W        W28163  35.187  20.887   4.595
63179W        W28164  17.983  18.182  10.306
63180W        W28165  21.446  44.549   2.464
63181W        W28166  39.322  31.563  13.905
63182W        W28167  28.891  19.516   4.182
63183W        W28168  35.552  39.909   3.166
63184W        W28169  31.353   2.991  14.364
63185W        W28170  44.371  23.874  10.308
63186W        W28171  10.762   7.611   0.333
63187W        W28172  38.103  18.981  13.020
63188W        W28173  20.175  10.219   4.606
63189W        W28174   5.821  18.105  14.314
63190W        W28175  31.815  17.746  12.528
63191W        W28176  23.485  21.725   0.099
63192W        W28177  23.445   5.830  13.918
63193W        W28178  44.058  44.351   4.762
63194W        W28179  38.438  13.569  13.063
63195W        W28180  31.606   3.197  13.356
63196W        W28181  44.546   9.062  12.795
63197W        W28182   7.252  20.694   0.203
63198W        W28183  25.549  10.598  13.430
63199W        W28184  10.175  31.526   2.343
63200W        W28185  25.949  19.627  14.738
63201W        W28186  15.021  31.497  14.023
63202W        W28187  33.355  34.339   4.020
63203W        W28188   1.363  35.353  10.512
63204W        W28189  43.455   2.631  12.178
63205W        W28190   2.835   5.511  11.783
63206W        W28191  17.594   0.967  14.725
63207W        W28192  42.475  40.866  14.683
63208W        W28193  13.038  28.318   4.463
63209W        W28194   8.426  12.144  13.027
63210W        W28195  40.545  15.584  10.788
63211W        W28196  42.391  29.206   1.559
63212W        W28197  28.190  19.356  11.645
63213W        W28198  36.126  34.240  10.989
63214W        W28199  23.051  18.698   1.318
63215W        W28200   8.352   3.965   3.392
63216W        W28201  14.788  42.913  11.549
63217W        W28202  19.626  31.946   1.312
63218W        W28203   5.762  17.171  12.521
63219W        W28204  25.043  41.850  10.964
63220W        W28205   6.374  29.134   0.150
63221W        W28206   2.487  30.411   9.988
63222W        W28207  38.231  41.802   3.230
63223W        W28208   0.482  40.394   4.787
63224W        W28209  13.513  28.428  11.031
63225W        W28210  27.455   5.316  11.950
63226W        W28211  37.974  43.716   3.837
63227W        W28212   5.138   4.487  10.213
63228W        W28213  22.900  36.783  10.407
63229W        W28214  13.369  43.047   4.648
63230W        W28215   3.839  44.489  14.016
63231W        W28216  13.086  40.279  14.881
63232W        W28217  30.568  19.049  13.579
63233W        W28218  26.350  22.829  10.619
63234W        W28219  29.249  25.968  11.026
63235W        W28220  42.773  16.897  13.441
63236W        W28221  18.718  20.542  13.325
63237W        W28222  22.283   7.207  10.316
63238W        W28223  15.045   7.734   1.406
63239W        W28224  25.019  19.086   0.311
63240W        W28225   8.398  42.432  12.522
63241W        W28226  24.010   7.913  14.403
63242W        W28227  25.188  38.817   4.939
63243W        W28228  26.129  32.391   3.110
63244W        W28229  37.456  19.618   3.501
63245W        W28230  23.036  38.183   4.116
63246W        W28231  29.154  29.554   3.802
63247W        W28232   4.802  19.718  13.714
63248W        W28233   4.599  44.494  12.877
63249W        W28234  41.407   3.352   3.724
63250W        W28235  21.564  23.173   3.894
63251W        W28236  22.435  19.101   3.644
63252W        W28237   6.229  39.002   1.766
63253W        W28238  11.503  39.273   4.104
63254W        W28239  39.036  33.043   0.842
63255W        W28240   4.307  41.177  11.080
63256W        W28241  43.512  10.345   2.763
63257W        W28242  34.571  41.911   4.439
63258W        W28243  30.386   4.437   2.695
63259W        W28244  21.409  18.277   1.588
63260W        W28245  26.060   5.249  12.481
63261W        W28246  10.779  33.403   2.867
63262W        W28247   7.880  30.674  11.482
63263W        W28248  44.509  35.573  12.677
63264W        W28249  28.961  29.471   3.339
63265W        W28250  24.506  23.660  14.001
63266W        W28251  15.799   4.723  12.474
63267W        W28252   8.338  22.380  13.315
63268W        W28253   6.710  37.856  13.508
63269W        W28254   7.670  39.959  11.984
63270W        W28255  34.525  40.510   4.210
63271W        W28256  30.114  29.922   4.729
63272W        W28257  16.808  41.975   0.222
63273W        W28258  15.787   1.383  14.838
63274W        W28259  22.951  10.870  12.795
63275W        W28260  18.329  17.354  14.288
63276W        W28261   0.886   7.709  11.740
63277W        W28262   2.125   4.990  12.051
63278W        W28263  44.899  12.224  12.413
63279W        W28264  37.464  33.317   4.613
63280W        W28265  12.140  30.569  11.408
63281W        W28266  22.573  23.652   4.641
63282W        W28267   8.661  20.561  14.949
63283W        W28268  11.134  10.132  10.614
63284W        W28269  33.096  14.000  12.449
63285W        W28270  25.181  36.480   1.002
63286W        W28271  39.446   4.554   4.023
63287W        W28272   4.851  11.326   0.520
63288W        W28273  32.625  42.523   3.289
63289W        W28274   1.693  15.310  12.010
63290W        W28275  16.688  10.268  11.459
63291W        W28276  37.866   2.228  14.919
63292W        W28277  10.212  14.565  11.538
63293W        W28278  22.113  16.258   4.025
63294W        W28279  15.270   6.815   2.944
63295W        W28280  34.578  32.587   2.695
63296W        W28281  39.802  10.414   4.944
63297W        W28282   0.584  32.967  14.539
63298W        W28283  21.476  13.220  11.499
63299W        W28284  15.204  25.908  10.763
63300W        W28285  19.619  12.806  14.182
63301W        W28286  33.606  20.663   0.424
63302W        W28287  42.791  38.476   4.755
63303W        W28288  21.671   5.130   4.089
63304W        W28289  17.227   5.841  13.766
63305W        W28290   6.747  23.056   3.931
63306W        W28291  39.118  14.958   2.184
63307W        W28292  39.981  36.870   2.800
63308W        W28293  32.302   7.548   4.218
63309W        W28294  33.652  41.256  12.100
63310W        W28295  23.575  11.090  13.364
63311W        W28296  42.398  30.111   2.153
63312W        W28297  33.802  37.421   5.139
63313W        W28298  25.697  22.909  11.980
63314W        W28299  35.319  22.589  12.109
63315W        W28300  43.306  36.369  14.471
63316W        W28301  24.168   7.649   2.819
63317W        W28302   5.105  27.519  12.132
63318W        W28303  14.118  29.929   0.992
63319W        W28304  20.038   6.190   0.953
63320W        W28305  41.382  29.326  11.548
63321W        W28306  25.185  10.207   0.235
63322W        W28307  18.189  36.951   1.822
63323W        W28308  18.493  17.669   1.383
63324W        W28309  10.672  21.236   3.101
63325W        W28310  15.043  44.652   4.259
63326W        W28311  41.256   9.772  13.933
63327W        W28312  10.993  44.278   3.269
63328W        W28313  23.148  23.348   2.321
63329W        W28314   7.239  34.596  14.305
63330W        W28315  37.979  17.149  11.591
63331W        W28316  28.965  18.432  11.436
63332W        W28317  35.110  36.935   2.332
63333W        W28318  39.371  34.463   5.264
63334W        W28319  44.975  16.298   2.259
63335W        W28320  22.104  23.046  14.862
63336W        W28321  24.842   6.446   1.649
63337W        W28322  40.321  26.987  13.007
63338W        W28323   3.731  31.156   4.198
63339W        W28324  10.874   2.629   3.329
63340W        W28325  40.598  32.956   5.305
63341W        W28326  18.729  12.551  13.554
63342W        W28327   7.655  15.669   1.320
63343W        W28328  39.378  26.022  12.611
63344W        W28329  11.721   4.655   3.096
63345W        W28330  12.395  42.320  14.677
63346W        W28331  41.488  23.064  10.266
63347W        W28332  44.563   7.204   0.226
63348W        W28333  18.109  32.018   3.365
63349W        W28334  20.810  22.392  10.756
63350W        W28335  23.512  33.625  13.499
63351W        W28336  40.872  24.140  12.973
63352W        W28337  17.128  17.860   3.746
63353W        W28338   3.742   0.314  14.660
63354W        W28339   3.465  19.987  12.073
63355W        W28340   3.972  14.557   1.172
63356W        W28341  31.342  41.048  11.045
63357W        W28342  11.679  21.256  12.893
63358W        W28343  29.131  16.074  13.790
63359W        W28344   2.465  43.323   3.588
63360W        W28345  31.316   0.300  10.702
63361W        W28346  29.859  18.046  11.140
63362W        W28347  40.263   1.493  14.405
63363W        W28348  44.970   6.202  11.341
63364W        W28349   2.894  28.002   2.792
63365W        W28350  30.989  26.127   4.066
63366W        W28351  34.830  42.829   4.527
63367W        W28352   5.075  44.002  13.669
63368W        W28353  23.435  25.995   1.446
63369W        W28354  20.823  41.837   3.008
63370W        W28355  40.358  20.811  14.797
63371W        W28356  18.480   0.912   4.062
63372W        W28357  14.465  40.383  13.999
63373W        W28358  38.356   5.902   4.324
63374W        W28359  18.829   6.700  12.094
63375W        W28360  14.101   8.246   0.326
63376W        W28361  31.654   8.382  11.721
63377W        W28362  38.379  11.844  12.514
63378W        W28363   7.043   2.819   4.011
63379W        W28364  27.951  24.325  10.868
63380W        W28365   3.140  32.957  11.666
63381W        W28366  30.590  33.394  11.651
63382W        W28367  22.688   2.538  11.574
63383W        W28368  32.405  43.720   0.795
63384W        W28369  21.726   5.599   3.316
63385W        W28370  36.169  21.116  11.215
63386W        W28371  28.675  10.008   0.731
63387W        W28372  36.504   0.110   9.884
63388W        W28373  21.764  31.874  11.905
63389W        W28374  40.766   1.986   1.231
63390W        W28375   2.895  18.732   1.237
63391W        W28376  44.079  34.937   0.766
63392W        W28377   1.210  23.559   0.506
63393W        W28378  28.226   3.738  10.672
63394W        W28379  11.170  30.382   1.835
63395W        W28380  30.941  44.865   1.824
63396W        W28381   9.349   7.867   2.189
63397W        W28382  41.811  12.848  13.956
63398W        W28383  14.385   8.697  11.159
63399W        W28384  31.655  41.832   1.316
63400W        W28385  17.865   0.030  13.807
63401W        W28386  13.700  27.233   4.048
63402W        W28387  29.766  10.734   0.435
63403W        W28388   8.106  19.192   3.611
63404W        W28389  19.920  24.759   4.788
63405W        W28390  17.239  32.005  12.841
63406W        W28391  25.631  10.401   4.099
63407W        W28392   9.336  39.928  12.521
63408W        W28393  35.147  22.835  11.057
63409W        W28394  20.138  29.969   3.583
63410W        W28395  42.727   0.407  11.663
63411W        W28396  21.756  36.969  10.734
63412W        W28397  13.079   0.464  13.641
63413W        W28398  24.167  30.580   2.227
63414W        W28399   0.244   3.192  11.220
63415W        W28400  26.985  27.218  10.798
63416W        W28401  16.296  26.587  12.062
63417W        W28402  42.022   3.970   3.349
63418W        W28403  38.620  21.248   3.855
63419W        W28404  27.109  40.964   0.784
63420W        W28405  32.586  24.286  13.410
63421W        W28406  33.311  32.094  11.787
63422W        W28407  17.248   7.712   4.095
63423W        W28408   1.272  42.056  14.022
63424W        W28409  36.031   4.870  13.276
63425W        W28410  11.575  38.995   1.242
63426W        W28411  11.479  28.371   3.813
63427W        W28412   1.365  22.507   4.066
63428W        W28413  42.731  17.692  10.755
63429W        W28414  28.309  35.456  11.197
63430W        W28415   0.465  27.566  10.395
63431W        W28416   5.630   4.703  10.296
63432W        W28417  40.961  33.106   0.407
63433W        W28418  15.114  36.019   3.720
63434W        W28419  21.158  31.954   4.120
63435W        W28420  36.663  19.941   0.021
63436W        W28421   9.255   1.437  12.606
63437W        W28422   1.072  35.997  12.807
63438W        W28423  44.276   2.732   2.529
63439W        W28424  32.559  16.254   3.281
63440W        W28425  40.784  17.209   0.159
63441W        W28426   5.303  16.775  14.472
63442W        W28427  16.564  13.182  10.713
63443W        W28428  29.205  26.263  12.096
63444W        W28429  27.769  14.937   0.869
63445W        W28430   1.252  38.510  12.858
63446W        W28431   4.513   1.946  12.923
63447W        W28432  19.264  27.070   1.340
63448W        W28433  32.615   9.069   1.725
63449W        W28434  43.524  11.585   3.262
63450W        W28435  19.100  12.373  14.522
63451W        W28436  17.715  13.895   0.451
63452W        W28437  39.243  15.613  10.596
63453W        W28438  29.350  35.561  11.064
63454W        W28439   7.065  37.016  11.541
63455W        W28440  28.026  34.602  10.761
63456W        W28441  38.746  25.024  11.171
63457W        W28442  21.282  12.241   3.747
63458W        W28443  23.682  39.058   4.478
63459W        W28444  18.270   4.959  12.020
63460W        W28445  31.197  22.070  12.024
63461W        W28446  31.473  12.739   0.285
63462W        W28447  40.334  31.738   4.970
63463W        W28448   0.390  16.514  12.841
63464W        W28449   3.753  44.395   3.678
63465W        W28450   2.519   5.486  13.827
63466W        W28451  41.743   0.408  11.971
63467W        W28452  12.606   5.481  10.967
63468W        W28453   5.865  27.654  14.786
63469W        W28454  27.139   6.749  13.323
63470W        W28455  21.664   8.518   1.737
63471W        W28456  13.388   8.900   0.698
63472W        W28457  41.804  15.246  10.761
63473W        W28458  15.831  15.527   2.751
63474W        W28459   6.506  42.309   1.275
63475W        W28460  23.122  41.411  14.376
63476W        W28461  30.677  12.752  12.930
63477W        W28462  26.469  15.179  11.599
63478W        W28463   8.815  39.797  12.610
63479W        W28464  43.558  28.984  14.936
63480W        W28465  21.200  19.248   2.760
63481W        W28466   5.292  38.863   2.221
63482W        W28467  34.007   0.880   3.654
63483W        W28468  25.038  10.867  14.619
63484W        W28469   9.763  17.319   0.697
63485W        W28470  22.953   7.497   3.355
63486W        W28471   8.303  39.404   3.152
63487W        W28472  16.299  30.427  13.429
63488W        W28473   7.273  38.231   0.713
63489W        W28474  36.145  37.303  11.232
63490W        W28475  11.368  25.765   0.953
63491W        W28476  36.823  32.920  11.724
63492W        W28477  17.265  21.642  13.824
63493W        W28478  42.281  39.932  13.456
63494W        W28479  28.921  40.152   1.199
63495W        W28480  20.032  37.474  14.913
63496W        W28481   1.393  35.145   2.126
63497W        W28482  21.524   3.356  12.479
63498W        W28483  31.966  20.506  11.452
63499W        W28484   2.522   1.704   3.777
63500W        W28485  19.141  32.163  12.944
63501W        W28486  13.772   3.785  13.999
63502W        W28487  17.123   9.605  11.921
63503W        W28488   8.735  17.677   3.730
63504W        W28489  10.355  39.158  14.313
63505W        W28490   4.682  31.033  10.661
63506W        W28491   4.449  32.469   3.984
63507W        W28492   5.516  19.458   2.282
63508W        W28493  36.622  17.497  11.699
63509W        W28494   7.163  11.830   0.430
63510W        W28495  24.082  30.404   0.248
63511W        W28496   4.484  38.602   3.684
63512W        W28497  23.087   1.556   1.881
63513W        W28498  35.603  31.332  10.689
63514W        W28499   4.445  41.077   1.218
63515W        W28500  28.400  31.398   2.343
63516W        W28501  24.913  39.472  14.961
63517W        W28502   7.871  36.409   4.083
63518W        W28503  37.306  15.888   4.567
63519W        W28504  16.541  38.383   4.111
63520W        W28505  21.007  22.996   1.769
63521W        W28506  18.556  15.079  14.354
63522W        W28507  17.496  20.747   0.371
63523W        W28508   1.046  32.931  13.000
63524W        W28509  32.528  34.906   4.320
63525W        W28510  13.866  32.037  10.302
63526W        W28511  17.639  16.114   1.313
63527W        W28512   5.744  41.884  12.537
63528W        W28513  14.203  19.662   3.118
63529W        W28514  30.416  34.824   2.294
63530W        W28515   5.795  16.869   3.868
63531W        W28516  13.677   0.242  12.967
63532W        W28517  37.745  12.091  11.746
63533W        W28518  34.073   8.098   0.749
63534W        W28519  31.892  24.551   5.105
63535W        W28520   0.381  37.233   3.295
63536W        W28521  34.666  42.048   3.278
63537W        W28522  31.696   8.134   3.632
63538W        W28523  16.678   9.142  12.019
63539W        W28524  21.778  36.107  13.925
63540W        W28525  32.532  34.039  13.318
63541W        W28526   3.799   7.235  13.542
63542W        W28527  41.839  13.362  13.880
63543W        W28528  21.268   0.283  11.797
63544W        W28529  21.419  13.216   4.578
63545W        W28530  39.963   7.370   3.298
63546W        W28531  17.270  24.895  14.199
63547W        W28532  30.850  28.979  11.692
63548W        W28533   2.466   9.947   0.279
63549W        W28534   8.414  24.935   4.260
63550W        W28535   5.785  33.344   3.345
63551W        W28536  11.446  43.206  12.502
63552W        W28537  13.372  28.527  13.415
63553W        W28538   7.188  41.673  13.886
63554W        W28539   8.107  27.642   4.644
63555W        W28540  21.581  35.914  11.643
63556W        W28541  44.583  40.171   3.545
63557W        W28542  38.583  38.963  12.991
63558W        W28543  36.522  41.427   0.576
63559W        W28544   3.246  44.488   1.053
63560W        W28545   5.295   7.475  11.151
63561W        W28546  16.849   2.145   3.562
63562W        W28547  38.520  14.735  12.207
63563W        W28548  12.774   1.679   1.333
63564W        W28549  11.306  32.025  10.478
63565W        W28550  23.021  39.998   4.680
63566W        W28551  13.804  16.017   1.562
63567W        W28552  21.101   0.850   0.425
63568W        W28553   9.826   5.065   5.374
63569W        W28554  21.050  28.145   0.740
63570W        W28555   1.321  10.149  10.871
63571W        W28556  22.111  26.883  14.541
63572W        W28557  30.330   2.665   0.082
63573W        W28558  30.445  42.402   0.861
63574W        W28559  35.045  21.960   0.333
63575W        W28560   2.238  10.656  11.645
63576W        W28561  30.656  20.433  12.391
63577W        W28562  27.518  13.923  11.561
63578W        W28563  12.127   8.611   0.350
63579W        W28564  21.226   0.961   5.097
63580W        W28565  34.844  44.450   3.262
63581W        W28566  32.225  41.360   1.694
63582W        W28567   0.838  23.290   4.245
63583W        W28568  33.325  15.638   4.535
63584W        W28569  23.779  40.266   1.719
63585W        W28570  13.116  33.578   3.663
63586W        W28571  35.566  10.324  14.015
63587W        W28572   7.035  42.506   1.929
63588W        W28573  43.420  24.215  11.488
63589W        W28574   4.309  38.377   0.021
63590W        W28575  24.965  39.729  14.491
63591W        W28576   4.166  31.296  13.800
63592W        W28577  40.846   3.656   0.817
63593W        W28578  35.992   7.667  14.784
63594W        W28579  31.177  30.531   3.307
63595W        W28580  10.346  40.477   0.871
63596W        W28581  24.648  34.869  11.627
63597W        W28582  25.138  34.307   1.204
63598W        W28583  20.264   0.782  12.555
63599W        W28584  21.814  22.929   2.052
63600W        W28585  22.585  22.328   4.949
63601W        W28586  25.477  27.927  11.125
63602W        W28587  17.141  10.267  11.719
63603W        W28588  36.880  37.109   4.671
63604W        W28589  31.211  39.395  11.636
63605W        W28590   9.852   2.719   2.569
63606W        W28591  13.191   0.232   0.083
63607W        W28592   4.180  13.722  13.426
63608W        W28593  32.226  32.365  11.651
63609W        W28594  31.976  32.904  14.339
63610W        W28595  29.377  24.549  12.715
63611W        W28596  13.179  43.262  14.966
63612W        W28597  18.776  41.989   2.961
63613W        W28598  23.072  44.050  13.748
63614W        W28599  24.158   9.941  13.833
63615W        W28600  13.991   1.318  14.596
63616W        W28601  29.809   0.522  11.953
63617W        W28602  26.295   4.202  13.623
63618W        W28603   8.691  44.378   2.805
63619W        W28604   9.495  10.382   1.327
63620W        W28605   4.286  30.434  10.858
63621W        W28606  29.978  35.637  12.655
63622W        W28607  12.666  20.838   2.714
63623W        W28608  33.771   6.700  12.031
63624W        W28609  23.334   3.395   3.114
63625W        W28610  36.916   5.482  13.170
63626W        W28611  29.443   7.039  13.473
63627W        W28612   5.751  12.138  10.940
63628W        W28613  15.303  27.384  14.463
63629W        W28614   8.610   0.741   4.279
63630W        W28615   5.511  33.028  11.231
63631W        W28616  12.062  22.810   0.727
63632W        W28617  16.239  40.893  13.073
63633W        W28618  26.078  39.550  13.332
63634W        W28619   1.990  18.490   3.345
63635W        W28620  18.621  29.678  11.545
63636W        W28621  42.898  14.215   1.348
63637W        W28622  21.237  26.509   4.759
63638W        W28623  20.243  43.807  10.329
63639W        W28624  41.768  13.239  12.832
63640W        W28625  31.465  30.929   4.535
63641W        W28626  29.610  44.961  10.810
63642W        W28627  39.796  27.046  11.144
63643W        W28628   3.288  28.294  11.659
63644W        W28629  14.805  10.077  14.494
63645W        W28630  18.218  16.651   1.058
63646W        W28631  35.374  43.320   0.005
63647W        W28632  36.553  24.788  12.118
63648W        W28633  11.273  36.232  12.126
63649W        W28634  23.719   3.760   1.842
63650W        W28635   0.256  35.847  14.374
63651W        W28636  40.668  27.213  13.569
63652W        W28637  27.608  37.936  12.958
63653W        W28638  35.935   7.304  14.303
63654W        W28639  23.568  31.428  10.619
63655W        W28640  38.458  31.316   3.338
63656W        W28641  26.722   5.493  12.772
63657W        W28642  14.583  12.061  14.031
63658W        W28643   3.038  22.581  11.527
63659W        W28644  44.354   0.562  13.360
63660W        W28645  21.794  39.656  11.393
63661W        W28646  20.212  30.636  13.392
63662W        W28647  36.685  34.673   2.845
63663W        W28648   9.636  14.705   0.903
63664W        W28649   6.403  26.559  10.580
63665W        W28650  40.621  13.780   0.923
63666W        W28651   8.758   5.100  12.499
63667W        W28652  22.508   4.873  10.276
63668W        W28653  15.626   7.226  11.259
63669W        W28654  11.012   1.477   3.857
63670W        W28655  28.759   9.865  14.451
63671W        W28656  37.929   3.126   4.647
63672W        W28657   3.936   7.997  13.983
63673W        W28658  17.899  13.096   3.323
63674W        W28659  23.723   1.521  12.031
63675W        W28660  40.851  35.943   0.914
63676W        W28661  20.585  29.238   3.695
63677W        W28662   7.631  38.630   3.558
63678W        W28663  43.952  41.013  14.734
63679W        W28664  14.106  38.533  12.027
63680W        W28665   9.546  41.855  12.643
63681W        W28666   6.451  31.520  12.490
63682W        W28667  34.926  35.915   3.795
63683W        W28668  40.580  20.316  12.479
63684W        W28669   9.736  36.312  13.300
63685W        W28670   2.641  18.417   2.649
63686W        W28671  19.257  28.525  14.341
63687W        W28672  22.309   8.685   4.607
63688W        W28673  15.793  11.121  11.660
63689W        W28674   9.610   0.965  11.973
63690W        W28675  21.121   4.703  11.879
63691W        W28676  22.168  29.934  10.550
63692W        W28677   1.297  31.803  13.338
63693W        W28678   0.816  30.435   2.233
63694W        W28679  33.022  11.967   4.838
63695W        W28680  43.207  21.919   3.673
63696W        W28681  40.727  24.608   1.360
63697W        W28682   3.704  37.463   4.596
63698W        W28683   5.179  11.159   4.366
63699W        W28684  43.987  22.110   4.057
63700W        W28685   7.164  41.531   3.223
63701W        W28686  34.997  26.595   3.348
63702W        W28687   1.321   7.668  13.005
63703W        W28688  38.829  16.770   0.769
63704W        W28689   4.134  34.809  14.472
63705W        W28690   7.968  16.620  12.773
63706W        W28691  38.497  25.593  14.332
63707W        W28692   7.096  44.797   4.623
63708W        W28693  25.589  17.362   0.803
63709W        W28694  31.119  37.095   4.644
63710W        W28695  22.619  34.720   0.936
63711W        W28696  38.451  32.964  12.591
63712W        W28697  42.469  39.644   0.795
63713W        W28698  34.336  14.727  11.059
63714W        W28699  32.925  37.189   4.145
63715W        W28700   9.556  19.759  11.602
63716W        W28701  17.644  16.815   4.081
63717W        W28702  27.383  39.232   2.862
63718W        W28703  21.599  18.110  13.390
63719W        W28704  30.669  25.687  11.183
63720W        W28705   6.015  13.665  14.738
63721W        W28706   4.618  24.005   1.870
63722W        W28707  41.905   2.132  13.001
63723W        W28708  34.769   3.266   0.779
63724W        W28709  25.871  26.649   2.247
63725W        W28710  43.769  31.527   1.307
63726W        W28711   5.324  38.178  12.395
63727W        W28712  26.117   9.182  10.727
63728W        W28713  25.921  29.405  12.822
63729W        W28714  12.375   3.867  11.288
63730W        W28715  22.135  43.712  13.869
63731W        W28716  15.198  44.216   1.300
63732W        W28717  14.678  33.871  11.150
63733W        W28718  39.017  10.329  10.696
63734W        W28719  11.285  40.632   2.840
63735W        W28720  10.218   5.507   5.175
63736W        W28721  24.152   9.292   0.396
63737W        W28722   3.877  32.702   4.031
63738W        W28723  41.447  28.888  11.802
63739W        W28724  35.380  29.230   1.417
63740W        W28725  38.033  13.780  12.226
63741W        W28726  20.203  26.644  10.068
63742W        W28727  21.209  39.959   1.403
63743W        W28728  21.817  11.485  12.856
63744W        W28729  22.922  23.095   1.733
63745W        W28730  16.083  22.628  11.962
63746W        W28731   4.786  32.748   2.488
63747W        W28732  19.633  12.269  12.388
63748W        W28733  35.508  10.751   1.894
63749W        W28734  29.613  35.326  14.834
63750W        W28735   6.434  24.186  12.897
63751W        W28736  13.438  28.115  14.973
63752W        W28737   1.452   5.637  14.351
63753W        W28738  40.318  39.299  11.544
63754W        W28739  32.279  26.607   1.534
63755W        W28740   6.443   0.316   2.831
63756W        W28741  13.313  26.271   4.888
63757W        W28742  40.639  31.401   0.568
63758W        W28743  38.331  14.128  13.907
63759W        W28744  17.992  34.982   0.065
63760W        W28745  13.262  14.991   3.755
63761W        W28746  10.184  11.993   4.561
63762W        W28747   0.160  17.120   2.132
63763W        W28748  29.651  30.589  11.450
63764W        W28749  24.741  19.766  11.386
63765W        W28750  40.610   5.782  11.685
63766W        W28751  35.030  24.309   0.353
63767W        W28752  11.776  26.988  13.920
63768W        W28753  30.977   6.129  13.311
63769W        W28754  44.427   8.203   0.154
63770W        W28755  28.154  10.887   1.976
63771W        W28756  35.152  37.941   2.812
63772W        W28757   2.825  35.951  10.601
63773W        W28758  30.846  16.562  13.838
63774W        W28759  34.459  39.945   3.181
63775W        W28760  32.849   9.927  13.774
63776W        W28761   0.431  12.789   0.314
63777W        W28762  33.217  41.554   4.864
63778W        W28763  24.423  33.178   0.231
63779W        W28764  41.535   6.847   1.756
63780W        W28765  34.553  41.473   4.154
63781W        W28766   0.533  35.121  11.596
63782W        W28767  14.509  40.901  11.522
63783W        W28768   9.168  15.625  14.466
63784W        W28769   9.410  36.854   2.696
63785W        W28770   8.469   1.111  11.048
63786W        W28771  13.457  17.321   2.235
63787W        W28772  34.837   9.400   0.158
63788W        W28773  26.559  16.793  12.045
63789W        W28774  32.445   9.406  13.205
63790W        W28775  29.574  13.519  13.999
63791W        W28776   9.683  39.326   2.724
63792W        W28777  14.840  22.338   1.187
63793W        W28778  37.723  17.161  10.734
63794W        W28779   5.835  24.973   4.420
63795W        W28780  21.999  30.911   0.857
63796W        W28781  43.292   7.458  11.103
63797W        W28782  30.496  17.998   1.033
63798W        W28783  13.848  38.990  12.059
63799W        W28784  19.767  41.652   0.234
63800W        W28785   8.102  38.234  13.406
63801W        W28786   1.813  33.648  12.360
63802W        W28787   8.308  43.466   3.157
63803W        W28788   2.470  23.408  14.516
63804W        W28789   3.237  30.064  11.073
63805W        W28790   5.297  44.695  13.175
63806W        W28791   9.754   4.813  10.120
63807W        W28792  20.726  23.534   1.840
63808W        W28793   3.718  40.437   3.616
63809W        W28794  36.988   7.898   3.594
63810W        W28795   8.298  19.536   0.788
63811W        W28796  23.958  10.833   4.166
63812W        W28797  28.426   0.534   3.317
63813W        W28798   1.978  39.369  11.613
63814W        W28799   1.203  17.050   3.027
63815W        W28800   8.030  37.094  14.361
63816W        W28801   5.387  29.950  10.648
63817W        W28802   6.334  27.360  12.116
63818W        W28803  25.294  39.771  12.687
63819W        W28804  42.012   1.677   4.337
63820W        W28805   5.485  38.310  14.363
63821W        W28806  26.454   0.649  14.915
63822W        W28807   2.699  36.448   2.145
63823W        W28808  37.099   9.840   3.255
63824W        W28809  28.223  29.109   1.921
63825W        W28810  22.618   2.118  13.831
63826W        W28811  12.104  40.572   1.928
63827W        W28812  14.043  11.662  13.407
63828W        W28813  16.818  31.261   2.245
63829W        W28814  10.227  23.262   5.234
63830W        W28815  29.821   2.140  11.091
63831W        W28816  41.355  20.516  11.993
63832W        W28817   6.607  44.225  14.309
63833W        W28818  33.613   8.934   0.717
63834W        W28819  18.125  40.821  11.236
63835W        W28820  18.864  31.620  10.776
63836W        W28821  40.644  34.908   3.199
63837W        W28822  12.641  40.500  14.766
63838W        W28823  22.451  38.801  12.332
63839W        W28824  32.994  30.418  13.911
63840W        W28825  11.942   3.493  13.322
63841W        W28826  14.788   8.258   4.112
63842W        W28827  25.699   3.531   2.509
63843W        W28828  34.029  14.146   1.130
63844W        W28829  32.983  27.576  11.677
63845W        W28830  20.581  24.340  12.528
63846W        W28831  11.385  37.508  13.874
63847W        W28832  16.750  36.472  10.687
63848W        W28833  10.392  23.746  11.298
63849W        W28834  12.597  15.027  11.531
63850W        W28835  36.497  43.477  13.347
63851W        W28836  14.886   8.598   0.249
63852W        W28837  34.563  40.551   3.699
63853W        W28838  22.093   0.795   2.456
63854W        W28839   2.364   6.504  12.466
63855W        W28840  41.914  21.816  11.915
63856W        W28841   0.032  37.369   9.746
63857W        W28842   1.038  26.498  10.534
63858W        W28843  16.088  44.848   1.190
63859W        W28844  31.964  10.578   0.086
63860W        W28845  18.788  12.793  14.940
63861W        W28846  38.449  35.442  11.640
63862W        W28847   3.792  23.175   4.099
63863W        W28848  35.776  17.307   4.719
63864W        W28849   2.955  21.733  14.760
63865W        W28850  20.933   6.430  14.869
63866W        W28851  23.142  38.632  12.891
63867W        W28852   3.276   1.251   4.159
63868W        W28853  11.918  36.590   1.360
63869W        W28854  37.799  23.278   2.649
63870W        W28855  27.016  20.671   0.884
63871W        W28856  42.669  14.306  11.857
63872W        W28857  33.380  20.542  14.834
63873W        W28858  19.753  24.569   1.890
63874W        W28859  11.408   8.650   4.883
63875W        W28860  24.748  37.932   2.245
63876W        W28861  35.360  21.124  11.624
63877W        W28862   1.171  25.482   0.674
63878W        W28863   8.758  10.939   0.847
63879W        W28864   5.347  19.610   1.803
63880W        W28865  39.607  14.830   1.034
63881W        W28866  13.873  25.360  13.631
63882W        W28867   8.621  36.586   4.704
63883W        W28868   6.629  25.169   2.674
63884W        W28869  28.388  41.994  12.367
63885W        W28870  12.240  32.073  13.121
63886W        W28871  28.544  37.734   2.274
63887W        W28872   4.220  32.632  13.932
63888W        W28873  44.166   8.149  14.689
63889W        W28874   4.826  37.090   2.531
63890W        W28875  10.722  40.989  11.522
63891W        W28876  11.659  21.124   4.602
63892W        W28877   9.993  14.300   5.102
63893W        W28878   9.621  44.066   2.296
63894W        W28879  34.993  42.888   3.212
63895W        W28880   0.108  38.071  10.236
63896W        W28881  22.755   3.941   0.724
63897W        W28882  20.169  24.530  13.537
63898W        W28883  34.784  42.655  11.162
63899W        W28884  20.456   6.645  14.558
63900W        W28885  30.648  17.688  12.481
63901W        W28886  19.420  26.678  11.467
63902W        W28887  35.521   1.974   0.869
63903W        W28888  16.227  13.818  12.035
63904W        W28889  31.547  43.404   3.741
63905W        W28890  29.897  16.793   0.391
63906W        W28891   0.041  11.305  13.055
63907W        W28892  29.922  14.270  14.438
63908W        W28893  38.492  20.254  12.864
63909W        W28894  14.365  41.921   3.686
63910W        W28895  24.072   7.912  12.899
63911W        W28896   4.849  25.772   1.073
63912W        W28897   7.733  29.411   0.348
63913W        W28898  14.822  15.961   4.919
63914W        W28899  37.252  17.849  12.899
63915W        W28900  29.114  42.645  12.202
63916W        W28901  13.110  43.471   1.688
63917W        W28902  43.451  31.497   0.102
63918W        W28903   4.441  22.730  12.256
63919W        W28904  43.292   5.709  11.564
63920W        W28905  22.948   9.307  12.622
63921W        W28906  10.486  33.248  11.974
63922W        W28907  20.104   7.288   4.535
63923W        W28908  11.238   6.396   2.602
63924W        W28909  11.914  22.001  13.910
63925W        W28910  36.357   2.192  11.356
63926W        W28911  19.773  28.234   1.278
63927W        W28912  44.231   1.866   1.247
63928W        W28913  37.853  31.815  14.378
63929W        W28914  13.840  15.262   4.532
63930W        W28915   1.602  31.948  11.893
63931W        W28916  34.889  26.984  10.667
63932W        W28917  28.490  40.814   1.169
63933W        W28918   5.789  42.501   0.636
63934W        W28919  32.932  30.703  11.348
63935W        W28920  31.991  11.650  13.335
63936W        W28921  29.897  22.785  12.942
63937W        W28922  12.729  32.210   2.202
63938W        W28923  31.443   8.670   4.127
63939W        W28924   6.821  25.572  11.095
63940W        W28925  17.552   2.657  13.514
63941W        W28926  31.144  12.030  13.564
63942W        W28927  15.586  29.630  13.802
63943W        W28928  24.390   2.733   3.725
63944W        W28929  20.965  33.527  13.475
63945W        W28930  15.382   7.912   2.689
63946W        W28931  33.916  19.169   1.354
63947W        W28932  35.319  26.130  11.572
63948W        W28933  20.495  11.854   3.644
63949W        W28934   4.915  44.875   2.581
63950W        W28935  15.383  40.352   4.705
63951W        W28936  18.365   9.659  14.453
63952W        W28937  33.194   9.212  13.399
63953W        W28938  30.464  35.704   3.672
63954W        W28939   6.337  10.300   3.677
63955W        W28940  31.523  40.741   2.671
63956W        W28941  24.885  23.404  14.807
63957W        W28942  18.229   1.837   2.329
63958W        W28943  29.509  44.199  11.132
63959W        W28944   3.156  22.744   4.505
63960W        W28945   8.721   2.127   1.399
63961W        W28946   0.583  21.455  13.517
63962W        W28947  30.366  32.033  14.337
63963W        W28948  19.240   9.597  12.933
63964W        W28949  37.594  31.403  11.956
63965W        W28950  38.751  15.827   2.236
63966W        W28951   4.143  20.218   3.113
63967W        W28952  42.264   7.699  14.420
63968W        W28953  24.094  39.418   4.623
63969W        W28954  44.750  14.091  11.167
63970W        W28955  12.615  18.160  11.050
63971W        W28956  14.924  44.363   0.152
63972W        W28957  44.428  35.675   0.478
63973W        W28958   9.774  35.388   2.337
63974W        W28959  34.124  33.541  11.298
63975W        W28960  11.345  12.585   0.460
63976W        W28961   5.934  29.619   3.205
63977W        W28962  13.890  31.574   4.160
63978W        W28963   3.215  16.405   0.018
63979W        W28964  33.787  22.186  13.375
63980W        W28965  19.798  19.645  13.464
63981W        W28966  43.906  44.600   1.162
63982W        W28967  23.175  31.558  12.864
63983W        W28968  30.587  14.414   4.240
63984W        W28969   3.981   1.143   1.454
63985W        W28970   5.952  15.563  11.489
63986W        W28971   2.001  44.180   2.683
63987W        W28972  10.312  33.397  11.484
63988W        W28973  31.665  22.310  11.009
63989W        W28974  43.409  34.850  10.984
63990W        W28975  33.107  44.034   3.575
63991W        W28976   9.070  37.023  13.403
63992W        W28977   4.814  17.606  11.178
63993W        W28978  36.554  43.830   1.027
63994W        W28979  26.110  38.305   3.781
63995W        W28980  37.119  38.541  14.419
63996W        W28981  32.577   2.036  12.399
63997W        W28982   3.952  29.978  12.994
63998W        W28983  20.980   6.908   3.818
63999W        W28984  14.840   5.101  14.269
64000W        W28985   7.701  19.251  10.761
64001W        W28986   3.885   3.266   1.757
64002W        W28987  44.848  16.736  12.129
64003W        W28988  33.193  36.327   2.761
64004W        W28989  44.484  38.033   4.282
64005W        W28990   9.942  16.156  11.613
64006W        W28991   0.520   0.041   1.505
64007W        W28992  19.519  38.342  13.596
64008W        W28993  38.440   0.792   1.376
64009W        W28994  36.367  15.124  13.761
64010W        W28995   0.414  23.802   0.954
64011W        W28996  36.291  26.483   3.878
64012W        W28997  14.796  18.794   2.212
64013W        W28998  18.073  19.183   0.906
64014W        W28999  16.183  21.801   4.212
64015W        W29000  23.811  19.802  12.097
64016W        W29001  29.570   7.860  14.040
64017W        W29002  17.672  36.868   1.147
64018W        W29003  20.486   8.429   4.180
64019W        W29004  18.238   5.831   0.891
64020W        W29005  26.533  44.971  11.880
64021W        W29006  38.290   0.401  14.869
64022W        W29007  31.023  30.059   0.904
64023W        W29008  40.334  29.597   3.823
64024W        W29009   7.640  42.851   0.935
64025W        W29010  26.397  43.188  11.908
64026W        W29011  32.460  17.644  12.902
64027W        W29012  25.444  16.913   1.630
64028W        W29013  11.457  30.909   0.406
64029W        W29014  28.900  12.367  13.537
64030W        W29015   9.098  32.630   2.364
64031W        W29016  30.585  27.693  11.319
64032W        W29017   8.119  10.849  13.237
64033W        W29018   4.789   9.135  14.939
64034W        W29019  23.972   5.396   4.621
64035W        W29020   1.961   3.752  11.167
64036W        W29021  15.975  15.589   0.980
64037W        W29022  14.630  20.326   1.341
64038W        W29023  43.398   5.217  12.470
64039W        W29024  39.307   7.993   0.477
64040W        W29025  44.041  40.754   1.713
64041W        W29026   3.252   7.039   2.908
64042W        W29027   0.127  43.514  12.064
64043W        W29028  18.405  20.800  14.846
64044W        W29029  21.528  35.300  11.348
64045W        W29030  29.160   5.183   0.882
64046W        W29031  17.600  32.864  12.570
64047W        W29032   0.969   1.281  12.411
64048W        W29033  39.858   3.652  14.781
64049W        W29034  32.077  19.275  13.479
64050W        W29035  14.161  19.890   2.628
64051W        W29036   1.420  21.486  13.032
64052W        W29037   6.311  36.209   2.855
64053W        W29038  14.768   0.770   2.766
64054W        W29039  38.795   5.904  11.491
64055W        W29040  28.226  32.559  13.932
64056W        W29041  19.387   3.421  14.797
64057W        W29042  40.102  11.836  12.900
64058W        W29043  21.964  24.635  14.998
64059W        W29044  29.142  44.698  14.012
64060W        W29045   2.669  12.692   2.303
64061W        W29046  13.270  25.179   1.188
64062W        W29047  16.377   9.296   0.835
64063W        W29048  41.294  15.182  10.761
64064W        W29049  36.461  31.314   4.107
64065W        W29050  25.714   2.803  12.068
64066W        W29051  33.752  24.560  11.030
64067W        W29052  29.693  14.041   0.341
64068W        W29053  28.903  14.109   4.360
64069W        W29054   0.828  10.911   0.868
64070W        W29055  24.223  17.911   3.691
64071W        W29056  44.595  27.875   5.544
64072W        W29057   4.789  44.253  11.430
64073W        W29058  36.021   4.962  10.633
64074W        W29059  17.040   4.303   4.107
64075W        W29060  17.235  18.987   0.763
64076W        W29061  16.042  14.864   1.708
64077W        W29062  40.941   1.363   4.791
64078W        W29063  30.794  24.467  11.192
64079W        W29064  34.030  44.235   2.832
64080W        W29065   5.443  26.411   2.589
64081W        W29066  10.224  16.840  13.565
64082W        W29067  27.017  37.523   3.083
64083W        W29068  11.595  27.942   2.175
64084W        W29069  22.207   7.429  14.427
64085W        W29070   1.771  24.091  13.237
64086W        W29071  17.265  35.583   0.516
64087W        W29072   1.585  43.063   1.340
64088W        W29073  35.939   3.338   0.281
64089W        W29074   8.102  27.516  10.666
64090W        W29075  25.382  20.552  13.471
64091W        W29076  15.255   0.018   4.553
64092W        W29077  44.319   7.406  11.323
64093W        W29078  34.463  23.299   1.807
64094W        W29079  44.031  35.121  12.567
64095W        W29080  35.072  41.312  11.586
64096W        W29081  31.141  22.450   3.655
64097W        W29082  44.485  26.456   2.790
64098W        W29083  40.837  42.513  13.804
64099W        W29084   9.186  37.328  14.927
64100W        W29085  40.304  23.589   5.392
64101W        W29086   2.391  35.405  12.838
64102W        W29087  30.584  11.281  13.052
64103W        W29088  44.382  42.047   2.170
64104W        W29089   3.918  23.561   2.169
64105W        W29090  30.513  30.874   0.925
64106W        W29091  11.131   6.648   4.660
64107W        W29092  33.463  27.849   3.607
64108W        W29093  19.283  15.658  10.940
64109W        W29094  40.514  25.415  11.295
64110W        W29095  23.939  23.196   0.684
64111W        W29096  34.088  10.537  14.770
64112W        W29097  25.544  15.280   3.769
64113W        W29098  30.887  14.675  14.501
64114W        W29099   1.357   9.815   2.139
64115W        W29100  40.442   4.036   0.118
64116W        W29101  24.954  10.831   4.343
64117W        W29102  41.031   5.959  11.402
64118W        W29103  24.728   2.806   1.705
64119W        W29104   4.800  15.587  13.911
64120W        W29105  18.836  24.626   3.201
64121W        W29106  14.417   8.215   1.030
64122W        W29107  29.250  29.276   0.544
64123W        W29108  18.781  44.277  14.621
64124W        W29109  42.970  25.225   1.196
64125W        W29110  11.264  19.485   2.639
64126W        W29111  15.638  19.802   1.405
64127W        W29112  25.768   9.810  12.711
64128W        W29113  29.571  18.758   2.400
64129W        W29114   6.294   2.591   2.375
64130W        W29115   8.392  20.145   1.688
64131W        W29116  26.499  36.484   2.866
64132W        W29117   4.723  21.188  14.461
64133W        W29118  19.919  44.894   3.683
64134W        W29119  31.121   3.960  14.450
64135W        W29120   2.217  28.393   3.202
64136W        W29121  32.455  42.529  14.067
64137W        W29122  43.999  27.955   2.491
64138W        W29123  37.528  23.978   1.702
64139W        W29124  20.133  44.120  11.826
64140W        W29125  15.933  37.701   1.844
64141W        W29126  29.544  36.555  14.057
64142W        W29127  11.252  25.522  14.064
64143W        W29128   0.218  30.429   3.343
64144W        W29129  41.750  26.292   1.863
64145W        W29130  32.950  28.042   0.805
64146W        W29131  13.158  43.512  11.392
64147W        W29132  31.213  14.691  10.454
64148W        W29133  41.928  24.258   5.407
64149W        W29134  12.415  41.720   3.612
64150W        W29135  22.978   7.907  14.271
64151W        W29136  33.554  30.774   2.263
64152W        W29137  36.122  18.667  13.734
64153W        W29138  43.519  15.222  13.047
64154W        W29139  22.495  19.043   2.177
64155W        W29140  37.442  20.125   2.680
64156W        W29141  43.384  21.150   0.838
64157W        W29142  19.844  11.318  12.007
64158W        W29143   8.679  16.633   3.159
64159W        W29144  11.926  21.080   0.811
64160W        W29145   5.709  42.669   3.947
64161W        W29146  27.449  44.337   4.627
64162W        W29147  39.795  21.748   2.765
64163W        W29148  38.460   4.674   3.158
64164W        W29149  33.354  36.495  14.310
64165W        W29150   6.423  13.886  11.181
64166W        W29151  41.344  30.855   2.752
64167W        W29152  37.922   5.171   0.466
64168W        W29153  15.885  40.951  12.688
64169W        W29154  21.659  27.703  11.793
64170W        W29155  29.508  40.090  10.807
64171W        W29156  14.301  11.759   3.267
64172W        W29157   8.166  32.924   2.139
64173W        W29158  41.956  16.529   2.914
64174W        W29159  32.003   6.160  10.729
64175W        W29160  30.382  33.754  12.001
64176W        W29161  10.361   1.704   3.335
64177W        W29162  26.621  26.835  10.710
64178W        W29163  44.920  24.484  10.087
64179W        W29164  42.217   9.148   4.928
64180W        W29165  37.762   5.003   2.297
64181W        W29166  42.737  13.780   4.286
64182W        W29167  26.217   7.268   0.659
64183W        W29168  15.220  11.769   1.343
64184W        W29169  37.545  25.991   3.726
64185W        W29170  37.018  14.171   1.609
64186W        W29171  37.509  31.434  14.506
64187W        W29172  13.935  11.131  13.382
64188W        W29173   9.488  35.541  13.945
64189W        W29174  12.808  22.962   2.486
64190W        W29175  25.334  41.049  14.556
64191W        W29176   1.456  43.517  11.132
64192W        W29177  28.080  18.960   4.087
64193W        W29178  21.590  20.584  13.119
64194W        W29179  24.549  10.230   5.157
64195W        W29180  14.601  35.499   0.359
64196W        W29181   9.872  27.090  10.950
64197W        W29182  37.560  14.092  11.496
64198W        W29183  20.000  20.256  13.466
64199W        W29184  29.786  33.468  14.455
64200W        W29185   4.854  18.755  13.830
64201W        W29186  20.198  31.098  14.954
64202W        W29187  24.478   0.724   3.697
64203W        W29188  44.882  33.311  10.627
64204W        W29189  34.689  31.599  10.752
64205W        W29190  36.479  31.623   1.312
64206W        W29191  30.551  22.794  11.179
64207W        W29192  17.861  25.132  11.686
64208W        W29193  20.251  40.896   3.941
64209W        W29194  18.600  22.203   1.390
64210W        W29195   6.941  21.114   0.274
64211W        W29196  20.125  12.431   0.459
64212W        W29197  26.291  10.314   1.735
64213W        W29198  37.528  22.363   4.662
64214W        W29199  23.712  11.706  10.766
64215W        W29200  32.968   5.164   2.630
64216W        W29201  32.862  32.513  10.894
64217W        W29202   6.800  44.287  12.623
64218W        W29203  26.734   1.976   3.472
64219W        W29204  37.352   7.066   4.770
64220W        W29205  21.132  32.708   0.481
64221W        W29206  40.834   4.376  14.578
64222W        W29207  36.870  16.734   3.157
64223W        W29208   5.685  27.620   2.513
64224W        W29209   2.303  21.660   4.031
64225W        W29210  32.536  18.339   0.444
64226W        W29211  23.082  30.999  13.505
64227W        W29212  33.162   4.985   3.140
64228W        W29213  18.616   5.999   0.240
64229W        W29214   8.605  16.054   0.562
64230W        W29215  42.530  27.605  11.197
64231W        W29216  35.826  11.165   2.441
64232W        W29217  40.117  28.256  11.174
64233W        W29218  23.211   3.758   1.806
64234W        W29219  25.505  25.883  11.198
64235W        W29220  24.756  35.368  12.505
64236W        W29221   8.769  31.678   0.347
64237W        W29222   3.402  25.037  11.339
64238W        W29223  44.741  22.580   1.649
64239W        W29224  31.545   2.329   4.532
64240W        W29225  16.042  29.597   0.046
64241W        W29226  21.200  36.545  11.436
64242W        W29227  18.796  41.112  13.809
64243W        W29228   3.510  31.076  13.530
64244W        W29229  26.633   0.583  11.219
64245W        W29230  44.863  15.397   2.791
64246W        W29231  21.568   7.102   1.269
64247W        W29232  37.564  12.129   2.403
64248W        W29233  43.472  24.042  12.918
64249W        W29234  40.522   0.017  11.689
64250W        W29235  30.181   6.295  11.939
64251W        W29236  31.434   9.921   3.291
64252W        W29237   9.814  44.499  14.949
64253W        W29238   4.976   3.166   4.957
64254W        W29239  13.189  29.617   0.870
64255W        W29240  36.531  22.267  12.140
64256W        W29241   1.332  43.015   0.883
64257W        W29242  36.545  17.448  12.245
64258W        W29243   8.305  40.482   4.759
64259W        W29244  18.711  39.806   0.355
64260W        W29245  11.427   6.155  14.417
64261W        W29246  37.076  41.670  12.946
64262W        W29247   3.356   3.615   1.950
64263W        W29248  39.357  44.945   1.802
64264W        W29249  12.809  10.099   4.147
64265W        W29250   5.466  12.028   4.203
64266W        W29251  43.747  40.474   1.345
64267W        W29252  36.371  23.411  14.689
64268W        W29253  16.345  39.289  13.404
64269W        W29254  12.424  17.667   3.656
64270W        W29255  43.858  19.094  13.320
64271W        W29256  16.590   3.282  12.148
64272W        W29257  30.156  40.373   0.775
64273W        W29258  29.529  21.280   4.037
64274W        W29259  43.368  41.241  13.105
64275W        W29260  15.225  32.987   0.652
64276W        W29261   8.547  14.624  12.117
64277W        W29262   2.844  14.788  13.765
64278W        W29263  30.642  43.095  13.339
64279W        W29264   3.085  20.521  14.476
64280W        W29265  35.350  17.551  11.146
64281W        W29266  32.186  23.080   2.224
64282W        W29267  37.645  18.361   3.949
64283W        W29268  14.593  13.268   2.633
64284W        W29269  24.131  36.842   1.269
64285W        W29270  44.835  43.583   4.412
64286W        W29271   4.855   4.796   3.523
64287W        W29272  40.477  37.594   1.336
64288W        W29273  44.441  21.183  14.820
64289W        W29274  11.101   0.958   4.006
64290W        W29275  16.383  30.224  11.419
64291W        W29276  18.018  14.025  11.719
64292W        W29277   1.765  40.017   0.550
64293W        W29278  18.234  43.998  11.576
64294W        W29279  44.915  23.446   3.213
64295W        W29280  13.631   1.864  12.662
64296W        W29281  37.111  15.899   1.380
64297W        W29282   8.184  35.214  14.234
64298W        W29283  11.774  27.880   0.914
64299W        W29284  16.323  32.043   2.870
64300W        W29285  43.366  35.865  10.008
64301W        W29286  29.632  14.646   1.292
64302W        W29287   6.860  38.406   0.169
64303W        W29288  44.871  26.718  11.163
64304W        W29289  43.214   6.508   0.986
64305W        W29290   5.321   1.513  14.296
64306W        W29291   0.501  10.766  12.016
64307W        W29292   1.651  29.856  11.651
64308W        W29293   0.312  30.558   2.361
64309W        W29294   2.009   1.780   3.666
64310W        W29295  16.576  14.086   4.977
64311W        W29296  36.382  44.628   4.615
64312W        W29297  11.164  22.143   3.161
64313W        W29298  31.945  42.250  12.706
64314W        W29299  12.169  38.667   1.824
64315W        W29300  43.633  14.800  14.746
64316W        W29301  40.567   5.247   1.748
64317W        W29302  40.031  14.082  11.168
64318W        W29303  40.262  31.839  14.440
64319W        W29304  22.379  40.540   0.552
64320W        W29305  42.503  28.048  12.920
64321W        W29306  44.934  39.608  11.140
64322W        W29307   3.413   7.673  12.756
64323W        W29308  12.811   6.049   3.245
64324W        W29309  16.096  10.845   1.721
64325W        W29310  16.135  19.485  13.890
64326W        W29311  18.277  36.953  11.937
64327W        W29312  14.663  23.083   2.113
64328W        W29313   4.974  44.194   0.454
64329W        W29314  38.934  14.742  11.301
64330W        W29315   1.712  36.497   2.266
64331W        W29316   6.336  15.041   0.357
64332W        W29317  17.497   5.789   2.665
64333W        W29318   1.206  21.630   2.124
64334W        W29319  31.417  38.041  11.583
64335W        W29320  32.826  36.346  13.994
64336W        W29321  42.327   8.871   1.551
64337W        W29322  23.481  16.864  14.013
64338W        W29323   3.658  35.965   4.574
64339W        W29324   4.120  43.564  12.034
64340W        W29325   1.963   2.223  12.039
64341W        W29326  10.454   5.337   2.761
64342W        W29327  44.843  37.389  12.820
64343W        W29328  39.596   2.352  10.996
64344W        W29329  15.795   2.316   4.621
64345W        W29330  29.593  29.428   3.585
64346W        W29331  28.311  44.037  13.410
64347W        W29332  26.437  17.055  13.144
64348W        W29333  33.892  23.553  10.618
64349W        W29334  33.011  29.619  14.988
64350W        W29335  13.816  43.682  14.570
64351W        W29336  44.275  31.566   2.176
64352W        W29337  41.759  42.289  10.257
64353W        W29338  38.822  41.808   4.169
64354W        W29339   3.713  29.131   3.316
64355W        W29340  33.723  11.714   2.495
64356W        W29341  29.478  22.122  11.895
64357W        W29342  26.136  11.887  13.253
64358W        W29343   3.983  38.819   3.600
64359W        W29344  24.100  30.444  14.748
64360W        W29345  34.140  18.647  11.985
64361W        W29346  19.503  39.708  11.557
64362W        W29347   6.203  25.173  12.587
64363W        W29348  30.909  40.809   4.100
64364W        W29349  43.062   9.130  12.065
64365W        W29350   5.382  12.407  13.433
64366W        W29351  39.376  37.501  12.436
64367W        W29352  27.005  11.156   0.318
64368W        W29353  41.614   9.116  10.663
64369W        W29354   1.822  35.486  10.776
64370W        W29355  19.643  41.520   4.224
64371W        W29356  44.095  13.925   0.846
64372W        W29357   2.107   2.975   1.463
64373W        W29358  14.307  18.289  13.811
64374W        W29359   2.213  40.238   0.355
64375W        W29360  33.514  39.448  12.158
64376W        W29361  21.755  24.223   4.131
64377W        W29362  18.582  31.914  12.803
64378W        W29363  19.264  14.207  13.506
64379W        W29364  15.588  36.977  14.485
64380W        W29365  18.288  39.368  14.142
64381W        W29366  20.059  38.628   1.957
64382W        W29367  22.022  34.046   4.620
64383W        W29368  32.167  43.809   4.519
64384W        W29369  34.775  38.168   4.115
64385W        W29370  38.609  18.591   0.778
64386W        W29371  39.429  11.011   1.873
64387W        W29372   8.788  37.440  13.335
64388W        W29373  22.652  41.951  10.677
64389W        W29374  30.303  22.678   4.642
64390W        W29375  14.679   2.949  12.864
64391W        W29376  37.610  20.893   1.727
64392W        W29377  29.135  34.144  14.345
64393W        W29378  43.625  26.110   1.314
64394W        W29379  39.275   8.392   3.724
64395W        W29380  16.291   2.394  13.721
64396W        W29381   6.633  18.299  13.944
64397W        W29382  27.653  43.955  12.425
64398W        W29383  11.189  33.998   1.161
64399W        W29384  19.665  12.884   3.548
64400W        W29385  17.059  13.558   0.962
64401W        W29386  37.925  26.801  12.819
64402W        W29387  31.150  39.672  12.632
64403W        W29388  26.097   8.383   4.875
64404W        W29389  14.529   5.708  14.824
64405W        W29390  32.098   3.741  12.344
64406W        W29391  35.842  40.489  13.514
64407W        W29392  23.910  33.312   4.122
64408W        W29393  44.591  29.945  14.769
64409W        W29394  41.050  19.924   3.918
64410W        W29395  41.337  15.890   0.400
64411W        W29396  43.414  25.676  11.985
64412W        W29397  37.103  27.306   3.888
64413W        W29398   7.617  27.227   3.116
64414W        W29399  34.098  24.607   1.313
64415W        W29400  25.552   7.120  11.558
64416W        W29401   0.951  10.170   1.433
64417W        W29402   7.891   3.333  12.855
64418W        W29403  31.165   3.682   0.266
64419W        W29404  28.695  12.822  14.835
64420W        W29405  32.080  39.661   0.296
64421W        W29406  22.285   0.326  11.635
64422W        W29407  28.726  27.569   2.314
64423W        W29408   9.279  10.263   4.707
64424W        W29409  15.296  30.959   3.446
64425W        W29410  42.783   1.211  12.221
64426W        W29411  38.559   7.791   3.712
64427W        W29412  22.258  10.064  11.769
64428W        W29413  44.896   5.878   1.872
64429W        W29414  16.554  31.898   1.669
64430W        W29415  15.725  40.708  14.870
64431W        W29416   4.810   6.255   0.746
64432W        W29417  35.499  22.636  11.647
64433W        W29418  42.894   6.934   3.742
64434W        W29419  36.892  37.314  10.684
64435W        W29420  30.878  24.736   3.401
64436W        W29421  32.894  30.694  12.424
64437W        W29422   8.756  15.369  12.555
64438W        W29423  40.586  11.431   3.241
64439W        W29424   1.246  21.080   4.416
64440W        W29425  29.624   2.403  13.957
64441W        W29426  25.785  29.968   1.922
64442W        W29427  14.083  30.462   4.600
64443W        W29428  30.847   8.248   0.071
64444W        W29429  27.544  27.968  10.497
64445W        W29430   5.665  44.496  10.615
64446W        W29431  28.179  24.459   2.026
64447W        W29432  35.963  24.879  13.058
64448W        W29433   0.199   4.712   3.985
64449W        W29434  15.192  13.687   0.011
64450W        W29435  34.467  44.118   4.633
64451W        W29436  24.729   9.112  10.630
64452W        W29437  36.317  44.253  13.942
64453W        W29438  22.160  32.120  10.271
64454W        W29439   2.360  35.464   4.803
64455W        W29440  21.617  43.059  10.001
64456W        W29441  31.045   0.760   3.782
64457W        W29442  39.012   4.299   1.209
64458W        W29443  31.507  27.559  14.389
64459W        W29444  16.806  17.078   0.325
64460W        W29445  18.106  26.187   2.833
64461W        W29446  20.143  40.957   3.401
64462W        W29447  12.965  43.534  13.455
64463W        W29448  15.181  10.169   4.466
64464W        W29449  12.731  37.047  14.937
64465W        W29450  22.564  23.121  11.950
64466W        W29451   8.779  14.272   0.244
64467W        W29452  20.245   7.628  12.467
64468W        W29453  36.355  28.437   4.144
64469W        W29454  16.242  23.015  10.622
64470W        W29455  15.447  38.463  11.596
64471W        W29456  29.547  26.663  12.036
64472W        W29457  43.020  18.654   2.433
64473W        W29458  28.352  25.137  10.950
64474W        W29459  15.045  31.225  13.128
64475W        W29460  11.225  42.350   1.141
64476W        W29461  41.751  12.051  10.612
64477W        W29462   9.796  21.658   1.400
64478W        W29463  38.408  31.581  14.374
64479W        W29464  27.399   4.014  10.601
64480W        W29465  12.729  32.562   1.198
64481W        W29466  27.590  22.670   4.930
64482W        W29467  35.843  43.318   1.347
64483W        W29468  41.888  31.076   0.755
64484W        W29469  14.805  16.744   2.196
64485W        W29470  30.723  13.135  13.354
64486W        W29471  13.606  14.288  13.784
64487W        W29472  18.373   4.924   3.160
64488W        W29473   8.652  23.539   1.880
64489W        W29474  20.813  23.275   4.963
64490W        W29475   5.618   4.646  12.996
64491W        W29476  42.093   4.236   3.818
64492W        W29477  16.661  38.324   3.257
64493W        W29478   3.232  29.676  12.907
64494W        W29479  31.133  28.666   4.134
64495W        W29480   5.466  44.501   1.301
64496W        W29481   1.531   8.253  12.073
64497W        W29482  38.646   5.564   2.834
64498W        W29483  23.481  26.003  11.963
64499W        W29484  32.844  12.188  12.084
64500W        W29485  21.063   5.679   1.290
64501W        W29486   0.453  15.785   4.871
64502W        W29487   9.300  36.560  13.106
64503W        W29488  16.145   8.416  13.389
64504W        W29489  35.674  26.736  12.098
64505W        W29490  22.506   5.315   2.753
64506W        W29491  24.262  21.999   3.748
64507W        W29492  20.686  44.638   0.730
64508W        W29493  23.525   0.473   2.319
64509W        W29494  16.562  18.261   2.764
64510W        W29495  19.239   3.939  13.512
64511W        W29496  41.222   5.198  13.019
64512W        W29497  13.560  15.321  13.903
64513W        W29498  10.565   0.645  12.412
64514W        W29499  17.224  16.769   0.772
64515W        W29500   6.264  22.214  13.070
64516W        W29501  12.391  18.655   2.254
64517W        W29502  20.233  31.506  11.627
64518W        W29503  14.944   7.234  14.939
64519W        W29504  16.748  11.157   3.287
64520W        W29505  23.631  16.259   3.200
64521W        W29506   9.034  35.307   1.749
64522W        W29507   6.322   5.361   2.646
64523W        W29508   0.294   6.807   2.841
64524W        W29509  23.583   1.683   1.795
64525W        W29510   8.818  14.114   3.263
64526W        W29511   9.952  34.177   1.767
64527W        W29512  22.270  19.816  14.355
64528W        W29513  40.282  15.371   1.027
64529W        W29514  32.800  26.263   1.861
64530W        W29515  38.175  26.532   1.185
64531W        W29516  25.124   6.805   2.296
64532W        W29517   5.029   9.967  10.889
64533W        W29518  21.127  31.604  14.262
64534W        W29519  21.516   3.032   0.732
64535W        W29520  40.938  12.638   4.241
64536W        W29521  36.180   7.988   1.184
64537W        W29522  13.272  28.576  12.509
64538W        W29523  16.607  25.210  13.546
64539W        W29524  43.351  36.244  11.065
64540W        W29525   7.971  30.138  12.229
64541W        W29526  34.475   2.400   2.073
64542W        W29527  37.581  22.703  13.569
64543W        W29528  19.198  12.867  14.514
64544W        W29529  16.592  15.741   3.166
64545W        W29530  14.602   9.937   3.750
64546W        W29531  23.985  23.500   2.638
64547W        W29532   5.771  15.339   0.416
64548W        W29533  23.918   1.574  13.024
64549W        W29534  24.574  14.328   2.888
64550W        W29535  13.887   0.813   3.319
64551W        W29536  35.497   2.455   1.667
64552W        W29537   7.250   7.224  13.776
64553W        W29538   2.877  39.634   4.150
64554W        W29539  25.667  15.574  10.651
64555W        W29540   6.789  37.360  14.875
64556W        W29541  27.549  14.605   3.209
64557W        W29542  17.567  23.523   2.907
64558W        W29543  37.095  25.444  12.203
64559W        W29544  32.140  19.105   3.243
64560W        W29545  15.734  30.611   5.061
64561W        W29546   3.519  16.710   3.231
64562W        W29547   8.912   0.319  13.479
64563W        W29548  38.460  14.321  10.756
64564W        W29549  37.449  11.973   1.912
64565W        W29550  22.664  12.281   2.743
64566W        W29551  19.713   3.180   4.564
64567W        W29552  11.949  12.406  12.618
64568W        W29553  29.263  23.155  10.815
64569W        W29554  26.525  10.454  10.587
64570W        W29555   9.437  10.749  14.839
64571W        W29556   5.767  17.994   4.792
64572W        W29557  10.311  18.100   4.257
64573W        W29558  32.570  31.588  13.022
64574W        W29559   5.675  25.173  10.506
64575W        W29560  11.752   5.860  11.096
64576W        W29561  12.555  37.352  10.633
64577W        W29562  16.005  44.754   4.137
64578W        W29563  42.653  34.166  11.609
64579W        W29564  16.848  31.587  13.569
64580W        W29565  31.848  23.138   3.539
64581W        W29566   6.671  41.063  12.859
64582W        W29567  25.639   3.124  11.613
64583W        W29568  43.973  23.853  10.670
64584W        W29569  25.472  35.465   2.336
64585W        W29570  32.832  40.042  10.770
64586W        W29571  30.339  33.154   1.414
64587W        W29572  21.203  41.891   3.381
64588W        W29573  30.850  44.963   2.765
64589W        W29574  29.646   4.185  10.920
64590W        W29575  23.242  43.292  12.480
64591W        W29576  29.943  30.378   4.912
64592W        W29577   7.937  14.181   4.257
64593W        W29578  13.105   3.837  13.496
64594W        W29579  38.592   0.182  13.037
64595W        W29580  17.326  23.626  12.086
64596W        W29581  42.469  32.168   1.388
64597W        W29582   1.902   5.743   4.201
64598W        W29583  19.509  18.672  13.588
64599W        W29584   1.550   1.116  13.951
64600W        W29585  30.288   8.948  11.206
64601W        W29586  34.342   5.950  13.516
64602W        W29587   7.652   7.730   3.628
64603W        W29588  17.047  10.682  11.392
64604W        W29589  12.297   8.919   1.391
64605W        W29590  31.520  42.062   4.858
64606W        W29591  16.637  28.893  12.697
64607W        W29592  36.373   1.381  13.778
64608W        W29593  23.400   0.430   1.401
64609W        W29594  18.096   1.287   4.216
64610W        W29595  27.649  20.798  10.770
64611W        W29596  24.642  40.776   0.001
64612W        W29597  28.992   9.408  14.399
64613W        W29598   0.180  27.399   9.621
64614W        W29599  25.084   9.613   0.469
64615W        W29600  18.630   3.288  12.124
64616W        W29601  34.464  19.804  12.821
64617W        W29602  34.722  44.239  14.745
64618W        W29603  17.158  12.046   4.163
64619W        W29604  31.524   2.749   4.872
64620W        W29605  24.203  34.045  10.276
64621W        W29606   0.392  27.296   4.643
64622W        W29607  18.034  24.521   2.678
64623W        W29608  22.583  40.279  14.685
64624W        W29609  22.133  10.761   2.622
64625W        W29610  41.392  22.978  11.279
64626W        W29611  26.544  13.322   1.341
64627W        W29612  35.400  20.427   4.690
64628W        W29613   9.650  17.348  12.998
64629W        W29614  41.526  24.004   3.007
64630W        W29615  17.551  36.961   2.448
64631W        W29616  26.405   1.239   0.824
64632W        W29617  41.074  26.388   0.200
64633W        W29618   9.514  32.602  12.638
64634W        W29619  38.383  32.508   2.725
64635W        W29620  40.836  36.686   1.338
64636W        W29621  12.567  21.333   4.550
64637W        W29622  32.069   5.324  13.975
64638W        W29623  38.819  36.800   3.534
64639W        W29624  23.246  25.987  11.501
64640W        W29625  35.368   6.255   0.019
64641W        W29626  43.414  20.092   2.894
64642W        W29627  38.121  12.632   2.664
64643W        W29628  40.392  13.710   4.951
64644W        W29629  29.478  30.652   4.095
64645W        W29630  23.970  41.356  10.411
64646W        W29631  10.831  16.742  10.959
64647W        W29632   6.764  22.069  12.855
64648W        W29633  41.755   6.061  11.946
64649W        W29634  10.772   2.739  12.603
64650W        W29635  15.269  39.922  12.500
64651W        W29636  15.689   8.768   1.954
64652W        W29637  13.716  15.672   1.940
64653W        W29638  15.456  16.161   1.406
64654W        W29639   0.594   7.073  14.461
64655W        W29640  14.741  32.588  11.886
64656W        W29641   8.210  21.028  10.477
64657W        W29642   9.850   4.722   0.917
64658W        W29643  16.174   3.886  14.813
64659W        W29644  38.283  38.164  10.178
64660W        W29645  11.849  12.754   2.618
64661W        W29646  14.457  13.755  12.836
64662W        W29647  15.694  32.399   3.189
64663W        W29648  43.894  17.670   2.477
64664W        W29649  36.826   0.365   0.434
64665W        W29650   0.768   5.748  14.965
64666W        W29651  38.836  34.584   0.495
64667W        W29652  29.972  12.690  11.201
64668W        W29653  36.937  10.086   0.111
64669W        W29654  38.527  44.911  11.189
64670W        W29655  44.851  28.642   1.169
64671W        W29656  11.800   7.639   0.308
64672W        W29657   3.258  28.421   1.631
64673W        W29658  24.264  22.516   4.613
64674W        W29659  40.431  10.247   1.319
64675W        W29660  10.440  34.183  13.502
64676W        W29661   5.197  33.143   0.796
64677W        W29662   3.411  40.112  10.831
64678W        W29663  32.020   9.139   3.242
64679W        W29664  40.431  16.765   1.775
64680W        W29665  13.147   2.062   3.238
64681W        W29666   9.307  39.741   1.340
64682W        W29667  24.198   4.042  14.958
64683W        W29668  30.054  30.016   1.651
64684W        W29669  26.416  16.100  11.390
64685W        W29670  39.962  12.813   3.790
64686W        W29671  17.147  18.361   3.596
64687W        W29672   3.676  36.465  14.401
64688W        W29673  29.923  34.867   3.849
64689W        W29674  33.237  26.139   3.321
64690W        W29675   6.382  10.374  12.087
64691W        W29676  21.018   3.655   2.268
64692W        W29677  17.074  24.660   4.200
64693W        W29678  37.780  13.755   3.746
64694W        W29679   3.987  31.851  11.113
64695W        W29680   7.362   6.965  10.944
64696W        W29681  24.428  38.331  13.008
64697W        W29682   0.375  26.909  11.756
64698W        W29683   4.990  30.116  14.992
64699W        W29684  36.501   8.300   2.886
64700W        W29685   6.819  24.494  11.283
64701W        W29686  15.286  31.373  13.586
64702W        W29687  26.988  39.923   2.268
64703W        W29688  36.325   7.123   3.596
64704W        W29689  33.538  15.220   3.348
64705W        W29690  33.566  39.333   4.833
64706W        W29691   3.957  37.305  12.121
64707W        W29692  16.273  13.218  12.197
64708W        W29693  43.285  14.118   4.171
64709W        W29694  10.944  18.712   3.722
64710W        W29695  41.430  38.973   1.647
64711W        W29696   9.206  15.337  10.694
64712W        W29697  28.036   5.214   0.051
64713W        W29698   9.096   7.924   0.861
64714W        W29699   7.244  11.610   3.318
64715W        W29700  21.048  35.045   0.644
64716W        W29701  40.857  17.861  14.494
64717W        W29702  42.204  11.867  13.840
64718W        W29703  23.430   1.211   1.704
64719W        W29704  21.503  32.743   4.421
64720W        W29705   1.558   9.293  11.394
64721W        W29706  12.039  43.262  13.523
64722W        W29707  21.652  23.769  12.969
64723W        W29708  14.625  43.010  12.547
64724W        W29709   3.518  26.336   4.241
64725W        W29710  21.232  26.078   1.738
64726W        W29711  34.341   4.037  10.480
64727W        W29712  26.488   5.019   4.606
64728W        W29713   6.136   4.658   0.502
64729W        W29714   1.764  15.076  10.719
64730W        W29715  13.704  33.182  12.765
64731W        W29716  37.354  19.271   3.105
64732W        W29717   6.206  15.573  13.837
64733W        W29718  44.682  44.918  14.463
64734W        W29719  24.667  35.450  13.404
64735W        W29720  30.028  24.680  11.668
64736W        W29721   2.039  34.859  14.481
64737W        W29722   5.393  15.238   3.270
64738W        W29723  38.268   4.234   1.738
64739W        W29724  10.388   2.985   4.131
64740W        W29725  36.688  11.098  14.490
64741W        W29726  11.394  44.606   3.160
64742W        W29727  32.550  30.846  10.689
64743W        W29728   7.229  33.716   4.826
64744W        W29729  20.741   3.741  13.565
64745W        W29730   1.480  44.500   3.999
64746W        W29731   6.119   3.290  14.894
64747W        W29732   8.828  31.912  13.636
64748W        W29733   9.788   0.419  13.010
64749W        W29734  35.438   7.082   0.020
64750W        W29735  40.566  32.585  13.315
64751W        W29736  17.310  24.446  12.110
64752W        W29737  18.869   0.730  10.290
64753W        W29738  17.299  18.272  14.719
64754W        W29739  13.719  26.304   0.607
64755W        W29740  39.935  15.050  12.353
64756W        W29741   1.722  31.605   3.262
64757W        W29742  20.224  28.409   1.533
64758W        W29743  10.949  19.228  14.361
64759W        W29744  11.305   2.873   2.101
64760W        W29745  42.229  22.580  12.919
64761W        W29746  30.162   9.935   2.891
64762W        W29747  37.499  12.286  14.029
64763W        W29748  15.041  20.391   1.705
64764W        W29749  42.527  35.596  12.547
64765W        W29750   7.920   0.734  14.915
64766W        W29751  15.973  21.108  13.008
64767W        W29752  27.263   4.790  13.390
64768W        W29753  34.220  18.079  14.400
64769W        W29754  42.793  31.079  13.559
64770W        W29755  34.869   7.048  13.145
64771W        W29756  11.275  39.264   0.513
64772W        W29757  11.742  37.068   1.371
64773W        W29758   0.317   5.000  14.414
64774W        W29759  31.860  22.011  11.367
64775W        W29760   5.317  21.761   0.033
64776W        W29761  42.817  12.596   0.248
64777W        W29762  39.035  40.505   0.932
64778W        W29763  32.136  43.439   2.368
64779W        W29764  15.519   8.360   3.186
64780W        W29765  26.969  29.748  14.523
64781W        W29766  23.505  11.598  13.457
64782W        W29767  26.825  41.332  11.107
64783W        W29768  40.953  27.861   2.823
64784W        W29769  30.619  20.819  14.094
64785W        W29770  33.309  38.071   3.856
64786W        W29771  20.664   7.313   3.959
64787W        W29772  10.360  23.217   1.787
64788W        W29773  41.004  29.684   2.992
64789W        W29774  18.421  20.017   2.874
64790W        W29775  10.039  37.512   2.698
64791W        W29776  22.750  37.095  14.976
64792W        W29777  28.558  41.060  13.114
64793W        W29778   8.614  20.143   2.482
64794W        W29779  42.333   2.769   4.519
64795W        W29780  30.206  38.120   2.645
64796W        W29781   5.239  16.057  14.525
64797W        W29782  34.374  43.580   3.020
64798W        W29783  11.158  36.469  13.868
64799W        W29784   7.206  36.122   1.779
64800W        W29785  27.511   7.783   3.193
64801W        W29786   8.787  19.215   4.683
64802W        W29787  35.671  28.873  11.993
64803W        W29788  27.264  30.273  13.040
64804W        W29789   2.194  13.665   0.952
64805W        W29790   1.225   0.891   0.184
64806W        W29791  24.909  12.162  14.288
64807W        W29792   0.935  24.021  12.934
64808W        W29793   1.760   0.374  14.610
64809W        W29794  22.771  20.765  14.017
64810W        W29795  11.442  22.102   3.644
64811W        W29796  30.955  17.925  12.946
64812W        W29797  22.695  40.891   3.917
64813W        W29798  26.550  35.043   5.042
64814W        W29799  11.283  18.658   0.272
64815W        W29800  21.699   8.381  14.522
64816W        W29801  17.315  34.516  10.626
64817W        W29802  44.380   0.947   1.641
64818W        W29803  43.227   5.006  13.826
64819W        W29804  35.005   3.733   1.714
64820W        W29805  18.345  28.201   3.710
64821W        W29806  42.068  16.581   2.415
64822W        W29807  13.878   7.356   4.045
64823W        W29808  29.817  42.977  10.675
64824W        W29809   5.719  26.201   3.929
64825W        W29810  14.229   2.508  11.482
64826W        W29811  44.413   8.592   3.766
64827W        W29812  31.837  23.039   4.047
64828W        W29813   3.204  10.684  13.949
64829W        W29814  28.946  19.715  12.962
64830W        W29815  18.502  43.996  10.772
64831W        W29816  28.505  17.801   2.246
64832W        W29817   9.472  25.191  14.035
64833W        W29818  31.756   0.226  10.418
64834W        W29819  26.184  30.412   4.022
64835W        W29820  25.705  17.117   1.239
64836W        W29821  27.202  16.566  13.385
64837W        W29822  25.034  38.925   2.192
64838W        W29823  17.148  18.644  10.221
64839W        W29824  21.241   7.753   1.387
64840W        W29825  40.862  40.422   0.928
64841W        W29826   4.452  28.004   2.599
64842W        W29827  13.111  26.534   4.495
64843W        W29828  35.412   7.635   0.734
64844W        W29829   2.298  20.661   0.953
64845W        W29830  26.613  27.004  11.616
64846W        W29831   1.922  36.903   3.451
64847W        W29832  13.388  39.034   0.330
64848W        W29833  37.089  42.322  11.198
64849W        W29834   1.118  21.997  12.146
64850W        W29835   9.617   5.443  14.831
64851W        W29836  42.480   4.591   1.449
64852W        W29837   0.321  27.010  13.563
64853W        W29838  31.434   5.405  11.122
64854W        W29839  20.260   5.791  11.538
64855W        W29840  34.880  10.752   1.532
64856W        W29841  31.120  17.695   4.850
64857W        W29842   0.929   3.996  14.884
64858W        W29843   3.618  24.991   0.219
64859W        W29844  15.268  27.895  14.583
64860W        W29845   9.220  28.532  14.757
64861W        W29846   1.435   3.670  11.147
64862W        W29847  34.553  23.409  12.595
64863W        W29848   0.384  23.286   1.072
64864W        W29849  35.507  34.040   2.928
64865W        W29850   5.415   8.670   3.546
64866W        W29851  43.496  12.544   2.332
64867W        W29852  27.898   0.098   4.520
64868W        W29853  10.655   1.221   0.879
64869W        W29854  30.366  27.604   3.838
64870W        W29855  40.449  24.491   0.436
64871W        W29856  28.912  17.155   0.923
64872W        W29857  29.068  21.825   0.379
64873W        W29858  12.951   1.339  12.634
64874W        W29859  39.141   7.070  10.698
64875W        W29860  21.028  26.172  13.371
64876W        W29861   5.749  41.050   1.030
64877W        W29862  28.978  10.386  10.174
64878W        W29863  26.662   6.965   2.558
64879W        W29864   7.823  38.432  13.030
64880W        W29865  16.237  38.620   3.247
64881W        W29866  18.481  43.000   0.281
64882W        W29867  19.080   0.262  12.942
64883W        W29868   0.798   6.267  14.847
64884W        W29869  28.283  38.035  12.428
64885W        W29870  37.743  38.309   3.656
64886W        W29871  33.456  29.916  10.595
64887W        W29872   7.632  22.549  14.372
64888W        W29873  38.929  44.855  13.305
64889W        W29874  43.224  44.602  14.048
64890W        W29875  41.359   9.571  10.752
64891W        W29876  21.069  10.752  14.283
64892W        W29877   5.262   4.075   1.257
64893W        W29878  24.381   6.651  14.335
64894W        W29879   2.671  20.202  14.446
64895W        W29880   9.139  36.437   3.832
64896W        W29881  25.734  15.693   3.500
64897W        W29882  12.786  12.612   0.424
64898W        W29883  35.888  42.523   4.916
64899W        W29884  26.931  25.226  13.479
64900W        W29885  17.823  39.295  13.921
64901W        W29886  12.728   7.891  13.510
64902W        W29887   6.881  35.441   0.696
64903W        W29888  22.034  21.541  12.595
64904W        W29889   0.562  41.271   4.226
64905W        W29890  30.577  34.338   4.578
64906W        W29891  29.360  11.291   3.246
64907W        W29892   3.742  22.227   0.318
64908W        W29893  24.127  13.652   3.557
64909W        W29894  16.593  24.805   1.347
64910W        W29895  36.685   6.298   3.445
64911W        W29896  12.230   4.687  12.509
64912W        W29897   4.263  25.998  11.702
64913W        W29898  14.747  41.102   1.687
64914W        W29899   8.920  24.489  13.566
64915W        W29900   5.398   2.378  13.325
64916W        W29901  19.663  27.513  12.896
64917W        W29902   1.334  34.204  11.237
64918W        W29903  33.104  18.213   4.653
64919W        W29904  11.491  38.841   0.288
64920W        W29905  15.832   9.585  11.744
64921W        W29906  39.798  12.051  12.482
64922W        W29907  22.964   3.322  13.292
64923W        W29908  31.116  36.201   1.823
64924W        W29909  28.162   1.260  12.367
64925W        W29910  25.994  21.333  11.139
64926W        W29911  17.304   4.487  13.805
64927W        W29912  17.040  37.718   2.649
64928W        W29913  14.174   5.506  12.545
64929W        W29914  40.342  42.935   1.653
64930W        W29915  27.454  28.922   2.168
64931W        W29916  20.260  26.401   1.958
64932W        W29917  43.494  32.342  10.757
64933W        W29918  36.016  40.189   2.493
64934W        W29919  28.069   3.771   0.034
64935W        W29920  28.238  41.899  14.385
64936W        W29921  19.673  15.475  10.559
64937W        W29922  42.841   0.439  13.488
64938W        W29923  28.177   0.272  14.992
64939W        W29924  10.672   2.160  12.503
64940W        W29925  23.284  11.059   2.673
64941W        W29926  18.539  15.146   0.297
64942W        W29927   3.446  27.036   2.638
64943W        W29928   1.047  19.236   1.930
64944W        W29929   7.135  36.870   2.446
64945W        W29930  29.637   4.376  10.436
64946W        W29931  26.252  35.007   3.952
64947W        W29932  14.818  22.764   4.933
64948W        W29933  21.003  26.660  13.210
64949W        W29934  34.101  28.491   1.319
64950W        W29935  33.470  16.672   4.483
64951W        W29936  35.034  25.503   1.384
64952W        W29937  44.332  41.728  12.983
64953W        W29938  26.571  30.820   3.326
64954W        W29939  12.619   3.343  10.757
64955W        W29940   2.260  32.931   1.182
64956W        W29941  11.753   5.547  11.839
64957W        W29942  19.573  36.987   3.267
64958W        W29943  24.314  11.810  13.132
64959W        W29944  15.131  30.951  14.483
64960W        W29945  43.150   0.557   0.601
64961W        W29946  19.032  26.575  13.809
64962W        W29947  44.187  40.941   0.547
64963W        W29948  14.678  20.011  14.396
64964W        W29949  34.547  24.096  14.736
64965W        W29950  10.917  27.597   4.131
64966W        W29951  37.980  34.936   3.310
64967W        W29952  12.966  30.027  13.359
64968W        W29953   3.032  39.168  12.519
64969W        W29954  25.481  18.320  13.552
64970W        W29955  13.119  27.831   9.488
64971W        W29956  17.537  35.525  14.533
64972W        W29957   1.331   1.413  11.602
64973W        W29958  15.497  18.781   4.622
64974W        W29959  42.906  10.756  12.316
64975W        W29960  32.986  18.095  10.996
64976W        W29961  36.999  16.701  14.753
64977W        W29962  40.311  11.898   1.895
64978W        W29963  11.137  17.651   3.968
64979W        W29964  20.011   8.359   3.298
64980W        W29965  29.689  23.053  14.526
64981W        W29966  16.918   6.686  10.863
64982W        W29967  17.628  41.242   4.597
64983W        W29968  20.990  41.501  11.769
64984W        W29969  44.019  31.808  10.558
64985W        W29970  10.564  23.092   0.356
64986W        W29971   1.652   6.779  12.012
64987W        W29972  15.341  23.074  12.036
64988W        W29973  23.163  44.423   4.143
64989W        W29974   2.698   0.665  11.132
64990W        W29975  10.466  17.105  10.801
64991W        W29976  32.894  44.282  12.533
64992W        W29977  40.963   5.853  14.442
64993W        W29978   4.882   1.201  13.612
64994W        W29979  40.948  23.968  12.475
64995W        W29980  29.844  29.910   0.280
64996W        W29981  15.831  14.852  10.700
64997W        W29982   7.677  18.616   1.576
64998W        W29983  31.565  25.658   3.741
64999W        W29984  40.984  42.789  12.821
65000W        W29985  12.358  24.245   0.637
65001W        W29986  38.345  32.153   1.932
65002W        W29987  11.855  15.182  10.718
65003W        W29988  37.966   9.876  12.863
65004W        W29989  26.679   6.933  12.628
65005W        W29990  11.350   5.663  12.358
65006W        W29991  44.476   5.382  12.490
65007W        W29992  43.378  18.153  13.349
65008W        W29993  28.848  18.212   3.261
65009W        W29994   6.005  42.436   1.115
65010W        W29995  35.295  12.159  14.800
65011W        W29996  25.275  31.768  12.876
65012W        W29997  10.347  15.142  13.990
65013W        W29998  15.789  13.400  12.925
65014W        W29999  42.946  35.667   2.636
65015W        W30000  19.420  31.852   2.097
65016W        W30001   8.472  22.815   0.793
65017W        W30002  16.132  18.553   0.280
65018W        W30003  44.432  15.314   2.253
65019W        W30004   0.172  30.047  13.858
65020W        W30005  32.696   5.726   3.212
65021W        W30006  34.386  40.332  12.049
65022W        W30007   4.981  30.602  14.556
65023W        W30008  38.425  29.321  11.611
65024W        W30009   8.538  41.763  12.166
65025W        W30010   7.518  13.114  14.458
65026W        W30011  16.835   9.593  12.794
65027W        W30012  16.211   3.232   2.398
65028W        W30013  36.482  42.379  11.365
65029W        W30014  42.421  14.157  13.033
65030W        W30015   0.854  10.822  12.409
65031W        W30016  44.895  16.820  14.482
65032W        W30017  42.847  22.747  12.407
65033W        W30018  41.983  38.422   4.777
65034W        W30019   3.751   0.936   1.037
65035W        W30020  10.154  24.597   4.590
65036W        W30021  24.151  30.053  14.434
65037W        W30022  17.782  41.951   1.232
65038W        W30023  26.070  37.755   2.642
65039W        W30024   9.070  31.602   4.602
65040W        W30025  14.040  16.817  11.461
65041W        W30026  43.169   3.802   1.535
65042W        W30027  36.078  31.607   2.770
65043W        W30028  26.259  23.813  14.304
65044W        W30029  25.477  16.350   0.048
65045W        W30030  36.711  42.231   1.794
65046W        W30031  19.285  30.294  11.272
65047W        W30032  37.961  10.113   0.744
65048W        W30033   5.626  43.731  13.379
65049W        W30034   8.877  18.055   0.047
65050W        W30035   0.303  21.204  12.321
65051W        W30036  22.148  27.689   0.704
65052W        W30037  21.892  26.369   2.777
65053W        W30038   0.510  13.509  11.172
65054W        W30039  40.892  15.417   1.710
65055W        W30040  21.950  43.409  12.960
65056W        W30041  31.636  10.238   3.645
65057W        W30042   2.321  41.460  14.855
65058W        W30043  25.606  18.168  12.604
65059W        W30044   6.235  17.653  10.899
65060W        W30045  39.935  41.391  12.000
65061W        W30046   1.076   5.396  14.674
65062W        W30047   6.242  13.706   4.148
65063W        W30048  42.448  38.095  14.327
65064W        W30049   8.627  36.881   1.314
65065W        W30050  37.020   2.017  12.462
65066W        W30051  23.048  39.035  14.282
65067W        W30052  33.631  44.919  10.733
65068W        W30053  44.438  33.558   4.442
65069W        W30054  18.516   5.417   9.367
65070W        W30055  15.494  40.036   3.984
65071W        W30056  34.863  30.759   1.662
65072W        W30057  30.855  35.083   2.375
65073W        W30058  17.697  18.137   0.026
65074W        W30059  13.175  16.998   0.945
65075W        W30060  33.548  37.777  13.789
65076W        W30061  37.556  32.173   1.370
65077W        W30062  24.064  21.987  11.622
65078W        W30063  35.985  37.221   4.624
65079W        W30064   9.363  22.878  11.620
65080W        W30065  22.658   4.591   3.844
65081W        W30066  15.126  24.415   3.226
65082W        W30067  11.611  20.673  11.976
65083W        W30068  23.756  29.719   2.820
65084W        W30069  19.991  32.379  13.260
65085W        W30070  32.837  28.871  11.574
65086W        W30071  24.240  14.038  11.264
65087W        W30072  44.312   1.314   4.613
65088W        W30073   2.705   9.582   4.196
65089W        W30074  41.016   4.802   3.362
65090W        W30075  28.186  23.054   2.886
65091W        W30076  32.176  33.302  11.638
65092W        W30077  18.369  40.512  14.666
65093W        W30078  27.344  19.935   1.794
65094W        W30079  15.797   9.294  10.981
65095W        W30080  39.661  17.676   4.640
65096W        W30081  42.823   2.802  13.630
65097W        W30082  27.051   5.197  13.048
65098W        W30083  11.662  41.428  13.827
65099W        W30084  21.219  35.934   0.927
65100W        W30085   8.264   7.644   3.980
65101W        W30086  40.885  31.067  11.639
65102W        W30087  40.010  24.300   1.206
65103W        W30088  10.827  11.059   3.947
65104W        W30089  36.270   3.560  13.736
65105W        W30090   9.856  15.071   5.008
65106W        W30091  14.210  20.766  12.011
65107W        W30092  19.533   8.288   0.980
65108W        W30093  18.602  36.375  11.289
65109W        W30094  10.947  18.343  11.456
65110W        W30095  43.637  36.904  11.586
65111W        W30096  21.923  26.549   0.413
65112W        W30097  12.875  35.342   3.121
65113W        W30098   2.290  31.002   3.056
65114W        W30099  25.037  22.959  14.011
65115W        W30100  13.175  11.856  14.415
65116W        W30101  13.044  30.031   1.255
65117W        W30102   7.636  26.592  11.160
65118W        W30103  27.090   8.799   4.555
65119W        W30104  22.324  40.121  14.251
65120W        W30105   8.075  11.199  14.077
65121W        W30106  21.244  43.973  13.136
65122W        W30107  24.656   6.603   2.743
65123W        W30108   7.279  34.878   4.126
65124W        W30109  37.818  43.453   3.324
65125W        W30110   1.406  38.542  14.219
65126W        W30111   6.082  31.301  12.050
65127W        W30112  21.961   6.799   1.365
65128W        W30113   8.294  31.815  12.050
65129W        W30114  36.870  34.410  10.557
65130W        W30115  44.439  25.164  10.729
65131W        W30116  41.084  40.519   0.450
65132W        W30117  19.203   2.491  10.716
65133W        W30118  43.064  25.487   1.889
65134W        W30119   3.736  16.546  12.029
65135W        W30120  26.478  25.545   1.269
65136W        W30121  36.046  33.404  12.100
65137W        W30122  16.852   0.267   1.456
65138W        W30123  16.235  19.641  12.002
65139W        W30124  34.668  22.056  13.813
65140W        W30125  22.792   4.567   1.973
65141W        W30126  35.840  33.903  11.245
65142W        W30127   2.470   4.444   0.463
65143W        W30128  42.597  32.371  10.775
65144W        W30129  16.667  17.623  13.228
65145W        W30130  43.080   1.919  14.700
65146W        W30131  19.165  16.220   4.666
65147W        W30132   9.290  37.961   1.472
65148W        W30133  13.684  11.857  14.356
65149W        W30134  26.643  37.448  11.651
65150W        W30135  10.471   2.641   3.738
65151W        W30136  34.118   1.379  10.699
65152W        W30137  27.153  11.945  12.424
65153W        W30138  33.300  40.601  13.332
65154W        W30139  35.392   3.671   3.266
65155W        W30140  43.197  20.189  10.243
65156W        W30141  31.831  22.874   1.346
65157W        W30142  27.881  15.815   3.701
65158W        W30143  30.006   4.779   3.240
65159W        W30144   3.393  21.214  14.895
65160W        W30145  33.322  29.633   5.062
65161W        W30146   7.103   3.671  14.632
65162W        W30147  28.498   6.322   1.323
65163W        W30148  44.171  41.264   1.756
65164W        W30149   2.688   2.004   4.147
65165W        W30150  16.379  32.911  12.586
65166W        W30151  40.349   2.008  10.682
65167W        W30152  41.435   7.440  12.990
65168W        W30153  32.910  36.081   3.167
65169W        W30154  20.007  34.054  12.143
65170W        W30155  21.169   7.340   0.716
65171W        W30156  35.150  36.044   1.402
65172W        W30157  34.167   6.766  10.333
65173W        W30158  20.600  34.945  13.063
65174W        W30159  25.133  35.250  11.993
65175W        W30160  44.364  13.683  11.473
65176W        W30161  34.556  35.424   0.602
65177W        W30162  14.716  44.467   3.412
65178W        W30163  31.365   5.872   3.800
65179W        W30164  19.995  24.122  11.633
65180W        W30165   4.350   3.616   3.619
65181W        W30166  13.808  36.167  13.502
65182W        W30167  32.309  20.151  11.642
65183W        W30168   3.808  43.920   2.741
65184W        W30169  13.834  44.505   3.687
65185W        W30170   9.203  14.838   2.202
65186W        W30171  10.854   9.914   3.800
65187W        W30172   8.813  23.906   2.198
65188W        W30173  24.167  18.746  12.984
65189W        W30174  17.974  23.246  11.584
65190W        W30175  20.791  40.920  11.630
65191W        W30176   6.783   9.985   0.326
65192W        W30177   5.226  44.726   0.867
65193W        W30178  16.079  41.721  13.357
65194W        W30179  43.387  30.749   0.790
65195W        W30180  15.635  26.029   0.872
65196W        W30181  27.566  26.322   3.691
65197W        W30182   0.407  28.225  12.081
65198W        W30183  36.049   7.483   3.155
65199W        W30184  37.871  25.521   5.185
65200W        W30185   1.304  17.907  13.984
65201W        W30186  20.288   8.396  10.735
65202W        W30187   4.680  29.099  10.257
65203W        W30188  12.101   6.307  14.839
65204W        W30189  27.565  34.932   2.502
65205W        W30190  17.492  15.124  14.835
65206W        W30191   6.662  25.995   4.455
65207W        W30192   6.644  14.954  14.918
65208W        W30193  40.463  11.815   2.917
65209W        W30194  10.717  26.513  11.987
65210W        W30195  33.467  39.838   1.222
65211W        W30196   4.084   4.575   2.057
65212W        W30197  11.889   0.334   3.185
65213W        W30198  30.404  20.088  10.733
65214W        W30199  17.865  12.458   3.710
65215W        W30200  31.046  27.282  13.356
65216W        W30201  29.969  13.208   1.609
65217W        W30202  11.448  10.728  14.985
65218W        W30203  30.265  35.335  12.001
65219W        W30204  21.314  14.935  12.723
65220W        W30205  26.701  37.092  12.964
65221W        W30206  34.149   8.481  13.465
65222W        W30207  29.909  35.489   0.258
65223W        W30208  43.391  36.243   2.769
65224W        W30209   5.500  23.055   4.755
65225W        W30210  16.602   5.644   0.816
65226W        W30211   6.950   0.020   4.180
65227W        W30212  11.190   5.277  11.484
65228W        W30213  26.650  41.447   3.694
65229W        W30214  30.369   3.843   0.818
65230W        W30215  11.139  21.219  10.661
65231W        W30216  36.808   3.746  10.726
65232W        W30217  23.469  21.180   4.545
65233W        W30218  38.699  16.615  14.407
65234W        W30219  12.585   7.170  14.854
65235W        W30220  17.785  12.611   3.209
65236W        W30221  11.093  12.880   4.330
65237W        W30222  10.631  13.625   2.714
65238W        W30223  32.383  13.125   2.749
65239W        W30224  13.381  14.270  14.252
65240W        W30225  41.630  31.408  14.753
65241W        W30226   3.133  35.810   3.739
65242W        W30227   1.320  39.420   2.240
65243W        W30228  19.274  15.694  14.796
65244W        W30229  24.299  17.299   1.912
65245W        W30230  42.740  15.141   1.751
65246W        W30231  14.170  23.033   3.208
65247W        W30232   0.916  20.342   4.707
65248W        W30233  41.321  19.689  12.869
65249W        W30234   8.230  23.580   4.666
65250W        W30235  21.989   9.364  10.760
65251W        W30236   9.186   0.443  12.452
65252W        W30237  13.801  16.126   3.318
65253W        W30238  25.137  12.509  11.396
65254W        W30239  16.343  25.808  12.963
65255W        W30240  29.967  14.094  11.962
65256W        W30241  16.236  26.433   3.670
65257W        W30242   1.963  23.635  14.237
65258W        W30243  25.604  15.256   4.259
65259W        W30244  17.277  26.026   3.793
65260W        W30245   2.902  40.888   1.307
65261W        W30246  20.762   7.641  12.511
65262W        W30247  29.637   4.918   4.054
65263W        W30248  36.417  17.586   0.101
65264W        W30249   6.779  32.197  11.166
65265W        W30250  10.773  19.394   4.211
65266W        W30251   4.046   0.318   1.567
65267W        W30252   2.367   3.048  12.170
65268W        W30253  38.946  26.997   0.796
65269W        W30254  10.141  27.417   2.291
65270W        W30255  28.028   3.827   0.556
65271W        W30256  35.474  20.114  11.733
65272W        W30257   7.353  23.805  14.720
65273W        W30258  28.477  27.697  12.857
65274W        W30259   5.648  31.879   3.413
65275W        W30260  35.270  32.159   4.125
65276W        W30261  42.143  23.684  11.453
65277W        W30262   3.187   2.325  14.422
65278W        W30263  30.494  25.414   2.314
65279W        W30264  14.680  32.826   2.634
65280W        W30265  29.704  34.031  12.472
65281W        W30266  11.607  13.433   1.788
65282W        W30267  37.455   1.809   3.923
65283W        W30268  19.262  26.740  12.832
65284W        W30269  33.411  42.578  14.508
65285W        W30270  33.976  12.561  14.889
65286W        W30271   6.216  12.285   2.105
65287W        W30272  35.631  11.754  13.526
65288W        W30273  43.271  13.150   3.195
65289W        W30274  13.067  28.941   2.487
65290W        W30275   9.908  33.853   1.367
65291W        W30276  12.307  25.060   0.247
65292W        W30277  19.843  28.530  11.880
65293W        W30278  35.578  39.058  13.760
65294W        W30279  44.334  19.783  11.330
65295W        W30280   7.284   3.141  10.093
65296W        W30281  31.417  16.074  13.192
65297W        W30282  43.698  36.709  14.552
65298W        W30283  14.607  19.482   3.774
65299W        W30284  35.418  27.006   4.874
65300W        W30285  43.782  29.959   3.876
65301W        W30286  37.436  16.646  12.077
65302W        W30287   5.006  37.503  12.851
65303W        W30288  43.278  31.070  11.961
65304W        W30289   4.561  17.057   0.796
65305W        W30290  32.933  28.961   4.619
65306W        W30291  34.303   8.084   1.325
65307W        W30292  18.181  12.798  11.807
65308W        W30293  38.025  11.756   2.615
65309W        W30294  23.122  25.757  14.415
65310W        W30295  13.382  39.223  13.513
65311W        W30296  27.792  18.517   0.900
65312W        W30297  44.378   0.749   4.643
65313W        W30298  33.892  33.196  14.951
65314W        W30299  15.150  23.770  14.448
65315W        W30300   5.359   6.022  13.008
65316W        W30301  23.196  14.163   1.757
65317W        W30302   7.265  32.960  14.552
65318W        W30303  36.042  16.299  11.964
65319W        W30304  39.526  34.728   4.842
65320W        W30305  34.365   5.828  10.689
65321W        W30306   1.963  24.234   2.736
65322W        W30307  11.195  40.932  11.695
65323W        W30308  23.656  26.029  12.949
65324W        W30309  28.940  38.215  12.463
65325W        W30310  15.194  33.591   2.663
65326W        W30311  24.645   9.234  14.054
65327W        W30312   0.611  42.640  14.732
65328W        W30313   2.682  19.474   2.810
65329W        W30314  32.178  21.190   3.715
65330W        W30315   0.721  31.460  13.835
65331W        W30316  39.359  22.554  11.186
65332W        W30317  11.274   3.862   2.875
65333W        W30318  19.031  38.895   3.624
65334W        W30319  36.848  11.757   0.655
65335W        W30320   9.892  23.179  13.037
65336W        W30321  23.203  15.765   1.783
65337W        W30322  13.506  26.840   0.795
65338W        W30323  37.415  19.206   3.804
65339W        W30324  39.375   8.090   3.303
65340W        W30325  39.846  19.604   4.156
65341W        W30326  42.110  14.756  14.899
65342W        W30327  28.484  38.505  10.642
65343W        W30328   8.108  19.677   3.798
65344W        W30329  20.120  30.948   1.311
65345W        W30330  24.426  26.591  14.461
65346W        W30331  14.865  32.864   4.869
65347W        W30332  42.833  31.038  13.056
65348W        W30333  36.677  35.547  11.037
65349W        W30334   9.448  17.803  12.461
65350W        W30335  17.064   3.664   5.002
65351W        W30336  40.106  35.358  13.370
65352W        W30337  11.775  18.598   0.031
65353W        W30338  12.300  19.555  14.482
65354W        W30339   1.162   8.582   4.106
65355W        W30340  19.186  25.836  14.330
65356W        W30341   7.157  26.783  11.130
65357W        W30342  15.211  24.206  13.488
65358W        W30343  13.668   3.133   4.493
65359W        W30344   7.317   1.962  13.932
65360W        W30345  35.609  16.138   3.438
65361W        W30346  14.414   7.438   2.725
65362W        W30347  11.599  33.990   3.732
65363W        W30348  37.421   1.872   1.983
65364W        W30349  25.472  38.685  14.059
65365W        W30350  13.162  43.914   4.227
65366W        W30351  40.618  14.811   2.805
65367W        W30352  29.740  17.689  13.532
65368W        W30353  40.956  27.150  12.601
65369W        W30354  30.953  31.109   0.836
65370W        W30355   8.189  21.206  12.432
65371W        W30356  18.107  25.661  14.929
65372W        W30357   3.743  19.675  12.523
65373W        W30358  38.446  42.188  11.904
65374W        W30359  32.097  21.002   0.099
65375W        W30360  38.328  28.685  14.042
65376W        W30361  16.174  19.693   3.651
65377W        W30362  25.551  11.279  13.573
65378W        W30363  19.000  35.633   2.468
65379W        W30364   4.971  17.255   3.648
65380W        W30365  12.024  10.810   1.333
65381W        W30366  26.812  42.125   2.802
65382W        W30367  13.699  44.166  11.555
65383W        W30368  42.305  21.732   1.653
65384W        W30369   2.789  25.721  13.732
65385W        W30370  18.601  40.806   0.678
65386W        W30371   7.127  38.865   0.277
65387W        W30372  10.324  41.527  10.793
65388W        W30373  28.554  33.657  13.935
65389W        W30374  33.616  12.912   3.638
65390W        W30375  40.194  22.081   4.718
65391W        W30376  22.985  23.500  14.712
65392W        W30377   9.709  25.395  13.197
65393W        W30378  40.830  36.560   4.936
65394W        W30379  19.959  10.866  12.217
65395W        W30380   7.779  11.359   3.261
65396W        W30381  27.520  29.819   0.833
65397W        W30382  15.184  18.790   0.515
65398W        W30383   6.155  18.758  14.860
65399W        W30384  15.463  40.468   1.660
65400W        W30385  14.276   9.093   0.666
65401W        W30386   6.610   7.135  12.935
65402W        W30387  12.374  39.160  14.516
65403W        W30388  33.923  27.370  10.751
65404W        W30389  22.273  15.320   3.745
65405W        W30390  37.876  34.537  14.106
65406W        W30391  38.853  42.525  14.259
65407W        W30392   5.440  16.504   2.147
65408W        W30393  21.469  16.830   1.827
65409W        W30394  24.064  35.136  14.276
65410W        W30395  20.841  20.750   2.364
65411W        W30396  38.003  30.463   4.722
65412W        W30397  42.803  11.074  14.247
65413W        W30398   4.760  42.605  10.664
65414W        W30399  32.027  38.232  13.281
65415W        W30400  36.247  14.301   2.555
65416W        W30401  14.326  29.744   0.187
65417W        W30402   3.329  17.747  14.727
65418W        W30403   6.847  11.333  11.952
65419W        W30404  39.544  38.895  14.104
65420W        W30405   8.956   0.392   4.960
65421W        W30406  29.640  44.680  11.227
65422W        W30407   2.696   6.986   1.629
65423W        W30408  41.050  24.531   9.972
65424W        W30409  28.931  43.203   4.942
65425W        W30410  33.621  14.202   3.438
65426W        W30411  19.158  16.702   0.813
65427W        W30412  24.741  18.331  14.946
65428W        W30413  43.297  40.494   3.286
65429W        W30414   3.960  21.755  11.036
65430W        W30415   9.919  15.724  11.883
65431W        W30416  19.299   6.505   3.629
65432W        W30417  33.090  38.247  11.174
65433W        W30418  12.870  36.493  12.090
65434W        W30419   1.150  41.000   0.844
65435W        W30420  11.843  35.187  14.144
65436W        W30421   7.230  22.725   1.794
65437W        W30422  20.225  37.238  13.777
65438W        W30423  21.471  22.994  11.886
65439W        W30424  22.671  29.613  14.558
65440W        W30425  44.802   8.247   1.083
65441W        W30426  39.916   5.439  11.097
65442W        W30427  12.682  12.262  12.151
65443W        W30428   7.315  26.223  12.776
65444W        W30429   7.326  36.091  12.882
65445W        W30430  42.890  28.378  12.872
65446W        W30431  29.999  32.138   2.315
65447W        W30432  11.284  35.100   3.148
65448W        W30433   1.341  40.499  13.872
65449W        W30434  12.327  14.613  11.672
65450W        W30435  36.830  12.773  11.054
65451W        W30436  32.972   5.792  14.963
65452W        W30437  32.008  41.563   2.649
65453W        W30438  26.581  41.060   0.705
65454W        W30439  37.774   7.213   0.942
65455W        W30440  22.122  31.383   2.096
65456W        W30441  33.592  23.758   2.126
65457W        W30442  39.033  25.441  12.635
65458W        W30443  23.410   6.449  12.325
65459W        W30444  10.440  40.408  12.403
65460W        W30445  22.547   5.189   4.623
65461W        W30446  16.070  39.972   3.421
65462W        W30447  34.608  14.669  10.461
65463W        W30448  43.433  36.417  11.557
65464W        W30449   5.892  19.475   4.586
65465W        W30450  39.307   4.523   3.215
65466W        W30451  26.907  20.545  14.396
65467W        W30452  19.446  26.911   0.866
65468W        W30453  40.946  20.244   4.304
65469W        W30454  33.558   6.668   0.021
65470W        W30455  39.946  23.175   3.835
65471W        W30456  27.189  38.693  13.614
65472W        W30457   9.925  41.464   0.264
65473W        W30458  10.303  11.033   3.238
65474W        W30459  44.382   4.733  12.089
65475W        W30460  12.719   8.673   4.493
65476W        W30461  42.606  37.325   2.140
65477W        W30462  30.993   1.163   3.453
65478W        W30463  41.269  14.605   3.329
65479W        W30464  18.356  21.040   1.014
65480W        W30465  43.430   1.922  13.980
65481W        W30466  31.636  35.028  13.966
65482W        W30467  34.314  31.839  12.900
65483W        W30468   1.191   2.115  13.923
65484W        W30469  23.232   6.137  11.931
65485W        W30470  35.244  14.628   2.706
65486W        W30471  37.856  15.080   1.722
65487W        W30472   9.202   1.264   0.520
65488W        W30473  44.710  11.938  11.222
65489W        W30474  38.973  15.228  13.425
65490W        W30475  19.440  22.616  13.453
65491W        W30476  29.471   0.820  10.718
65492W        W30477  31.065  39.814   4.234
65493W        W30478   1.401  20.648  12.638
65494W        W30479  43.247  30.199   3.248
65495W        W30480  31.036  11.887   0.630
65496W        W30481   4.425  18.296  13.928
65497W        W30482  22.241   0.615   2.962
65498W        W30483   7.778  28.073  12.366
65499W        W30484  29.923  15.131  12.024
65500W        W30485  15.341   2.251   2.344
65501W        W30486  17.044  23.487   0.382
65502W        W30487  25.657  31.204   3.054
65503W        W30488  26.436  13.988   0.358
65504W        W30489  22.030   2.491   4.984
65505W        W30490  27.423   4.912  12.861
65506W        W30491   2.006  10.140  14.322
65507W        W30492  26.095  38.984  14.884
65508W        W30493  19.504  44.036  10.566
65509W        W30494  34.988   9.396   1.180
65510W        W30495  21.134  34.593  13.526
65511W        W30496  43.541   9.711   0.007
65512W        W30497   2.341  36.288  10.973
65513W        W30498  21.574   3.895  12.070
65514W        W30499  16.145  12.740  14.456
65515W        W30500  25.553  41.058  14.094
65516W        W30501  19.973  30.733   0.308
65517W        W30502  22.107  37.609   1.412
65518W        W30503  19.816  34.100   1.903
65519W        W30504  19.794  13.714   4.113
65520W        W30505  19.606  31.908  11.192
65521W        W30506  38.025  37.366   9.991
65522W        W30507  26.903   8.742  12.878
65523W        W30508  27.196  32.479  14.880
65524W        W30509  11.712  21.339   3.564
65525W        W30510  31.432   6.327  13.503
65526W        W30511   0.369  21.667  13.091
65527W        W30512  33.522  15.781  11.518
65528W        W30513  24.219   9.548   3.440
65529W        W30514   6.747  17.218  14.492
65530W        W30515  10.456  12.185  13.038
65531W        W30516  44.652  40.298  13.548
65532W        W30517   9.649  26.143   1.782
65533W        W30518  39.456   8.686   0.708
65534W        W30519  26.543  22.744   1.345
65535W        W30520  40.230   9.195  11.195
65536W        W30521   5.639  15.738   1.437
65537W        W30522  18.558  10.329   0.953
65538W        W30523   2.453  20.965   0.006
65539W        W30524  42.697  40.000   2.738
65540W        W30525  16.963   5.237   3.193
65541W        W30526  31.364  30.337   2.688
65542W        W30527   7.090   3.322  11.067
65543W        W30528  31.470   5.745   4.802
65544W        W30529  29.762  30.049  13.467
65545W        W30530   2.506  18.703  12.519
65546W        W30531  21.053  28.065  12.135
65547W        W30532  27.788   2.750   5.644
65548W        W30533  43.813  26.582   1.458
65549W        W30534  37.863  11.373  11.139
65550W        W30535  13.304  30.826  10.103
65551W        W30536  15.752   5.192  14.018
65552W        W30537  34.251  22.460   3.340
65553W        W30538  15.796  23.308  11.082
65554W        W30539  38.477   3.616   3.048
65555W        W30540  18.271  42.148   1.201
65556W        W30541  40.046  32.082   1.495
65557W        W30542   3.162  26.497  13.576
65558W        W30543  13.742  31.329  10.754
65559W        W30544  39.251  32.411   3.684
65560W        W30545  41.168  34.824   4.091
65561W        W30546  23.512   8.726   4.069
65562W        W30547   7.699   2.962  10.601
65563W        W30548   8.045  28.026   0.209
65564W        W30549  19.912  25.020  12.389
65565W        W30550  41.784  33.166   3.450
65566W        W30551  21.485   1.267   0.266
65567W        W30552  18.537  10.274  14.358
65568W        W30553  14.715   6.320   3.051
65569W        W30554   1.093   1.436  14.323
65570W        W30555   3.916  36.817   3.748
65571W        W30556   1.560  24.010   1.689
65572W        W30557  30.625  16.973   2.335
65573W        W30558  35.008   5.463   1.315
65574W        W30559   1.289   6.685  14.376
65575W        W30560  16.753  25.920  14.763
65576W        W30561   3.953  16.580   0.239
65577W        W30562  17.612  10.246   4.132
65578W        W30563  20.755  34.368  13.801
65579W        W30564  21.110  39.575   3.498
65580W        W30565  23.482  32.755  12.585
65581W        W30566  30.482  30.218   1.466
65582W        W30567  13.752  20.285   1.537
65583W        W30568  42.376  18.598   1.265
65584W        W30569  40.660  12.267   1.692
65585W        W30570  31.266  17.692  12.581
65586W        W30571  16.334  22.008   3.377
65587W        W30572  18.519  31.843   1.034
65588W        W30573  20.034   9.289   4.157
65589W        W30574   7.365  21.522  13.894
65590W        W30575  42.008   7.203   3.173
65591W        W30576  44.197  38.732  13.180
65592W        W30577  37.181  10.938   4.410
65593W        W30578  44.022   6.881  12.461
65594W        W30579  23.109  22.890  13.029
65595W        W30580  29.141   1.562   9.850
65596W        W30581  39.584  25.548   2.344
65597W        W30582   0.532  24.022   3.797
65598W        W30583  36.198  28.528  12.794
65599W        W30584  35.086  21.856  11.152
65600W        W30585  11.548  10.903   4.401
65601W        W30586  12.869  17.730   3.371
65602W        W30587  21.420  37.990   2.547
65603W        W30588  31.951  14.997   3.132
65604W        W30589  33.905  43.958   4.094
65605W        W30590  36.444  11.343  11.886
65606W        W30591  15.038  17.578   1.073
65607W        W30592  43.256  17.361   3.287
65608W        W30593  19.110   9.098  12.979
65609W        W30594  23.612  28.544   2.740
65610W        W30595  32.011  44.027   1.692
65611W        W30596  24.344  22.200   2.177
65612W        W30597  15.786  37.556  10.770
65613W        W30598  30.031  43.709   0.067
65614W        W30599  10.389  37.494   4.043
65615W        W30600  28.411  37.958  13.377
65616W        W30601   9.037  36.171  14.361
65617W        W30602   7.258  30.993  14.417
65618W        W30603  34.445  15.358  11.603
65619W        W30604  35.599  42.077   4.965
65620W        W30605  18.365  11.317  14.664
65621W        W30606  16.324   2.706   1.490
65622W        W30607  18.793  30.188   1.399
65623W        W30608  34.059   6.514  14.982
65624W        W30609   0.471  37.368  10.507
65625W        W30610  34.829  36.416   1.210
65626W        W30611  38.794  19.826   3.561
65627W        W30612   2.150  22.107  14.507
65628W        W30613   3.349  18.376   3.164
65629W        W30614  12.546  17.799  11.481
65630W        W30615  14.281  36.702   2.737
65631W        W30616  20.160  10.923   4.780
65632W        W30617   8.272   6.437   1.376
65633W        W30618   6.368  42.778  13.531
65634W        W30619  28.162  14.580   4.305
65635W        W30620  34.111   0.800  14.511
65636W        W30621   5.671  23.128   4.277
65637W        W30622  37.322  29.381   3.103
65638W        W30623   2.304  34.823  11.094
65639W        W30624  27.748  15.647  14.281
65640W        W30625  42.722  44.194  11.142
65641W        W30626  39.171  30.925  11.078
65642W        W30627   9.191  26.744   3.489
65643W        W30628  11.685  24.725  12.017
65644W        W30629  41.553  19.519  12.051
65645W        W30630  40.808  14.775  11.110
65646W        W30631  27.180  41.432   2.853
65647W        W30632   1.753   0.447   1.069
65648W        W30633  15.830  37.765   2.804
65649W        W30634  25.157  43.623   2.647
65650W        W30635  23.604  13.125   1.264
65651W        W30636  22.198   8.376  14.412
65652W        W30637  26.515  35.684  12.341
65653W        W30638   8.218   4.405  10.782
65654W        W30639  18.846  16.639  10.638
65655W        W30640  21.914  15.833  14.415
65656W        W30641  37.908  38.283  10.909
65657W        W30642  22.098   6.204   4.345
65658W        W30643  22.028  38.812   0.735
65659W        W30644  17.892  22.166  13.537
65660W        W30645  41.359  15.549  10.023
65661W        W30646  17.687  43.042  14.782
65662W        W30647   2.203  43.402  10.722
65663W        W30648  33.103   0.482  11.066
65664W        W30649  18.030  31.016   3.695
65665W        W30650   5.845  35.474  12.509
65666W        W30651  20.049  39.082   5.040
65667W        W30652  21.261  42.972   1.836
65668W        W30653  35.992  38.434   0.732
65669W        W30654   0.453  28.204  11.567
65670W        W30655  39.961  25.720  12.542
65671W        W30656  29.088  17.137   0.302
65672W        W30657  22.753  10.910  11.551
65673W        W30658  23.695  25.510  13.014
65674W        W30659  37.026  31.010  13.980
65675W        W30660  25.963  22.652  11.564
65676W        W30661   4.213  13.223  11.826
65677W        W30662  32.383  11.303  14.771
65678W        W30663   1.690   7.721  12.029
65679W        W30664  11.687  40.467  12.978
65680W        W30665  11.480  13.859  12.492
65681W        W30666  30.354  13.682  13.029
65682W        W30667  16.113  38.881  14.509
65683W        W30668  28.678   8.406  10.763
65684W        W30669  14.293  12.459   2.141
65685W        W30670   6.342  19.530  14.411
65686W        W30671  23.659  23.596  14.456
65687W        W30672  34.619  34.867  12.953
65688W        W30673  20.101  36.375   1.922
65689W        W30674   3.322   1.528  14.436
65690W        W30675  24.486  14.167   1.403
65691W        W30676  38.775  43.246   1.302
65692W        W30677  18.818  17.804   2.721
65693W        W30678  17.844  10.136  13.360
65694W        W30679  11.986  28.102   1.842
65695W        W30680   1.643  23.997  14.455
65696W        W30681  22.141  17.289   3.940
65697W        W30682  18.548  35.546  14.377
65698W        W30683  40.947  24.731  12.204
65699W        W30684  34.413   9.364   0.532
65700W        W30685  14.756   6.315  13.573
65701W        W30686  31.126   4.097  14.950
65702W        W30687  13.859  24.220  12.050
65703W        W30688  35.396  20.744  13.012
65704W        W30689   2.876  42.735  14.379
65705W        W30690   3.718  11.950  14.373
65706W        W30691  36.795  31.129  14.954
65707W        W30692   6.973  14.179  14.362
65708W        W30693  18.663  13.669  12.420
65709W        W30694   5.918  35.048   3.709
65710W        W30695  37.364  30.496  12.437
65711W        W30696   2.754   7.877  12.621
65712W        W30697  11.116  13.209  13.936
65713W        W30698  25.521  13.288  12.334
65714W        W30699  24.336   9.301  14.480
65715W        W30700  11.416  37.303  13.399
65716W        W30701  28.242   8.401   1.721
65717W        W30702  35.780  28.794  12.507
65718W        W30703  34.503   9.862   3.205
65719W        W30704  38.478  33.688  11.283
65720W        W30705  32.851  36.011   0.370
65721W        W30706  34.994  36.900   1.371
65722W        W30707  28.000  12.827  14.537
65723W        W30708   3.549   4.701   1.756
65724W        W30709  44.412   3.776   3.332
65725W        W30710   8.947   1.948   2.371
65726W        W30711  25.169   5.186   4.057
65727W        W30712  23.474   9.487   2.228
65728W        W30713  29.439   1.056   1.994
65729W        W30714  32.612  29.901  11.593
65730W        W30715  22.221  27.457   1.946
65731W        W30716  10.615  17.272   0.933
65732W        W30717   4.066  39.923  14.356
65733W        W30718  24.994  23.493  10.695
65734W        W30719  43.818  14.315   4.664
65735W        W30720   2.290   3.857   2.653
65736W        W30721  24.012  26.618   3.759
65737W        W30722   8.454   7.171  14.805
65738W        W30723  14.777   3.616  11.544
65739W        W30724  12.563  37.481   4.542
65740W        W30725  20.267   1.373  14.282
65741W        W30726   0.946  38.679   1.737
65742W        W30727   4.933   5.441  12.425
65743W        W30728  42.789  38.865  10.997
65744W        W30729  25.216  20.068  13.777
65745W        W30730  29.400  26.200   0.792
65746W        W30731   3.040  24.684  12.320
65747W        W30732  15.254  12.499  11.659
65748W        W30733  33.301   2.958   4.093
65749W        W30734  39.801   5.295   3.157
65750W        W30735  34.867  17.936   0.455
65751W        W30736  26.130  25.539   3.778
65752W        W30737  10.803  33.519   9.938
65753W        W30738  22.123   5.558  11.414
65754W        W30739  15.213  41.412  14.544
65755W        W30740  24.427  13.355  13.031
65756W        W30741  23.736  34.605  13.504
65757W        W30742  27.981   5.883  14.419
65758W        W30743   5.963   7.772  12.458
65759W        W30744   8.595  25.384  11.682
65760W        W30745  19.089   0.196  11.101
65761W        W30746  12.801  11.845   1.595
65762W        W30747   1.216  24.888  12.081
65763W        W30748  16.044  43.218  11.713
65764W        W30749  10.124   6.884   0.656
65765W        W30750  41.539   7.728   1.755
65766W        W30751  29.959  39.822   0.550
65767W        W30752   2.228   2.255  12.506
65768W        W30753  38.840  14.375  14.891
65769W        W30754  34.056  23.349   3.541
65770W        W30755  38.889  12.925   0.959
65771W        W30756  43.054  11.151  12.939
65772W        W30757   1.387  29.959   1.827
65773W        W30758  33.217  20.152   2.444
65774W        W30759   7.462  40.035   3.722
65775W        W30760  14.955  44.386   2.415
65776W        W30761  37.058  24.769  12.282
65777W        W30762   7.286  21.341  14.403
65778W        W30763  26.905   9.743   0.691
65779W        W30764  23.731  36.631   1.626
65780W        W30765   5.787  26.513   2.977
65781W        W30766   9.754  40.465  14.289
65782W        W30767  43.458  29.708  11.881
65783W        W30768  35.887  15.056   0.505
65784W        W30769   7.642  23.039  12.425
65785W        W30770  11.262   7.851  11.176
65786W        W30771   8.296   0.780   3.511
65787W        W30772   1.371  32.567  14.464
65788W        W30773   0.286   1.921   3.074
65789W        W30774   3.685  13.173   2.921
65790W        W30775  22.653  34.879  12.863
65791W        W30776  44.402  28.673   1.492
65792W        W30777  31.358  30.078  11.623
65793W        W30778   6.500  27.900   4.183
65794W        W30779  32.880   1.559  11.125
65795W        W30780  14.324  22.202  14.035
65796W        W30781  41.740  37.885   3.709
65797W        W30782  24.489  38.295  11.194
65798W        W30783   5.989  38.605  10.667
65799W        W30784   5.768  22.224   3.337
65800W        W30785   2.294  21.028   1.347
65801W        W30786  13.591   7.408  12.790
65802W        W30787  18.479   2.881  13.254
65803W        W30788  44.300  36.422   3.194
65804W        W30789   5.832   5.576   3.371
65805W        W30790  19.571  21.163   0.333
65806W        W30791  19.342  26.697   4.643
65807W        W30792   9.410  20.830   4.294
65808W        W30793  14.733  12.771   4.692
65809W        W30794  21.439  12.425  14.582
65810W        W30795  37.954  40.356  11.028
65811W        W30796  28.075  38.923  14.803
65812W        W30797  37.046  34.947  13.946
65813W        W30798  22.182  35.286  13.821
65814W        W30799   1.919  41.379  10.992
65815W        W30800   2.248  32.026  13.687
65816W        W30801   2.457  27.028  14.007
65817W        W30802   3.588  12.878  12.549
65818W        W30803   4.719  10.928  10.271
65819W        W30804  37.218  27.889   1.889
65820W        W30805  43.293  29.355   4.785
65821W        W30806  15.655  40.806   3.599
65822W        W30807   8.254  31.518   0.896
65823W        W30808  45.000   7.377   1.671
65824W        W30809   2.874   7.865   1.935
65825W        W30810  20.105  16.229   1.643
65826W        W30811  34.103  35.637  12.912
65827W        W30812   8.755   9.392   4.355
65828W        W30813  19.654   0.500   0.282
65829W        W30814   4.520   2.037  10.629
65830W        W30815  29.258  44.390  13.633
65831W        W30816  28.166  22.901  10.113
65832W        W30817  28.032   8.965   1.298
65833W        W30818   9.125  14.074   1.722
65834W        W30819  39.757  10.511   0.810
65835W        W30820  44.771  30.695  11.122
65836W        W30821   3.475  33.001   4.197
65837W        W30822   0.145  20.680  10.938
65838W        W30823   5.902  21.493   3.495
65839W        W30824   9.631  40.533  12.997
65840W        W30825   1.897  32.410   0.459
65841W        W30826  13.678  35.913  13.950
65842W        W30827  17.104  34.502   1.414
65843W        W30828   9.885   1.514   1.271
65844W        W30829   3.193  20.914  11.106
65845W        W30830  23.024   7.081  10.811
65846W        W30831  38.383  14.998   2.385
65847W        W30832  27.639  39.936  11.906
65848W        W30833  27.027   2.756   2.284
65849W        W30834  19.374  37.453   4.701
65850W        W30835  34.319  10.250   4.511
65851W        W30836   0.304  19.782   0.315
65852W        W30837   0.065  34.938  11.564
65853W        W30838  36.463  28.200  12.501
65854W        W30839  29.109  19.234  13.013
65855W        W30840  29.291  18.040   3.460
65856W        W30841  31.024  39.372  13.999
65857W        W30842   2.373   6.891   0.447
65858W        W30843   4.406  21.655   1.270
65859W        W30844  44.371   7.731  14.326
65860W        W30845  25.762  26.007   2.707
65861W        W30846   0.535  19.142   5.025
65862W        W30847   2.796  16.864   4.671
65863W        W30848  20.671  11.540  10.976
65864W        W30849   1.342  28.691   0.650
65865W        W30850   5.696   2.869  11.122
65866W        W30851  25.725  26.866  10.211
65867W        W30852  13.332   2.993  11.618
65868W        W30853  20.191  26.227   0.237
65869W        W30854  23.532  36.853   3.843
65870W        W30855  11.162  13.354   0.732
65871W        W30856  10.667  28.148  14.050
65872W        W30857   9.279  41.850  11.981
65873W        W30858  26.227  20.672  12.340
65874W        W30859  12.897  28.605  14.320
65875W        W30860  32.582  29.481   0.975
65876W        W30861   0.868  39.012   2.721
65877W        W30862  18.746  43.739  14.541
65878W        W30863  20.956  37.054   2.807
65879W        W30864  44.358  26.953  10.242
65880W        W30865  41.083  37.453   2.575
65881W        W30866   9.299  38.844  13.688
65882W        W30867  42.184  36.487   1.641
65883W        W30868  10.699  37.443  14.576
65884W        W30869  27.029   5.546  13.992
65885W        W30870  12.058  21.038  11.418
65886W        W30871  23.483  23.168  12.024
65887W        W30872  36.426  26.831  11.008
65888W        W30873  10.082  40.311  11.204
65889W        W30874  13.317  14.050   3.693
65890W        W30875   8.214  10.663  14.748
65891W        W30876   8.624  11.865   1.752
65892W        W30877  27.717  36.002  11.603
65893W        W30878  38.158  29.459   0.737
65894W        W30879  30.502  44.402   3.308
65895W        W30880   5.439  13.412   1.399
65896W        W30881  16.774  16.041  12.112
65897W        W30882  43.547  19.592   3.654
65898W        W30883  38.903   3.613  14.429
65899W        W30884  38.227  18.947   0.774
65900W        W30885  22.158   5.098   0.776
65901W        W30886  30.178   2.739  13.203
65902W        W30887  10.672  26.353   3.324
65903W        W30888  41.730  38.943  10.711
65904W        W30889  27.127  23.176  10.867
65905W        W30890  35.516  38.263   0.871
65906W        W30891  36.454  44.924  14.443
65907W        W30892   7.825   8.135  14.772
65908W        W30893  20.114  17.198   4.680
65909W        W30894  12.184  24.067  11.660
65910W        W30895   5.543  27.610   2.035
65911W        W30896  35.981  19.558  13.790
65912W        W30897  22.772  40.385  13.360
65913W        W30898  11.348  39.300  10.248
65914W        W30899   0.320  38.370  10.614
65915W        W30900   7.382  26.078  10.638
65916W        W30901  28.598  42.494  12.268
65917W        W30902  25.959  44.941  11.189
65918W        W30903  43.091  32.849   1.911
65919W        W30904  36.562  34.589   4.289
65920W        W30905  30.464   6.614  13.941
65921W        W30906  25.124  38.260  14.243
65922W        W30907  23.487  43.065   1.329
65923W        W30908  30.229  40.246   4.067
65924W        W30909  37.989  15.430   4.105
65925W        W30910  30.205  12.330   1.406
65926W        W30911   9.974  41.831   2.255
65927W        W30912  38.986  11.859   0.987
65928W        W30913  41.337  36.482   0.301
65929W        W30914  28.567  26.434   4.736
65930W        W30915  20.165  22.064   1.016
65931W        W30916  33.829  13.668   0.244
65932W        W30917  35.641  38.511   2.252
65933W        W30918  34.282   0.179   4.861
65934W        W30919  40.393  32.251  14.743
65935W        W30920  30.986   0.457  11.090
65936W        W30921   0.231  17.613   1.813
65937W        W30922  40.474  40.148  11.635
65938W        W30923   1.802  23.547  13.321
65939W        W30924  29.576  18.074  11.978
65940W        W30925   8.150  37.429   2.227
65941W        W30926   6.956  40.786   3.293
65942W        W30927  18.673  11.224  12.498
65943W        W30928  12.219  43.345   1.429
65944W        W30929  43.435   5.949  12.001
65945W        W30930  33.625  19.796  10.786
65946W        W30931  11.288  35.567  13.000
65947W        W30932  32.097  18.435   4.463
65948W        W30933   8.224  35.055   3.350
65949W        W30934  43.896  11.373  14.815
65950W        W30935  38.549  17.844   2.163
65951W        W30936  37.174  38.676  13.659
65952W        W30937  32.920  34.100   3.509
65953W        W30938  38.836   5.731   4.399
65954W        W30939   6.955   9.890   3.189
65955W        W30940  31.063  17.193  11.597
65956W        W30941  12.808   7.456   0.292
65957W        W30942  14.159  13.763   0.307
65958W        W30943  32.349  25.041   1.426
65959W        W30944  33.947  24.505  11.504
65960W        W30945  35.420  28.562   1.917
65961W        W30946  12.382   2.636  11.588
65962W        W30947   0.772   0.053  11.509
65963W        W30948   3.593  26.238  12.977
65964W        W30949  25.883  28.625   3.355
65965W        W30950  42.529  43.314   3.606
65966W        W30951   9.763  31.043  14.547
65967W        W30952  19.815  18.767  13.997
65968W        W30953  42.292   6.840  13.032
65969W        W30954  11.877   0.465   4.045
65970W        W30955  13.659   9.143  10.929
65971W        W30956  28.094  10.110  14.319
65972W        W30957  15.067  14.226  12.438
65973W        W30958  10.655  13.834   1.788
65974W        W30959   6.488  14.543   0.534
65975W        W30960   5.509  14.354  11.162
65976W        W30961   0.986  27.018  13.012
65977W        W30962  25.191  32.443  14.433
65978W        W30963  23.103  37.568   3.616
65979W        W30964   0.511  29.544   4.212
65980W        W30965  25.958   6.377   0.987
65981W        W30966  31.614  38.313  12.100
65982W        W30967   2.932   9.339   0.815
65983W        W30968   0.322  28.929  10.676
65984W        W30969   3.278  42.359  12.092
65985W        W30970  37.115  36.431  10.952
65986W        W30971   6.725   2.902   2.407
65987W        W30972  10.855  17.817   1.734
65988W        W30973  31.466  16.831   0.356
65989W        W30974  19.419  10.712   4.842
65990W        W30975  34.082   4.667  10.922
65991W        W30976  43.977  25.758   4.152
65992W        W30977  14.264  20.228   2.247
65993W        W30978  20.149  37.289  11.638
65994W        W30979  40.052   6.628  12.478
65995W        W30980  26.643  20.542  11.258
65996W        W30981   5.195   6.717   0.296
65997W        W30982   4.452  28.068  13.921
65998W        W30983   8.287  44.400   4.113
65999W        W30984  32.362  18.533  11.679
66000W        W30985  14.591  44.890  12.189
66001W        W30986  37.532  12.781  13.852
66002W        W30987  21.202  43.272   3.655
66003W        W30988  13.198  18.650  11.525
66004W        W30989  34.128  12.752   3.456
66005W        W30990   7.703  32.540   4.217
66006W        W30991  38.104  13.669   4.720
66007W        W30992  24.500  23.122   2.166
66008W        W30993  38.883  41.271  10.779
66009W        W30994   4.363  25.226  14.819
66010W        W30995  18.826  27.881  11.377
66011W        W30996  35.423  42.420   0.337
66012W        W30997  40.936  36.911   1.787
66013W        W30998  13.497   4.024   3.064
66014W        W30999  32.073  34.714   2.318
66015W        W31000  34.669  18.744   0.066
66016W        W31001  43.344   9.405  10.656
66017W        W31002  29.660  39.356  10.590
66018W        W31003  36.790  44.248   1.254
66019W        W31004  24.690  38.457  14.496
66020W        W31005   8.671  13.323   2.825
66021W        W31006  37.967  21.863  14.808
66022W        W31007  12.133  15.090  13.462
66023W        W31008  39.070  25.527   2.253
66024W        W31009  30.566  22.876   2.129
66025W        W31010  11.041  34.326  12.570
66026W        W31011  22.994  26.617   4.539
66027W        W31012  29.835  36.836   4.731
66028W        W31013  37.961  16.877   4.095
66029W        W31014  24.166  36.548  10.961
66030W        W31015  30.460  14.901   3.364
66031W        W31016  19.691  20.520  14.709
66032W        W31017   1.377  23.114   1.809
66033W        W31018   6.760  24.448   3.108
66034W        W31019  39.880   6.259  10.672
66035W        W31020  36.616  20.505  14.756
66036W        W31021  28.228   4.870   4.492
66037W        W31022  38.325  10.007   0.380
66038W        W31023  24.283  32.447   3.992
66039W        W31024  12.727  18.054  14.403
66040W        W31025  40.957  22.959  14.777
66041W        W31026  24.298  18.316   2.817
66042W        W31027  17.978   5.896  12.505
66043W        W31028  25.478  12.743   2.358
66044W        W31029   6.871  19.740   2.404
66045W        W31030  18.599   0.184   2.888
66046W        W31031  26.961  34.955  11.293
66047W        W31032  25.943  18.075   1.500
66048W        W31033  41.552   8.767   0.849
66049W        W31034   3.178  43.257  12.880
66050W        W31035  17.831  13.608   1.394
66051W        W31036   6.856  31.058  14.757
66052W        W31037   4.364  17.766  10.967
66053W        W31038  36.499  21.959  14.398
66054W        W31039  33.818   7.911   1.241
66055W        W31040   8.991  26.424   2.212
66056W        W31041  27.135   0.771  14.296
66057W        W31042  35.675  33.021  12.174
66058W        W31043  28.349  15.096  14.004
66059W        W31044  37.286  21.234   4.104
66060W        W31045  41.310  34.917  14.822
66061W        W31046   4.886  31.642   1.340
66062W        W31047  24.676  29.937  12.605
66063W        W31048   4.051  32.586   4.875
66064W        W31049  26.983   9.740   1.709
66065W        W31050   9.118  15.832   3.161
66066W        W31051  19.670  25.919   4.187
66067W        W31052  26.142  25.576  10.577
66068W        W31053  10.623   2.716  14.490
66069W        W31054  13.041  14.759  14.856
66070W        W31055  38.040  17.847   2.274
66071W        W31056  28.184  43.997   2.618
66072W        W31057   9.587  25.199  14.962
66073W        W31058  35.885  43.414   0.016
66074W        W31059   0.967  22.136  12.616
66075W        W31060  37.169   9.785  10.532
66076W        W31061  30.548  12.220  11.643
66077W        W31062  44.417  34.062   0.346
66078W        W31063  11.822  36.721   3.087
66079W        W31064  23.108   3.615   2.304
66080W        W31065  16.043   4.376  13.502
66081W        W31066  12.166  17.719   1.364
66082W        W31067  29.575  10.829   4.763
66083W        W31068   8.342  12.388   4.246
66084W        W31069  13.231  10.903  14.091
66085W        W31070  27.573  43.013   0.329
66086W        W31071   1.154  23.225  10.412
66087W        W31072  34.552  13.138   1.909
66088W        W31073   6.276  39.806  12.025
66089W        W31074  28.335  39.399   2.562
66090W        W31075  14.093   6.377   3.386
66091W        W31076  11.419   4.705  13.409
66092W        W31077  18.643  43.997   3.708
66093W        W31078  32.960  15.073  12.160
66094W        W31079  29.533  16.537  13.097
66095W        W31080  20.543  37.357  14.931
66096W        W31081  31.671  18.549   1.027
66097W        W31082  42.003  10.614   0.911
66098W        W31083  33.861   7.688   2.324
66099W        W31084  22.118  36.852   0.728
66100W        W31085  22.703  23.506  11.667
66101W        W31086  44.083  42.976  13.491
66102W        W31087  37.260  13.519  14.233
66103W        W31088  23.214  27.453  13.862
66104W        W31089  29.084   4.981   0.337
66105W        W31090  33.412   4.295  10.832
66106W        W31091   9.411   6.855   1.979
66107W        W31092   3.712  40.038  12.963
66108W        W31093  40.210   2.443   2.960
66109W        W31094  19.765   2.286  13.971
66110W        W31095  26.534  12.081   1.858
66111W        W31096  44.775  18.169   3.532
66112W        W31097  12.786  33.358   3.270
66113W        W31098  24.609   7.933  11.613
66114W        W31099  12.785  29.062   5.251
66115W        W31100  20.780  28.178   4.085
66116W        W31101   6.920  26.153  11.892
66117W        W31102  36.093  35.805   1.345
66118W        W31103  12.811  11.995   1.106
66119W        W31104   8.100  29.574  11.099
66120W        W31105   6.402  16.207   3.391
66121W        W31106  16.630   6.447  13.385
66122W        W31107  29.870  42.172  11.666
66123W        W31108  42.430  31.715  11.631
66124W        W31109  42.793   4.805   4.131
66125W        W31110   2.492  18.475   2.131
66126W        W31111  13.339  39.499  11.204
66127W        W31112  27.498  39.945  12.846
66128W        W31113  27.732  26.997  13.522
66129W        W31114  23.748  44.240  12.520
66130W        W31115   3.808  13.995  11.211
66131W        W31116   7.213  35.957   2.274
66132W        W31117  32.580   9.313   2.205
66133W        W31118  13.643  10.137  14.308
66134W        W31119   8.303  36.003  13.860
66135W        W31120  29.070  38.327   1.326
66136W        W31121  39.989  10.361  13.954
66137W        W31122  25.782  41.224  10.082
66138W        W31123  14.443  29.579   1.932
66139W        W31124  43.919  40.757   0.163
66140W        W31125  12.141  13.629  14.498
66141W        W31126   0.790  27.864  11.187
66142W        W31127   9.205  12.353  12.509
66143W        W31128   4.518  31.369  14.748
66144W        W31129  36.404  35.523   4.433
66145W        W31130  22.035  40.469   4.364
66146W        W31131  29.416   7.460  13.737
66147W        W31132  23.282  15.806   1.284
66148W        W31133  17.368  41.451   1.298
66149W        W31134  15.803  25.713  13.003
66150W        W31135   6.813  24.490  14.534
66151W        W31136  29.222   4.483  11.013
66152W        W31137  25.204   3.422   2.380
66153W        W31138  27.632   1.352  12.438
66154W        W31139  32.660   0.052  12.402
66155W        W31140  16.727   3.483   0.665
66156W        W31141  37.832   8.649  11.687
66157W        W31142  28.342  21.177  12.523
66158W        W31143   5.470  33.712   4.519
66159W        W31144  39.086  23.595   1.377
66160W        W31145  18.777  34.632   0.886
66161W        W31146  20.734   7.823   3.208
66162W        W31147   1.981  41.737  13.855
66163W        W31148   9.709  21.675   3.691
66164W        W31149  25.450   7.833  14.106
66165W        W31150  33.492  25.592   4.984
66166W        W31151  18.327  12.830   3.298
66167W        W31152  32.366  34.843  11.557
66168W        W31153  29.604  40.324  11.255
66169W        W31154  11.647  36.612  11.295
66170W        W31155  17.702  26.164   3.520
66171W        W31156   8.314  26.478   1.812
66172W        W31157  31.379  27.905   4.556
66173W        W31158   4.907   1.278   3.093
66174W        W31159   2.535  36.959  12.134
66175W        W31160  41.962  32.908   1.178
66176W        W31161  23.163  10.787  13.834
66177W        W31162   5.966  20.141   1.288
66178W        W31163  13.104  42.247   3.603
66179W        W31164  29.122  16.141   4.902
66180W        W31165  29.857  25.234   5.028
66181W        W31166  23.628  21.523   1.969
66182W        W31167  40.618  26.604   3.677
66183W        W31168  44.924   2.677  10.678
66184W        W31169  31.038  43.771  12.520
66185W        W31170  39.613  24.613   2.442
66186W        W31171  35.418  29.141  12.350
66187W        W31172  41.697   2.474   1.275
66188W        W31173   6.984   6.763   3.375
66189W        W31174   2.364   7.396   2.823
66190W        W31175  11.892   9.738   4.192
66191W        W31176  30.738  28.124   2.768
66192W        W31177  28.460   6.604  11.144
66193W        W31178   1.323   6.388   3.278
66194W        W31179  24.594  43.989  12.594
66195W        W31180  19.453   5.513  12.845
66196W        W31181  17.915  36.909  13.507
66197W        W31182  17.952  31.170   3.140
66198W        W31183  10.113  27.141  14.931
66199W        W31184   4.684   9.626  13.005
66200W        W31185  37.115  24.295  12.800
66201W        W31186  43.246  34.972  14.443
66202W        W31187  44.038  44.711  13.723
66203W        W31188   5.411  41.595   3.208
66204W        W31189   6.978  31.224   4.211
66205W        W31190   8.424  13.608   2.156
66206W        W31191  16.888  43.338   2.180
66207W        W31192  33.073  39.793  11.497
66208W        W31193  40.907  25.278   3.547
66209W        W31194  41.029  10.697  12.585
66210W        W31195  23.284  22.579   4.261
66211W        W31196  42.082   4.867  12.470
66212W        W31197   4.982  44.707  11.950
66213W        W31198  26.941  41.811   4.790
66214W        W31199  19.697  16.005  14.947
66215W        W31200  27.585  31.636  12.925
66216W        W31201   5.167   1.137  11.198
66217W        W31202  18.836  10.627   1.286
66218W        W31203  34.040  43.673   1.460
66219W        W31204  11.756   9.786   3.546
66220W        W31205   5.373  22.620  12.668
66221W        W31206  44.256   8.891   0.843
66222W        W31207   6.345  39.584  13.709
66223W        W31208  27.747  14.910   3.587
66224W        W31209  18.206  15.790  12.193
66225W        W31210  32.596   7.453  12.946
66226W        W31211  21.692   2.319   4.064
66227W        W31212  34.487   1.856   0.835
66228W        W31213  20.978  11.175  11.210
66229W        W31214  26.478  39.775   2.138
66230W        W31215  12.733  16.224  12.031
66231W        W31216   2.084  29.954   4.929
66232W        W31217  39.511   9.637  14.406
66233W        W31218  14.854  20.792  14.921
66234W        W31219  43.835  37.329   1.820
66235W        W31220   8.798  17.507   4.246
66236W        W31221  29.812  38.360   3.698
66237W        W31222  13.228   1.424  13.512
66238W        W31223  25.900  19.039   4.088
66239W        W31224  31.036  13.703   1.901
66240W        W31225  12.923   9.386  11.070
66241W        W31226  37.889  13.026  13.559
66242W        W31227  38.443   9.883  13.056
66243W        W31228  21.615  14.794  13.797
66244W        W31229  22.402  18.588   3.714
66245W        W31230  21.157  44.103   0.268
66246W        W31231   8.109  12.470   1.213
66247W        W31232  41.943  44.735  12.950
66248W        W31233  19.047  44.191  12.007
66249W        W31234  38.069  18.483   0.890
66250W        W31235  39.078   2.301  14.776
66251W        W31236  42.058  28.757   3.265
66252W        W31237  30.772  44.196   0.439
66253W        W31238  34.620  26.361  14.609
66254W        W31239  13.159  11.374   2.899
66255W        W31240  32.935   7.427   1.285
66256W        W31241   6.144   8.845   1.543
66257W        W31242  34.184  23.464   1.382
66258W        W31243  39.382   4.767   1.784
66259W        W31244  28.537  17.685  11.934
66260W        W31245   0.022  38.889   2.666
66261W        W31246  10.395  10.586   1.331
66262W        W31247  35.955  11.232  11.639
66263W        W31248  44.246   1.901  12.989
66264W        W31249  20.624   0.632   3.442
66265W        W31250  34.938  13.297   4.301
66266W        W31251  34.519  29.397  11.900
66267W        W31252  18.778  38.616  10.777
66268W        W31253  10.635  10.711   1.784
66269W        W31254  20.309  32.497  12.878
66270W        W31255  38.866  34.878   3.109
66271W        W31256  28.949  24.415  12.393
66272W        W31257   6.447  38.905   3.219
66273W        W31258  34.172   6.886   1.660
66274W        W31259  38.486  22.464  14.613
66275W        W31260   4.249  21.684   2.283
66276W        W31261  41.802  40.364   4.064
66277W        W31262  43.211  16.117   1.732
66278W        W31263  11.643  42.778   4.917
66279W        W31264  40.616  19.216  12.805
66280W        W31265  34.797  22.078   1.164
66281W        W31266  15.492  37.415  13.074
66282W        W31267  39.829  14.853  13.136
66283W        W31268  42.107  14.676  14.051
66284W        W31269   9.022  23.681  11.262
66285W        W31270  43.820  16.771   9.832
66286W        W31271  38.601  14.195   0.303
66287W        W31272  25.013  17.390   3.006
66288W        W31273  22.124   1.351  13.444
66289W        W31274   4.312   7.939  11.033
66290W        W31275  28.205  43.545  13.546
66291W        W31276  39.292  19.209  11.060
66292W        W31277   6.662  30.105   2.857
66293W        W31278  32.143  22.110   2.640
66294W        W31279  17.065  17.553  14.039
66295W        W31280  15.223   3.157  11.137
66296W        W31281  22.110  17.230  14.475
66297W        W31282  17.193  10.367   4.609
66298W        W31283   3.950   4.178   2.386
66299W        W31284  30.181  15.142   0.826
66300W        W31285   0.734  36.981   9.827
66301W        W31286  27.195  33.016   2.928
66302W        W31287  26.850  23.060  11.458
66303W        W31288  29.394  13.049   0.479
66304W        W31289   5.387  20.459   3.132
66305W        W31290  40.356  22.274   3.303
66306W        W31291   1.416  10.360   2.846
66307W        W31292  30.392  40.685   0.434
66308W        W31293  16.511  25.168   0.985
66309W        W31294  15.687  27.448  13.038
66310W        W31295  34.559   3.833   3.364
66311W        W31296  35.013  15.387  14.465
66312W        W31297  37.512  11.746  11.229
66313W        W31298  15.572  23.477  14.397
66314W        W31299  13.675  14.613   0.462
66315W        W31300  40.510   7.298   3.219
66316W        W31301  11.714   0.832  13.008
66317W        W31302   1.505  19.693  14.354
66318W        W31303  10.619  31.713  11.406
66319W        W31304  15.836  16.127  14.056
66320W        W31305  22.512   7.683   2.215
66321W        W31306  25.781  17.617  11.477
66322W        W31307   8.610  14.580   0.833
66323W        W31308  29.570  28.024  14.848
66324W        W31309   2.473  36.536   2.645
66325W        W31310  20.505  24.312  11.531
66326W        W31311  11.603  42.305  12.019
66327W        W31312   0.205  38.096   1.255
66328W        W31313  22.092  36.741   1.768
66329W        W31314  29.489  15.693   1.118
66330W        W31315  38.303  22.566   0.728
66331W        W31316  18.377  14.530   2.633
66332W        W31317   2.370  29.695   4.591
66333W        W31318  32.424  11.857  14.882
66334W        W31319  14.993  18.677   4.966
66335W        W31320  33.653  44.954  13.211
66336W        W31321  41.939  41.376   0.684
66337W        W31322   7.739  25.148  13.468
66338W        W31323  25.834  28.602   3.851
66339W        W31324  22.283  35.062  11.513
66340W        W31325  13.642  23.542   0.047
66341W        W31326  29.605  21.674  13.536
66342W        W31327   9.791  10.444  12.388
66343W        W31328  26.539   3.487   0.957
66344W        W31329   3.327  13.918  14.216
66345W        W31330  44.902  36.399   0.486
66346W        W31331  32.901  35.032  14.332
66347W        W31332  19.456  38.184   4.144
66348W        W31333  23.235  44.323   0.423
66349W        W31334   0.388  31.679  14.178
66350W        W31335  36.353  21.430  13.277
66351W        W31336  20.146   4.471  11.099
66352W        W31337  35.646  42.866   4.100
66353W        W31338  23.035  40.336   1.411
66354W        W31339  36.966  11.388   1.464
66355W        W31340  39.372   0.355  13.974
66356W        W31341  44.302   2.009  12.144
66357W        W31342  44.763  25.539   0.443
66358W        W31343  26.356  29.101  12.791
66359W        W31344  34.798  31.633  13.024
66360W        W31345  12.075   9.806   2.495
66361W        W31346  36.988   8.637  10.564
66362W        W31347   2.769  33.369  14.769
66363W        W31348  43.386   4.691   3.233
66364W        W31349  13.961  24.685   1.014
66365W        W31350   4.732  42.467   0.622
66366W        W31351  35.444   2.950  11.217
66367W        W31352   8.766   1.521  12.883
66368W        W31353  35.323   3.196   2.685
66369W        W31354   8.705  31.031  10.914
66370W        W31355  20.070  22.996  12.404
66371W        W31356  29.493  22.621   1.195
66372W        W31357  14.083  18.814   1.868
66373W        W31358  33.702   5.220   0.983
66374W        W31359   2.977  35.030   3.226
66375W        W31360  19.683  31.468  13.275
66376W        W31361  26.497  36.043  11.117
66377W        W31362  23.083  43.717  13.328
66378W        W31363  25.585  17.720  14.003
66379W        W31364  25.990  29.101  10.765
66380W        W31365   8.421  17.951  11.223
66381W        W31366  33.178   7.056   3.265
66382W        W31367  20.233  13.321   2.224
66383W        W31368  22.608  19.624  10.670
66384W        W31369   2.919  23.165  12.956
66385W        W31370  30.548  25.689  13.239
66386W        W31371   7.857  22.353   4.594
66387W        W31372  15.317  33.593  11.057
66388W        W31373  16.192  11.304   4.147
66389W        W31374  30.681  24.769   3.921
66390W        W31375  14.724  17.056   2.817
66391W        W31376  17.928  37.046   3.791
66392W        W31377  32.681  23.419   3.821
66393W        W31378  19.266  29.369   1.824
66394W        W31379  23.671  30.318  14.471
66395W        W31380  38.747  44.452   4.978
66396W        W31381  29.016  12.861   1.055
66397W        W31382   1.719  23.788   1.211
66398W        W31383  32.150  36.604  13.381
66399W        W31384  36.563  27.923  14.395
66400W        W31385  41.210  14.629  12.931
66401W        W31386  14.921  22.058   1.602
66402W        W31387  41.578  39.493  10.925
66403W        W31388  23.353  28.726  14.335
66404W        W31389  21.525   4.133   1.274
66405W        W31390  37.933  34.023  10.933
66406W        W31391  37.367   9.854  14.436
66407W        W31392  13.882  40.390   3.868
66408W        W31393   0.272  13.937   1.447
66409W        W31394   1.827  40.065   4.819
66410W        W31395   6.939  36.336  10.801
66411W        W31396  21.580  29.462   1.509
66412W        W31397   4.771  38.883  14.402
66413W        W31398  16.080   0.246  12.061
66414W        W31399   2.442  39.818   1.121
66415W        W31400  25.748  13.714  14.773
66416W        W31401  41.822  39.325  12.387
66417W        W31402   8.429   1.809   1.720
66418W        W31403  33.089  19.125   0.840
66419W        W31404  28.143  33.378   1.348
66420W        W31405  20.765  13.554   0.788
66421W        W31406  25.455   7.596   0.423
66422W        W31407   3.169  41.282  14.346
66423W        W31408   6.245  37.476  13.203
66424W        W31409  15.670  43.472  11.435
66425W        W31410   6.646  40.776   3.710
66426W        W31411  32.975  23.841  12.717
66427W        W31412  16.621   4.862   1.273
66428W        W31413   6.164  29.431   1.974
66429W        W31414  34.452  21.524   3.195
66430W        W31415  30.397  37.682   4.576
66431W        W31416  27.004  44.004   4.577
66432W        W31417  35.724  11.596   1.317
66433W        W31418  13.394  23.851   2.251
66434W        W31419  38.539  11.771   4.400
66435W        W31420  37.512  44.726   2.668
66436W        W31421  34.158   8.242  14.368
66437W        W31422  24.591   9.739   3.759
66438W        W31423  10.353  12.076  14.418
66439W        W31424   2.125  31.110   1.281
66440W        W31425  12.438  40.085  13.016
66441W        W31426  31.042  28.068  13.946
66442W        W31427  21.474   4.429  14.480
66443W        W31428  13.939  29.060   0.902
66444W        W31429   7.828  23.789  10.665
66445W        W31430  13.557  17.888  13.498
66446W        W31431  41.296  37.601  14.795
66447W        W31432   4.798  39.043   1.455
66448W        W31433  23.185  17.299  10.989
66449W        W31434   7.329  28.261   1.194
66450W        W31435   0.612   2.377   5.104
66451W        W31436   3.651  15.319  11.747
66452W        W31437   1.244  38.580  10.769
66453W        W31438  32.120  14.860   4.552
66454W        W31439  37.138  23.519  10.835
66455W        W31440  10.416  15.799  14.766
66456W        W31441  29.628  32.918  13.404
66457W        W31442  14.739  32.624  13.926
66458W        W31443  31.640  42.984   4.469
66459W        W31444  33.064  14.799   4.870
66460W        W31445  32.720   4.233   1.871
66461W        W31446  38.593  15.967  12.804
66462W        W31447   3.851  25.661   3.902
66463W        W31448   7.153  37.410   3.650
66464W        W31449  12.658  29.245  12.491
66465W        W31450  40.106  37.965   2.978
66466W        W31451   7.902   1.160  12.126
66467W        W31452  37.476  37.779   3.334
66468W        W31453  43.938  25.955   4.619
66469W        W31454  44.523  31.872   4.120
66470W        W31455  14.262  35.602  11.201
66471W        W31456  20.129  17.287   1.677
66472W        W31457   4.903  40.198   3.390
66473W        W31458  35.514  23.795   2.269
66474W        W31459   5.283  37.399  11.571
66475W        W31460  12.187   3.361  11.086
66476W        W31461  28.616  24.283  13.440
66477W        W31462  23.240  23.380  11.171
66478W        W31463   5.382  11.675   1.219
66479W        W31464  18.633   7.384  13.252
66480W        W31465   2.114  23.763  12.958
66481W        W31466  13.740  25.607  11.259
66482W        W31467  18.653   0.519   3.755
66483W        W31468   1.511  31.211   0.409
66484W        W31469  18.512  10.358  11.997
66485W        W31470  37.630  37.041  10.298
66486W        W31471  24.146  25.757  13.027
66487W        W31472  13.030   5.441   0.709
66488W        W31473   8.822   6.877   4.986
66489W        W31474   6.344  37.776   2.726
66490W        W31475  32.534  14.202   2.779
66491W        W31476  29.787  39.376  11.577
66492W        W31477  24.591  38.334   4.239
66493W        W31478  42.207  33.095   3.166
66494W        W31479   6.242  29.819   1.610
66495W        W31480  14.755  31.515   4.411
66496W        W31481   7.628   4.636   1.682
66497W        W31482   2.483  20.525   2.619
66498W        W31483  35.209  29.577   4.283
66499W        W31484  33.334  40.053  10.547
66500W        W31485  43.487   0.923  13.860
66501W        W31486   7.345  16.575  12.874
66502W        W31487  19.868  35.770  14.422
66503W        W31488  13.895   8.761  10.253
66504W        W31489  43.661  41.819   0.409
66505W        W31490   9.859  43.223   4.206
66506W        W31491  35.263  19.146  12.999
66507W        W31492  20.163  20.446   4.556
66508W        W31493  41.318  33.072   3.141
66509W        W31494  25.366  39.708   0.896
66510W        W31495  22.946   7.835  13.758
66511W        W31496  26.638   5.868  13.688
66512W        W31497   3.366  14.779  14.876
66513W        W31498  39.131  10.677  14.686
66514W        W31499  17.142  38.384   3.416
66515W        W31500  13.783  30.820  10.734
66516W        W31501   5.168  26.177   3.811
66517W        W31502  36.513   2.911  11.148
66518W        W31503   4.007  12.761   3.711
66519W        W31504  15.750  11.049  10.224
66520W        W31505  14.869  25.665  14.381
66521W        W31506   2.546  34.706   3.264
66522W        W31507  10.410  30.194   4.685
66523W        W31508  43.922  35.762   1.709
66524W        W31509  35.063  21.995  14.789
66525W        W31510  20.078  23.510  13.382
66526W        W31511   4.889  36.596  11.635
66527W        W31512  21.211  39.530   2.593
66528W        W31513   5.218   0.325   4.542
66529W        W31514  11.119  39.513  14.084
66530W        W31515  42.066  32.633  12.534
66531W        W31516   6.183  42.893   3.506
66532W        W31517  29.702  22.699   1.678
66533W        W31518  19.933   6.387  11.509
66534W        W31519  15.753  38.790   5.011
66535W        W31520  43.527  21.488   2.173
66536W        W31521  26.506  37.573   0.395
66537W        W31522   7.481  13.610   2.422
66538W        W31523  32.402   0.412   2.772
66539W        W31524  17.225  44.553   4.007
66540W        W31525  39.354  25.089   2.304
66541W        W31526  18.598  29.193  14.721
66542W        W31527  25.900  17.262   0.367
66543W        W31528  24.188   3.453  12.603
66544W        W31529   7.696  31.540   1.678
66545W        W31530  35.508  28.004   0.196
66546W        W31531  23.550  14.068  14.057
66547W        W31532  12.704  24.972  13.535
66548W        W31533  21.999  26.707   0.908
66549W        W31534  30.528  16.258  13.568
66550W        W31535   2.201  39.668  12.899
66551W        W31536  40.918  14.586  12.495
66552W        W31537  30.231  10.525  12.922
66553W        W31538  35.613  38.946  11.654
66554W        W31539   7.214  39.515   3.708
66555W        W31540  28.566  30.512   1.959
66556W        W31541  28.964  42.189  12.431
66557W        W31542  16.560  32.017   3.322
66558W        W31543   8.564  35.443   1.589
66559W        W31544  42.611   9.918  13.289
66560W        W31545   2.794  18.682  12.938
66561W        W31546  27.150   8.211  12.101
66562W        W31547  32.913  15.260   0.750
66563W        W31548   8.388  27.462   2.673
66564W        W31549  15.137  26.576  13.923
66565W        W31550  13.231  25.944   2.888
66566W        W31551  16.392  24.962   4.778
66567W        W31552  38.031  39.911  12.503
66568W        W31553  29.851  41.219   3.578
66569W        W31554  42.246  21.556  13.639
66570W        W31555  30.936   1.606  10.095
66571W        W31556  15.027  41.715  12.492
66572W        W31557   4.619  35.378  11.103
66573W        W31558  24.945   7.922  13.173
66574W        W31559  36.345  15.645  14.955
66575W        W31560  41.260  23.148  12.233
66576W        W31561  29.609  40.283  13.382
66577W        W31562  26.467  33.081  10.721
66578W        W31563  42.519  16.655  14.305
66579W        W31564  23.766  14.413   0.936
66580W        W31565  13.606   4.002  13.562
66581W        W31566  37.022  12.388   1.247
66582W        W31567  13.825  13.254  12.915
66583W        W31568  40.298  14.585  13.070
66584W        W31569  34.857   1.578   1.528
66585W        W31570   4.474   7.825   4.322
66586W        W31571   9.273  16.029  13.772
66587W        W31572  28.938  34.787  10.831
66588W        W31573  42.231  20.644   0.490
66589W        W31574  30.014  21.727   0.972
66590W        W31575  37.950  22.679   4.820
66591W        W31576  37.084  38.302  10.681
66592W        W31577  10.781   8.089  14.242
66593W        W31578  30.867  29.030  13.891
66594W        W31579  24.844   3.344  13.029
66595W        W31580  12.235   2.451  13.776
66596W        W31581  11.277  35.582   3.515
66597W        W31582  25.197   4.950  13.352
66598W        W31583   9.751  25.783   1.412
66599W        W31584  22.466   0.835  14.073
66600W        W31585   2.800   4.826   0.334
66601W        W31586  27.563  33.885   2.222
66602W        W31587  33.596  32.400  14.874
66603W        W31588  29.481   1.983   1.304
66604W        W31589   8.859  19.060  10.766
66605W        W31590   0.490   9.176  13.372
66606W        W31591  11.322  29.791   4.884
66607W        W31592  32.463  23.481   1.390
66608W        W31593   0.739  14.879   0.994
66609W        W31594  10.075   1.658   3.745
66610W        W31595  42.403  18.301   1.798
66611W        W31596  21.998  29.829   4.604
66612W        W31597  40.210   7.701  13.901
66613W        W31598   3.854  13.510  11.006
66614W        W31599  37.578  42.475   3.745
66615W        W31600  40.058  24.291   4.834
66616W        W31601  37.807   8.520  14.313
66617W        W31602  18.407  19.667  14.503
66618W        W31603  27.199  39.658  13.374
66619W        W31604  22.575  21.641   1.900
66620W        W31605   1.290   3.674   4.208
66621W        W31606  38.515   6.227   0.560
66622W        W31607  31.930  21.019  11.033
66623W        W31608  39.495   5.876  14.760
66624W        W31609  21.087  28.490   1.141
66625W        W31610  29.134   1.482   3.298
66626W        W31611   3.610  16.840  14.967
66627W        W31612  15.804  21.569   1.766
66628W        W31613  19.370  16.866  13.010
66629W        W31614   1.064   7.656  13.452
66630W        W31615  31.382  36.927   1.334
66631W        W31616  41.415  31.679   4.636
66632W        W31617  32.676  17.717   0.906
66633W        W31618  33.501  16.404   2.115
66634W        W31619  39.094  42.854   0.481
66635W        W31620   5.078  32.043   2.169
66636W        W31621   6.745   2.064   2.824
66637W        W31622  21.070  44.029  13.635
66638W        W31623  34.908  29.899   3.138
66639W        W31624  15.720   1.210  12.108
66640W        W31625  28.059  37.037  14.815
66641W        W31626   0.259  13.652  13.190
66642W        W31627   8.764  27.929   1.506
66643W        W31628  16.565  41.466  12.121
66644W        W31629  17.767  27.623  12.824
66645W        W31630  19.511  20.123  13.449
66646W        W31631  24.163  15.278  14.327
66647W        W31632  25.044   6.922  12.879
66648W        W31633  10.229  28.843  14.492
66649W        W31634  43.686  34.674   4.169
66650W        W31635  17.991   8.606  13.366
66651W        W31636  19.345  27.153  10.211
66652W        W31637  28.657  27.964   3.633
66653W        W31638  23.743   8.092   4.596
66654W        W31639  13.653  39.000   1.439
66655W        W31640  24.256  34.940  13.819
66656W        W31641  26.822  21.287   3.256
66657W        W31642   0.425  24.166  12.929
66658W        W31643  38.819  34.072   0.713
66659W        W31644  18.453  37.563  12.475
66660W        W31645  44.512   0.917  14.730
66661W        W31646  10.781  26.921  13.847
66662W        W31647  44.576   9.715  11.153
66663W        W31648  31.424  22.103   3.386
66664W        W31649  10.018  32.843   5.072
66665W        W31650   6.723  24.060  13.391
66666W        W31651  11.827  14.931  12.603
66667W        W31652  27.184   7.901   4.290
66668W        W31653   5.252  24.723   2.630
66669W        W31654  20.427   0.295  14.278
66670W        W31655  13.692   9.133   2.737
66671W        W31656  23.728  11.621  14.785
66672W        W31657  11.698  12.433   3.035
66673W        W31658  11.797  25.241  13.410
66674W        W31659  10.794  30.933   0.867
66675W        W31660  23.137   2.589  11.233
66676W        W31661  42.768   4.449  13.528
66677W        W31662  29.277  32.015  12.341
66678W        W31663  14.366  24.447  14.568
66679W        W31664  41.826  42.911  11.435
66680W        W31665  27.871  38.362  13.107
66681W        W31666  33.153   5.968   3.127
66682W        W31667  32.778  21.545  12.226
66683W        W31668  43.519   6.320   3.784
66684W        W31669  44.859  11.903  11.968
66685W        W31670  37.998  44.747   4.107
66686W        W31671  16.886  22.171  12.026
66687W        W31672   3.482  42.378  13.461
66688W        W31673  27.942   5.559   4.897
66689W        W31674  15.936   7.844  12.518
66690W        W31675  42.360   0.810   2.423
66691W        W31676  41.912   3.419   2.405
66692W        W31677  18.639   5.493   2.216
66693W        W31678   4.184  21.091  11.564
66694W        W31679   0.512  39.380   3.922
66695W        W31680  40.749  22.631  11.683
66696W        W31681   2.249  18.151  13.444
66697W        W31682  10.826   2.449   1.676
66698W        W31683  19.206  28.938   2.350
66699W        W31684   7.797   6.061  12.548
66700W        W31685  27.590  26.929   2.806
66701W        W31686  42.770  27.693  12.621
66702W        W31687  41.072   2.282  11.591
66703W        W31688   3.636  10.614  13.625
66704W        W31689  10.758   3.259  11.495
66705W        W31690  42.294  36.544   0.720
66706W        W31691  30.388   5.294   4.861
66707W        W31692   5.755   7.679   2.421
66708W        W31693   8.405  40.925   2.299
66709W        W31694  41.921  43.107   1.923
66710W        W31695  23.996   4.671   9.853
66711W        W31696  16.100  28.562   1.836
66712W        W31697  38.871  25.948   0.721
66713W        W31698  43.490   1.730   2.233
66714W        W31699  42.938  30.376   2.300
66715W        W31700   4.390  15.348  11.076
66716W        W31701   5.323   8.776   4.540
66717W        W31702   0.011  38.052   1.761
66718W        W31703  11.316  11.776   4.129
66719W        W31704   1.757  38.772   3.717
66720W        W31705  26.593  19.026  14.283
66721W        W31706   9.936  42.901  13.883
66722W        W31707  31.085  43.065  13.069
66723W        W31708  23.086  29.516   3.252
66724W        W31709  15.852  24.624   3.665
66725W        W31710  11.284  12.964   1.907
66726W        W31711  14.072  35.469  11.670
66727W        W31712  38.601  29.074   2.768
66728W        W31713  21.305   5.428  14.808
66729W        W31714  41.272  26.194  11.198
66730W        W31715  37.519  11.333   0.518
66731W        W31716  28.208  44.966   1.178
66732W        W31717   4.071  12.822  13.897
66733W        W31718  33.609  11.927   2.978
66734W        W31719   0.809  22.493   9.525
66735W        W31720  14.180  33.454   3.831
66736W        W31721  12.387  35.488   2.823
66737W        W31722  16.985  41.832  11.671
66738W        W31723   5.495  19.815  11.955
66739W        W31724   2.925  12.615   0.503
66740W        W31725   8.974  17.726  11.578
66741W        W31726  31.735  17.503  14.831
66742W        W31727  14.897  43.737  10.746
66743W        W31728  24.350  29.507   1.222
66744W        W31729  38.686  28.680   4.516
66745W        W31730  14.469  22.253  14.965
66746W        W31731  36.845   8.054  12.077
66747W        W31732   3.109  37.561   4.099
66748W        W31733  41.203  19.284  14.389
66749W        W31734  26.673  35.773  10.731
66750W        W31735  24.118  36.329   4.781
66751W        W31736  33.182  11.287  14.562
66752W        W31737  42.603   5.564   0.037
66753W        W31738  18.338  25.025  10.444
66754W        W31739   8.827  19.004   0.530
66755W        W31740  27.036  27.465   3.083
66756W        W31741  17.486  22.749   1.190
66757W        W31742  29.634  31.555  14.312
66758W        W31743   6.340   6.175  13.338
66759W        W31744  28.397  20.265  10.664
66760W        W31745  32.347  12.641  13.573
66761W        W31746  44.514   5.919   1.205
66762W        W31747  19.130   1.039  13.283
66763W        W31748   0.341  36.018   4.158
66764W        W31749  35.835  22.448  13.822
66765W        W31750   2.771   5.132  13.507
66766W        W31751   8.590  19.492  11.721
66767W        W31752   8.921  23.974   0.278
66768W        W31753  41.373  37.336  11.314
66769W        W31754  44.330   5.839   3.620
66770W        W31755  35.564  31.470   1.600
66771W        W31756  21.980  36.904   2.710
66772W        W31757  38.623  26.724  12.863
66773W        W31758  35.840  26.994   0.940
66774W        W31759  24.078  23.956  11.262
66775W        W31760  37.146   0.530  14.473
66776W        W31761  40.826  20.752   0.095
66777W        W31762  40.135   3.841   2.811
66778W        W31763  20.622   3.003  10.717
66779W        W31764  33.924  17.993   4.512
66780W        W31765  17.056  19.628   1.907
66781W        W31766  30.439  24.964  14.952
66782W        W31767  17.950   1.573   4.612
66783W        W31768  44.875   1.908   1.968
66784W        W31769  33.843  25.425  10.636
66785W        W31770  31.886  11.968   1.774
66786W        W31771  39.281  16.521   3.182
66787W        W31772  22.306  28.603  14.302
66788W        W31773   0.364   1.851   2.164
66789W        W31774  43.731  32.223   4.062
66790W        W31775  22.015  44.008  13.454
66791W        W31776  15.611  35.310   1.886
66792W        W31777  37.381   5.715   4.532
66793W        W31778  19.737   6.423  14.003
66794W        W31779  10.601  17.162   2.287
66795W        W31780  14.542  17.483  14.362
66796W        W31781  33.369  42.869  13.750
66797W        W31782   8.501  33.088   0.277
66798W        W31783  42.321  33.985  14.846
66799W        W31784  40.828  33.361   9.737
66800W        W31785   9.314  16.100  12.914
66801W        W31786  20.729  25.116   1.450
66802W        W31787  15.342  42.860   0.280
66803W        W31788  35.380  43.221   3.180
66804W        W31789  17.852  23.500  12.044
66805W        W31790   9.237  20.031  11.974
66806W        W31791  11.155  14.619   2.508
66807W        W31792  31.471  40.675  12.074
66808W        W31793   3.011   7.462  13.944
66809W        W31794  38.837  40.584   1.885
66810W        W31795   1.040   5.244  12.433
66811W        W31796  12.769  29.648   2.199
66812W        W31797  22.752  24.701   0.646
66813W        W31798   9.499  25.502  12.050
66814W        W31799  20.081  26.838   1.708
66815W        W31800  11.630  40.544   2.199
66816W        W31801  15.255  41.581  10.582
66817W        W31802  33.637  31.982   1.824
66818W        W31803  30.653  23.076   4.848
66819W        W31804  34.967  27.366   0.277
66820W        W31805  15.067  19.764   2.239
66821W        W31806  34.346  40.331   1.838
66822W        W31807  16.437  10.705   0.899
66823W        W31808  11.586  25.402   3.129
66824W        W31809  28.996  23.598  10.676
66825W        W31810  32.444  10.790   2.279
66826W        W31811  16.111  34.096   3.051
66827W        W31812  36.399  41.413  10.926
66828W        W31813  13.270  28.073  11.660
66829W        W31814   6.423  30.616  13.922
66830W        W31815  19.708  12.406   3.844
66831W        W31816  41.353  29.326  10.706
66832W        W31817  35.457   3.937  14.967
66833W        W31818  32.712   5.239   3.071
66834W        W31819   2.951  32.953   4.270
66835W        W31820   2.710  18.699   0.744
66836W        W31821  44.350   7.384   0.721
66837W        W31822  28.396  28.652   2.150
66838W        W31823  30.387  37.453  13.062
66839W        W31824  28.267   2.946  12.018
66840W        W31825  20.485  42.371  11.616
66841W        W31826  15.326  10.450  13.387
66842W        W31827  35.155   1.292  10.774
66843W        W31828  10.398  30.579  14.044
66844W        W31829  36.446  28.186   4.593
66845W        W31830   8.103   8.241   1.838
66846W        W31831  12.256  24.641   2.470
66847W        W31832  27.446  32.234   4.314
66848W        W31833  13.763  40.121  13.455
66849W        W31834  34.812  34.615   1.801
66850W        W31835   4.146  24.758  11.143
66851W        W31836  36.262   4.623  14.430
66852W        W31837   0.614  24.714   2.775
66853W        W31838   9.361   1.800  11.304
66854W        W31839   1.851  21.593   0.228
66855W        W31840   6.424  20.760   4.680
66856W        W31841  33.680  35.434  12.700
66857W        W31842  32.203  37.050  14.209
66858W        W31843  11.257  21.623   3.770
66859W        W31844  17.195   4.283   1.870
66860W        W31845  18.258  23.759  14.710
66861W        W31846  40.724  20.791   4.089
66862W        W31847  32.430   1.339  12.061
66863W        W31848  31.383  22.286  11.464
66864W        W31849   2.533  22.966  13.526
66865W        W31850  27.555  21.072  11.202
66866W        W31851  34.216  27.164  12.010
66867W        W31852  11.774  39.482  11.168
66868W        W31853  25.289  29.723  11.219
66869W        W31854   1.153  36.783  10.506
66870W        W31855   9.166  17.748  12.877
66871W        W31856  17.621   1.916  12.390
66872W        W31857  28.561  28.829  13.719
66873W        W31858  22.138  20.452   4.098
66874W        W31859  26.799  25.664   4.531
66875W        W31860  14.353  27.117  13.794
66876W        W31861  10.753  28.915  13.811
66877W        W31862  42.242  13.746   9.628
66878W        W31863  17.542  24.058  11.208
66879W        W31864  19.338  19.618   3.111
66880W        W31865  27.527  42.911   1.374
66881W        W31866   3.802   0.576  12.947
66882W        W31867   6.917   7.300   1.743
66883W        W31868  44.023  16.043   3.660
66884W        W31869  17.292   0.940   1.209
66885W        W31870  18.795  37.911  12.033
66886W        W31871  36.542  19.928   4.209
66887W        W31872  38.775  18.981  13.271
66888W        W31873  33.207  43.569  12.801
66889W        W31874  41.959  26.451   2.451
66890W        W31875   1.747  28.957   0.828
66891W        W31876  32.923  21.138  11.459
66892W        W31877  38.493   4.881  10.555
66893W        W31878   6.176  25.789   1.159
66894W        W31879  13.277  35.494   3.415
66895W        W31880   5.488  14.779   1.724
66896W        W31881  24.329  37.447  12.560
66897W        W31882  41.789  26.362  11.304
66898W        W31883   4.309  37.718  14.160
66899W        W31884  39.888  30.446   0.023
66900W        W31885   6.398  26.803   0.291
66901W        W31886  30.937   7.066  11.212
66902W        W31887   7.924  19.039  11.221
66903W        W31888  41.377  14.968  13.496
66904W        W31889  41.962  33.541   0.465
66905W        W31890   3.508   8.163  13.721
66906W        W31891  17.518  14.757  12.473
66907W        W31892  28.046  23.457  10.908
66908W        W31893  29.523  28.834   2.722
66909W        W31894   3.217  36.231   4.560
66910W        W31895  18.858   8.841  10.700
66911W        W31896  30.886  37.992  11.574
66912W        W31897  37.594  38.481  11.906
66913W        W31898  43.384  32.954   0.315
66914W        W31899  43.984  41.957  13.741
66915W        W31900  10.175   8.386   3.245
66916W        W31901  23.583  17.745   4.379
66917W        W31902  36.595   1.854  13.836
66918W        W31903  27.059   7.213  11.728
66919W        W31904  44.377  44.255  13.557
66920W        W31905  15.158  24.213   2.176
66921W        W31906  31.168  10.968   2.533
66922W        W31907  36.302  44.732  13.081
66923W        W31908  40.410  11.361  13.689
66924W        W31909   8.613  42.932  13.964
66925W        W31910  34.257  17.164   1.520
66926W        W31911  12.959  26.931   0.764
66927W        W31912  28.676  36.360   2.746
66928W        W31913   3.005  38.374   4.759
66929W        W31914  30.555  23.019   3.842
66930W        W31915  12.536   0.717  13.369
66931W        W31916  20.979  11.704  14.433
66932W        W31917  27.021  18.287   2.276
66933W        W31918  16.780   5.844   4.499
66934W        W31919  37.798  24.525  10.866
66935W        W31920  43.897  37.148  14.382
66936W        W31921  34.383   7.359   1.726
66937W        W31922   1.155  29.157  12.541
66938W        W31923  37.261  12.244   2.828
66939W        W31924   0.398  42.591  12.051
66940W        W31925   1.379   6.360  12.130
66941W        W31926  27.444   1.838  12.346
66942W        W31927  20.160  22.172   3.901
66943W        W31928  40.796   3.897  14.382
66944W        W31929   4.279  30.253  10.378
66945W        W31930  14.917  33.071   1.464
66946W        W31931  10.410  41.808   2.745
66947W        W31932  34.875   6.461   0.424
66948W        W31933  32.460   0.237   1.150
66949W        W31934  22.242   5.538   1.728
66950W        W31935  18.544  24.467   2.817
66951W        W31936  25.690  10.756   1.908
66952W        W31937  31.055  15.628  10.400
66953W        W31938   7.661  33.110  11.027
66954W        W31939  16.426  29.896  14.843
66955W        W31940  44.244  12.383   1.361
66956W        W31941  30.590  43.969  11.495
66957W        W31942   3.678  25.684  13.072
66958W        W31943  21.825   4.263   4.069
66959W        W31944   8.695  17.589   0.361
66960W        W31945  20.713   7.370   0.025
66961W        W31946  35.659  37.918  12.948
66962W        W31947   4.740  21.068  14.973
66963W        W31948  12.876  10.758   3.237
66964W        W31949  34.506  43.090   3.150
66965W        W31950  40.813  10.595  11.241
66966W        W31951  34.654  31.436   3.708
66967W        W31952   8.766  22.638   1.719
66968W        W31953   2.881  24.160   1.982
66969W        W31954  32.854  42.393  13.762
66970W        W31955  15.623  27.439  14.024
66971W        W31956   4.421  33.445  13.451
66972W        W31957  32.173   3.998  12.800
66973W        W31958  28.508  42.224  13.224
66974W        W31959  34.681   4.828   1.894
66975W        W31960  23.867   5.858  11.786
66976W        W31961  11.676  40.223   4.123
66977W        W31962  21.218  34.943   3.114
66978W        W31963  37.172  15.808  13.918
66979W        W31964  11.881  23.297  10.631
66980W        W31965   0.835  20.715   0.731
66981W        W31966  31.507  25.540  12.298
66982W        W31967  28.525  11.836  12.060
66983W        W31968  28.706  18.539   2.863
66984W        W31969  39.710  16.604  11.179
66985W        W31970   9.496   9.668   4.203
66986W        W31971   6.610   2.042  11.759
66987W        W31972  32.683  44.876   0.364
66988W        W31973  27.920  22.734   3.694
66989W        W31974   8.706  32.138   2.742
66990W        W31975  18.554  10.841   0.910
66991W        W31976  29.103  42.362   4.580
66992W        W31977  24.689  17.056   3.794
66993W        W31978  27.639  17.111  12.530
66994W        W31979  10.313   5.415  10.025
66995W        W31980  27.235   7.698  14.864
66996W        W31981   2.352  20.576   4.122
66997W        W31982  41.511  32.719   0.982
66998W        W31983  34.848  38.050  12.391
66999W        W31984  29.557   0.582   3.699
67000W        W31985  11.277  14.182   3.770
67001W        W31986  35.129  16.754   2.786
67002W        W31987  18.210   7.902   3.267
67003W        W31988  20.984   4.476   4.029
67004W        W31989  12.278  31.845  12.101
67005W        W31990  42.855  39.683  14.507
67006W        W31991  16.036  29.910  14.531
67007W        W31992   4.441  30.035   1.436
67008W        W31993   0.728  37.682   2.076
67009W        W31994  30.131  11.868   4.717
67010W        W31995  19.295  44.259  14.750
67011W        W31996  28.450  16.350   2.189
67012W        W31997  34.644   1.860   0.305
67013W        W31998  33.328  23.314   4.755
67014W        W31999  25.068   8.104   2.645
67015W        W32000   7.859  27.055  14.241
67016W        W32001  35.901  42.488   4.378
67017W        W32002   4.202  26.753  14.840
67018W        W32003  19.536   2.591   0.308
67019W        W32004   9.220  24.269  14.265
67020W        W32005  29.531  29.895   9.861
67021W        W32006   6.987  11.661   2.709
67022W        W32007  41.579   6.453  12.588
67023W        W32008  31.394  42.586   1.869
67024W        W32009  44.994  20.778   0.283
67025W        W32010  19.606  38.580  14.049
67026W        W32011  15.249   6.303   2.877
67027W        W32012  31.827  39.895  10.772
67028W        W32013  22.280  15.273   2.442
67029W        W32014  40.475  22.564   1.427
67030W        W32015  19.241  39.451  11.945
67031W        W32016  22.906  33.626   2.721
67032W        W32017  30.968  30.201  14.468
67033W        W32018   8.851  12.986  13.816
67034W        W32019  43.728   5.762  12.541
67035W        W32020  33.819  11.770  10.646
67036W        W32021  14.666  18.655  11.868
67037W        W32022  18.200   2.270   3.640
67038W        W32023   2.419  29.508   0.770
67039W        W32024  36.604  26.011  12.965
67040W        W32025  28.027  43.897  13.871
67041W        W32026  25.465  38.049   4.934
67042W        W32027  34.579   4.215   1.123
67043W        W32028  32.543  27.577  11.360
67044W        W32029   8.429   8.619   1.776
67045W        W32030  27.946  36.981  12.001
67046W        W32031  18.718  34.002   3.935
67047W        W32032  12.154  12.869   2.186
67048W        W32033  32.990   8.754   2.766
67049W        W32034  42.853  14.736   3.210
67050W        W32035  39.613  44.229   4.713
67051W        W32036  14.740  10.388  14.930
67052W        W32037  31.132  31.659   4.732
67053W        W32038  39.922  23.912   4.472
67054W        W32039   0.982  34.090   3.058
67055W        W32040  41.780  22.111   5.447
67056W        W32041  18.260  21.142  10.793
67057W        W32042  42.854  22.097  13.776
67058W        W32043  39.779  39.288   1.262
67059W        W32044  30.437  21.218   2.357
67060W        W32045  44.952  40.620   2.878
67061W        W32046  30.246   8.234   1.010
67062W        W32047  26.795  32.209   0.897
67063W        W32048  25.974  42.998   4.059
67064W        W32049  21.025  22.239  11.234
67065W        W32050  20.782  39.487   2.280
67066W        W32051  26.667  10.204  11.392
67067W        W32052   3.787  43.393   2.552
67068W        W32053  42.035  38.447   2.830
67069W        W32054  11.655  22.561   2.759
67070W        W32055  33.552   9.931   4.230
67071W        W32056   7.812  11.346  12.099
67072W        W32057  40.887  42.583   2.875
67073W        W32058  30.231  13.349  13.407
67074W        W32059  26.128  13.261   2.905
67075W        W32060   9.896  40.582  10.756
67076W        W32061  36.793   6.476  13.448
67077W        W32062  29.940  17.652  11.965
67078W        W32063  33.502  33.335   0.699
67079W        W32064  10.862  14.093   2.797
67080W        W32065  15.805  23.449   3.816
67081W        W32066  18.038  36.052   2.735
67082W        W32067   3.947  15.074   3.053
67083W        W32068  40.407  41.900   1.631
67084W        W32069   1.015  43.655  14.149
67085W        W32070   6.754  37.480   0.789
67086W        W32071   7.708  33.459   0.007
67087W        W32072  40.122   0.446   0.838
67088W        W32073  44.986  14.777  14.382
67089W        W32074   5.405  23.138   1.633
67090W        W32075  38.735  33.031  14.490
67091W        W32076   9.314  29.772   4.671
67092W        W32077  10.727  33.766   1.131
67093W        W32078  35.943  41.243   3.378
67094W        W32079  10.446   0.805   4.804
67095W        W32080  37.608   1.278   0.762
67096W        W32081  38.537  33.042  10.548
67097W        W32082   1.328  31.690   4.553
67098W        W32083  30.891  38.038  10.727
67099W        W32084  29.497   6.551   3.751
67100W        W32085  13.162  29.907   3.925
67101W        W32086  24.437  27.300  14.147
67102W        W32087  40.799  39.344  12.073
67103W        W32088  13.368  23.193  14.794
67104W        W32089  34.629  41.266  11.958
67105W        W32090  22.229  38.878  10.528
67106W        W32091  18.088  26.596   2.539
67107W        W32092   4.128  21.545   0.815
67108W        W32093  34.282   9.212  14.531
67109W        W32094  28.966  12.071  13.125
67110W        W32095   5.973  23.414   1.479
67111W        W32096   1.998  31.765   4.154
67112W        W32097  20.058   1.763   2.365
67113W        W32098  42.602  43.232  13.455
67114W        W32099  16.804  33.625  12.974
67115W        W32100  27.679  29.333   3.646
67116W        W32101  39.786  21.483   3.224
67117W        W32102  19.218   7.008  10.330
67118W        W32103  31.370  40.434  11.645
67119W        W32104  20.145  20.718  13.313
67120W        W32105  38.356   3.438  12.451
67121W        W32106  23.971  35.160   4.123
67122W        W32107  34.463  18.739  10.644
67123W        W32108  16.209  41.955  10.969
67124W        W32109   2.368  23.146  12.070
67125W        W32110   1.357   8.487  11.624
67126W        W32111  40.993  38.747   3.135
67127W        W32112  12.678   7.829  11.663
67128W        W32113  32.143  42.984   2.126
67129W        W32114  24.202  38.736   2.246
67130W        W32115  19.369  22.727  11.149
67131W        W32116  30.096  31.641  11.207
67132W        W32117  24.071   8.673   4.063
67133W        W32118   0.340  11.477  14.419
67134W        W32119  13.339  44.999  11.618
67135W        W32120  29.743  15.628   0.234
67136W        W32121  44.393  43.177  13.001
67137W        W32122   9.273  21.084  11.874
67138W        W32123  41.434  35.457   0.977
67139W        W32124  23.776   0.419   2.800
67140W        W32125   6.153  27.030   4.260
67141W        W32126  34.515  34.184  11.132
67142W        W32127  29.805  12.882  13.515
67143W        W32128  24.493   0.942   1.849
67144W        W32129  16.354   3.736   4.490
67145W        W32130  31.895   4.755   3.706
67146W        W32131   4.198   0.369   3.786
67147W        W32132  27.408  35.439   1.704
67148W        W32133   7.994  35.165  11.540
67149W        W32134  18.699  27.478  10.591
67150W        W32135  28.443  29.411   3.337
67151W        W32136   3.716  44.036   0.493
67152W        W32137   5.133  35.542  13.052
67153W        W32138   4.358  19.061   4.486
67154W        W32139  39.943  16.797  12.311
67155W        W32140  11.887  23.027   2.646
67156W        W32141  24.631   4.964  12.416
67157W        W32142   2.706  22.777  10.573
67158W        W32143  34.904  29.735  11.176
67159W        W32144  39.455   0.233   2.740
67160W        W32145  18.556  25.895  14.070
67161W        W32146   5.072  39.367   4.048
67162W        W32147  21.851  17.039   0.989
67163W        W32148  30.443  39.749   4.740
67164W        W32149   0.398  20.969   2.395
67165W        W32150  13.871  40.446   0.148
67166W        W32151  38.842  43.557  14.511
67167W        W32152  12.860  33.617   2.155
67168W        W32153  41.358  12.922   4.065
67169W        W32154  42.224  12.635   0.784
67170W        W32155  23.544  27.225   1.853
67171W        W32156  40.858  26.524   5.391
67172W        W32157  18.290   2.290   1.209
67173W        W32158  34.301  38.591  14.910
67174W        W32159  35.587  36.704   2.209
67175W        W32160  12.354  18.575   0.489
67176W        W32161  42.012  44.982  11.857
67177W        W32162  12.858  43.541   2.195
67178W        W32163   4.329  18.803   1.404
67179W        W32164  29.435   6.604   4.516
67180W        W32165   8.583  28.547   4.605
67181W        W32166   0.774  40.446  10.810
67182W        W32167  37.868   6.783   4.568
67183W        W32168   0.252  33.514   1.762
67184W        W32169  14.766  17.460  13.349
67185W        W32170  18.963  22.669   0.359
67186W        W32171   6.174  31.621   1.337
67187W        W32172  37.063   1.016  13.301
67188W        W32173  38.178   0.597  14.394
67189W        W32174  24.974  29.442  12.125
67190W        W32175  36.259  43.522   2.340
67191W        W32176   3.499  12.995   4.597
67192W        W32177   3.385  26.679   3.835
67193W        W32178  16.182   8.753  12.463
67194W        W32179   1.090  13.653   1.813
67195W        W32180  44.162   3.441  13.544
67196W        W32181  18.639  37.600  10.702
67197W        W32182  20.641  36.616  13.033
67198W        W32183  35.587  39.488  10.846
67199W        W32184  23.115  43.248  14.224
67200W        W32185   9.848   1.662  11.194
67201W        W32186  19.116  17.581   4.087
67202W        W32187  12.830  34.802   1.273
67203W        W32188  43.345   0.299  14.541
67204W        W32189  12.302  18.342  14.511
67205W        W32190  28.772  40.668   2.353
67206W        W32191  43.108   1.499   1.757
67207W        W32192  15.046  17.647  11.631
67208W        W32193  22.613  10.169  10.511
67209W        W32194  39.828  35.360  13.819
67210W        W32195  36.664   5.135   4.560
67211W        W32196   4.919  29.059  11.570
67212W        W32197  30.485   8.782  13.471
67213W        W32198  19.479  41.755   0.775
67214W        W32199  26.634  42.047  11.238
67215W        W32200  42.896  21.841   4.986
67216W        W32201   8.794  33.069   3.707
67217W        W32202  12.386  23.047   2.760
67218W        W32203  41.985  25.443   0.233
67219W        W32204  21.685  43.363   3.876
67220W        W32205   9.097  12.633   1.649
67221W        W32206  17.049  33.839   4.133
67222W        W32207   7.790  26.405   0.484
67223W        W32208  23.246  25.420   3.347
67224W        W32209  25.530  20.601   2.781
67225W        W32210  37.817  25.502   1.714
67226W        W32211  11.751   5.939   3.650
67227W        W32212  28.946  26.155   0.566
67228W        W32213  35.000   0.468  10.366
67229W        W32214   5.158   3.356  13.524
67230W        W32215  44.829  40.109   3.086
67231W        W32216  24.958  28.974  12.784
67232W        W32217  41.490   3.648   1.609
67233W        W32218  15.386  29.634  14.274
67234W        W32219   0.529  43.733  12.370
67235W        W32220  34.429  14.126  14.335
67236W        W32221   1.629  42.308   2.078
67237W        W32222  36.549  17.850   0.988
67238W        W32223  34.991   0.733   4.581
67239W        W32224  18.903  34.214  12.846
67240W        W32225   0.783   0.382   0.774
67241W        W32226  37.934  20.509  14.403
67242W        W32227  35.274   3.379   0.793
67243W        W32228  33.894  37.394  13.700
67244W        W32229  41.970  26.027   2.733
67245W        W32230  30.639  29.165   1.850
67246W        W32231  37.340   2.212   0.806
67247W        W32232  44.987  32.367   3.486
67248W        W32233  21.153  34.924   4.158
67249W        W32234  34.342  27.029   2.158
67250W        W32235  38.819  12.451  14.476
67251W        W32236   2.216  19.236   2.754
67252W        W32237   9.307   9.628  10.947
67253W        W32238  34.921  15.338   1.429
67254W        W32239   7.559  22.607   3.182
67255W        W32240  19.981  31.642   4.382
67256W        W32241  21.600  29.956   4.904
67257W        W32242  14.785   6.896  11.616
67258W        W32243  44.629  32.196  11.541
67259W        W32244  15.205  29.232   2.982
67260W        W32245  34.180  32.559   1.207
67261W        W32246   3.947  37.430   1.056
67262W        W32247   3.937  20.725   1.257
67263W        W32248   2.886  41.479  14.781
67264W        W32249  22.196   1.530  14.349
67265W        W32250   6.935  37.805   3.340
67266W        W32251  40.769  13.740  14.010
67267W        W32252  25.024  27.160   3.080
67268W        W32253  29.962  25.666  12.961
67269W        W32254  31.052  12.880  12.034
67270W        W32255  29.151   2.626  13.862
67271W        W32256  18.040  42.017  13.449
67272W        W32257  32.985  42.241   1.868
67273W        W32258  23.241  34.971   0.403
67274W        W32259  22.240  31.388  12.934
67275W        W32260   6.017  31.459   0.744
67276W        W32261  22.441  33.552   0.491
67277W        W32262  30.925   6.927   4.537
67278W        W32263   1.976  29.557   3.152
67279W        W32264  17.692  20.064  13.109
67280W        W32265  25.492  23.946  11.888
67281W        W32266  23.289  36.541  10.658
67282W        W32267   8.923  30.016  11.918
67283W        W32268  13.847   0.359   2.740
67284W        W32269   5.147   0.237   3.692
67285W        W32270  40.826  36.125   2.774
67286W        W32271   6.121  19.531   1.326
67287W        W32272  21.356  29.690  12.376
67288W        W32273  17.565  29.069   1.368
67289W        W32274  40.594  32.544   3.188
67290W        W32275  25.179  18.314  11.973
67291W        W32276  40.331   0.061   3.285
67292W        W32277  28.413  37.271   1.349
67293W        W32278  41.355  28.022  10.417
67294W        W32279   0.580  34.439   1.982
67295W        W32280   1.867  11.049  12.716
67296W        W32281  23.267  40.177  12.282
67297W        W32282  31.991   6.816  14.483
67298W        W32283  34.152  12.590  12.475
67299W        W32284  43.750  19.134   2.263
67300W        W32285  34.330  15.655   3.625
67301W        W32286   9.359  40.929   0.858
67302W        W32287  20.164  37.577  13.391
67303W        W32288   8.656  24.107   4.129
67304W        W32289   7.894  17.027   2.842
67305W        W32290   1.313  10.786   0.788
67306W        W32291  39.806  12.334  14.220
67307W        W32292  36.376   6.270   2.504
67308W        W32293  15.492  28.876   2.665
67309W        W32294  20.715  42.801   1.314
67310W        W32295   8.858  29.424  10.764
67311W        W32296  13.863   9.251  13.389
67312W        W32297  19.005  12.495   2.199
67313W        W32298  26.755  43.904  13.401
67314W        W32299  43.320   4.757   4.097
67315W        W32300  35.057  26.061   3.740
67316W        W32301  31.380  32.070  14.525
67317W        W32302   5.314  14.602  12.114
67318W        W32303  38.531  31.119  14.115
67319W        W32304  31.621  22.909   1.809
67320W        W32305  27.441  36.095  12.053
67321W        W32306   9.710  33.817  12.155
67322W        W32307  39.865  16.783  13.792
67323W        W32308  37.326   5.242   3.404
67324W        W32309  12.386   1.416  13.963
67325W        W32310   3.104  29.856  14.042
67326W        W32311  25.889  11.376  11.156
67327W        W32312  15.642  35.360  12.364
67328W        W32313   2.864  17.135  11.433
67329W        W32314  12.855  27.699   2.391
67330W        W32315  39.389  40.499   1.364
67331W        W32316  15.816  43.960   9.881
67332W        W32317  15.585  20.931  10.392
67333W        W32318  27.346  25.106  11.176
67334W        W32319  44.032  19.699   3.383
67335W        W32320  42.196   9.749   1.830
67336W        W32321   1.916  18.025   1.764
67337W        W32322   9.672  22.016  12.588
67338W        W32323  21.174  26.346  13.838
67339W        W32324  22.710  11.589   0.524
67340W        W32325  21.038  29.033   4.661
67341W        W32326  24.705  39.901   1.497
67342W        W32327  23.663  36.104   4.629
67343W        W32328   0.021  37.402  13.884
67344W        W32329   1.901  18.058  12.916
67345W        W32330  39.070  38.191   4.414
67346W        W32331  14.845  21.547   2.226
67347W        W32332   6.120  12.750   0.443
67348W        W32333  40.943  28.150  11.196
67349W        W32334  22.497  25.617   3.736
67350W        W32335  21.555  38.330   3.705
67351W        W32336  36.516   0.275   1.782
67352W        W32337  27.037  14.587   2.653
67353W        W32338  27.938  12.214  12.424
67354W        W32339   1.538  26.168   2.804
67355W        W32340  18.575  25.422   2.717
67356W        W32341  31.774  24.780  12.213
67357W        W32342  21.088   7.287   1.229
67358W        W32343  27.251  29.354   0.599
67359W        W32344   5.748  37.432   4.548
67360W        W32345   5.884  20.589  14.081
67361W        W32346  23.492  35.415   3.578
67362W        W32347  16.117   0.740   1.369
67363W        W32348   0.367  11.634   1.263
67364W        W32349  40.652  32.830  12.494
67365W        W32350  43.621  33.512  13.459
67366W        W32351  10.551  30.643  10.663
67367W        W32352  14.829  42.385  13.666
67368W        W32353   5.269   2.450   1.795
67369W        W32354   0.288   7.162  14.853
67370W        W32355  15.528  26.786  11.637
67371W        W32356  27.041  22.329  12.055
67372W        W32357   9.715  42.507   2.818
67373W        W32358  23.672  44.404   3.956
67374W        W32359   0.796  32.895  13.891
67375W        W32360  15.798  22.551   2.182
67376W        W32361   7.953   6.916  14.433
67377W        W32362  43.790  30.482  10.728
67378W        W32363  19.112  26.987  12.385
67379W        W32364  22.391   4.272   1.872
67380W        W32365   1.554  43.421  14.085
67381W        W32366  18.068  27.195  13.011
67382W        W32367  35.564   8.718  13.362
67383W        W32368  17.633  37.085  10.129
67384W        W32369   0.894  14.270  11.229
67385W        W32370   6.764  39.363   4.618
67386W        W32371  12.103  26.267   4.291
67387W        W32372  40.980  32.752  11.624
67388W        W32373  13.820  11.859   3.992
67389W        W32374  21.622  35.380  12.376
67390W        W32375  11.323   4.294   3.181
67391W        W32376  18.256   3.510   4.572
67392W        W32377  20.185   6.428   1.906
67393W        W32378  25.527  13.414   2.578
67394W        W32379  14.988  37.446  12.912
67395W        W32380  21.498  19.080   1.928
67396W        W32381  14.151   4.809   3.734
67397W        W32382  21.955   4.418  12.654
67398W        W32383  10.142  44.217   4.237
67399W        W32384   0.401  17.152  13.355
67400W        W32385  38.951  29.126   3.823
67401W        W32386  37.153  10.865   2.858
67402W        W32387  16.618  32.147  14.432
67403W        W32388  31.471   3.824   0.645
67404W        W32389  14.384  26.217   3.716
67405W        W32390  24.138  39.323  11.662
67406W        W32391  12.044  37.869  13.146
67407W        W32392  28.201  26.438  11.554
67408W        W32393   3.787  16.810  13.343
67409W        W32394  18.787  15.905  14.824
67410W        W32395  35.073  33.810   2.187
67411W        W32396  40.400  44.943   0.900
67412W        W32397  44.280  10.919   4.232
67413W        W32398  26.541  15.845   3.684
67414W        W32399  28.170  14.401   2.413
67415W        W32400  41.527  24.196  11.791
67416W        W32401   3.019  34.003   0.491
67417W        W32402   4.156  43.335  10.711
67418W        W32403  18.754  14.760  13.055
67419W        W32404   8.219  39.474  13.184
67420W        W32405  11.328  17.691   2.866
67421W        W32406   3.202  39.879  12.061
67422W        W32407   6.813  10.359   0.679
67423W        W32408  14.529  32.535  10.690
67424W        W32409  43.561  14.338   3.797
67425W        W32410  33.471  22.860  10.702
67426W        W32411   8.286  33.510  12.158
67427W        W32412  30.508  25.184  13.950
67428W        W32413  23.011  23.494  13.881
67429W        W32414  10.608  22.745  10.733
67430W        W32415  35.225  17.787  13.299
67431W        W32416  17.768  34.945   2.303
67432W        W32417  39.817  30.662   3.312
67433W        W32418  32.217  36.885   1.832
67434W        W32419  26.944  20.861   2.778
67435W        W32420  41.735   4.257  11.567
67436W        W32421  11.828   7.824   2.393
67437W        W32422  25.707  29.487  10.543
67438W        W32423  29.014  15.248   0.446
67439W        W32424  24.327  28.035  12.602
67440W        W32425  15.010   2.810  13.821
67441W        W32426  24.810  40.376   0.837
67442W        W32427   5.238  31.278   1.189
67443W        W32428  24.321  29.568  11.044
67444W        W32429  30.646  17.508   1.221
67445W        W32430  26.586  40.555  13.997
67446W        W32431  41.266  43.118   4.298
67447W        W32432  29.380  16.004  12.093
67448W        W32433  16.719  31.696  11.512
67449W        W32434  21.110  36.913  14.840
67450W        W32435  21.462  23.549  12.547
67451W        W32436  38.241  28.709  12.540
67452W        W32437  22.135  27.637   2.432
67453W        W32438  23.533  19.778   2.708
67454W        W32439   0.361  15.739  12.785
67455W        W32440   0.305  35.361  14.244
67456W        W32441  44.357  12.773  11.630
67457W        W32442  15.459  14.137   0.088
67458W        W32443  32.563  31.161  14.461
67459W        W32444  24.174  41.163  13.325
67460W        W32445  14.097   6.186   5.207
67461W        W32446  35.185  38.897  11.405
67462W        W32447  13.653  39.511   2.802
67463W        W32448  18.099  32.608   2.757
67464W        W32449  24.462  14.312  13.927
67465W        W32450  34.794  21.621  14.082
67466W        W32451  36.924  19.349   4.217
67467W        W32452   9.786  26.907  11.955
67468W        W32453   3.292  22.975   4.977
67469W        W32454   8.247   3.520  11.105
67470W        W32455  14.062  34.030   2.841
67471W        W32456   2.252  35.274  11.501
67472W        W32457  29.589  20.111  11.411
67473W        W32458   7.077  10.422   2.270
67474W        W32459  12.857  40.395   4.821
67475W        W32460  33.946  11.683  11.587
67476W        W32461  12.584  38.952  13.285
67477W        W32462  39.172  25.501   1.399
67478W        W32463  14.811   5.359  12.905
67479W        W32464  42.692  33.841   4.705
67480W        W32465  34.077  42.490   2.286
67481W        W32466   1.172  26.219   4.076
67482W        W32467  18.496   1.783   1.896
67483W        W32468   6.627  37.371   2.161
67484W        W32469   2.779   9.144   0.340
67485W        W32470  39.980   5.397   0.422
67486W        W32471  20.316   6.727  11.110
67487W        W32472  29.413  39.646   3.938
67488W        W32473   9.755   5.499   3.898
67489W        W32474  14.985  44.561   0.641
67490W        W32475  16.813  12.491   2.884
67491W        W32476  14.122  19.715  11.484
67492W        W32477  37.982  10.832  11.132
67493W        W32478  31.321  39.290  13.288
67494W        W32479   6.160  37.413   2.379
67495W        W32480  38.742  34.009   3.109
67496W        W32481  20.794  17.680  13.120
67497W        W32482  34.021   5.003   3.294
67498W        W32483  35.843  44.632   9.821
67499W        W32484   5.882  34.895   5.102
67500W        W32485   2.720  17.224   4.316
67501W        W32486  25.057  24.606  14.326
67502W        W32487  19.709  12.800  13.662
67503W        W32488  17.778  15.953  13.498
67504W        W32489   6.106  21.246   1.706
67505W        W32490  12.207  40.124   0.231
67506W        W32491  33.773  11.375  11.172
67507W        W32492  39.486  29.121  12.071
67508W        W32493  37.368  18.077   2.553
67509W        W32494  16.220  22.431  12.481
67510W        W32495  23.231  23.431  12.963
67511W        W32496   4.230   6.931  14.374
67512W        W32497  12.654  41.350   2.186
67513W        W32498   1.707  43.805   2.893
67514W        W32499  17.216  31.844   2.019
67515W        W32500  21.716  38.794   2.784
67516W        W32501  40.460   3.783  13.475
67517W        W32502  21.617  30.975   1.553
67518W        W32503  31.722   6.696   3.368
67519W        W32504   6.177  33.571  10.348
67520W        W32505  11.943  41.599   3.413
67521W        W32506  24.656  31.351   1.772
67522W        W32507   0.967   6.923   0.334
67523W        W32508  38.793   9.627  12.805
67524W        W32509  26.098   9.241  13.550
67525W        W32510  24.405   4.469  12.366
67526W        W32511   1.570  10.564  12.621
67527W        W32512   9.142  34.805   1.860
67528W        W32513  13.827  17.565   3.716
67529W        W32514   8.913  36.058   2.889
67530W        W32515  28.832  33.307  11.680
67531W        W32516  14.260  10.945  13.006
67532W        W32517  17.274  44.860   4.578
67533W        W32518  29.604  40.456   1.674
67534W        W32519  18.607  32.689   0.432
67535W        W32520   5.276  34.522  13.257
67536W        W32521  26.031  37.265   3.596
67537W        W32522  40.553  16.802  13.908
67538W        W32523  35.163  10.748   0.500
67539W        W32524   4.473  16.887   4.243
67540W        W32525  20.610   5.834   4.575
67541W        W32526  38.437  28.222  12.497
67542W        W32527  43.281  43.950   4.375
67543W        W32528  36.699   5.328  11.136
67544W        W32529  34.901  17.779   2.725
67545W        W32530   2.108  28.051  13.975
67546W        W32531  39.396  18.888  10.678
67547W        W32532  10.548  39.657  11.796
67548W        W32533  13.615  21.695  11.998
67549W        W32534  26.457  19.058   4.160
67550W        W32535  30.908   0.382   1.687
67551W        W32536  14.173   5.267  11.190
67552W        W32537  12.007  11.278  10.382
67553W        W32538  26.283  40.069  12.314
67554W        W32539   5.424   4.952   1.779
67555W        W32540  11.317  39.259   3.255
67556W        W32541  30.804  30.284   0.296
67557W        W32542  32.033  44.926  13.112
67558W        W32543  29.731   1.150   0.997
67559W        W32544   8.729  19.310   0.950
67560W        W32545  17.085  12.557   1.862
67561W        W32546  32.423  20.015  12.959
67562W        W32547  14.166  16.754   1.946
67563W        W32548  30.178  34.168   1.536
67564W        W32549  38.517  16.682   0.281
67565W        W32550  40.681  30.974  11.114
67566W        W32551   4.614  13.480  14.088
67567W        W32552  43.479  17.822  12.019
67568W        W32553  31.349  31.539   3.806
67569W        W32554  27.470  26.576  13.765
67570W        W32555  44.320   7.452  10.817
67571W        W32556  33.668  30.912  13.451
67572W        W32557  34.893  14.219  14.848
67573W        W32558   8.190  16.542  13.709
67574W        W32559  34.567  15.355  14.792
67575W        W32560   0.947  23.962   0.854
67576W        W32561  38.201  27.152  11.376
67577W        W32562  34.446   6.292  10.486
67578W        W32563  32.753  27.456  14.083
67579W        W32564  21.993   8.216   0.894
67580W        W32565  37.765  20.398  13.465
67581W        W32566   5.829  22.019  13.395
67582W        W32567  10.238  33.178  13.560
67583W        W32568  24.544  24.681  11.628
67584W        W32569  42.749  37.076  13.358
67585W        W32570  29.674  20.510   4.407
67586W        W32571  19.993  36.564  14.926
67587W        W32572  39.535  11.676  11.106
67588W        W32573  39.224  10.255  12.532
67589W        W32574  36.075  17.327   0.367
67590W        W32575  29.441  14.155   3.654
67591W        W32576  44.557  33.940   1.493
67592W        W32577  18.613  44.926  11.874
67593W        W32578   9.201  22.160   2.318
67594W        W32579  14.193  13.679   3.712
67595W        W32580   0.784   7.499  13.044
67596W        W32581  25.712  41.536   0.859
67597W        W32582  15.860  13.909   3.150
67598W        W32583  23.159  32.144  14.521
67599W        W32584  44.462  24.207  12.868
67600W        W32585   0.908  21.077  13.643
67601W        W32586  18.648  32.407  13.005
67602W        W32587  33.026  11.145  11.551
67603W        W32588  28.906  43.096  14.129
67604W        W32589  21.872  16.034   1.871
67605W        W32590   1.250  25.998  10.580
67606W        W32591  20.549  40.951  13.467
67607W        W32592  39.075   2.252  14.267
67608W        W32593  19.442  16.493   2.696
67609W        W32594  11.043  30.929  14.529
67610W        W32595  43.317  43.466  12.056
67611W        W32596  18.240   4.159  12.928
67612W        W32597  29.085  24.245   0.353
67613W        W32598  37.496  43.521  13.803
67614W        W32599  16.158  10.592  12.943
67615W        W32600   2.289  22.063  14.006
67616W        W32601  41.946  15.741  12.555
67617W        W32602  25.535  43.796   1.691
67618W        W32603  27.160  23.024  13.372
67619W        W32604  20.703  43.836   0.215
67620W        W32605   8.759  32.565   3.661
67621W        W32606  16.618   9.136  13.536
67622W        W32607   6.290  25.899  11.696
67623W        W32608   1.569   7.827  14.824
67624W        W32609  10.805  18.489   2.269
67625W        W32610  18.503  30.723  11.448
67626W        W32611  29.938  34.013   4.809
67627W        W32612  23.713  21.897  13.314
67628W        W32613  11.396  24.686  14.773
67629W        W32614  11.975   0.044  13.488
67630W        W32615   4.174   8.552   1.191
67631W        W32616  34.458  34.541  13.811
67632W        W32617  11.631  11.943   2.923
67633W        W32618  17.557  39.103   4.607
67634W        W32619  29.201  32.127   1.332
67635W        W32620  13.532  42.744   2.334
67636W        W32621  24.135  36.410   2.543
67637W        W32622  32.890  43.526  10.429
67638W        W32623  43.182  15.866   2.200
67639W        W32624  37.114  41.500   0.381
67640W        W32625  31.124   8.231   9.902
67641W        W32626   4.131   5.644   4.557
67642W        W32627  44.424   0.895   2.863
67643W        W32628  31.389  28.142   3.228
67644W        W32629  24.466  29.973  12.130
67645W        W32630  30.494  25.976  11.931
67646W        W32631   2.101  27.896   4.244
67647W        W32632  28.194  37.465  12.166
67648W        W32633   9.757  39.163   1.697
67649W        W32634   5.328  42.048  13.999
67650W        W32635  43.835  33.451  14.510
67651W        W32636   9.807  38.117   1.679
67652W        W32637  41.055  14.761   4.270
67653W        W32638  27.853   0.701  10.870
67654W        W32639   7.172  30.689   0.327
67655W        W32640  26.220   8.031  11.196
67656W        W32641   7.650   2.172   4.279
67657W        W32642  24.764  32.125   3.756
67658W        W32643  23.464  39.367  13.384
67659W        W32644  20.582  20.361  12.630
67660W        W32645  11.714  20.461  14.917
67661W        W32646   5.258  15.741   3.355
67662W        W32647  39.504  30.789   3.691
67663W        W32648  25.837  23.102  11.279
67664W        W32649  14.885  18.731   1.701
67665W        W32650  13.870  14.123  14.183
67666W        W32651  17.660   3.417   0.431
67667W        W32652  43.837  27.554   2.209
67668W        W32653  39.559   5.499   1.780
67669W        W32654   7.185  21.646  13.427
67670W        W32655  12.260  37.634  12.280
67671W        W32656   3.956  25.315   1.096
67672W        W32657  39.010  23.127  12.576
67673W        W32658  10.039  40.104   1.798
67674W        W32659  22.839  25.550   0.304
67675W        W32660  30.481  21.232   1.023
67676W        W32661  28.574  31.440   0.458
67677W        W32662  31.048   4.655   0.434
67678W        W32663  43.598   1.701   3.313
67679W        W32664   9.655  39.652   3.148
67680W        W32665   7.867  39.076  13.839
67681W        W32666  42.248  16.964   3.736
67682W        W32667  14.687   4.133   2.300
67683W        W32668  11.775  36.146  12.147
67684W        W32669  43.280  23.944   0.736
67685W        W32670  23.218  43.353   2.141
67686W        W32671  32.947  19.945   4.552
67687W        W32672  25.631  13.021   1.643
67688W        W32673  28.262  37.503   0.918
67689W        W32674  19.039  43.711   4.453
67690W        W32675  31.347  38.595   2.674
67691W        W32676  29.971  19.291  10.637
67692W        W32677  13.285  13.706   0.734
67693W        W32678  34.157  11.181   1.851
67694W        W32679  19.792  33.349   5.136
67695W        W32680  13.856  18.686   1.395
67696W        W32681  34.011  28.521  11.588
67697W        W32682   8.367  37.926   2.490
67698W        W32683  19.198  33.480  12.002
67699W        W32684   9.836  40.570   1.742
67700W        W32685  44.234  23.945  12.459
67701W        W32686   1.447  34.741  11.632
67702W        W32687  27.634  11.739  12.548
67703W        W32688  37.072  17.220  14.920
67704W        W32689  29.275   0.954   1.117
67705W        W32690  20.254  12.301   3.718
67706W        W32691  26.998  19.523   1.683
67707W        W32692  38.023  36.026  12.823
67708W        W32693  21.142   1.341   4.641
67709W        W32694   9.535  15.120  14.087
67710W        W32695   8.853  16.560  14.889
67711W        W32696  40.040   4.122   0.709
67712W        W32697   5.573  40.807   2.833
67713W        W32698  30.104   0.646   0.220
67714W        W32699   5.311  31.852  12.800
67715W        W32700  30.206  22.737  13.376
67716W        W32701   4.267  32.764   1.188
67717W        W32702  11.100   2.221  10.439
67718W        W32703  32.340   5.771   4.083
67719W        W32704   8.411  38.494  14.402
67720W        W32705  20.065   7.795   2.778
67721W        W32706  33.637  39.846   4.525
67722W        W32707  39.997   6.749  10.822
67723W        W32708  26.070  41.040  12.480
67724W        W32709  17.088  11.219  12.177
67725W        W32710  37.069  19.867   4.250
67726W        W32711  30.188  13.368  12.417
67727W        W32712  20.128   7.313  10.191
67728W        W32713   1.533   5.441   0.465
67729W        W32714   9.912  18.739   4.814
67730W        W32715  20.044   6.675  12.517
67731W        W32716  14.337   1.406   4.252
67732W        W32717  10.347  42.798   2.901
67733W        W32718   4.932  37.856   3.759
67734W        W32719   1.953  25.901  11.204
67735W        W32720  28.808  22.260   2.852
67736W        W32721  26.445  12.000   0.434
67737W        W32722  16.594   8.334  12.075
67738W        W32723  21.531   5.084   1.265
67739W        W32724  20.512  19.798  12.610
67740W        W32725  13.792  41.853   1.505
67741W        W32726  38.460   5.204   3.154
67742W        W32727  14.262  28.547  13.767
67743W        W32728  35.064  39.958  14.818
67744W        W32729  36.831  25.084  14.039
67745W        W32730  21.054  22.581   4.458
67746W        W32731  15.568  25.136  11.080
67747W        W32732   7.655  15.663  12.585
67748W        W32733  32.070  39.557   3.619
67749W        W32734  19.578   3.962  12.927
67750W        W32735  37.900   3.293   4.088
67751W        W32736  12.843   8.097  11.248
67752W        W32737  25.440  17.365  11.126
67753W        W32738  41.401  34.292  14.274
67754W        W32739  43.975  24.891  12.798
67755W        W32740  30.873  12.370  11.218
67756W        W32741  44.474  13.196  13.147
67757W        W32742   2.845   4.335  11.696
67758W        W32743  43.615  22.300   0.457
67759W        W32744  21.509  23.187  10.999
67760W        W32745   6.952  15.335  14.722
67761W        W32746  40.908   8.367   1.378
67762W        W32747  18.794   5.824   3.139
67763W        W32748  18.182  33.911  14.310
67764W        W32749  25.720  15.507  13.074
67765W        W32750  32.194  31.221  13.093
67766W        W32751  26.520  11.491   4.220
67767W        W32752  23.690  15.746  13.576
67768W        W32753  20.231  30.170   2.188
67769W        W32754  33.957  22.584  13.114
67770W        W32755  11.339  34.360  13.482
67771W        W32756  30.836  40.397   2.876
67772W        W32757  25.957   7.474   4.575
67773W        W32758  26.232  11.744  10.920
67774W        W32759  41.874  19.973  10.296
67775W        W32760  16.135  44.464  13.452
67776W        W32761   7.695  25.400   4.611
67777W        W32762  37.555  15.172  12.075
67778W        W32763   5.167  15.307   2.803
67779W        W32764   2.345  19.711  13.497
67780W        W32765  39.264  28.611  13.909
67781W        W32766  18.604   6.777   0.651
67782W        W32767  42.465  37.566  14.351
67783W        W32768  17.672   1.076  10.769
67784W        W32769   8.453  26.684   1.312
67785W        W32770   5.969   7.340  13.544
67786W        W32771  11.066  23.029  13.419
67787W        W32772  16.529  26.606   4.751
67788W        W32773  20.827  44.525  10.954
67789W        W32774  15.819   9.789   4.651
67790W        W32775  30.894  17.365  12.771
67791W        W32776  36.178  29.434   4.314
67792W        W32777  14.310   4.677  12.916
67793W        W32778  44.191  33.447  14.884
67794W        W32779  39.356  23.090  13.433
67795W        W32780  19.287  33.161  11.584
67796W        W32781  44.611   2.168  10.221
67797W        W32782  16.674   6.497  12.482
67798W        W32783  32.532  40.420   4.894
67799W        W32784  22.694  43.233   4.550
67800W        W32785  32.487  13.214  10.972
67801W        W32786  36.985  44.333  14.444
67802W        W32787  10.634  31.395  13.084
67803W        W32788  29.785   7.173  14.146
67804W        W32789  20.528  30.547  11.010
67805W        W32790  14.825  13.576  13.689
67806W        W32791  23.435   3.456  11.476
67807W        W32792  42.277  20.975   0.048
67808W        W32793  23.129  15.291  14.546
67809W        W32794  33.811  44.305   0.832
67810W        W32795  28.543  43.652   0.777
67811W        W32796  41.032  19.993   1.301
67812W        W32797   2.459  23.200   0.009
67813W        W32798  24.796   7.458   3.185
67814W        W32799   4.052  38.430   2.356
67815W        W32800  21.633   2.869  10.994
67816W        W32801  42.942  42.005   2.220
67817W        W32802  37.689  37.486  11.725
67818W        W32803  43.453  15.073   4.264
67819W        W32804  40.387   7.302   4.655
67820W        W32805   8.782  36.860   2.286
67821W        W32806  37.573  23.162  14.284
67822W        W32807   1.397  10.986  14.895
67823W        W32808  28.287  21.771   1.764
67824W        W32809  18.088  43.743  12.591
67825W        W32810   6.645  33.358  10.567
67826W        W32811  10.840  22.567  13.466
67827W        W32812  41.205   3.357  14.425
67828W        W32813  37.557  40.994   2.864
67829W        W32814   2.472  39.096  11.865
67830W        W32815  36.694  43.657   2.778
67831W        W32816  10.188  30.188   1.270
67832W        W32817   1.396  35.881  10.585
67833W        W32818  11.102  31.958   9.979
67834W        W32819  27.236  12.807  10.767
67835W        W32820   7.743  24.494   3.334
67836W        W32821   8.764  14.226  13.302
67837W        W32822  25.067   3.830  13.396
67838W        W32823  44.885  27.211  12.792
67839W        W32824  33.083  34.141  10.733
67840W        W32825  40.851  14.796  14.732
67841W        W32826   0.372  26.492   1.149
67842W        W32827  32.448   6.280  11.505
67843W        W32828  44.386  21.120  12.453
67844W        W32829  12.856  43.719  12.315
67845W        W32830  18.173  41.806  14.622
67846W        W32831  27.045   0.427   1.781
67847W        W32832  35.628  34.926   2.687
67848W        W32833   5.370  10.209   4.028
67849W        W32834  30.068  43.220  14.790
67850W        W32835  36.677   4.352   2.736
67851W        W32836  16.316  22.864   2.814
67852W        W32837  41.342   9.261   4.405
67853W        W32838  26.172   4.980   4.180
67854W        W32839   9.553   0.427  14.337
67855W        W32840  19.551  17.631   1.273
67856W        W32841   5.209  10.097   1.098
67857W        W32842  21.159   6.273  14.435
67858W        W32843  15.642  11.383  12.078
67859W        W32844  19.398  23.428   3.235
67860W        W32845  21.796  17.242   4.315
67861W        W32846  10.487  26.035   2.065
67862W        W32847  37.557  31.399  11.439
67863W        W32848  40.006   3.766  13.258
67864W        W32849  34.145   7.883   0.253
67865W        W32850  10.727  15.860   0.527
67866W        W32851  25.630  14.292  10.872
67867W        W32852  29.215  44.590   0.418
67868W        W32853  42.006   0.664   4.112
67869W        W32854  44.012  40.651   2.738
67870W        W32855   2.207  38.807  12.810
67871W        W32856  34.301  27.239  14.474
67872W        W32857   0.443   9.166   2.335
67873W        W32858  40.354  18.332  11.337
67874W        W32859  37.813  25.044  13.900
67875W        W32860  19.672   1.339   4.984
67876W        W32861  41.584   8.154  12.929
67877W        W32862   2.275  40.074  13.797
67878W        W32863  18.846  27.712  11.863
67879W        W32864  10.626  15.709   1.912
67880W        W32865  33.929   0.862   0.850
67881W        W32866  20.697  17.166   3.108
67882W        W32867  35.936  36.111   3.023
67883W        W32868  22.670  29.901   4.447
67884W        W32869  38.629   0.373  14.479
67885W        W32870  34.445  22.057   2.355
67886W        W32871   2.781  26.013   0.957
67887W        W32872  42.000  18.274   0.618
67888W        W32873  19.834  32.918   4.825
67889W        W32874   5.841   4.852   0.921
67890W        W32875   0.232   9.704   2.977
67891W        W32876  44.830  36.463   3.684
67892W        W32877  33.821  19.167   2.240
67893W        W32878  21.695  13.272  14.337
67894W        W32879  33.739  31.162   4.716
67895W        W32880  16.849  38.027  13.894
67896W        W32881  24.552  27.890   2.706
67897W        W32882   7.690   3.456   3.019
67898W        W32883   1.853  25.471   1.917
67899W        W32884  19.486   8.749  13.104
67900W        W32885  34.416  19.700   3.690
67901W        W32886  30.931   6.750   3.527
67902W        W32887   7.708  41.110  12.014
67903W        W32888   7.959   2.305   4.690
67904W        W32889  13.359  33.752  14.910
67905W        W32890  14.602  26.605  11.732
67906W        W32891  32.982  25.386  10.555
67907W        W32892  16.621  32.457  12.513
67908W        W32893   6.440   8.709  13.227
67909W        W32894  39.810  22.815   4.178
67910W        W32895   8.247  12.118  14.773
67911W        W32896  40.908  36.572  13.887
67912W        W32897  25.947  40.495  13.005
67913W        W32898  27.138  38.820  14.783
67914W        W32899  24.239   2.382   0.203
67915W        W32900  27.656  27.142   4.148
67916W        W32901   1.237   3.960  10.784
67917W        W32902  16.347  20.728  10.576
67918W        W32903  43.814   0.998  14.285
67919W        W32904  44.742   3.934  13.202
67920W        W32905  32.110   6.258   4.020
67921W        W32906  13.162  23.441  13.954
67922W        W32907  15.822  22.767   3.058
67923W        W32908  34.852  26.258   4.188
67924W        W32909   5.710  42.175   3.810
67925W        W32910  29.284  38.407  14.367
67926W        W32911  11.379  35.779  11.264
67927W        W32912   6.929   9.767  12.487
67928W        W32913  36.258  32.906   0.463
67929W        W32914  22.734  20.783  11.635
67930W        W32915  12.112  18.567   4.238
67931W        W32916  34.403  15.508   1.305
67932W        W32917  17.764  17.578  10.956
67933W        W32918  14.240  13.336   1.676
67934W        W32919  23.108   0.961   4.046
67935W        W32920  28.753  32.535  13.945
67936W        W32921  23.551   2.933  11.425
67937W        W32922  12.896  44.352  10.608
67938W        W32923  11.381  21.828  12.892
67939W        W32924  30.030  38.330  11.627
67940W        W32925  11.123   1.428  12.399
67941W        W32926  44.471  18.038   4.470
67942W        W32927   6.911  12.497  13.193
67943W        W32928  41.798  29.628  11.505
67944W        W32929   2.056  17.748   2.818
67945W        W32930  39.041  44.207   0.315
67946W        W32931   4.016  44.872   2.906
67947W        W32932  17.111  29.901   3.403
67948W        W32933  31.396  26.156  11.603
67949W        W32934  24.504  18.206  10.504
67950W        W32935  36.814  33.705  14.882
67951W        W32936  42.201  43.291   1.276
67952W        W32937  31.069  38.987   1.230
67953W        W32938  15.594  20.183   3.984
67954W        W32939  30.093  10.280   0.444
67955W        W32940  18.946  36.576  11.617
67956W        W32941  37.963  44.091  12.609
67957W        W32942  38.907   0.954  10.548
67958W        W32943  21.802  40.262   0.786
67959W        W32944  14.295  31.025   0.165
67960W        W32945  11.223  43.311   4.615
67961W        W32946   5.167   2.764  12.500
67962W        W32947  23.547  11.592  11.662
67963W        W32948  17.754  44.191   2.535
67964W        W32949   1.869  30.342  12.566
67965W        W32950  30.502   0.059   0.794
67966W        W32951   9.303  10.673   2.658
67967W        W32952  31.886  36.014   2.173
67968W        W32953  42.720  41.507  14.433
67969W        W32954  21.225  34.558   2.364
67970W        W32955   9.228  22.783   3.623
67971W        W32956  16.777  43.720  12.159
67972W        W32957   0.940  17.725  14.772
67973W        W32958  32.230  27.059   1.271
67974W        W32959  16.726  39.593   3.877
67975W        W32960  33.512  17.889  12.200
67976W        W32961  44.921  16.053   3.742
67977W        W32962  41.982  42.269   2.356
67978W        W32963   2.442  34.410   9.892
67979W        W32964  22.295  18.346   4.154
67980W        W32965  11.383  25.919  10.638
67981W        W32966  37.431   0.119  14.324
67982W        W32967  27.926  13.712   4.032
67983W        W32968  11.379   8.395  12.901
67984W        W32969  16.222  37.626   0.813
67985W        W32970  31.798  42.801  14.493
67986W        W32971  28.882  37.044   4.590
67987W        W32972  30.480  32.565   3.415
67988W        W32973  11.204  24.523  14.336
67989W        W32974  40.726   4.792  13.800
67990W        W32975   0.016  41.328   1.437
67991W        W32976  11.384  20.485  14.400
67992W        W32977   7.147   1.501  14.068
67993W        W32978  26.202  10.306   0.786
67994W        W32979  24.452  31.685   0.291
67995W        W32980  24.938  41.713  11.802
67996W        W32981  21.511  26.384   2.322
67997W        W32982  24.429  41.964   4.038
67998W        W32983   6.334  22.488  13.555
67999W        W32984  27.364  41.456   2.351
68000W        W32985  40.792  14.661   4.737
68001W        W32986  22.747  13.550   3.588
68002W        W32987  36.559  16.609   1.531
68003W        W32988  42.283  18.105   1.341
68004W        W32989  36.018  28.500  13.273
68005W        W32990  33.332   6.372  13.538
68006W        W32991  43.003  34.606   3.654
68007W        W32992  40.918   8.273   3.695
68008W        W32993   1.375  41.705   2.719
68009W        W32994   2.506  11.083  11.517
68010W        W32995  14.897  38.139   4.766
68011W        W32996   0.316  33.023   1.938
68012W        W32997  18.111  36.604   0.361
68013W        W32998  16.529  13.453  11.140
68014W        W32999  19.672  26.432   0.880
68015W        W33000  33.157  38.065   3.362
68016W        W33001  25.019   9.906   1.073
68017W        W33002  24.219   3.961  12.354
68018W        W33003  12.747  31.033   1.417
68019W        W33004  23.064  26.624  14.792
68020W        W33005  23.999  40.165  13.045
68021W        W33006  32.496  33.903   3.873
68022W        W33007  15.669  25.648  11.523
68023W        W33008   9.316  11.132  12.278
68024W        W33009  36.423  14.594   1.871
68025W        W33010  15.370  25.754  12.659
68026W        W33011   2.711  20.517  12.397
68027W        W33012   3.594  28.062   4.435
68028W        W33013   8.213  20.537   1.379
68029W        W33014  17.212  11.592  14.029
68030W        W33015  32.045  42.502  11.914
68031W        W33016  27.122   2.576   2.975
68032W        W33017   8.039  28.205  10.117
68033W        W33018  28.389  14.900  11.490
68034W        W33019  36.456  20.419   2.610
68035W        W33020  30.683  20.797  12.786
68036W        W33021  11.597  33.208   3.630
68037W        W33022  13.199   8.107   3.295
68038W        W33023  15.306  40.046  10.618
68039W        W33024  34.946  18.477   1.336
68040W        W33025  32.549  34.156  13.796
68041W        W33026  41.112  16.339  13.965
68042W        W33027  44.531   0.392   2.895
68043W        W33028  35.960  41.481  14.334
68044W        W33029  23.958   5.798  12.920
68045W        W33030  40.922  10.124   0.396
68046W        W33031  40.289  10.995  10.173
68047W        W33032  38.785  41.603  13.524
68048W        W33033  40.952  17.175  13.362
68049W        W33034  18.861  27.214   4.608
68050W        W33035   0.811  22.607   3.812
68051W        W33036  16.327  12.807   1.401
68052W        W33037  13.659  43.495   3.632
68053W        W33038  23.781   6.760  12.743
68054W        W33039  40.632  35.194   1.854
68055W        W33040   7.949  21.501   1.756
68056W        W33041  29.083  10.745  11.734
68057W        W33042  23.894   7.644  13.873
68058W        W33043   8.341  10.900   2.296
68059W        W33044   3.939  12.533  10.189
68060W        W33045   8.832   8.730  12.921
68061W        W33046   7.696  31.525   4.073
68062W        W33047  43.481   8.915   0.670
68063W        W33048  22.738  31.346  13.078
68064W        W33049   1.280  27.266   0.421
68065W        W33050   3.516  42.529   0.398
68066W        W33051  19.636  17.438   5.348
68067W        W33052  17.333  19.044  13.899
68068W        W33053   5.147  32.378  10.697
68069W        W33054  32.133  36.137  14.862
68070W        W33055   3.424  35.817   0.075
68071W        W33056  39.435  38.097   0.357
68072W        W33057   0.241  20.771   1.626
68073W        W33058  26.480  33.349  14.920
68074W        W33059   0.111  12.589   1.150
68075W        W33060  21.931  26.008   2.388
68076W        W33061  14.417  21.762  14.316
68077W        W33062  22.213   1.423   2.103
68078W        W33063  34.042  36.432   1.678
68079W        W33064  36.027  36.195  13.110
68080W        W33065   3.501  42.975  11.816
68081W        W33066  33.819  16.979   3.756
68082W        W33067  13.542  22.953  10.623
68083W        W33068  28.522  34.135  12.100
68084W        W33069  16.071  44.910  14.834
68085W        W33070  27.898  11.288   2.762
68086W        W33071  18.786  10.719  14.206
68087W        W33072  23.252  22.147   0.352
68088W        W33073  31.523  32.683  10.656
68089W        W33074  11.709   3.492  14.935
68090W        W33075  28.058  43.123   0.235
68091W        W33076   7.701   4.261   0.798
68092W        W33077  44.369   5.947  10.702
68093W        W33078  16.245  12.812  11.795
68094W        W33079  18.778  29.112   3.773
68095W        W33080  37.218  20.192   0.848
68096W        W33081  19.514  16.264  11.141
68097W        W33082  19.769  28.174  12.639
68098W        W33083  43.492   9.963  13.816
68099W        W33084  32.812  14.865   2.772
68100W        W33085   6.075  27.573  12.501
68101W        W33086   7.238  18.338   1.831
68102W        W33087  29.538   6.224   1.717
68103W        W33088  33.626  23.231   2.255
68104W        W33089  31.418  37.630  12.873
68105W        W33090  36.094  30.709  11.612
68106W        W33091   4.200  40.234  12.900
68107W        W33092   7.115  12.587   1.847
68108W        W33093  19.115  25.232   2.841
68109W        W33094   8.257  18.185   0.762
68110W        W33095  43.778  27.084   3.877
68111W        W33096  33.064  26.758  14.831
68112W        W33097  43.473  33.780  10.641
68113W        W33098   1.399  11.589  10.690
68114W        W33099  22.600  36.991   2.031
68115W        W33100  14.012  30.980  14.351
68116W        W33101  15.220  40.305   0.711
68117W        W33102  13.493  15.352   0.197
68118W        W33103  12.356  12.604   2.634
68119W        W33104  32.170  30.016   1.931
68120W        W33105   6.848  39.735  14.808
68121W        W33106  29.643   6.459   0.766
68122W        W33107  37.324  27.190   3.381
68123W        W33108  18.006   1.814  13.087
68124W        W33109  22.681  37.808  13.127
68125W        W33110  40.364  33.901   2.292
68126W        W33111  26.645  18.972  12.403
68127W        W33112  20.131   6.396  13.336
68128W        W33113   9.292  26.635   1.853
68129W        W33114  12.525  36.587  11.244
68130W        W33115  13.186  13.844  12.351
68131W        W33116  39.386  30.847  13.455
68132W        W33117  39.636  24.515   0.514
68133W        W33118  10.629  30.585   0.023
68134W        W33119   6.900  25.961  12.893
68135W        W33120  36.510   3.801   4.614
68136W        W33121  40.278  40.082  14.923
68137W        W33122  10.556  18.331  11.154
68138W        W33123  30.862  19.580  10.291
68139W        W33124  15.133  28.014   3.043
68140W        W33125   4.924  39.672   1.161
68141W        W33126   7.254  25.622   3.255
68142W        W33127  41.883  10.334  10.645
68143W        W33128  44.471   8.179  11.930
68144W        W33129   8.600  17.036   1.238
68145W        W33130  26.243  11.608   0.730
68146W        W33131   6.581  19.849  13.363
68147W        W33132  42.048  41.646  11.094
68148W        W33133   2.914  35.702  12.180
68149W        W33134  41.350  34.365  13.041
68150W        W33135  36.712  20.149   0.856
68151W        W33136   5.901  34.530  12.471
68152W        W33137  38.525  38.796   4.109
68153W        W33138   7.568   5.812  10.251
68154W        W33139   6.702  36.812  10.884
68155W        W33140   7.806  39.264  12.553
68156W        W33141   6.321  22.732   4.012
68157W        W33142  41.494  18.606  14.718
68158W        W33143  23.711   7.130   1.798
68159W        W33144   5.454  23.536  12.584
68160W        W33145   7.897  20.439  14.395
68161W        W33146  36.410  16.562  12.958
68162W        W33147  44.309  30.938  14.286
68163W        W33148  15.057  43.264  12.593
68164W        W33149  42.893  44.731   0.789
68165W        W33150  26.470  40.790   3.184
68166W        W33151  32.009   1.932   3.170
68167W        W33152  17.852  22.204   4.670
68168W        W33153  38.651  10.579   0.448
68169W        W33154   3.067  34.794   2.176
68170W        W33155  43.068  34.733   1.113
68171W        W33156  27.089  40.845   4.925
68172W        W33157  17.662   6.611  13.059
68173W        W33158  37.813  38.003  11.933
68174W        W33159  22.931  42.795  13.313
68175W        W33160   3.503  31.117  14.417
68176W        W33161  24.673  38.300   0.997
68177W        W33162  37.218  23.575   3.367
68178W        W33163   1.662  21.490  12.378
68179W        W33164  31.497   0.550  12.580
68180W        W33165  27.175  25.685  13.563
68181W        W33166   6.849  44.507  13.060
68182W        W33167  38.430   8.524  14.340
68183W        W33168  21.452  24.245  11.988
68184W        W33169  34.419   6.092   2.650
68185W        W33170  33.163  43.268   1.911
68186W        W33171  33.782  40.884  11.738
68187W        W33172  42.784  23.115  13.497
68188W        W33173  27.953  33.414  14.474
68189W        W33174  36.322  13.241  10.755
68190W        W33175  25.009  22.681  13.569
68191W        W33176  23.872  18.600  12.562
68192W        W33177   0.342  26.660   0.311
68193W        W33178  30.556  44.951   0.254
68194W        W33179  15.777  34.374   2.785
68195W        W33180  25.056  33.797   1.011
68196W        W33181   5.954  35.341   4.181
68197W        W33182  28.973  34.298  10.959
68198W        W33183  42.158  32.409  14.427
68199W        W33184   4.112  43.377   1.916
68200W        W33185  22.733  22.140   2.692
68201W        W33186  38.241  28.701  13.508
68202W        W33187  31.872  43.306   0.452
68203W        W33188  34.480   4.291   3.093
68204W        W33189  24.703  37.822  12.494
68205W        W33190  13.726  21.863   2.925
68206W        W33191  35.459  42.369   4.095
68207W        W33192  32.680   3.290  12.735
68208W        W33193  22.546  24.728   4.641
68209W        W33194  40.077  23.798   4.965
68210W        W33195  27.663  14.672   1.539
68211W        W33196  22.143   7.294   2.135
68212W        W33197  35.552  29.360   3.709
68213W        W33198  12.126   4.420  14.963
68214W        W33199  26.106  30.897   3.103
68215W        W33200  16.891  30.232   0.261
68216W        W33201  22.129  22.405  10.758
68217W        W33202   9.178  42.311   3.800
68218W        W33203  44.935  18.693  14.327
68219W        W33204  34.967  11.099  11.570
68220W        W33205  23.335  21.648   4.120
68221W        W33206  43.379   2.739  14.416
68222W        W33207   0.736  35.425   4.358
68223W        W33208  20.627  37.968  11.056
68224W        W33209  42.522   8.878  14.759
68225W        W33210   8.196  11.780  10.703
68226W        W33211  13.221  19.200   2.077
68227W        W33212   5.262  19.966  14.154
68228W        W33213  34.122   5.216   4.616
68229W        W33214   1.270   6.144  12.578
68230W        W33215  29.034  18.990   4.165
68231W        W33216  23.166   9.956  10.756
68232W        W33217  20.691   6.148  13.611
68233W        W33218   2.317  27.424   3.425
68234W        W33219  12.090   8.917  13.350
68235W        W33220  13.671   9.664   3.532
68236W        W33221  17.623  17.101  11.124
68237W        W33222   9.403  10.732  12.595
68238W        W33223  28.808  31.124  13.850
68239W        W33224  15.062  35.820   1.473
68240W        W33225   9.520  44.657  11.234
68241W        W33226  19.201  30.607  10.735
68242W        W33227  29.774  18.092   3.679
68243W        W33228   5.119  30.921  13.934
68244W        W33229  37.908  39.178   2.372
68245W        W33230   7.734  25.547   1.210
68246W        W33231  36.939  25.024   0.554
68247W        W33232  17.352  21.101   2.872
68248W        W33233  24.730  41.357  12.096
68249W        W33234  33.041  16.628   2.227
68250W        W33235  30.649   0.498  13.123
68251W        W33236  35.231  19.187  13.911
68252W        W33237   0.514  33.012   2.911
68253W        W33238  35.691  39.779   0.316
68254W        W33239  31.991  42.788  13.497
68255W        W33240  13.887  11.656  12.540
68256W        W33241  32.895  27.867  13.813
68257W        W33242  14.176   6.440  12.821
68258W        W33243  20.055  35.419  10.728
68259W        W33244  20.274  36.353  11.909
68260W        W33245  18.518  43.331  11.241
68261W        W33246  34.729  39.382   4.243
68262W        W33247  14.346  17.178  11.619
68263W        W33248   1.514  19.196   4.246
68264W        W33249  40.604  12.493   9.901
68265W        W33250   4.437   1.366   3.404
68266W        W33251  27.625  39.654   2.719
68267W        W33252  33.549  31.324   4.180
68268W        W33253  32.172   2.411  14.473
68269W        W33254  36.060  11.082   3.340
68270W        W33255  37.940  26.394  13.471
68271W        W33256   9.305  29.008   3.972
68272W        W33257  21.114   3.968   0.810
68273W        W33258  13.563  19.654   2.283
68274W        W33259  34.320  42.168  11.522
68275W        W33260  14.729  28.648  14.747
68276W        W33261  32.149  23.257  11.730
68277W        W33262  30.567   0.341   2.533
68278W        W33263  28.582   4.393  14.130
68279W        W33264  39.376  32.599   2.718
68280W        W33265  42.504  30.926  14.989
68281W        W33266  12.320  43.357   4.559
68282W        W33267  28.029  36.826  12.528
68283W        W33268  25.919  13.872   3.661
68284W        W33269   0.054  24.986   1.348
68285W        W33270  33.652  22.671  13.593
68286W        W33271   0.491   4.167   3.742
68287W        W33272   0.813  35.861   4.095
68288W        W33273  33.563  25.742   3.258
68289W        W33274   4.707   0.098  14.986
68290W        W33275  34.063  21.604   1.876
68291W        W33276  17.199  36.799   0.867
68292W        W33277   0.056  25.968  13.593
68293W        W33278  36.630  44.659   0.932
68294W        W33279  39.425  35.689  13.846
68295W        W33280   0.528  39.820  13.828
68296W        W33281  31.013   1.286  13.506
68297W        W33282  32.612  14.318   3.644
68298W        W33283  28.443  19.120   0.794
68299W        W33284  23.247   8.386  14.348
68300W        W33285  40.822  41.796  14.326
68301W        W33286  32.648  33.963   1.940
68302W        W33287  44.305  25.636   2.260
68303W        W33288  30.532  30.113  11.158
68304W        W33289  30.652  20.955   0.257
68305W        W33290  37.930  17.887  11.050
68306W        W33291   6.241  43.797   0.435
68307W        W33292   4.911  35.559   2.348
68308W        W33293  35.618   9.358  10.171
68309W        W33294  41.283  14.466  13.609
68310W        W33295  44.081  25.522  10.629
68311W        W33296  11.372  42.862  12.873
68312W        W33297  12.137  31.162   1.773
68313W        W33298  39.552  11.304  11.483
68314W        W33299  40.963  11.597  11.458
68315W        W33300  14.879  29.127  14.897
68316W        W33301  44.534   0.286   0.386
68317W        W33302  13.803  19.412  13.442
68318W        W33303  15.722  20.653  12.943
68319W        W33304   3.380  39.152  13.441
68320W        W33305  39.789   7.595   2.696
68321W        W33306  29.056  10.344   0.984
68322W        W33307   6.227  17.141   3.752
68323W        W33308   4.795  29.914   0.979
68324W        W33309   4.304  12.294   1.798
68325W        W33310  37.928   8.211   2.339
68326W        W33311  23.093  37.598  12.860
68327W        W33312   4.907  10.934   3.589
68328W        W33313  10.692  16.089  12.110
68329W        W33314  27.006  13.172   4.078
68330W        W33315  22.517  17.599   0.476
68331W        W33316  31.449   8.398   3.239
68332W        W33317  22.756  32.284   1.394
68333W        W33318   7.832  39.954  14.947
68334W        W33319  16.659  29.245   0.486
68335W        W33320  39.560  42.876   4.699
68336W        W33321  15.685  34.837   4.965
68337W        W33322  21.112  13.835  14.239
68338W        W33323  23.597  31.985   0.345
68339W        W33324  41.048  31.976   3.761
68340W        W33325  39.520  25.015  12.876
68341W        W33326   3.003  35.350  11.620
68342W        W33327  34.667  22.481  12.526
68343W        W33328   7.647  38.158   3.770
68344W        W33329  30.407   2.764   3.561
68345W        W33330  33.635   0.687   0.433
68346W        W33331  28.160   7.799  13.526
68347W        W33332  16.036  13.105   2.256
68348W        W33333  13.949  25.892   4.443
68349W        W33334  14.129  37.345   2.322
68350W        W33335  12.545  24.993  12.526
68351W        W33336  37.992  13.042  11.718
68352W        W33337   5.759   6.766   0.422
68353W        W33338  42.110  27.135   1.426
68354W        W33339  28.064  22.016  13.971
68355W        W33340   9.142   4.800   9.996
68356W        W33341   8.727  24.602  12.668
68357W        W33342  19.350   7.060  12.657
68358W        W33343  34.658  34.539  12.549
68359W        W33344  34.956  11.186   1.252
68360W        W33345  23.055  20.754   3.899
68361W        W33346  26.181   4.395  12.011
68362W        W33347  40.535  25.818  11.632
68363W        W33348  23.576  26.519  14.791
68364W        W33349  23.464  39.905  11.760
68365W        W33350  20.252  20.745   4.989
68366W        W33351  32.790  11.277  13.530
68367W        W33352  21.012  43.339  12.087
68368W        W33353  27.729  26.606  12.896
68369W        W33354  26.007   3.363   1.719
68370W        W33355  12.955   6.456  13.556
68371W        W33356  35.629  34.356  13.030
68372W        W33357  22.869  36.440   1.292
68373W        W33358  21.979  15.757   0.300
68374W        W33359   7.457  15.728   2.701
68375W        W33360  40.624  36.990   0.066
68376W        W33361  13.100  13.168  11.107
68377W        W33362  29.544  13.615   3.611
68378W        W33363   3.942  24.637   1.973
68379W        W33364  40.910  20.129  13.693
68380W        W33365  30.998  23.410  13.455
68381W        W33366  10.896   9.238  12.177
68382W        W33367  25.812  28.120  12.573
68383W        W33368  41.343  33.510   1.954
68384W        W33369  38.903  15.181   3.105
68385W        W33370   6.896  10.155   1.676
68386W        W33371  30.721  20.840   1.289
68387W        W33372  33.499   5.253  13.567
68388W        W33373  11.925   4.885  14.809
68389W        W33374  21.398   4.213   3.753
68390W        W33375  23.120  18.852   0.263
68391W        W33376  12.530  17.286  11.380
68392W        W33377   1.952  36.734  11.718
68393W        W33378  41.785   9.463   4.255
68394W        W33379  13.613  34.096  14.475
68395W        W33380  24.941  10.106  11.153
68396W        W33381  13.131  20.250   1.628
68397W        W33382   7.399  31.138   0.553
68398W        W33383  15.167  13.008  11.696
68399W        W33384  27.352   3.862   5.006
68400W        W33385  37.397  33.553  14.374
68401W        W33386  19.592  12.358   4.370
68402W        W33387   6.303   4.307   4.126
68403W        W33388   6.637  18.318   3.047
68404W        W33389  10.957  38.352   1.557
68405W        W33390  27.681   1.255  14.330
68406W        W33391  11.778  16.526   4.139
68407W        W33392  25.297  40.859  11.916
68408W        W33393   4.702  40.994   1.705
68409W        W33394   5.815  16.226  12.366
68410W        W33395  18.062  31.036   0.514
68411W        W33396  41.399  24.253   1.708
68412W        W33397  31.099   4.713   1.546
68413W        W33398  42.592  21.123  13.801
68414W        W33399  31.143   5.361   4.405
68415W        W33400  39.327   7.275   4.659
68416W        W33401  14.587  31.495   4.886
68417W        W33402  30.803   8.973  11.180
68418W        W33403  10.766  28.855   3.418
68419W        W33404  34.148   2.259   0.721
68420W        W33405  12.791  36.463   1.166
68421W        W33406  26.704   1.053  14.308
68422W        W33407  33.685  37.012  11.025
68423W        W33408  28.526  41.525   3.575
68424W        W33409  34.684  43.631   0.271
68425W        W33410  42.806  33.968   3.253
68426W        W33411  14.214  25.038   1.284
68427W        W33412  33.966  17.491   1.199
68428W        W33413   3.419   5.252   9.966
68429W        W33414  15.809  21.845   3.383
68430W        W33415  35.616   0.261   1.554
68431W        W33416  38.359  44.003   4.073
68432W        W33417  38.442   1.255   2.196
68433W        W33418  15.092   4.157  14.316
68434W        W33419  24.414   4.994  11.543
68435W        W33420   4.383  22.576  10.764
68436W        W33421  38.007  16.166  13.959
68437W        W33422  10.789  40.712   1.706
68438W        W33423  22.063  37.428  14.218
68439W        W33424  16.869  14.818   2.828
68440W        W33425   9.748   2.012  11.569
68441W        W33426   4.845   7.222  11.760
68442W        W33427  41.341   6.831  13.330
68443W        W33428   2.225  36.858   1.182
68444W        W33429  29.249  38.233   3.108
68445W        W33430  11.335  19.005   0.645
68446W        W33431  15.884  15.209  11.959
68447W        W33432   1.534  35.869  12.623
68448W        W33433   1.739  10.963  13.552
68449W        W33434  37.137   9.713   4.334
68450W        W33435  23.226  33.377   4.088
68451W        W33436  16.147  24.678   0.400
68452W        W33437  21.019   0.357   4.554
68453W        W33438  12.629  13.694  10.686
68454W        W33439  13.753   0.812  13.026
68455W        W33440  22.975  30.253   5.052
68456W        W33441  42.761  22.610   1.819
68457W        W33442  21.544  13.835   2.795
68458W        W33443  21.313  10.620  10.421
68459W        W33444  11.674  17.686  14.620
68460W        W33445  29.588  33.419  13.628
68461W        W33446  35.552   1.987  13.885
68462W        W33447  15.971  32.522   2.314
68463W        W33448  15.782  15.694  12.551
68464W        W33449  39.377  29.084   4.139
68465W        W33450  44.227  25.640  13.115
68466W        W33451  10.433   8.188  13.886
68467W        W33452  17.601  40.274  12.650
68468W        W33453  30.111  33.527   4.811
68469W        W33454   4.270   5.632   3.608
68470W        W33455  41.396  19.991  11.894
68471W        W33456  17.608  23.229   1.410
68472W        W33457   2.427  14.848  12.289
68473W        W33458  18.458   9.235  12.477
68474W        W33459   8.096  23.602   0.391
68475W        W33460  15.315  13.649  11.741
68476W        W33461  28.196  21.716   3.706
68477W        W33462  26.810  44.749   2.370
68478W        W33463  12.797  25.409  12.082
68479W        W33464   2.693  21.770  13.803
68480W        W33465   0.947   5.283  10.764
68481W        W33466  31.286  19.810  12.416
68482W        W33467  36.033  26.037   1.988
68483W        W33468  44.382  42.298   1.703
68484W        W33469  15.870  25.154  13.960
68485W        W33470   9.046  32.926  13.838
68486W        W33471   8.036  28.524   0.751
68487W        W33472  32.967  16.443  12.558
68488W        W33473  30.101  24.659   1.822
68489W        W33474   9.696  33.022   3.490
68490W        W33475  17.713  11.767  14.562
68491W        W33476  37.293  28.512   2.667
68492W        W33477   8.409   8.370  13.887
68493W        W33478  13.800  27.530  12.114
68494W        W33479  32.414  27.257  13.441
68495W        W33480  10.754  36.524   1.276
68496W        W33481  15.070  20.833  11.879
68497W        W33482  42.332  17.266  14.191
68498W        W33483   8.508  28.455   0.996
68499W        W33484  44.147  11.483   4.896
68500W        W33485  42.389  39.333  14.957
68501W        W33486  19.432  18.776   2.305
68502W        W33487  26.698  30.843  13.671
68503W        W33488  25.025  29.180   2.271
68504W        W33489   0.483  35.800   3.694
68505W        W33490  38.901  32.393   2.808
68506W        W33491  26.062  42.139  14.132
68507W        W33492  41.032   7.325   4.686
68508W        W33493  29.420  35.917  13.420
68509W        W33494   2.356  38.296  14.352
68510W        W33495   2.082   6.315  13.737
68511W        W33496  24.645  34.382  14.392
68512W        W33497  10.613  34.626  12.535
68513W        W33498  27.880  30.206   0.871
68514W        W33499  26.448  39.104   2.783
68515W        W33500  39.086  16.774  10.334
68516W        W33501   1.312   2.514  13.107
68517W        W33502   8.238  30.027   3.684
68518W        W33503  10.776  29.440  13.817
68519W        W33504  10.343  13.875   2.198
68520W        W33505  44.254  18.148  11.996
68521W        W33506  34.459   4.729  14.817
68522W        W33507  21.024   2.853  12.984
68523W        W33508  30.197  31.652   0.433
68524W        W33509  29.242  33.836   2.676
68525W        W33510  30.393  13.144  11.969
68526W        W33511  26.403  38.523   1.400
68527W        W33512  22.077  17.989  10.393
68528W        W33513  31.822  24.990   4.808
68529W        W33514   2.778  20.493  13.337
68530W        W33515  28.549  34.398   1.844
68531W        W33516  20.253   4.915  10.852
68532W        W33517  41.382   0.476  12.823
68533W        W33518  33.434  44.922   2.659
68534W        W33519  19.589  28.600   2.255
68535W        W33520   2.908  18.679  13.934
68536W        W33521  43.065  26.463  10.656
68537W        W33522  33.812   4.930   1.438
68538W        W33523  39.827  33.791  11.979
68539W        W33524  31.395  28.196   1.151
68540W        W33525  32.622  42.594  11.136
68541W        W33526  43.133   7.271   0.045
68542W        W33527  36.485  29.494  14.304
68543W        W33528  23.662  44.321   1.845
68544W        W33529  20.379   6.598   0.940
68545W        W33530   0.495  10.739   0.282
68546W        W33531  23.354   2.484  12.143
68547W        W33532  21.003  31.073  11.560
68548W        W33533  38.680  42.390   1.966
68549W        W33534   9.956  22.687  12.355
68550W        W33535  31.984   1.268  14.763
68551W        W33536  13.871  44.947  11.687
68552W        W33537  42.854  17.257   1.630
68553W        W33538  15.141  10.603  11.128
68554W        W33539  11.672  12.325  11.269
68555W        W33540  34.378  40.417   0.316
68556W        W33541  17.158  42.898  14.885
68557W        W33542  10.983  16.099  12.541
68558W        W33543   5.274  35.376  14.883
68559W        W33544   8.130  44.302  10.413
68560W        W33545  27.110  14.717   1.803
68561W        W33546  43.368  36.608   0.805
68562W        W33547   1.285   7.383  11.948
68563W        W33548  30.124  23.301   3.736
68564W        W33549  10.717  19.526   2.338
68565W        W33550   8.982  19.252   3.754
68566W        W33551  11.245  37.527  12.122
68567W        W33552  43.895  43.903  13.389
68568W        W33553   5.015  35.065  11.180
68569W        W33554  40.618   4.399   4.677
68570W        W33555  41.596   8.310   0.550
68571W        W33556  44.082  23.960  13.808
68572W        W33557  31.877   1.284   0.268
68573W        W33558  12.716  35.560  13.584
68574W        W33559   6.112  44.003  11.691
68575W        W33560  43.421  40.104   2.264
68576W        W33561  26.157  33.183   2.726
68577W        W33562  16.482   9.935   1.404
68578W        W33563  26.279  39.862   4.521
68579W        W33564   2.711  33.607   2.674
68580W        W33565  27.361  42.469   4.133
68581W        W33566  16.813  34.635   3.105
68582W        W33567  37.965  15.560  13.499
68583W        W33568  16.265  25.807   1.841
68584W        W33569  36.853  43.259   3.091
68585W        W33570  39.748  18.104   5.152
68586W        W33571  39.880  18.387   1.282
68587W        W33572  16.046  17.571   0.535
68588W        W33573  39.742  15.486  10.629
68589W        W33574  33.345  19.743   0.029
68590W        W33575   6.179  32.357   4.616
68591W        W33576  12.663  29.715   4.055
68592W        W33577  18.252  34.959   4.126
68593W        W33578  25.990  24.329  11.984
68594W        W33579  35.811  37.890   0.428
68595W        W33580  26.538   7.367  10.429
68596W        W33581  40.849  10.084  11.174
68597W        W33582  31.472  15.617   2.690
68598W        W33583  35.005  12.780   0.470
68599W        W33584  31.912  39.103  14.347
68600W        W33585   5.831  17.690  13.755
68601W        W33586  37.098  10.757  12.748
68602W        W33587  40.968  32.635  11.083
68603W        W33588   4.374   0.712   1.723
68604W        W33589   9.333  12.432  13.503
68605W        W33590  40.231   4.987   3.197
68606W        W33591  42.746  20.180  12.001
68607W        W33592   1.013  13.146   0.108
68608W        W33593  20.321  27.023   4.630
68609W        W33594  38.165  23.450  10.725
68610W        W33595  44.326  14.715  11.662
68611W        W33596   2.423  17.043  13.925
68612W        W33597  17.753  14.664  13.915
68613W        W33598  31.422  37.982  10.749
68614W        W33599  36.579  30.078   4.553
68615W        W33600   9.973  35.085   1.921
68616W        W33601  32.946  42.763  12.311
68617W        W33602  26.578  27.493  12.587
68618W        W33603  41.981  26.021  14.033
68619W        W33604  23.108  44.760   1.322
68620W        W33605  24.730  14.080  12.627
68621W        W33606  14.881  26.178   0.300
68622W        W33607   3.265  21.491  12.206
68623W        W33608  18.762  19.412  14.791
68624W        W33609  24.980   0.738  11.638
68625W        W33610   3.223  38.144   2.841
68626W        W33611  40.870  16.220  12.119
68627W        W33612   5.903  17.764  14.688
68628W        W33613  26.107  10.670   0.426
68629W        W33614   7.391  42.002   4.816
68630W        W33615   9.030  25.008   3.694
68631W        W33616  21.218  15.330   4.507
68632W        W33617  14.138  18.757   2.773
68633W        W33618  33.476   6.739   3.576
68634W        W33619  35.932   5.944  13.935
68635W        W33620  15.634  40.892   1.951
68636W        W33621  18.985  29.198   3.281
68637W        W33622  39.307  21.668   4.407
68638W        W33623  11.847  28.844   4.263
68639W        W33624  24.070  28.085   2.801
68640W        W33625   7.110  15.632  12.635
68641W        W33626  18.146  42.618   2.703
68642W        W33627  17.607  14.070   4.600
68643W        W33628  15.076  17.884  13.544
68644W        W33629  41.454  41.967   3.109
68645W        W33630  17.003  37.417   2.231
68646W        W33631  38.534  41.950   2.203
68647W        W33632   8.606  29.730  11.112
68648W        W33633  29.632  15.910   4.182
68649W        W33634  33.278  38.230  13.857
68650W        W33635   6.356  33.159   2.256
68651W        W33636  38.349  26.099  12.140
68652W        W33637  12.964  10.845   0.912
68653W        W33638   6.859   3.396  10.250
68654W        W33639  10.703   9.396   1.677
68655W        W33640  16.099  42.355   0.502
68656W        W33641  28.502   7.440   1.911
68657W        W33642  30.460   3.440  14.517
68658W        W33643   5.370  11.645  14.906
68659W        W33644  13.128   3.850   0.361
68660W        W33645  18.663  17.160   3.121
68661W        W33646  32.758   0.763  14.816
68662W        W33647  11.946  19.279  13.559
68663W        W33648  10.155  11.944   1.660
68664W        W33649   2.714  30.574   0.087
68665W        W33650  31.595  14.339  13.895
68666W        W33651  34.606  28.153   4.249
68667W        W33652  32.668  28.604   2.143
68668W        W33653  13.788  38.453  13.083
68669W        W33654   2.460  20.546   3.117
68670W        W33655  28.419  25.253   4.056
68671W        W33656  20.894  21.758  13.964
68672W        W33657  18.777  16.342  11.868
68673W        W33658   9.423   4.916  14.712
68674W        W33659   9.135  20.112   0.703
68675W        W33660  20.212   3.887  11.372
68676W        W33661   5.133  30.793  10.722
68677W        W33662   1.855  17.039  12.773
68678W        W33663   6.809  17.736   0.001
68679W        W33664   6.851  31.713   1.012
68680W        W33665  41.549  37.489   3.993
68681W        W33666  42.678   0.408   0.760
68682W        W33667  25.367  34.846   0.283
68683W        W33668  29.953   3.239   4.130
68684W        W33669   9.801  29.200  12.320
68685W        W33670  22.970  33.923  13.872
68686W        W33671  44.385   3.863   2.817
68687W        W33672  16.270  36.807   4.164
68688W        W33673  28.617  34.634   0.289
68689W        W33674  28.143  17.437  11.007
68690W        W33675  28.199   3.821   2.513
68691W        W33676   8.838  12.271   4.819
68692W        W33677   0.466  29.343  13.140
68693W        W33678  20.357  10.612   2.870
68694W        W33679  31.782  40.312  13.289
68695W        W33680  21.070  13.905   4.065
68696W        W33681  13.553  29.389  11.477
68697W        W33682  15.334  29.360  13.459
68698W        W33683  30.813  39.913  13.070
68699W        W33684  19.020  28.203  13.070
68700W        W33685  12.524  43.228   0.863
68701W        W33686  29.843   2.714   9.766
68702W        W33687   3.586  27.707   0.903
68703W        W33688  39.824  19.054  12.515
68704W        W33689   4.163  40.334   4.577
68705W        W33690  29.323  38.531   3.646
68706W        W33691  28.147  41.934  11.900
68707W        W33692  16.083  42.233  13.108
68708W        W33693   5.753  10.797   2.921
68709W        W33694  38.341  17.107  12.174
68710W        W33695   3.168  23.022   3.317
68711W        W33696  10.908  10.785   2.199
68712W        W33697  13.354  30.017   3.455
68713W        W33698  16.583  18.092   1.736
68714W        W33699  39.267  20.413   4.211
68715W        W33700   9.207  27.326  12.453
68716W        W33701  32.787  22.307   2.900
68717W        W33702   8.671  41.434   3.795
68718W        W33703   5.689  41.949   1.340
68719W        W33704  15.650  35.973   4.268
68720W        W33705  36.379  33.551  13.357
68721W        W33706   1.020  31.695   4.116
68722W        W33707  23.537  11.194   0.062
68723W        W33708  18.130  18.357  11.194
68724W        W33709  15.554  17.016  13.992
68725W        W33710  15.998  19.240  14.456
68726W        W33711  38.421  35.255   2.165
68727W        W33712  14.094  42.462  13.024
68728W        W33713   2.493   0.874  14.820
68729W        W33714   2.308  40.089  14.784
68730W        W33715   4.868  17.655   4.604
68731W        W33716  18.024  16.603  13.786
68732W        W33717  14.739  33.101   3.712
68733W        W33718  36.970  20.967   0.311
68734W        W33719  29.918  26.723   2.268
68735W        W33720  10.140  27.299  12.053
68736W        W33721  31.180   1.584  14.419
68737W        W33722  33.626   0.320  11.982
68738W        W33723  21.672  34.549  10.889
68739W        W33724  33.954  36.840  11.531
68740W        W33725  30.057  40.255   0.269
68741W        W33726   1.812  34.360  11.626
68742W        W33727  33.684  26.515  14.270
68743W        W33728  26.394   7.327   2.247
68744W        W33729  25.015  14.525  12.612
68745W        W33730   2.767   5.312   2.638
68746W        W33731  11.319   1.801  11.421
68747W        W33732  23.212   0.977   0.461
68748W        W33733  14.154  27.052   2.252
68749W        W33734  30.649  42.759  12.932
68750W        W33735  39.831  43.428  12.101
68751W        W33736  22.653  44.461   3.911
68752W        W33737  43.272  30.547   4.569
68753W        W33738  37.083  39.031  12.381
68754W        W33739  35.937   2.712   1.660
68755W        W33740  14.428  26.133  13.483
68756W        W33741  44.731   6.704   4.135
68757W        W33742  12.688  22.224   4.608
68758W        W33743  33.989  42.285  13.967
68759W        W33744  14.033  24.473  14.168
68760W        W33745  36.608  24.559  12.557
68761W        W33746  41.395   8.814   4.187
68762W        W33747  44.289  27.782  13.109
68763W        W33748   7.629  28.390   3.747
68764W        W33749  28.462  14.660  11.040
68765W        W33750  17.395  40.262   1.809
68766W        W33751   8.678   8.078  13.556
68767W        W33752  14.900  18.465  12.616
68768W        W33753   2.403   9.649   3.309
68769W        W33754  33.695  41.387  11.597
68770W        W33755   6.779  33.128   1.861
68771W        W33756  32.439  36.168   0.666
68772W        W33757  41.385  44.913  10.702
68773W        W33758  34.383   1.856   3.216
68774W        W33759  37.645  26.416   0.355
68775W        W33760  42.540  20.537   0.063
68776W        W33761  25.696  34.443  14.448
68777W        W33762  15.164  37.912  13.039
68778W        W33763  19.886  27.278   4.414
68779W        W33764  15.684  10.863   0.236
68780W        W33765  38.308  11.484  11.383
68781W        W33766   1.315   1.368   1.396
68782W        W33767   0.841  24.893   9.925
68783W        W33768  14.186  14.246  14.562
68784W        W33769   0.474  17.140  11.177
68785W        W33770   7.529  35.183   4.459
68786W        W33771  34.338   9.406   4.546
68787W        W33772   7.859  22.442   1.845
68788W        W33773  18.861  40.362  14.606
68789W        W33774  27.629  18.144   0.577
68790W        W33775  13.030   3.323   2.777
68791W        W33776  16.284  11.363  11.521
68792W        W33777  44.304  37.364  12.493
68793W        W33778   1.675  36.573   3.138
68794W        W33779   1.506  30.250   1.370
68795W        W33780  41.919  16.607  10.356
68796W        W33781  35.624  31.545   4.608
68797W        W33782  27.907  42.308  11.582
68798W        W33783  15.205  10.596  10.606
68799W        W33784  41.589  32.963  14.017
68800W        W33785  32.973  14.134   2.269
68801W        W33786   8.790  35.099   3.740
68802W        W33787  22.212   9.288  14.361
68803W        W33788   4.566  39.126  13.940
68804W        W33789   4.753   9.891  11.336
68805W        W33790  13.053  39.833   3.087
68806W        W33791  38.236  15.699  10.443
68807W        W33792  20.563  21.519   1.850
68808W        W33793  29.493  10.228  14.238
68809W        W33794  26.581  22.155   0.056
68810W        W33795  41.941  21.748  12.999
68811W        W33796   7.901  13.881  14.410
68812W        W33797  14.239   5.715   5.024
68813W        W33798   1.153  11.040   0.344
68814W        W33799  38.992  17.264   0.789
68815W        W33800  15.873  28.945   3.541
68816W        W33801  36.427  27.759  11.415
68817W        W33802  17.180   4.944   0.589
68818W        W33803   1.032   3.966   3.204
68819W        W33804  17.758  14.201  14.193
68820W        W33805   6.248  14.451   3.683
68821W        W33806  27.631  33.497   1.328
68822W        W33807  43.810  35.451   2.959
68823W        W33808  35.715  14.807   4.503
68824W        W33809  37.654  16.288   4.560
68825W        W33810  31.495  11.424   1.466
68826W        W33811  42.218  43.801  13.084
68827W        W33812   6.806  11.383  11.314
68828W        W33813  14.076  37.980   4.177
68829W        W33814  44.382  18.713   1.901
68830W        W33815  37.017   9.983   1.206
68831W        W33816  22.523  37.042   0.451
68832W        W33817  16.090  19.128   1.411
68833W        W33818  41.215  37.345   1.729
68834W        W33819  44.500  33.640  13.208
68835W        W33820  38.535  12.849   0.259
68836W        W33821   4.114  37.565   2.858
68837W        W33822  37.071  42.295   0.270
68838W        W33823  13.052   5.274  11.138
68839W        W33824  24.568   8.328  14.028
68840W        W33825  39.364  37.915  12.897
68841W        W33826  43.225  11.870  13.908
68842W        W33827  34.516  18.223   2.734
68843W        W33828  14.688  32.366   0.252
68844W        W33829  10.766  42.502  14.317
68845W        W33830  11.935   9.322  11.149
68846W        W33831   7.645  27.239  13.407
68847W        W33832  19.055   7.571   1.334
68848W        W33833   9.044   5.270   1.057
68849W        W33834   2.956  18.675   0.287
68850W        W33835   0.466  19.313  13.106
68851W        W33836  42.223   3.248  13.351
68852W        W33837  22.248  10.384  12.163
68853W        W33838   0.380  32.113   2.398
68854W        W33839  35.371  40.206   3.582
68855W        W33840   8.601  30.542   4.256
68856W        W33841  13.398   6.814   2.992
68857W        W33842  13.127   9.862  10.975
68858W        W33843   0.095  15.135  10.293
68859W        W33844  26.690  31.186   2.982
68860W        W33845  41.308  20.461   2.706
68861W        W33846  28.076  31.540   0.247
68862W        W33847  29.562  34.384   3.206
68863W        W33848   2.382  41.089  10.940
68864W        W33849  39.338  17.157   4.667
68865W        W33850   3.803  37.969   4.707
68866W        W33851  40.545  42.413  14.386
68867W        W33852  36.155  13.155   3.731
68868W        W33853  36.834  39.387  14.101
68869W        W33854   6.707   0.247  12.269
68870W        W33855  24.462  33.684  12.304
68871W        W33856  32.794   7.737   0.873
68872W        W33857  26.777  16.827  11.586
68873W        W33858  43.177  34.701  12.874
68874W        W33859  29.077  33.422  13.892
68875W        W33860   5.825  15.319  11.912
68876W        W33861  15.401  29.507   0.683
68877W        W33862   7.355   9.155   1.177
68878W        W33863  17.295  31.910  14.494
68879W        W33864  22.428  23.593   2.749
68880W        W33865   4.471  12.616  12.465
68881W        W33866   5.446  23.508  14.895
68882W        W33867  23.702  36.011  11.957
68883W        W33868   7.420  26.634   0.151
68884W        W33869   4.923   6.863   2.675
68885W        W33870  29.813   8.522  13.068
68886W        W33871  41.157  25.543   1.457
68887W        W33872  14.123  28.350   1.352
68888W        W33873   3.893  35.854   0.382
68889W        W33874  26.484  42.028   4.859
68890W        W33875  18.898  21.310   3.410
68891W        W33876   4.243  44.356   0.921
68892W        W33877   8.679   5.604  12.472
68893W        W33878   4.668   0.978  12.091
68894W        W33879   5.663  35.497   1.860
68895W        W33880   1.200  44.313  14.516
68896W        W33881  37.245  18.822  12.044
68897W        W33882  40.991  43.589   2.830
68898W        W33883  42.915  43.261  14.979
68899W        W33884  32.044   2.909  12.194
68900W        W33885  37.648  10.950   4.186
68901W        W33886  17.634   5.358   1.794
68902W        W33887   1.524  43.225  12.394
68903W        W33888  12.868  30.562   3.334
68904W        W33889  11.233   3.410  12.103
68905W        W33890  15.886  43.662  10.976
68906W        W33891  25.680  35.182   3.302
68907W        W33892  29.027  35.158   1.746
68908W        W33893  36.546  24.117   0.944
68909W        W33894   5.937  19.212  14.794
68910W        W33895  16.639  23.093   9.897
68911W        W33896  36.509  10.085   0.399
68912W        W33897  36.461  32.851  14.977
68913W        W33898  29.055  26.189   0.081
68914W        W33899  15.271  44.549  12.075
68915W        W33900  23.046  30.364  12.957
68916W        W33901  20.664   7.175  14.550
68917W        W33902   6.712   8.136   4.513
68918W        W33903  17.183  41.015   1.549
68919W        W33904  16.732  12.246  14.171
68920W        W33905  12.139  27.830   1.399
68921W        W33906  24.616  22.656  13.938
68922W        W33907  42.946   3.618   0.367
68923W        W33908  38.826  11.139  10.725
68924W        W33909   0.322  26.391  12.543
68925W        W33910  24.544  41.844  11.110
68926W        W33911  14.907  31.103   0.384
68927W        W33912   0.257   4.920   2.139
68928W        W33913  28.841  26.507   1.397
68929W        W33914  14.921   3.112  11.537
68930W        W33915  40.829  32.428   3.617
68931W        W33916   4.646   2.350   0.498
68932W        W33917   9.443  40.122   0.439
68933W        W33918  31.209  38.414  10.573
68934W        W33919  15.774   7.252  12.945
68935W        W33920  40.965  37.018   2.862
68936W        W33921  43.109   9.391   0.028
68937W        W33922  34.004  16.555   2.231
68938W        W33923  32.589   3.494   4.043
68939W        W33924  17.221  37.271   1.798
68940W        W33925  14.078  41.795  12.868
68941W        W33926  10.053  42.330  12.014
68942W        W33927  37.290  31.988   1.786
68943W        W33928  22.521   7.665  10.481
68944W        W33929  18.629  17.178  11.220
68945W        W33930  29.124  10.768  13.603
68946W        W33931   0.414  29.473   2.397
68947W        W33932  20.682  34.076   4.492
68948W        W33933  20.690  36.855   4.614
68949W        W33934  17.787  36.975   2.902
68950W        W33935  31.068  26.283  10.763
68951W        W33936   4.682  17.353  12.127
68952W        W33937  38.932   5.942   0.493
68953W        W33938   3.265  23.432  10.779
68954W        W33939   5.964  10.309  12.950
68955W        W33940   1.369  39.504   0.739
68956W        W33941  31.495  32.173   2.284
68957W        W33942  21.106   4.395  11.055
68958W        W33943  41.873  27.741   0.061
68959W        W33944   4.367  29.453  11.524
68960W        W33945  35.416  27.919   4.581
68961W        W33946  12.408  40.119   1.816
68962W        W33947  41.085  29.167   0.388
68963W        W33948   8.733  25.075   0.928
68964W        W33949  32.517  34.462   4.623
68965W        W33950  12.386  38.518  13.981
68966W        W33951  22.167  26.152   0.690
68967W        W33952  26.712   2.774  13.667
68968W        W33953  28.909  23.651   3.645
68969W        W33954   7.691  29.727   3.044
68970W        W33955  13.890   7.774  12.050
68971W        W33956  44.309  37.964   2.371
68972W        W33957  30.653  22.089  14.494
68973W        W33958  18.786  14.877  14.825
68974W        W33959  23.140  30.445   2.440
68975W        W33960  42.990  33.039   2.364
68976W        W33961  23.748  10.607   0.911
68977W        W33962  27.139  44.929  13.516
68978W        W33963  14.583  41.784   3.172
68979W        W33964  29.903  38.884  10.668
68980W        W33965  33.320   1.354  12.324
68981W        W33966  14.421  26.902   4.563
68982W        W33967  15.607  39.029   1.795
68983W        W33968  23.005  28.990   0.606
68984W        W33969  40.521  30.100   0.904
68985W        W33970  38.487  15.799   1.738
68986W        W33971  42.949   6.447   0.566
68987W        W33972  29.871  22.347   4.751
68988W        W33973  24.016   3.324   1.941
68989W        W33974  44.373  35.858   1.396
68990W        W33975   3.614  14.093  13.818
68991W        W33976   6.969  34.970  11.561
68992W        W33977   9.938  30.128  12.013
68993W        W33978  11.977  17.094   1.379
68994W        W33979  40.091  36.448  13.112
68995W        W33980  25.681  16.823  13.403
68996W        W33981  29.960  35.197  13.562
68997W        W33982  34.470  13.810  12.073
68998W        W33983  23.552  30.638  11.061
68999W        W33984  44.731  13.617  13.903
69000W        W33985   2.716  29.169   0.423
69001W        W33986  11.802  44.996  10.801
69002W        W33987   0.816   4.694  11.559
69003W        W33988  28.931  23.910   1.187
69004W        W33989   3.844   2.689  11.566
69005W        W33990  20.235   2.784   1.467
69006W        W33991  23.059  44.967   2.838
69007W        W33992  29.260   0.718   4.220
69008W        W33993  26.116  31.771   1.988
69009W        W33994  20.474  17.272   2.328
69010W        W33995  26.648  32.729   4.535
69011W        W33996  20.598  11.850   3.150
69012W        W33997  22.646  36.871   1.520
69013W        W33998  11.735  39.264   3.649
69014W        W33999  41.310  13.634   2.852
69015W        W34000  34.603  44.070   1.159
69016W        W34001  11.455  35.056   2.224
69017W        W34002  27.085  27.473  13.582
69018W        W34003  17.996  27.611   0.113
69019W        W34004  13.950  22.104   3.326
69020W        W34005   0.266  17.777  10.221
69021W        W34006   5.677  17.042  11.163
69022W        W34007  10.590   8.835  14.811
69023W        W34008  25.119  37.516  12.561
69024W        W34009  20.646  13.605  11.127
69025W        W34010  33.401  14.383  10.031
69026W        W34011  30.059  11.868  13.361
69027W        W34012  29.789  25.110   1.843
69028W        W34013  13.758  31.137  14.801
69029W        W34014  28.917  32.920  12.455
69030W        W34015  38.046  12.511  11.672
69031W        W34016  32.157  13.534  13.343
69032W        W34017  25.924  27.225   4.060
69033W        W34018   8.056   8.298   0.270
69034W        W34019  29.117  15.737   0.634
69035W        W34020  18.362   1.369  10.727
69036W        W34021   6.759   8.649   4.459
69037W        W34022  30.221  14.816   0.281
69038W        W34023   1.767  16.793   1.392
69039W        W34024  38.936  31.621  10.533
69040W        W34025  31.804  12.090  13.098
69041W        W34026  35.249  42.916   0.421
69042W        W34027  25.650  42.043  14.430
69043W        W34028  13.158  11.114   4.942
69044W        W34029   9.573   6.738  10.338
69045W        W34030  11.922  39.856  12.011
69046W        W34031  29.480  10.051   0.916
69047W        W34032  23.605  19.764   1.853
69048W        W34033  28.191  15.945  11.769
69049W        W34034  33.510  10.923   3.178
69050W        W34035  21.504   7.188  11.468
69051W        W34036   5.030  23.828   2.748
69052W        W34037  40.600  21.156  12.961
69053W        W34038  22.398  24.272   3.304
69054W        W34039   4.809  24.908   1.438
69055W        W34040  14.109  33.547  11.557
69056W        W34041  37.280   5.344  12.829
69057W        W34042  22.307  14.089  11.134
69058W        W34043   2.690   8.626   4.901
69059W        W34044  17.040  25.142   0.836
69060W        W34045  24.063   9.026   3.401
69061W        W34046  19.614  11.283  10.688
69062W        W34047  21.665   4.916  14.539
69063W        W34048  38.889   7.695   0.384
69064W        W34049  39.952  33.844   1.905
69065W        W34050  36.877  31.888  14.417
69066W        W34051   9.718  31.564   2.930
69067W        W34052   9.641  25.242   2.724
69068W        W34053  15.321  24.685  11.140
69069W        W34054  18.608  14.075   1.359
69070W        W34055   3.137   4.848   2.373
69071W        W34056  24.611   1.079  10.187
69072W        W34057  40.498  40.303   4.545
69073W        W34058   7.724  24.575  12.993
69074W        W34059   0.817  10.236  13.038
69075W        W34060  11.826   0.280  11.245
69076W        W34061   9.371  28.183   0.409
69077W        W34062  24.744  22.976   3.165
69078W        W34063  16.697   6.431  10.150
69079W        W34064   6.889  25.129   2.244
69080W        W34065  14.726  23.756   0.253
69081W        W34066  20.141  20.272  14.834
69082W        W34067   7.912  37.620   1.778
69083W        W34068  17.189  26.084  10.669
69084W        W34069  33.463  21.334   0.900
69085W        W34070  12.151  14.576  14.876
69086W        W34071  34.420  44.244   4.144
69087W        W34072  13.087   1.194   5.006
69088W        W34073  29.246  31.634   3.355
69089W        W34074  40.844  15.449   9.939
69090W        W34075  38.510  31.970  14.050
69091W        W34076   1.529  35.936  11.562
69092W        W34077  39.430  14.080  14.858
69093W        W34078  29.580  28.934   0.274
69094W        W34079  26.575  23.256  11.884
69095W        W34080  39.842   3.243  13.909
69096W        W34081  30.558  39.062  12.104
69097W        W34082  35.994   3.488   4.224
69098W        W34083  30.913  38.825  10.617
69099W        W34084  14.537   1.755   0.296
69100W        W34085  34.539  12.741   3.814
69101W        W34086  24.558  28.029   0.690
69102W        W34087  19.083   6.196   2.324
69103W        W34088   4.986   2.303   2.211
69104W        W34089  16.157  21.247  11.523
69105W        W34090  11.721  30.452  13.031
69106W        W34091   7.517  30.535  12.464
69107W        W34092   7.490   2.661  11.434
69108W        W34093  28.443  32.552  10.620
69109W        W34094  30.305  23.916  14.879
69110W        W34095  30.464  32.912   0.969
69111W        W34096  15.437  21.373   2.567
69112W        W34097  39.005   5.337  11.127
69113W        W34098  34.907  31.540  11.217
69114W        W34099  22.433  26.444   2.755
69115W        W34100   4.515  27.737   1.225
69116W        W34101  15.624   3.923   3.401
69117W        W34102  44.996  13.772   3.219
69118W        W34103  41.963  31.456   1.994
69119W        W34104  14.593  24.741   0.391
69120W        W34105  31.529   4.442   1.422
69121W        W34106  17.655   0.699   0.895
69122W        W34107  41.359  40.780   2.828
69123W        W34108  39.513   9.338   4.527
69124W        W34109  38.409  32.069   4.197
69125W        W34110  15.572  36.906   4.782
69126W        W34111  22.923  16.198  11.570
69127W        W34112   9.483  17.817  11.549
69128W        W34113   3.967   1.262  10.732
69129W        W34114  24.137  37.255   2.130
69130W        W34115  13.622  21.453   3.858
69131W        W34116  42.780  20.457  10.070
69132W        W34117  11.164  29.098   4.066
69133W        W34118  16.288  42.470  13.537
69134W        W34119  41.382  17.341   1.817
69135W        W34120  36.604  34.091  10.918
69136W        W34121  28.076  31.464  12.906
69137W        W34122  17.754  22.171   0.878
69138W        W34123  25.749  22.973  13.464
69139W        W34124   5.745  24.596  13.979
69140W        W34125  17.747  10.263  11.490
69141W        W34126   6.459  23.678  10.752
69142W        W34127  10.574   6.704   0.465
69143W        W34128  11.878  38.167  11.892
69144W        W34129  30.679  38.437   3.930
69145W        W34130   6.362  43.906   4.297
69146W        W34131  23.279  12.145   3.554
69147W        W34132   6.580  40.523  14.029
69148W        W34133  18.915  32.150   0.803
69149W        W34134  26.736  27.036  13.499
69150W        W34135  17.326   3.195   4.960
69151W        W34136  16.820  15.756   3.787
69152W        W34137  12.851   3.660  14.927
69153W        W34138  32.151   6.467   0.910
69154W        W34139   5.790   6.678   2.108
69155W        W34140  12.568  25.688   1.303
69156W        W34141  42.521  34.708   1.193
69157W        W34142  44.816  12.738  12.458
69158W        W34143  16.811  15.858  11.628
69159W        W34144  31.960   1.387   1.717
69160W        W34145  14.384   7.119   1.104
69161W        W34146  12.879  26.065   4.672
69162W        W34147  26.212  18.137   2.782
69163W        W34148   9.929  28.026  14.454
69164W        W34149  43.417  41.563   4.492
69165W        W34150  17.934  12.552  12.461
69166W        W34151  22.493   2.866   1.694
69167W        W34152   7.524  18.974   3.804
69168W        W34153  17.845   1.540  10.687
69169W        W34154  16.044  17.717  11.473
69170W        W34155  20.229  27.623  10.396
69171W        W34156  40.919  20.682   4.558
69172W        W34157  12.837  18.647   3.278
69173W        W34158   9.791  10.422   4.587
69174W        W34159   3.455  34.843  14.147
69175W        W34160  19.130  31.333   2.802
69176W        W34161  44.428  43.242   1.116
69177W        W34162  43.920  11.333   4.058
69178W        W34163  36.845  38.156   3.803
69179W        W34164  24.136  32.475   3.510
69180W        W34165  22.248  19.954   2.080
69181W        W34166  13.216  31.837  14.558
69182W        W34167  29.214  32.962   0.789
69183W        W34168   9.667  29.766  12.871
69184W        W34169  15.793  13.139  13.906
69185W        W34170  17.485   2.766   3.294
69186W        W34171  29.190  17.148   3.650
69187W        W34172   7.147   8.267  13.449
69188W        W34173   2.513  31.464  12.109
69189W        W34174  38.986  29.080  11.808
69190W        W34175  34.562  23.053   0.362
69191W        W34176  12.646  31.418   2.776
69192W        W34177  27.268  14.778   3.611
69193W        W34178  31.824  40.523   1.950
69194W        W34179  41.289  33.109   3.654
69195W        W34180  43.625   2.024  10.957
69196W        W34181  21.144   3.077   4.038
69197W        W34182  14.440  18.344   0.264
69198W        W34183  24.529  30.995  12.092
69199W        W34184   6.433   9.777   3.684
69200W        W34185  11.507  23.915   2.621
69201W        W34186   6.725  29.813   0.191
69202W        W34187  17.754  41.408   3.726
69203W        W34188  44.887  10.176  12.899
69204W        W34189  14.690   3.603   2.230
69205W        W34190  18.818  40.324   3.351
69206W        W34191  25.582  36.193  11.897
69207W        W34192   4.400  23.035   1.001
69208W        W34193  24.259  36.421  13.715
69209W        W34194  44.483   6.270   3.883
69210W        W34195  11.338   7.087  12.618
69211W        W34196  11.256  31.309  14.816
69212W        W34197  22.743  33.962   0.555
69213W        W34198   8.577  38.856   2.860
69214W        W34199  40.560  17.561   0.478
69215W        W34200   0.694   7.732   1.275
69216W        W34201  26.515  21.325   0.393
69217W        W34202  24.186   8.632  11.639
69218W        W34203  12.317   0.928  13.816
69219W        W34204  18.240   6.999   2.365
69220W        W34205   0.956  18.577  11.606
69221W        W34206  11.262  32.021   4.325
69222W        W34207  41.061  21.073  12.687
69223W        W34208   8.347   1.197  11.861
69224W        W34209   6.277   9.305  11.255
69225W        W34210  31.691  36.840  13.439
69226W        W34211  11.116  20.581  12.173
69227W        W34212  40.036  20.262   2.434
69228W        W34213  20.233  29.998   1.379
69229W        W34214  42.736  22.156   4.592
69230W        W34215  24.041  38.325  14.852
69231W        W34216  42.266  21.236   2.260
69232W        W34217  44.413   6.767   0.001
69233W        W34218   4.615   4.913  11.209
69234W        W34219  33.198  26.724   4.142
69235W        W34220  14.730  35.874  14.983
69236W        W34221  21.447   9.178  11.960
69237W        W34222   9.699   4.041   2.607
69238W        W34223  34.525  18.354  14.728
69239W        W34224  34.604  26.034  10.449
69240W        W34225  32.237  20.321   2.283
69241W        W34226  22.825  33.230  11.588
69242W        W34227  30.407  41.488  13.330
69243W        W34228  19.894  13.309  14.455
69244W        W34229  35.796  23.533  12.063
69245W        W34230  36.597  32.436   1.677
69246W        W34231  21.202  24.625   0.265
69247W        W34232  33.215  19.192   4.210
69248W        W34233  44.657   7.115  11.013
69249W        W34234  18.726  23.976   0.672
69250W        W34235  21.055  34.124   1.169
69251W        W34236  13.238   1.260   4.095
69252W        W34237  42.315  29.023   2.865
69253W        W34238   0.060  18.232  12.651
69254W        W34239  16.796   4.172   2.792
69255W        W34240  24.039  32.171  14.615
69256W        W34241  17.785   0.956  12.547
69257W        W34242  31.139   1.122   5.717
69258W        W34243  32.413  41.470  13.029
69259W        W34244  24.594  37.563   4.693
69260W        W34245  20.159  21.766   3.594
69261W        W34246  34.693  15.439  13.950
69262W        W34247  18.623  18.624  14.468
69263W        W34248  29.475  42.323  12.036
69264W        W34249  26.688  19.328  13.407
69265W        W34250  15.715   8.943  12.514
69266W        W34251   3.427  21.235   2.657
69267W        W34252   2.925  16.199   3.892
69268W        W34253  35.026  24.243   4.782
69269W        W34254   3.357  15.833   0.947
69270W        W34255  19.620  14.125  11.180
69271W        W34256  11.613  25.975   3.195
69272W        W34257  38.414  42.977   2.606
69273W        W34258   9.141  11.694  10.702
69274W        W34259  24.070  25.135   3.289
69275W        W34260  25.606  24.558   3.620
69276W        W34261  22.662  13.245  13.384
69277W        W34262  37.840  21.632  11.605
69278W        W34263  12.394  35.173  10.751
69279W        W34264   4.834  14.127  12.754
69280W        W34265  44.704  11.418  11.193
69281W        W34266   3.793  26.994  13.389
69282W        W34267  36.512  28.825   0.539
69283W        W34268  18.363  41.132   3.407
69284W        W34269  33.220   4.702  11.544
69285W        W34270  32.168  18.147   0.060
69286W        W34271  27.099  41.069  13.514
69287W        W34272  29.911   0.821  13.928
69288W        W34273   9.366   6.513  11.540
69289W        W34274   5.155  40.067  12.782
69290W        W34275  41.784  27.738  10.900
69291W        W34276  23.034  20.071  11.062
69292W        W34277  12.163   0.545   1.771
69293W        W34278  42.482  22.691   2.663
69294W        W34279  28.015   9.803   3.620
69295W        W34280  13.149  39.041  10.303
69296W        W34281   3.711   1.227  14.585
69297W        W34282   3.159  13.198   2.790
69298W        W34283  10.026  20.060  11.441
69299W        W34284   8.744  42.591  13.458
69300W        W34285  10.821  29.020  14.991
69301W        W34286   9.058  16.733  14.439
69302W        W34287  18.676  34.119  14.298
69303W        W34288  19.177  43.466  13.354
69304W        W34289  33.498  29.458   4.578
69305W        W34290  19.598   3.089  14.365
69306W        W34291  19.039  34.914   1.506
69307W        W34292  17.550  10.307   3.289
69308W        W34293  41.619   1.859   1.842
69309W        W34294  33.335   6.295   0.328
69310W        W34295  20.166  14.792   2.364
69311W        W34296  11.080  25.108  14.870
69312W        W34297  23.666   5.825   2.670
69313W        W34298   4.206  12.293   4.531
69314W        W34299  13.667  36.688   3.016
69315W        W34300  32.280  17.499  12.448
69316W        W34301   5.806   7.776   3.758
69317W        W34302  40.103   0.077  13.706
69318W        W34303   2.850  33.335   3.142
69319W        W34304  23.261  37.342   3.181
69320W        W34305  31.158   1.799  11.391
69321W        W34306  26.776  38.824   5.003
69322W        W34307  37.337  29.002   2.305
69323W        W34308  36.004  16.278   3.861
69324W        W34309  23.621  10.582  13.898
69325W        W34310  20.933  22.084  14.923
69326W        W34311   4.510   0.958   2.206
69327W        W34312   9.680  23.277  11.575
69328W        W34313  27.135  36.264  11.197
69329W        W34314  20.019  29.302  11.004
69330W        W34315  23.385  44.298   3.197
69331W        W34316  36.558  31.391   1.778
69332W        W34317  31.688  22.617   3.043
69333W        W34318  12.970   7.519   0.810
69334W        W34319   7.098   5.820   3.579
69335W        W34320  40.654  43.263  11.210
69336W        W34321  21.639  13.766  13.471
69337W        W34322  23.645  11.907   2.826
69338W        W34323  12.727  34.221  12.987
69339W        W34324  44.467  18.763  11.143
69340W        W34325  38.815  20.433   2.180
69341W        W34326   4.788   6.425  13.620
69342W        W34327  40.067   8.785  14.556
69343W        W34328  36.575   8.377   4.263
69344W        W34329  10.347  16.549  13.991
69345W        W34330  26.005  44.553  10.833
69346W        W34331   7.291  43.760  11.111
69347W        W34332  18.308  24.223   0.911
69348W        W34333  37.996  16.566   2.740
69349W        W34334  42.869   8.425   5.009
69350W        W34335  31.623  19.133  10.602
69351W        W34336  16.585  23.565  10.633
69352W        W34337   2.468  31.973  14.304
69353W        W34338  21.713  28.515   3.229
69354W        W34339  28.703  21.117   1.981
69355W        W34340  18.189   4.932  13.426
69356W        W34341  33.494  15.923   2.306
69357W        W34342  39.653  12.289   4.540
69358W        W34343  25.746  33.705   2.262
69359W        W34344   8.506  11.416  11.287
69360W        W34345  22.578  18.530  12.931
69361W        W34346   6.255  12.692  12.555
69362W        W34347  18.309  27.233  14.868
69363W        W34348   8.788  15.116   4.355
69364W        W34349  10.077   1.151  11.639
69365W        W34350  16.061  34.044  14.400
69366W        W34351  16.610  27.248   0.293
69367W        W34352  24.909  20.277  11.929
69368W        W34353  34.449  44.678   4.717
69369W        W34354  18.206   2.852  14.392
69370W        W34355   1.752  26.010   3.245
69371W        W34356  17.078  37.503   3.110
69372W        W34357   7.381  21.119   4.268
69373W        W34358  28.054   5.490   1.530
69374W        W34359  26.703  20.598   4.790
69375W        W34360  13.211  42.034  12.356
69376W        W34361  18.591  19.223   1.683
69377W        W34362   8.113  10.959  11.967
69378W        W34363   5.090  34.518  12.403
69379W        W34364  28.527  26.746   0.091
69380W        W34365  24.142  15.798  14.371
69381W        W34366  22.606   3.782   4.335
69382W        W34367  22.131  40.522   1.541
69383W        W34368   7.813  38.394   3.139
69384W        W34369  17.398  39.434  12.059
69385W        W34370   5.635  21.029   1.637
69386W        W34371  43.019  11.830   1.386
69387W        W34372  15.573  17.681   2.601
69388W        W34373  36.872  30.958   1.759
69389W        W34374  12.625  17.351   3.076
69390W        W34375   0.180  26.637   2.076
69391W        W34376  12.698  15.720  14.859
69392W        W34377  16.699  12.653  11.460
69393W        W34378   7.481  36.881   0.977
69394W        W34379  41.022  38.118  12.389
69395W        W34380   2.225  15.342   4.268
69396W        W34381  14.753  14.344   5.045
69397W        W34382  21.809   3.289   2.347
69398W        W34383  38.095  14.284   0.262
69399W        W34384   9.935  37.527   1.705
69400W        W34385  28.374  16.850   3.493
69401W        W34386  34.633  19.053  11.588
69402W        W34387   3.434   0.482  11.015
69403W        W34388   7.158  40.504  12.874
69404W        W34389  19.831  34.091   0.230
69405W        W34390  12.926   1.813  11.477
69406W        W34391   0.795  14.303  14.724
69407W        W34392  30.527  42.525  10.972
69408W        W34393  44.256  25.165  11.573
69409W        W34394  22.721  38.878  10.354
69410W        W34395   7.429  17.670   4.172
69411W        W34396  17.601  34.788   4.092
69412W        W34397  15.753  31.174  13.342
69413W        W34398   3.327  13.216   1.428
69414W        W34399  18.514  18.733   1.425
69415W        W34400   4.727  39.413   0.340
69416W        W34401  32.588  16.275   0.315
69417W        W34402  33.002  43.011   2.401
69418W        W34403  32.170  28.673   2.161
69419W        W34404   2.695  15.567   2.747
69420W        W34405   8.953  17.110   3.129
69421W        W34406   6.317  43.016   4.535
69422W        W34407  29.886   4.028   0.920
69423W        W34408   8.704  37.661   3.685
69424W        W34409  27.429  39.517   4.129
69425W        W34410  21.781   3.366  12.020
69426W        W34411  29.383  37.033   4.593
69427W        W34412   1.616  40.430  14.331
69428W        W34413  42.286   8.313   3.365
69429W        W34414  36.179  31.659  11.512
69430W        W34415  19.298   9.092  14.006
69431W        W34416  16.862  21.315  12.011
69432W        W34417  25.125  17.974  13.299
69433W        W34418   5.658  19.571  13.371
69434W        W34419  44.075  23.456  10.320
69435W        W34420  37.767  33.761  13.371
69436W        W34421   3.788  23.021  14.209
69437W        W34422  44.250   1.355   1.953
69438W        W34423   4.068   7.774  10.592
69439W        W34424  33.425  28.406  12.666
69440W        W34425  44.775  33.579   1.940
69441W        W34426  35.311  30.375   3.899
69442W        W34427  40.882  30.192  10.745
69443W        W34428   8.090  13.740  12.036
69444W        W34429  22.662  29.025  11.226
69445W        W34430   4.603  36.879  13.486
69446W        W34431  13.618  18.915  13.377
69447W        W34432  31.433   7.168  11.111
69448W        W34433  35.185   6.409  12.027
69449W        W34434  17.545  38.247  12.341
69450W        W34435  18.770  31.227   4.988
69451W        W34436  41.391  25.478  13.731
69452W        W34437  42.278  32.272   0.381
69453W        W34438  25.449  10.672  11.527
69454W        W34439  23.540  33.127  13.450
69455W        W34440   2.955   7.738   3.836
69456W        W34441  31.056   9.882  11.984
69457W        W34442   9.493  38.774   3.243
69458W        W34443  33.664  27.747   1.374
69459W        W34444  11.823   0.014   4.312
69460W        W34445   6.930  11.231   1.466
69461W        W34446  20.658  35.191  14.324
69462W        W34447  16.145  42.876  14.937
69463W        W34448  27.613  28.970   2.668
69464W        W34449  39.948  35.939  10.929
69465W        W34450  33.405   1.978   4.279
69466W        W34451  15.075  30.518  13.860
69467W        W34452  16.699  37.088  13.955
69468W        W34453   5.899  21.058  14.852
69469W        W34454   8.792  16.123   2.144
69470W        W34455  34.943  13.202  13.486
69471W        W34456  19.422  23.560  13.872
69472W        W34457   8.233  42.688  12.949
69473W        W34458  27.591  22.205   4.739
69474W        W34459   5.671   1.248  11.088
69475W        W34460  35.296   7.295  12.606
69476W        W34461   2.710  43.318   2.094
69477W        W34462  10.716  41.507   1.184
69478W        W34463  25.868  44.457  12.509
69479W        W34464  32.155  33.557   1.287
69480W        W34465  38.684  29.018   0.186
69481W        W34466   8.352   8.873  13.096
69482W        W34467  24.146  29.273  10.656
69483W        W34468  32.528  10.721  11.982
69484W        W34469   6.287  33.243  13.319
69485W        W34470   2.249   8.835  11.570
69486W        W34471  12.744  31.101   2.219
69487W        W34472  17.258  23.597   2.162
69488W        W34473  20.529  28.938  11.096
69489W        W34474  38.192   2.274   4.677
69490W        W34475  17.240  32.385  11.457
69491W        W34476  31.089  21.493  11.376
69492W        W34477  26.491  42.526  12.585
69493W        W34478  22.907  16.974   3.127
69494W        W34479  34.167  10.304   1.866
69495W        W34480  39.391  36.864   0.905
69496W        W34481  43.287  20.177  14.875
69497W        W34482  19.213   4.260   1.660
69498W        W34483  18.144   0.849  10.765
69499W        W34484  36.831   2.491  11.209
69500W        W34485  39.518  14.823   1.883
69501W        W34486   3.851  33.422  12.798
69502W        W34487  33.205  23.502  11.241
69503W        W34488  20.566  16.767   1.416
69504W        W34489   7.397   5.743   3.156
69505W        W34490   6.032  36.443   3.281
69506W        W34491  34.810   1.318   3.739
69507W        W34492   9.626   8.678  11.096
69508W        W34493   9.657  43.554   2.140
69509W        W34494  39.293   2.692   2.679
69510W        W34495  11.733  28.149   2.640
69511W        W34496  14.744  27.955  12.996
69512W        W34497  26.603  44.058   2.625
69513W        W34498  26.024  43.523  13.532
69514W        W34499  32.078  15.824   2.061
69515W        W34500  44.739   2.224   2.382
69516W        W34501   6.718  32.211   0.920
69517W        W34502  34.099  33.165  14.486
69518W        W34503  43.567  32.542   0.583
69519W        W34504   1.330  26.150  12.369
69520W        W34505  16.634  21.281   3.584
69521W        W34506   6.199  30.028   2.607
69522W        W34507  37.867  17.352   3.175
69523W        W34508  38.835  43.431   3.584
69524W        W34509   1.812  14.247   4.427
69525W        W34510  37.097  28.369  12.359
69526W        W34511   1.110   7.933  12.620
69527W        W34512  25.887  43.779  13.071
69528W        W34513  41.986  13.389   1.391
69529W        W34514  34.341   1.421   0.238
69530W        W34515  16.237  23.696   4.042
69531W        W34516  12.220  28.261  14.378
69532W        W34517  24.131  21.288   3.220
69533W        W34518  34.044  27.078  14.922
69534W        W34519  28.192  13.253   4.985
69535W        W34520  15.417  17.970  12.091
69536W        W34521   8.816   4.962   5.098
69537W        W34522  26.437  34.950  11.035
69538W        W34523  35.478  37.590   3.922
69539W        W34524  23.694  22.623  10.190
69540W        W34525  17.211  40.567   2.832
69541W        W34526  37.972   3.360   5.142
69542W        W34527  15.853  34.835  12.298
69543W        W34528  26.954  26.711  13.876
69544W        W34529  33.180  25.081   0.948
69545W        W34530  40.937  15.622  11.946
69546W        W34531  10.983  39.886  14.421
69547W        W34532  16.556   9.811   2.348
69548W        W34533  15.834  34.719  11.115
69549W        W34534   4.251   1.423  11.914
69550W        W34535  17.694  43.441   1.778
69551W        W34536  33.583  15.726   3.175
69552W        W34537  42.880  19.785  14.032
69553W        W34538  18.688  29.030   0.643
69554W        W34539  20.543  15.410  10.798
69555W        W34540  11.317  36.980  11.525
69556W        W34541  17.807  39.186   3.193
69557W        W34542  31.055  21.121  10.666
69558W        W34543  26.238  24.639  13.420
69559W        W34544  19.316  25.309   3.334
69560W        W34545  16.037  18.276   2.994
69561W        W34546  35.003  30.114   1.132
69562W        W34547  36.375  20.454   4.590
69563W        W34548  26.699   9.411  11.403
69564W        W34549  13.268  40.585  12.673
69565W        W34550   5.775  29.219   1.714
69566W        W34551  40.961  21.005  11.142
69567W        W34552  33.940  24.012  12.855
69568W        W34553  22.137   2.933   4.684
69569W        W34554  32.162  37.827   4.015
69570W        W34555  24.866  24.575   4.730
69571W        W34556  13.607  36.925  12.883
69572W        W34557  19.743   5.922  11.492
69573W        W34558  24.378  20.612  11.180
69574W        W34559  40.396  22.957  13.362
69575W        W34560  22.724  31.067  14.807
69576W        W34561  35.366  19.699   2.756
69577W        W34562  13.118  35.611  13.914
69578W        W34563   5.181   7.738  14.514
69579W        W34564  43.477   9.949   0.759
69580W        W34565  19.697  41.170  10.846
69581W        W34566  41.457  29.504   3.428
69582W        W34567  33.524  17.846   1.225
69583W        W34568   8.355  27.829  11.030
69584W        W34569  27.970   4.314   0.747
69585W        W34570  19.516   0.682   2.690
69586W        W34571   3.238  42.988  14.115
69587W        W34572  22.236  29.965  13.498
69588W        W34573  28.126  21.746   0.258
69589W        W34574  40.883  44.812  10.746
69590W        W34575  28.345  31.087  13.610
69591W        W34576  24.025  12.141   2.584
69592W        W34577  19.244  38.530   3.332
69593W        W34578  20.176  22.997  13.410
69594W        W34579  13.168   4.810   1.230
69595W        W34580  35.590  38.576  12.081
69596W        W34581   3.009  10.963   1.885
69597W        W34582  34.286  39.476  14.735
69598W        W34583   2.019  16.624  12.135
69599W        W34584  41.280  15.997   2.272
69600W        W34585  13.001   2.375   1.253
69601W        W34586  13.829  27.433  12.994
69602W        W34587   4.845   5.757   0.353
69603W        W34588  10.726  13.343  11.798
69604W        W34589   7.332  14.361  12.430
69605W        W34590   8.137  20.529  15.000
69606W        W34591  20.284  37.224  12.456
69607W        W34592  40.998  31.266  10.746
69608W        W34593   4.139   5.441  12.836
69609W        W34594  15.854  11.175  13.325
69610W        W34595  11.698  36.024   0.830
69611W        W34596  41.936  38.417  14.985
69612W        W34597  17.329  32.273  13.566
69613W        W34598   8.471   9.994  10.196
69614W        W34599  38.518  40.828   4.037
69615W        W34600  30.118   0.409   2.801
69616W        W34601  20.720  19.772   3.328
69617W        W34602  29.114  21.581   4.069
69618W        W34603   6.215  37.140  12.212
69619W        W34604  31.488  25.041  11.867
69620W        W34605   4.321  25.090   0.744
69621W        W34606  20.809  29.502  14.536
69622W        W34607  14.128  31.882  13.876
69623W        W34608  20.200   5.536   3.719
69624W        W34609  35.986  27.939  11.629
69625W        W34610  34.024  19.897  11.300
69626W        W34611  21.072   9.406  12.222
69627W        W34612  44.005  28.618  13.778
69628W        W34613  42.267  13.793   3.705
69629W        W34614  15.687   1.660   1.165
69630W        W34615  42.585  18.959   3.726
69631W        W34616  19.253   7.152   0.005
69632W        W34617   4.490  17.177  14.772
69633W        W34618  40.651  21.160  13.545
69634W        W34619  34.963  35.098   1.127
69635W        W34620  19.175   7.909   4.100
69636W        W34621  22.447  41.267   4.214
69637W        W34622  21.591  19.285   3.671
69638W        W34623   7.387   3.641   3.598
69639W        W34624  21.703  20.282  11.227
69640W        W34625  40.039  31.882   3.644
69641W        W34626  34.282  40.805   0.793
69642W        W34627  17.172  42.005   3.336
69643W        W34628  25.743  15.837  14.487
69644W        W34629  12.920  40.168   1.693
69645W        W34630  26.688   1.255   4.030
69646W        W34631  23.193  10.321  14.079
69647W        W34632  43.938  15.650   0.503
69648W        W34633  38.986   0.234   3.362
69649W        W34634  37.597  35.767  10.570
69650W        W34635  29.630   9.450  10.707
69651W        W34636  27.073  24.716  11.412
69652W        W34637  38.092  19.289  14.849
69653W        W34638  27.985  12.492  13.787
69654W        W34639  43.282  15.560   4.191
69655W        W34640   9.152  34.314  13.962
69656W        W34641  44.035  11.231   2.611
69657W        W34642   3.798  42.761  12.463
69658W        W34643  12.115  10.539   0.596
69659W        W34644  11.596  35.516  14.491
69660W        W34645  41.207  15.656   1.306
69661W        W34646   0.496  38.662   0.072
69662W        W34647  16.220  16.020  11.117
69663W        W34648   7.129  23.105  12.397
69664W        W34649  25.530  18.656   2.500
69665W        W34650  13.195   9.926  10.475
69666W        W34651  31.959  15.359   1.818
69667W        W34652  16.281   4.165   2.795
69668W        W34653  43.193   5.950   2.278
69669W        W34654  13.331  42.898  14.187
69670W        W34655  42.336  41.868  10.738
69671W        W34656  44.101  13.179  11.448
69672W        W34657  18.210   5.696  13.902
69673W        W34658  26.986  22.303  14.785
69674W        W34659   2.133  29.095   3.326
69675W        W34660  23.752  21.708  11.026
69676W        W34661   9.922  18.838  12.982
69677W        W34662   1.490  24.030  12.406
69678W        W34663  16.956   3.936   0.412
69679W        W34664  15.757  14.361  14.003
69680W        W34665  20.216   8.354  13.524
69681W        W34666   8.765  37.874   4.507
69682W        W34667   2.691  16.601  14.987
69683W        W34668  35.372  21.941   1.869
69684W        W34669  34.967  36.851  10.636
69685W        W34670  36.087  25.464   4.627
69686W        W34671   3.062  21.005   4.229
69687W        W34672  25.230  21.515   0.721
69688W        W34673  10.280   3.887   0.973
69689W        W34674  41.006   2.620   4.544
69690W        W34675  31.498  26.658   2.339
69691W        W34676  25.977  23.174   4.305
69692W        W34677  26.673  24.291   0.688
69693W        W34678  34.809  14.487   4.512
69694W        W34679  26.155  18.139   1.030
69695W        W34680   1.430   6.479  13.495
69696W        W34681  12.824   1.819   1.822
69697W        W34682  20.971  35.188  11.345
69698W        W34683   7.543  32.068  10.485
69699W        W34684   4.797  28.593  11.389
69700W        W34685  15.447   9.132  14.854
69701W        W34686  20.591  24.996  14.465
69702W        W34687  43.649  27.671   4.722
69703W        W34688  20.100  41.025   2.852
69704W        W34689  18.579  33.434   1.187
69705W        W34690  36.560   1.102   0.891
69706W        W34691  37.592   7.810  10.878
69707W        W34692  35.920  28.064   2.510
69708W        W34693  19.537  16.645   4.118
69709W        W34694  12.342   7.163  11.087
69710W        W34695  14.078   2.291  14.800
69711W        W34696  28.511  42.750  13.244
69712W        W34697   3.050  26.933   1.719
69713W        W34698  34.328  14.769   3.782
69714W        W34699  40.618  30.950   2.283
69715W        W34700  43.869  19.199   3.863
69716W        W34701  32.711  43.515   1.160
69717W        W34702  35.442  34.477   3.358
69718W        W34703   9.195   9.909   3.285
69719W        W34704   0.894  12.414  13.606
69720W        W34705  40.660   2.793   4.896
69721W        W34706  38.320  41.582  12.427
69722W        W34707  21.729  29.294   0.481
69723W        W34708  36.364   0.999  10.669
69724W        W34709  14.107  27.323   9.767
69725W        W34710  32.581  19.297  13.313
69726W        W34711  12.288  12.335  13.430
69727W        W34712  14.872  22.232  13.912
69728W        W34713  16.237  32.477  11.547
69729W        W34714  40.342   0.934   0.814
69730W        W34715  19.433  23.303   4.591
69731W        W34716   0.282   7.730   2.876
69732W        W34717  15.598  15.177   1.772
69733W        W34718  20.742  36.533  11.657
69734W        W34719  35.069  23.540  12.573
69735W        W34720  17.824  41.731   0.421
69736W        W34721  34.606  24.616  14.012
69737W        W34722  40.805  21.025   4.944
69738W        W34723  19.578  15.157   2.739
69739W        W34724   5.213  39.877  12.149
69740W        W34725  24.742  15.646  12.684
69741W        W34726  13.299  23.363   2.233
69742W        W34727  17.925  17.608  11.935
69743W        W34728  15.641  19.088  13.061
69744W        W34729   1.712  26.111  10.785
69745W        W34730   3.908   8.849  11.601
69746W        W34731  42.159  15.935   9.856
69747W        W34732  32.159  23.678  10.817
69748W        W34733  29.981  25.864  12.491
69749W        W34734  40.128  39.450  11.093
69750W        W34735   8.847   9.182   1.006
69751W        W34736  28.556  32.262  11.966
69752W        W34737   7.642  21.789   4.083
69753W        W34738  23.874   2.016   3.664
69754W        W34739  16.453  14.006   0.085
69755W        W34740  42.936  34.283   4.531
69756W        W34741   7.804  23.254   1.430
69757W        W34742  17.721  33.512   2.150
69758W        W34743   0.499   7.723   0.613
69759W        W34744  39.739  37.955  14.501
69760W        W34745  26.897  43.112  12.044
69761W        W34746  30.015  35.958   4.276
69762W        W34747  22.922  43.402  12.059
69763W        W34748  44.008  34.010  10.510
69764W        W34749   7.756  27.642   0.967
69765W        W34750  26.685  17.337   1.448
69766W        W34751  36.547  20.906   4.767
69767W        W34752  39.378   0.018   0.702
69768W        W34753  18.628  41.269  11.670
69769W        W34754   5.733  22.963  12.882
69770W        W34755  24.326   4.358   0.366
69771W        W34756  16.061  35.288  11.217
69772W        W34757   5.953  17.073   1.234
69773W        W34758  16.867  10.300   1.568
69774W        W34759  26.012  40.427   0.505
69775W        W34760   0.687  30.258   4.086
69776W        W34761  32.934  24.936  11.452
69777W        W34762  10.857  44.363   0.834
69778W        W34763  23.087  27.357   2.173
69779W        W34764  40.169  20.036  12.309
69780W        W34765  27.708  27.967   3.706
69781W        W34766  20.141   4.976   2.910
69782W        W34767   7.145  21.847  14.531
69783W        W34768   0.498  14.095   0.981
69784W        W34769   0.648  37.455  10.019
69785W        W34770  36.109  40.589   5.176
69786W        W34771   8.651  23.130   4.124
69787W        W34772   3.843  21.781   1.444
69788W        W34773  32.587   9.223  12.014
69789W        W34774  35.549  17.960  14.222
69790W        W34775  20.315  34.649   1.475
69791W        W34776  10.617   5.371   3.326
69792W        W34777  34.571  12.503   3.056
69793W        W34778  32.705   1.446   2.737
69794W        W34779  30.495  28.488  10.894
69795W        W34780  33.590   8.889   0.205
69796W        W34781  22.740  13.860   1.737
69797W        W34782   3.795  23.001  12.441
69798W        W34783  26.481  44.617   4.711
69799W        W34784  13.039  21.383  11.283
69800W        W34785  22.972  10.732  14.333
69801W        W34786  34.428  14.079   2.409
69802W        W34787  17.550   8.923  10.229
69803W        W34788  20.698   4.905  11.108
69804W        W34789  20.002  26.629   0.503
69805W        W34790  16.286   7.450  12.596
69806W        W34791  39.735   1.953  11.808
69807W        W34792  35.636  39.271   1.620
69808W        W34793   8.801   1.918  14.318
69809W        W34794  26.940  17.450   0.237
69810W        W34795  37.282  40.544   2.828
69811W        W34796  32.008  41.010  11.226
69812W        W34797  24.669  24.018   2.676
69813W        W34798  14.796  24.072   4.571
69814W        W34799   7.416  38.915   2.235
69815W        W34800  22.912   3.446  10.612
69816W        W34801  33.057  31.707  10.992
69817W        W34802  18.746  12.817  12.606
69818W        W34803  34.151  10.113   2.357
69819W        W34804  28.838   3.488   3.042
69820W        W34805  41.597  23.194  12.653
69821W        W34806  20.260   1.304   3.598
69822W        W34807   7.329  21.364   2.882
69823W        W34808  15.583  29.182  12.688
69824W        W34809   4.052   2.274  11.979
69825W        W34810   5.941   5.819   1.864
69826W        W34811  14.839   7.069  10.620
69827W        W34812  18.842  27.170  14.274
69828W        W34813   6.629  12.718   1.905
69829W        W34814  12.153  36.534  11.583
69830W        W34815  13.112   4.761   3.501
69831W        W34816   6.466  36.852   3.250
69832W        W34817  27.651   7.651   4.239
69833W        W34818  22.443  16.398  11.500
69834W        W34819  44.031  17.710  13.480
69835W        W34820   5.186  26.100   4.924
69836W        W34821  28.135  41.307   4.013
69837W        W34822  10.603  22.534  11.566
69838W        W34823  36.579  15.752   4.159
69839W        W34824  27.014  34.293  12.440
69840W        W34825  24.946  26.693  14.799
69841W        W34826  42.999  19.069   1.514
69842W        W34827  35.470  37.750   0.883
69843W        W34828  12.780  37.998   4.618
69844W        W34829  25.077  20.095   0.629
69845W        W34830   4.178   6.922   5.086
69846W        W34831  25.535   0.321  10.534
69847W        W34832  37.068  11.546  12.129
69848W        W34833  29.298   3.472   0.205
69849W        W34834  24.759  24.430   4.187
69850W        W34835  19.278  22.239  14.158
69851W        W34836  34.455  29.312  10.785
69852W        W34837  29.596  15.108  11.191
69853W        W34838  13.236  42.414   2.087
69854W        W34839  33.092  26.244   2.797
69855W        W34840  34.286  39.641   4.153
69856W        W34841  14.170  32.629   2.513
69857W        W34842  39.947  44.201   0.362
69858W        W34843  22.676  25.379  13.748
69859W        W34844  27.065   7.116   1.739
69860W        W34845   6.776   7.905  13.372
69861W        W34846  32.402  18.754  10.787
69862W        W34847  12.438  12.089  11.749
69863W        W34848  32.974  19.285   3.282
69864W        W34849  29.022  30.409   4.173
69865W        W34850  28.144   4.246   0.280
69866W        W34851  35.455  44.671   0.429
69867W        W34852   9.707   1.316  14.077
69868W        W34853  13.164  11.722  11.170
69869W        W34854  32.932   6.991  11.561
69870W        W34855  11.790  11.696   1.395
69871W        W34856  26.505  43.093  11.153
69872W        W34857   2.568  38.963  10.219
69873W        W34858  33.960  37.140  14.525
69874W        W34859  10.697   0.318   0.933
69875W        W34860   7.177  42.174  14.031
69876W        W34861  37.998   5.010  11.046
69877W        W34862  18.853  32.088   4.535
69878W        W34863   3.633  18.715  14.479
69879W        W34864  13.192  32.548   1.437
69880W        W34865  14.467  29.958  13.465
69881W        W34866  39.977  24.171  11.061
69882W        W34867  12.230  29.436  13.548
69883W        W34868   4.837   3.890   3.118
69884W        W34869   7.358  38.368   4.424
69885W        W34870  26.646  33.169  12.665
69886W        W34871  15.223  31.594   0.333
69887W        W34872  27.375   8.304  13.517
69888W        W34873  18.570  16.886   3.597
69889W        W34874  20.950   0.173  10.648
69890W        W34875  15.294  27.615   3.338
69891W        W34876  33.142   4.101   4.767
69892W        W34877  37.957  10.461  12.819
69893W        W34878  40.397  30.049  10.556
69894W        W34879  13.844  44.583   2.882
69895W        W34880  36.060  26.526   3.087
69896W        W34881  38.332  15.732  13.175
69897W        W34882   9.324   0.226  12.897
69898W        W34883  27.211  31.365   1.308
69899W        W34884  32.516  42.280   2.319
69900W        W34885  10.818  34.984   0.188
69901W        W34886   9.264   8.861   0.798
69902W        W34887  44.080   0.195  12.092
69903W        W34888  43.292   6.808  11.910
69904W        W34889   7.651  42.393   3.736
69905W        W34890   6.334  35.593  12.089
69906W        W34891  16.280   1.709   4.211
69907W        W34892  37.923  31.094  10.419
69908W        W34893  42.338  39.551   5.460
69909W        W34894  25.409  39.349   3.670
69910W        W34895  27.514  17.641  13.146
69911W        W34896  17.811  18.188  14.008
69912W        W34897  12.589   2.757   3.432
69913W        W34898  38.913  42.921  14.989
69914W        W34899  33.348  22.894   5.085
69915W        W34900  27.349  38.465  13.176
69916W        W34901  38.395  14.710  14.991
69917W        W34902  21.647   9.523   2.325
69918W        W34903  23.399   2.474   4.438
69919W        W34904   7.671  10.170  10.674
69920W        W34905  33.825  14.617   2.535
69921W        W34906  37.380   7.169   2.674
69922W        W34907  12.336  33.232   2.268
69923W        W34908   0.209  20.075  13.542
69924W        W34909  41.831  10.807  10.448
69925W        W34910   1.185  13.741  11.601
69926W        W34911   1.381  40.359   4.927
69927W        W34912   6.412  10.101  14.967
69928W        W34913   3.650  14.173   3.750
69929W        W34914  14.200  25.067   0.734
69930W        W34915  32.973  28.204   4.256
69931W        W34916  26.002  15.016   0.809
69932W        W34917  10.452   4.458   3.646
69933W        W34918   3.025  16.736   1.822
69934W        W34919   2.073  22.654  11.160
69935W        W34920   9.071   8.231  12.997
69936W        W34921  24.540  27.174   0.458
69937W        W34922  29.684  34.115   2.781
69938W        W34923  18.572  37.280  11.115
69939W        W34924  36.399  13.889  11.579
69940W        W34925  14.227   2.456  12.370
69941W        W34926  25.484  13.870  13.440
69942W        W34927  21.315  23.192   5.243
69943W        W34928   7.876   6.932  13.537
69944W        W34929   3.034  40.287   3.148
69945W        W34930  18.532   3.208   0.489
69946W        W34931  39.766  16.849   9.597
69947W        W34932   5.423  32.659   3.690
69948W        W34933  39.613  44.553   2.076
69949W        W34934   8.609  31.025  10.361
69950W        W34935  17.306  37.533   4.527
69951W        W34936  37.688   8.392   1.885
69952W        W34937  33.759  23.199   0.835
69953W        W34938  39.416  16.392  10.311
69954W        W34939  10.741  23.450   2.721
69955W        W34940  36.088  26.022   2.967
69956W        W34941  12.339  20.266   1.127
69957W        W34942   3.782  33.507   1.766
69958W        W34943   8.760   9.093  13.351
69959W        W34944   6.635  27.753   1.209
69960W        W34945  22.276  27.224  14.885
69961W        W34946  19.506  27.612   2.460
69962W        W34947  40.848  30.659   3.269
69963W        W34948  25.800  28.584   0.318
69964W        W34949   0.261  37.141  12.987
69965W        W34950  25.250  26.415  14.386
69966W        W34951  33.949  40.354  12.558
69967W        W34952  10.009  10.198   4.182
69968W        W34953  28.885  37.102  13.222
69969W        W34954  25.907  34.843   0.327
69970W        W34955  21.709  39.628  13.680
69971W        W34956   1.796   6.957  11.151
69972W        W34957  15.573  20.913  13.612
69973W        W34958   6.374   5.804   2.187
69974W        W34959  27.053   7.044   2.244
69975W        W34960  15.477  41.918   0.261
69976W        W34961  32.666  37.113   0.911
69977W        W34962   0.867   8.531  13.888
69978W        W34963  26.698  20.620  12.108
69979W        W34964  28.144  22.226  14.466
69980W        W34965  16.651  15.573   1.785
69981W        W34966  41.241  44.447  13.412
69982W        W34967   5.320  35.021  13.088
69983W        W34968  33.975  33.001   2.578
69984W        W34969  35.037  19.313   1.424
69985W        W34970  43.556  12.848  11.767
69986W        W34971  15.023  16.170  10.728
69987W        W34972  33.096  38.923   4.082
69988W        W34973  18.800  40.298   2.561
69989W        W34974   2.330   1.016  11.217
69990W        W34975  39.523  37.311   1.142
69991W        W34976  35.434  33.097   0.271
69992W        W34977   2.923  28.156  13.006
69993W        W34978  24.716  27.013  14.448
69994W        W34979  25.546   7.844  13.601
69995W        W34980   8.536  40.071   4.537
69996W        W34981  29.545  40.810   1.304
69997W        W34982  12.163  36.346   0.970
69998W        W34983  16.755  42.417  10.896
69999W        W34984  28.695   1.225  11.528
70000W        W34985  34.849  40.441  14.782
70001W        W34986   4.421  31.618  13.033
70002W        W34987  23.126  15.991  11.151
70003W        W34988   3.947  21.989   3.075
70004W        W34989  32.829  28.643  10.568
70005W        W34990  22.170  31.435  10.717
70006W        W34991  11.370   0.497  11.140
70007W        W34992  20.411  43.377   1.835
70008W        W34993  24.621  23.985   3.188
70009W        W34994  27.015  23.255   3.148
70010W        W34995  37.573  14.237   3.691
70011W        W34996  31.150  16.027  12.324
70012W        W34997  41.251   3.986   0.797
70013W        W34998  19.637  25.701   4.696
70014W        W34999  13.877  31.001   3.716
70015W        W35000  16.734  37.412   4.933
70016W        W35001   9.440  22.827   3.126
70017W        W35002  25.647  25.945   4.092
70018W        W35003  41.606  21.241   1.231
70019W        W35004  44.598  21.078  10.930
70020W        W35005  10.800   5.477  12.751
70021W        W35006   2.863  29.377   3.808
70022W        W35007   0.354   8.264   1.786
70023W        W35008   3.300  22.005   4.503
70024W        W35009  22.473  13.777  14.479
70025W        W35010  39.733   3.497   4.377
70026W        W35011  13.900  10.790   3.348
70027W        W35012  16.645  16.092   0.339
70028W        W35013  22.215   1.039   3.852
70029W        W35014   8.068   3.189   5.403
70030W        W35015   9.762  18.966   0.485
70031W        W35016  31.020  32.820  11.112
70032W        W35017  29.466   5.359   1.315
70033W        W35018  41.285  28.830   0.783
70034W        W35019  20.155   3.353  11.404
70035W        W35020  13.616  27.936  10.296
70036W        W35021  11.155  36.871   2.288
70037W        W35022  28.653  29.823  11.100
70038W        W35023  35.222  32.289  13.099
70039W        W35024   1.474  11.507  14.776
70040W        W35025   8.903  13.578   3.395
70041W        W35026   4.719   6.039  10.756
70042W        W35027   2.969  41.238  12.484
70043W        W35028  42.765   6.198   0.967
70044W        W35029  26.266  32.369  12.425
70045W        W35030  27.910  13.076  13.088
70046W        W35031  21.138  12.936   0.950
70047W        W35032  40.552  32.126  14.110
70048W        W35033  17.936   3.127   1.152
70049W        W35034  43.937  10.165   2.464
70050W        W35035   7.706   8.119  12.840
70051W        W35036   9.956  37.888   0.354
70052W        W35037  29.988  35.040   4.818
70053W        W35038  12.789  25.757  11.032
70054W        W35039   4.288   3.966   2.815
70055W        W35040  39.811  23.096   0.261
70056W        W35041   3.755  43.267   0.834
70057W        W35042  22.151  41.532  12.673
70058W        W35043  31.484   1.547   0.901
70059W        W35044  25.409  15.351   1.441
70060W        W35045  29.597  17.205   0.311
70061W        W35046  20.887  35.077   0.163
70062W        W35047  16.173  17.870  10.152
70063W        W35048  41.380   5.492   1.360
70064W        W35049  28.693  43.718  12.531
70065W        W35050  28.918   7.521  12.459
70066W        W35051   5.913  21.199  13.525
70067W        W35052  25.978   5.028   4.650
70068W        W35053  30.209  15.376   0.343
70069W        W35054  40.499  27.060   0.465
70070W        W35055  36.034  13.631   3.193
70071W        W35056  20.485  22.263  12.476
70072W        W35057  39.660  28.628  10.270
70073W        W35058  13.527   1.487   2.206
70074W        W35059   7.130  35.886  11.577
70075W        W35060  17.844  28.457   1.354
70076W        W35061  36.569   4.513  14.013
70077W        W35062  20.257   3.779  11.894
70078W        W35063  36.832  30.597  14.992
70079W        W35064   8.477  25.569   1.755
70080W        W35065  16.779  19.994  11.525
70081W        W35066   8.067  25.927   1.114
70082W        W35067  23.168  39.103  11.062
70083W        W35068  18.922   1.475  13.448
70084W        W35069   1.393  27.491  13.580
70085W        W35070  38.558   3.639  11.203
70086W        W35071  10.663  39.843  10.948
70087W        W35072   1.964  30.877  10.591
70088W        W35073  13.106   3.443   3.705
70089W        W35074  40.936   3.519  11.028
70090W        W35075  38.403   0.301  10.874
70091W        W35076  34.643  31.010   3.420
70092W        W35077  27.340  43.334   4.163
70093W        W35078  40.427  36.804   1.833
70094W        W35079   8.106  22.773  14.985
70095W        W35080  25.184  38.549  14.673
70096W        W35081  15.609   4.197  11.856
70097W        W35082  22.558  37.782   2.681
70098W        W35083  37.478   2.878   4.619
70099W        W35084  21.124   3.798  11.837
70100W        W35085  18.233  16.836  12.368
70101W        W35086  24.163   1.002   0.358
70102W        W35087  38.633   8.961  11.269
70103W        W35088  32.572  28.117   2.320
70104W        W35089  25.017  35.060  14.905
70105W        W35090  14.624  22.686  13.873
70106W        W35091  34.493  14.428  11.456
70107W        W35092  42.971   7.666   3.287
70108W        W35093  27.849  33.588  11.619
70109W        W35094  39.459  28.628  11.931
70110W        W35095   8.557   9.666   5.597
70111W        W35096  22.175  25.197  12.421
70112W        W35097   9.721  15.663  12.401
70113W        W35098  34.509  10.899   1.169
70114W        W35099  27.533  37.412   3.282
70115W        W35100  36.859  36.935   3.316
70116W        W35101  40.451  35.915  12.496
70117W        W35102   8.448  40.578   1.860
70118W        W35103  44.209  29.573   2.368
70119W        W35104  31.644  37.327  12.549
70120W        W35105  41.325  31.669   1.333
70121W        W35106  26.090   2.947  12.999
70122W        W35107  37.800  24.679   1.358
70123W        W35108  23.456  30.019   4.068
70124W        W35109  41.284  25.678   1.952
70125W        W35110  24.021  14.790  14.425
70126W        W35111  36.106  10.601  13.326
70127W        W35112   1.817  42.885   0.236
70128W        W35113  26.982  28.885   0.660
70129W        W35114  19.987  24.531   2.349
70130W        W35115  43.290  25.916   1.678
70131W        W35116   6.120  22.710  14.007
70132W        W35117  38.471  43.087   3.824
70133W        W35118  44.763  31.133  13.744
70134W        W35119  30.037   6.711  14.220
70135W        W35120  40.599   1.892   1.771
70136W        W35121  39.950  13.336   3.659
70137W        W35122  26.872  27.415  11.758
70138W        W35123  42.723   2.492  11.033
70139W        W35124  39.058   3.185  10.303
70140W        W35125  11.104  22.722  11.553
70141W        W35126  11.100  41.810  14.959
70142W        W35127  40.422  23.460   2.625
70143W        W35128   0.048  31.930  11.494
70144W        W35129  13.257  13.209   1.345
70145W        W35130  41.623  21.117  13.773
70146W        W35131   7.914  37.578   4.113
70147W        W35132  39.245  30.752   4.146
70148W        W35133   7.475   9.855  13.138
70149W        W35134   8.042  22.805   3.214
70150W        W35135  28.837  16.209   3.595
70151W        W35136  26.435  19.659   2.803
70152W        W35137  31.461  22.324  12.952
70153W        W35138   8.938  37.576   4.126
70154W        W35139  43.713  40.310  10.669
70155W        W35140   8.612  25.037  11.266
70156W        W35141  11.804  32.704   1.295
70157W        W35142  22.551  40.468   3.631
70158W        W35143  24.323  24.613  13.464
70159W        W35144  25.739  22.662  14.867
70160W        W35145  26.558  33.704  12.708
70161W        W35146  40.497  22.998   3.782
70162W        W35147   7.283  18.558  12.398
70163W        W35148  26.008   9.605  13.925
70164W        W35149   0.845  13.359   3.684
70165W        W35150  42.364  42.536  12.596
70166W        W35151  44.482  18.955  11.626
70167W        W35152  27.538  19.391   0.920
70168W        W35153  14.241   4.941   3.243
70169W        W35154  35.534   8.719  14.783
70170W        W35155  13.614  32.207  12.307
70171W        W35156  29.028  20.257  12.089
70172W        W35157  22.767  31.996  11.743
70173W        W35158  39.053  12.609  11.449
70174W        W35159  39.080   9.660   0.166
70175W        W35160  30.368  33.401  10.797
70176W        W35161  17.123  16.690   4.981
70177W        W35162  20.054  23.584  12.556
70178W        W35163  25.658   1.843  13.096
70179W        W35164  10.528  38.510   1.294
70180W        W35165  17.273  12.988  10.342
70181W        W35166  10.936  38.898   0.423
70182W        W35167  10.153  43.458   3.818
70183W        W35168  20.704  11.678   1.278
70184W        W35169  31.405  18.713  11.723
70185W        W35170  27.896  44.789  12.561
70186W        W35171  43.322  30.722  12.991
70187W        W35172  11.402  33.823   4.221
70188W        W35173   8.086   7.452   4.997
70189W        W35174  18.870  35.987  14.341
70190W        W35175  24.088  44.426   3.630
70191W        W35176  41.992  18.244   3.564
70192W        W35177  29.375  38.989  11.463
70193W        W35178   6.636  21.281  11.663
70194W        W35179  36.825  41.076   0.244
70195W        W35180  23.813  32.720   0.932
70196W        W35181  35.957  19.470  11.936
70197W        W35182  26.128   5.918   3.360
70198W        W35183  14.244   9.437  14.219
70199W        W35184  13.328  26.766   2.755
70200W        W35185   9.919  39.891   0.422
70201W        W35186  24.717  25.147  12.580
70202W        W35187  23.608  31.476   1.568
70203W        W35188   7.835  36.474  10.455
70204W        W35189   9.449  15.621  14.037
70205W        W35190  32.329  33.052  12.878
70206W        W35191  24.650  18.107  13.459
70207W        W35192  10.612  25.556   1.228
70208W        W35193  24.501  41.085   4.553
70209W        W35194  31.862  14.378   4.662
70210W        W35195  28.723  26.032   3.365
70211W        W35196   7.185  22.566  10.695
70212W        W35197  39.113  32.425  12.582
70213W        W35198   0.916  40.125   4.866
70214W        W35199   0.261  21.713   3.825
70215W        W35200  25.059  34.429   0.235
70216W        W35201  13.234  25.391  11.451
70217W        W35202  35.127  23.917  11.644
70218W        W35203  39.019  33.350  11.598
70219W        W35204   7.403  34.150   4.571
70220W        W35205  32.903  23.859   3.696
70221W        W35206  27.182  12.406  14.900
70222W        W35207  27.045  36.601  12.403
70223W        W35208  39.516  41.480  13.807
70224W        W35209  10.349  18.809  11.153
70225W        W35210  28.997  42.792   1.665
70226W        W35211  40.729  37.030   3.759
70227W        W35212  10.191  31.148   4.251
70228W        W35213  26.040  44.539   0.427
70229W        W35214   8.225   3.281   4.739
70230W        W35215   2.597  10.609   4.390
70231W        W35216  17.785  15.281  10.723
70232W        W35217  11.373  28.136  11.916
70233W        W35218  18.532   0.804   1.852
70234W        W35219  11.242  12.448   2.085
70235W        W35220  36.459  28.055  14.882
70236W        W35221   6.609  31.286  12.038
70237W        W35222  19.785  33.116   1.716
70238W        W35223  42.417  25.724   3.477
70239W        W35224  43.850   7.359   4.555
70240W        W35225  19.144  39.373  13.807
70241W        W35226  41.248  38.096   1.453
70242W        W35227   7.650   8.205  13.345
70243W        W35228  34.911   7.164   0.021
70244W        W35229  12.629   5.027  13.425
70245W        W35230  14.288  31.243  14.706
70246W        W35231   9.614  44.126  12.519
70247W        W35232  19.186  34.865   3.541
70248W        W35233  22.484  13.461  13.813
70249W        W35234  29.192   0.964   3.758
70250W        W35235  40.425   2.017   2.717
70251W        W35236  42.058  22.712  11.975
70252W        W35237  17.662   2.788   2.706
70253W        W35238  10.510  41.368   4.625
70254W        W35239  14.503  38.845   5.137
70255W        W35240  16.745  24.704   0.840
70256W        W35241   2.738  31.096  14.780
70257W        W35242  26.906   9.822  11.201
70258W        W35243  35.478   4.182   3.792
70259W        W35244  33.524  21.959  11.890
70260W        W35245  27.979  22.010  12.989
70261W        W35246  38.902  18.544  11.506
70262W        W35247  27.631  33.714   0.403
70263W        W35248  20.105   0.307  10.203
70264W        W35249  26.085  15.724   3.867
70265W        W35250  29.833  23.921  12.567
70266W        W35251  12.769   8.143  13.018
70267W        W35252  22.173   8.223   4.411
70268W        W35253  16.257  22.305   4.222
70269W        W35254   7.683  39.114   2.632
70270W        W35255  33.115  11.743   2.253
70271W        W35256  28.246  37.545   5.035
70272W        W35257  38.068  20.116   0.363
70273W        W35258   3.195   3.993   4.040
70274W        W35259  36.311   2.007   2.313
70275W        W35260   5.891  12.380   4.339
70276W        W35261  27.452  22.220   0.690
70277W        W35262  24.669  28.113   3.175
70278W        W35263   7.802   9.937   3.756
70279W        W35264  24.845  34.951   3.997
70280W        W35265  41.428  35.123   4.466
70281W        W35266  37.423  28.333  11.514
70282W        W35267   6.727   3.172   1.972
70283W        W35268  29.414  33.726  14.173
70284W        W35269  12.128  41.287   1.395
70285W        W35270  18.131  21.112  13.138
70286W        W35271  23.311  42.091  13.045
70287W        W35272  29.910  42.503   2.095
70288W        W35273   3.924  20.182   2.343
70289W        W35274   0.961  25.678  10.898
70290W        W35275  31.856   7.958   4.913
70291W        W35276  13.866   3.382  14.929
70292W        W35277  41.820  32.539  11.162
70293W        W35278  28.967  29.900  12.994
70294W        W35279  10.804  15.240  13.088
70295W        W35280  21.633  10.472   3.259
70296W        W35281  27.465   4.328   0.898
70297W        W35282  10.666  13.127  10.705
70298W        W35283  26.935  41.418   1.972
70299W        W35284  10.710  32.277   3.527
70300W        W35285  17.080  44.238  13.422
70301W        W35286  40.365  18.290   2.002
70302W        W35287  26.494  32.420  11.233
70303W        W35288  17.816  34.395   3.190
70304W        W35289  37.910   6.161  14.479
70305W        W35290  39.623   4.999  14.456
70306W        W35291   1.483  26.170  13.358
70307W        W35292  10.324   2.903  14.105
70308W        W35293  10.831  34.932  14.664
70309W        W35294  33.641  43.392   0.956
70310W        W35295  28.422  12.375   4.588
70311W        W35296  28.715  14.238   3.033
70312W        W35297  26.215   8.212   4.119
70313W        W35298  24.995  10.150  12.002
70314W        W35299  11.861   2.463  14.582
70315W        W35300   2.999  29.588   3.350
70316W        W35301  28.965  14.395  12.595
70317W        W35302  21.806  15.063   0.989
70318W        W35303  27.151   2.119  10.454
70319W        W35304  42.500  37.826   2.914
70320W        W35305   5.786  26.226  10.518
70321W        W35306  22.251  29.401   2.860
70322W        W35307  17.343   5.829   1.239
70323W        W35308  13.641  20.664   1.205
70324W        W35309   2.778  28.472   4.931
70325W        W35310   3.453  39.911  12.511
70326W        W35311  24.763  24.701   1.392
70327W        W35312  15.371  38.787  11.983
70328W        W35313  10.133  18.316   1.992
70329W        W35314  19.370  17.589   4.891
70330W        W35315  11.577  12.407  13.613
70331W        W35316  16.615  10.726  11.707
70332W        W35317  13.330  21.685   1.163
70333W        W35318  38.932   1.016   3.646
70334W        W35319  18.836  42.466  12.642
70335W        W35320  37.838   7.870  13.898
70336W        W35321  37.829  19.610   1.241
70337W        W35322  31.999  10.283   4.012
70338W        W35323  30.478  30.364  12.016
70339W        W35324   0.943  12.344   3.641
70340W        W35325   3.717  23.572  10.618
70341W        W35326  22.403  31.078  11.196
70342W        W35327  10.186  23.426   0.452
70343W        W35328  10.077  33.824  10.848
70344W        W35329  31.519  11.162   0.721
70345W        W35330  21.159  27.391  10.733
70346W        W35331   8.376  29.244   1.291
70347W        W35332  21.476   9.185   0.770
70348W        W35333  10.796  30.663   2.270
70349W        W35334  20.992  31.520  12.594
70350W        W35335  27.073  16.960  10.356
70351W        W35336  37.451   9.806   2.873
70352W        W35337  37.074  20.787  14.825
70353W        W35338   8.221  34.103  14.012
70354W        W35339  11.824  20.753  14.454
70355W        W35340  10.212   9.069   4.052
70356W        W35341  11.888   1.237   3.725
70357W        W35342  17.101  22.674  13.280
70358W        W35343  13.285  31.368  14.800
70359W        W35344  38.850  43.025  10.982
70360W        W35345   9.607  21.719   4.412
70361W        W35346  43.043  36.947   1.722
70362W        W35347  28.886  23.272  13.938
70363W        W35348   1.338  18.975   4.671
70364W        W35349  39.257  39.239  10.104
70365W        W35350  17.715  28.716   4.577
70366W        W35351  18.133  41.774  11.184
70367W        W35352  15.669   8.223   1.171
70368W        W35353  16.222  12.264  14.043
70369W        W35354  21.029   8.723   2.751
70370W        W35355  33.399  10.883   0.925
70371W        W35356   9.901  43.925  13.918
70372W        W35357  24.371  40.857  14.205
70373W        W35358  27.457  30.518  13.466
70374W        W35359  20.049  39.346  14.436
70375W        W35360   7.673  36.481  11.151
70376W        W35361  27.646  26.968   0.320
70377W        W35362  35.320  39.498   0.053
70378W        W35363  30.019  44.495   3.155
70379W        W35364  16.314   9.189  13.012
70380W        W35365  36.271  20.561   3.714
70381W        W35366  42.787  34.368  12.973
70382W        W35367  44.991  31.169  13.290
70383W        W35368  36.619  35.856  10.626
70384W        W35369   7.791  11.204  14.886
70385W        W35370  13.623  10.087   1.704
70386W        W35371  26.077  24.480  12.457
70387W        W35372  25.947  39.460  13.809
70388W        W35373  18.290  23.613   3.244
70389W        W35374  13.178  19.822   0.910
70390W        W35375  11.549  13.809   3.577
70391W        W35376   6.295  26.675   2.328
70392W        W35377  39.802   0.113   3.960
70393W        W35378  26.681   2.985   1.016
70394W        W35379  33.494  32.883  12.347
70395W        W35380  13.768  37.809  11.623
70396W        W35381  43.323  39.071  10.686
70397W        W35382   1.007   1.826  12.479
70398W        W35383  21.739  40.127   3.136
70399W        W35384  10.740  13.472  14.813
70400W        W35385  31.302  37.162   0.870
70401W        W35386  32.848  44.805   1.879
70402W        W35387   8.741  38.479   0.802
70403W        W35388   3.475  37.561  13.079
70404W        W35389  38.103  32.612  12.694
70405W        W35390  28.944  13.922   1.926
70406W        W35391  29.198   6.490  14.582
70407W        W35392  44.804  34.216   9.771
70408W        W35393  15.651   4.027   1.025
70409W        W35394  23.411  33.638   0.739
70410W        W35395  36.524  11.191   1.250
70411W        W35396  14.807   3.750   1.313
70412W        W35397  21.849  37.165   5.083
70413W        W35398  21.699  35.355  10.867
70414W        W35399  31.880  28.864  14.913
70415W        W35400  22.004   8.793  14.022
70416W        W35401  43.476  11.642  11.681
70417W        W35402  24.118  21.342  13.855
70418W        W35403   2.799  36.092  11.114
70419W        W35404  10.263  44.741   1.366
70420W        W35405  16.349  29.569   2.424
70421W        W35406  17.418   6.314   0.037
70422W        W35407   4.873   6.628   5.413
70423W        W35408  19.333  34.443  13.385
70424W        W35409  21.051  31.699   3.682
70425W        W35410  14.024  18.673  13.169
70426W        W35411  19.819  41.805  13.901
70427W        W35412  29.465  44.010   2.178
70428W        W35413  19.029  21.559  13.416
70429W        W35414  39.044   5.292  10.143
70430W        W35415  39.712  41.287  14.545
70431W        W35416  13.794  39.455   2.286
70432W        W35417  28.570  17.575  14.226
70433W        W35418  43.500   2.972  10.784
70434W        W35419   0.703  31.049   2.868
70435W        W35420  19.824  14.611   2.023
70436W        W35421  40.472  34.016   0.977
70437W        W35422   1.926  19.474   1.896
70438W        W35423  28.865  40.025   1.696
70439W        W35424  13.088  28.736  11.914
70440W        W35425  39.082   9.134  13.452
70441W        W35426  21.059  18.691  14.503
70442W        W35427  13.253  41.379  13.092
70443W        W35428  13.925  11.786  11.635
70444W        W35429  11.511  35.676   0.410
70445W        W35430   3.002  23.808   2.350
70446W        W35431  12.193  29.070  10.608
70447W        W35432  30.948  14.722   3.198
70448W        W35433  10.179  15.514   5.056
70449W        W35434  33.516  30.804   4.431
70450W        W35435  31.966  21.854  13.917
70451W        W35436   9.752  42.764   4.448
70452W        W35437  33.761  21.033  10.726
70453W        W35438   3.273  24.048   3.273
70454W        W35439  29.971   0.254   4.117
70455W        W35440  36.057   5.434   1.457
70456W        W35441  14.735  26.429   4.613
70457W        W35442  25.315  12.254   2.228
70458W        W35443  37.606  28.182  14.613
70459W        W35444  37.785  35.099  13.429
70460ION    NA+35445  35.889   5.583   3.503
70461ION    NA+35446  41.111  36.629  11.446
70462ION    NA+35447  36.085  43.019   0.318
70463ION    NA+35448  36.066  34.598  12.927
70464ION    NA+35449  33.434  41.100  10.240
70465ION    NA+35450  22.022  38.510  10.887
70466ION    NA+35451  36.634  17.027  11.927
70467ION    NA+35452  38.946  22.742  13.376
70468ION    NA+35453  11.096   9.305  14.910
70469ION    NA+35454  29.517  34.150   4.522
70470ION    NA+35455  36.617   6.207  13.863
70471ION    NA+35456  32.213  10.960  14.422
70472ION    NA+35457   7.253  35.613   1.877
70473ION    NA+35458  21.639  42.761  11.077
70474ION    NA+35459   3.505   3.825  13.759
70475ION    NA+35460  26.262  16.268   3.648
70476ION    NA+35461  17.821   0.640   2.489
70477ION    NA+35462  24.745  36.546   1.252
70478ION    NA+35463  21.832  37.295  13.276
70479ION    NA+35464  21.032  24.151   2.835
70480ION    NA+35465  37.007   6.850  14.917
70481ION    NA+35466  23.260  18.984  11.688
70482ION    NA+35467   7.229  29.526   3.155
70483ION    NA+35468   7.393  13.193   0.451
70484ION    NA+35469  14.505  34.571  14.882
70485ION    NA+35470   3.838   6.695   0.478
70486ION    NA+35471   9.764  32.991  13.659
70487ION    NA+35472  43.922  38.255  11.665
70488ION    NA+35473  40.989   6.764   1.698
70489ION    NA+35474   0.654  38.068  10.856
70490ION    NA+35475  36.229  42.815  11.226
70491ION    NA+35476  30.274  11.766  12.514
70492ION    NA+35477  19.642  24.349   2.990
70493ION    NA+35478  31.041   9.276   4.371
70494ION    NA+35479  18.200  10.381   2.754
70495ION    NA+35480  28.391  40.257  13.686
70496ION    NA+35481  30.329   2.939  14.545
70497ION    NA+35482  35.389  29.184   4.574
70498ION    NA+35483  25.823   9.011   3.659
70499ION    NA+35484  34.937  26.081   0.761
70500ION    NA+35485  41.463  43.369  14.924
70501ION    NA+35486  18.047  22.302  14.914
70502ION    NA+35487  34.573  43.491  12.669
70503ION    NA+35488  14.089  34.956   3.248
70504ION    NA+35489   1.737  36.842  11.130
70505ION    NA+35490  24.489   7.913   4.254
70506ION    NA+35491  20.456  12.663   2.534
70507ION    NA+35492  10.626  22.599   2.888
70508ION    NA+35493  22.544  16.149   2.688
70509ION    NA+35494  16.976   3.491   9.751
70510ION    NA+35495   3.835   9.313   0.930
70511ION    NA+35496  40.910  34.476  10.456
70512ION    NA+35497  42.778   3.545   3.257
70513ION    NA+35498  39.516  38.056  12.415
70514ION    NA+35499  17.122  25.682  11.618
70515ION    NA+35500  25.727  42.385  11.979
70516ION    NA+35501   8.194  35.328  12.426
70517ION    NA+35502  34.013   5.847   2.882
70518ION    NA+35503  29.673  13.571   2.346
70519ION    NA+35504  37.800  18.215   0.289
70520ION    NA+35505  26.176  21.580   4.056
70521ION    NA+35506  16.358  19.596   0.746
70522ION    NA+35507  11.715  13.757  11.406
70523ION    NA+35508  36.592  24.896  14.859
70524ION    NA+35509  34.751  27.345  14.206
70525ION    NA+35510  17.905   1.205  12.058
70526ION    NA+35511   6.540  14.373   4.526
70527ION    NA+35512  16.513  39.631  13.934
70528ION    NA+35513  34.427   8.772  14.833
70529ION    NA+35514   8.374  32.296   4.218
70530ION    NA+35515  19.987  39.350   4.358
70531ION    NA+35516  43.249   3.246  14.327
70532ION    NA+35517  39.285  36.031   0.868
70533ION    NA+35518  44.179  19.057  12.142
70534ION    NA+35519  13.113  33.811  11.561
70535ION    NA+35520  40.412  38.505   4.261
70536ION    NA+35521  29.104   6.518   4.068
70537ION    NA+35522  36.829  12.595   0.477
70538ION    NA+35523   8.618  12.947  11.036
70539ION    NA+35524  25.856  13.019  11.582
70540ION    NA+35525  29.193  32.516   0.262
70541ION    NA+35526  20.331  10.905   2.469
70542ION    NA+35527  14.096  43.035   2.885
70543ION    NA+35528  19.151  31.516   4.524
70544ION    NA+35529   9.123   7.686   2.639
70545ION    NA+35530  42.782  30.447   4.397
70546ION    NA+35531  18.796  13.180  12.235
70547ION    NA+35532  30.356   8.890   2.702
70548ION    NA+35533  12.101  11.487  13.473
70549ION    NA+35534  25.251  35.161   1.632
70550ION    NA+35535  37.027  39.913  14.826
70551ION    NA+35536   6.538  31.378   0.068
70552ION    NA+35537  12.654  36.551   1.690
70553ION    NA+35538  43.229  39.810   9.840
70554ION    NA+35539  40.669  44.565  14.777
70555ION    NA+35540   3.852  18.359  12.387
70556ION    NA+35541  13.303  12.553   1.662
70557ION    NA+35542  28.999  16.553   4.059
70558ION    NA+35543  34.682   8.936  10.852
70559ION    NA+35544  29.087   3.436   2.132
70560ION    NA+35545  34.089  30.667  14.821
70561ION    NA+35546  33.389  24.585  12.904
70562ION    NA+35547  37.803  28.608   1.125
70563ION    NA+35548  42.904  20.746   9.555
70564ION    NA+35549  42.090  34.319   1.058
70565ION    NA+35550  24.165   4.655   0.767
70566ION    NA+35551   6.043  39.035  14.260
70567ION    NA+35552  22.986  38.376  10.659
70568ION    NA+35553   1.891  39.561   4.633
70569ION    NA+35554   2.417   1.942   2.358
70570ION    NA+35555  14.945  21.159   1.225
70571ION    NA+35556  23.761  15.276  11.981
70572ION    NA+35557  26.913  40.619   1.514
70573ION    NA+35558  25.139   2.926  12.954
70574ION    NA+35559  16.047  21.522   4.633
70575ION    NA+35560  12.864  23.022  13.838
70576ION    NA+35561  27.403  39.539  14.236
70577ION    NA+35562  39.375  44.098   1.995
70578ION    NA+35563  28.070  39.547  11.093
70579ION    NA+35564  25.235  20.126  11.554
70580ION    NA+35565  37.691  27.982  11.778
70581ION    NA+35566   9.517  38.486  11.137
70582ION    NA+35567   4.105  43.575  14.893
70583ION    NA+35568  44.806  31.094  14.271
70584ION    NA+35569  37.338  38.003  11.700
70585ION    NA+35570  33.938  28.446  13.863
70586ION    NA+35571  41.834  12.817   4.280
70587ION    NA+35572  38.704  44.091  13.533
70588ION    NA+35573  18.718  12.956   2.249
70589ION    NA+35574  23.449  26.649   2.623
70590ION    NA+35575  27.961   5.318  12.109
70591ION    NA+35576  39.679  43.861  14.200
70592ION    NA+35577  16.432  16.740   2.028
70593ION    NA+35578  22.263  28.966   2.588
70594ION    NA+35579  13.349  32.846   0.434
70595ION    NA+35580  24.550  23.780  11.219
70596ION    NA+35581  32.435   2.263   1.470
70597ION    NA+35582  10.211  15.081  10.665
70598ION    NA+35583  35.877  21.653   3.861
70599ION    NA+35584  38.600  20.140   0.524
70600ION    NA+35585   4.424  14.829  11.122
70601ION    NA+35586  43.498  33.716  12.997
70602ION    NA+35587  19.533  23.978  13.527
70603ION    NA+35588  29.673  30.843  11.021
70604ION    NA+35589  33.718  31.167   3.669
70605ION    NA+35590   5.242  17.040   0.264
70606ION    NA+35591   6.292  20.157   0.838
70607ION    NA+35592  39.138  38.823   2.741
70608ION    NA+35593  22.138   9.629   0.222
70609ION    NA+35594  20.449  18.545   3.200
70610ION    NA+35595  13.992  21.203  10.398
70611ION    NA+35596   7.462  28.560   3.266
70612ION    NA+35597  41.507  19.127  14.799
70613ION    NA+35598   2.983  43.163   0.270
70614ION    NA+35599  40.880   1.571  11.067
70615ION    NA+35600  18.500  33.844  14.691
70616ION    NA+35601  19.155  17.414   2.247
70617ION    NA+35602  44.526  29.494  14.304
70618ION    NA+35603  40.240   0.080   0.392
70619ION    NA+35604  15.254  15.947   4.105
70620ION    NA+35605   6.529  26.294   0.214
70621ION    NA+35606  19.382  28.707   0.001
70622ION    NA+35607   5.877  32.217  11.140
70623ION    NA+35608  25.451  10.527   1.343
70624ION    NA+35609   6.216  17.698  11.938
70625ION    NA+35610  34.794  40.652   0.795
70626ION    NA+35611   0.806  19.454  10.419
70627ION    NA+35612  10.932  32.202   1.536
70628ION    NA+35613  17.805  39.635  13.393
70629ION    NA+35614   6.288  22.317   0.338
70630ION    NA+35615   0.724  18.552  11.136
70631ION    NA+35616  24.099  31.986   1.932
70632ION    NA+35617  19.019  21.286   1.621
70633ION    NA+35618  33.480  33.318   9.847
70634ION    NA+35619  29.805  27.888  13.704
70635ION    NA+35620  41.054  43.230  12.589
70636ION    NA+35621  10.837  21.485  11.120
70637ION    NA+35622   2.741  19.124  12.285
70638ION    NA+35623   2.447   0.291   0.214
70639ION    NA+35624  42.655  38.005   4.489
70640ION    NA+35625   3.770   1.986   2.814
70641ION    NA+35626   7.398   5.771   4.025
70642ION    NA+35627  27.378  18.111  10.417
70643ION    NA+35628  29.491  14.927   0.882
70644ION    NA+35629  18.271  10.625   0.465
70645ION    NA+35630  27.395  39.187   3.738
70646ION    NA+35631  10.521  14.388  10.014
70647ION    NA+35632   1.830  14.171  11.140
70648ION    NA+35633  34.462   6.528   3.251
70649ION    NA+35634  22.306  21.952  12.341
70650ION    NA+35635  26.861  14.936   0.869
70651ION    NA+35636  27.192  17.125  11.724
70652ION    NA+35637  36.268  26.135   4.269
70653ION    NA+35638  16.818  18.637  13.327
70654ION    NA+35639  25.500  44.163  11.955
70655ION    NA+35640  40.947   0.495   1.838
70656ION    NA+35641  11.852   9.677   1.199
70657ION    NA+35642  37.752  32.471   0.172
70658ION    NA+35643   3.634  41.496   2.197
70659ION    NA+35644  25.299   0.601  12.052
70660ION    NA+35645   0.991  33.395  13.862
70661ION    NA+35646  42.247  25.238   1.900
70662ION    NA+35647  20.117  15.691  12.407
70663ION    NA+35648  16.857  36.357   1.478
70664ION    NA+35649  30.676  39.273  10.665
70665ION    NA+35650   7.434  27.138  11.713
70666ION    NA+35651  40.583  15.802  10.321
70667ION    NA+35652  15.879  21.875  14.796
70668ION    NA+35653  21.441  36.980  11.603
70669ION    NA+35654   7.591  22.187  12.580
70670ION    NA+35655  34.884   2.578  13.513
70671ION    NA+35656  21.629  39.198   1.844
70672ION    NA+35657  27.265  34.782   2.889
70673ION    NA+35658  39.566   7.098   2.805
70674ION    NA+35659  42.393  19.104  14.335
70675ION    NA+35660  26.418  29.157  13.528
70676ION    NA+35661   6.679  12.370  12.727
70677ION    NA+35662  40.360   8.187   2.244
70678ION    NA+35663  27.719  30.888   0.407
70679ION    NA+35664  37.277   1.766   4.650
70680ION    NA+35665   9.907  34.105  11.272
70681ION    NA+35666  38.059  30.832  12.983
70682ION    NA+35667  10.537   4.512   5.461
70683ION    NA+35668   9.374  44.713  12.002
70684ION    NA+35669  37.777  27.763   4.849
70685ION    NA+35670  32.738  22.198  11.181
70686ION    NA+35671   1.884  40.036  13.377
70687ION    NA+35672  32.409  19.776   0.025
70688ION    NA+35673   7.618  26.459  12.431
70689ION    NA+35674  19.764  43.954  11.005
70690ION    NA+35675  27.328  25.066   2.202
70691ION    NA+35676  16.669  11.676  12.891
70692ION    NA+35677  39.253   0.299  12.515
70693ION    NA+35678  27.846  10.240  10.742
70694ION    NA+35679  23.270  37.267   2.197
70695ION    NA+35680  36.744   2.928  14.442
70696ION    NA+35681  35.424  19.742  10.655
70697ION    NA+35682  12.567  44.404   1.377
70698ION    NA+35683  41.785  38.473   4.302
70699ION    NA+35684  10.267  24.742  13.257
70700ION    NA+35685  22.161  35.642  12.351
70701ION    NA+35686  40.623  43.559  11.624
70702ION    NA+35687  34.602  25.303  12.361
70703ION    NA+35688  18.870   5.087   3.122
70704ION    NA+35689  41.060  13.150  13.354
70705ION    NA+35690  28.137  11.234   4.233
70706ION    NA+35691  22.132  38.295   4.612
70707ION    NA+35692  31.950   9.852   3.678
70708ION    NA+35693   3.208  40.887   4.188
70709ION    NA+35694   7.337  30.110  11.609
70710ION    NA+35695  22.549  43.527   1.410
70711ION    NA+35696  29.875  13.905  10.584
70712ION    NA+35697  11.908  27.651   2.709
70713ION    NA+35698  43.602  13.860   4.491
70714ION    NA+35699  30.209  26.575   0.447
70715ION    NA+35700  44.941  37.288   2.182
70716ION    NA+35701  17.501  29.630   0.714
70717ION    NA+35702   7.452  31.466   3.061
70718ION    NA+35703  17.144   1.694  12.235
70719ION    NA+35704  12.292  19.494   4.975
70720ION    NA+35705  20.924   3.860  14.492
70721ION    NA+35706  13.781  26.624   3.731
70722ION    NA+35707  20.144  10.612  14.909
70723ION    NA+35708   9.973  32.731  12.834
70724ION    NA+35709   6.136  25.226  10.680
70725ION    NA+35710  39.877  12.080  11.612
70726ION    NA+35711  24.371  34.938  12.527
70727ION    NA+35712   5.724   0.180  12.480
70728ION    NA+35713  37.079  34.612  10.997
70729ION    NA+35714  16.916  25.381   2.649
70730ION    NA+35715  17.239   1.381   3.475
70731ION    NA+35716  44.829  32.149   1.502
70732ION    NA+35717  28.111   0.326  11.639
70733ION    NA+35718  26.135  17.848   2.387
70734ION    NA+35719  25.043  27.219  14.787
70735ION    NA+35720  16.392  36.955  13.568
70736ION    NA+35721  16.705  20.556  11.346
70737ION    NA+35722   1.516  17.264  11.123
70738ION    NA+35723  36.826   0.808  12.384
70739ION    NA+35724  36.476  13.406  11.694
70740ION    NA+35725  42.101  13.907   1.454
70741ION    NA+35726   2.115   5.706  13.014
70742ION    NA+35727  16.298  28.737  11.046
70743ION    NA+35728  13.143  28.743   4.733
70744ION    NA+35729   9.359  43.727   0.704
70745ION    NA+35730   9.103  20.309   2.366
70746ION    NA+35731   7.900  35.308   2.415
70747ION    NA+35732  23.942   4.999  14.855
70748ION    NA+35733  16.540  21.874  11.177
70749ION    NA+35734   7.478  34.323   2.245
70750ION    NA+35735  33.588   8.280   0.774
70751ION    NA+35736  44.882  20.211   5.561
70752ION    NA+35737  38.645  42.740   1.204
70753ION    NA+35738  36.878  28.756  13.241
70754ION    NA+35739   0.222  41.030   3.184
70755ION    NA+35740  27.703  23.531   0.204
70756ION    NA+35741   8.203  15.961  12.240
70757ION    NA+35742  33.873  34.622  12.106
70758ION    NA+35743   1.806  27.478   3.294
70759ION    NA+35744   0.409  21.061  14.980
70760ION    NA+35745  40.897  34.422   3.331
70761ION    NA+35746  25.100  13.668  11.161
70762ION    NA+35747  13.828  14.791   3.722
70763ION    NA+35748  18.847  39.890   2.255
70764ION    NA+35749  20.066  27.361   1.687
70765ION    NA+35750  36.344  34.858   1.606
70766ION    NA+35751  32.062  12.437  14.442
70767ION    NA+35752  35.749  40.270  11.650
70768ION    NA+35753  35.616  29.588  12.819
70769ION    NA+35754  15.703   7.075   3.063
70770ION    NA+35755   9.893  32.026  14.890
70771ION    NA+35756  34.370  41.478   4.637
70772ION    NA+35757  36.979  18.342  12.424
70773ION    NA+35758   6.708  10.059   4.614
70774ION    NA+35759  33.009   4.983   4.313
70775ION    NA+35760   8.355   1.656  13.171
70776ION    NA+35761   9.442   6.536  13.767
70777ION    NA+35762  35.863  43.384   4.107
70778ION    NA+35763  22.517   7.899  12.457
70779ION    NA+35764  18.816  24.989   1.346
70780ION    NA+35765  35.547  36.943   1.377
70781ION    NA+35766   0.272  23.683  11.048
70782ION    NA+35767  18.537  16.104  14.383
70783ION    NA+35768  17.404   4.150   0.169
70784ION    NA+35769   2.291  19.724   2.575
70785ION    NA+35770  39.598  16.700  12.686
70786ION    NA+35771  29.964  34.481  11.713
70787ION    NA+35772   4.951  36.228   4.732
70788ION    NA+35773   0.536  38.275   3.690
70789ION    NA+35774  28.090  41.096  14.748
70790ION    NA+35775  11.814   3.423   1.797
70791ION    NA+35776  23.265   7.457   1.704
70792ION    NA+35777  23.150  11.252  13.632
70793ION    NA+35778  12.734   5.700  11.769
70794ION    NA+35779  44.613  23.398   0.925
70795ION    NA+35780  36.071  10.421   1.914
70796ION    NA+35781  11.567  36.198   0.359
70797ION    NA+35782  18.750   3.514   1.978
70798ION    NA+35783  42.919  12.680  11.115
70799ION    NA+35784  17.253  11.002   1.202
70800ION    NA+35785   7.506  31.708  14.832
70801ION    NA+35786  44.376  23.523   3.302
70802ION    NA+35787   1.620   9.867   2.899
70803ION    NA+35788  16.329  12.060   0.797
70804ION    NA+35789  30.629   3.611  12.619
70805ION    NA+35790   4.366   2.244   1.501
70806ION    NA+35791  30.616   7.227   2.384
70807ION    NA+35792  24.936  39.992   0.005
70808ION    NA+35793  21.531  40.873   0.296
70809ION    NA+35794  43.322   5.206  11.229
70810ION    NA+35795  23.957  38.116  12.868
70811ION    NA+35796  24.799  10.945   1.755
70812ION    NA+35797  17.096   2.658   1.932
70813ION    NA+35798   3.081  43.753  12.963
70814ION    NA+35799  36.494  14.651   3.408
70815ION    NA+35800  24.173  43.403   3.023
70816ION    NA+35801  44.017  32.890   3.448
70817ION    NA+35802  28.355  26.074  11.902
70818ION    NA+35803  26.583  28.984   0.972
70819ION    NA+35804  30.515  21.573  13.324
70820ION    NA+35805   0.863  17.763  13.757
70821ION    NA+35806   4.752  18.096   1.447
70822ION    NA+35807   6.278  36.625  12.137
70823ION    NA+35808  18.759  43.990  11.629
70824ION    NA+35809   7.121  31.333  12.063
70825ION    NA+35810  16.073   2.783  13.065
70826ION    NA+35811  10.239  20.903   1.485
70827ION    NA+35812  13.618  23.816  11.527
70828ION    NA+35813  43.585   3.351  11.468
70829ION    NA+35814  43.213  34.291   3.292
70830ION    NA+35815  17.643   9.406  13.159
70831ION    NA+35816  29.564  17.009  12.161
70832ION    NA+35817  12.489  10.580  13.307
70833ION    NA+35818  38.862  43.173  14.049
70834ION    NA+35819   4.434  23.566  13.494
70835ION    NA+35820  37.749  23.632  14.879
70836ION    NA+35821   6.402   7.911   2.919
70837ION    NA+35822  31.167  38.063  12.874
70838ION    NA+35823   8.145  30.172  14.655
70839ION    NA+35824  16.410  10.614   4.969
70840ION    NA+35825   7.945  30.200   2.411
70841ION    NA+35826  40.296  30.799  14.381
70842ION    NA+35827   8.303  11.074   0.592
70843ION    NA+35828   2.988  10.860  10.067
70844ION    NA+35829   8.712   9.740  11.039
70845ION    NA+35830  29.852   1.744   2.248
70846ION    NA+35831  24.364  36.549  11.955
70847ION    NA+35832  18.620  30.675   4.367
70848ION    NA+35833  21.606  34.187   4.309
70849ION    NA+35834  27.417  30.670   1.691
70850ION    NA+35835  15.602  18.939   2.233
70851ION    NA+35836  40.658  34.003   1.551
70852ION    NA+35837   0.031  34.668   4.429
70853ION    NA+35838  43.530  17.617  12.507
70854ION    NA+35839  31.422  11.640   4.497
70855ION    NA+35840  42.375  17.917   0.452
70856ION    NA+35841   1.668  36.474   0.067
70857ION    NA+35842  16.428  12.756  10.442
70858ION    NA+35843  23.357  19.350   3.478
70859ION    NA+35844  20.294  26.635   5.014
70860ION    NA+35845   1.734  35.508   0.429
70861ION    NA+35846  41.009   3.256  14.918
70862ION    NA+35847   8.919  42.727   1.952
70863ION    NA+35848   1.618  37.820  10.955
70864ION    NA+35849  24.466  29.664  13.004
70865ION    NA+35850  44.856   7.637  14.471
70866ION    NA+35851   5.293  38.058   1.541
70867ION    NA+35852   1.539   3.911   3.621
70868ION    NA+35853  17.331  35.025  11.088
70869ION    NA+35854  32.813  37.892   3.742
70870ION    NA+35855  34.012   7.602   4.559
70871ION    NA+35856  40.940  35.044   1.421
70872ION    NA+35857  21.817  10.209  11.555
70873ION    NA+35858  32.480  44.822   0.841
70874ION    NA+35859  22.253  12.352   2.367
70875ION    NA+35860   3.789  12.297   1.807
70876ION    NA+35861  41.900   7.025   2.682
70877ION    NA+35862   5.185   3.879   2.727
70878ION    NA+35863   7.445   7.723  12.654
70879ION    NA+35864  14.127   3.590   1.174
70880ION    NA+35865  25.034  15.245   0.328
70881ION    NA+35866  32.363  30.538   1.908
70882ION    NA+35867  23.005   4.857   4.184
70883ION    NA+35868   9.354   0.882  13.707
70884ION    NA+35869  18.383  20.512   3.014
70885ION    NA+35870   6.827  24.374   0.494
70886ION    NA+35871   7.710  21.551  11.817
70887ION    NA+35872  33.388  18.813  10.721
70888ION    NA+35873  17.409  33.119   0.965
70889ION    NA+35874   1.089  24.386   5.075
70890ION    NA+35875  21.682  13.670   1.086
70891ION    NA+35876   3.618   3.875  10.167
70892ION    NA+35877  14.264  16.631   3.440
70893ION    NA+35878   5.036   8.235   0.914
70894ION    NA+35879  40.168   3.626   4.640
70895ION    NA+35880  17.217   3.554   2.142
70896ION    NA+35881  15.295   3.236   1.003
70897ION    NA+35882   6.616  30.721   2.275
70898ION    NA+35883  35.859  18.497  10.331
70899ION    NA+35884   3.978  42.408  13.330
70900ION    NA+35885  37.065   0.957   0.215
70901ION    NA+35886   1.872  40.711  12.588
70902ION    NA+35887  23.667  38.179   1.307
70903ION    NA+35888  36.747  32.621   1.206
70904ION    NA+35889  12.643  20.754  13.968
70905ION    NA+35890  26.587  27.546  13.458
70906ION    NA+35891  38.782  17.243  12.441
70907ION    NA+35892  30.163  37.537   0.425
70908ION    NA+35893  10.914  28.523   0.173
70909ION    NA+35894   3.550   1.632  12.940
70910ION    NA+35895  13.902  32.241   1.193
70911ION    NA+35896   4.867  17.930   4.149
70912ION    NA+35897  32.278  14.268  11.747
70913ION    NA+35898  11.380  18.882  11.308
70914ION    NA+35899  30.612  40.864  14.995
70915ION    NA+35900  39.134   2.681   4.562
70916ION    NA+35901  29.367  38.048   3.844
70917ION    NA+35902   7.991  25.979  13.109
70918ION    NA+35903   3.438   7.770  10.635
70919ION    NA+35904  32.336  25.850   0.154
70920ION    NA+35905  23.725  24.154  12.395
70921ION    NA+35906  23.006  25.243   1.516
70922ION    NA+35907  22.481  16.195  12.878
70923ION    NA+35908   3.036  15.078  11.087
70924ION    NA+35909  38.421  11.386   4.060
70925ION    NA+35910  26.887  33.299  10.983
70926ION    NA+35911   1.905  44.032  12.536
70927ION    NA+35912   8.941   3.534   0.876
70928ION    NA+35913   0.015  38.984   3.562
70929ION    NA+35914  25.933  36.675   2.210
70930ION    NA+35915  10.298  34.384   3.405
70931ION    NA+35916  18.477  15.438   4.528
70932ION    NA+35917  16.997  14.601   1.890
70933ION    NA+35918  40.117   3.639  11.951
70934ION    NA+35919  28.070  17.575   1.766
70935ION    NA+35920  38.337  37.899   3.875
70936ION    NA+35921  43.558   9.549   3.334
70937ION    NA+35922  41.148  39.584  11.762
70938ION    NA+35923  36.048  22.592   0.764
70939ION    NA+35924  25.404  23.055   3.743
70940ION    NA+35925  13.109   8.751   1.605
70941ION    NA+35926  42.506  38.565   1.286
70942ION    NA+35927  41.150  20.421   5.304
70943ION    NA+35928  30.660   1.288  13.878
70944ION    NA+35929   7.369  29.685   1.235
70945ION    NA+35930  16.830  21.479   4.013
70946ION    NA+35931  25.044  36.735   0.316
70947ION    NA+35932  15.839  14.995   4.729
70948ION    NA+35933  26.078  26.989   4.488
70949ION    NA+35934   3.427  23.312  14.465
70950ION    NA+35935  40.275  31.552  10.355
70951ION    NA+35936   5.296  23.439   2.922
70952ION    NA+35937  24.024  26.160  11.099
70953ION    NA+35938  41.048  33.548  11.961
70954ION    NA+35939  26.541  10.613  14.493
70955ION    NA+35940  28.355  37.916   1.823
70956ION    NA+35941   0.804  41.159  11.334
70957ION    NA+35942  21.907   9.916   4.091
70958ION    NA+35943  14.156  28.359  12.426
70959ION    NA+35944  22.722  28.105   2.366
70960ION    NA+35945  31.782   7.132   3.123
70961ION    NA+35946  12.080  25.275   3.174
70962ION    NA+35947  14.237  39.740  11.596
70963ION    NA+35948   2.302  11.878  11.629
70964ION    NA+35949   9.704  41.188  14.884
70965ION    NA+35950  21.736  12.754  11.465
70966ION    NA+35951  34.433  21.956  11.846
70967ION    NA+35952   1.972  41.693  12.751
70968ION    NA+35953   5.438  20.949   2.093
70969ION    NA+35954  12.082  44.245   3.256
70970ION    NA+35955  13.158  33.352  14.593
70971ION    NA+35956  36.505   9.783  12.821
70972ION    NA+35957  41.394   7.782   2.269
70973ION    NA+35958  24.237  12.702  13.085
70974ION    NA+35959  15.976  21.949  11.886
70975ION    NA+35960  29.167  27.814  14.548
70976ION    NA+35961  38.133  20.054   4.949
70977ION    NA+35962  27.662  25.479   0.591
70978ION    NA+35963  18.867  37.861   0.309
70979ION    NA+35964   2.149  11.847  13.498
70980ION    NA+35965  15.904  25.508  14.357
70981ION    NA+35966  10.558   5.628  10.779
70982ION    NA+35967   2.910  10.735  14.406
70983ION    NA+35968  36.649  39.858  13.796
70984ION    NA+35969  26.303   5.339  13.033
70985ION    NA+35970  25.323  32.135  14.041
70986ION    NA+35971  28.546  27.230   4.288
70987ION    NA+35972  28.549   1.993  13.293
70988ION    NA+35973  10.050  42.724  12.354
70989ION    NA+35974  13.659   6.086  13.323
70990ION    NA+35975  41.554  12.343  12.075
70991ION    NA+35976  32.673   1.953   0.079
70992ION    NA+35977  34.418  14.825  12.691
70993ION    NA+35978  44.706   2.852   3.432
70994ION    NA+35979  43.815  20.387   9.720
70995ION    NA+35980  19.113  12.765  11.316
70996ION    NA+35981  37.197   0.410   3.344
70997ION    NA+35982  12.193   1.768   2.378
70998ION    NA+35983  22.656  16.641   3.426
70999ION    NA+35984   7.464   6.376  13.908
71000ION    NA+35985  37.515  16.777  13.045
71001ION    NA+35986  22.980  21.256  11.574
71002ION    NA+35987  38.897   3.776   1.296
71003ION    NA+35988  25.816  35.544  12.698
71004ION    NA+35989  29.859  19.375   4.208
71005ION    NA+35990   9.360   9.255  12.009
71006ION    NA+35991  14.151  29.190   1.661
71007ION    NA+35992  23.842  27.961  10.171
71008ION    NA+35993  31.880  36.671  10.962
71009ION    NA+35994  17.047  16.346   9.617
71010ION    NA+35995   1.986  15.809  10.294
71011ION    NA+35996  39.650  21.815   0.525
71012ION    NA+35997  26.809  30.927  13.071
71013ION    NA+35998   2.134  18.465   2.542
71014ION    NA+35999  43.793  25.359   0.590
71015ION    NA+36000  43.469  20.369  14.018
71016ION    NA+36001  33.602   1.022   2.829
71017ION    NA+36002   1.404  42.489  13.084
71018ION    NA+36003  32.286  28.287   2.826
71019ION    NA+36004  39.052  19.313   2.833
71020ION    NA+36005  25.742  35.358   2.796
71021ION    NA+36006  16.434  29.596   3.971
71022ION    NA+36007  34.554  44.504  12.911
71023ION    NA+36008  37.854  19.752  12.291
71024ION    NA+36009   3.002   3.584  12.462
71025ION    NA+36010  20.031   7.812  10.176
71026ION    NA+36011  12.350  32.121  14.823
71027ION    NA+36012   7.206  22.775   3.515
71028ION    NA+36013  24.186   8.628   2.499
71029ION    NA+36014  15.151  22.683   1.532
71030ION    NA+36015  42.910   0.889  10.930
71031ION    NA+36016  40.024  21.746  11.634
71032ION    NA+36017  27.925   6.691  12.950
71033ION    NA+36018  31.534  36.396   2.065
71034ION    NA+36019  31.342  29.149   4.164
71035ION    NA+36020  20.252  21.601   5.048
71036ION    NA+36021   4.475  34.883  13.044
71037ION    NA+36022  39.543  11.331  14.037
71038ION    NA+36023  20.307  38.955   2.664
71039ION    NA+36024  18.114  23.468   1.621
71040ION    NA+36025   0.396  35.594  10.904
71041ION    NA+36026   2.493   8.827  10.659
71042ION    NA+36027   6.235  18.819   0.354
71043ION    NA+36028   7.634  44.243   1.502
71044ION    NA+36029  39.305  25.780  13.378
71045ION    NA+36030   8.207  19.310   3.100
71046ION    NA+36031  28.437  36.434  14.692
71047ION    NA+36032   5.929  27.439   1.743
71048ION    NA+36033  24.387  35.664   1.612
71049ION    NA+36034   9.782  23.421  14.675
71050ION    NA+36035  43.786  23.071   2.293
71051ION    NA+36036   6.945   3.545   3.871
71052ION    NA+36037   0.636  10.109   0.573
71053ION    NA+36038   1.949  12.550   4.556
71054ION    NA+36039  27.912  40.386   4.120
71055ION    NA+36040  12.463  26.267   3.916
71056ION    NA+36041   7.877  20.600   2.779
71057ION    NA+36042  23.634  32.041  11.986
71058ION    NA+36043  22.129  23.403  10.831
71059ION    NA+36044  34.413  28.059  14.653
71060ION    NA+36045  28.594   8.455   0.454
71061ION    NA+36046  13.675   8.618  10.710
71062ION    NA+36047  27.401  22.607   4.455
71063ION    NA+36048  13.338   7.098  11.934
71064ION    NA+36049  34.107  30.117   3.576
71065ION    NA+36050   1.409  19.898   3.420
71066ION    NA+36051   7.833   0.543   3.061
71067ION    NA+36052   7.278  34.279  12.580
71068ION    NA+36053   1.619   4.577  14.949
71069ION    NA+36054  18.496  29.956   0.801
71070ION    NA+36055  41.348  39.256  10.508
71071ION    NA+36056  10.933  42.555   1.828
71072ION    NA+36057  17.232  32.555   0.158
71073ION    NA+36058  27.259  14.220  13.071
71074ION    NA+36059   7.525  28.116  13.388
71075ION    NA+36060  14.215   5.922  14.138
71076ION    NA+36061  22.498  26.704   2.287
71077ION    NA+36062  14.596   3.090  11.925
71078ION    NA+36063  26.907  19.780  13.040
71079ION    NA+36064   4.739   0.346  12.524
71080ION    NA+36065   2.207  43.207  13.016
71081ION    NA+36066  44.853  42.280   2.382
71082ION    NA+36067  11.973  40.059   5.203
71083ION    NA+36068  41.443  11.919  13.072
71084ION    NA+36069  21.583  21.528   2.369
71085ION    NA+36070  33.024   8.419  14.720
71086ION    NA+36071  14.799  22.814  12.514
71087ION    NA+36072   2.511  25.493  11.603
71088ION    NA+36073  41.806  34.938  12.485
71089ION    NA+36074  32.766   7.264   4.910
71090ION    NA+36075   3.610  26.965   1.688
71091ION    NA+36076   9.228  33.364   1.911
71092ION    NA+36077  32.445  27.280   1.723
71093ION    NA+36078   2.140  10.709  13.769
71094ION    NA+36079   4.277   7.925   2.591
71095ION    NA+36080  43.387   1.990  13.048
71096ION    NA+36081   3.700   9.735   2.820
71097ION    NA+36082   5.164  13.959   1.638
71098ION    NA+36083  27.691  10.111   1.578
71099ION    NA+36084   3.055  18.773  11.080
71100ION    NA+36085  34.453  24.709   2.617
71101ION    NA+36086  16.399  15.068   3.903
71102ION    NA+36087   0.177  18.997   1.057
71103ION    NA+36088  17.211   7.290  14.091
71104ION    NA+36089  11.546  29.597  14.996
71105ION    NA+36090  17.704  13.122   1.392
71106ION    NA+36091  22.037   5.644  12.410
71107ION    NA+36092   0.845  20.807   2.180
71108ION    NA+36093  19.158  37.383   3.459
71109ION    NA+36094   7.390  32.416   3.366
71110ION    NA+36095  10.006  32.163   3.260
71111ION    NA+36096   9.465  11.850   0.259
71112ION    NA+36097   4.655  41.758  14.022
71113ION    NA+36098  31.186  42.907   4.022
71114ION    NA+36099  26.706   2.955  12.034
71115ION    NA+36100  20.241   3.190   1.861
71116ION    NA+36101  26.284  31.860  12.522
71117ION    NA+36102  43.550   1.610   2.742
71118ION    NA+36103  30.167  42.223   3.682
71119ION    NA+36104  16.680   3.507  12.606
71120ION    NA+36105   2.263  21.024  12.108
71121ION    NA+36106  22.980  39.729  11.833
71122ION    NA+36107  10.139  35.532  14.300
71123ION    NA+36108  38.126  26.116   3.271
71124ION    NA+36109   7.958  41.438  13.987
71125ION    NA+36110  35.624   0.657   1.221
71126ION    NA+36111  38.626  18.615   5.673
71127ION    NA+36112  12.768  33.973  13.863
71128ION    NA+36113  15.621  22.664   5.570
71129ION    NA+36114  42.285  16.145  14.979
71130ION    NA+36115   2.379  24.830   0.615
71131ION    NA+36116  18.041   4.522   3.098
71132ION    NA+36117  43.585  34.171   0.685
71133ION    NA+36118  39.493  14.194  11.218
71134ION    NA+36119  27.908  41.999  11.165
71135ION    NA+36120   5.241  44.017   2.714
71136ION    NA+36121  40.626  35.318  14.182
71137ION    NA+36122  16.486   4.361   0.504
71138ION    NA+36123  25.174  30.789  13.255
71139ION    NA+36124  10.830   8.360  14.720
71140ION    NA+36125   9.625   9.599  14.684
71141ION    NA+36126  18.334   4.358  12.452
71142ION    NA+36127  44.397  34.473   3.678
71143ION    NA+36128  10.470  13.397   9.890
71144ION    NA+36129  24.467  26.827  12.061
71145ION    NA+36130  21.401  11.947  11.970
71146ION    NA+36131  11.909   2.466  11.539
71147ION    NA+36132  16.679  16.784  13.147
71148ION    NA+36133  40.481  21.977  10.555
71149ION    NA+36134  36.072  14.056   0.314
71150ION    NA+36135  24.690  16.322  12.171
71151ION    NA+36136  34.221  16.968   4.604
71152ION    NA+36137  20.065   3.745  12.816
71153ION    NA+36138  43.795  33.724   3.954
71154ION    NA+36139  28.768  19.472  13.980
71155ION    NA+36140  15.454  15.124  10.464
71156ION    NA+36141   8.936  11.749   2.167
71157ION    NA+36142  20.542  24.053   1.947
71158ION    NA+36143  37.725   9.424  12.963
71159ION    NA+36144  44.486  40.038  13.973
71160ION    NA+36145  38.479   1.033  14.368
71161ION    NA+36146   5.260   1.215  12.657
71162ION    NA+36147   9.748  20.906  13.932
71163ION    NA+36148   5.911  30.923  10.691
71164ION    NA+36149  22.945  22.654  10.590
71165ION    NA+36150   8.643  24.052   1.654
71166ION    NA+36151  11.258  23.573  12.618
71167ION    NA+36152  13.519  13.408   2.134
71168ION    NA+36153  10.943   2.041   1.980
71169ION    NA+36154  43.279  35.915  13.535
71170ION    NA+36155  16.383  40.827   2.418
71171ION    NA+36156  27.449   6.439   1.776
71172ION    NA+36157  32.026  30.866  10.768
71173ION    NA+36158  33.217  37.499   0.043
71174ION    NA+36159  41.288  33.776   0.808
71175ION    NA+36160  40.974   2.113   2.568
71176ION    NA+36161  18.563  14.648   1.939
71177ION    NA+36162  40.541  29.015  10.803
71178ION    NA+36163  28.902  31.891   2.548
71179ION    NA+36164  10.928   6.805   2.722
71180ION    NA+36165   8.426  12.807  12.424
71181ION    NA+36166  23.475  31.171   3.180
71182ION    NA+36167   1.824  33.128   2.670
71183ION    NA+36168  40.656   4.734   2.958
71184ION    NA+36169  34.856  10.346   4.539
71185ION    NA+36170  15.615   6.370  12.459
71186ION    NA+36171  18.653   0.995   3.552
71187ION    NA+36172  16.113  12.515  11.360
71188ION    NA+36173  12.086   8.316   2.379
71189ION    NA+36174  42.065  20.330  14.276
71190ION    NA+36175  17.601  19.903   3.186
71191ION    NA+36176   2.548   1.694   9.757
71192ION    NA+36177  18.235   4.412  13.474
71193ION    NA+36178  17.788  28.507  10.799
71194ION    NA+36179  43.484   5.698  14.326
71195ION    NA+36180  17.895  13.063   0.022
71196ION    NA+36181  30.656  11.110   0.960
71197ION    NA+36182  16.556  35.508  13.452
71198ION    NA+36183   7.378  10.866   1.962
71199ION    NA+36184  21.700  23.433   2.063
71200ION    NA+36185  33.122  37.814   1.247
71201ION    NA+36186  42.353  32.926   1.810
71202ION    NA+36187  31.540   7.152  14.573
71203ION    NA+36188  41.676  33.091   5.482
71204ION    NA+36189  16.158  16.298   0.229
71205ION    NA+36190  22.436  44.374  11.436
71206ION    NA+36191  27.568   0.530   1.734
71207ION    NA+36192   7.735  34.963   0.622
71208ION    NA+36193  40.562  11.564   1.283
71209ION    NA+36194   7.089  26.046   0.887
71210ION    NA+36195  26.700   7.293  10.914
71211ION    NA+36196  31.856  14.473   3.227
71212ION    NA+36197  38.941  33.445  12.106
71213ION    NA+36198  16.110  13.784  14.522
71214ION    NA+36199  17.388  25.632  10.855
71215ION    NA+36200  12.272  25.715  11.166
71216ION    NA+36201   4.969   9.975   3.802
71217ION    NA+36202  31.153  37.349  10.852
71218ION    NA+36203  18.442   6.951  13.523
71219ION    NA+36204  43.881  33.940  14.312
71220ION    NA+36205  22.302  27.949  13.926
71221ION    NA+36206  24.672  25.604   3.647
71222ION    NA+36207   3.874  34.244  11.939
71223ION    NA+36208  22.860  38.739   2.310
71224ION    NA+36209  28.049  40.793   2.783
71225ION    NA+36210  24.928   6.328  14.779
71226ION    NA+36211   7.862   7.413  13.916
71227ION    NA+36212  15.279  13.807   0.980
71228ION    NA+36213  31.935  18.694   2.369
71229ION    NA+36214  11.209  38.908  11.522
71230ION    NA+36215  17.101  20.549   3.762
71231ION    NA+36216  15.065  20.968   2.579
71232ION    NA+36217  26.305  26.034  10.845
71233ION    NA+36218  17.311  29.721   3.832
71234ION    NA+36219   1.076  21.574   1.151
71235ION    NA+36220  25.261  26.469   1.139
71236ION    NA+36221  30.535   2.704  11.033
71237ION    NA+36222  36.926  39.348   2.729
71238ION    NA+36223  21.713  38.987  13.514
71239ION    NA+36224  12.729   8.900  12.785
71240ION    NA+36225  23.753  14.439  12.599
71241ION    NA+36226   9.619  24.152   3.793
71242ION    NA+36227  18.249  42.081  12.094
71243ION    NA+36228  15.697  18.810   1.241
71244ION    NA+36229  40.483  17.749  12.163
71245ION    NA+36230   0.233  20.869  10.031
71246ION    NA+36231   5.607  11.810   2.101
71247ION    NA+36232  17.774  30.272  11.849
71248ION    NA+36233   7.747   8.375   0.697
71249ION    NA+36234  38.367  32.697   0.927
71250ION    NA+36235  35.720  15.856  12.816
71251ION    NA+36236  21.078   3.257   4.937
71252ION    NA+36237   3.220  16.835  12.150
71253ION    NA+36238  23.029  26.130  13.506
71254ION    NA+36239   2.160  18.905  13.069
71255ION    NA+36240   8.230  41.504   4.035
71256ION    NA+36241  23.095  36.637   4.532
71257ION    NA+36242  22.560  15.504  10.849
71258ION    NA+36243  18.680   7.332  10.678
71259ION    NA+36244  43.326  40.928  12.131
71260ION    NA+36245   7.618  17.241   0.268
71261ION    NA+36246  37.199  14.987  11.140
71262ION    NA+36247  19.538   7.643   1.197
71263ION    NA+36248   9.262  35.605   1.379
71264ION    NA+36249  12.068  25.181  10.286
71265ION    NA+36250  13.586  35.439  10.992
71266ION    NA+36251  13.480  40.619  14.877
71267ION    NA+36252  12.450  15.214  12.037
71268ION    NA+36253  21.325  35.436   0.882
71269ION    NA+36254  42.438  33.290   0.447
71270ION    NA+36255  20.252  15.073   0.724
71271ION    NA+36256  10.685  44.325   2.838
71272ION    NA+36257  21.476   9.151   3.613
71273ION    NA+36258   3.146  15.804   2.724
71274ION    NA+36259  40.431  39.101   0.090
71275ION    NA+36260   9.788  23.760   1.745
71276ION    NA+36261  41.231  23.489   0.694
71277ION    NA+36262  44.886  43.887   3.699
71278ION    NA+36263  33.833  14.718  11.887
71279ION    NA+36264  27.881   0.427  14.579
71280ION    NA+36265  44.184  42.229   0.771
71281ION    NA+36266  14.294  34.798  10.696
71282ION    NA+36267  29.071   3.927   0.409
71283ION    NA+36268  21.549  12.506  12.876
71284ION    NA+36269  15.341  37.782  13.933
71285ION    NA+36270  26.598   1.154   3.154
71286ION    NA+36271  44.011  38.858   0.535
71287ION    NA+36272  15.606  16.081  13.017
71288ION    NA+36273  10.164  10.132   3.329
71289ION    NA+36274   0.516  40.074   3.183
71290ION    NA+36275   7.804  40.714  14.495
71291ION    NA+36276  28.734  32.985  10.646
71292ION    NA+36277   6.241  43.261   2.553
71293ION    NA+36278  26.416  17.294  11.116
71294ION    NA+36279  39.772  24.735  13.624
71295ION    NA+36280   2.973  24.601   3.914
71296ION    NA+36281   9.379  21.738  11.014
71297ION    NA+36282  41.166  16.190  12.555
71298ION    NA+36283  30.493  27.918  12.341
71299ION    NA+36284  21.128   0.923  12.291
71300ION    NA+36285   5.702  26.019   0.907
71301ION    NA+36286  38.709  28.753   1.068
71302ION    NA+36287  18.297  13.318   3.081
71303ION    NA+36288  13.737  17.094   2.638
71304ION    NA+36289  34.988  15.851  13.876
71305ION    NA+36290   0.968  43.992   4.519
71306ION    NA+36291  29.334  22.606  12.012
71307ION    NA+36292  38.579   9.204   1.713
71308ION    NA+36293   4.079  15.215  12.521
71309ION    NA+36294  39.613   8.293  13.954
71310ION    NA+36295  30.408   3.624  13.765
71311ION    NA+36296  38.873  22.729   5.384
71312ION    NA+36297  14.029   1.146   0.079
71313ION    NA+36298   7.081  29.747   2.191
71314ION    NA+36299  27.448   3.785   2.518
71315ION    NA+36300  17.289  40.926  11.293
71316ION    NA+36301   7.799   3.960   0.343
71317ION    NA+36302  19.011  44.607   4.116
71318ION    NA+36303   6.921  43.739  14.230
71319ION    NA+36304  27.670  27.554   2.429
71320ION    NA+36305  40.294   9.238  12.034
71321ION    NA+36306  29.193  14.751   2.550
71322ION    NA+36307  43.591  22.796  11.884
71323ION    NA+36308  36.586  33.067  13.461
71324ION    NA+36309  17.893  19.238   2.238
71325ION    NA+36310  24.971   6.299  12.429
71326ION    NA+36311  19.223  25.417  11.457
71327ION    NA+36312  25.325  28.760  12.408
71328ION    NA+36313  17.612  26.932   9.754
71329ION    NA+36314  34.428   7.317   2.637
71330ION    NA+36315  14.297  12.360  14.351
71331ION    NA+36316  15.804  32.544  10.661
71332ION    NA+36317  17.713   7.682   2.447
71333ION    NA+36318  43.218  41.361  14.413
71334ION    NA+36319  41.317  28.426  12.460
71335ION    NA+36320  16.064  44.939   0.679
71336ION    NA+36321   7.845  31.022   4.266
71337ION    NA+36322  14.102  13.401  14.883
71338ION    NA+36323  29.960  36.325   3.880
71339ION    NA+36324  24.499  18.912   3.826
71340ION    NA+36325   5.482  42.563  13.009
71341ION    NA+36326  13.666  38.435   4.701
71342ION    NA+36327  41.113  19.663  13.808
71343ION    NA+36328   2.939  40.785  13.548
71344ION    NA+36329  41.879  42.534   0.795
71345ION    NA+36330  31.812  26.797   3.749
71346ION    NA+36331  12.599   1.510   0.878
71347ION    NA+36332  21.283  21.556  14.255
71348ION    NA+36333  11.481  27.038   1.459
71349ION    NA+36334  13.748  34.041   4.257
71350ION    NA+36335   8.632  18.717  12.529
71351ION    NA+36336  29.656   4.969  12.526
71352ION    NA+36337  20.315  41.515   4.920
71353ION    NA+36338  13.334  17.173  11.674
71354ION    NA+36339  21.063  19.331   3.270
71355ION    NA+36340  36.737  25.238  11.904
71356ION    NA+36341  17.691  37.115  14.811
71357ION    NA+36342  31.491  44.502  14.951
71358ION    NA+36343  19.018  44.446   1.279
71359ION    NA+36344   4.825  11.279  14.531
71360ION    NA+36345  30.736  38.061   4.627
71361ION    NA+36346  27.673  25.530  11.414
71362ION    NA+36347  13.820  29.546  14.341
71363ION    NA+36348  36.354  17.268  11.128
71364ION    NA+36349  15.900  10.606  12.480
71365ION    NA+36350   6.063   8.437  11.088
71366ION    NA+36351   7.834  28.687  11.989
71367ION    NA+36352  21.983  16.003  12.154
71368ION    NA+36353  41.087  36.973   3.372
71369ION    NA+36354  42.250  17.443  14.720
71370ION    NA+36355  21.395  31.017   3.670
71371ION    NA+36356  23.460  30.482   5.500
71372ION    NA+36357  24.629  11.380  10.735
71373ION    NA+36358  20.112   6.242  12.824
71374ION    NA+36359  34.044  27.513  13.519
71375ION    NA+36360  28.350  12.116  14.453
71376ION    NA+36361  29.510   6.808   1.877
71377ION    NA+36362  35.099  25.674   2.218
71378ION    NA+36363  41.171  26.631   3.850
71379ION    NA+36364  41.475  31.955  11.518
71380ION    NA+36365   0.725  19.574   4.217
71381ION    NA+36366   5.007   5.718   2.250
71382ION    NA+36367  39.351  10.571   2.467
71383ION    NA+36368  19.789  21.978   1.797
71384ION    NA+36369  28.697  23.157   2.828
71385ION    NA+36370  22.840  20.483   4.984
71386ION    NA+36371  20.561   0.354  11.862
71387ION    NA+36372  15.961  37.090   3.851
71388ION    NA+36373  19.203  36.064   2.706
71389ION    NA+36374   2.387  31.677   4.891
71390ION    NA+36375  14.360  32.009  10.243
71391ION    NA+36376  33.705  16.815  13.011
71392ION    NA+36377  11.888   2.165  12.389
71393ION    NA+36378  44.243  28.570  10.546
71394ION    NA+36379  21.054  31.126   0.365
71395ION    NA+36380  37.345  39.330   5.109
71396ION    NA+36381   9.323  33.478  12.193
71397ION    NA+36382  23.864  22.641  14.517
71398ION    NA+36383   0.143  31.187   0.840
71399ION    NA+36384   7.685  42.072  12.209
71400ION    NA+36385  33.088  42.958   0.577
71401ION    NA+36386  30.044  28.070   0.620
71402ION    NA+36387  15.396  44.636   2.488
71403ION    NA+36388  44.571  17.210   3.341
71404ION    NA+36389  19.458  34.946  12.226
71405ION    NA+36390   3.783  16.289  13.351
71406ION    NA+36391  13.868   6.545  12.401
71407ION    NA+36392   0.728  25.530   0.974
71408ION    NA+36393  25.503   1.544  11.789
71409ION    NA+36394  21.917   4.800  11.887
71410ION    NA+36395  36.834  16.183  13.484
71411ION    NA+36396  20.998  20.564  14.315
71412ION    NA+36397  24.184  14.480  14.814
71413ION    NA+36398  39.729  17.543  12.787
71414ION    NA+36399   5.447  36.237  12.646
71415ION    NA+36400  13.798  26.106  12.069
71416ION    NA+36401  17.239  28.974   4.570
71417ION    NA+36402  43.880   4.756   3.832
71418ION    NA+36403  11.934  38.106  11.395
71419ION    NA+36404   7.362  37.458  11.326
71420ION    NA+36405  34.795  11.892  12.896
71421ION    NA+36406  12.980   9.169  11.944
71422ION    NA+36407  43.635  23.558   0.748
71423ION    NA+36408   1.726  42.259   4.094
71424ION    NA+36409  37.849  39.973   3.308
71425ION    NA+36410   8.970   5.197   1.567
71426ION    NA+36411  16.263  18.025  12.655
71427ION    NA+36412   7.645  22.390  14.871
71428ION    NA+36413  29.329   9.953   3.283
71429ION    NA+36414  23.496  35.352   1.280
71430ION    NA+36415  18.461  17.843   3.590
71431ION    NA+36416  17.074  24.351   9.432
71432ION    NA+36417  11.835  34.449   0.290
71433ION    NA+36418   0.408  37.634   0.479
71434ION    NA+36419   2.709  15.280   4.097
71435ION    NA+36420  39.625  12.997   3.452
71436ION    NA+36421   9.256  43.146  11.976
71437ION    NA+36422  33.229  33.016   1.013
71438ION    NA+36423  16.859  15.736   4.499
71439ION    NA+36424  26.926  12.667   3.173
71440ION    NA+36425   5.206  22.949  11.928
71441ION    NA+36426  10.847  25.579  13.065
71442ION    NA+36427  21.522  26.068  13.507
71443ION    NA+36428  41.499  38.192  10.936
71444ION    NA+36429  10.383  24.625  10.734
71445ION    NA+36430  42.488   4.461   0.262
71446ION    NA+36431   5.750   0.909   1.163
71447ION    NA+36432  25.182  31.137   0.315
71448ION    NA+36433  11.505  26.572   3.001
71449ION    NA+36434  35.939  43.756  11.406
71450ION    NA+36435  15.688  11.073   4.055
71451ION    NA+36436  31.474  22.742  11.233
71452ION    NA+36437  36.754  17.710  13.026
71453ION    NA+36438   6.526  34.928   1.929
71454ION    NA+36439  34.449  33.709  14.858
71455ION    NA+36440  28.932  17.596   2.573
71456ION    NA+36441  42.039  42.950   3.667
71457ION    NA+36442  44.749  29.822   2.918
71458ION    NA+36443  24.905   8.839   3.185
71459ION    NA+36444   1.788  20.476   2.148
71460ION    NA+36445   5.968   3.059  10.692
71461ION    NA+36446  25.588   1.040  13.274
71462ION    NA+36447   9.352  14.764   1.331
71463ION    NA+36448  21.069  38.058   3.720
71464ION    NA+36449  15.616  11.115   5.114
71465ION    NA+36450  15.318  25.084   0.486
71466ION    NA+36451  23.385  30.031  14.117
71467ION    NA+36452   8.078  31.034  14.366
71468ION    NA+36453  15.716  19.944   1.917
71469ION    NA+36454  21.181   7.297   0.202
71470ION    NA+36455  24.228  36.081  10.685
71471ION    NA+36456  21.539   7.826  12.261
71472ION    NA+36457  44.470  20.797   0.539
71473ION    NA+36458  10.858   1.256   1.367
71474ION    NA+36459  43.883  15.197  11.065
71475ION    NA+36460  12.848  38.866   2.221
71476ION    NA+36461  41.457  27.062   1.405
71477ION    NA+36462  34.590  24.958   1.204
71478ION    NA+36463  42.285   8.214  11.334
71479ION    NA+36464  19.558   5.871   4.946
71480ION    NA+36465  38.528  33.163  14.970
71481ION    NA+36466   9.155  27.368   0.688
71482ION    NA+36467  19.867  35.372   2.682
71483ION    NA+36468  31.337  44.171  11.156
71484ION    NA+36469  26.886  11.377   1.402
71485ION    NA+36470  41.473  17.844  13.069
71486ION    NA+36471   3.324  38.093  13.389
71487ION    NA+36472  19.388  25.029  12.471
71488ION    NA+36473  18.044   3.646   3.581
71489ION    NA+36474  13.407  36.369  13.190
71490ION    NA+36475   4.439  17.672   3.204
71491ION    NA+36476  42.140  39.233  11.508
71492ION    NA+36477  42.855  35.550   3.110
71493ION    NA+36478   2.637  37.920  11.762
71494ION    NA+36479   2.782   7.404   2.164
71495ION    NA+36480   2.067  18.308  10.742
71496ION    NA+36481  10.874  29.952   1.909
71497ION    NA+36482  41.586  11.333   2.584
71498ION    NA+36483  15.475  41.242   2.365
71499ION    NA+36484   2.923  43.036   3.543
71500ION    NA+36485  32.989   9.216   9.352
71501ION    NA+36486  31.897  14.948   2.191
71502ION    NA+36487  14.034  44.245   2.011
71503ION    NA+36488   4.720  39.666   4.258
71504ION    NA+36489  44.165  12.578  13.071
71505ION    NA+36490  37.808  35.430   5.260
71506ION    NA+36491  42.349  10.216   0.837
71507ION    NA+36492  11.460  22.002  14.587
71508ION    NA+36493   3.668  15.975   3.438
71509ION    NA+36494  10.384  18.644  13.058
71510ION    NA+36495  32.034  35.126   2.023
71511ION    NA+36496  16.097   3.152   0.570
71512ION    NA+36497  12.377  14.755   3.846
71513ION    NA+36498  38.862  16.746  13.911
71514ION    NA+36499   0.495  27.275  13.998
71515ION    NA+36500  33.706  31.653  10.993
71516ION    NA+36501  35.150  43.094   2.721
71517ION    NA+36502  12.794  27.041   1.612
71518ION    NA+36503  10.375  17.086   1.796
71519ION    NA+36504  18.574  25.958   1.309
71520ION    NA+36505  15.989  40.136  11.992
71521ION    NA+36506  17.913  31.533   1.473
71522ION    NA+36507  26.710  36.691   4.097
71523ION    NA+36508  28.423  41.268  13.553
71524ION    NA+36509  13.441  44.563  14.172
71525ION    NA+36510  39.397  10.237  14.761
71526ION    NA+36511  26.623  26.206   2.333
71527ION    NA+36512  32.884  14.607  12.466
71528ION    NA+36513  39.478  44.451   0.241
71529ION    NA+36514  22.984  25.161   0.610
71530ION    NA+36515  13.499   8.633  12.168
71531ION    NA+36516  39.920  32.487  14.089
71532ION    NA+36517   0.038   7.769   4.590
71533ION    NA+36518  17.412  10.121  13.680
71534ION    NA+36519  22.167   9.545   4.983
71535ION    NA+36520  44.419  42.827  11.955
71536ION    NA+36521  19.704   2.296  11.890
71537ION    NA+36522  26.407   5.346   2.361
71538ION    NA+36523  17.136   8.239   1.849
71539ION    NA+36524  32.490  40.607  14.354
71540ION    NA+36525  17.069  10.667  12.915
71541ION    NA+36526   5.643  13.918   3.465
71542ION    NA+36527  17.758  37.243   3.351
71543ION    NA+36528  22.652  13.081  12.013
71544ION    NA+36529   1.084  37.617  13.387
71545ION    NA+36530  33.150   2.015  11.095
71546ION    NA+36531  23.613  44.604   1.145
71547ION    NA+36532  28.940  29.225   2.584
71548ION    NA+36533   5.495  12.086  14.361
71549ION    NA+36534  17.378   2.260   4.665
71550ION    NA+36535  36.699  39.100  14.516
71551ION    NA+36536  13.194  32.055  10.669
71552ION    NA+36537  43.351  18.327   0.349
71553ION    NA+36538   9.213  40.035   2.159
71554ION    NA+36539   5.747  10.862   4.078
71555ION    NA+36540  17.114  12.502  11.124
71556ION    NA+36541  10.944  11.588  14.715
71557ION    NA+36542  43.885   9.074   2.517
71558ION    NA+36543   9.877  29.572   3.993
71559ION    NA+36544  41.326   1.741  13.626
71560ION    NA+36545  34.432  34.593   0.073
71561ION    NA+36546  10.698  40.219   2.078
71562ION    NA+36547  42.347  28.855  10.723
71563ION    NA+36548  39.806   6.110  12.954
71564ION    NA+36549  20.760  17.538  11.709
71565ION    NA+36550  42.383   6.617   4.786
71566ION    NA+36551  17.600  13.249  10.664
71567ION    NA+36552  13.115   7.120  14.905
71568ION    NA+36553   8.413  32.299  11.952
71569ION    NA+36554  10.455  44.835   3.547
71570ION    NA+36555  29.244  44.250   1.753
71571ION    NA+36556  32.754  14.032   3.233
71572ION    NA+36557   9.531  44.158   1.510
71573ION    NA+36558   0.780  20.821   3.827
71574ION    NA+36559   7.641   3.949   3.909
71575ION    NA+36560   8.300  41.941   1.940
71576ION    NA+36561   4.904   6.490  10.991
71577ION    NA+36562  37.459  38.273   1.910
71578ION    NA+36563  35.629  32.854   1.044
71579ION    NA+36564   8.924  38.535  14.303
71580ION    NA+36565  34.399  36.502  11.164
71581ION    NA+36566   6.043  28.903  10.890
71582ION    NA+36567  20.463  37.982   0.864
71583ION    NA+36568  28.931  13.578  13.050
71584ION    NA+36569  31.617  44.252  13.991
71585ION    NA+36570   4.037   3.739   0.499
71586ION    NA+36571   3.518  13.269   2.428
71587ION    NA+36572   9.047  23.745   2.653
71588ION    NA+36573  12.703  14.787   0.257
71589ION    NA+36574  18.547  34.603   0.402
71590ION    NA+36575   7.913  37.514  10.410
71591ION    NA+36576  19.471  13.831  12.582
71592ION    NA+36577  17.766   5.151  12.670
71593ION    NA+36578   7.682  29.877  12.570
71594ION    NA+36579   4.682  27.931  12.493
71595ION    NA+36580  36.845  27.969  10.715
71596ION    NA+36581  11.539  29.218  11.191
71597ION    NA+36582   3.236   4.433   3.200
71598ION    NA+36583  14.655   4.850   1.851
71599ION    NA+36584  15.753  20.639   3.725
71600ION    NA+36585  41.291  14.325   1.410
71601ION    NA+36586  17.610  44.663   2.446
71602ION    NA+36587   3.917  38.955   2.273
71603ION    NA+36588  24.052   9.877   3.799
71604ION    NA+36589  43.876  29.046  12.042
71605ION    NA+36590  31.537  24.781  10.947
71606ION    NA+36591  31.645   0.724   4.662
71607ION    NA+36592  22.143  34.574  11.576
71608ION    NA+36593  42.886   7.473   4.671
71609ION    NA+36594   0.086  36.913  13.414
71610ION    NA+36595  21.448  42.007   1.073
71611ION    NA+36596  15.155   5.434   0.433
71612ION    NA+36597   7.233   2.784  10.488
71613ION    NA+36598  18.543  18.694  13.091
71614ION    NA+36599  25.259  32.142   2.938
71615ION    NA+36600   7.938  40.321   3.303
71616ION    NA+36601  37.115  39.755   0.889
71617ION    NA+36602  39.490   9.865  11.271
71618ION    NA+36603   0.804  42.989   4.487
71619ION    NA+36604  11.601  11.757  11.403
71620ION    NA+36605  32.079  43.211  11.537
71621ION    NA+36606  42.132  42.039   4.224
71622ION    NA+36607  22.740  17.285   0.864
71623ION    NA+36608  32.404  28.737   1.704
71624ION    NA+36609  34.358   5.466  10.335
71625ION    NA+36610   1.215  41.469   1.794
71626ION    NA+36611   3.268  33.553   5.083
71627ION    NA+36612  25.989  27.698   3.747
71628ION    NA+36613  14.625  24.149   0.819
71629ION    NA+36614  15.069  25.694   3.639
71630ION    NA+36615  33.946   2.903  14.121
71631ION    NA+36616  14.098  29.112  13.107
71632ION    NA+36617  31.562  26.493   0.746
71633ION    NA+36618   9.389  11.223  12.773
71634ION    NA+36619  32.620   9.116   3.586
71635ION    NA+36620  39.784  39.499   3.196
71636ION    NA+36621  29.899  42.981   5.173
71637ION    NA+36622  44.472  19.297  11.217
71638ION    NA+36623  11.788  34.521   4.651
71639ION    NA+36624   2.385  36.762  13.396
71640ION    NA+36625  16.793  26.429   1.190
71641ION    NA+36626  37.291  28.153   5.425
71642ION    NA+36627   0.728   0.411  12.043
71643ION    NA+36628  15.800  31.185  12.466
71644ION    NA+36629  39.609  36.006   2.201
71645ION    NA+36630  26.664  14.207  11.665
71646ION    NA+36631  12.718  16.744   0.895
71647ION    NA+36632  38.597  30.249  13.592
71648ION    NA+36633  38.653  13.492   3.527
71649ION    NA+36634  42.366  23.628   2.596
71650ION    NA+36635  17.045  13.476  14.694
71651ION    NA+36636   1.493   0.855   1.271
71652ION    NA+36637  41.469  40.240  10.377
71653ION    NA+36638  19.961  35.671  12.132
71654ION    NA+36639  19.512   9.360   0.702
71655ION    NA+36640  29.591  34.386  13.351
71656ION    NA+36641  11.829  39.173  13.560
71657ION    NA+36642   8.323   1.026  13.798
71658ION    NA+36643  28.007  35.362   4.810
71659ION    NA+36644  13.271  31.810   1.651
71660ION    NA+36645  28.627  38.936   3.182
71661ION    NA+36646   5.709  39.356  10.864
71662ION    NA+36647  40.680  21.371  12.440
71663ION    NA+36648  20.350  25.465   0.113
71664ION    NA+36649  43.359   4.226  11.001
71665ION    NA+36650  17.165   8.008   4.562
71666ION    NA+36651  22.577   6.666   3.168
71667ION    NA+36652   7.136   9.197   0.719
71668ION    NA+36653   0.111  41.507   4.142
71669ION    NA+36654  23.520  34.842   2.318
71670ION    NA+36655   4.364  28.431   0.707
71671ION    NA+36656  22.986   8.753   2.718
71672ION    NA+36657  29.847  33.456  10.837
71673ION    NA+36658  37.082  27.920   0.950
71674ION    NA+36659  44.040  14.327  12.885
71675ION    NA+36660   9.361  42.248  12.301
71676ION    NA+36661  18.117  16.194   4.887
71677ION    NA+36662  26.918  33.915   3.517
71678ION    NA+36663  10.273  36.189   2.917
71679ION    NA+36664  25.734  24.280  12.836
71680ION    NA+36665   9.786  40.087  10.761
71681ION    NA+36666  41.697  44.557   0.397
71682ION    NA+36667  31.452  31.429   2.142
71683ION    NA+36668  10.642  10.678   2.640
71684ION    NA+36669  33.832  23.437  14.306
71685ION    NA+36670  28.869  31.227  10.568
71686ION    NA+36671  14.259   3.685  12.981
71687ION    NA+36672  20.640  29.591  13.025
71688ION    NA+36673  30.385  37.957  10.654
71689ION    NA+36674  32.370  23.100   2.723
71690ION    NA+36675  44.229   7.829   5.318
71691ION    NA+36676  27.565  35.705   3.132
71692ION    NA+36677   9.656  16.755  10.866
71693ION    NA+36678  43.881  11.151  10.677
71694ION    NA+36679  12.828  10.817  14.420
71695ION    NA+36680  31.892  13.280   0.910
71696ION    NA+36681  36.409  15.111  10.896
71697ION    NA+36682  41.849  23.073   3.346
71698ION    NA+36683  42.822  21.670  12.845
71699ION    NA+36684  31.041  13.839   0.951
71700ION    NA+36685  38.046  10.356  13.739
71701ION    NA+36686  33.094  35.715   4.680
71702ION    NA+36687  11.408  36.372   4.096
71703ION    NA+36688  36.968   9.942   2.646
71704ION    NA+36689  35.263  14.802  11.208
71705ION    NA+36690  32.847  14.650   2.286
71706ION    NA+36691  20.654  27.844   0.978
71707ION    NA+36692   1.549   0.082  14.226
71708ION    NA+36693   2.925   3.996  11.266
71709ION    NA+36694  13.801  30.645  12.153
71710ION    NA+36695  34.040  19.766  14.478
71711ION    NA+36696   9.358  14.737  13.349
71712ION    NA+36697   6.548  44.673   4.628
71713ION    NA+36698  39.830  37.465   3.621
71714ION    NA+36699  36.826  43.223   2.149
71715ION    NA+36700  41.632  22.158   1.211
71716ION    NA+36701  32.984   9.577  10.326
71717ION    NA+36702  34.529  33.667  11.017
71718ION    NA+36703  22.684  26.648   3.268
71719ION    NA+36704  12.926  20.333   4.180
71720ION    NA+36705  40.537   9.811   0.227
71721ION    NA+36706  14.121  44.924  11.246
71722ION    NA+36707  43.701  35.443  12.762
71723ION    NA+36708  19.684  29.718   0.399
71724ION    NA+36709  24.699   9.875  13.470
71725ION    NA+36710  36.456  12.576   3.188
71726ION    NA+36711  21.951   2.476  12.124
71727ION    NA+36712  39.884   4.202  14.045
71728ION    NA+36713   0.877   0.256  11.063
71729ION    NA+36714  25.449  26.451  13.388
71730ION    NA+36715  27.092  22.797  14.852
71731ION    NA+36716   2.181  43.477   4.049
71732ION    NA+36717  41.506  44.047  12.946
71733ION    NA+36718  34.502  17.666  12.760
71734ION    NA+36719  27.782   5.104   4.587
71735ION    NA+36720   7.805  27.375   3.578
71736ION    NA+36721  43.299  15.557   3.312
71737ION    NA+36722  20.554  29.447  14.986
71738ION    NA+36723  12.391  28.164   3.857
71739ION    NA+36724  39.024  13.549   2.285
71740ION    NA+36725  39.283  10.094  13.382
71741ION    NA+36726  15.113  15.255  14.237
71742ION    NA+36727  42.039  37.468   3.914
71743ION    NA+36728  20.053  24.797   0.810
71744ION    NA+36729  13.913  23.198  14.777
71745ION    NA+36730  20.063  44.362  13.089
71746ION    NA+36731   7.235  44.059  12.435
71747ION    NA+36732  29.516   5.953   2.603
71748ION    NA+36733  29.421  36.395   3.256
71749ION    NA+36734   1.584  44.804   2.728
71750ION    NA+36735  40.119  13.150   1.714
71751ION    NA+36736   9.371   8.411  11.454
71752ION    NA+36737  29.760   4.182  13.136
71753ION    NA+36738  38.295  22.053  14.339
71754ION    NA+36739   7.535  10.718   2.974
71755ION    NA+36740  32.774  39.329  13.531
71756ION    NA+36741  43.663  29.481  12.936
71757ION    NA+36742  21.058  41.428   1.647
71758ION    NA+36743  37.123  21.872  13.240
71759ION    NA+36744  21.149   0.017  14.961
71760ION    NA+36745  18.893  40.237  13.637
71761ION    NA+36746  29.676   3.337  11.379
71762ION    NA+36747  29.752   7.743  11.024
71763ION    NA+36748   1.844   6.545  12.435
71764ION    NA+36749  16.011   4.254   3.807
71765ION    NA+36750  38.913  20.711  14.708
71766ION    NA+36751  44.980   8.648  11.614
71767ION    NA+36752  13.624   3.071  14.569
71768ION    NA+36753  11.753   5.493   2.485
71769ION    NA+36754  24.994  24.885  11.824
71770ION    NA+36755  30.399  10.141   1.751
71771ION    NA+36756  31.222  25.970  14.892
71772ION    NA+36757  11.914  25.931   0.193
71773ION    NA+36758  44.145  41.284   4.387
71774ION    NA+36759  26.229  38.055  14.996
71775ION    NA+36760  21.777  28.947  11.263
71776ION    NA+36761  38.347   2.777   4.714
71777ION    NA+36762  41.618  39.459   1.748
71778ION    NA+36763   9.223  38.851   0.919
71779ION    NA+36764  21.967  29.197   3.514
71780ION    NA+36765   6.827  16.445   0.208
71781ION    NA+36766  38.921   3.737  10.894
71782ION    NA+36767  18.305   0.904  13.938
71783ION    NA+36768  15.573  36.389  13.803
71784ION    NA+36769  26.418  14.171   2.489
71785ION    NA+36770   8.333  10.983   4.144
71786ION    NA+36771  11.618  17.543   4.128
71787ION    NA+36772  34.979  24.571   3.457
71788ION    NA+36773   3.316  42.476  11.124
71789ION    NA+36774   6.756  29.585  12.332
71790ION    NA+36775  41.026  10.168   1.821
71791ION    NA+36776   9.757  25.402   4.615
71792ION    NA+36777  39.966  26.595   2.266
71793ION    NA+36778  29.269  36.836  12.281
71794ION    NA+36779  21.469  39.019   4.419
71795ION    NA+36780  38.577   2.016   4.447
71796ION    NA+36781   3.103  17.800  13.166
71797ION    NA+36782  27.469  41.205   1.131
71798ION    NA+36783  22.919  24.199   3.327
71799ION    NA+36784  38.417  13.160   1.592
71800ION    NA+36785  21.430  39.464  14.605
71801ION    NA+36786  42.803   0.671  13.007
71802ION    NA+36787  41.883   5.966  11.131
71803ION    NA+36788  30.053  14.095  14.944
71804ION    NA+36789  21.321  28.384  11.815
71805ION    NA+36790  30.655   5.140   2.182
71806ION    NA+36791  37.131   1.452   1.338
71807ION    NA+36792   9.499  23.884   9.728
71808ION    NA+36793  43.621  22.085  10.614
71809ION    NA+36794  29.368   8.779   4.009
71810ION    NA+36795  32.179   7.793   1.905
71811ION    NA+36796  44.228  38.141   2.854
71812ION    NA+36797  41.088   7.572   3.244
71813ION    NA+36798  15.121  41.830  11.002
71814ION    NA+36799  18.054  40.666  12.690
71815ION    NA+36800  30.476  37.484  13.582
71816ION    NA+36801  10.986  39.513  13.592
71817ION    NA+36802  21.647  17.308  11.126
71818ION    NA+36803  12.232  21.999  12.931
71819ION    NA+36804   2.329   4.690  12.977
71820ION    NA+36805  33.397  26.585  12.437
71821ION    NA+36806  15.693  29.636   4.515
71822ION    NA+36807  41.374   5.747  11.730
71823ION    NA+36808  15.310   3.254  12.622
71824ION    NA+36809  43.017  36.186   4.598
71825ION    NA+36810  35.706  26.727  10.799
71826ION    NA+36811  31.386   8.037  14.431
71827ION    NA+36812  16.075  10.126   4.144
71828ION    NA+36813  22.130  38.131  11.987
71829ION    NA+36814  16.380  23.974  12.775
71830ION    NA+36815  23.500  18.091  10.484
71831ION    NA+36816   7.668  42.654  14.546
71832ION    NA+36817  10.194  22.730   0.375
71833ION    NA+36818  33.639  29.997   1.820
71834ION    NA+36819  27.621   7.846  13.499
71835ION    NA+36820  24.251  41.967  13.824
71836ION    NA+36821  10.539  34.097  11.873
71837ION    NA+36822   7.943   6.320  11.695
71838ION    NA+36823  39.542  43.556  13.424
71839ION    NA+36824  18.764  32.684  10.738
71840ION    NA+36825  20.814  39.605   1.340
71841ION    NA+36826  12.788  32.864   3.890
71842ION    NA+36827  28.691   2.628   9.946
71843ION    NA+36828  12.500  29.069   3.337
71844ION    NA+36829  10.898   6.220  14.384
71845ION    NA+36830  16.217  14.358  13.710
71846ION    NA+36831  22.582  14.698   4.200
71847ION    NA+36832  19.457   7.161  11.902
71848ION    NA+36833   5.192  18.849  14.489
71849ION    NA+36834  27.015   6.407   2.988
71850ION    NA+36835   9.427  23.942   0.334
71851ION    NA+36836  16.118  13.065  12.701
71852ION    NA+36837   7.454  23.275  14.811
71853ION    NA+36838   2.916   8.370   1.783
71854ION    NA+36839  44.082  23.004   4.187
71855ION    NA+36840  37.960  24.589   2.407
71856ION    NA+36841  43.750  35.033  13.557
71857ION    NA+36842  39.862   8.178   3.511
71858ION    NA+36843  41.871  20.783  12.092
71859ION    NA+36844   9.168  32.088  14.203
71860ION    NA+36845   4.368  40.724   2.534
71861ION    NA+36846  29.520  29.303  11.239
71862ION    NA+36847   0.198  17.594   2.340
71863ION    NA+36848  30.802   6.166   2.314
71864ION    NA+36849  34.806   3.976  10.730
71865ION    NA+36850  10.778  39.999   3.088
71866ION    NA+36851  23.539   2.186  13.811
71867ION    NA+36852   3.792   1.057   4.444
71868ION    NA+36853  30.476  14.989  14.383
71869ION    NA+36854   1.029  17.183   1.913
71870ION    NA+36855  36.336  36.908  10.599
71871ION    NA+36856   2.653   2.898  13.851
71872ION    NA+36857  35.082  39.050  13.885
71873ION    NA+36858   9.786  14.045   2.174
71874ION    NA+36859   5.689  31.308  14.851
71875ION    NA+36860  12.675  43.305  14.702
71876ION    NA+36861  44.312  27.266   4.507
71877ION    NA+36862   4.077  11.645  13.060
71878ION    NA+36863  24.810  15.310   2.284
71879ION    NA+36864  10.978   9.803   1.453
71880ION    NA+36865  25.251  37.822   0.091
71881ION    NA+36866  41.993   1.357  14.095
71882ION    NA+36867  12.524  27.040   4.552
71883ION    NA+36868  38.346  37.816   0.911
71884ION    NA+36869   0.156   8.525  14.122
71885ION    NA+36870   6.495   4.249  10.397
71886ION    NA+36871  12.860  18.351   4.203
71887ION    NA+36872  27.035  21.608  11.619
71888ION    NA+36873  15.929  26.474  11.607
71889ION    NA+36874   4.259  10.638  11.515
71890ION    NA+36875  30.017  41.311   4.065
71891ION    NA+36876  30.006  27.936   3.666
71892ION    NA+36877  32.076  33.689   4.101
71893ION    NA+36878  25.477  35.459  11.473
71894ION    NA+36879  41.384   7.755  11.173
71895ION    NA+36880  43.768  35.475  14.977
71896ION    NA+36881  21.326  39.998  12.875
71897ION    NA+36882  35.314  36.472  10.684
71898ION    NA+36883  40.234  30.592   1.874
71899ION    NA+36884   3.183  44.253   4.128
71900ION    NA+36885  30.027   6.255  12.450
71901ION    NA+36886  37.354  35.174  14.467
71902ION    NA+36887  30.306  17.411  11.625
71903ION    NA+36888  13.422  41.159   0.616
71904ION    NA+36889  43.476   2.706   1.870
71905ION    NA+36890  34.896   6.446  10.281
71906ION    NA+36891  26.526   9.550  12.724
71907ION    NA+36892  29.540  24.714   0.893
71908ION    NA+36893  19.025   4.253   2.592
71909ION    NA+36894  22.452  43.808  12.514
71910ION    NA+36895  26.656   0.658  10.237
71911ION    NA+36896  41.432  34.634   0.268
71912ION    NA+36897  37.270  33.940   1.696
71913ION    NA+36898  23.758   6.082  13.289
71914ION    NA+36899  17.304  16.541   1.235
71915ION    NA+36900  31.887  34.620   2.886
71916ION    NA+36901  19.461  23.537   2.271
71917ION    NA+36902  38.896  41.546   2.172
71918ION    NA+36903  17.793  26.094  11.424
71919ION    NA+36904  26.884  30.939   0.956
71920ION    NA+36905   7.729  35.156  13.815
71921ION    NA+36906   3.113  40.354  14.325
71922ION    NA+36907  35.623  10.230  12.968
71923ION    NA+36908  43.774  28.194  12.556
71924ION    NA+36909   5.373  37.616   3.294
71925ION    NA+36910  13.354  24.449   1.752
71926ION    NA+36911   1.748  41.834   0.314
71927ION    NA+36912  12.528   0.899   4.449
71928ION    NA+36913  37.327  31.570  12.882
71929ION    NA+36914  13.847   8.941   0.929
71930ION    NA+36915  14.429  13.227   2.152
71931ION    NA+36916  23.790  29.240   4.633
71932ION    NA+36917  34.228  41.139  10.847
71933ION    NA+36918  22.039  31.081   4.306
71934ION    NA+36919  21.174  37.381  10.013
71935ION    NA+36920  38.886   8.704  13.151
71936ION    NA+36921  41.473   9.877   2.545
71937ION    NA+36922  25.994  16.821  12.969
71938ION    NA+36923  28.730   8.478   1.965
71939ION    NA+36924  21.750  40.282   1.832
71940ION    NA+36925  33.314   1.626  14.578
71941ION    NA+36926  11.334   4.459   2.230
71942ION    NA+36927  29.099  34.852   2.198
71943ION    NA+36928  21.164  24.781   1.659
71944ION    NA+36929  32.648   3.874  12.072
71945ION    NA+36930  43.593  27.936  11.531
71946ION    NA+36931  13.948  22.467  12.620
71947ION    NA+36932   3.208   2.998   3.403
71948ION    NA+36933   7.231  19.281   1.435
71949ION    NA+36934  19.224  16.448  12.765
71950ION    NA+36935   7.329   3.516   4.559
71951ION    NA+36936  19.624  19.234  13.136
71952ION    NA+36937  19.271  28.512   4.078
71953ION    NA+36938  32.862  26.584   2.310
71954ION    NA+36939   9.098  25.462  11.562
71955ION    NA+36940  24.949   9.591  11.130
71956ION    NA+36941  13.129  29.666  11.670
71957ION    NA+36942   4.546  21.291   1.646
71958ION    NA+36943   7.953  12.720   2.147
71959ION    NA+36944  14.820  19.946   4.609
71960ION    NA+36945   2.492  25.213  14.697
71961ION    NA+36946  38.294  22.518  10.264
71962ION    NA+36947  30.069  12.765   2.850
71963ION    NA+36948  31.107  32.825   1.723
71964ION    NA+36949  23.789   3.819  11.548
71965ION    NA+36950  16.673  10.231  10.945
71966ION    NA+36951  23.931  18.592   3.068
71967ION    NA+36952   4.153  20.006  14.889
71968ION    NA+36953   7.555   4.601  12.311
71969ION    NA+36954   8.846  21.757  12.834
71970ION    NA+36955  15.854   3.836   4.702
71971ION    NA+36956  33.988  13.750   1.471
71972ION    NA+36957  13.359  35.838   1.851
71973ION    NA+36958   7.683  25.702  14.020
71974ION    NA+36959  36.658  22.731   1.412
71975ION    NA+36960   5.336  32.371  13.610
71976ION    NA+36961  31.545  29.213   0.870
71977ION    NA+36962  26.326  33.873   0.232
71978ION    NA+36963  15.010  18.334  12.102
71979ION    NA+36964  21.611  23.243  14.804
71980ION    NA+36965  41.757  36.019  10.962
71981ION    NA+36966  34.997  35.102   1.675
71982ION    NA+36967   0.220  20.249   1.634
71983ION    NA+36968   5.347  35.810  13.442
71984ION    NA+36969  28.752  20.557  14.113
71985ION    NA+36970  24.520   1.002  12.898
71986ION    NA+36971  18.942  42.549  11.487
71987ION    NA+36972  26.680  33.326   2.207
71988ION    NA+36973  27.886  26.526  13.401
71989ION    NA+36974  25.453  41.220  10.509
71990ION    NA+36975  23.974  11.983   1.801
71991ION    NA+36976  40.753  38.322  12.794
71992ION    NA+36977  33.050  33.189  13.507
71993ION    NA+36978  14.466  35.072  12.940
71994ION    NA+36979  11.018   0.834  12.628
71995ION    NA+36980  27.267  40.341  14.979
71996ION    NA+36981  27.702  18.631   0.402
71997ION    NA+36982  41.225  26.075  12.558
71998ION    NA+36983   6.550  35.469   1.188
71999ION    NA+36984  33.927  14.491   4.026
72000ION    NA+36985  16.752   3.835  14.034
72001ION    NA+36986  35.270  11.122   2.777
72002ION    NA+36987  37.025  13.844  13.011
72003ION    NA+36988  34.790  14.661   3.551
72004ION    NA+36989  20.122  40.225   4.611
72005ION    NA+36990  11.382  15.074   2.662
72006ION    NA+36991  21.971  12.614   1.410
72007ION    NA+36992  44.288   8.843   3.299
72008ION    NA+36993  40.101  19.273  12.908
72009ION    NA+36994  31.065  18.041   2.998
72010ION    NA+36995  44.841  10.723  10.818
72011ION    NA+36996  15.291  43.437   0.879
72012ION    NA+36997  16.409  26.814   1.893
72013ION    NA+36998   1.638  43.954   2.390
72014ION    NA+36999  23.732  44.054   3.492
72015ION    NA+37000  21.148  17.336   3.320
72016ION    NA+37001  35.174  32.452   0.407
72017ION    NA+37002  38.167   8.789  10.406
72018ION    NA+37003  34.536  41.769  14.602
72019ION    NA+37004  42.754  28.135  11.330
72020ION    NA+37005   1.655  30.292  14.107
72021ION    NA+37006  44.707  29.694  11.065
72022ION    NA+37007  14.848  43.873  12.225
72023ION    NA+37008  31.161  11.576   0.233
72024ION    NA+37009  26.939  34.605  14.870
72025ION    NA+37010  37.874  37.352  13.430
72026ION    NA+37011   8.699  21.726  13.728
72027ION    NA+37012  38.513   7.750  14.460
72028ION    NA+37013  14.591  38.939  10.714
72029ION    NA+37014   7.911   4.198  10.406
72030ION    NA+37015   2.745  27.956   1.522
72031ION    NA+37016  20.366  13.329  13.180
72032ION    NA+37017   0.483   9.892   1.872
72033ION    NA+37018   2.713   0.828  13.021
72034ION    NA+37019  30.039  31.214   5.012
72035ION    NA+37020  16.027   3.821   2.158
72036ION    NA+37021   4.199   3.472   2.644
72037ION    NA+37022  36.414  36.922  13.065
72038ION    NA+37023   4.443  16.194  12.538
72039ION    NA+37024  25.102  27.171  11.593
72040ION    NA+37025  24.082   0.526   3.239
72041ION    NA+37026  20.699  21.192   0.034
72042ION    NA+37027  40.396   8.538   1.308
72043ION    NA+37028   3.252  35.298   1.347
72044ION    NA+37029   6.466  40.997   1.252
72045ION    NA+37030  34.085  37.346   0.004
72046ION    NA+37031  25.281  14.628  13.644
72047ION    NA+37032  35.507  25.770  14.972
72048ION    NA+37033  43.946  27.047  14.237
72049ION    NA+37034  20.471  33.077  13.038
72050ION    NA+37035  31.145   8.307  10.769
72051ION    NA+37036  43.725  33.295   0.513
72052ION    NA+37037   2.918  36.831  12.455
72053ION    NA+37038  26.856  23.100   0.844
72054ION    NA+37039  12.954   3.942   0.856
72055ION    NA+37040  43.483   3.350   5.078
72056ION    NA+37041  44.604  30.813   0.209
72057ION    NA+37042  37.834  12.698   3.587
72058ION    NA+37043   8.341  17.077  13.482
72059ION    NA+37044  19.552  35.967   1.942
72060ION    NA+37045  34.710  17.036   2.126
72061ION    NA+37046  35.272  18.271   4.204
72062ION    NA+37047   5.840   8.818   4.231
72063ION    NA+37048   3.305  12.383   3.309
72064ION    NA+37049   4.144   1.263   0.954
72065ION    NA+37050  42.730  10.697   4.117
72066ION    NA+37051   9.579  23.318   4.401
72067ION    NA+37052   3.952  27.964   2.724
72068ION    NA+37053  10.531   0.846  13.400
72069ION    NA+37054   7.103  23.836  11.007
72070ION    NA+37055   0.018  26.983   0.022
72071ION    NA+37056   6.403  13.198  14.818
72072ION    NA+37057  33.433  15.571  14.933
72073ION    NA+37058   5.653   1.568  13.850
72074ION    NA+37059  39.557  18.103   0.990
72075ION    NA+37060  16.623  23.784  13.627
72076ION    NA+37061  34.849  27.425  12.893
72077ION    NA+37062  19.727  37.010  11.542
72078ION    NA+37063  20.509   8.719   2.823
72079ION    NA+37064   4.558   9.755   3.067
72080ION    NA+37065  13.678  23.052   1.451
72081ION    NA+37066  18.812   7.650  12.311
72082ION    NA+37067  13.866  29.351  11.071
72083ION    NA+37068  25.993  27.130   1.723
72084ION    NA+37069  44.567  43.051   0.647
72085ION    NA+37070  29.963  30.345  14.988
72086ION    NA+37071  14.561  34.579  13.867
72087ION    NA+37072  33.335  25.000   4.715
72088ION    NA+37073  19.844  23.071   0.481
72089ION    NA+37074  12.626   3.245   0.219
72090ION    NA+37075  44.530  26.701  10.674
72091ION    NA+37076  43.318  37.242   2.821
72092ION    NA+37077  24.575   7.964   2.831
72093ION    NA+37078   3.384   8.186   5.352
72094ION    NA+37079  21.737  44.790   2.046
72095ION    NA+37080  16.930  29.054   2.050
72096ION    NA+37081  35.555  36.869   4.654
72097ION    NA+37082  21.970  38.443   2.405
72098ION    NA+37083  23.195  40.615  11.828
72099ION    NA+37084  30.717  18.036   2.200
72100ION    NA+37085  36.728  15.340  11.615
72101ION    NA+37086   1.144  29.092  14.021
72102ION    NA+37087  36.945  16.889   1.799
72103ION    NA+37088  31.108  18.921  12.652
72104ION    NA+37089  24.528  32.360  13.477
72105ION    NA+37090   1.577  41.765  11.142
72106ION    NA+37091  10.621  37.924   4.140
72107ION    NA+37092  11.923  38.894  14.515
72108ION    NA+37093   4.540  23.595   3.409
72109ION    NA+37094   9.509   4.521   1.269
72110ION    NA+37095  21.091  14.863   2.204
72111ION    NA+37096   4.994  26.987  12.043
72112ION    NA+37097  44.204  11.848  11.140
72113ION    NA+37098  26.449  22.355  10.819
72114ION    NA+37099  38.445   3.086   2.921
72115ION    NA+37100  38.007   5.510   4.038
72116ION    NA+37101  37.591   3.400   1.388
72117ION    NA+37102   3.036  18.061   2.698
72118ION    NA+37103  12.726   1.336  10.700
72119ION    NA+37104  37.991  27.566  12.955
72120ION    NA+37105  27.984  14.140   0.349
72121ION    NA+37106  41.756   2.947  12.473
72122ION    NA+37107   5.203   5.130   5.213
72123ION    NA+37108  19.775  23.142   3.590
72124ION    NA+37109  37.610  23.271  12.115
72125ION    NA+37110  37.084  23.150   3.085
72126ION    NA+37111  13.401  35.192  12.419
72127ION    NA+37112  12.500   4.794   0.593
72128ION    NA+37113  43.254   7.708   0.299
72129ION    NA+37114  13.727   5.645   4.284
72130ION    NA+37115  20.419  24.558   4.613
72131ION    NA+37116  39.516  20.153   2.550
72132ION    NA+37117  42.581   5.781   1.207
72133ION    NA+37118  34.204  28.233  10.068
72134ION    NA+37119  38.516  14.373   3.328
72135ION    NA+37120  15.201   6.703  10.530
72136ION    NA+37121  25.256  36.360   4.866
72137ION    NA+37122  39.928  20.478  11.284
72138ION    NA+37123  40.713  29.501   0.257
72139ION    NA+37124  31.141   8.586   3.625
72140ION    NA+37125  35.492  38.620  10.676
72141ION    NA+37126   6.851   8.855  14.529
72142ION    NA+37127  17.669  12.533   2.709
72143ION    NA+37128  25.721  15.106  10.840
72144ION    NA+37129  29.184   2.866   0.909
72145ION    NA+37130  43.347  13.773   1.776
72146ION    NA+37131  38.037  36.819   1.312
72147ION    NA+37132   2.359   1.994   0.255
72148ION    NA+37133   6.418  40.564   2.169
72149ION    NA+37134  33.224  13.776   4.333
72150ION    NA+37135  34.672  22.040  12.820
72151ION    NA+37136  43.291  43.547   4.072
72152ION    NA+37137  30.470  35.481  14.785
72153ION    NA+37138  26.573  36.358  14.121
72154ION    NA+37139  44.673  35.439   0.055
72155ION    NA+37140  16.829  32.281   2.391
72156ION    NA+37141  11.266  37.507  12.657
72157ION    NA+37142   3.692  10.999  14.972
72158ION    NA+37143  19.475  34.476   4.128
72159ION    NA+37144  23.305  37.160   0.240
72160ION    NA+37145  40.586  27.290   3.978
72161ION    NA+37146   1.994  22.490   2.348
72162ION    NA+37147  22.104  25.982  10.670
72163ION    NA+37148   9.275  43.047   0.085
72164ION    NA+37149  31.578  27.680  11.666
72165ION    NA+37150  15.006  33.798  12.815
72166ION    NA+37151   9.983  11.165   4.084
72167ION    NA+37152  27.964  35.125  10.659
72168ION    NA+37153  27.208  17.352   1.612
72169ION    NA+37154   7.039  17.460  12.165
72170ION    NA+37155  10.904  41.128   4.372
72171ION    NA+37156  25.231  19.129   2.550
72172ION    NA+37157  43.513  24.088  10.613
72173ION    NA+37158  12.870  31.152  13.387
72174ION    NA+37159  43.020  43.902   2.393
72175ION    NA+37160  29.441  35.759   3.820
72176ION    NA+37161  34.408  13.638   2.644
72177ION    NA+37162  29.515  24.628   4.294
72178ION    NA+37163   5.453  12.906  10.933
72179ION    NA+37164  38.496  26.249   9.760
72180ION    NA+37165  30.011   6.373   1.129
72181ION    NA+37166  22.272  25.590  13.992
72182ION    NA+37167  40.577  42.199   3.806
72183ION    NA+37168  42.095  19.311   3.704
72184ION    NA+37169   8.380  22.993  14.562
72185ION    NA+37170  31.516  43.121   1.774
72186ION    NA+37171  29.759  38.170   2.932
72187ION    NA+37172   6.604   1.751   1.805
72188ION    NA+37173   0.586  32.217   1.024
72189ION    NA+37174  25.129  38.113   4.114
72190ION    NA+37175  32.780  18.454  13.499
72191ION    NA+37176  36.381  30.041   5.053
72192ION    NA+37177   2.875   6.660   2.943
72193ION    NA+37178   2.477   1.635  14.329
72194ION    NA+37179  15.681  44.184  13.309
72195ION    NA+37180  12.983  37.185  10.890
72196ION    NA+37181   5.897  22.253   1.658
72197ION    NA+37182  27.785  41.734  14.175
72198ION    NA+37183  40.783  14.200   5.517
72199ION    NA+37184  28.559  29.688   4.277
72200ION    NA+37185  30.276  23.549  13.011
72201ION    NA+37186  43.401  18.809   4.509
72202ION    NA+37187  28.201  25.902  14.894
72203ION    NA+37188   0.851  30.160  12.192
72204ION    NA+37189  28.917   7.787  12.969
72205ION    NA+37190  11.814  18.721   1.423
72206ION    NA+37191  43.960  25.670   1.526
72207ION    NA+37192  20.482  40.851   2.068
72208ION    NA+37193   3.717  22.441   3.147
72209ION    NA+37194  18.220  14.046  10.602
72210ION    NA+37195  30.968  12.948  14.020
72211ION    NA+37196  27.328  20.641   1.994
72212ION    NA+37197  24.260  19.615   5.135
72213ION    NA+37198  40.215   7.720   0.396
72214ION    NA+37199  34.138  18.546   0.919
72215ION    NA+37200  15.205  44.812  10.850
72216ION    NA+37201  44.712  37.375  14.809
72217ION    NA+37202  38.116   0.429   0.846
72218ION    NA+37203  18.403  14.837  11.211
72219ION    NA+37204  15.332  37.479   9.796
72220ION    NA+37205  34.282  20.660   0.801
72221ION    NA+37206  37.127  23.016  10.785
72222ION    NA+37207   2.448  23.553  14.014
72223ION    NA+37208  13.871  33.038   2.634
72224ION    NA+37209  40.258  43.777  13.610
72225ION    NA+37210   0.785  28.887   3.272
72226ION    NA+37211  13.317  18.651   3.472
72227ION    NA+37212  12.723  34.698  12.065
72228ION    NA+37213  32.668   3.276  10.760
72229ION    NA+37214   1.333  31.108   3.315
72230ION    NA+37215  14.340  43.764  13.508
72231ION    NA+37216  19.559  42.962   2.602
72232ION    NA+37217  40.525  13.930   0.425
72233ION    NA+37218  16.377  29.736  11.213
72234ION    NA+37219  13.382   0.563   2.690
72235ION    NA+37220  23.270  14.174   3.197
72236ION    NA+37221  12.306  22.172   2.318
72237ION    NA+37222  14.872  15.227   3.138
72238ION    NA+37223  40.473   0.527  11.665
72239ION    NA+37224   0.345  21.896  13.544
72240ION    NA+37225  19.229  20.289   2.821
72241ION    NA+37226  44.187  26.939   1.123
72242ION    NA+37227   7.894  39.907   1.962
72243ION    NA+37228  36.801   9.359  11.134
72244ION    NA+37229  10.630  34.522  10.722
72245ION    NA+37230  32.057   5.502  10.078
72246ION    NA+37231   4.590   0.415  14.057
72247ION    NA+37232  14.562  43.760   4.009
72248ION    NA+37233  12.180  31.576  10.697
72249ION    NA+37234  42.720  27.044  12.940
72250ION    NA+37235  14.039  30.826   1.432
72251ION    NA+37236  12.328   2.565   1.790
72252ION    NA+37237   0.950  39.558   0.415
72253ION    NA+37238  44.838  21.881   2.835
72254ION    NA+37239  22.656  37.428   4.534
72255ION    NA+37240   9.135  29.584   0.706
72256ION    NA+37241  42.306   5.518   4.445
72257ION    NA+37242   0.640   1.463  14.563
72258ION    NA+37243  37.893  26.490  12.020
72259ION    NA+37244  16.918  34.153   3.331
72260ION    NA+37245  19.454  25.242   0.144
72261ION    NA+37246  16.156   2.533  11.296
72262ION    NA+37247  40.561   9.732   2.591
72263ION    NA+37248   5.969  40.146  11.469
72264ION    NA+37249  39.176   7.262  11.191
72265ION    NA+37250  16.787  15.580  10.080
72266ION    NA+37251  33.455  37.909   2.921
72267ION    NA+37252  23.557  31.690  13.696
72268ION    NA+37253  40.483  16.997  13.045
72269ION    NA+37254  35.536  39.407   3.311
72270ION    NA+37255  36.530  12.219   1.253
72271ION    NA+37256   1.197   5.042   0.590
72272ION    NA+37257  19.277  13.823   4.213
72273ION    NA+37258  32.295  20.812   4.038
72274ION    NA+37259  43.913  37.874   0.689
72275ION    NA+37260   1.392  34.007   3.359
72276ION    NA+37261  15.759  38.385   3.164
72277ION    CL-37262  30.948  37.623   1.720
72278ION    CL-37263  29.482  27.861   4.939
72279ION    CL-37264  36.019  28.447   1.241
72280ION    CL-37265  40.540  18.709   1.769
72281ION    CL-37266  24.191  18.174  13.700
72282ION    CL-37267  26.028  30.966   1.779
72283ION    CL-37268  23.040  25.074  12.125
72284ION    CL-37269  39.506  29.861  10.954
72285ION    CL-37270  32.727  25.781  14.948
72286ION    CL-37271  11.014   6.159   4.275
72287ION    CL-37272  29.840  11.622  12.538
72288ION    CL-37273  15.228  43.747  12.426
72289ION    CL-37274  12.598  22.648   4.309
72290ION    CL-37275  21.515  20.097  13.336
72291ION    CL-37276  16.779  38.549   0.232
72292ION    CL-37277  13.009  40.282   2.803
72293ION    CL-37278  27.910  36.313  12.490
72294ION    CL-37279  25.084  30.726  12.813
72295ION    CL-37280  10.364   1.215  13.606
72296ION    CL-37281  16.131  27.704  13.109
72297ION    CL-37282  35.049  39.711  10.840
72298ION    CL-37283  32.098  34.899  11.091
72299ION    CL-37284  20.344  30.402  12.086
72300ION    CL-37285  44.202  22.656  13.579
72301ION    CL-37286  22.394  38.559   2.298
72302ION    CL-37287  19.157   9.729  11.676
72303ION    CL-37288   9.349  19.020   4.063
72304ION    CL-37289   4.208   0.563  11.544
72305ION    CL-37290  39.007   8.141   2.361
72306ION    CL-37291  37.755  36.412  12.619
72307ION    CL-37292   6.765  24.485   0.064
72308ION    CL-37293   4.208  11.661  12.624
72309ION    CL-37294   1.477  15.104  12.539
72310ION    CL-37295  12.691  19.006   0.454
72311ION    CL-37296  27.092  30.934   1.513
72312ION    CL-37297  10.821  31.553  10.393
72313ION    CL-37298  23.057  40.182  11.823
72314ION    CL-37299   1.256  17.523   1.734
72315ION    CL-37300   4.454  44.224   1.358
72316ION    CL-37301  33.913  26.617   3.134
72317ION    CL-37302   6.591  17.491  12.095
72318ION    CL-37303  29.148  32.892  13.873
72319ION    CL-37304  40.183  24.575  13.704
72320ION    CL-37305   9.608  35.825   1.552
72321ION    CL-37306  24.230  34.722  12.157
72322ION    CL-37307  44.646  28.777   5.148
72323ION    CL-37308  33.493  35.881  14.871
72324ION    CL-37309  12.627  39.058   3.534
72325ION    CL-37310  34.621  36.700  13.528
72326ION    CL-37311  39.918   3.822  14.293
72327ION    CL-37312   7.648  34.804   0.212
72328ION    CL-37313  21.633  19.315  12.211
72329ION    CL-37314  19.168  19.775  14.951
72330ION    CL-37315  26.997   0.935  11.142
72331ION    CL-37316  43.111  36.002  13.941
72332ION    CL-37317  22.095   0.068   3.713
72333ION    CL-37318   5.154  33.315  10.949
72334ION    CL-37319  28.359  15.913   4.646
72335ION    CL-37320  27.659  17.446   1.620
72336ION    CL-37321  39.771  39.553  13.916
72337ION    CL-37322  25.864  41.329  10.642
72338ION    CL-37323  13.984  44.199   1.569
72339ION    CL-37324  41.438   5.978  10.993
72340ION    CL-37325  44.092  15.777   4.477
72341ION    CL-37326   1.882  10.267  11.675
72342ION    CL-37327  27.732  15.790   2.435
72343ION    CL-37328   0.481  16.493  13.875
72344ION    CL-37329  27.652  37.121   4.086
72345ION    CL-37330  37.650  20.191   5.067
72346ION    CL-37331   4.844  15.245   9.830
72347ION    CL-37332  44.754  32.602  12.902
72348ION    CL-37333  15.801  27.816   0.479
72349ION    CL-37334  38.716   4.065  10.655
72350ION    CL-37335  39.105   8.711   4.087
72351ION    CL-37336  10.289  20.094   4.902
72352ION    CL-37337  24.783  20.428   1.634
72353ION    CL-37338   3.592  30.371   2.398
72354ION    CL-37339  22.388  28.165  13.531
72355ION    CL-37340  23.924  36.480  12.009
72356ION    CL-37341  33.442  24.595   4.538
72357ION    CL-37342  24.491  36.524  14.160
72358ION    CL-37343  33.700  26.955  11.266
72359ION    CL-37344  29.654   6.170  10.744
72360ION    CL-37345  25.514  10.087   1.243
72361ION    CL-37346  17.061  22.569   0.500
72362ION    CL-37347  41.180   2.301   4.885
72363ION    CL-37348  24.697  11.297   4.854
72364ION    CL-37349  20.072  40.490   5.045
72365ION    CL-37350   0.370  10.179   2.195
72366ION    CL-37351  31.853   9.397  12.638
72367ION    CL-37352   8.123  20.831   3.073
72368ION    CL-37353  40.831  16.673   1.446
72369ION    CL-37354   5.491   3.195  12.471
72370ION    CL-37355  31.460   7.591  14.486
72371ION    CL-37356  33.648  37.374   0.125
72372ION    CL-37357  18.431  25.131   3.650
72373ION    CL-37358  37.947  20.731  10.792
72374ION    CL-37359  22.713   7.505  14.542
72375ION    CL-37360  21.493  41.523   4.928
72376ION    CL-37361   5.611  21.277  11.043
72377ION    CL-37362  18.797  36.511  14.428
72378ION    CL-37363  11.751   1.489  14.399
72379ION    CL-37364  23.850   3.426  13.000
72380ION    CL-37365  14.824  39.297   3.236
72381ION    CL-37366  35.644  44.322   1.863
72382ION    CL-37367  42.307   8.998   4.006
72383ION    CL-37368  21.549  11.254   4.116
72384ION    CL-37369  28.581  25.784  14.640
72385ION    CL-37370   1.198   5.367   0.909
72386ION    CL-37371  18.035  44.754   1.245
72387ION    CL-37372   2.970  40.577  13.953
72388ION    CL-37373  31.199  44.842  14.962
72389ION    CL-37374   8.434  17.862   1.825
72390ION    CL-37375  28.746  11.453   1.696
72391ION    CL-37376  20.811  16.595  13.391
72392ION    CL-37377  34.804  13.195   3.825
72393ION    CL-37378  14.879  13.164   2.211
72394ION    CL-37379  17.435   3.949   2.216
72395ION    CL-37380   4.850  28.084  14.296
72396ION    CL-37381   4.217   9.793  11.268
72397ION    CL-37382  40.002  13.538  13.414
72398ION    CL-37383  35.287  22.838   1.532
72399ION    CL-37384   6.663   0.675  11.815
72400ION    CL-37385  11.812  15.529  13.539
72401ION    CL-37386  42.486  19.767   4.591
72402ION    CL-37387  11.307  40.987  11.215
72403ION    CL-37388  18.150   0.403  12.926
72404ION    CL-37389  10.330  26.712   0.869
72405ION    CL-37390  26.234  25.484  13.977
72406ION    CL-37391  20.538  36.898   2.431
72407ION    CL-37392  15.823  16.292   0.527
72408ION    CL-37393   8.909  31.585  12.672
72409ION    CL-37394  30.622  21.249  13.038
72410ION    CL-37395  36.397  17.078  11.538
72411ION    CL-37396  34.603  27.708  14.437
72412ION    CL-37397  13.298   8.805   3.329
72413ION    CL-37398  10.480   6.582   5.020
72414ION    CL-37399  34.532  43.788  10.321
72415ION    CL-37400  43.477  29.206  11.931
72416ION    CL-37401  23.747  33.235   0.886
72417ION    CL-37402  22.455  35.719  12.687
72418ION    CL-37403  41.492  20.873  13.346
72419ION    CL-37404  38.232  23.741  12.945
72420ION    CL-37405  14.304   6.954  14.436
72421ION    CL-37406   6.206  11.681   0.524
72422ION    CL-37407  31.169  33.067  10.676
72423ION    CL-37408  13.761  10.708  13.068
72424ION    CL-37409  34.078   3.689   3.152
72425ION    CL-37410  14.772  41.592  10.858
72426ION    CL-37411  16.142  27.391  14.059
72427ION    CL-37412  11.382  28.803  11.152
72428ION    CL-37413  18.923   8.246   2.129
72429ION    CL-37414  16.803  29.469   2.176
72430ION    CL-37415  18.820  20.381   2.998
72431ION    CL-37416  19.701  32.578   4.089
72432ION    CL-37417  21.653  16.244   0.290
72433ION    CL-37418  29.462   1.572   2.109
72434ION    CL-37419  28.623  18.726  12.098
72435ION    CL-37420   5.186  20.964   4.073
72436ION    CL-37421   6.422  31.571  13.455
72437ION    CL-37422   4.136   9.637   2.911
72438ION    CL-37423   7.387   5.434  11.122
72439ION    CL-37424  10.201   8.986  13.507
72440ION    CL-37425   4.359  13.872   3.115
72441ION    CL-37426  39.057   5.467   0.705
72442ION    CL-37427  12.242   9.441   1.172
72443ION    CL-37428  24.004  19.856  13.714
72444ION    CL-37429   0.770  30.599  12.194
72445ION    CL-37430  44.843   2.955   1.841
72446ION    CL-37431  10.028  26.643  12.513
72447ION    CL-37432  42.416   3.027  11.662
72448ION    CL-37433  39.889  22.896  11.996
72449ION    CL-37434   1.326   4.755   0.246
72450ION    CL-37435   2.980  26.547  14.056
72451ION    CL-37436  35.740  44.110  11.595
72452ION    CL-37437   8.110  15.832  11.825
72453ION    CL-37438  37.449   7.392   3.133
72454ION    CL-37439   1.643   6.185   0.545
72455ION    CL-37440   2.867  14.177  14.316
72456ION    CL-37441  12.628  43.129  14.294
72457ION    CL-37442  35.077   3.871   3.619
72458ION    CL-37443  21.392  40.516   0.526
72459ION    CL-37444  36.395  22.572   1.076
72460ION    CL-37445  37.876  27.247   1.897
72461ION    CL-37446  23.630  27.035  14.926
72462ION    CL-37447  41.300  22.022  11.132
72463ION    CL-37448  30.597  25.564  12.262
72464ION    CL-37449  44.027  11.545  10.850
72465ION    CL-37450  14.729  43.760  13.731
72466ION    CL-37451   9.834  17.057  12.055
72467ION    CL-37452  43.772  18.871  12.173
72468ION    CL-37453  19.416  37.139   3.777
72469ION    CL-37454  15.240  16.974  13.506
72470ION    CL-37455  10.005  41.135  13.480
72471ION    CL-37456  13.830  33.324   2.282
72472ION    CL-37457   5.288  28.983  14.311
72473ION    CL-37458  16.078   7.867   3.729
72474ION    CL-37459  21.621  14.285  13.672
72475ION    CL-37460   2.218  36.356   4.231
72476ION    CL-37461  16.925  25.630   3.019
72477ION    CL-37462  13.820  19.209   1.259
72478ION    CL-37463  27.003  35.418  11.555
72479ION    CL-37464   3.935  25.789  12.228
72480ION    CL-37465  15.704   3.178   0.817
72481ION    CL-37466  22.506   8.808   4.144
72482ION    CL-37467  35.473   0.493   0.824
72483ION    CL-37468  26.518   3.534   4.079
72484ION    CL-37469  25.734  39.980  10.779
72485ION    CL-37470  25.022  33.381  11.532
72486ION    CL-37471   3.011  44.103  11.427
72487ION    CL-37472  40.854  27.635  11.886
72488ION    CL-37473   0.527  10.502   0.770
72489ION    CL-37474  20.052  36.056  12.377
72490ION    CL-37475  33.682  38.942   3.126
72491ION    CL-37476  35.173  22.055   4.509
72492ION    CL-37477  33.385  10.361   0.848
72493ION    CL-37478  16.823  28.783   1.526
72494ION    CL-37479  33.935  43.277  10.939
72495ION    CL-37480  21.159  11.645  11.745
72496ION    CL-37481  25.829  16.212   3.738
72497ION    CL-37482  41.929   7.642  13.357
72498ION    CL-37483  14.662  25.788   3.790
72499ION    CL-37484  25.958  38.576  13.816
72500ION    CL-37485   0.074  21.542  13.636
72501ION    CL-37486  12.841  39.826  14.480
72502ION    CL-37487   9.227   4.837   1.432
72503ION    CL-37488  31.833  28.396  14.599
72504ION    CL-37489  17.108   3.102   2.048
72505ION    CL-37490   5.039   6.109   2.034
72506ION    CL-37491   9.154  26.921   0.605
72507ION    CL-37492  14.720  33.454  12.818
72508ION    CL-37493  23.090  31.008  12.803
72509ION    CL-37494  18.115  26.700  14.004
72510ION    CL-37495   3.354  12.371  10.802
72511ION    CL-37496  15.562  18.649  14.810
72512ION    CL-37497  15.543  14.194  11.105
72513ION    CL-37498  12.322  39.074  12.011
72514ION    CL-37499  36.676  12.415   0.866
72515ION    CL-37500  44.900  31.032   0.474
72516ION    CL-37501   5.178  41.237  11.944
72517ION    CL-37502  38.619   2.860  14.863
72518ION    CL-37503  20.928   8.786   1.396
72519ION    CL-37504   9.781  11.004  12.736
72520ION    CL-37505   0.717   7.297  13.533
72521ION    CL-37506  42.454  40.301   3.781
72522ION    CL-37507   4.591  19.955  11.054
72523ION    CL-37508  34.460  37.105   2.237
72524ION    CL-37509  20.470  10.773   2.055
72525ION    CL-37510  20.364   6.609  12.915
72526ION    CL-37511  20.164  38.573   2.464
72527ION    CL-37512  24.532  21.044  13.855
72528ION    CL-37513  22.666   0.310   2.897
72529ION    CL-37514  35.865  35.353  10.757
72530ION    CL-37515  17.843  33.041   0.896
72531ION    CL-37516   0.462   4.807  11.909
72532ION    CL-37517   7.742   4.199  10.820
72533ION    CL-37518  43.145  27.951  11.466
72534ION    CL-37519  25.097  35.292   0.366
72535ION    CL-37520   3.836  37.528  14.815
72536ION    CL-37521  44.488   6.653  11.180
72537ION    CL-37522  42.564  14.215   3.611
72538ION    CL-37523  18.578  40.965  11.042
72539ION    CL-37524  20.761   2.224  12.491
72540ION    CL-37525  30.315  12.786   3.225
72541ION    CL-37526  26.209  30.722  11.760
72542ION    CL-37527   9.866  24.905  13.143
72543ION    CL-37528  40.874  33.609  14.796
72544ION    CL-37529   5.869   8.840  11.055
72545ION    CL-37530  33.906  41.866  13.252
72546ION    CL-37531  17.040  31.050  11.917
72547ION    CL-37532  35.965  37.962   0.913
72548ION    CL-37533  28.992   9.214  10.663
72549ION    CL-37534  30.012  43.870  10.355
72550ION    CL-37535  27.670   7.367  10.418
72551ION    CL-37536  24.662  39.666   4.616
72552ION    CL-37537  12.184   9.538  14.465
72553ION    CL-37538   9.362  38.208  10.822
72554ION    CL-37539  42.313  36.940  13.131
72555ION    CL-37540   5.411  24.050   0.566
72556ION    CL-37541  28.671  19.078  10.688
72557ION    CL-37542   9.669  44.391   1.874
72558ION    CL-37543   4.970  13.635   1.380
72559ION    CL-37544  21.241   4.696   3.634
72560ION    CL-37545   8.166  10.252   1.003
72561ION    CL-37546  13.394  12.267   3.344
72562ION    CL-37547   0.533  43.013   4.134
72563ION    CL-37548  20.068  12.416  13.631
72564ION    CL-37549  17.234   3.008   9.788
72565ION    CL-37550  22.116   4.416   0.100
72566ION    CL-37551  16.077   7.562   1.666
72567ION    CL-37552  34.898   3.002  13.660
72568ION    CL-37553  27.029  32.788   5.210
72569ION    CL-37554   2.601   3.380  12.520
72570ION    CL-37555  20.356  39.319   2.935
72571ION    CL-37556  26.668  43.311  10.709
72572ION    CL-37557  13.938   2.724   4.267
72573ION    CL-37558   0.915  25.689  10.347
72574ION    CL-37559  17.531  11.092  11.952
72575ION    CL-37560  17.475  12.967   4.565
72576ION    CL-37561  32.071   3.698   3.916
72577ION    CL-37562  40.787  21.329  14.020
72578ION    CL-37563   6.948  31.472  12.448
72579ION    CL-37564   6.354  18.945   0.766
72580ION    CL-37565  37.463  42.255  14.006
72581ION    CL-37566  35.543  18.519  12.033
72582ION    CL-37567  32.929  18.178  13.818
72583ION    CL-37568  27.250  15.168   0.909
72584ION    CL-37569  36.089  18.521   1.560
72585ION    CL-37570   9.366  24.478  10.914
72586ION    CL-37571   0.609  41.275  10.949
72587ION    CL-37572  23.664   5.219   3.295
72588ION    CL-37573  37.241  32.436   3.641
72589ION    CL-37574  20.100  39.787   4.443
72590ION    CL-37575  29.116  32.004   2.161
72591ION    CL-37576  41.043   8.365  12.995
72592ION    CL-37577  39.304   0.720  14.925
72593ION    CL-37578  33.722  17.313   0.313
72594ION    CL-37579  21.100   6.136   2.191
72595ION    CL-37580  19.481  12.065  14.360
72596ION    CL-37581  11.249  11.994  11.266
72597ION    CL-37582   3.411  23.718   2.034
72598ION    CL-37583  37.421   3.689  14.952
72599ION    CL-37584  25.790  44.703   3.092
72600ION    CL-37585  42.272   8.160  11.775
72601ION    CL-37586  15.724  31.938  12.878
72602ION    CL-37587  27.384  16.120  13.572
72603ION    CL-37588  16.332  19.028  11.145
72604ION    CL-37589  18.670  10.179  12.433
72605ION    CL-37590  35.883  13.758   0.590
72606ION    CL-37591  42.736  18.416   2.808
72607ION    CL-37592   4.509  40.388  10.486
72608ION    CL-37593  11.635  14.787   2.432
72609ION    CL-37594   8.438  15.504  10.939
72610ION    CL-37595  33.545  31.580   3.712
72611ION    CL-37596  35.820  30.992  13.579
72612ION    CL-37597  26.451  14.733   0.835
72613ION    CL-37598  33.943  14.503   4.479
72614ION    CL-37599  34.256   7.161   9.706
72615ION    CL-37600  20.151  27.170   0.369
72616ION    CL-37601  31.595  26.935   4.528
72617ION    CL-37602   0.373  38.694   3.622
72618ION    CL-37603   0.373   0.676  12.105
72619ION    CL-37604  31.108  20.736   3.020
72620ION    CL-37605  15.190   2.722  14.694
72621ION    CL-37606  32.337  29.998  12.060
72622ION    CL-37607  12.690  18.338   4.678
72623ION    CL-37608  44.456  16.256   2.303
72624ION    CL-37609  33.545  26.877   0.026
72625ION    CL-37610  19.488  31.614   4.249
72626ION    CL-37611  14.940  21.374   2.719
72627ION    CL-37612  28.670  37.124   4.134
72628ION    CL-37613  23.251  40.490  13.225
72629ION    CL-37614  28.283  10.220  10.844
72630ION    CL-37615  26.012  12.255   1.918
72631ION    CL-37616  31.881   9.818   0.477
72632ION    CL-37617  34.468  34.148  14.983
72633ION    CL-37618  43.808  35.917   2.710
72634ION    CL-37619  19.297  28.268  14.978
72635ION    CL-37620  43.046  30.861   3.216
72636ION    CL-37621  18.314  15.877   4.599
72637ION    CL-37622   2.647  26.815  11.132
72638ION    CL-37623  34.614   6.754   0.847
72639ION    CL-37624  28.304   6.453  12.960
72640ION    CL-37625  23.228   7.008   1.578
72641ION    CL-37626  17.610  42.648  13.113
72642ION    CL-37627   6.724   9.312   0.847
72643ION    CL-37628  39.122  34.374  11.680
72644ION    CL-37629   5.524  10.208   0.034
72645ION    CL-37630   8.940   4.111   4.082
72646ION    CL-37631  40.183   9.485   2.525
72647ION    CL-37632  10.300  33.972  11.498
72648ION    CL-37633  39.074  42.835   1.118
72649ION    CL-37634   5.206  18.448  14.689
72650ION    CL-37635  24.399  17.886  11.681
72651ION    CL-37636  43.849   2.463   1.909
72652ION    CL-37637  10.438   8.346  11.232
72653ION    CL-37638  32.581   2.881   3.641
72654ION    CL-37639  33.572   9.749   2.383
72655ION    CL-37640  30.373  21.117  14.451
72656ION    CL-37641  23.530  11.206  13.863
72657ION    CL-37642  27.283   1.143  12.940
72658ION    CL-37643  23.282  32.678   2.146
72659ION    CL-37644  42.928  12.415   5.046
72660ION    CL-37645  12.355  22.724  11.584
72661ION    CL-37646   6.303  37.579   4.892
72662ION    CL-37647  30.445  39.153  10.289
72663ION    CL-37648  32.640  28.245   3.108
72664ION    CL-37649  11.377   8.415   1.139
72665ION    CL-37650  36.494   3.495   0.761
72666ION    CL-37651  38.501  15.486   3.285
72667ION    CL-37652  12.137  36.781  13.895
72668ION    CL-37653  16.251  21.820  11.546
72669ION    CL-37654  24.659  23.349  11.251
72670ION    CL-37655  13.538  21.299   5.091
72671ION    CL-37656  27.535   8.111  14.684
72672ION    CL-37657  28.552  44.875   0.371
72673ION    CL-37658  33.606  14.386  11.694
72674ION    CL-37659  37.802  19.710  11.847
72675ION    CL-37660  30.016  19.709  11.432
72676ION    CL-37661  11.836  26.935   1.210
72677ION    CL-37662  24.916  22.631   2.784
72678ION    CL-37663  24.602   9.874   1.756
72679ION    CL-37664  43.639  33.743   0.544
72680ION    CL-37665  12.088  38.206  10.988
72681ION    CL-37666   5.444  14.249   1.852
72682ION    CL-37667  16.498   7.407  14.832
72683ION    CL-37668   5.453  35.960  13.008
72684ION    CL-37669  24.466   3.717   1.482
72685ION    CL-37670  13.748  23.017   0.151
72686ION    CL-37671  24.115  37.209   5.124
72687ION    CL-37672  40.885  18.569   4.483
72688ION    CL-37673  21.257   4.905   5.214
72689ION    CL-37674  12.384  43.043   2.822
72690ION    CL-37675   7.735   9.555   3.196
72691ION    CL-37676  43.921  28.362   2.805
72692ION    CL-37677  42.662   4.874   0.261
72693ION    CL-37678  11.330  16.334  14.770
72694ION    CL-37679  17.077  34.406   3.661
72695ION    CL-37680  29.117  18.680   3.164
72696ION    CL-37681  43.914  13.823   4.816
72697ION    CL-37682  39.613  26.651   2.000
72698ION    CL-37683  25.346   0.407   2.538
72699ION    CL-37684  12.683  11.398   2.328
72700ION    CL-37685  35.488  43.389   2.708
72701ION    CL-37686  35.182  15.138  11.491
72702ION    CL-37687   1.995  11.375   2.132
72703ION    CL-37688  23.678   7.674   1.642
72704ION    CL-37689  39.098   8.376  12.936
72705ION    CL-37690  44.064   8.994   2.931
72706ION    CL-37691  27.764   4.086   2.421
72707ION    CL-37692  41.409  24.846   3.164
72708ION    CL-37693  33.046   4.730   4.685
72709ION    CL-37694   4.984  39.878   0.312
72710ION    CL-37695   9.325  43.384   0.386
72711ION    CL-37696   3.840   3.586   0.879
72712ION    CL-37697   0.025   1.301  13.361
72713ION    CL-37698  31.326  44.608  11.257
72714ION    CL-37699  39.127  14.121   0.287
72715ION    CL-37700  24.172   0.888  12.642
72716ION    CL-37701  16.488  32.554   2.261
72717ION    CL-37702  37.776   7.034  10.991
72718ION    CL-37703  13.454  33.812   4.516
72719ION    CL-37704  38.586   4.680   0.307
72720ION    CL-37705  15.334  42.506   4.531
72721ION    CL-37706  44.685  29.752  13.973
72722ION    CL-37707   2.210  40.988   4.592
72723ION    CL-37708   5.026  32.589   0.112
72724ION    CL-37709   5.607  36.034   1.931
72725ION    CL-37710   4.514  43.752  14.930
72726ION    CL-37711   3.316  32.721   0.812
72727ION    CL-37712  23.650  16.121  12.577
72728ION    CL-37713  37.693  33.465   0.796
72729ION    CL-37714   2.048  43.284   1.232
72730ION    CL-37715  42.944  39.230  12.603
72731ION    CL-37716  27.031  39.424  11.891
72732ION    CL-37717  20.657  26.062  11.933
72733ION    CL-37718  41.055   8.280  14.046
72734ION    CL-37719  15.995   1.830   0.770
72735ION    CL-37720  27.958  41.434  14.470
72736ION    CL-37721  26.269  21.655   4.505
72737ION    CL-37722  13.524   6.817  12.265
72738ION    CL-37723  37.016  22.103  12.862
72739ION    CL-37724  23.484   0.026   1.073
72740ION    CL-37725  39.964  29.108   3.444
72741ION    CL-37726  26.541  42.744   3.256
72742ION    CL-37727  25.210  15.748  12.919
72743ION    CL-37728  37.011  29.187  13.288
72744ION    CL-37729   0.828  13.597  11.959
72745ION    CL-37730  41.255   6.421   1.824
72746ION    CL-37731   3.759  31.864  14.815
72747ION    CL-37732  27.613  23.130  12.647
72748ION    CL-37733   5.750  42.334  13.283
72749ION    CL-37734  30.724  29.515   2.849
72750ION    CL-37735  15.587  26.182  11.683
72751ION    CL-37736  24.440   8.405   2.806
72752ION    CL-37737  25.949   1.012  13.537
72753ION    CL-37738  34.814  13.433  12.159
72754ION    CL-37739  10.836   7.835  12.460
72755ION    CL-37740  29.099  38.169  14.803
72756ION    CL-37741   1.945  43.599   3.691
72757ION    CL-37742  34.234   6.149   3.142
72758ION    CL-37743  30.261  41.112   0.119
72759ION    CL-37744  41.406  44.747   0.677
72760ION    CL-37745  16.562  28.475  10.797
72761ION    CL-37746  39.617  14.198   5.063
72762ION    CL-37747  26.008  15.556  13.791
72763ION    CL-37748  18.202  17.116   0.141
72764ION    CL-37749  34.378  21.086   0.710
72765ION    CL-37750   8.793   5.577   1.746
72766ION    CL-37751  33.093   3.248   2.850
72767ION    CL-37752  44.969  21.515   2.596
72768ION    CL-37753  42.426  35.974   2.443
72769ION    CL-37754   2.566  35.661  11.283
72770ION    CL-37755  43.248  17.003  14.004
72771ION    CL-37756  25.435  14.889  12.459
72772ION    CL-37757   8.176  41.822  13.885
72773ION    CL-37758  36.765  23.460   3.110
72774ION    CL-37759   7.570   6.102  14.244
72775ION    CL-37760  31.090  35.342   3.324
72776ION    CL-37761  37.253  28.017  11.878
72777ION    CL-37762  35.744   0.817   1.632
72778ION    CL-37763  26.098  22.083  10.725
72779ION    CL-37764   3.252  43.969  13.314
72780ION    CL-37765  29.813   9.842   0.507
72781ION    CL-37766  43.209  40.143   1.791
72782ION    CL-37767  28.612  14.039  11.946
72783ION    CL-37768  16.673  17.132   4.997
72784ION    CL-37769  35.346   9.292   0.504
72785ION    CL-37770   1.429  27.529   3.525
72786ION    CL-37771   3.304  39.512   3.382
72787ION    CL-37772  37.574   3.539  12.958
72788ION    CL-37773   7.622   5.043  12.252
72789ION    CL-37774  16.645   6.691   0.856
72790ION    CL-37775  37.258  21.692  13.640
72791ION    CL-37776  42.262   6.241  11.089
72792ION    CL-37777  19.683   8.967   0.828
72793ION    CL-37778  42.525  16.103  12.854
72794ION    CL-37779   7.683  19.985   3.724
72795ION    CL-37780  11.186  11.207  14.778
72796ION    CL-37781  23.207   1.275  11.668
72797ION    CL-37782  29.022  18.502   1.176
72798ION    CL-37783  25.141  10.847   1.474
72799ION    CL-37784  40.412   4.751  11.564
72800ION    CL-37785   2.388  12.669   4.575
72801ION    CL-37786   1.316  14.796  14.819
72802ION    CL-37787  20.638  19.532  13.042
72803ION    CL-37788  16.874  29.593   3.810
72804ION    CL-37789  29.070   6.101   3.906
72805ION    CL-37790  13.590  35.640  14.414
72806ION    CL-37791  13.455  40.898   0.240
72807ION    CL-37792   1.718  30.149   3.245
72808ION    CL-37793   8.212  19.473  11.404
72809ION    CL-37794  35.558  19.311   4.592
72810ION    CL-37795  19.581  20.622   3.782
72811ION    CL-37796  19.742  42.565  12.582
72812ION    CL-37797  43.429   6.089  14.531
72813ION    CL-37798   3.737  28.529  11.913
72814ION    CL-37799  22.068  15.382   0.667
72815ION    CL-37800  17.239  18.261  10.923
72816ION    CL-37801  34.118   8.106  11.671
72817ION    CL-37802   7.900  41.006  14.159
72818ION    CL-37803  24.150  12.680   4.460
72819ION    CL-37804  39.814  43.753  13.754
72820ION    CL-37805  28.834  36.771  12.364
72821ION    CL-37806  44.595   5.774   4.066
72822ION    CL-37807   6.714  38.495  12.598
72823ION    CL-37808  39.736  11.173  11.020
72824ION    CL-37809  11.395  39.311  13.595
72825ION    CL-37810  18.733  12.264   3.578
72826ION    CL-37811  24.017  17.531   4.189
72827ION    CL-37812   9.065   3.161   1.093
72828ION    CL-37813  36.613  38.660  14.422
72829ION    CL-37814  18.483  31.638   3.767
72830ION    CL-37815  29.456  39.267   2.420
72831ION    CL-37816  19.234  42.921   2.297
72832ION    CL-37817  38.188  36.733   2.943
72833ION    CL-37818  30.774  33.197  12.811
72834ION    CL-37819  22.789  23.055   0.348
72835ION    CL-37820  18.704  12.831   0.813
72836ION    CL-37821  26.162  32.137  12.860
72837ION    CL-37822  28.869  32.238   0.429
72838ION    CL-37823  30.306  30.131   0.175
72839ION    CL-37824  36.761  36.378   4.012
72840ION    CL-37825  16.706  22.854  14.513
72841ION    CL-37826  27.983  31.830   1.670
72842ION    CL-37827   9.106  27.819   0.675
72843ION    CL-37828  24.695  42.033  13.747
72844ION    CL-37829   2.467  10.285   0.738
72845ION    CL-37830  44.384  42.636   0.711
72846ION    CL-37831  13.502  12.671   5.266
72847ION    CL-37832   1.983   3.941   3.575
72848ION    CL-37833  21.400   8.136  12.567
72849ION    CL-37834  34.618   3.756   1.345
72850ION    CL-37835  32.954  16.763  10.790
72851ION    CL-37836  34.821   6.815  13.626
72852ION    CL-37837  40.896  26.961   3.988
72853ION    CL-37838  14.125  24.838  12.512
72854ION    CL-37839  29.607  31.373   5.120
72855ION    CL-37840   9.118   2.997  13.428
72856ION    CL-37841  20.336  37.022   3.403
72857ION    CL-37842  24.732  27.134  11.854
72858ION    CL-37843   2.535  39.032  12.361
72859ION    CL-37844  17.641  15.119  14.340
72860ION    CL-37845  28.583  18.051  12.938
72861ION    CL-37846  27.464  17.665  10.446
72862ION    CL-37847  14.097  14.284  10.393
72863ION    CL-37848   0.344  28.853   0.031
72864ION    CL-37849   8.641  42.362  12.991
72865ION    CL-37850  39.576  17.597  14.949
72866ION    CL-37851  27.677  38.734   1.972
72867ION    CL-37852  11.524  36.796   4.005
72868ION    CL-37853  22.844  37.016   4.630
72869ION    CL-37854  27.234  43.479  14.699
72870ION    CL-37855  15.880  12.906  13.044
72871ION    CL-37856  36.581  18.921  14.796
72872ION    CL-37857  29.229   4.086  10.639
72873ION    CL-37858  18.754  42.770  13.462
72874ION    CL-37859  36.088  33.311   3.242
72875ION    CL-37860  39.851   4.608  13.844
72876ION    CL-37861   7.952   3.900  13.529
72877ION    CL-37862  32.942   9.721   0.221
72878ION    CL-37863  31.439  26.332   1.144
72879ION    CL-37864   1.183   5.898  14.700
72880ION    CL-37865  29.097  27.413  14.729
72881ION    CL-37866  38.072  41.561   3.826
72882ION    CL-37867  23.272  44.998  13.806
72883ION    CL-37868  22.892   7.697   1.862
72884ION    CL-37869  36.951  27.137  13.685
72885ION    CL-37870  33.680  30.499  14.891
72886ION    CL-37871   6.971  18.657   2.812
72887ION    CL-37872  36.088  13.574  11.841
72888ION    CL-37873  37.704  36.520   1.340
72889ION    CL-37874  14.274  43.673  14.898
72890ION    CL-37875  36.408  41.981  12.511
72891ION    CL-37876   8.738  21.733  13.276
72892ION    CL-37877  26.089  27.488   1.977
72893ION    CL-37878  15.279  40.035  14.377
72894ION    CL-37879  34.108   1.499  13.926
72895ION    CL-37880   2.397  21.764   0.932
72896ION    CL-37881  40.651   7.058   1.606
72897ION    CL-37882  38.483  12.616  12.050
72898ION    CL-37883  16.329  22.853   4.259
72899ION    CL-37884   3.695   6.908   0.855
72900ION    CL-37885  31.782  35.438   0.918
72901ION    CL-37886  38.364  35.722   1.975
72902ION    CL-37887  28.514  31.913   2.786
72903ION    CL-37888  20.094  11.668  12.967
72904ION    CL-37889  30.303  23.511  13.463
72905ION    CL-37890  14.566  29.726   2.917
72906ION    CL-37891  14.617  29.128   1.692
72907ION    CL-37892  18.669   2.328   0.445
72908ION    CL-37893  25.669  17.651   3.781
72909ION    CL-37894  25.321  28.692  11.966
72910ION    CL-37895  11.416   9.812   1.318
72911ION    CL-37896  19.138   7.392  12.121
72912ION    CL-37897  40.090  28.621   0.640
72913ION    CL-37898  37.752   3.817  10.750
72914ION    CL-37899  25.142  34.195   0.688
72915ION    CL-37900   3.742  41.737   4.330
72916ION    CL-37901  43.282  23.574  13.029
72917ION    CL-37902  13.685   0.941  14.887
72918ION    CL-37903   8.123  18.535  13.447
72919ION    CL-37904  44.492  29.978   2.589
72920ION    CL-37905   7.179  11.265   1.983
72921ION    CL-37906   0.148  26.623  12.124
72922ION    CL-37907   6.244  38.735  13.997
72923ION    CL-37908  22.625  22.618   2.381
72924ION    CL-37909   6.111   2.963   1.471
72925ION    CL-37910  18.222   4.604  13.879
72926ION    CL-37911  11.667  16.739  11.167
72927ION    CL-37912  20.032  44.136  10.698
72928ION    CL-37913  25.922  19.334  12.081
72929ION    CL-37914  31.197  21.737   2.427
72930ION    CL-37915  26.919  20.798   2.133
72931ION    CL-37916   7.318   3.676   4.117
72932ION    CL-37917  40.553   3.869  11.049
72933ION    CL-37918  26.379  38.281  11.047
72934ION    CL-37919  25.675   3.821   3.607
72935ION    CL-37920  10.777  17.242  11.191
72936ION    CL-37921  27.251  34.311  10.040
72937ION    CL-37922  44.924  30.719  14.062
72938ION    CL-37923  37.853  42.206   0.297
72939ION    CL-37924   6.357  20.283   3.604
72940ION    CL-37925  31.906  28.511   2.706
72941ION    CL-37926  30.583  14.665  12.925
72942ION    CL-37927  18.054  34.091  10.403
72943ION    CL-37928  37.249  13.156   5.331
72944ION    CL-37929  14.748  34.196   4.980
72945ION    CL-37930  39.937  27.902   2.657
72946ION    CL-37931   5.476  12.230   2.187
72947ION    CL-37932  24.891  34.271   3.677
72948ION    CL-37933  21.937   5.568   2.157
72949ION    CL-37934  25.903  18.516  13.284
72950ION    CL-37935  36.548   0.131  14.907
72951ION    CL-37936   4.338  15.744   0.926
72952ION    CL-37937  35.307  27.865   3.308
72953ION    CL-37938   5.726  33.120   3.824
72954ION    CL-37939  30.935   6.406  13.760
72955ION    CL-37940  36.173  24.750  14.826
72956ION    CL-37941  26.762  12.474   3.544
72957ION    CL-37942   2.179  41.727  12.355
72958ION    CL-37943  38.245  28.689   1.042
72959ION    CL-37944  32.036  13.892  11.717
72960ION    CL-37945  17.790  20.996  11.987
72961ION    CL-37946  13.163  20.994  13.018
72962ION    CL-37947  23.033  43.097  11.099
72963ION    CL-37948   8.552  18.821   1.112
72964ION    CL-37949  20.779  41.139   1.883
72965ION    CL-37950  35.034  40.117   5.174
72966ION    CL-37951  25.958  23.759   1.705
72967ION    CL-37952  20.619  40.395  11.527
72968ION    CL-37953  20.864  22.731  11.169
72969ION    CL-37954  14.068  26.055   0.950
72970ION    CL-37955  26.339  39.631  12.584
72971ION    CL-37956  43.763   8.889  14.289
72972ION    CL-37957  15.675  42.840  10.655
72973ION    CL-37958  10.868  27.881   1.429
72974ION    CL-37959  43.091  36.478   4.928
72975ION    CL-37960  26.022  24.006  12.635
72976ION    CL-37961  35.662  18.867  13.879
72977ION    CL-37962  30.638  25.578   3.639
72978ION    CL-37963  23.131  39.987   3.657
72979ION    CL-37964  18.594  15.049   4.324
72980ION    CL-37965  19.588  35.369  12.117
72981ION    CL-37966   7.455   2.242   3.815
72982ION    CL-37967   6.886   0.840  14.902
72983ION    CL-37968  35.688  31.461   1.097
72984ION    CL-37969  34.542  16.180   0.512
72985ION    CL-37970  36.762  15.130  11.200
72986ION    CL-37971   0.632  22.102  13.257
72987ION    CL-37972   3.577  14.154  12.032
72988ION    CL-37973  32.257   2.121   0.009
72989ION    CL-37974  29.000  34.648   1.814
72990ION    CL-37975  29.592  36.164   3.631
72991ION    CL-37976   1.563  44.393   2.537
72992ION    CL-37977  19.369   2.108  11.660
72993ION    CL-37978  30.553  22.597  13.783
72994ION    CL-37979   0.491  36.076   1.814
72995ION    CL-37980  22.548  15.921  11.013
72996ION    CL-37981   4.370  16.857   1.634
72997ION    CL-37982  36.340  30.386  12.977
72998ION    CL-37983  19.062  29.956  11.621
72999ION    CL-37984  25.553   3.044   4.225
73000ION    CL-37985  15.512  38.187  13.836
73001ION    CL-37986   3.459  18.960  11.111
73002ION    CL-37987  39.980  20.599  13.115
73003ION    CL-37988  20.729  41.552   4.710
73004ION    CL-37989   9.119  12.075   2.413
73005ION    CL-37990  16.185  26.844  11.560
73006ION    CL-37991  25.910  35.095  12.664
73007ION    CL-37992   1.906   0.333  14.131
73008ION    CL-37993  20.756  25.663   0.034
73009ION    CL-37994  37.551  21.080   3.686
73010ION    CL-37995  10.731  32.945   1.880
73011ION    CL-37996  17.495  27.665  14.701
73012ION    CL-37997  31.334  24.627  13.110
73013ION    CL-37998   8.994  40.049   1.770
73014ION    CL-37999  35.664  22.780   0.608
73015ION    CL-38000   1.009  28.697  14.175
73016ION    CL-38001  41.106  40.332  13.869
73017ION    CL-38002  30.038  12.219  11.420
73018ION    CL-38003  12.201  25.413  13.744
73019ION    CL-38004  19.202  24.724  12.739
73020ION    CL-38005  21.882  20.837   0.424
73021ION    CL-38006  20.818  34.808  12.605
73022ION    CL-38007  27.347  25.317   0.879
73023ION    CL-38008  25.115  34.066  10.785
73024ION    CL-38009  40.055   8.264  14.006
73025ION    CL-38010  31.346   5.332  13.112
73026ION    CL-38011   9.636  10.898   1.313
73027ION    CL-38012  22.128  42.777  14.237
73028ION    CL-38013  27.706  34.683   2.919
73029ION    CL-38014  30.992   1.794  12.676
73030ION    CL-38015  35.767  12.226   5.025
73031ION    CL-38016  32.152  20.963   4.457
73032ION    CL-38017  17.724  14.989  12.015
73033ION    CL-38018  44.511  10.309  12.547
73034ION    CL-38019  38.898  20.414  10.609
73035ION    CL-38020  15.115  36.630   4.819
73036ION    CL-38021   3.412  15.829   3.093
73037ION    CL-38022  27.201  35.546   2.927
73038ION    CL-38023  14.368  22.674  12.573
73039ION    CL-38024  17.805   5.861   1.686
73040ION    CL-38025  15.546  18.452  10.920
73041ION    CL-38026  25.402  44.770   4.011
73042ION    CL-38027  14.990  25.232   2.361
73043ION    CL-38028  17.593  30.290  12.258
73044ION    CL-38029  14.132  21.589  13.908
73045ION    CL-38030  24.226  14.530   3.230
73046ION    CL-38031  36.780  43.285   1.697
73047ION    CL-38032  39.222  13.949   2.251
73048ION    CL-38033  13.606  37.988  11.171
73049ION    CL-38034  29.545  32.799   0.201
73050ION    CL-38035  30.862  23.124   1.254
73051ION    CL-38036  34.311  13.396  13.967
73052ION    CL-38037  40.668  26.692   0.148
73053ION    CL-38038  43.635   6.653  12.842
73054ION    CL-38039  30.293  31.138   2.740
73055ION    CL-38040  13.718   7.856  13.528
73056ION    CL-38041   6.443  42.473   0.076
73057ION    CL-38042  10.224  21.010   3.696
73058ION    CL-38043   9.651   6.156  13.581
73059ION    CL-38044  23.501   8.843  14.431
73060ION    CL-38045  20.657   3.456   4.907
73061ION    CL-38046  38.140  20.434   4.689
73062ION    CL-38047  31.971  22.630   4.348
73063ION    CL-38048   5.463  34.411   3.236
73064ION    CL-38049  18.735  37.532   3.609
73065ION    CL-38050   5.648  21.169   2.419
73066ION    CL-38051  41.920  40.459  13.303
73067ION    CL-38052   7.165   9.510  12.897
73068ION    CL-38053  13.931   1.189  13.950
73069ION    CL-38054  33.526  13.798  14.439
73070ION    CL-38055  12.147  19.647  13.986
73071ION    CL-38056   8.780  42.195   0.427
73072ION    CL-38057  29.241  34.056   4.874
73073ION    CL-38058  20.770  13.500   0.088
73074ION    CL-38059  27.584  33.137  12.039
73075ION    CL-38060  23.940   6.491  14.518
73076ION    CL-38061  32.302  14.635   0.115
73077ION    CL-38062  11.870  26.996  13.031
73078ION    CL-38063  42.252   0.496  11.845
73079ION    CL-38064   7.335   7.753   4.391
73080ION    CL-38065   7.605  19.066   1.322
73081ION    CL-38066  29.184  33.705  11.632
73082ION    CL-38067  14.154  19.966  13.050
73083ION    CL-38068  29.570   2.931  13.774
73084ION    CL-38069  21.607  11.492   5.086
73085ION    CL-38070   2.090  38.985   3.225
73086ION    CL-38071  29.394  24.598  14.875
73087ION    CL-38072  44.120  40.628   9.885
73088ION    CL-38073  11.319   8.745  11.488
73089ION    CL-38074  40.253  31.841  10.705
73090ION    CL-38075  40.476   5.473   0.633
73091ION    CL-38076  31.300  10.381  14.576
73092ION    CL-38077   0.297  27.477  12.622
73093ION    CL-38078   2.284  37.780  14.307
73094ION    CL-38079   3.282   8.590   1.651
73095ION    CL-38080  42.462  41.430   3.062
73096ION    CL-38081  26.894  21.454   5.031
73097ION    CL-38082  24.341  21.582   2.815
73098ION    CL-38083  33.404  27.001   4.811
73099ION    CL-38084  41.173  34.199  10.206
73100ION    CL-38085   4.447  34.678  10.384
73101ION    CL-38086  26.426  31.608  12.170
73102ION    CL-38087  21.254  19.504  14.899
73103ION    CL-38088  29.399   7.481  11.149
73104ION    CL-38089   4.420  44.761   2.611
73105ION    CL-38090  42.138  37.140   3.629
73106ION    CL-38091  23.497  31.788  12.327
73107ION    CL-38092   0.982  11.007  11.918
73108ION    CL-38093  15.371  31.835  13.839
73109ION    CL-38094  23.527  36.964   1.992
73110ION    CL-38095  43.325  38.821   3.011
73111ION    CL-38096  33.059   1.739  14.937
73112ION    CL-38097   0.905  25.596  13.594
73113ION    CL-38098  39.438  42.858  12.678
73114ION    CL-38099  33.109  44.829  14.502
73115ION    CL-38100   1.228  12.797  13.795
73116ION    CL-38101  42.973  11.511   2.706
73117ION    CL-38102  21.210  18.721  13.164
73118ION    CL-38103  30.100   7.993  10.869
73119ION    CL-38104  31.648  35.830  14.299
73120ION    CL-38105   6.425  20.584   2.653
73121ION    CL-38106  39.957  17.609   3.137
73122ION    CL-38107  21.727  24.934  12.386
73123ION    CL-38108  25.529  19.068  14.038
73124ION    CL-38109  33.554  25.473  14.235
73125ION    CL-38110  11.089  32.119   1.125
73126ION    CL-38111  19.492  39.906  12.041
73127ION    CL-38112   5.859  27.509  11.956
73128ION    CL-38113   2.037  32.053   3.313
73129ION    CL-38114  24.177  13.824   1.678
73130ION    CL-38115   4.446  21.203   4.937
73131ION    CL-38116  22.250   9.535   0.706
73132ION    CL-38117  42.552  18.872  12.060
73133ION    CL-38118  29.637  12.800  14.571
73134ION    CL-38119   3.864  14.923   0.031
73135ION    CL-38120   0.607  17.478  13.991
73136ION    CL-38121  30.982  21.821   0.241
73137ION    CL-38122  17.807  27.405  12.357
73138ION    CL-38123  19.715   3.766   0.974
73139ION    CL-38124  13.877  20.890  10.699
73140ION    CL-38125  16.580  26.535   1.577
73141ION    CL-38126  27.122  40.973   1.315
73142ION    CL-38127  39.895  33.783  11.434
73143ION    CL-38128   5.881   2.148   0.446
73144ION    CL-38129  39.447  26.105  13.105
73145ION    CL-38130  20.025  18.082  14.289
73146ION    CL-38131   8.128  39.552   1.823
73147ION    CL-38132  19.870  39.833  14.391
73148ION    CL-38133   5.224  42.784   2.243
73149ION    CL-38134  28.456  36.498   0.462
73150ION    CL-38135   5.693  25.568  14.981
73151ION    CL-38136   6.340   6.807  14.723
73152ION    CL-38137  29.371  29.179  11.641
73153ION    CL-38138  10.427  36.752   4.377
73154ION    CL-38139  22.178  17.949  13.995
73155ION    CL-38140  33.590  26.379   4.050
73156ION    CL-38141  11.375   6.597  13.525
73157ION    CL-38142   5.891  25.272  13.256
73158ION    CL-38143  17.661  39.828   0.322
73159ION    CL-38144  25.424  14.780   3.613
73160ION    CL-38145   8.609  23.838   2.682
73161ION    CL-38146  17.560  16.551  11.033
73162ION    CL-38147   3.411   3.783  12.443
73163ION    CL-38148  37.844  24.034   0.048
73164ION    CL-38149  43.390  24.635   2.838
73165ION    CL-38150  10.716   4.206  11.512
73166ION    CL-38151  36.544  11.218  13.969
73167ION    CL-38152  35.770  31.950   4.151
73168ION    CL-38153  14.131  14.058  12.574
73169ION    CL-38154   2.766  21.216   3.261
73170ION    CL-38155   9.016   9.826   0.693
73171ION    CL-38156  27.973  12.947   2.169
73172ION    CL-38157  42.795  30.612   4.812
73173ION    CL-38158  19.571  34.582   3.704
73174ION    CL-38159  22.366  30.698  10.172
73175ION    CL-38160   6.727  12.687   1.406
73176ION    CL-38161   4.886   9.937   3.346
73177ION    CL-38162  37.172  40.331  14.933
73178ION    CL-38163  39.030   6.385   3.777
73179ION    CL-38164  39.786  21.745   0.107
73180ION    CL-38165  36.116  23.612  13.461
73181ION    CL-38166  17.282  32.220   2.413
73182ION    CL-38167  28.601  22.830   3.115
73183ION    CL-38168  17.707  36.798   3.366
73184ION    CL-38169  26.614   1.536  12.309
73185ION    CL-38170  36.188   4.149   3.662
73186ION    CL-38171  23.187  31.018   2.862
73187ION    CL-38172  33.867  12.704  12.895
73188ION    CL-38173  21.662  13.675   0.638
73189ION    CL-38174  34.872  26.048   2.301
73190ION    CL-38175  28.202  19.812   3.156
73191ION    CL-38176   7.172   4.698   4.877
73192ION    CL-38177  11.050   8.830   4.077
73193ION    CL-38178  22.663  20.195   5.316
73194ION    CL-38179  38.086  41.426  13.814
73195ION    CL-38180  44.824  22.275   3.065
73196ION    CL-38181  24.227  26.193  14.217
73197ION    CL-38182  15.093  10.445   0.336
73198ION    CL-38183  10.026   3.422   1.188
73199ION    CL-38184  35.642  22.180   2.262
73200ION    CL-38185   8.840  30.928  11.921
73201ION    CL-38186  34.976  25.104   1.033
73202ION    CL-38187  27.943   6.673   0.213
73203ION    CL-38188  35.637  35.860  13.056
73204ION    CL-38189  28.240   8.191   0.389
73205ION    CL-38190  19.841   5.879  12.822
73206ION    CL-38191  28.558  39.272  11.941
73207ION    CL-38192  21.322  41.702   1.383
73208ION    CL-38193   7.656  27.802   0.476
73209ION    CL-38194   5.869  33.959  14.695
73210ION    CL-38195  31.359  43.521   1.901
73211ION    CL-38196  40.813  31.910  14.612
73212ION    CL-38197  40.449   5.073   2.750
73213ION    CL-38198  33.045  30.667  11.837
73214ION    CL-38199  12.429  44.195   3.536
73215ION    CL-38200  21.033  11.568  14.921
73216ION    CL-38201  13.281  24.485   5.010
73217ION    CL-38202  29.108  20.854  10.816
73218ION    CL-38203   6.173  22.483  14.941
73219ION    CL-38204  13.055  16.225  11.138
73220ION    CL-38205  12.020   7.883  14.882
73221ION    CL-38206   5.911  25.422  11.013
73222ION    CL-38207  24.084   1.772  11.466
73223ION    CL-38208   6.743   2.352   0.909
73224ION    CL-38209  20.019  38.525  13.683
73225ION    CL-38210   7.007  19.061   3.726
73226ION    CL-38211  16.120  21.971  14.431
73227ION    CL-38212  25.973  26.653  12.473
73228ION    CL-38213  26.714  20.180  13.107
73229ION    CL-38214   2.470   8.794  12.794
73230ION    CL-38215  37.325  19.418  13.415
73231ION    CL-38216  23.747  32.786  13.974
73232ION    CL-38217  11.620  22.359  14.803
73233ION    CL-38218  40.271  31.193  14.172
73234ION    CL-38219  20.078   4.275   9.736
73235ION    CL-38220  33.159  43.548   3.706
73236ION    CL-38221  10.933  33.995  13.541
73237ION    CL-38222  17.297  15.815   0.446
73238ION    CL-38223  42.822  12.652  11.548
73239ION    CL-38224  40.767  24.039  11.605
73240ION    CL-38225  27.748  26.275  14.568
73241ION    CL-38226  31.996  10.377  12.353
73242ION    CL-38227  24.981  12.057  11.564
73243ION    CL-38228  21.426  18.967   0.797
73244ION    CL-38229   1.258   9.439  10.328
73245ION    CL-38230  23.574  31.249  13.644
73246ION    CL-38231  21.971  27.748  14.172
73247ION    CL-38232  26.822  22.606  10.749
73248ION    CL-38233  20.032   2.187   3.647
73249ION    CL-38234   8.824  35.861   4.171
73250ION    CL-38235   8.325  32.009   4.567
73251ION    CL-38236  29.696  28.072   0.898
73252ION    CL-38237  13.902  28.813   1.526
73253ION    CL-38238  26.141   9.119   3.953
73254ION    CL-38239   7.632  35.446   2.075
73255ION    CL-38240  38.943  10.430   2.320
73256ION    CL-38241  28.432  26.015   2.917
73257ION    CL-38242   1.913  24.660   4.020
73258ION    CL-38243  32.032  38.355  13.775
73259ION    CL-38244  29.084   8.586   2.216
73260ION    CL-38245  26.034  23.303   4.801
73261ION    CL-38246  44.431  26.688   3.253
73262ION    CL-38247   8.820  44.800  13.406
73263ION    CL-38248  20.307  21.310   3.794
73264ION    CL-38249  38.923  35.556  13.830
73265ION    CL-38250  16.766  44.075   0.243
73266ION    CL-38251   8.171   2.892  14.980
73267ION    CL-38252  40.384  18.330  13.882
73268ION    CL-38253  13.950  29.595   1.775
73269ION    CL-38254  26.009  21.327   3.716
73270ION    CL-38255  32.985  28.876  10.087
73271ION    CL-38256   6.395  21.210   4.015
73272ION    CL-38257  23.513  18.869  12.038
73273ION    CL-38258  32.880   4.264  14.790
73274ION    CL-38259   0.336   8.912  11.582
73275ION    CL-38260  31.166  24.557  10.841
73276ION    CL-38261  35.012  26.480   0.578
73277ION    CL-38262  43.922   1.437  11.543
73278ION    CL-38263  43.381  44.565   0.909
73279ION    CL-38264   8.407   1.295  13.442
73280ION    CL-38265   8.360  42.967   3.004
73281ION    CL-38266  27.064  17.647  14.764
73282ION    CL-38267   8.327  25.133   5.105
73283ION    CL-38268  26.795  30.702   0.580
73284ION    CL-38269  32.334  23.716  11.492
73285ION    CL-38270  28.789  13.141  10.690
73286ION    CL-38271  43.221   9.679  14.606
73287ION    CL-38272  20.158  42.527  11.215
73288ION    CL-38273  36.368   9.142  14.111
73289ION    CL-38274  24.521  43.219   2.799
73290ION    CL-38275  42.027  10.161  14.489
73291ION    CL-38276  41.559  35.539   2.755
73292ION    CL-38277  24.187   7.714   4.524
73293ION    CL-38278  33.505  30.012   9.896
73294ION    CL-38279  18.556  11.485   4.181
73295ION    CL-38280   3.464  43.947   1.257
73296ION    CL-38281  19.144  31.385   1.892
73297ION    CL-38282  12.239  42.810  13.357
73298ION    CL-38283  13.950  32.757   2.987
73299ION    CL-38284  33.183  26.464   0.909
73300ION    CL-38285  12.578  22.145   1.159
73301ION    CL-38286  35.596   6.550  13.009
73302ION    CL-38287  42.714  19.183  14.034
73303ION    CL-38288  23.927  43.701   3.281
73304ION    CL-38289  21.644  27.012  12.438
73305ION    CL-38290  43.794  18.961   4.354
73306ION    CL-38291  20.057  16.378  14.817
73307ION    CL-38292   2.505  28.301  11.453
73308ION    CL-38293  42.011   2.547   3.248
73309ION    CL-38294  37.861  10.427   2.329
73310ION    CL-38295  30.683   3.957   0.274
73311ION    CL-38296  11.309  42.449  13.422
73312ION    CL-38297  30.839  17.807   1.827
73313ION    CL-38298  16.732   2.304  10.151
73314ION    CL-38299   4.697  20.098   1.231
73315ION    CL-38300  12.734  26.424   0.732
73316ION    CL-38301   1.788  43.527   2.440
73317ION    CL-38302  11.684   1.914  12.706
73318ION    CL-38303  10.602  26.751   4.626
73319ION    CL-38304  19.799  14.245  14.418
73320ION    CL-38305  37.588  15.762   4.096
73321ION    CL-38306   9.117  19.060   5.034
73322ION    CL-38307  36.614  28.738  11.566
73323ION    CL-38308   1.757  35.020  12.502
73324ION    CL-38309  34.440   9.304  10.923
73325ION    CL-38310  20.101  13.791   1.637
73326ION    CL-38311  17.372  36.107  11.632
73327ION    CL-38312  13.646  12.192   4.353
73328ION    CL-38313  29.620  19.708   4.033
73329ION    CL-38314   9.821  25.975   0.423
73330ION    CL-38315  20.640  19.552   1.867
73331ION    CL-38316  15.643  44.480  12.976
73332ION    CL-38317  39.150  28.867   1.087
73333ION    CL-38318   2.615   3.240   1.385
73334ION    CL-38319  24.695  43.003  11.595
73335ION    CL-38320  23.057   4.065   2.606
73336ION    CL-38321  19.914   5.324   1.471
73337ION    CL-38322   5.198  28.887  13.320
73338ION    CL-38323  38.802  37.107   2.198
73339ION    CL-38324   6.890   8.664   2.080
73340ION    CL-38325  20.973  44.375   5.038
73341ION    CL-38326  37.303  44.503  12.997
73342ION    CL-38327  21.564   7.501  11.941
73343ION    CL-38328  14.258  10.414  11.284
73344ION    CL-38329  40.738   1.779   2.387
73345ION    CL-38330  28.939   3.167  12.972
73346ION    CL-38331  34.090  10.835   1.456
73347ION    CL-38332  15.890  23.494   5.252
73348ION    CL-38333  17.786   9.243   3.932
73349ION    CL-38334   3.712  23.065  14.706
73350ION    CL-38335  39.792  10.663   2.529
73351ION    CL-38336  26.505  14.556   2.698
73352ION    CL-38337  12.041  42.997   9.638
73353ION    CL-38338  18.038  42.451  12.231
73354ION    CL-38339  39.107  34.258   3.842
73355ION    CL-38340  35.821  31.485  12.151
73356ION    CL-38341  20.644   6.172  14.518
73357ION    CL-38342  17.635  40.780  12.592
73358ION    CL-38343  16.528  23.900  13.196
73359ION    CL-38344  10.926  43.246   0.973
73360ION    CL-38345  20.338  12.779   2.120
73361ION    CL-38346  17.231   0.303  12.546
73362ION    CL-38347  32.537  40.770  12.099
73363ION    CL-38348   6.337  22.191   1.721
73364ION    CL-38349  13.194  15.235  11.180
73365ION    CL-38350   1.405  31.083   1.760
73366ION    CL-38351  30.865  18.188   2.618
73367ION    CL-38352   4.909  10.132   4.225
73368ION    CL-38353   8.547  27.719  12.731
73369ION    CL-38354  35.890  13.625   2.138
73370ION    CL-38355  13.537   8.360  12.531
73371ION    CL-38356  13.535  32.123   1.446
73372ION    CL-38357   4.416  41.212   0.338
73373ION    CL-38358  11.734  40.845  13.955
73374ION    CL-38359  40.141  25.717   0.424
73375ION    CL-38360  10.782  39.521   1.311
73376ION    CL-38361  24.063   4.093  13.740
73377ION    CL-38362  31.499  30.649  13.802
73378ION    CL-38363  42.906  14.280  13.819
73379ION    CL-38364   8.438  14.272  10.944
73380ION    CL-38365  24.105  22.686   1.397
73381ION    CL-38366  43.827  21.881  10.955
73382ION    CL-38367  37.446  12.838   3.415
73383ION    CL-38368  30.504   8.657   0.808
73384ION    CL-38369  38.931  42.925   3.565
73385ION    CL-38370  24.952  41.456  14.617
73386ION    CL-38371  41.418  10.004   1.683
73387ION    CL-38372  28.382   8.775   2.903
73388ION    CL-38373  44.356  15.135  13.423
73389ION    CL-38374  11.894   5.184  10.245
73390ION    CL-38375   8.440  15.586  14.015
73391ION    CL-38376  17.041  36.325   1.071
73392ION    CL-38377  20.123  15.562   3.383
73393ION    CL-38378   9.755  12.798   9.912
73394ION    CL-38379  24.921  19.850  14.612
73395ION    CL-38380   4.611   6.595   1.107
73396ION    CL-38381  19.151   4.668  12.961
73397ION    CL-38382  25.634  35.931  12.865
73398ION    CL-38383   2.525   6.902  14.789
73399ION    CL-38384  11.574  26.574   2.559
73400ION    CL-38385  19.936  34.930   2.706
73401ION    CL-38386  43.453   7.701  13.532
73402ION    CL-38387  30.887  20.113  14.603
73403ION    CL-38388   8.818  26.504   1.686
73404ION    CL-38389  34.035  12.321  14.403
73405ION    CL-38390  13.389  37.029  10.988
73406ION    CL-38391  22.018  30.561   0.425
73407ION    CL-38392  32.530  23.055  13.695
73408ION    CL-38393  27.867   4.216  14.854
73409ION    CL-38394  29.387   2.431   4.114
73410ION    CL-38395   1.249  10.709   2.108
73411ION    CL-38396  27.097  42.948   0.536
73412ION    CL-38397  31.170  18.488  12.748
73413ION    CL-38398  14.738  15.015  14.284
73414ION    CL-38399   3.575  26.422  11.143
73415ION    CL-38400  21.214  27.330  13.588
73416ION    CL-38401   7.175  27.998  13.134
73417ION    CL-38402  19.847  17.717  11.184
73418ION    CL-38403  20.125  11.106   2.822
73419ION    CL-38404   6.895  40.324   5.113
73420ION    CL-38405  19.153  41.202  14.421
73421ION    CL-38406  23.460   2.908   0.381
73422ION    CL-38407  43.963  35.625  12.436
73423ION    CL-38408  29.385  16.662   3.860
73424ION    CL-38409   1.828  26.998   4.955
73425ION    CL-38410   7.406  13.248   3.383
73426ION    CL-38411  23.410  32.118  10.721
73427ION    CL-38412   1.703  30.341  13.664
73428ION    CL-38413   9.908  31.438   1.022
73429ION    CL-38414  43.879  33.677   2.421
73430ION    CL-38415  26.076  28.655  12.621
73431ION    CL-38416  44.179  17.890   5.416
73432ION    CL-38417  22.251  43.572   3.712
73433ION    CL-38418  41.711  14.143   1.434
73434ION    CL-38419  26.375   1.555   1.806
73435ION    CL-38420  18.577  35.641   1.348
73436ION    CL-38421  44.620  39.201   3.597
73437ION    CL-38422  30.977  23.667   2.415
73438ION    CL-38423   2.994  32.451  11.556
73439ION    CL-38424   1.788  35.200   0.108
73440ION    CL-38425  20.744  26.185   1.924
73441ION    CL-38426  44.220   8.327  13.390
73442ION    CL-38427  23.543  21.518   4.959
73443ION    CL-38428  20.840   6.400   3.719
73444ION    CL-38429  44.488  30.060  10.901
73445ION    CL-38430  21.307   1.251   0.763
73446ION    CL-38431  15.327  32.049   0.813
73447ION    CL-38432  28.557  27.087   3.866
73448ION    CL-38433  35.864   1.048  14.901
73449ION    CL-38434  38.897  20.016  13.077
73450ION    CL-38435   1.010  41.630   1.434
73451ION    CL-38436  15.062  19.577  10.675
73452ION    CL-38437  37.696  35.470  14.400
73453ION    CL-38438  40.798  23.627  12.863
73454ION    CL-38439   9.267  27.405  13.350
73455ION    CL-38440  17.604   6.980   0.821
73456ION    CL-38441  41.080  33.814  11.605
73457ION    CL-38442  13.283  39.341  12.095
73458ION    CL-38443   5.573  32.212  13.953
73459ION    CL-38444  44.523  40.067   1.040
73460ION    CL-38445  14.539  10.729  12.190
73461ION    CL-38446   3.577   2.073  13.013
73462ION    CL-38447   0.091  31.174   1.292
73463ION    CL-38448   4.435   5.844  11.645
73464ION    CL-38449  13.068  42.404   4.098
73465ION    CL-38450   2.439  34.052   4.089
73466ION    CL-38451   7.925  35.332  12.783
73467ION    CL-38452  23.223  23.094   4.159
73468ION    CL-38453  33.871   2.168   3.172
73469ION    CL-38454   4.320   3.826   0.152
73470ION    CL-38455  42.016  37.480  13.998
73471ION    CL-38456  29.974  19.053  12.255
73472ION    CL-38457  26.505   9.345  13.911
73473ION    CL-38458  34.526  38.987   1.646
73474ION    CL-38459   2.963  29.115  12.411
73475ION    CL-38460   5.223  35.682  13.862
73476ION    CL-38461  10.215  34.443   1.236
73477ION    CL-38462  12.710  26.713   4.809
73478ION    CL-38463   4.168  31.778   1.906
73479ION    CL-38464  22.095   6.449  14.515
73480ION    CL-38465  28.505   4.187  13.642
73481ION    CL-38466  20.155  31.998  14.030
73482ION    CL-38467  10.694  43.176   4.639
73483ION    CL-38468  13.314   7.237  11.493
73484ION    CL-38469  43.468  25.503  13.083
73485ION    CL-38470  15.805   8.616   5.063
73486ION    CL-38471  33.406  10.118  12.481
73487ION    CL-38472  23.811  41.948  13.936
73488ION    CL-38473  19.975  37.595  14.047
73489ION    CL-38474  16.503   4.849   9.925
73490ION    CL-38475  15.376   0.061   2.344
73491ION    CL-38476  24.153   2.340   4.583
73492ION    CL-38477  40.326  42.588   3.717
73493ION    CL-38478  26.391   8.308  12.513
73494ION    CL-38479   9.181   6.541  14.161
73495ION    CL-38480  11.224  18.987   2.378
73496ION    CL-38481  38.051  11.336   0.915
73497ION    CL-38482   4.794   1.576  10.547
73498ION    CL-38483   3.104   5.289   1.174
73499ION    CL-38484  34.788  43.523  14.372
73500ION    CL-38485  12.075  19.638  14.983
73501ION    CL-38486  30.165  19.630   1.850
73502ION    CL-38487  37.919   7.949   1.755
73503ION    CL-38488   1.228  11.878  12.655
73504ION    CL-38489  12.197  11.290   1.139
73505ION    CL-38490   9.391  32.386  10.642
73506ION    CL-38491  12.469   7.036   2.846
73507ION    CL-38492  32.191  25.750   1.483
73508ION    CL-38493  44.092  16.406  10.069
73509ION    CL-38494  38.835  29.987  13.318
73510ION    CL-38495  33.883  10.132   3.253
73511ION    CL-38496  40.484  33.696   1.826
73512ION    CL-38497  20.096  12.833  14.539
73513ION    CL-38498  11.955  36.361   0.508
73514ION    CL-38499  11.282  28.270   0.171
73515ION    CL-38500  40.882  30.139  13.163
73516ION    CL-38501  25.009  27.417  13.492
73517ION    CL-38502  24.461   8.123  13.182
73518ION    CL-38503   8.630   4.499  13.033
73519ION    CL-38504  24.401  19.254   4.110
73520ION    CL-38505   6.595  16.102  11.049
73521ION    CL-38506  43.006   5.518  11.177
73522ION    CL-38507  23.325  13.994  11.248
73523ION    CL-38508  11.327  25.207   4.698
73524ION    CL-38509  13.726  26.692   0.258
73525ION    CL-38510   2.771  15.232  12.278
73526ION    CL-38511  29.109  40.302  10.543
73527ION    CL-38512   4.807  32.054   3.642
73528ION    CL-38513   0.537   8.386  14.306
73529ION    CL-38514  17.212  20.675   0.810
73530ION    CL-38515  13.691  36.106   3.348
73531ION    CL-38516  38.568  28.512   3.209
73532ION    CL-38517   8.222  23.998   3.859
73533ION    CL-38518  13.934  20.633   2.199
73534ION    CL-38519  15.524  32.270   2.222
73535ION    CL-38520  23.929   3.665   2.325
73536ION    CL-38521  37.533  19.767   0.820
73537ION    CL-38522  10.458  42.082  14.407
73538ION    CL-38523  35.930  25.353  13.375
73539ION    CL-38524  22.340  38.242  14.297
73540ION    CL-38525  43.012  23.455   5.202
73541ION    CL-38526  30.189  32.516  14.462
73542ION    CL-38527  15.423   8.433  13.887
73543ION    CL-38528  22.969  25.176   1.064
73544ION    CL-38529   3.660  20.636  11.082
73545ION    CL-38530  42.227  40.256  14.901
73546ION    CL-38531  24.782  16.569  11.813
73547ION    CL-38532   2.548  43.269   0.262
73548ION    CL-38533  42.531  31.487  11.186
73549ION    CL-38534  25.655  22.976  14.480
73550ION    CL-38535  42.242   5.520   1.049
73551ION    CL-38536  41.953   9.170  14.375
73552ION    CL-38537  19.711  18.594  11.646
73553ION    CL-38538  39.408  23.066  11.135
73554ION    CL-38539  13.775   1.207  11.410
73555ION    CL-38540   4.872   2.367   4.618
73556ION    CL-38541  39.921  29.472   1.475
73557ION    CL-38542   9.301   0.953   2.315
73558ION    CL-38543   5.215   9.622  12.153
73559ION    CL-38544   6.398  14.189  12.530
73560ION    CL-38545  20.647  33.968   1.436
73561ION    CL-38546   0.249   7.663   4.196
73562ION    CL-38547  35.888   5.648   3.061
73563ION    CL-38548  26.042  44.271  11.289
73564ION    CL-38549  20.712  16.430  10.626
73565ION    CL-38550  44.983  18.752   0.733
73566ION    CL-38551  35.165  40.814   0.596
73567ION    CL-38552  32.881  34.518  13.964
73568ION    CL-38553   9.800   8.848   4.585
73569ION    CL-38554  40.444  44.858   0.048
73570ION    CL-38555  40.447  41.773   3.659
73571ION    CL-38556  40.132   8.859  12.210
73572ION    CL-38557  36.978  15.717   2.334
73573ION    CL-38558  15.745   6.852   0.451
73574ION    CL-38559  20.445  40.461   0.209
73575ION    CL-38560  25.793  21.422  12.068
73576ION    CL-38561  18.236  31.844   1.496
73577ION    CL-38562  23.057  38.790   1.882
73578ION    CL-38563  16.789  17.124  13.420
73579ION    CL-38564  42.917  25.903  11.840
73580ION    CL-38565  35.022  28.477   2.295
73581ION    CL-38566  44.220  35.426   0.010
73582ION    CL-38567  27.635  15.204  14.511
73583ION    CL-38568   3.260  21.522   4.291
73584ION    CL-38569  22.105  37.032   2.220
73585ION    CL-38570  30.941  34.118   4.918
73586ION    CL-38571   5.779  27.578  13.946
73587ION    CL-38572  27.689  16.300   3.770
73588ION    CL-38573  36.108  40.472  11.828
73589ION    CL-38574   6.467  26.908  13.022
73590ION    CL-38575  32.801  20.403  12.188
73591ION    CL-38576   2.851  16.795  12.400
73592ION    CL-38577  33.335  26.389  13.899
73593ION    CL-38578  12.118  12.864  13.376
73594ION    CL-38579  36.888  39.523  14.600
73595ION    CL-38580   1.737  16.569  12.573
73596ION    CL-38581   8.881   6.552   1.954
73597ION    CL-38582  19.304  37.537   3.037
73598ION    CL-38583   8.336  19.631  13.392
73599ION    CL-38584  38.098  20.251   2.419
73600ION    CL-38585  24.453  35.055   3.141
73601ION    CL-38586   9.304  20.555  12.020
73602ION    CL-38587  40.375  12.779   1.798
73603ION    CL-38588  38.535  27.493   3.266
73604ION    CL-38589  10.147   9.981  13.421
73605ION    CL-38590  10.255   5.837  12.033
73606ION    CL-38591  32.370  35.881   0.241
73607ION    CL-38592  15.432   5.086  12.498
73608ION    CL-38593  23.453  36.736   0.215
73609ION    CL-38594  13.510  12.250  12.496
73610ION    CL-38595  38.965  15.661   4.442
73611ION    CL-38596  33.842  43.201  14.319
73612ION    CL-38597  33.557   2.205  11.075
73613ION    CL-38598  29.930  19.661  14.461
73614ION    CL-38599  23.178  10.245   9.869
73615ION    CL-38600   5.842   1.256   0.899
73616ION    CL-38601   3.139   6.823  11.083
73617ION    CL-38602  29.369   9.726   1.908
73618ION    CL-38603   1.095  37.180  13.489
73619ION    CL-38604   1.937  12.420   1.834
73620ION    CL-38605  15.613  26.852   0.290
73621ION    CL-38606  13.639  27.526  10.659
73622ION    CL-38607  43.632  16.193  12.739
73623ION    CL-38608  12.537  10.205  13.067
73624ION    CL-38609  41.621   1.534  13.903
73625ION    CL-38610   1.795  17.264  11.470
73626ION    CL-38611  14.775  39.839   1.566
73627ION    CL-38612  42.978   5.925   1.381
73628ION    CL-38613  17.421  25.825  11.283
73629ION    CL-38614  28.620  44.790   4.097
73630ION    CL-38615  21.637  12.942  12.863
73631ION    CL-38616  37.060  34.083   1.329
73632ION    CL-38617  14.321   0.529   4.028
73633ION    CL-38618   7.667  40.929  12.825
73634ION    CL-38619   7.550   9.064   4.745
73635ION    CL-38620  25.078  24.984  12.252
73636ION    CL-38621  36.151  35.909  12.164
73637ION    CL-38622  25.366  36.267   4.425
73638ION    CL-38623   9.621  42.617  12.203
73639ION    CL-38624  30.853   7.605   2.417
73640ION    CL-38625  18.753  31.156  13.810
73641ION    CL-38626   7.828  26.203  12.747
73642ION    CL-38627  38.045  43.386   0.025
73643ION    CL-38628  32.129  32.360  12.628
73644ION    CL-38629   7.634  22.849  14.818
73645ION    CL-38630  11.808  24.934   3.275
73646ION    CL-38631  27.548  43.691  13.774
73647ION    CL-38632  19.590  27.184  14.122
73648ION    CL-38633  33.818  39.520   4.005
73649ION    CL-38634  11.024  10.341  12.473
73650ION    CL-38635  22.483  17.081   1.170
73651ION    CL-38636  44.768  44.244   0.819
73652ION    CL-38637  36.964  34.934  14.466
73653ION    CL-38638  35.086   3.980   0.362
73654ION    CL-38639  39.889   4.652   0.704
73655ION    CL-38640  36.561   3.252  14.689
73656ION    CL-38641  26.694  11.744  12.578
73657ION    CL-38642  12.433  24.748  14.822
73658ION    CL-38643  32.338  29.013  13.453
73659ION    CL-38644  17.442  41.273  11.060
73660ION    CL-38645  35.905  27.093  10.962
73661ION    CL-38646  44.908  34.427  12.508
73662ION    CL-38647  19.906  25.317   0.169
73663ION    CL-38648  13.688  17.624   0.893
73664ION    CL-38649  13.374   8.950  11.848
73665ION    CL-38650  41.379  30.930  11.612
73666ION    CL-38651  29.968  23.156   0.808
73667ION    CL-38652  12.215  11.507   4.653
73668ION    CL-38653   1.984  31.319  13.443
73669ION    CL-38654  36.362  21.000   0.839
73670ION    CL-38655  13.864   1.526  12.353
73671ION    CL-38656  31.930  26.591   3.369
73672ION    CL-38657  14.726  28.549   0.701
73673ION    CL-38658  38.170   5.112   3.913
73674ION    CL-38659  33.687  14.006   1.676
73675ION    CL-38660  16.493   2.472  11.581
73676ION    CL-38661  41.250  14.990  12.550
73677ION    CL-38662  12.650  41.303  13.948
73678ION    CL-38663   0.762   6.591   2.728
73679ION    CL-38664  20.456  35.513  11.642
73680ION    CL-38665  23.140   3.030   2.349
73681ION    CL-38666  32.175  40.298  14.262
73682ION    CL-38667  13.410  25.112  13.832
73683ION    CL-38668  20.743   4.066  14.844
73684ION    CL-38669  30.073  21.997   1.408
73685ION    CL-38670  42.119  30.006  14.457
73686ION    CL-38671   5.836  34.908   0.181
73687ION    CL-38672   8.187   1.887  10.430
73688ION    CL-38673  36.021  27.385   2.740
73689ION    CL-38674  36.019   4.373   0.296
73690ION    CL-38675   7.245  18.808  13.841
73691ION    CL-38676  30.098  36.023   0.816
73692ION    CL-38677  31.176   9.607  13.769
73693ION    CL-38678  33.297   6.344   4.971
73694ION    CL-38679  25.498  13.669  14.318
73695ION    CL-38680  30.323  23.744  12.606
73696ION    CL-38681  15.004   5.044   0.588
73697ION    CL-38682  44.425   2.094  13.468
73698ION    CL-38683  10.802  12.021  14.659
73699ION    CL-38684  10.795  40.758   0.763
73700ION    CL-38685  26.460  12.364   0.838
73701ION    CL-38686  19.516  35.885   2.407
73702ION    CL-38687  26.716  27.696  13.058
73703ION    CL-38688  29.349   7.688  12.993
73704ION    CL-38689   4.504  41.338  14.009
73705ION    CL-38690   2.374  38.053   2.933
73706ION    CL-38691  18.054   9.918   9.604
73707ION    CL-38692  34.514   7.501   0.189
73708ION    CL-38693  43.365  44.293  14.480
73709ION    CL-38694   0.822  29.854   9.790
73710ION    CL-38695  16.324   5.946   4.269
73711ION    CL-38696   3.282  12.106   0.241
73712ION    CL-38697  35.012  23.154   2.877
73713ION    CL-38698  12.443  15.416   5.077
73714ION    CL-38699  36.819  18.075  12.755
73715ION    CL-38700  21.588  28.658  11.563
73716ION    CL-38701  43.001  41.415  14.023
73717ION    CL-38702  43.354  43.688  11.572
73718ION    CL-38703  25.264  30.839  13.700
73719ION    CL-38704  22.238  16.167  12.493
73720ION    CL-38705  40.483   3.877  12.046
73721ION    CL-38706  44.899  11.322   3.987
73722ION    CL-38707  34.309  16.904   1.971
73723ION    CL-38708  44.807  29.420  12.344
73724ION    CL-38709  27.204   6.685   1.494
73725ION    CL-38710  23.014  21.710   3.682
73726ION    CL-38711  39.356  16.354  12.510
73727ION    CL-38712  15.900  24.554   2.705
73728ION    CL-38713   9.757  16.562   4.358
73729ION    CL-38714   1.830  11.876  10.709
73730ION    CL-38715  38.328  16.434   4.148
73731ION    CL-38716  43.705  10.177  10.980
73732ION    CL-38717  15.752  37.804   1.369
73733ION    CL-38718  14.109  30.659   1.022
73734ION    CL-38719  22.699  14.317  11.957
73735ION    CL-38720  22.464  26.517  14.471
73736ION    CL-38721  12.389  14.638  13.470
73737ION    CL-38722  38.588  29.136  10.356
73738ION    CL-38723  20.076  14.625   3.953
73739ION    CL-38724   7.635   0.729  12.045
73740ION    CL-38725  20.539  21.756  12.419
73741ION    CL-38726  19.223  37.625   0.433
73742ION    CL-38727  42.167  44.756  10.078
73743ION    CL-38728  13.043  16.729   4.469
73744ION    CL-38729  28.657  28.334  11.214
73745ION    CL-38730   5.243  36.809   1.415
73746ION    CL-38731  16.330  13.165   1.803
73747ION    CL-38732   4.001  11.542  13.498
73748ION    CL-38733  40.210   5.068   9.964
73749ION    CL-38734  32.151  39.034   0.261
73750ION    CL-38735  37.015  43.041  10.273
73751ION    CL-38736  38.711   2.457   4.565
73752ION    CL-38737  16.756   1.905  12.363
73753ION    CL-38738  18.960  37.437  14.086
73754ION    CL-38739   4.976  39.740   9.897
73755ION    CL-38740   7.442  43.863   1.363
73756ION    CL-38741  44.872  29.369  11.342
73757ION    CL-38742   9.502  34.319  11.251
73758ION    CL-38743  24.332  29.103  14.531
73759ION    CL-38744   0.167  32.167   1.197
73760ION    CL-38745  23.588  31.549   3.401
73761ION    CL-38746   6.345  27.475  14.813
73762ION    CL-38747  23.058  38.908   2.706
73763ION    CL-38748  33.493  43.908  13.703
73764ION    CL-38749  34.192  41.489  14.541
73765ION    CL-38750  14.590   5.496  11.878
73766ION    CL-38751   1.587  22.474   2.535
73767ION    CL-38752  12.536   5.174   0.824
73768ION    CL-38753   6.692  39.850   4.006
73769ION    CL-38754  42.218  29.254   3.311
73770ION    CL-38755  39.875  17.101  12.798
73771ION    CL-38756  16.298  41.100   1.020
73772ION    CL-38757  14.452   1.490   3.767
73773ION    CL-38758  32.620  37.601   4.019
73774ION    CL-38759  13.529  30.668  14.858
73775ION    CL-38760  16.478   3.168   0.322
73776ION    CL-38761   1.268  39.339   2.778
73777ION    CL-38762   8.788  20.316   2.048
73778ION    CL-38763  27.954  25.688   0.285
73779ION    CL-38764  22.581  16.462   3.017
73780ION    CL-38765  23.711  41.258   2.669
73781ION    CL-38766   9.366   2.299   1.782
73782ION    CL-38767  39.083   3.466  11.223
73783ION    CL-38768  29.275  28.361  10.294
73784ION    CL-38769  38.246  33.754   3.629
73785ION    CL-38770   6.099  31.253   0.042
73786ION    CL-38771  32.964  13.644   3.179
73787ION    CL-38772   9.846  29.986   3.826
73788ION    CL-38773  38.330  38.598  10.924
73789ION    CL-38774  11.216  41.238   4.073
73790ION    CL-38775  13.684  36.674  13.366
73791ION    CL-38776   3.522  38.916  12.473
73792ION    CL-38777  34.699  17.708  13.158
73793ION    CL-38778   9.543  23.688  14.971
73794ION    CL-38779  41.640  24.161  10.306
73795ION    CL-38780  22.829   5.072   3.824
73796ION    CL-38781  20.107  23.052  14.435
73797ION    CL-38782  39.794  14.483  11.372
73798ION    CL-38783  17.113  14.614   0.397
73799ION    CL-38784  31.185  32.296  12.952
73800ION    CL-38785  25.897  12.387   4.553
73801ION    CL-38786  18.947  33.919   2.554
73802ION    CL-38787  41.953  33.064   1.663
73803ION    CL-38788  24.688  18.613   3.540
73804ION    CL-38789  27.355   1.979   4.053
73805ION    CL-38790   6.499  24.516  13.499
73806ION    CL-38791  39.044  17.348   2.246
73807ION    CL-38792  10.697  36.075   2.826
73808ION    CL-38793   3.633  42.194  11.272
73809ION    CL-38794  12.823   9.039  12.361
73810ION    CL-38795  27.455  21.166  13.785
73811ION    CL-38796   7.289  25.854   1.245
73812ION    CL-38797  37.847  27.434   4.539
73813ION    CL-38798   5.784  16.639  10.817
73814ION    CL-38799  33.511  31.859  11.339
73815ION    CL-38800  17.228  40.061   2.790
73816ION    CL-38801  12.161  21.114  10.907
73817ION    CL-38802  37.947   6.192  11.502
73818ION    CL-38803   1.648  27.757   4.474
73819ION    CL-38804   8.091  30.615  14.544
73820ION    CL-38805  29.357   5.088  12.217
73821ION    CL-38806  12.847  42.580  11.127
73822ION    CL-38807  26.148  24.270   3.106
73823ION    CL-38808  33.987   5.641  13.780
73824ION    CL-38809  40.777  24.122   4.145
73825ION    CL-38810   4.381  14.987  10.706
73826ION    CL-38811  23.905  37.679  12.780
73827ION    CL-38812  23.773  39.532   2.370
73828ION    CL-38813  24.745  24.294   0.867
73829ION    CL-38814  34.735   9.082  14.740
73830ION    CL-38815  15.441  35.101   1.445
73831ION    CL-38816   0.346  23.821  14.076
73832ION    CL-38817  15.913  38.956   9.862
73833ION    CL-38818   2.017   8.895   4.014
73834ION    CL-38819  20.149  10.755  11.259
73835ION    CL-38820  40.845  20.044   1.787
73836ION    CL-38821  18.599  30.645  14.656
73837ION    CL-38822  35.247  44.884  12.120
73838ION    CL-38823  35.102   5.610  11.370
73839ION    CL-38824  10.510  44.539   3.201
73840ION    CL-38825  31.316   4.455   3.212
73841ION    CL-38826   3.647  22.760   3.451
73842ION    CL-38827  17.528   9.751  13.435
73843ION    CL-38828   8.890  19.755   1.226
73844ION    CL-38829  10.774   0.779  13.005
73845ION    CL-38830   5.163  25.135   2.280
73846ION    CL-38831   8.762  17.709  12.572
73847ION    CL-38832  36.029  36.750   0.374
73848ION    CL-38833   6.558  33.871  10.520
73849ION    CL-38834  38.925   4.962   1.913
73850ION    CL-38835  40.837  12.111   0.217
73851ION    CL-38836  24.802  19.151   2.418
73852ION    CL-38837  13.218  44.939  14.072
73853ION    CL-38838  21.297  37.469   2.745
73854ION    CL-38839  11.716  34.713   0.632
73855ION    CL-38840   4.271  34.447  11.906
73856ION    CL-38841   9.940  32.938  13.240
73857ION    CL-38842  21.835  35.734  12.052
73858ION    CL-38843   6.170  26.447  14.978
73859ION    CL-38844  11.781  42.660  11.213
73860ION    CL-38845  15.726   1.702   4.992
73861ION    CL-38846   9.422  30.033  12.067
73862ION    CL-38847  25.550   3.220   1.518
73863ION    CL-38848  40.335  22.259  14.359
73864ION    CL-38849  21.275  16.529  14.352
73865ION    CL-38850   5.131   1.617  12.816
73866ION    CL-38851  27.966   5.028   5.010
73867ION    CL-38852   1.163  42.742   2.823
73868ION    CL-38853  11.576  10.762  11.577
73869ION    CL-38854   4.395  24.160   5.027
73870ION    CL-38855  10.240  10.583  11.575
73871ION    CL-38856  32.254  13.019  10.272
73872ION    CL-38857  20.895  42.798   3.123
73873ION    CL-38858  36.574  10.106  10.438
73874ION    CL-38859  26.523  40.276  13.580
73875ION    CL-38860   5.491   2.558  11.478
73876ION    CL-38861   4.117   6.553   0.148
73877ION    CL-38862   9.645  42.806  10.338
73878ION    CL-38863  10.385  42.066  13.410
73879ION    CL-38864  27.578   3.310   4.153
73880ION    CL-38865  36.925  32.303   0.944
73881ION    CL-38866  37.319  14.912   4.792
73882ION    CL-38867  21.606  32.940   0.460
73883ION    CL-38868  19.796  15.225  11.441
73884ION    CL-38869   0.561   9.783   0.265
73885ION    CL-38870  16.028  29.594   4.207
73886ION    CL-38871   9.068  31.399   4.085
73887ION    CL-38872  42.238  17.611   0.142
73888ION    CL-38873  39.963  13.574   1.657
73889ION    CL-38874  18.331  26.245  13.101
73890ION    CL-38875  38.871  13.066  10.718
73891ION    CL-38876  10.396  10.802   2.290
73892ION    CL-38877   6.949   1.076  12.685
73893ION    CL-38878  37.976  21.036   0.331
73894ION    CL-38879  18.219  13.460   3.500
73895ION    CL-38880  42.727   0.071  14.462
73896ION    CL-38881  44.977   2.532   3.276
73897ION    CL-38882   6.697  30.381   4.655
73898ION    CL-38883  36.243   2.548   0.561
73899ION    CL-38884  18.543  41.214   2.813
73900ION    CL-38885  31.436  29.567   4.031
73901ION    CL-38886  12.297  38.650  14.479
73902ION    CL-38887  29.178  10.116   4.485
73903ION    CL-38888  18.783  16.489  12.861
73904ION    CL-38889   7.805  28.086   5.009
73905ION    CL-38890  33.925  22.450   2.935
73906ION    CL-38891  32.443  20.667   3.629
73907ION    CL-38892  14.906  19.596  12.045
73908ION    CL-38893   0.930   9.510  13.846
73909ION    CL-38894  14.744  42.942   5.061
73910ION    CL-38895  32.529   7.576   3.744
73911ION    CL-38896  19.214   5.957   1.889
73912ION    CL-38897   2.669  37.945  12.208
73913ION    CL-38898  35.152  35.830   2.881
73914ION    CL-38899  23.955  14.066  12.461
73915ION    CL-38900  13.006  44.803   5.006
73916ION    CL-38901  12.190  37.586  14.486
73917ION    CL-38902   1.966  38.318  12.935
73918ION    CL-38903  21.548   4.899  11.657
73919ION    CL-38904  15.804  39.087  12.708
73920ION    CL-38905  31.564  27.388  14.903
73921ION    CL-38906  31.657   4.655  12.301
73922ION    CL-38907  28.818  14.992   2.506
73923ION    CL-38908  30.711  11.816  12.396
73924ION    CL-38909  30.053  35.094   2.546
73925ION    CL-38910  41.948  14.106  14.285
73926ION    CL-38911  31.297  13.121  14.272
73927ION    CL-38912  21.730  31.020   3.977
73928ION    CL-38913   9.681   1.696   5.128
73929ION    CL-38914  20.255  43.009  13.317
73930ION    CL-38915   0.922  39.129  12.062
73931ION    CL-38916  32.675  18.314   9.847
73932ION    CL-38917   3.529  12.190   4.992
73933ION    CL-38918  38.582  13.931   3.432
73934ION    CL-38919  22.273  15.077  14.737
73935ION    CL-38920  36.737  38.941  10.427
73936ION    CL-38921  44.987  11.201   5.257
73937ION    CL-38922  37.567  24.490   2.596
73938ION    CL-38923  20.038  43.949   2.874
73939ION    CL-38924   5.735  36.332  11.055
73940ION    CL-38925  20.099  23.997  14.763
73941ION    CL-38926   7.830  33.903  10.436
73942ION    CL-38927   2.213  30.210   2.377
73943ION    CL-38928  36.379  13.531   5.013
73944ION    CL-38929  26.796  29.587  11.952
73945ION    CL-38930  34.449  36.776  11.515
73946ION    CL-38931  26.588  25.831  10.563
73947ION    CL-38932   5.440   2.033   2.081
73948ION    CL-38933  16.246  35.882   5.214
73949ION    CL-38934  41.409  24.318  14.817
73950ION    CL-38935   8.102  39.469  11.170
73951ION    CL-38936  43.644  35.329  13.219
73952ION    CL-38937  12.369  41.220  12.991
73953ION    CL-38938  27.897  26.441   1.823
73954ION    CL-38939  26.224  29.431  13.235
73955ION    CL-38940  40.484  39.278  14.681
73956ION    CL-38941  29.461  42.093  12.503
73957ION    CL-38942  25.686  42.779   0.513
73958ION    CL-38943  37.659  32.754  11.997
73959ION    CL-38944  29.543  24.747   3.856
73960ION    CL-38945  36.715  28.355  13.099
73961ION    CL-38946  40.623  20.929  12.423
73962ION    CL-38947  18.337  32.465   3.224
73963ION    CL-38948  27.657  20.362   1.839
73964ION    CL-38949  23.091  11.818  12.451
73965ION    CL-38950  20.852   0.611  12.099
73966ION    CL-38951  13.446  18.052   9.787
73967ION    CL-38952  26.125  29.316   4.508
73968ION    CL-38953   7.225  14.563   2.120
73969ION    CL-38954  30.429   3.610  12.218
73970ION    CL-38955   1.806  10.271  10.678
73971ION    CL-38956  12.299  25.754   0.048
73972ION    CL-38957  41.009   9.900   2.557
73973ION    CL-38958   6.881  26.143   0.481
73974ION    CL-38959  44.024  35.034  11.559
73975ION    CL-38960  36.518  23.910   0.378
73976ION    CL-38961  38.915  42.380   4.403
73977ION    CL-38962  10.680   5.577  10.350
73978ION    CL-38963  29.488  24.510   4.737
73979ION    CL-38964  31.615  17.670  13.466
73980ION    CL-38965  15.609   1.012  12.904
73981ION    CL-38966  19.011  17.553  13.704
73982ION    CL-38967  20.846  10.418   2.913
73983ION    CL-38968  16.844  21.928  10.841
73984ION    CL-38969  26.473  19.550   2.282
73985ION    CL-38970  16.987  42.839  11.047
73986ION    CL-38971  27.686   9.200  13.047
73987ION    CL-38972  40.957  42.234   4.093
73988ION    CL-38973  28.352  19.305  14.001
73989ION    CL-38974   5.984  26.482  11.654
73990ION    CL-38975  22.077   8.353   4.924
73991ION    CL-38976   9.419   6.923  13.500
73992ION    CL-38977  40.618  30.431   3.783
73993ION    CL-38978   1.316  41.747   0.240
73994ION    CL-38979   5.769   3.881  14.506
73995ION    CL-38980  43.803   4.962  12.273
73996ION    CL-38981   7.895  27.070   3.892
73997ION    CL-38982  12.460  12.296  12.598
73998ION    CL-38983  20.656   3.359   1.874
73999ION    CL-38984  41.686  18.618  11.583
74000ION    CL-38985  35.349  23.346  12.211
74001ION    CL-38986  26.967  16.116  12.441
74002ION    CL-38987   5.076   9.991  13.072
74003ION    CL-38988  13.475   6.444  13.518
74004ION    CL-38989  17.379  41.677  13.045
74005ION    CL-38990  31.725   5.691  10.348
74006ION    CL-38991   8.528  42.572   1.789
74007ION    CL-38992  22.227  22.002  12.778
74008ION    CL-38993  10.176  37.593  14.436
74009ION    CL-38994  11.998   2.331  11.965
74010ION    CL-38995  25.593  28.180  14.486
74011ION    CL-38996  12.186  32.108   0.241
74012ION    CL-38997  37.975  35.462   3.317
74013ION    CL-38998  41.782   5.743  11.535
74014ION    CL-38999  18.948  17.604   4.584
74015ION    CL-39000   9.757  10.022   4.904
74016ION    CL-39001  23.803  30.838   5.528
74017ION    CL-39002  25.069  38.293   4.524
74018ION    CL-39003  20.899  35.524   0.776
74019ION    CL-39004  19.668  16.534  12.731
74020ION    CL-39005  12.792   2.879   2.952
74021ION    CL-39006  24.777  41.951   0.648
74022ION    CL-39007   8.623  41.626   1.834
74023ION    CL-39008  19.760  18.217   9.719
74024ION    CL-39009  13.198  43.735  11.915
74025ION    CL-39010  32.493  27.552   0.354
74026ION    CL-39011  29.488   3.000   1.211
74027ION    CL-39012  26.524   7.997   2.724
74028ION    CL-39013  37.925   8.820  10.782
74029ION    CL-39014  29.408  33.885   3.159
74030ION    CL-39015   8.819   9.303   1.523
74031ION    CL-39016   3.488   2.434  14.898
74032ION    CL-39017  26.168  11.162  11.539
74033ION    CL-39018  36.858  39.516  13.601
74034ION    CL-39019  11.459   5.408   2.810
74035ION    CL-39020   2.802  24.202   4.031
74036ION    CL-39021  16.265  28.621   4.905
74037ION    CL-39022  28.262  21.038  11.755
74038ION    CL-39023   3.722  44.898   1.519
74039ION    CL-39024  13.036  18.466   3.782
74040ION    CL-39025  17.550   1.490  12.099
74041ION    CL-39026  13.953   2.831  14.751
74042ION    CL-39027   3.089  38.431   3.853
74043ION    CL-39028  33.085  18.137   1.331
74044ION    CL-39029  32.579  44.773  11.984
74045ION    CL-39030   9.761  28.272   1.462
74046ION    CL-39031  13.030  18.527  13.940
74047ION    CL-39032  21.226   8.747  14.952
74048ION    CL-39033  26.038   6.945   2.237
74049ION    CL-39034  44.313  39.506  12.330
74050ION    CL-39035   6.650  35.840   0.942
74051ION    CL-39036  13.567  22.244  12.727
74052ION    CL-39037  26.022   3.844  10.875
74053ION    CL-39038  37.151  41.237   4.160
74054ION    CL-39039  13.966  13.321   2.141
74055ION    CL-39040  35.182   2.643  10.831
74056ION    CL-39041  31.479  36.911  11.691
74057ION    CL-39042  21.412  10.253  11.737
74058ION    CL-39043   8.410  44.178  12.091
74059ION    CL-39044  43.990  15.180   0.268
74060ION    CL-39045  33.373   3.990  13.086
74061ION    CL-39046  39.252  31.198   3.566
74062ION    CL-39047   9.425  43.997   1.081
74063ION    CL-39048  36.992  43.232   2.577
74064ION    CL-39049  21.156  28.414  13.402
74065ION    CL-39050  12.405  28.049   5.325
74066ION    CL-39051  42.564  26.861  13.315
74067ION    CL-39052  25.506  14.764  10.652
74068ION    CL-39053  34.650  10.279  13.873
74069ION    CL-39054   6.572  35.237   1.598
74070ION    CL-39055  26.102  13.679   4.136
74071ION    CL-39056  12.540  22.552   2.289
74072ION    CL-39057  27.182  10.298   4.214
74073ION    CL-39058  35.440  32.730   0.649
74074ION    CL-39059  25.702  43.737   4.811
74075ION    CL-39060  30.852  15.037  14.142
74076ION    CL-39061  29.015  19.984  12.527
74077ION    CL-39062  27.488   4.239  13.381
74078ION    CL-39063  36.644  14.202   4.991
74079ION    CL-39064   4.914  23.495   3.167
74080ION    CL-39065   0.926  25.712  12.134
74081ION    CL-39066  24.004  10.179  10.585
74082ION    CL-39067   2.694  28.156  12.502
74083ION    CL-39068  40.791  26.132  12.472
74084ION    CL-39069  24.727   4.965   4.556
74085ION    CL-39070  23.234   4.591   4.472
74086ION    CL-39071  28.207  13.718  13.877
74087ION    CL-39072  13.037  34.956  12.273
74088ION    CL-39073   6.295   4.670   1.446
74089ION    CL-39074   7.537  23.919  11.084
74090ION    CL-39075  21.042  15.720  11.691
74091ION    CL-39076  44.405  24.575   1.370
74092ION    CL-39077   7.870  41.889   2.107
74093ION    CL-39078  13.607  15.301   2.859
  45.00000  45.00000  15.00000
